Converted from moscito
21600
    1SOL     ow    1   4.095   2.095   1.737  0.1937 -0.5493  0.2654
    1SOL     hw    2   4.120   2.003   1.735  0.8531 -0.4755  2.3206
    1SOL     hw    3   4.075   2.117   1.646  0.3431 -2.6176 -0.3135
    1SOL     vw    4   4.096   2.086   1.725  0.3004 -0.8125  0.4602
    2SOL     ow    5   2.935   2.002   3.114 -0.2760  0.4555  0.3243
    2SOL     hw    6   3.018   2.016   3.068 -0.1794  0.1010  0.3892
    2SOL     hw    7   2.953   1.929   3.173 -0.9539 -0.3809 -0.4802
    2SOL     vw    8   2.949   1.995   3.116 -0.3527  0.2984  0.2266
    3SOL     ow    9   6.432   1.382   4.997  0.7864  0.0237  0.1138
    3SOL     hw   10   6.398   1.439   4.929  1.0009 -0.2287 -0.2068
    3SOL     hw   11   6.508   1.428   5.033  0.8905 -0.0108 -0.0652
    3SOL     vw   12   6.437   1.395   4.993  0.8283 -0.0141  0.0477
    4SOL     ow   13   4.822   3.137   0.871  0.1050 -0.1650  0.1952
    4SOL     hw   14   4.753   3.185   0.916 -0.2700 -0.6752  0.1696
    4SOL     hw   15   4.903   3.177   0.902 -0.0757 -1.1882  2.1599
    4SOL     vw   16   4.824   3.148   0.881  0.0319 -0.3673  0.4510
    5SOL     ow   17   2.186   3.514   1.332 -0.0392 -0.1735  0.1878
    5SOL     hw   18   2.239   3.525   1.253 -2.2915 -0.6514 -1.4838
    5SOL     hw   19   2.097   3.532   1.304 -0.8014  0.9745  2.9675
    5SOL     vw   20   2.181   3.518   1.318 -0.4370 -0.0851  0.3340
    6SOL     ow   21   0.005   0.961   6.117 -0.2246 -0.1495 -0.3744
    6SOL     hw   22  -0.067   0.972   6.180 -0.1450 -1.1213 -0.1066
    6SOL     hw   23  -0.034   0.912   6.045  0.9781 -4.0694  1.3731
    6SOL     vw   24  -0.010   0.956   6.116 -0.0556 -0.7949 -0.1085
    7SOL     ow   25   6.104   3.475   4.059 -0.6496 -0.4902 -0.2790
    7SOL     hw   26   6.126   3.559   4.097  0.8319 -0.2315 -1.5997
    7SOL     hw   27   6.099   3.491   3.965  2.7524 -2.3765 -0.9562
    7SOL     vw   28   6.106   3.488   4.051 -0.0055 -0.7049 -0.5426
    8SOL     ow   29   5.491   2.039   4.399  0.6780 -0.1317 -0.6876
    8SOL     hw   30   5.519   2.130   4.409 -0.5547  0.3870 -1.6834
    8SOL     hw   31   5.396   2.043   4.401  0.6100 -1.6108  0.8201
    8SOL     vw   32   5.482   2.051   4.401  0.5064 -0.2584 -0.6201
    9SOL     ow   33   1.618   4.709   6.836  0.0380  0.5727 -0.2621
    9SOL     hw   34   1.597   4.627   6.882 -1.7731  1.1991  0.1162
    9SOL     hw   35   1.675   4.682   6.764 -0.4730 -1.0155 -0.1160
    9SOL     vw   36   1.623   4.694   6.833 -0.2683  0.4456 -0.1931
   10SOL     ow   37   4.348   4.797   4.942  0.1360 -0.5329 -0.0577
   10SOL     hw   38   4.437   4.797   4.976  0.4228 -1.9011 -0.7457
   10SOL     hw   39   4.326   4.890   4.932  1.9134 -0.1760 -0.9551
   10SOL     vw   40   4.357   4.810   4.945  0.4084 -0.6666 -0.2668
   11SOL     ow   41   2.391   3.849   6.708 -0.0912 -0.2493  0.4616
   11SOL     hw   42   2.434   3.770   6.675  0.8525 -0.0184  1.1124
   11SOL     hw   43   2.451   3.920   6.686  0.5703 -0.0748  2.6245
   11SOL     vw   44   2.405   3.848   6.700  0.1206 -0.1957  0.8328
   12SOL     ow   45   4.381   4.514   4.821 -0.1175  0.2271 -0.2359
   12SOL     hw   46   4.383   4.425   4.856  2.1794  0.5036  0.4770
   12SOL     hw   47   4.343   4.504   4.734 -0.0320 -1.4287 -0.1221
   12SOL     vw   48   4.376   4.501   4.814  0.1969  0.0448 -0.1271
   13SOL     ow   49   3.958   3.997   6.586  0.3717  0.7330  0.2655
   13SOL     hw   50   3.952   4.050   6.665  0.0682 -0.2258  0.9046
   13SOL     hw   51   3.867   3.978   6.563  0.4922 -0.5200  0.7587
   13SOL     vw   52   3.945   4.001   6.593  0.3476  0.4413  0.4151
   14SOL     ow   53   6.776   3.284   1.239  0.3550 -0.1971 -0.0142
   14SOL     hw   54   6.790   3.314   1.149 -0.1388  0.4835  0.1276
   14SOL     hw   55   6.683   3.262   1.242  1.2989 -5.8895 -1.3335
   14SOL     vw   56   6.766   3.285   1.227  0.4144 -0.8583 -0.1696
   15SOL     ow   57   0.924   4.056   1.926 -0.5233  0.1984 -0.3120
   15SOL     hw   58   0.894   4.032   1.838 -0.8087  0.3327 -0.2534
   15SOL     hw   59   0.997   3.996   1.943  0.5713  1.1998 -1.2611
   15SOL     vw   60   0.930   4.045   1.916 -0.4166  0.3483 -0.4295
   16SOL     ow   61   4.300   3.118   4.679  0.4633  0.6976  0.1094
   16SOL     hw   62   4.210   3.149   4.686 -0.3368 -1.4382 -0.0234
   16SOL     hw   63   4.319   3.120   4.585  0.7951  1.6763  0.1792
   16SOL     vw   64   4.291   3.122   4.667  0.4015  0.5449  0.1011
   17SOL     ow   65   0.632   0.918   6.621 -0.5975  0.0545 -0.6147
   17SOL     hw   66   0.666   0.924   6.532  1.4346 -3.3602 -0.2154
   17SOL     hw   67   0.560   0.855   6.616 -1.0150  0.4536  0.0710
   17SOL     vw   68   0.627   0.911   6.609 -0.3844 -0.3434 -0.4714
   18SOL     ow   69   4.183   4.765   1.599 -0.7849 -0.0678  0.2985
   18SOL     hw   70   4.188   4.845   1.651  0.3065  0.1487 -0.0980
   18SOL     hw   71   4.232   4.786   1.519  1.3073 -1.7201  1.0364
   18SOL     vw   72   4.190   4.778   1.595 -0.3650 -0.2570  0.3436
   19SOL     ow   73   1.792   0.759   2.421  0.0044  0.2881  0.2678
   19SOL     hw   74   1.781   0.705   2.499  4.5569  1.2888  1.9093
   19SOL     hw   75   1.840   0.703   2.360 -1.0998  0.4287 -0.7717
   19SOL     vw   76   1.797   0.744   2.423  0.4594  0.4387  0.3473
   20SOL     ow   77   3.695   1.721   3.396 -0.4455  1.0026  0.2133
   20SOL     hw   78   3.625   1.723   3.460 -1.1814 -1.4350 -0.4327
   20SOL     hw   79   3.726   1.631   3.395  1.0840  1.4747 -1.2375
   20SOL     vw   80   3.690   1.710   3.404 -0.3409  0.7433 -0.0634
   21SOL     ow   81   0.885   1.090   6.674  0.1090 -0.1823  0.2859
   21SOL     hw   82   0.952   1.109   6.739  2.0449 -1.1203 -1.3419
   21SOL     hw   83   0.858   1.176   6.642  1.1124  0.1848  0.3951
   21SOL     vw   84   0.890   1.104   6.679  0.4968 -0.2576  0.0856
   22SOL     ow   85   5.142   0.831   3.338 -0.5640  0.2397 -0.1020
   22SOL     hw   86   5.196   0.763   3.379 -0.0890 -0.4724 -1.8305
   22SOL     hw   87   5.056   0.790   3.328 -0.2977 -0.0998 -1.0772
   22SOL     vw   88   5.138   0.817   3.342 -0.4663  0.1009 -0.4587
   23SOL     ow   89   0.843   2.679   1.739 -0.2188  0.0973 -0.1102
   23SOL     hw   90   0.907   2.750   1.726 -0.7233  0.4642 -0.6393
   23SOL     hw   91   0.882   2.625   1.808  0.6437  0.3418 -0.3811
   23SOL     vw   92   0.857   2.682   1.746 -0.1716  0.1779 -0.2157
   24SOL     ow   93   5.758   6.891   1.002 -0.7473  0.0450 -0.6963
   24SOL     hw   94   5.761   6.871   1.096 -2.0615 -0.8576 -0.8233
   24SOL     hw   95   5.732   6.983   0.998  3.2120  1.4049 -0.1537
   24SOL     vw   96   5.755   6.900   1.014 -0.3984  0.1054 -0.6415
   25SOL     ow   97   3.590   1.778   5.405 -0.1966 -0.1899  0.3320
   25SOL     hw   98   3.684   1.786   5.422  0.0738  0.5189 -1.3435
   25SOL     hw   99   3.584   1.724   5.326 -1.2079 -0.2881  0.4616
   25SOL     vw  100   3.601   1.772   5.397 -0.2942 -0.1094  0.1283
   26SOL     ow  101   3.185   2.448   5.483  0.5899 -0.5314 -0.0439
   26SOL     hw  102   3.106   2.411   5.445  0.0465  0.0350  0.5017
   26SOL     hw  103   3.234   2.483   5.409  1.3231 -2.6549 -0.6363
   26SOL     vw  104   3.181   2.448   5.468  0.6150 -0.7368 -0.0498
   27SOL     ow  105   6.550   2.408   0.808  0.1226 -0.4085 -0.1420
   27SOL     hw  106   6.481   2.472   0.824  0.2595  0.1414 -1.5302
   27SOL     hw  107   6.629   2.461   0.798  0.6836 -1.0005  1.0537
   27SOL     vw  108   6.551   2.424   0.809  0.2148 -0.4141 -0.1674
   28SOL     ow  109   2.038   6.044   6.499  0.0132 -0.3986 -0.2743
   28SOL     hw  110   2.020   5.996   6.418 -0.7378  1.0137 -0.9806
   28SOL     hw  111   1.958   6.036   6.550 -0.0259 -0.1067 -0.2893
   28SOL     vw  112   2.025   6.037   6.495 -0.0910 -0.1738 -0.3693
   29SOL     ow  113   4.433   0.250   2.356 -0.7275 -0.6044  0.0470
   29SOL     hw  114   4.454   0.168   2.401 -1.7576 -0.7698  0.2594
   29SOL     hw  115   4.501   0.311   2.384  0.3419 -1.5143 -0.4984
   29SOL     vw  116   4.445   0.247   2.366 -0.7224 -0.7462  0.0032
   30SOL     ow  117   2.915   4.270   1.681  0.5295  0.1630 -0.3688
   30SOL     hw  118   2.917   4.326   1.759  0.2494 -0.4858  0.1137
   30SOL     hw  119   2.837   4.298   1.634  0.4080  0.1997 -0.1474
   30SOL     vw  120   2.905   4.282   1.685  0.4765  0.0820 -0.2760
   31SOL     ow  121   5.638   4.969   1.474  0.0621  0.7949 -0.1922
   31SOL     hw  122   5.694   4.897   1.446  1.3738  1.4257  0.7213
   31SOL     hw  123   5.622   5.020   1.394  0.1869  0.2062 -0.5952
   31SOL     vw  124   5.643   4.966   1.460  0.2518  0.8006 -0.1249
   32SOL     ow  125   2.499   6.208   4.133  0.2300  0.4714 -0.8893
   32SOL     hw  126   2.554   6.172   4.202 -0.9933  2.2017  1.0797
   32SOL     hw  127   2.414   6.165   4.144  0.0017  0.8140 -1.2580
   32SOL     vw  128   2.495   6.198   4.143  0.0384  0.7448 -0.6783
   33SOL     ow  129   5.257   4.130   0.755  0.0194  0.6247 -0.2404
   33SOL     hw  130   5.259   4.058   0.692  1.0895 -0.5079  1.0259
   33SOL     hw  131   5.192   4.191   0.720 -0.9207 -0.9525 -1.3402
   33SOL     vw  132   5.249   4.129   0.742  0.0365  0.2673 -0.2184
   34SOL     ow  133   2.311   0.304   2.712  0.3202 -0.0217  0.0464
   34SOL     hw  134   2.350   0.391   2.716  1.2430 -0.4622  1.7564
   34SOL     hw  135   2.364   0.251   2.772 -1.2825 -1.3236  0.4105
   34SOL     vw  136   2.323   0.308   2.721  0.2304 -0.2516  0.3200
   35SOL     ow  137   2.166   5.979   6.104 -0.1461 -0.6944  0.0415
   35SOL     hw  138   2.170   5.884   6.110  1.7058 -0.7016 -0.7664
   35SOL     hw  139   2.073   5.998   6.092 -0.6167 -2.3411  0.7930
   35SOL     vw  140   2.154   5.969   6.103  0.0361 -0.9127  0.0341
   36SOL     ow  141   6.645   4.534   2.910 -0.1699 -0.0410  0.7353
   36SOL     hw  142   6.674   4.444   2.920 -0.1273 -0.0732  0.3330
   36SOL     hw  143   6.600   4.536   2.826  2.0287  0.8921 -0.4754
   36SOL     vw  144   6.643   4.522   2.901  0.1256  0.0780  0.5226
   37SOL     ow  145   0.335   6.911   5.577  0.0198  0.6187 -0.3473
   37SOL     hw  146   0.331   6.927   5.671  0.5243 -0.1369 -0.1882
   37SOL     hw  147   0.307   6.994   5.537 -2.4504  0.2603  0.4762
   37SOL     vw  148   0.331   6.924   5.584 -0.2395  0.4718 -0.2179
   38SOL     ow  149   3.842   1.253   2.969  0.0673  0.1289  0.3591
   38SOL     hw  150   3.749   1.273   2.958  0.7352  2.9717 -1.1799
   38SOL     hw  151   3.885   1.300   2.898  2.9025  0.9206  2.4312
   38SOL     vw  152   3.836   1.262   2.958  0.5295  0.6085  0.4295
   39SOL     ow  153   6.868   4.169   1.502  0.3019 -0.0345 -0.0062
   39SOL     hw  154   6.806   4.240   1.520  1.5772  0.9140  0.8091
   39SOL     hw  155   6.887   4.177   1.408 -1.3732 -0.8505 -0.4633
   39SOL     vw  156   6.862   4.179   1.492  0.2494 -0.0172  0.0410
   40SOL     ow  157   3.683   5.982   0.404  0.0216  0.2542  0.3106
   40SOL     hw  158   3.649   6.067   0.430 -0.1602  0.4368 -0.4879
   40SOL     hw  159   3.690   5.932   0.486 -0.1860  0.9197  0.7370
   40SOL     vw  160   3.679   5.987   0.418 -0.0297  0.3662  0.2615
   41SOL     ow  161   3.784   3.787   2.656 -0.0195  0.6252  0.2205
   41SOL     hw  162   3.711   3.812   2.713 -1.8232 -1.8887 -0.7847
   41SOL     hw  163   3.831   3.869   2.639  0.2296  1.6470  4.6485
   41SOL     vw  164   3.780   3.801   2.661 -0.2246  0.4283  0.6721
   42SOL     ow  165   6.576   2.112   0.041 -0.1376 -0.2855 -0.4534
   42SOL     hw  166   6.547   2.202   0.028 -2.2098 -0.7140  0.7826
   42SOL     hw  167   6.665   2.120   0.075 -1.2989  1.4799  2.4972
   42SOL     vw  168   6.584   2.125   0.044 -0.5643 -0.1092  0.0987
   43SOL     ow  169   4.165   1.548   0.579 -0.5164 -0.2178  0.6951
   43SOL     hw  170   4.162   1.466   0.530  1.7907 -0.5720  1.0349
   43SOL     hw  171   4.130   1.526   0.665  1.1090 -1.1691  1.1499
   43SOL     vw  172   4.160   1.534   0.584  0.0026 -0.3900  0.7999
   44SOL     ow  173   3.597   6.551   2.681  0.1834 -0.2330  0.0057
   44SOL     hw  174   3.567   6.519   2.596  1.3633 -1.0836 -0.1221
   44SOL     hw  175   3.677   6.501   2.698  0.8688  1.0952  0.8520
   44SOL     vw  176   3.604   6.540   2.672  0.4295 -0.1700  0.1005
   45SOL     ow  177   1.809   2.336   5.110 -0.4977  0.5005  0.0462
   45SOL     hw  178   1.714   2.341   5.099 -0.5999  0.5753  0.9050
   45SOL     hw  179   1.842   2.316   5.023 -1.3015  0.4735 -0.2609
   45SOL     vw  180   1.801   2.334   5.097 -0.6172  0.5069  0.1192
   46SOL     ow  181   6.283   4.468   0.104  0.0228  0.1735  0.1264
   46SOL     hw  182   6.312   4.523   0.177  0.4126 -0.9738  0.8519
   46SOL     hw  183   6.360   4.462   0.047 -0.7573  2.4931 -1.3532
   46SOL     vw  184   6.297   4.475   0.106 -0.0288  0.3281  0.0269
   47SOL     ow  185   2.666   1.939   0.947 -0.0181  0.0591  0.2523
   47SOL     hw  186   2.624   2.007   0.894 -0.3851 -0.8257 -0.6183
   47SOL     hw  187   2.645   1.963   1.037 -1.3776  0.3065 -0.1089
   47SOL     vw  188   2.658   1.952   0.952 -0.2459 -0.0249  0.0898
   48SOL     ow  189   0.757   4.660   5.378  0.6855 -0.4408  0.5056
   48SOL     hw  190   0.846   4.628   5.392  0.7212  0.1947  1.9562
   48SOL     hw  191   0.766   4.755   5.371  0.0625 -0.2966  1.4398
   48SOL     vw  192   0.770   4.669   5.379  0.6080 -0.3378  0.8199
   49SOL     ow  193   5.504   0.583   0.974 -0.1280 -0.4415 -0.3830
   49SOL     hw  194   5.577   0.559   0.917 -1.2886 -0.4514 -1.9316
   49SOL     hw  195   5.440   0.623   0.915 -1.9218 -1.5779  0.7049
   49SOL     vw  196   5.505   0.585   0.958 -0.5178 -0.5927 -0.4438
   50SOL     ow  197   6.268   6.978   6.857 -0.0135  0.4349 -0.0978
   50SOL     hw  198   6.209   7.026   6.915 -1.6656 -1.4837 -0.0766
   50SOL     hw  199   6.318   7.046   6.812  0.0723  2.0321  2.2500
   50SOL     vw  200   6.267   6.993   6.858 -0.2201  0.3924  0.2146
   51SOL     ow  201   0.856   0.446   5.402 -0.0842 -0.6770  0.2320
   51SOL     hw  202   0.856   0.451   5.306 -2.1145 -1.4040  0.1415
   51SOL     hw  203   0.817   0.361   5.421  0.1630 -0.4777  1.7247
   51SOL     vw  204   0.851   0.435   5.392 -0.3195 -0.7466  0.4170
   52SOL     ow  205   6.156   2.796   6.422 -0.1263 -0.1678 -0.5672
   52SOL     hw  206   6.229   2.755   6.469  0.3373  2.0129  0.7736
   52SOL     hw  207   6.077   2.758   6.461  0.2128 -2.3502 -1.8404
   52SOL     vw  208   6.155   2.785   6.433 -0.0207 -0.1678 -0.5584
   53SOL     ow  209   1.415   2.214   6.565 -0.1432 -0.0394  0.6395
   53SOL     hw  210   1.359   2.268   6.621  0.4697 -0.4863  1.7076
   53SOL     hw  211   1.490   2.192   6.620  0.4592 -0.5251 -0.3529
   53SOL     vw  212   1.417   2.218   6.580  0.0172 -0.1626  0.6495
   54SOL     ow  213   1.001   5.075   5.943  0.1234 -0.3391 -0.7489
   54SOL     hw  214   1.017   4.989   5.983 -0.1443  0.2451  0.7075
   54SOL     hw  215   0.982   5.132   6.018  1.7455  1.3337 -1.5426
   54SOL     vw  216   1.001   5.071   5.958  0.3021 -0.0412 -0.6614
   55SOL     ow  217   6.158   2.873   1.580  0.3525 -0.4269 -0.5821
   55SOL     hw  218   6.176   2.967   1.578 -1.2224 -0.0920 -0.3293
   55SOL     hw  219   6.245   2.832   1.577  1.1288  1.0309  0.7053
   55SOL     vw  220   6.172   2.880   1.579  0.2472 -0.1904 -0.3790
   56SOL     ow  221   4.187   4.165   0.660  0.0277 -0.2547 -0.1449
   56SOL     hw  222   4.157   4.210   0.581  0.8628  4.2506  1.8127
   56SOL     hw  223   4.267   4.212   0.686  0.5304 -2.4015  2.7001
   56SOL     vw  224   4.194   4.177   0.653  0.2041  0.0565  0.4887
   57SOL     ow  225   4.368   5.987   0.984 -0.4221  0.5364  0.2203
   57SOL     hw  226   4.384   5.899   1.019 -0.0814 -0.0011 -1.2189
   57SOL     hw  227   4.452   6.014   0.947 -0.7839  1.0586 -0.2270
   57SOL     vw  228   4.381   5.979   0.984 -0.4246  0.5345 -0.0286
   58SOL     ow  229   1.389   4.442   6.211 -0.3989 -0.3859  0.1220
   58SOL     hw  230   1.340   4.392   6.276 -0.3252  1.3645  1.6241
   58SOL     hw  231   1.329   4.513   6.186  0.1510 -0.1444 -0.5426
   58SOL     vw  232   1.374   4.445   6.216 -0.3166 -0.1230  0.2325
   59SOL     ow  233   6.259   6.383   1.959 -0.4623 -0.2467  0.1537
   59SOL     hw  234   6.176   6.375   2.004 -0.8863  1.5937 -0.2313
   59SOL     hw  235   6.239   6.429   1.878  1.0283  1.0230  0.4423
   59SOL     vw  236   6.246   6.388   1.954 -0.3216  0.1636  0.1409
   60SOL     ow  237   7.020   1.341   3.364 -0.9623 -0.3482  0.1726
   60SOL     hw  238   7.072   1.290   3.427  1.8243  2.2884  0.2114
   60SOL     hw  239   7.025   1.291   3.283  1.4068 -0.4129  0.2857
   60SOL     vw  240   7.027   1.327   3.362 -0.2820 -0.0089  0.1926
   61SOL     ow  241   4.693   5.596   3.696 -0.3590 -0.0469  0.0417
   61SOL     hw  242   4.628   5.653   3.655 -0.2109 -0.3989 -0.7134
   61SOL     hw  243   4.692   5.517   3.642 -2.3278 -1.8155  2.4744
   61SOL     vw  244   4.684   5.593   3.683 -0.5991 -0.3264  0.2631
   62SOL     ow  245   5.753   6.417   2.504  0.0806 -0.1276  0.0979
   62SOL     hw  246   5.771   6.370   2.423  1.5692  0.0066  0.3242
   62SOL     hw  247   5.720   6.502   2.475  0.4327 -0.1441 -0.3604
   62SOL     vw  248   5.751   6.422   2.489  0.3231 -0.1118  0.0675
   63SOL     ow  249   4.787   4.075   4.289  0.0932 -0.3934  0.0741
   63SOL     hw  250   4.849   4.075   4.363  2.3642 -0.8935 -1.7088
   63SOL     hw  251   4.776   3.982   4.268 -2.0532 -0.3795  0.8920
   63SOL     vw  252   4.794   4.063   4.296  0.1097 -0.4573 -0.0529
   64SOL     ow  253   5.144   2.469   2.716  0.9311 -0.1577 -0.0944
   64SOL     hw  254   5.129   2.374   2.707  1.3426 -0.3339  0.9309
   64SOL     hw  255   5.220   2.475   2.773 -0.4285  0.8107  1.6979
   64SOL     vw  256   5.152   2.457   2.722  0.8059 -0.0532  0.2774
   65SOL     ow  257   1.177   6.274   5.250  0.1226 -0.4432 -0.1616
   65SOL     hw  258   1.262   6.247   5.284  0.4285  0.4392 -0.2156
   65SOL     hw  259   1.117   6.263   5.324  0.7547  1.3067  0.6527
   65SOL     vw  260   1.180   6.269   5.264  0.2463 -0.0958 -0.0615
   66SOL     ow  261   2.814   4.876   4.946 -0.1628  0.1799 -0.4865
   66SOL     hw  262   2.809   4.948   4.883  0.1623  0.3243 -0.3496
   66SOL     hw  263   2.893   4.894   4.997  0.0072 -0.3562 -0.5482
   66SOL     vw  264   2.824   4.888   4.944 -0.0975  0.1280 -0.4766
   67SOL     ow  265   2.815   6.362   2.025  0.0423  0.1709 -0.0267
   67SOL     hw  266   2.808   6.325   1.937 -1.7469 -0.0626  0.1639
   67SOL     hw  267   2.909   6.373   2.039  0.4398 -0.9539 -1.4793
   67SOL     vw  268   2.826   6.358   2.015 -0.1414 -0.0081 -0.1932
   68SOL     ow  269   1.729   5.118   5.437 -0.1597  0.0618 -0.6840
   68SOL     hw  270   1.781   5.136   5.358 -1.2662  0.5296 -1.3379
   68SOL     hw  271   1.733   5.023   5.448  3.4868  0.2764  1.1987
   68SOL     vw  272   1.736   5.108   5.428  0.1755  0.1519 -0.5219
   69SOL     ow  273   0.816   4.014   1.109  0.6251 -0.0099 -0.9948
   69SOL     hw  274   0.737   3.964   1.129 -0.1400  1.6828  0.5882
   69SOL     hw  275   0.799   4.054   1.024 -0.1919  0.2279 -0.7274
   69SOL     vw  276   0.803   4.013   1.101  0.4164  0.2446 -0.7507
   70SOL     ow  277   6.723   6.023   6.773 -0.5018 -0.9974  0.3604
   70SOL     hw  278   6.675   6.047   6.694  1.9296 -0.9750 -1.2295
   70SOL     hw  279   6.656   6.013   6.841 -2.4648  1.4079 -1.0803
   70SOL     vw  280   6.708   6.025   6.772 -0.4401 -0.6771 -0.0396
   71SOL     ow  281   6.568   3.997   3.662 -0.5609  0.0523  0.1597
   71SOL     hw  282   6.562   4.072   3.722 -0.2404  0.1774  0.0359
   71SOL     hw  283   6.650   4.010   3.615 -1.1173  0.3079 -0.7788
   71SOL     vw  284   6.578   4.009   3.664 -0.5920  0.1028  0.0196
   72SOL     ow  285   3.964   2.361   1.779  0.4647  0.1288  0.3479
   72SOL     hw  286   3.882   2.404   1.754  0.8865  0.8601  0.2126
   72SOL     hw  287   4.017   2.431   1.818  0.6694 -0.5291  1.2784
   72SOL     vw  288   3.960   2.376   1.781  0.5474  0.1384  0.4529
   73SOL     ow  289   6.860   5.672   2.263  0.5750 -0.5857 -0.2070
   73SOL     hw  290   6.909   5.687   2.182  2.1979 -0.0042  0.8189
   73SOL     hw  291   6.822   5.757   2.284 -1.5588 -1.1881 -1.3573
   73SOL     vw  292   6.862   5.685   2.255  0.5076 -0.5887 -0.2233
   74SOL     ow  293   0.289   4.121   0.956  0.0702  0.0011  0.2977
   74SOL     hw  294   0.344   4.199   0.957 -2.0237  1.7089 -2.4933
   74SOL     hw  295   0.334   4.061   0.896 -0.7536  1.2561 -1.7033
   74SOL     vw  296   0.302   4.123   0.948 -0.3148  0.3922 -0.3345
   75SOL     ow  297   0.350   0.943   3.965  0.3742  0.7685  0.2778
   75SOL     hw  298   0.350   0.888   3.886 -2.0628 -0.3726  0.9762
   75SOL     hw  299   0.426   1.000   3.954  0.7006 -0.0265 -2.4005
   75SOL     vw  300   0.360   0.943   3.953  0.0958  0.5130  0.0166
   76SOL     ow  301   6.983   1.975   2.647  0.3308  0.0190  0.2785
   76SOL     hw  302   7.026   1.908   2.701  3.2145  1.7951  0.4240
   76SOL     hw  303   7.013   1.956   2.558 -0.8220 -0.2910 -0.0535
   76SOL     vw  304   6.993   1.964   2.642  0.5589  0.2124  0.2539
   77SOL     ow  305   1.102   0.169   3.003  0.1802  0.8073  0.1284
   77SOL     hw  306   1.096   0.237   3.070 -0.4355  1.3978 -0.5228
   77SOL     hw  307   1.075   0.089   3.048  0.9039  0.9783  0.8976
   77SOL     vw  308   1.098   0.168   3.018  0.1945  0.9078  0.1439
   78SOL     ow  309   6.627   2.874   6.304  0.5535  0.3284  0.6819
   78SOL     hw  310   6.537   2.871   6.337  0.0337  3.0066 -0.2016
   78SOL     hw  311   6.682   2.883   6.382 -0.2739  2.0246  1.1276
   78SOL     vw  312   6.622   2.875   6.318  0.3757  0.9056  0.6244
   79SOL     ow  313   1.863   2.014   1.512  0.2176  0.6700  0.0827
   79SOL     hw  314   1.880   2.065   1.591  0.4683 -0.1572  0.5831
   79SOL     hw  315   1.948   2.006   1.469  0.4590 -0.4376  0.7130
   79SOL     vw  316   1.876   2.020   1.517  0.2825  0.4147  0.2319
   80SOL     ow  317   4.052   6.651   0.823  0.2414 -0.4626  0.1364
   80SOL     hw  318   4.138   6.613   0.842  1.0119  0.2647 -1.6646
   80SOL     hw  319   3.990   6.588   0.860  1.5271 -1.5201  0.5926
   80SOL     vw  320   4.055   6.638   0.830  0.5128 -0.5057 -0.0410
   81SOL     ow  321   5.105   0.303   4.488 -0.8378 -0.1546 -0.4608
   81SOL     hw  322   5.165   0.229   4.496  0.9493  1.2906  0.3051
   81SOL     hw  323   5.075   0.300   4.397  2.3436  0.3962 -1.6931
   81SOL     vw  324   5.109   0.293   4.477 -0.1822  0.1088 -0.5224
   82SOL     ow  325   2.306   2.232   5.913  0.0328 -0.0721 -0.4450
   82SOL     hw  326   2.285   2.229   6.006  1.8901 -0.3413  0.0055
   82SOL     hw  327   2.257   2.308   5.880 -0.2081  0.3761  0.8597
   82SOL     vw  328   2.297   2.242   5.921  0.2459 -0.0485 -0.2136
   83SOL     ow  329   4.396   2.126   5.684  0.2250  0.0430 -0.0353
   83SOL     hw  330   4.377   2.152   5.774 -0.8514 -1.7798  0.3313
   83SOL     hw  331   4.401   2.208   5.636  0.1987  1.0373  1.5667
   83SOL     vw  332   4.394   2.140   5.690  0.0796 -0.0663  0.2244
   84SOL     ow  333   4.282   2.973   0.225 -0.1013  0.3621 -0.4390
   84SOL     hw  334   4.274   3.068   0.237 -2.4722  0.4882 -2.2681
   84SOL     hw  335   4.229   2.935   0.295 -0.8289  0.4843 -0.9152
   84SOL     vw  336   4.274   2.981   0.236 -0.5102  0.3948 -0.7431
   85SOL     ow  337   4.447   4.728   3.378 -0.3437 -0.2090 -0.6524
   85SOL     hw  338   4.451   4.813   3.334  0.7184 -0.3218 -0.8013
   85SOL     hw  339   4.530   4.722   3.426 -0.7906 -0.7822  0.0747
   85SOL     vw  340   4.459   4.738   3.379 -0.2625 -0.2999 -0.5761
   86SOL     ow  341   3.025   2.184   6.595  0.1576  0.3280  0.4043
   86SOL     hw  342   2.968   2.258   6.615  0.4853  0.3091  1.4900
   86SOL     hw  343   2.985   2.110   6.640  1.4591  0.4814  1.9152
   86SOL     vw  344   3.012   2.184   6.604  0.3724  0.3458  0.7470
   87SOL     ow  345   5.460   4.333   0.852  0.0295  0.0903  0.0435
   87SOL     hw  346   5.397   4.264   0.830 -0.1996  0.2067  0.3207
   87SOL     hw  347   5.546   4.292   0.844  0.0955  0.5235 -2.6736
   87SOL     vw  348   5.463   4.319   0.848  0.0081  0.1626 -0.2784
   88SOL     ow  349   3.212   2.431   1.850  0.0031 -0.4365 -0.4557
   88SOL     hw  350   3.190   2.416   1.758 -0.9331 -2.1325  0.0017
   88SOL     hw  351   3.256   2.351   1.878  1.5671  0.6120  0.2358
   88SOL     vw  352   3.215   2.418   1.842  0.0859 -0.5219 -0.3042
   89SOL     ow  353   4.923   2.620   1.701 -0.1998 -0.4164  0.3428
   89SOL     hw  354   4.992   2.556   1.683  0.5522  0.4194  0.1390
   89SOL     hw  355   4.844   2.581   1.665  0.3470 -0.9790 -0.2866
   89SOL     vw  356   4.922   2.607   1.694 -0.0286 -0.3804  0.2329
   90SOL     ow  357   2.323   6.757   3.052  0.3124 -0.5671 -0.5349
   90SOL     hw  358   2.386   6.821   3.019  0.9302 -0.2161  1.2349
   90SOL     hw  359   2.312   6.695   2.980  2.5045 -0.5024 -0.9980
   90SOL     vw  360   2.330   6.757   3.038  0.6832 -0.5121 -0.3625
   91SOL     ow  361   5.102   1.929   1.215 -0.1313 -0.1258  0.0921
   91SOL     hw  362   5.185   1.912   1.170 -0.0389  1.7310 -0.5424
   91SOL     hw  363   5.120   1.910   1.307  0.7170 -0.6063 -0.1586
   91SOL     vw  364   5.115   1.924   1.221 -0.0072  0.0557 -0.0246
   92SOL     ow  365   1.467   4.275   5.995  0.2381 -0.1853 -0.1683
   92SOL     hw  366   1.425   4.320   6.068  0.2980  0.4902 -0.5440
   92SOL     hw  367   1.415   4.196   5.982 -0.4928  0.2900 -0.1752
   92SOL     vw  368   1.455   4.270   6.003  0.1497 -0.0334 -0.2189
   93SOL     ow  369   1.791   5.375   0.347  0.3169 -0.1291 -0.7656
   93SOL     hw  370   1.868   5.412   0.305  0.5507 -0.9793 -1.0955
   93SOL     hw  371   1.722   5.441   0.334  1.2298  1.1428  0.4686
   93SOL     vw  372   1.792   5.389   0.340  0.4681 -0.0737 -0.6463
   94SOL     ow  373   5.912   0.058   5.332  0.6850  0.3137  0.3581
   94SOL     hw  374   5.916  -0.018   5.274  0.7998 -0.2435  1.0759
   94SOL     hw  375   5.866   0.125   5.282  1.0626 -0.0439 -0.4888
   94SOL     vw  376   5.907   0.057   5.318  0.7501  0.1930  0.3409
   95SOL     ow  377   1.006   5.756   2.686  0.2513  0.8119  0.0909
   95SOL     hw  378   0.933   5.695   2.693 -0.1651  1.3748  0.7935
   95SOL     hw  379   1.084   5.701   2.685 -0.1352  0.2552  0.4033
   95SOL     vw  380   1.006   5.741   2.686  0.1454  0.8128  0.2247
   96SOL     ow  381   3.913   0.593   0.411  0.3321 -0.4699  0.0468
   96SOL     hw  382   3.859   0.584   0.332 -0.1735  1.9153  0.0357
   96SOL     hw  383   3.865   0.544   0.478  0.8013 -2.5896 -1.0690
   96SOL     vw  384   3.899   0.585   0.410  0.3273 -0.4348 -0.1018
   97SOL     ow  385   3.267   0.886   6.283 -0.1554 -0.1008 -0.2037
   97SOL     hw  386   3.202   0.842   6.338 -1.3634  0.9287 -0.7753
   97SOL     hw  387   3.254   0.979   6.300  2.4149  0.1369  1.0533
   97SOL     vw  388   3.257   0.892   6.293  0.0243  0.0664 -0.1130
   98SOL     ow  389   1.091   1.436   5.437  0.1280 -0.2385  0.2514
   98SOL     hw  390   1.151   1.377   5.392  0.1346 -2.9202  3.3595
   98SOL     hw  391   1.004   1.403   5.414  0.0034  0.4217 -0.2550
   98SOL     vw  392   1.087   1.424   5.428  0.1124 -0.5052  0.5946
   99SOL     ow  393   5.818   3.050   6.572  0.0143  0.3678 -0.4115
   99SOL     hw  394   5.783   3.072   6.486  0.2710 -1.9660 -1.1855
   99SOL     hw  395   5.817   2.954   6.574  2.4224  0.3029  1.1719
   99SOL     vw  396   5.813   3.040   6.561  0.3657  0.0514 -0.3049
  100SOL     ow  397   2.764   2.938   5.632  0.1851 -0.0362 -0.5364
  100SOL     hw  398   2.779   3.011   5.692  0.8321 -0.0631 -0.6511
  100SOL     hw  399   2.676   2.952   5.597 -1.3045 -1.4015  2.3408
  100SOL     vw  400   2.755   2.949   5.635  0.0740 -0.2199 -0.1721
  101SOL     ow  401   4.535   3.682   2.438  0.2226 -0.1340 -0.3247
  101SOL     hw  402   4.534   3.748   2.369 -2.8263 -1.0243 -1.2724
  101SOL     hw  403   4.603   3.620   2.411  0.8853  0.8920 -1.1052
  101SOL     vw  404   4.544   3.683   2.426 -0.0920 -0.1160 -0.5527
  102SOL     ow  405   5.953   2.988   5.397  0.2255  0.0483  0.3681
  102SOL     hw  406   6.042   3.006   5.366  1.5721 -1.3938  3.0703
  102SOL     hw  407   5.929   2.906   5.355  0.0233  0.5849 -0.5902
  102SOL     vw  408   5.962   2.980   5.388  0.3767 -0.0712  0.5980
  103SOL     ow  409   2.804   5.573   1.826 -0.2951  0.2358  0.2559
  103SOL     hw  410   2.808   5.570   1.921 -0.1536 -0.7379  0.2222
  103SOL     hw  411   2.712   5.555   1.805  0.0150 -1.3600  0.1574
  103SOL     vw  412   2.792   5.571   1.835 -0.2356 -0.1032  0.2385
  104SOL     ow  413   4.950   6.290   2.561  0.0407 -0.3843  0.6043
  104SOL     hw  414   4.874   6.328   2.517 -0.0088 -0.0689  0.9587
  104SOL     hw  415   4.979   6.358   2.621 -0.2765 -1.0419  1.5186
  104SOL     vw  416   4.943   6.304   2.563 -0.0079 -0.4292  0.7715
  105SOL     ow  417   2.557   1.817   6.841 -0.2686 -0.3231 -0.1346
  105SOL     hw  418   2.496   1.747   6.817 -1.3343  0.8824 -1.1056
  105SOL     hw  419   2.610   1.831   6.763  0.2122 -0.3252  0.1917
  105SOL     vw  420   2.556   1.810   6.828 -0.3458 -0.1643 -0.2198
  106SOL     ow  421   4.079   1.140   3.120 -0.5485 -0.2559  0.2342
  106SOL     hw  422   4.110   1.210   3.063 -2.9686  0.1230 -0.7415
  106SOL     hw  423   4.116   1.060   3.082 -0.4731  0.1891 -0.6526
  106SOL     vw  424   4.088   1.139   3.108 -0.8578 -0.1472 -0.0116
  107SOL     ow  425   5.463   2.601   5.675 -0.4508  0.5557  0.2423
  107SOL     hw  426   5.470   2.634   5.586  0.6473  0.9944  0.4797
  107SOL     hw  427   5.408   2.523   5.667  0.0060  0.3260 -0.8882
  107SOL     vw  428   5.457   2.595   5.662 -0.2456  0.5831  0.1242
  108SOL     ow  429   4.834   6.934   0.548 -0.4677 -0.0484  0.3328
  108SOL     hw  430   4.882   7.001   0.500  0.1145 -1.3226 -0.9234
  108SOL     hw  431   4.780   6.891   0.482 -1.2040 -0.4972  1.2066
  108SOL     vw  432   4.833   6.937   0.533 -0.4880 -0.2759  0.2823
  109SOL     ow  433   3.703   0.410   0.287  0.2420 -0.1318 -0.0456
  109SOL     hw  434   3.708   0.402   0.383 -2.4878 -0.9628  0.0976
  109SOL     hw  435   3.744   0.330   0.254 -3.4348 -2.5065  0.6706
  109SOL     vw  436   3.709   0.399   0.296 -0.6032 -0.5547  0.0678
  110SOL     ow  437   2.398   7.029   2.172 -0.2786  0.1468  0.6183
  110SOL     hw  438   2.364   7.072   2.093 -0.0645 -1.1856 -0.2265
  110SOL     hw  439   2.406   7.100   2.236  1.8018  1.7422 -1.2565
  110SOL     vw  440   2.394   7.044   2.170  0.0241  0.1815  0.2594
  111SOL     ow  441   3.696   6.005   3.758 -0.5354  0.0184 -0.2668
  111SOL     hw  442   3.716   6.036   3.846  2.0230  0.1739 -0.8208
  111SOL     hw  443   3.667   6.083   3.711 -0.1385  0.3168 -0.0245
  111SOL     vw  444   3.695   6.019   3.764 -0.1456  0.0782 -0.3080
  112SOL     ow  445   6.056   6.305   0.420 -1.1673  0.3957 -0.6526
  112SOL     hw  446   6.143   6.334   0.393 -0.1053  0.3056  2.3069
  112SOL     hw  447   6.039   6.227   0.367  0.0425  1.0417 -2.0586
  112SOL     vw  448   6.065   6.298   0.409 -0.8676  0.4692 -0.4476
  113SOL     ow  449   2.797   3.557   0.053 -0.6546 -0.1232  0.3300
  113SOL     hw  450   2.812   3.466   0.028  1.2775  0.7125 -1.9428
  113SOL     hw  451   2.714   3.580   0.010 -1.3910 -0.8861  1.2929
  113SOL     vw  452   2.788   3.548   0.044 -0.4970 -0.1136  0.1572
  114SOL     ow  453   6.272   6.670   6.752 -0.1026 -0.5891 -0.5655
  114SOL     hw  454   6.330   6.659   6.677 -1.2253 -1.6021 -1.3417
  114SOL     hw  455   6.220   6.589   6.753 -0.8424 -0.1187  0.6596
  114SOL     vw  456   6.272   6.658   6.742 -0.3483 -0.6607 -0.5059
  115SOL     ow  457   0.968   3.196   5.111  0.2138 -0.7254  0.1587
  115SOL     hw  458   0.899   3.257   5.136 -2.5611 -3.2082 -0.8480
  115SOL     hw  459   1.007   3.168   5.195  0.4338  1.1146  0.7064
  115SOL     vw  460   0.964   3.200   5.126 -0.1233 -0.8101  0.0982
  116SOL     ow  461   0.312   6.501   2.859 -0.1829  0.2818  0.5161
  116SOL     hw  462   0.281   6.462   2.941  0.9148 -2.5624 -0.3077
  116SOL     hw  463   0.404   6.475   2.854 -0.4607 -0.4355 -2.0329
  116SOL     vw  464   0.320   6.492   2.869 -0.0747 -0.1881  0.0710
  117SOL     ow  465   5.488   0.319   6.117 -0.2538  0.6132 -0.1083
  117SOL     hw  466   5.536   0.263   6.179  0.4172 -0.3414 -1.4459
  117SOL     hw  467   5.397   0.289   6.124  0.1496 -0.9832 -1.0778
  117SOL     vw  468   5.483   0.307   6.126 -0.1118  0.2766 -0.4125
  118SOL     ow  469   2.449   1.268   1.807 -0.1144 -0.1537 -0.0832
  118SOL     hw  470   2.412   1.342   1.856  1.2826  1.8890 -1.9347
  118SOL     hw  471   2.375   1.208   1.795 -1.4963  1.2699  0.8763
  118SOL     vw  472   2.434   1.270   1.812 -0.1124  0.3037 -0.2009
  119SOL     ow  473   4.533   3.277   3.519 -0.2376 -0.4164  0.2842
  119SOL     hw  474   4.507   3.345   3.456 -0.2975  0.8645  1.6343
  119SOL     hw  475   4.451   3.246   3.556 -0.1513  2.0740  2.9511
  119SOL     vw  476   4.519   3.282   3.515 -0.2344  0.0813  0.8142
  120SOL     ow  477   1.441   1.510   5.478 -0.3504  0.4590 -0.6357
  120SOL     hw  478   1.451   1.532   5.385  3.1445 -0.3000 -0.5587
  120SOL     hw  479   1.503   1.568   5.523 -0.7451 -0.3720  1.0339
  120SOL     vw  480   1.451   1.521   5.472  0.0586  0.2491 -0.4051
  121SOL     ow  481   3.086   0.088   4.430  0.2526  0.0612  0.2072
  121SOL     hw  482   3.180   0.082   4.411  0.0182  0.7506 -1.3119
  121SOL     hw  483   3.074   0.178   4.460 -0.2943  0.8961 -2.2433
  121SOL     vw  484   3.097   0.099   4.431  0.1495  0.2624 -0.3164
  122SOL     ow  485   5.777   2.039   6.434  0.1992 -0.1045  0.6711
  122SOL     hw  486   5.756   2.085   6.352  0.8226 -1.4329 -0.2747
  122SOL     hw  487   5.695   2.037   6.483 -0.4871 -0.3267 -0.4540
  122SOL     vw  488   5.764   2.045   6.429  0.1907 -0.3092  0.3979
  123SOL     ow  489   3.330   6.634   2.760  0.5232 -0.3334 -0.1891
  123SOL     hw  490   3.311   6.541   2.756  2.0931 -0.9128  2.9273
  123SOL     hw  491   3.251   6.674   2.797  0.6655 -0.7976  0.6311
  123SOL     vw  492   3.317   6.627   2.764  0.7491 -0.4711  0.3302
  124SOL     ow  493   2.886   2.317   3.176  0.3590  0.0075  0.1628
  124SOL     hw  494   2.840   2.358   3.103  0.6672 -2.7120 -1.7264
  124SOL     hw  495   2.967   2.367   3.186 -0.4581  1.4479 -0.1772
  124SOL     vw  496   2.890   2.329   3.168  0.2918 -0.1611 -0.1312
  125SOL     ow  497   0.251   3.618   3.521 -0.5734 -0.1727  0.3912
  125SOL     hw  498   0.264   3.603   3.428 -1.9587 -1.4397  0.3632
  125SOL     hw  499   0.258   3.713   3.532 -0.4812 -0.0070 -0.9986
  125SOL     vw  500   0.254   3.628   3.510 -0.7440 -0.3181  0.2042
  126SOL     ow  501   0.940   4.515   3.986  0.1658  0.6494  0.4208
  126SOL     hw  502   0.976   4.533   4.072  0.4576 -1.1159  0.7180
  126SOL     hw  503   0.937   4.419   3.981  2.2527  0.5780 -2.3463
  126SOL     vw  504   0.944   4.505   3.997  0.4796  0.4070  0.0950
  127SOL     ow  505   0.839   2.723   3.483  0.2981 -0.0153 -0.0305
  127SOL     hw  506   0.884   2.777   3.548  0.4478  1.5442 -1.3609
  127SOL     hw  507   0.859   2.633   3.508  0.8077  0.5533  1.7302
  127SOL     vw  508   0.847   2.719   3.495  0.3851  0.2655  0.0262
  128SOL     ow  509   5.705   1.334   4.108  0.3732  0.2777 -0.0721
  128SOL     hw  510   5.625   1.381   4.084  1.0624  1.2774 -0.4823
  128SOL     hw  511   5.682   1.288   4.189 -0.3591  1.2653  0.3086
  128SOL     vw  512   5.691   1.334   4.116  0.3672  0.5399 -0.0761
  129SOL     ow  513   3.917   6.926   0.895  0.4992  0.5117  0.1725
  129SOL     hw  514   3.849   6.950   0.832 -0.2427  1.7640  1.4079
  129SOL     hw  515   3.898   6.978   0.973  0.9748 -1.4772  1.7246
  129SOL     vw  516   3.906   6.936   0.897  0.4641  0.4144  0.5403
  130SOL     ow  517   1.815   5.700   6.391  0.2803  0.6254  0.1403
  130SOL     hw  518   1.808   5.702   6.486 -1.4182  2.5192  0.0344
  130SOL     hw  519   1.907   5.677   6.374  0.0640 -2.3341  2.1398
  130SOL     vw  520   1.827   5.697   6.401  0.0277  0.4847  0.3903
  131SOL     ow  521   1.282   3.239   1.275  0.2558 -0.0180 -0.2608
  131SOL     hw  522   1.236   3.213   1.195 -1.2897  0.9658  0.2718
  131SOL     hw  523   1.374   3.246   1.248 -0.1126 -0.5046 -1.7411
  131SOL     vw  524   1.288   3.237   1.261  0.0032  0.0476 -0.3858
  132SOL     ow  525   3.355   4.349   4.218 -0.0831 -0.7950  0.3577
  132SOL     hw  526   3.421   4.418   4.217 -0.8916  0.0269  1.8075
  132SOL     hw  527   3.401   4.272   4.182  1.1590  0.1699 -0.2036
  132SOL     vw  528   3.370   4.348   4.213 -0.0259 -0.5596  0.4747
  133SOL     ow  529   3.774   4.515   2.791 -0.4883  0.6009 -0.1229
  133SOL     hw  530   3.845   4.528   2.854  0.9460  0.4092 -1.6157
  133SOL     hw  531   3.794   4.431   2.749 -2.6112 -0.3505  0.6370
  133SOL     vw  532   3.786   4.505   2.794 -0.5792  0.4504 -0.2197
  134SOL     ow  533   1.000   5.605   6.674  0.0266  0.2031 -0.6609
  134SOL     hw  534   1.064   5.591   6.744  0.5439 -0.9171 -1.3361
  134SOL     hw  535   0.950   5.524   6.671 -1.2904  0.9801 -0.3079
  134SOL     vw  536   1.002   5.593   6.683 -0.0789  0.1578 -0.7036
  135SOL     ow  537   4.702   2.828   1.740  0.2555 -0.3465 -0.3446
  135SOL     hw  538   4.666   2.868   1.660 -0.7167 -1.5165 -0.5241
  135SOL     hw  539   4.672   2.884   1.811  1.0200  0.6361 -0.7730
  135SOL     vw  540   4.693   2.840   1.739  0.2282 -0.3713 -0.4249
  136SOL     ow  541   5.877   4.813   6.603  0.2557  0.6677 -1.1191
  136SOL     hw  542   5.882   4.842   6.694  0.3004 -1.3366 -0.4226
  136SOL     hw  543   5.968   4.798   6.577  0.1666 -0.4991 -0.8419
  136SOL     vw  544   5.889   4.815   6.611  0.2499  0.2494 -0.9909
  137SOL     ow  545   0.338   2.568   4.126  0.1001 -0.1328 -0.1199
  137SOL     hw  546   0.434   2.578   4.122 -0.0058  0.9527 -0.3980
  137SOL     hw  547   0.322   2.528   4.212  0.7230  1.0381  0.5795
  137SOL     vw  548   0.349   2.564   4.137  0.1683  0.1649 -0.0646
  138SOL     ow  549   1.569   5.960   0.468 -0.1576  0.5619 -0.0026
  138SOL     hw  550   1.576   5.954   0.373 -0.3425 -0.0626  0.0206
  138SOL     hw  551   1.557   6.053   0.485 -3.0985  0.4339 -0.8027
  138SOL     vw  552   1.569   5.971   0.458 -0.5699  0.4625 -0.1051
  139SOL     ow  553   3.107   4.378   6.851 -0.2595  0.8197  0.8162
  139SOL     hw  554   3.028   4.412   6.809  0.3586  0.2113 -0.9384
  139SOL     hw  555   3.168   4.363   6.778  1.6368  1.6747  2.1494
  139SOL     vw  556   3.104   4.381   6.836  0.0722  0.8521  0.7608
  140SOL     ow  557   2.940   6.117   4.969  0.0720  0.1194  0.3475
  140SOL     hw  558   2.935   6.112   4.874 -1.7940  2.9538  0.1437
  140SOL     hw  559   2.864   6.067   5.000 -2.2195  3.0032 -0.0783
  140SOL     vw  560   2.929   6.110   4.961 -0.4766  0.8738  0.2642
  141SOL     ow  561   4.955   4.250   2.624 -0.0581  0.2506  0.0969
  141SOL     hw  562   4.973   4.342   2.604  0.7997 -0.2310 -1.5261
  141SOL     hw  563   5.035   4.220   2.668 -0.2051  0.1906  0.3235
  141SOL     vw  564   4.968   4.258   2.627  0.0355  0.1793 -0.0875
  142SOL     ow  565   4.606   5.491   3.928  0.9437 -0.3929  0.7305
  142SOL     hw  566   4.522   5.536   3.938  0.6384 -0.6608 -0.5707
  142SOL     hw  567   4.644   5.528   3.849  1.0890 -1.7941  0.1338
  142SOL     vw  568   4.600   5.502   3.919  0.9224 -0.6132  0.4802
  143SOL     ow  569   2.700   4.384   5.468  0.9066 -0.3429  0.1820
  143SOL     hw  570   2.664   4.473   5.472 -1.8627 -1.3575 -0.1635
  143SOL     hw  571   2.765   4.389   5.398 -0.8226  0.9499 -1.4570
  143SOL     vw  572   2.704   4.397   5.459  0.3130 -0.3064 -0.0796
  144SOL     ow  573   5.438   2.225   3.765 -0.1338 -0.0303  0.2422
  144SOL     hw  574   5.349   2.254   3.787  0.3616  1.0164  0.9373
  144SOL     hw  575   5.489   2.245   3.843  0.1552 -3.4122  1.0579
  144SOL     vw  576   5.433   2.231   3.778 -0.0305 -0.3384  0.4416
  145SOL     ow  577   4.717   4.288   2.825 -0.1451 -0.4358  0.2844
  145SOL     hw  578   4.682   4.372   2.797  0.5324  0.0249  0.7902
  145SOL     hw  579   4.649   4.251   2.881 -0.4547 -0.2345  0.0408
  145SOL     vw  580   4.704   4.294   2.829 -0.0968 -0.3481  0.3190
  146SOL     ow  581   3.048   3.873   2.350 -0.4528 -0.4070  0.4402
  146SOL     hw  582   3.005   3.895   2.433 -1.1213 -1.0679  0.2819
  146SOL     hw  583   3.021   3.783   2.332  1.0648 -0.8809  0.3603
  146SOL     vw  584   3.039   3.864   2.359 -0.3409 -0.5567  0.4089
  147SOL     ow  585   3.943   6.042   0.275  0.4283  0.1186 -0.4547
  147SOL     hw  586   3.852   6.071   0.271  0.7776  1.2203 -0.7500
  147SOL     hw  587   3.990   6.104   0.220  1.2865 -0.7524 -0.7203
  147SOL     vw  588   3.937   6.054   0.267  0.5875  0.1490 -0.5287
  148SOL     ow  589   0.266   4.277   6.553 -0.4130 -0.8479  0.0935
  148SOL     hw  590   0.342   4.246   6.602  0.6384  0.3279 -0.7504
  148SOL     hw  591   0.291   4.364   6.521 -2.4502 -0.0249  0.5538
  148SOL     vw  592   0.279   4.285   6.556 -0.5431 -0.5841  0.0429
  149SOL     ow  593   6.904   5.167   6.229 -0.5096 -0.2459 -0.4005
  149SOL     hw  594   6.955   5.245   6.208  0.8385 -1.4150 -1.7038
  149SOL     hw  595   6.907   5.161   6.325 -0.2421  1.0258 -0.3139
  149SOL     vw  596   6.911   5.176   6.239 -0.2964 -0.2322 -0.5612
  150SOL     ow  597   3.457   4.883   5.781 -0.0516  0.0727  0.1443
  150SOL     hw  598   3.414   4.809   5.822  1.2168 -1.3495 -0.9595
  150SOL     hw  599   3.386   4.942   5.756 -1.1219 -0.9141  0.7733
  150SOL     vw  600   3.442   4.881   5.783 -0.0255 -0.2453  0.0815
  151SOL     ow  601   0.318   3.157   6.279  0.1454  0.4811  0.8600
  151SOL     hw  602   0.369   3.086   6.317 -0.0858  0.2814  0.8008
  151SOL     hw  603   0.383   3.212   6.235  0.0851 -1.3381 -1.7713
  151SOL     vw  604   0.333   3.155   6.278  0.1069  0.2147  0.5052
  152SOL     ow  605   7.008   6.888   3.719 -0.0075 -0.2942 -0.4190
  152SOL     hw  606   7.008   6.966   3.664 -0.2530 -0.6324 -0.8983
  152SOL     hw  607   6.935   6.901   3.779 -1.1326 -0.9381 -1.6215
  152SOL     vw  608   6.999   6.900   3.720 -0.1886 -0.4234 -0.6409
  153SOL     ow  609   0.305   2.353   0.534 -0.3035  0.2803  0.1648
  153SOL     hw  610   0.292   2.272   0.584  3.7189 -0.0912  0.9701
  153SOL     hw  611   0.322   2.323   0.445  0.9235  0.2124  0.4081
  153SOL     vw  612   0.306   2.338   0.529  0.3891  0.2222  0.3031
  154SOL     ow  613   0.970   6.368   1.762  0.8125  0.0851  0.2235
  154SOL     hw  614   1.063   6.345   1.758  0.7085 -0.8436  2.0224
  154SOL     hw  615   0.956   6.394   1.854 -1.0465 -1.4441  0.4352
  154SOL     vw  616   0.980   6.369   1.774  0.5535 -0.2391  0.4888
  155SOL     ow  617   5.606   5.079   1.209 -0.1853  0.2106 -0.2500
  155SOL     hw  618   5.557   5.114   1.135 -1.0025  0.5313  0.4153
  155SOL     hw  619   5.683   5.038   1.171 -0.2565  0.9527 -1.2122
  155SOL     vw  620   5.610   5.078   1.194 -0.3026  0.3510 -0.2892
  156SOL     ow  621   3.911   5.332   4.384 -0.1561  0.1007 -0.0093
  156SOL     hw  622   3.898   5.361   4.474  0.6135 -0.8241  0.4280
  156SOL     hw  623   3.961   5.402   4.343  2.1178 -0.7177  1.1690
  156SOL     vw  624   3.916   5.345   4.391  0.2455 -0.1295  0.2038
  157SOL     ow  625   0.934   6.753   4.048 -0.4350 -0.2562 -0.4813
  157SOL     hw  626   0.977   6.825   4.094  3.2658 -1.9241 -0.9464
  157SOL     hw  627   0.916   6.787   3.961  2.2068 -0.0368 -1.0325
  157SOL     vw  628   0.938   6.767   4.042  0.4018 -0.4473 -0.6154
  158SOL     ow  629   0.997   5.637   0.488 -0.6466  0.1248 -0.6109
  158SOL     hw  630   1.049   5.620   0.566  1.6215  2.1319 -1.5508
  158SOL     hw  631   1.022   5.568   0.427 -0.7513 -0.1604 -0.3357
  158SOL     vw  632   1.007   5.625   0.490 -0.3612  0.3521 -0.6986
  159SOL     ow  633   2.600   1.674   0.867 -0.1417  0.2376 -0.3526
  159SOL     hw  634   2.652   1.605   0.907 -0.6394  0.0675  0.0218
  159SOL     hw  635   2.626   1.754   0.912  0.7918  0.3891 -1.1229
  159SOL     vw  636   2.610   1.676   0.878 -0.0842  0.2352 -0.4048
  160SOL     ow  637   5.938   3.163   5.611  0.6615  0.0602 -0.2752
  160SOL     hw  638   5.901   3.113   5.683  0.8960  0.1048 -0.1256
  160SOL     hw  639   5.946   3.100   5.539 -1.0901  0.3642 -0.7987
  160SOL     vw  640   5.934   3.148   5.611  0.4613  0.1061 -0.3245
  161SOL     ow  641   6.657   5.957   5.388 -0.5292  0.2847 -0.0177
  161SOL     hw  642   6.592   5.899   5.427 -2.3292  1.7553 -0.6923
  161SOL     hw  643   6.625   6.045   5.406  1.5619  1.0878  0.0520
  161SOL     vw  644   6.644   5.961   5.395 -0.4907  0.5846 -0.0975
  162SOL     ow  645   2.345   2.008   1.060 -0.8087 -0.2108  0.0754
  162SOL     hw  646   2.416   2.064   1.093 -0.9245 -0.3700  0.6148
  162SOL     hw  647   2.318   2.050   0.979  0.2615 -0.4509 -0.4201
  162SOL     vw  648   2.351   2.021   1.054 -0.6827 -0.2633  0.0812
  163SOL     ow  649   6.571   1.319   1.153 -0.3561  0.1819  0.4534
  163SOL     hw  650   6.479   1.294   1.142 -0.0584 -0.9846  0.4451
  163SOL     hw  651   6.619   1.236   1.144  0.5929  0.5636  1.7404
  163SOL     vw  652   6.565   1.305   1.150 -0.1915  0.0783  0.6221
  164SOL     ow  653   2.506   3.379   5.132 -0.4663 -0.0587  0.6467
  164SOL     hw  654   2.455   3.314   5.180 -1.9938  1.2160  0.8331
  164SOL     hw  655   2.442   3.427   5.079  1.1030 -1.4152 -2.8307
  164SOL     vw  656   2.491   3.377   5.131 -0.4607 -0.0696  0.2122
  165SOL     ow  657   0.714   6.598   6.938 -0.0438 -0.4056 -0.2746
  165SOL     hw  658   0.781   6.535   6.965 -0.5714 -1.4811 -1.3865
  165SOL     hw  659   0.761   6.682   6.931  0.1451  0.0404  3.8647
  165SOL     vw  660   0.729   6.601   6.940 -0.0885 -0.4888  0.1247
  166SOL     ow  661   5.731   3.985   1.339 -0.5335  0.5326  0.2445
  166SOL     hw  662   5.758   3.992   1.248  0.0225  1.3066  0.4567
  166SOL     hw  663   5.795   3.927   1.379 -0.1334  1.0462  0.3709
  166SOL     vw  664   5.743   3.979   1.333 -0.4072  0.7024  0.2891
  167SOL     ow  665   0.002   4.753   4.961 -0.5590  0.0056  0.2583
  167SOL     hw  666   0.036   4.666   4.945  2.6194  0.9991  0.9081
  167SOL     hw  667  -0.047   4.745   5.043 -2.4894 -1.5890 -0.9737
  167SOL     vw  668  -0.000   4.741   4.970 -0.3943 -0.0737  0.1812
  168SOL     ow  669   5.194   4.731   2.992  0.3494  0.4098  0.0128
  168SOL     hw  670   5.221   4.822   2.991 -3.5005  1.7552  1.6140
  168SOL     hw  671   5.151   4.717   2.908 -1.4928  1.0403  0.7882
  168SOL     vw  672   5.192   4.741   2.981 -0.4013  0.6704  0.3264
  169SOL     ow  673   4.233   3.261   5.885 -0.6269 -0.1623 -0.3188
  169SOL     hw  674   4.156   3.271   5.828 -0.6412  0.6001 -0.1734
  169SOL     hw  675   4.238   3.344   5.933  0.5415 -0.0358 -0.6350
  169SOL     vw  676   4.223   3.274   5.884 -0.4745 -0.0449 -0.3412
  170SOL     ow  677   6.213   0.541   6.485  0.1369  0.2668  0.2683
  170SOL     hw  678   6.292   0.518   6.436 -1.3021 -1.9303 -1.1977
  170SOL     hw  679   6.143   0.541   6.420 -1.4362  0.0436  1.8700
  170SOL     vw  680   6.214   0.538   6.470 -0.2604 -0.0525  0.2861
  171SOL     ow  681   2.090   1.843   3.671  0.6286 -0.2364 -0.2255
  171SOL     hw  682   2.135   1.767   3.633  0.4568 -0.6538  0.3842
  171SOL     hw  683   2.008   1.807   3.706  0.8274  0.1056  0.6300
  171SOL     vw  684   2.085   1.828   3.671  0.6323 -0.2464 -0.0321
  172SOL     ow  685   3.832   4.046   0.985  0.1513 -0.2310 -0.2342
  172SOL     hw  686   3.833   3.953   1.007 -3.3203 -0.1495  0.9864
  172SOL     hw  687   3.826   4.091   1.069  0.0764  1.0028 -0.8680
  172SOL     vw  688   3.831   4.040   0.999 -0.3165 -0.0575 -0.1567
  173SOL     ow  689   5.873   3.970   2.617 -0.1321 -0.0326  0.1242
  173SOL     hw  690   5.805   4.028   2.585  0.7154  1.8223  1.5179
  173SOL     hw  691   5.830   3.916   2.683 -0.5376  0.1941  0.0491
  173SOL     vw  692   5.859   3.970   2.621 -0.0739  0.2420  0.2981
  174SOL     ow  693   3.628   3.736   5.434  0.3626 -0.3074 -0.2943
  174SOL     hw  694   3.536   3.711   5.438  0.2223 -0.1302 -1.8736
  174SOL     hw  695   3.675   3.653   5.442  0.0670 -0.4382  0.1518
  174SOL     vw  696   3.622   3.722   5.435  0.3051 -0.3014 -0.4437
  175SOL     ow  697   6.977   3.235   1.434  0.1166 -0.4984  0.6194
  175SOL     hw  698   6.963   3.140   1.428  1.2460 -0.8227  2.3433
  175SOL     hw  699   7.016   3.248   1.521 -2.6390  1.8597  1.6732
  175SOL     vw  700   6.980   3.224   1.445 -0.0980 -0.2300  0.9859
  176SOL     ow  701   4.216   2.394   5.985  0.3828 -0.0850  0.1001
  176SOL     hw  702   4.130   2.361   6.008  0.6950  0.1946  1.8388
  176SOL     hw  703   4.203   2.442   5.903 -1.4094  1.1589  1.0548
  176SOL     vw  704   4.203   2.396   5.977  0.1876  0.1161  0.4556
  177SOL     ow  705   1.615   4.658   4.053 -0.5561  0.7515 -0.8900
  177SOL     hw  706   1.552   4.721   4.088 -0.9368  0.3779 -0.8954
  177SOL     hw  707   1.700   4.696   4.072 -0.6942  0.0037  1.5479
  177SOL     vw  708   1.618   4.671   4.060 -0.6245  0.6034 -0.5693
  178SOL     ow  709   3.509   4.524   2.961 -0.0064  0.0524 -0.7041
  178SOL     hw  710   3.421   4.494   2.983 -0.1511  0.3264 -0.9133
  178SOL     hw  711   3.555   4.527   3.045 -0.4227  0.6507 -0.4918
  178SOL     vw  712   3.504   4.520   2.975 -0.0805  0.1676 -0.7037
  179SOL     ow  713   5.181   2.828   4.541 -0.4040  0.1159 -0.5922
  179SOL     hw  714   5.109   2.839   4.603 -1.0183  0.3832 -1.3364
  179SOL     hw  715   5.233   2.908   4.550 -0.7950  0.3981 -0.7958
  179SOL     vw  716   5.179   2.840   4.550 -0.5367  0.1884 -0.7172
  180SOL     ow  717   5.922   0.355   4.200 -0.4464  0.2468 -0.1433
  180SOL     hw  718   6.017   0.362   4.188 -0.2493 -0.5320  0.8238
  180SOL     hw  719   5.912   0.286   4.265 -1.7215 -0.2681 -0.8536
  180SOL     vw  720   5.933   0.347   4.207 -0.5884  0.0761 -0.1097
  181SOL     ow  721   0.119   0.963   0.124 -0.3831  0.1017  0.1268
  181SOL     hw  722   0.067   0.903   0.178 -0.5386  1.5573  1.6662
  181SOL     hw  723   0.059   1.034   0.101  0.5798  1.2476  0.9998
  181SOL     vw  724   0.104   0.964   0.128 -0.2766  0.4449  0.4451
  182SOL     ow  725   0.903   2.905   0.127 -0.2592 -0.2367 -0.4082
  182SOL     hw  726   0.948   2.957   0.061 -0.9917  1.3564  0.3075
  182SOL     hw  727   0.810   2.911   0.104 -0.3307 -1.5929 -0.5522
  182SOL     vw  728   0.897   2.913   0.115 -0.3653 -0.2054 -0.3328
  183SOL     ow  729   5.757   6.385   6.517  0.2326  0.0290  0.3577
  183SOL     hw  730   5.762   6.290   6.524  0.3146  0.0149  0.1233
  183SOL     hw  731   5.683   6.410   6.572 -2.1321 -0.4941 -2.3474
  183SOL     vw  732   5.748   6.376   6.525 -0.0687 -0.0420 -0.0298
  184SOL     ow  733   1.445   6.624   6.857  0.4094 -0.1269 -0.6545
  184SOL     hw  734   1.407   6.541   6.886  0.9743  0.5042  2.2872
  184SOL     hw  735   1.539   6.607   6.853  0.4611  0.1680 -0.7408
  184SOL     vw  736   1.452   6.611   6.860  0.4907 -0.0050 -0.2778
  185SOL     ow  737   1.798   7.009   0.996  0.3171 -0.3552  0.1996
  185SOL     hw  738   1.842   7.042   0.918  0.2145  0.0238  0.2975
  185SOL     hw  739   1.788   6.915   0.980  0.6410 -0.3457 -0.0724
  185SOL     vw  740   1.803   7.001   0.983  0.3463 -0.3040  0.1766
  186SOL     ow  741   3.803   0.044   6.345 -0.2001 -0.3033 -0.4662
  186SOL     hw  742   3.826  -0.041   6.382  0.1987 -0.7449 -1.6665
  186SOL     hw  743   3.887   0.089   6.332 -0.1519 -0.8320 -2.3311
  186SOL     vw  744   3.817   0.039   6.348 -0.1413 -0.4313 -0.8705
  187SOL     ow  745   2.743   3.938   2.198  0.0998  0.0031  0.8232
  187SOL     hw  746   2.677   3.869   2.199 -0.8935  0.9013 -0.0304
  187SOL     hw  747   2.696   4.016   2.167  1.4723  0.7628  0.5537
  187SOL     vw  748   2.728   3.939   2.194  0.1497  0.2218  0.6752
  188SOL     ow  749   3.928   6.647   6.236 -0.8321 -0.2801 -0.0815
  188SOL     hw  750   3.834   6.648   6.219 -1.0351  0.0366  0.9974
  188SOL     hw  751   3.945   6.724   6.290  0.3809  0.7375 -1.7975
  188SOL     vw  752   3.918   6.657   6.241 -0.6988 -0.1042 -0.1657
  189SOL     ow  753   2.524   5.844   0.982 -0.3518 -0.0038 -0.3172
  189SOL     hw  754   2.486   5.914   0.928 -0.8579 -1.3143 -1.7616
  189SOL     hw  755   2.458   5.828   1.050 -1.1800 -0.4141 -1.1855
  189SOL     vw  756   2.510   5.851   0.984 -0.5277 -0.2308 -0.6223
  190SOL     ow  757   5.078   2.783   1.377 -0.0453 -0.2093  0.0419
  190SOL     hw  758   5.148   2.846   1.395  0.6947 -1.4089  1.6738
  190SOL     hw  759   5.098   2.709   1.434 -1.7191 -1.3041 -0.7200
  190SOL     vw  760   5.090   2.781   1.387 -0.1686 -0.5121  0.1567
  191SOL     ow  761   5.704   0.442   1.321 -0.0351  0.9177  0.0342
  191SOL     hw  762   5.688   0.445   1.415 -0.9339  0.7603 -0.1047
  191SOL     hw  763   5.785   0.393   1.312  0.3803  1.4449  0.7560
  191SOL     vw  764   5.712   0.436   1.332 -0.0989  0.9665  0.1111
  192SOL     ow  765   0.652   5.090   2.662 -0.1861  0.1752 -0.2128
  192SOL     hw  766   0.649   5.094   2.566  0.7736 -0.6513 -0.2930
  192SOL     hw  767   0.582   5.148   2.691 -1.2209 -0.4105 -1.4422
  192SOL     vw  768   0.642   5.098   2.653 -0.1960 -0.0110 -0.3855
  193SOL     ow  769   1.165   0.687   6.605  0.1701  0.2479  0.0069
  193SOL     hw  770   1.168   0.592   6.597  1.7708  0.3711 -1.4154
  193SOL     hw  771   1.204   0.706   6.690 -0.3818 -0.3605  0.4031
  193SOL     vw  772   1.171   0.677   6.615  0.3084  0.1839 -0.1283
  194SOL     ow  773   1.453   1.384   0.928  0.2742  0.5464  0.2931
  194SOL     hw  774   1.446   1.363   0.835 -0.1261 -1.1210  0.6576
  194SOL     hw  775   1.499   1.467   0.931 -0.6737  1.1834 -1.4355
  194SOL     vw  776   1.458   1.392   0.916  0.0963  0.4104  0.1131
  195SOL     ow  777   4.690   6.383   4.310  0.3551 -0.0606  0.1060
  195SOL     hw  778   4.602   6.410   4.336  0.0137 -0.4012 -0.6597
  195SOL     hw  779   4.747   6.454   4.341 -0.1298 -0.0584  1.0023
  195SOL     vw  780   4.686   6.396   4.317  0.2463 -0.1056  0.1233
  196SOL     ow  781   5.758   3.373   3.357 -0.2055  0.3522  1.3968
  196SOL     hw  782   5.842   3.405   3.325 -0.7815  2.0212  1.4132
  196SOL     hw  783   5.773   3.354   3.450  0.1566  0.6970  1.4129
  196SOL     vw  784   5.771   3.375   3.365 -0.2337  0.6181  1.4012
  197SOL     ow  785   4.782   4.255   5.939  0.3506  0.5312 -0.6147
  197SOL     hw  786   4.687   4.243   5.937  0.6182 -2.0459 -0.4971
  197SOL     hw  787   4.798   4.297   6.024 -0.5943 -0.2377 -0.0273
  197SOL     vw  788   4.771   4.259   5.950  0.2613  0.0896 -0.5217
  198SOL     ow  789   5.125   0.295   4.794 -0.1190 -0.4113  0.1193
  198SOL     hw  790   5.089   0.328   4.877  0.6452 -0.6772  0.5695
  198SOL     hw  791   5.184   0.224   4.820  1.9986  1.0561 -0.4314
  198SOL     vw  792   5.128   0.290   4.808  0.2611 -0.2528  0.1061
  199SOL     ow  793   6.248   4.515   1.485  0.4090 -0.6291 -0.0415
  199SOL     hw  794   6.324   4.573   1.483  0.7219 -1.0477 -0.7839
  199SOL     hw  795   6.180   4.565   1.529  1.2606 -0.4212  1.0911
  199SOL     vw  796   6.249   4.529   1.490  0.5629 -0.6568  0.0100
  200SOL     ow  797   0.838   5.391   3.557 -0.6384  0.0929 -0.3111
  200SOL     hw  798   0.929   5.375   3.532  0.1427  0.2370  2.2014
  200SOL     hw  799   0.837   5.480   3.591 -1.8329  0.2486 -0.6833
  200SOL     vw  800   0.850   5.401   3.558 -0.6929  0.1323 -0.0287
  201SOL     ow  801   6.284   0.980   3.773 -0.4986  0.0139 -0.3083
  201SOL     hw  802   6.298   1.075   3.778  2.6887 -0.3663  0.4941
  201SOL     hw  803   6.274   0.963   3.679 -2.4270  1.2130 -0.3823
  201SOL     vw  804   6.285   0.991   3.761 -0.3326  0.1220 -0.2122
  202SOL     ow  805   0.076   6.992   5.354  0.6073 -0.5000  0.3432
  202SOL     hw  806   0.042   6.960   5.270  0.2165 -1.5093  0.8638
  202SOL     hw  807   0.088   6.913   5.407 -0.7871  0.2223  1.8294
  202SOL     vw  808   0.073   6.978   5.350  0.3717 -0.5381  0.6080
  203SOL     ow  809   6.287   6.997   2.591  0.6206 -0.4147 -0.2072
  203SOL     hw  810   6.370   7.016   2.635 -0.0564  1.2315  0.4297
  203SOL     hw  811   6.233   6.955   2.657  1.0369 -1.8280 -0.7272
  203SOL     vw  812   6.291   6.994   2.605  0.5863 -0.3839 -0.1918
  204SOL     ow  813   3.038   1.584   1.244 -0.3512 -0.5987 -0.0843
  204SOL     hw  814   3.004   1.618   1.161 -1.4773  0.0562  0.6173
  204SOL     hw  815   2.960   1.573   1.298  0.3906 -0.8765  0.9489
  204SOL     vw  816   3.023   1.587   1.240 -0.4021 -0.5489  0.1446
  205SOL     ow  817   0.227   0.892   4.250 -0.3426 -0.8967 -0.4385
  205SOL     hw  818   0.156   0.842   4.292 -0.4878  0.0665  0.5200
  205SOL     hw  819   0.306   0.868   4.299 -0.3076 -0.6941 -0.3912
  205SOL     vw  820   0.228   0.882   4.262 -0.3571 -0.7429 -0.3059
  206SOL     ow  821   2.658   0.858   4.927  0.7370 -0.6512  0.9897
  206SOL     hw  822   2.678   0.912   4.850  0.5376 -1.2995  0.4762
  206SOL     hw  823   2.587   0.905   4.971  2.2738  0.8424  1.9735
  206SOL     vw  824   2.651   0.871   4.923  0.9134 -0.5397  1.0519
  207SOL     ow  825   1.782   4.052   6.623 -0.3187  0.0111 -0.1789
  207SOL     hw  826   1.803   4.121   6.687  0.7620  1.3457 -1.8727
  207SOL     hw  827   1.705   4.008   6.659  0.3088  0.6407  2.0598
  207SOL     vw  828   1.775   4.056   6.636 -0.0934  0.2704 -0.1068
  208SOL     ow  829   6.974   5.927   3.265  0.0102 -0.8374  0.2372
  208SOL     hw  830   6.981   5.945   3.171  1.4277 -0.4956  0.3866
  208SOL     hw  831   7.065   5.919   3.294 -0.4338 -1.7077  1.4427
  208SOL     vw  832   6.987   5.928   3.256  0.1388 -0.9074  0.4159
  209SOL     ow  833   5.693   3.678   4.385 -0.8965 -0.6945 -0.2465
  209SOL     hw  834   5.634   3.617   4.428 -0.7511 -1.2934 -0.8824
  209SOL     hw  835   5.757   3.623   4.340  0.0749 -0.0631  0.3186
  209SOL     vw  836   5.694   3.663   4.385 -0.7489 -0.6903 -0.2558
  210SOL     ow  837   1.283   2.894   0.721 -0.1805 -0.0986  0.8236
  210SOL     hw  838   1.308   2.805   0.698  0.6431  0.3743 -0.2172
  210SOL     hw  839   1.191   2.900   0.696 -0.3453 -0.7724  1.2595
  210SOL     vw  840   1.274   2.883   0.714 -0.0936 -0.1251  0.7438
  211SOL     ow  841   2.607   6.872   2.117  0.5972 -0.0713 -0.0638
  211SOL     hw  842   2.623   6.822   2.197  2.7524  0.7279  0.0673
  211SOL     hw  843   2.544   6.940   2.143  1.6173  0.4649  1.1117
  211SOL     vw  844   2.600   6.875   2.131  1.0161  0.1051  0.1085
  212SOL     ow  845   6.071   0.122   2.463 -0.2103  0.3404  0.3895
  212SOL     hw  846   6.023   0.181   2.405  0.1311  1.1244  0.8908
  212SOL     hw  847   6.003   0.074   2.510 -0.5305  1.4130  1.0627
  212SOL     vw  848   6.056   0.123   2.462 -0.2074  0.5853  0.5444
  213SOL     ow  849   1.109   0.641   3.537  0.1023 -0.2644  0.1511
  213SOL     hw  850   1.186   0.585   3.528  0.9728  1.0225 -0.7572
  213SOL     hw  851   1.067   0.639   3.450 -1.3907 -1.5862  0.8409
  213SOL     vw  852   1.113   0.634   3.524  0.0201 -0.2690  0.1224
  214SOL     ow  853   5.811   3.087   5.852 -0.7112 -0.1634  0.1632
  214SOL     hw  854   5.857   3.152   5.905 -0.5680 -0.1035 -0.0381
  214SOL     hw  855   5.723   3.083   5.891  0.2300 -2.3114  2.3970
  214SOL     vw  856   5.806   3.095   5.864 -0.5684 -0.4388  0.4313
  215SOL     ow  857   3.846   3.529   6.798 -0.0732 -0.3254 -0.3301
  215SOL     hw  858   3.930   3.567   6.825 -0.8284  1.2068 -0.0324
  215SOL     hw  859   3.843   3.541   6.703  0.6391 -1.6918 -0.5561
  215SOL     vw  860   3.857   3.535   6.789 -0.0790 -0.3036 -0.3207
  216SOL     ow  861   4.190   7.026   5.632 -0.0638 -0.8354 -0.9416
  216SOL     hw  862   4.177   7.118   5.610  2.4179  0.0271  0.7435
  216SOL     hw  863   4.259   6.997   5.573 -0.0112 -1.2769 -0.6628
  216SOL     vw  864   4.197   7.034   5.622  0.2708 -0.7798 -0.6828
  217SOL     ow  865   2.694   2.270   2.157  0.4197  0.4500 -0.5502
  217SOL     hw  866   2.701   2.199   2.094 -2.4634 -0.9250  0.4957
  217SOL     hw  867   2.620   2.323   2.126 -0.7822 -0.0220  1.3424
  217SOL     vw  868   2.685   2.268   2.145 -0.1192  0.2064 -0.1625
  218SOL     ow  869   3.854   6.464   2.396 -0.1547  0.0302 -0.3784
  218SOL     hw  870   3.796   6.534   2.426  0.8061  0.5519  0.2946
  218SOL     hw  871   3.934   6.509   2.371  0.4939 -0.8334  0.1195
  218SOL     vw  872   3.857   6.479   2.397  0.0577 -0.0150 -0.2239
  219SOL     ow  873   3.624   3.937   4.723 -0.1829 -0.4435  0.1583
  219SOL     hw  874   3.648   3.874   4.656  1.2167  0.7200 -0.4841
  219SOL     hw  875   3.621   3.886   4.804 -0.2473 -1.5435 -0.5235
  219SOL     vw  876   3.627   3.922   4.725 -0.0067 -0.4352 -0.0165
  220SOL     ow  877   3.557   2.831   1.068 -0.0453  0.6797  1.0656
  220SOL     hw  878   3.649   2.855   1.076 -0.3286  1.4545  2.3445
  220SOL     hw  879   3.552   2.742   1.103  0.7274 -0.7421 -2.1211
  220SOL     vw  880   3.568   2.822   1.074  0.0193  0.5943  0.8139
  221SOL     ow  881   3.610   1.666   3.992 -0.4509 -0.8465 -0.0240
  221SOL     hw  882   3.583   1.597   3.932  0.5190  0.7148 -2.4243
  221SOL     hw  883   3.528   1.711   4.015 -1.1284 -2.8384  1.7993
  221SOL     vw  884   3.595   1.663   3.988 -0.4125 -0.9033 -0.1001
  222SOL     ow  885   1.258   3.834   5.116  0.4002 -0.8648  0.0982
  222SOL     hw  886   1.200   3.867   5.047  1.6892  0.0053 -0.5993
  222SOL     hw  887   1.231   3.883   5.194 -0.7826 -1.5521  0.1552
  222SOL     vw  888   1.247   3.845   5.117  0.4143 -0.8407  0.0138
  223SOL     ow  889   4.737   3.072   5.220 -0.0342 -0.0282  0.7743
  223SOL     hw  890   4.698   3.010   5.158  1.0810 -1.0045  1.0162
  223SOL     hw  891   4.761   3.148   5.167 -1.4485  0.2354  0.4788
  223SOL     vw  892   4.735   3.074   5.205 -0.0734 -0.1222  0.7670
  224SOL     ow  893   6.085   3.151   4.073  0.0602  0.0423 -0.4225
  224SOL     hw  894   6.093   3.057   4.087 -2.2343 -0.2957 -0.9803
  224SOL     hw  895   6.022   3.159   4.002  0.3216  2.0198 -0.4777
  224SOL     vw  896   6.078   3.140   4.066 -0.2081  0.2587 -0.5033
  225SOL     ow  897   5.176   3.248   4.184  0.1101 -0.0001 -0.5043
  225SOL     hw  898   5.211   3.206   4.106  0.9864 -1.1356  0.4679
  225SOL     hw  899   5.253   3.278   4.232 -0.4676  2.7348 -1.1077
  225SOL     vw  900   5.191   3.246   4.180  0.1495  0.2108 -0.4554
  226SOL     ow  901   3.754   4.165   4.488  0.3867 -0.0174 -0.3046
  226SOL     hw  902   3.803   4.109   4.428  3.5173  2.0268  0.1473
  226SOL     hw  903   3.779   4.254   4.465 -2.3494  1.1435  0.7403
  226SOL     vw  904   3.764   4.169   4.477  0.4388  0.4051 -0.1073
  227SOL     ow  905   6.236   1.817   5.806 -0.4782 -0.7118  0.5183
  227SOL     hw  906   6.318   1.816   5.855 -0.9591 -0.2937  1.3594
  227SOL     hw  907   6.255   1.869   5.728 -0.5658  1.5267  1.8868
  227SOL     vw  908   6.249   1.824   5.802 -0.5531 -0.3613  0.8101
  228SOL     ow  909   2.883   3.332   6.964  0.1848 -0.3003  0.4281
  228SOL     hw  910   2.919   3.343   6.876  0.7888  2.4378  0.9448
  228SOL     hw  911   2.956   3.299   7.016  0.3894  0.0296  0.3451
  228SOL     vw  912   2.897   3.329   6.959  0.2913  0.1045  0.4852
  229SOL     ow  913   4.081   2.509   3.960 -0.3480  0.5829 -0.8556
  229SOL     hw  914   4.063   2.516   3.866 -2.7263  0.6240 -0.4448
  229SOL     hw  915   4.050   2.422   3.984 -2.3215  1.5467  0.3520
  229SOL     vw  916   4.075   2.498   3.951 -0.9222  0.7153 -0.6421
  230SOL     ow  917   0.607   5.494   0.632 -0.3343 -0.2001  0.1490
  230SOL     hw  918   0.616   5.429   0.701  0.0931  0.4982  0.7642
  230SOL     hw  919   0.523   5.473   0.590  0.7853 -2.5217 -1.1463
  230SOL     vw  920   0.597   5.483   0.636 -0.1302 -0.4141  0.0593
  231SOL     ow  921   3.947   4.014   5.073 -0.4911 -0.8235 -0.0110
  231SOL     hw  922   3.936   3.971   4.988  2.7673  1.8972 -2.0947
  231SOL     hw  923   4.040   4.040   5.074 -1.1023  1.8691  3.0977
  231SOL     vw  924   3.958   4.012   5.062 -0.1420 -0.1092  0.1240
  232SOL     ow  925   2.187   4.558   2.512 -0.4989  0.0880  0.1017
  232SOL     hw  926   2.185   4.468   2.545 -2.0096  0.2643  0.5646
  232SOL     hw  927   2.155   4.611   2.585  0.2154  0.9984 -0.2212
  232SOL     vw  928   2.183   4.553   2.526 -0.6039  0.2313  0.1200
  233SOL     ow  929   6.389   6.887   3.987 -0.1125  0.4500 -0.6036
  233SOL     hw  930   6.323   6.956   3.984 -0.8257 -0.1744  0.1620
  233SOL     hw  931   6.450   6.915   4.055 -0.7432  0.0447  0.1436
  233SOL     vw  932   6.388   6.900   3.996 -0.2897  0.3138 -0.4040
  234SOL     ow  933   4.761   3.826   0.701  0.0277  0.6701  0.4336
  234SOL     hw  934   4.716   3.744   0.681  0.7248  0.1868  0.8042
  234SOL     hw  935   4.817   3.842   0.625 -1.3277  1.7077 -0.4091
  234SOL     vw  936   4.762   3.817   0.689 -0.0594  0.7433  0.3713
  235SOL     ow  937   3.515   0.035   6.484 -0.0868 -0.6693  0.4571
  235SOL     hw  938   3.551   0.026   6.572  0.7900 -1.3146  0.0477
  235SOL     hw  939   3.421   0.050   6.497  0.1370 -0.1017  1.5123
  235SOL     vw  940   3.507   0.036   6.497  0.0582 -0.6795  0.5422
  236SOL     ow  941   6.646   0.881   1.828 -0.5258 -0.5042  0.6257
  236SOL     hw  942   6.695   0.851   1.904  0.8302 -2.3218 -0.8762
  236SOL     hw  943   6.713   0.908   1.765 -1.5566 -0.1885 -0.3775
  236SOL     vw  944   6.661   0.881   1.830 -0.4830 -0.7023  0.2952
  237SOL     ow  945   3.102   5.519   0.204  0.4231  1.0551  0.2045
  237SOL     hw  946   3.041   5.447   0.223  0.6431  1.2529  1.7344
  237SOL     hw  947   3.047   5.597   0.200  0.2639  0.9079 -0.8932
  237SOL     vw  948   3.087   5.520   0.206  0.4313  1.0614  0.2615
  238SOL     ow  949   1.316   0.240   0.695 -0.1237 -0.0596  0.2673
  238SOL     hw  950   1.290   0.276   0.779 -0.2940  1.3513 -0.3531
  238SOL     hw  951   1.254   0.169   0.678 -0.3531 -0.0678  1.1152
  238SOL     vw  952   1.305   0.235   0.704 -0.1765  0.1255  0.2973
  239SOL     ow  953   2.328   6.397   1.662 -0.3346  0.1213  0.2035
  239SOL     hw  954   2.418   6.366   1.666  0.0914  1.4287  1.4091
  239SOL     hw  955   2.280   6.338   1.720  0.2079  0.8547  1.4158
  239SOL     vw  956   2.334   6.385   1.670 -0.2068  0.3903  0.5224
  240SOL     ow  957   6.598   0.191   0.510 -0.5599  0.4026  0.1762
  240SOL     hw  958   6.613   0.116   0.567  1.3981  1.4584  1.1791
  240SOL     hw  959   6.615   0.267   0.566  2.1087  1.4811 -1.8652
  240SOL     vw  960   6.602   0.192   0.525  0.0505  0.6842  0.0392
  241SOL     ow  961   6.630   5.853   0.769  0.0290  0.3083  0.5021
  241SOL     hw  962   6.644   5.858   0.864  1.2723 -1.3274  0.4503
  241SOL     hw  963   6.571   5.778   0.758  1.5018 -0.8232 -0.0953
  241SOL     vw  964   6.624   5.844   0.780  0.3874 -0.0567  0.4165
  242SOL     ow  965   4.441   3.025   7.012  0.4491 -0.3253 -0.5696
  242SOL     hw  966   4.486   3.012   6.928  0.5509 -0.2846 -0.5212
  242SOL     hw  967   4.484   3.102   7.050 -0.4750  0.4914 -1.0964
  242SOL     vw  968   4.452   3.034   7.006  0.3407 -0.2121 -0.6328
  243SOL     ow  969   7.035   3.689   1.085  0.8966  0.0063 -0.1915
  243SOL     hw  970   7.020   3.677   1.178 -2.2553 -1.2099 -0.7472
  243SOL     hw  971   7.044   3.600   1.050 -0.8623  0.2594 -1.4068
  243SOL     vw  972   7.034   3.676   1.092  0.2487 -0.1208 -0.4252
  244SOL     ow  973   4.394   3.842   1.479  0.0029  0.1219 -0.0859
  244SOL     hw  974   4.436   3.774   1.427 -0.8609  0.3147 -1.0734
  244SOL     hw  975   4.308   3.854   1.437 -0.0407  1.4849  0.3566
  244SOL     vw  976   4.388   3.834   1.466 -0.1168  0.3272 -0.1578
  245SOL     ow  977   5.616   4.917   5.653  0.4148 -0.5750 -0.3096
  245SOL     hw  978   5.684   4.933   5.718 -0.1767 -1.1489  0.4638
  245SOL     hw  979   5.585   5.004   5.628  2.1790 -0.2386 -1.5096
  245SOL     vw  980   5.621   4.931   5.658  0.5696 -0.6063 -0.3660
  246SOL     ow  981   3.918   5.385   4.659 -0.5035 -0.0098 -0.4269
  246SOL     hw  982   3.889   5.296   4.677  0.6683 -0.1761  0.8430
  246SOL     hw  983   4.013   5.377   4.647 -0.0846  1.2461  1.4506
  246SOL     vw  984   3.927   5.372   4.660 -0.2936  0.1340 -0.0114
  247SOL     ow  985   5.606   2.987   4.677 -0.5689 -0.4102  0.2463
  247SOL     hw  986   5.617   2.919   4.610  3.1946  0.8340 -0.6861
  247SOL     hw  987   5.551   3.054   4.636  1.4007  0.1713 -1.6433
  247SOL     vw  988   5.600   2.987   4.663  0.1874 -0.1694 -0.1261
  248SOL     ow  989   2.032   1.501   5.694  0.0454  0.3830 -0.5328
  248SOL     hw  990   1.956   1.559   5.688 -0.2447 -0.0750 -1.4843
  248SOL     hw  991   2.105   1.553   5.658 -0.0420  0.4436 -0.6222
  248SOL     vw  992   2.032   1.516   5.689 -0.0043  0.3305 -0.6700
  249SOL     ow  993   3.715   6.006   5.357 -0.1591 -0.2128 -0.1690
  249SOL     hw  994   3.769   6.053   5.421  1.2045 -0.0786 -1.3896
  249SOL     hw  995   3.676   5.934   5.407  0.3951  0.2368  0.9415
  249SOL     vw  996   3.717   6.003   5.372  0.0938 -0.1359 -0.1836
  250SOL     ow  997   6.354   5.271   3.018 -0.6675 -0.2094  0.3354
  250SOL     hw  998   6.444   5.242   3.011 -0.3666  0.2776  1.7579
  250SOL     hw  999   6.310   5.203   3.070 -1.6635 -1.4783 -2.0346
  250SOL     vw 1000   6.360   5.258   3.024 -0.7591 -0.3123  0.2103
  251SOL     ow 1001   6.515   6.436   2.094 -0.5686  0.0391 -0.3070
  251SOL     hw 1002   6.443   6.413   2.035  0.3792 -2.2030 -0.7013
  251SOL     hw 1003   6.532   6.528   2.076 -2.0359  0.0970 -1.6514
  251SOL     vw 1004   6.508   6.445   2.083 -0.6373 -0.2489 -0.5366
  252SOL     ow 1005   0.105   3.706   0.426 -0.1821  0.3883 -0.8551
  252SOL     hw 1006   0.074   3.618   0.450 -1.4498  1.5188  2.1607
  252SOL     hw 1007   0.167   3.691   0.354 -0.3399 -2.9503 -0.4546
  252SOL     vw 1008   0.109   3.692   0.420 -0.3702  0.0970 -0.4043
  253SOL     ow 1009   0.908   6.507   3.900 -0.1550  0.4846  0.0992
  253SOL     hw 1010   0.916   6.414   3.918  0.7962  1.0660  3.2503
  253SOL     hw 1011   0.995   6.535   3.872 -0.3797  0.4995 -0.6118
  253SOL     vw 1012   0.920   6.499   3.899 -0.0591  0.5634  0.4212
  254SOL     ow 1013   3.812   1.820   6.537 -0.4928  0.0646  0.4724
  254SOL     hw 1014   3.824   1.859   6.450  2.3518  1.4180  1.3776
  254SOL     hw 1015   3.786   1.729   6.518 -0.2496  0.3957 -1.7815
  254SOL     vw 1016   3.810   1.813   6.523 -0.0856  0.2869  0.2942
  255SOL     ow 1017   4.354   1.539   6.049 -0.7516  0.2156  0.7803
  255SOL     hw 1018   4.397   1.471   5.997  0.3930  1.9361 -0.6819
  255SOL     hw 1019   4.261   1.527   6.033 -0.4778 -0.0634 -0.7139
  255SOL     vw 1020   4.347   1.529   6.040 -0.5643  0.4057  0.3903
  256SOL     ow 1021   1.739   0.079   3.858  0.4720 -0.0245  0.2088
  256SOL     hw 1022   1.755   0.151   3.798 -0.0223 -1.8546 -2.3000
  256SOL     hw 1023   1.815   0.021   3.846 -0.7774 -1.5858 -0.5403
  256SOL     vw 1024   1.751   0.081   3.848  0.2419 -0.4719 -0.2211
  257SOL     ow 1025   4.142   4.463   1.444 -0.4898  0.8615 -0.4018
  257SOL     hw 1026   4.071   4.507   1.396 -1.1618 -0.2570 -0.4576
  257SOL     hw 1027   4.203   4.436   1.376  0.6253  2.8549 -0.2672
  257SOL     vw 1028   4.141   4.466   1.429 -0.4313  0.9770 -0.3913
  258SOL     ow 1029   6.878   1.833   0.149  0.2993 -0.2110  0.5431
  258SOL     hw 1030   6.849   1.822   0.059  0.6141 -0.4945  0.4749
  258SOL     hw 1031   6.868   1.926   0.167  1.3806  0.0608 -0.1815
  258SOL     vw 1032   6.873   1.843   0.140  0.4838 -0.2125  0.4385
  259SOL     ow 1033   3.206   5.740   3.834 -0.4113  0.6319 -0.4000
  259SOL     hw 1034   3.168   5.684   3.767  1.0610  0.4534 -1.1387
  259SOL     hw 1035   3.207   5.827   3.795  0.5102  0.5153 -0.6676
  259SOL     vw 1036   3.201   5.744   3.820 -0.0955  0.5929 -0.5326
  260SOL     ow 1037   0.187   0.854   1.618 -0.1732 -0.3966  0.0915
  260SOL     hw 1038   0.095   0.837   1.596 -0.2964  0.7706 -0.3925
  260SOL     hw 1039   0.199   0.813   1.704 -1.1434 -0.5846  0.1471
  260SOL     vw 1040   0.176   0.846   1.627 -0.3175 -0.2674  0.0349
  261SOL     ow 1041   4.543   4.190   2.980  0.1023 -0.2426  0.2190
  261SOL     hw 1042   4.536   4.106   3.024 -1.9240  0.7488  1.9504
  261SOL     hw 1043   4.465   4.195   2.924  0.5881  0.1980 -0.4394
  261SOL     vw 1044   4.532   4.180   2.978 -0.1009 -0.0539  0.3606
  262SOL     ow 1045   0.122   5.036   2.194  0.2102 -0.3956 -0.6927
  262SOL     hw 1046   0.134   5.047   2.100 -0.9110  0.4474 -0.7598
  262SOL     hw 1047   0.118   5.125   2.228 -0.7158 -0.6783 -0.0404
  262SOL     vw 1048   0.123   5.049   2.186 -0.0599 -0.3216 -0.6156
  263SOL     ow 1049   6.853   4.750   2.953  0.3628  0.2828 -0.0669
  263SOL     hw 1050   6.876   4.681   2.891 -0.4135 -0.4929  0.4617
  263SOL     hw 1051   6.872   4.832   2.907 -0.0841 -0.2659 -1.2802
  263SOL     vw 1052   6.858   4.751   2.939  0.2012  0.1080 -0.1574
  264SOL     ow 1053   2.887   1.204   3.064  0.0774 -0.1873  0.4955
  264SOL     hw 1054   2.867   1.157   3.145  0.3134  1.3843  1.5087
  264SOL     hw 1055   2.813   1.263   3.052 -0.6815 -1.4185 -1.2809
  264SOL     vw 1056   2.874   1.205   3.073  0.0083 -0.1424  0.3949
  265SOL     ow 1057   1.575   3.119   6.383 -0.3752 -0.7191  0.1384
  265SOL     hw 1058   1.517   3.061   6.432 -0.4385 -1.9757 -1.3773
  265SOL     hw 1059   1.624   3.166   6.451 -2.7714  0.0594  1.4800
  265SOL     vw 1060   1.574   3.118   6.398 -0.6997 -0.7824  0.1154
  266SOL     ow 1061   1.153   5.916   6.773  0.1161 -0.4543 -0.8661
  266SOL     hw 1062   1.150   5.867   6.856  0.0150  0.6838 -0.1728
  266SOL     hw 1063   1.202   5.860   6.714  0.2530 -1.2656 -0.0145
  266SOL     vw 1064   1.159   5.902   6.776  0.1208 -0.4110 -0.6621
  267SOL     ow 1065   2.975   5.209   6.093  0.1090  0.0778  0.3395
  267SOL     hw 1066   3.045   5.232   6.032  0.4036 -2.2324 -0.2842
  267SOL     hw 1067   2.894   5.223   6.044  0.2636 -0.1173  0.0309
  267SOL     vw 1068   2.974   5.214   6.079  0.1682 -0.2527  0.2165
  268SOL     ow 1069   0.556   0.506   2.894  0.2786  0.2567 -0.4455
  268SOL     hw 1070   0.554   0.498   2.799  1.6443 -2.0921 -0.3575
  268SOL     hw 1071   0.565   0.599   2.910 -1.1031  0.8354 -2.5607
  268SOL     vw 1072   0.557   0.517   2.884  0.2764  0.0232 -0.7130
  269SOL     ow 1073   1.464   0.405   0.547 -0.8124 -0.0052 -0.5719
  269SOL     hw 1074   1.553   0.382   0.522 -0.7260  1.1584 -1.4554
  269SOL     hw 1075   1.439   0.340   0.613  0.8253 -0.1150 -0.0230
  269SOL     vw 1076   1.472   0.394   0.553 -0.5849  0.1338 -0.6160
  270SOL     ow 1077   3.569   0.948   0.904  0.3484 -0.1486  0.1949
  270SOL     hw 1078   3.477   0.957   0.876 -0.3107  0.4385  2.3866
  270SOL     hw 1079   3.603   1.038   0.903  0.7327 -0.2963 -0.0498
  270SOL     vw 1080   3.561   0.961   0.900  0.3122 -0.0906  0.4518
  271SOL     ow 1081   3.824   5.915   5.859  0.3320 -0.2486 -0.1720
  271SOL     hw 1082   3.828   6.005   5.891  1.5728 -1.2989  3.0790
  271SOL     hw 1083   3.895   5.909   5.795  1.1459  0.7971  0.5889
  271SOL     vw 1084   3.834   5.926   5.855  0.6030 -0.2489  0.3574
  272SOL     ow 1085   2.646   1.951   4.959 -0.2760  0.1995 -0.2626
  272SOL     hw 1086   2.692   2.035   4.969  1.8905 -1.0941  1.5449
  272SOL     hw 1087   2.579   1.952   5.027  0.5650 -0.0189  0.5804
  272SOL     vw 1088   2.643   1.963   4.969  0.1209 -0.0001  0.0873
  273SOL     ow 1089   0.818   2.953   2.372 -0.5110  0.0796 -0.1595
  273SOL     hw 1090   0.877   3.007   2.320  0.7841 -0.0157  1.1663
  273SOL     hw 1091   0.733   2.998   2.367 -0.1612  0.6309 -1.4527
  273SOL     vw 1092   0.814   2.966   2.364 -0.2940  0.1397 -0.1551
  274SOL     ow 1093   4.877   7.017   0.821 -0.0676 -0.1769 -1.0078
  274SOL     hw 1094   4.830   7.100   0.811 -0.7199 -0.5072 -0.7195
  274SOL     hw 1095   4.944   7.035   0.887  1.3538  0.7677 -2.6102
  274SOL     vw 1096   4.880   7.030   0.828  0.0339 -0.0961 -1.1812
  275SOL     ow 1097   1.707   3.983   0.418 -0.2133 -0.0058  0.2028
  275SOL     hw 1098   1.634   3.935   0.457  0.9296 -0.3178  2.1143
  275SOL     hw 1099   1.744   4.033   0.491  1.9271 -0.4404 -0.5111
  275SOL     vw 1100   1.702   3.983   0.433  0.2199 -0.1043  0.3608
  276SOL     ow 1101   4.792   6.676   2.531 -0.0896  0.2166  0.0229
  276SOL     hw 1102   4.814   6.683   2.624 -0.5627 -1.4224  0.2946
  276SOL     hw 1103   4.870   6.708   2.486 -0.7176  3.3388  0.9212
  276SOL     vw 1104   4.805   6.681   2.537 -0.2348  0.4122  0.1774
  277SOL     ow 1105   6.045   0.971   3.998  0.1228  0.2942  0.2327
  277SOL     hw 1106   6.009   1.060   3.997  0.8682  0.6245  1.0414
  277SOL     hw 1107   5.985   0.922   4.053 -0.1655  0.3551 -0.0261
  277SOL     vw 1108   6.032   0.976   4.005  0.1836  0.3458  0.3054
  278SOL     ow 1109   5.365   4.099   4.797 -0.5363 -1.0464 -0.1065
  278SOL     hw 1110   5.297   4.042   4.761  0.0070 -0.8089 -1.6159
  278SOL     hw 1111   5.447   4.056   4.773  0.0601  1.7167 -4.1271
  278SOL     vw 1112   5.367   4.086   4.789 -0.3862 -0.6506 -0.8361
  279SOL     ow 1113   6.964   2.972   2.954 -0.4622  0.3345  0.4969
  279SOL     hw 1114   6.903   2.967   2.881  1.0641  0.9506 -0.9126
  279SOL     hw 1115   6.923   2.923   3.025 -4.3586  3.8128  1.0102
  279SOL     vw 1116   6.951   2.965   2.954 -0.7749  0.8748  0.3786
  280SOL     ow 1117   0.437   0.288   0.443 -0.0654 -0.2442  0.0248
  280SOL     hw 1118   0.376   0.214   0.438  0.5684 -0.9247  1.6805
  280SOL     hw 1119   0.436   0.314   0.536  0.4047  1.2635 -0.3565
  280SOL     vw 1120   0.429   0.282   0.455  0.0802 -0.1351  0.1929
  281SOL     ow 1121   4.711   6.459   2.145  0.1901  0.1612 -0.0512
  281SOL     hw 1122   4.715   6.429   2.236 -3.0829  1.9596  0.8211
  281SOL     hw 1123   4.723   6.379   2.093  0.3503 -1.1868  1.9680
  281SOL     vw 1124   4.713   6.444   2.150 -0.2210  0.2205  0.3301
  282SOL     ow 1125   3.082   6.550   5.724 -0.0157 -0.2325 -0.5684
  282SOL     hw 1126   3.071   6.622   5.662  0.6821  0.8769  0.5414
  282SOL     hw 1127   3.057   6.472   5.675  0.4361  0.6030 -2.2080
  282SOL     vw 1128   3.077   6.550   5.709  0.1360  0.0238 -0.6382
  283SOL     ow 1129   1.716   1.010   5.149  0.1482  0.1850  0.2361
  283SOL     hw 1130   1.771   1.018   5.227  2.2857 -0.9282 -1.0716
  283SOL     hw 1131   1.691   1.099   5.127 -0.4748  0.5300  2.1266
  283SOL     vw 1132   1.720   1.023   5.156  0.3480  0.0836  0.3128
  284SOL     ow 1133   7.028   6.133   6.826 -0.0462  0.1267 -0.3042
  284SOL     hw 1134   7.059   6.171   6.743 -2.6676 -1.1822 -2.0216
  284SOL     hw 1135   7.024   6.208   6.886  0.1020  1.5189 -1.9437
  284SOL     vw 1136   7.031   6.148   6.823 -0.3725  0.1376 -0.7470
  285SOL     ow 1137   2.679   5.890   3.260 -0.3464  0.1903 -0.3746
  285SOL     hw 1138   2.693   5.901   3.354 -0.2481 -0.2415 -0.3375
  285SOL     hw 1139   2.645   5.801   3.251  2.4433 -0.9050 -1.0357
  285SOL     vw 1140   2.676   5.880   3.272  0.0347 -0.0110 -0.4569
  286SOL     ow 1141   5.398   3.332   5.658  0.4637  0.3999  0.0020
  286SOL     hw 1142   5.320   3.376   5.693  0.2906  0.6805 -0.7301
  286SOL     hw 1143   5.456   3.323   5.734  0.1498  1.1284  0.3369
  286SOL     vw 1144   5.396   3.336   5.673  0.3996  0.5331 -0.0505
  287SOL     ow 1145   0.906   1.548   5.680  0.4332  0.1388  0.0188
  287SOL     hw 1146   0.882   1.563   5.771 -1.8831  0.3938 -0.5643
  287SOL     hw 1147   0.852   1.474   5.653  0.5246  0.5358 -1.3399
  287SOL     vw 1148   0.896   1.540   5.688  0.1397  0.2248 -0.2377
  288SOL     ow 1149   6.887   4.092   0.490  0.1843 -0.0834 -0.1995
  288SOL     hw 1150   6.860   4.081   0.398  1.5770  3.0171 -1.1293
  288SOL     hw 1151   6.823   4.152   0.527 -0.1330 -0.9963  0.7860
  288SOL     vw 1152   6.875   4.098   0.482  0.3262  0.2053 -0.1921
  289SOL     ow 1153   0.837   1.960   3.383  0.2746  0.5891  0.1860
  289SOL     hw 1154   0.926   1.928   3.399  0.0390 -0.1634  0.0583
  289SOL     hw 1155   0.826   2.033   3.444  0.7961  0.3482  0.5780
  289SOL     vw 1156   0.847   1.965   3.393  0.3124  0.4580  0.2209
  290SOL     ow 1157   0.015   4.157   6.476 -0.1318 -0.2252  0.5178
  290SOL     hw 1158   0.102   4.198   6.483 -0.4165  0.7555 -1.3081
  290SOL     hw 1159  -0.033   4.191   6.551  0.9428 -0.5616  1.4000
  290SOL     vw 1160   0.020   4.167   6.487 -0.0276 -0.1400  0.3932
  291SOL     ow 1161   3.848   5.205   5.035 -0.1982 -0.5007  0.0395
  291SOL     hw 1162   3.817   5.114   5.038 -0.7317 -0.3246 -0.1164
  291SOL     hw 1163   3.774   5.257   5.065 -0.2815 -0.0269 -0.9584
  291SOL     vw 1164   3.834   5.200   5.039 -0.2795 -0.4148 -0.1130
  292SOL     ow 1165   2.365   6.479   4.219  0.3903  0.5035  0.3488
  292SOL     hw 1166   2.407   6.443   4.297  0.1086  1.8669  1.1716
  292SOL     hw 1167   2.276   6.500   4.247  0.5890  1.9698 -0.0027
  292SOL     vw 1168   2.359   6.477   4.233  0.3793  0.8769  0.4108
  293SOL     ow 1169   1.553   5.706   6.243  0.6416  0.7475 -0.3423
  293SOL     hw 1170   1.639   5.690   6.280  0.2362  0.8101  0.6536
  293SOL     hw 1171   1.535   5.798   6.261 -0.3111  0.3409  0.9451
  293SOL     vw 1172   1.562   5.716   6.250  0.4625  0.7024 -0.0410
  294SOL     ow 1173   6.800   1.653   1.632 -0.0182 -0.7384  0.2394
  294SOL     hw 1174   6.835   1.611   1.711  2.6592  2.0354  0.6953
  294SOL     hw 1175   6.849   1.734   1.623 -2.8084  0.9115 -2.2564
  294SOL     vw 1176   6.811   1.658   1.641 -0.0329 -0.1547 -0.0298
  295SOL     ow 1177   1.883   6.180   2.080 -0.1778 -0.4428  0.0278
  295SOL     hw 1178   1.948   6.248   2.101  1.0783 -1.3724 -0.7239
  295SOL     hw 1179   1.808   6.229   2.046  1.0376  0.5628 -1.3752
  295SOL     vw 1180   1.882   6.196   2.078  0.1482 -0.4327 -0.2565
  296SOL     ow 1181   4.008   3.261   1.874 -0.0113  0.3461  0.0593
  296SOL     hw 1182   4.027   3.344   1.919  1.6037 -0.0594  0.1849
  296SOL     hw 1183   3.987   3.200   1.945 -0.2808  0.4099  0.0361
  296SOL     vw 1184   4.008   3.264   1.890  0.1662  0.3009  0.0728
  297SOL     ow 1185   7.024   3.411   4.015 -0.2148  0.1168 -0.4938
  297SOL     hw 1186   6.954   3.363   3.970 -0.8810 -1.9217  2.3755
  297SOL     hw 1187   6.985   3.435   4.099  2.1114  0.1002  0.6484
  297SOL     vw 1188   7.009   3.408   4.020  0.0041 -0.1543  0.0355
  298SOL     ow 1189   5.187   2.170   0.490 -0.3143  0.2765  0.2995
  298SOL     hw 1190   5.093   2.157   0.488  0.0334 -3.3523  0.8083
  298SOL     hw 1191   5.206   2.192   0.581 -0.5163 -1.1099  0.6970
  298SOL     vw 1192   5.177   2.171   0.502 -0.2952 -0.3852  0.4191
  299SOL     ow 1193   2.516   5.966   2.995 -0.2507  0.0991 -0.9352
  299SOL     hw 1194   2.546   5.898   2.934 -1.0281 -0.3361 -0.8413
  299SOL     hw 1195   2.440   6.005   2.952 -1.5859 -1.0604  0.2826
  299SOL     vw 1196   2.510   5.962   2.981 -0.5295 -0.1113 -0.7621
  300SOL     ow 1197   1.513   2.630   1.505 -0.3853  0.0016  0.3664
  300SOL     hw 1198   1.476   2.563   1.447  0.9440 -0.8319  0.4498
  300SOL     hw 1199   1.596   2.655   1.464 -0.3545  0.8329  0.8998
  300SOL     vw 1200   1.519   2.625   1.492 -0.2059  0.0014  0.4478
  301SOL     ow 1201   5.828   1.453   5.837  0.0367 -1.0529 -0.4699
  301SOL     hw 1202   5.858   1.381   5.892  1.2571 -0.6539 -0.5733
  301SOL     hw 1203   5.881   1.446   5.757  0.2592  0.0202 -0.4294
  301SOL     vw 1204   5.839   1.442   5.833  0.2270 -0.8588 -0.4785
  302SOL     ow 1205   2.004   2.630   6.555 -0.0531 -0.1138  0.3308
  302SOL     hw 1206   1.948   2.574   6.608 -0.9402  0.0054 -0.4488
  302SOL     hw 1207   1.969   2.622   6.466 -0.7402  2.3164  0.3152
  302SOL     vw 1208   1.992   2.621   6.550 -0.2608  0.2224  0.2255
  303SOL     ow 1209   6.616   5.466   1.358 -0.3732  0.3014 -0.1194
  303SOL     hw 1210   6.679   5.521   1.312 -0.6806 -1.3025 -2.6303
  303SOL     hw 1211   6.669   5.415   1.420  0.4411  0.6439 -0.5251
  303SOL     vw 1212   6.631   5.467   1.360 -0.3064  0.1352 -0.5042
  304SOL     ow 1213   3.657   4.104   0.700 -0.4408 -0.4968 -0.3538
  304SOL     hw 1214   3.659   4.040   0.629 -1.7129 -0.8845 -0.0693
  304SOL     hw 1215   3.599   4.173   0.669 -0.1332 -0.1274 -0.1208
  304SOL     vw 1216   3.650   4.105   0.687 -0.5680 -0.4995 -0.2855
  305SOL     ow 1217   5.510   5.355   2.923 -0.0268 -0.5075  0.3416
  305SOL     hw 1218   5.494   5.351   3.018  0.7268  1.5980  0.6235
  305SOL     hw 1219   5.423   5.352   2.884 -0.4511  0.0544  1.2064
  305SOL     vw 1220   5.496   5.354   2.931  0.0167 -0.1554  0.4929
  306SOL     ow 1221   2.984   1.074   5.722 -0.0469  0.4302  0.5370
  306SOL     hw 1222   2.905   1.020   5.725 -1.3196  2.2110  2.2889
  306SOL     hw 1223   3.042   1.035   5.788 -0.0084 -0.1317  0.1694
  306SOL     vw 1224   2.981   1.062   5.731 -0.2097  0.5911  0.7195
  307SOL     ow 1225   0.777   2.879   2.647  0.7018 -0.3572 -0.4092
  307SOL     hw 1226   0.729   2.798   2.634  1.1482 -1.0553  1.8456
  307SOL     hw 1227   0.709   2.947   2.650  0.1091 -0.9536 -0.0818
  307SOL     vw 1228   0.762   2.877   2.646  0.6825 -0.5280 -0.0687
  308SOL     ow 1229   5.158   3.247   2.409 -0.0209  0.1022  0.2291
  308SOL     hw 1230   5.120   3.333   2.428  0.1549  0.2143  0.0702
  308SOL     hw 1231   5.083   3.192   2.388 -0.4529 -0.4658  2.8203
  308SOL     vw 1232   5.143   3.251   2.409 -0.0546  0.0421  0.5500
  309SOL     ow 1233   2.025   2.812   6.842  0.3067  1.0086  0.6808
  309SOL     hw 1234   2.095   2.757   6.878 -0.3067 -0.3607 -0.1206
  309SOL     hw 1235   1.958   2.813   6.911  0.8847  1.8797  1.2357
  309SOL     vw 1236   2.025   2.805   6.856  0.3021  0.9431  0.6483
  310SOL     ow 1237   4.584   0.501   2.692  0.1296  0.3456  0.1751
  310SOL     hw 1238   4.653   0.526   2.753  0.8428 -0.6214 -0.2021
  310SOL     hw 1239   4.503   0.527   2.736  0.5762 -0.8704  1.8454
  310SOL     vw 1240   4.582   0.508   2.706  0.2830  0.0575  0.3457
  311SOL     ow 1241   4.787   3.950   5.173  0.5061  0.1866  0.0242
  311SOL     hw 1242   4.850   3.962   5.102  0.8579 -1.0418  0.0913
  311SOL     hw 1243   4.707   3.922   5.130  0.3646  0.6010  0.0222
  311SOL     vw 1244   4.785   3.948   5.158  0.5341  0.0790  0.0329
  312SOL     ow 1245   5.572   1.438   5.633 -0.3030 -0.4912  0.4943
  312SOL     hw 1246   5.479   1.432   5.610 -0.1658 -1.4906  0.1718
  312SOL     hw 1247   5.617   1.394   5.561  0.6436  2.2091 -0.7191
  312SOL     vw 1248   5.566   1.431   5.620 -0.1600 -0.2667  0.2916
  313SOL     ow 1249   0.536   5.424   6.217 -0.4519 -0.5805  0.0147
  313SOL     hw 1250   0.456   5.474   6.199  0.7187  1.2534 -0.3620
  313SOL     hw 1251   0.559   5.384   6.134 -0.1269  0.1721 -0.2557
  313SOL     vw 1252   0.528   5.425   6.204 -0.2546 -0.2391 -0.0706
  314SOL     ow 1253   3.825   3.015   2.665  0.9555  0.2930 -0.0076
  314SOL     hw 1254   3.772   3.093   2.681  0.2217  0.1652 -1.6761
  314SOL     hw 1255   3.903   3.028   2.719  0.8930  2.2183 -0.3220
  314SOL     vw 1256   3.828   3.027   2.674  0.8504  0.5301 -0.2693
  315SOL     ow 1257   0.079   1.662   1.668  0.7487 -0.1421  0.0070
  315SOL     hw 1258   0.055   1.574   1.694 -1.0751  0.4829  0.6047
  315SOL     hw 1259   0.070   1.663   1.572  5.9501 -1.9998 -0.8327
  315SOL     vw 1260   0.075   1.651   1.658  1.1944 -0.3048 -0.0249
  316SOL     ow 1261   3.489   0.299   2.839 -0.0430  0.3992  0.3709
  316SOL     hw 1262   3.398   0.270   2.851  0.2152 -0.5538  0.0820
  316SOL     hw 1263   3.510   0.344   2.921 -0.8905  0.9427  0.2988
  316SOL     vw 1264   3.479   0.301   2.851 -0.1208  0.3452  0.3232
  317SOL     ow 1265   1.813   0.426   1.543  0.0753  0.1330 -0.4305
  317SOL     hw 1266   1.739   0.461   1.594 -0.3412 -0.7139 -0.4345
  317SOL     hw 1267   1.808   0.332   1.556  2.0471  0.1235  0.7865
  317SOL     vw 1268   1.803   0.419   1.552  0.2805  0.0200 -0.2705
  318SOL     ow 1269   0.115   0.404   6.873 -0.3403  0.1369  0.0918
  318SOL     hw 1270   0.129   0.335   6.938 -3.7072  0.5179  1.4056
  318SOL     hw 1271   0.025   0.393   6.845 -0.4238  2.8907 -1.0581
  318SOL     vw 1272   0.105   0.394   6.878 -0.7956  0.5505  0.1137
  319SOL     ow 1273   1.888   0.607   4.055  0.2331 -0.0065  0.8388
  319SOL     hw 1274   1.856   0.548   4.124 -2.6682 -1.0365 -1.1889
  319SOL     hw 1275   1.883   0.556   3.975 -1.3194  2.5494 -0.8677
  319SOL     vw 1276   1.883   0.593   4.054 -0.3546  0.1948  0.3459
  320SOL     ow 1277   5.327   3.687   4.705  0.3495 -0.1504  0.1589
  320SOL     hw 1278   5.416   3.719   4.695  0.5669 -0.7430  0.1814
  320SOL     hw 1279   5.300   3.661   4.616 -0.4697  1.7278 -0.1941
  320SOL     vw 1280   5.335   3.688   4.692  0.2704  0.0192  0.1152
  321SOL     ow 1281   0.135   4.504   6.655 -0.2292 -0.0611  0.3422
  321SOL     hw 1282   0.162   4.412   6.654  2.5622  0.6353  1.4971
  321SOL     hw 1283   0.140   4.529   6.748  0.0067  1.4660 -0.0598
  321SOL     vw 1284   0.139   4.495   6.667  0.1702  0.2325  0.4416
  322SOL     ow 1285   1.318   2.685   4.116 -0.0195  0.6026 -0.4965
  322SOL     hw 1286   1.290   2.761   4.064 -1.0875 -0.3435 -1.3654
  322SOL     hw 1287   1.379   2.638   4.059  1.4758  1.3202  0.4392
  322SOL     vw 1288   1.323   2.689   4.102  0.0369  0.5724 -0.4876
  323SOL     ow 1289   1.728   6.745   5.275  0.0103  0.0137 -0.1732
  323SOL     hw 1290   1.745   6.678   5.209  0.9799  2.2326 -2.3424
  323SOL     hw 1291   1.635   6.737   5.294 -0.4343 -0.4269 -2.2423
  323SOL     vw 1292   1.718   6.735   5.269  0.0795  0.2487 -0.7324
  324SOL     ow 1293   2.632   6.485   4.094  0.4062  0.3104  0.2092
  324SOL     hw 1294   2.663   6.565   4.135  1.0229 -0.5765  1.5475
  324SOL     hw 1295   2.710   6.447   4.053  0.5171 -0.4764  1.1106
  324SOL     vw 1296   2.646   6.490   4.094  0.5022  0.0896  0.5050
  325SOL     ow 1297   5.480   2.733   4.448 -0.2236 -1.1021  0.3464
  325SOL     hw 1298   5.495   2.784   4.368 -1.2368 -0.5094  0.5127
  325SOL     hw 1299   5.546   2.664   4.445 -1.4618 -2.3155 -2.0255
  325SOL     vw 1300   5.491   2.730   4.437 -0.5209 -1.1840  0.0556
  326SOL     ow 1301   5.517   1.855   0.513 -0.2350  0.3966 -0.1861
  326SOL     hw 1302   5.474   1.870   0.597 -0.3345  0.5142 -0.2577
  326SOL     hw 1303   5.495   1.932   0.460 -2.5118 -0.8982 -1.2940
  326SOL     vw 1304   5.508   1.867   0.517 -0.5486  0.2413 -0.3417
  327SOL     ow 1305   4.391   3.992   3.863 -0.1696 -0.1506 -0.2629
  327SOL     hw 1306   4.310   3.996   3.914  0.8407  0.2312  1.3737
  327SOL     hw 1307   4.442   4.068   3.893  0.8881 -0.5002 -1.1044
  327SOL     vw 1308   4.387   4.003   3.874  0.1032 -0.1464 -0.1580
  328SOL     ow 1309   2.185   3.089   6.764 -0.1137 -0.7095 -0.4797
  328SOL     hw 1310   2.124   3.142   6.815  1.3886  1.1630 -0.5366
  328SOL     hw 1311   2.201   3.011   6.818  0.5060  0.6565  1.4050
  328SOL     vw 1312   2.179   3.086   6.778  0.1664 -0.2823 -0.2384
  329SOL     ow 1313   5.705   2.244   3.673 -0.0457  0.3882 -0.0486
  329SOL     hw 1314   5.773   2.272   3.735 -0.8090 -0.1724  1.0954
  329SOL     hw 1315   5.740   2.165   3.633 -0.4551 -0.5534  1.3780
  329SOL     vw 1316   5.718   2.237   3.676 -0.2003  0.1899  0.2905
  330SOL     ow 1317   6.428   5.684   1.436  0.2283  0.0383 -0.3914
  330SOL     hw 1318   6.519   5.676   1.406 -0.0991 -3.0818 -0.8813
  330SOL     hw 1319   6.376   5.673   1.357 -0.5703 -1.3896  0.2951
  330SOL     vw 1320   6.433   5.682   1.422  0.0796 -0.5620 -0.3654
  331SOL     ow 1321   2.765   0.109   2.050 -0.2499 -0.1116 -0.1389
  331SOL     hw 1322   2.732   0.174   2.112 -1.4282  0.5392 -1.4054
  331SOL     hw 1323   2.851   0.141   2.024  0.9142 -1.0909  2.1160
  331SOL     vw 1324   2.772   0.122   2.055 -0.2519 -0.1549 -0.0086
  332SOL     ow 1325   1.722   5.712   0.621  0.8563 -0.3515 -0.0590
  332SOL     hw 1326   1.803   5.680   0.581  0.5720  1.5265 -2.3487
  332SOL     hw 1327   1.653   5.654   0.587  0.5709  1.4007 -2.8236
  332SOL     vw 1328   1.723   5.700   0.611  0.7811  0.1276 -0.7258
  333SOL     ow 1329   2.140   6.534   4.339  0.0213  0.0627 -0.1243
  333SOL     hw 1330   2.169   6.492   4.420  0.2942 -0.3739 -0.4423
  333SOL     hw 1331   2.067   6.479   4.308  0.8096 -0.5959 -0.8941
  333SOL     vw 1332   2.134   6.521   4.345  0.1614 -0.0818 -0.2680
  334SOL     ow 1333   1.250   1.526   5.656  0.1265 -0.4083  0.1844
  334SOL     hw 1334   1.319   1.501   5.595  0.4266  1.7444 -0.4229
  334SOL     hw 1335   1.295   1.535   5.740  0.1193 -1.2341  0.2906
  334SOL     vw 1336   1.265   1.524   5.659  0.1651 -0.2332  0.1183
  335SOL     ow 1337   4.239   0.592   1.629  0.1373  0.2802  0.0629
  335SOL     hw 1338   4.313   0.615   1.685  1.4865 -0.5398 -1.3232
  335SOL     hw 1339   4.277   0.577   1.543 -1.5218 -0.9993 -0.5039
  335SOL     vw 1340   4.254   0.593   1.625  0.0966  0.0032 -0.1948
  336SOL     ow 1341   1.037   1.005   5.386 -0.7108 -0.1813 -0.0187
  336SOL     hw 1342   1.092   1.082   5.367  2.6741 -2.1590  0.9619
  336SOL     hw 1343   1.016   0.969   5.300 -3.5032  2.3990 -0.5844
  336SOL     vw 1344   1.042   1.011   5.372 -0.6326 -0.1019  0.0360
  337SOL     ow 1345   6.865   3.077   6.393 -0.0196 -0.1671  0.3596
  337SOL     hw 1346   6.802   3.147   6.378 -0.1416 -0.6445 -1.5747
  337SOL     hw 1347   6.813   3.005   6.429  0.2478  0.9351  3.2455
  337SOL     vw 1348   6.850   3.076   6.396 -0.0005 -0.0846  0.4854
  338SOL     ow 1349   6.770   1.495   3.284  0.0207  0.2651  0.1966
  338SOL     hw 1350   6.675   1.484   3.289  0.1142 -0.7641 -0.0882
  338SOL     hw 1351   6.782   1.584   3.250 -0.8117  0.8518  1.3652
  338SOL     vw 1352   6.759   1.505   3.280 -0.0770  0.2066  0.3133
  339SOL     ow 1353   1.709   4.133   5.961 -0.0306  0.4174 -0.3763
  339SOL     hw 1354   1.733   4.187   5.885  0.0276  2.0336  0.7396
  339SOL     hw 1355   1.637   4.180   6.002  0.8907  0.3801  1.3814
  339SOL     vw 1356   1.703   4.146   5.956  0.0986  0.6258  0.0024
  340SOL     ow 1357   3.376   2.078   3.447 -0.3640  0.1284  0.3325
  340SOL     hw 1358   3.325   2.007   3.407 -0.3123 -0.4540  1.2708
  340SOL     hw 1359   3.383   2.053   3.539 -1.0444  1.7552  0.8629
  340SOL     vw 1360   3.370   2.066   3.454 -0.4469  0.2661  0.5262
  341SOL     ow 1361   3.606   3.418   4.997  0.0043  0.0000  0.2728
  341SOL     hw 1362   3.670   3.376   4.939 -0.2004 -0.6177  0.4785
  341SOL     hw 1363   3.626   3.382   5.084 -2.0739 -2.0823  0.0040
  341SOL     vw 1364   3.617   3.407   5.001 -0.2970 -0.3563  0.2646
  342SOL     ow 1365   6.056   2.161   3.514 -0.0037  0.9096 -0.1013
  342SOL     hw 1366   5.976   2.209   3.537 -0.8351 -0.8226  0.8328
  342SOL     hw 1367   6.069   2.100   3.587  2.3971  1.3663 -0.0526
  342SOL     vw 1368   6.047   2.159   3.527  0.2034  0.7412  0.0284
  343SOL     ow 1369   4.096   6.138   1.068  0.0888  0.2710  0.1903
  343SOL     hw 1370   4.003   6.160   1.058  0.0692  0.4008  0.6348
  343SOL     hw 1371   4.099   6.083   1.146  0.3940  0.3137  0.2092
  343SOL     vw 1372   4.084   6.134   1.077  0.1266  0.2937  0.2514
  344SOL     ow 1373   3.447   3.644   5.001  0.5131 -0.2333  0.0556
  344SOL     hw 1374   3.365   3.613   5.040  1.7914 -1.5626  1.8125
  344SOL     hw 1375   3.502   3.566   4.996  2.1556  0.8778  0.1420
  344SOL     vw 1376   3.443   3.630   5.005  0.8985 -0.2621  0.2987
  345SOL     ow 1377   2.891   0.063   5.612  0.3573 -0.1994 -0.5547
  345SOL     hw 1378   2.811   0.067   5.560 -0.4048 -2.3038  0.3397
  345SOL     hw 1379   2.863   0.086   5.700  1.0385  0.4006 -0.4853
  345SOL     vw 1380   2.877   0.067   5.617  0.3465 -0.3979 -0.4275
  346SOL     ow 1381   1.574   3.291   6.060 -0.4997  0.2303  0.0792
  346SOL     hw 1382   1.668   3.308   6.053 -0.2157 -0.3627  1.8988
  346SOL     hw 1383   1.533   3.374   6.034  0.6868  1.9850  3.2438
  346SOL     vw 1384   1.581   3.304   6.055 -0.3057  0.3835  0.7370
  347SOL     ow 1385   6.261   4.104   5.898  0.0792 -0.4633 -0.3971
  347SOL     hw 1386   6.173   4.067   5.905  0.2020 -0.5068  1.1863
  347SOL     hw 1387   6.255   4.188   5.942  0.6990 -0.2054 -0.7975
  347SOL     vw 1388   6.249   4.110   5.904  0.1771 -0.4351 -0.2408
  348SOL     ow 1389   2.258   4.383   0.967 -0.2775 -0.4432  0.4403
  348SOL     hw 1390   2.163   4.386   0.950 -0.2732  0.0087  0.4997
  348SOL     hw 1391   2.267   4.414   1.057 -0.1436 -1.2824  0.7339
  348SOL     vw 1392   2.246   4.387   0.977 -0.2592 -0.4942  0.4869
  349SOL     ow 1393   1.036   4.939   4.414  0.7255 -0.0023  0.3507
  349SOL     hw 1394   0.976   4.864   4.411  0.9105 -0.1362 -0.2602
  349SOL     hw 1395   1.120   4.902   4.386  0.9751  0.2912  0.7106
  349SOL     vw 1396   1.039   4.924   4.410  0.7830  0.0186  0.3176
  350SOL     ow 1397   0.338   4.975   5.515 -0.0730  0.5447 -0.5864
  350SOL     hw 1398   0.291   4.919   5.576 -0.9749  0.7845 -1.0484
  350SOL     hw 1399   0.299   5.062   5.528  1.6277  1.2110  0.4782
  350SOL     vw 1400   0.327   4.979   5.525  0.0324  0.6642 -0.5069
  351SOL     ow 1401   6.315   2.219   3.577  0.9803  0.1751  0.1111
  351SOL     hw 1402   6.308   2.264   3.661 -0.0534 -0.1889  0.2436
  351SOL     hw 1403   6.224   2.199   3.554  1.3291 -0.6571 -0.5793
  351SOL     vw 1404   6.302   2.222   3.585  0.8900  0.0173  0.0374
  352SOL     ow 1405   0.698   1.556   2.658  0.0308  0.9566  0.0127
  352SOL     hw 1406   0.785   1.549   2.697  1.2463 -1.2680 -2.7143
  352SOL     hw 1407   0.638   1.540   2.731  1.9240  1.1159  1.7080
  352SOL     vw 1408   0.701   1.553   2.673  0.4410  0.6841 -0.1234
  353SOL     ow 1409   2.503   4.661   0.188  0.0295  0.0524 -0.4959
  353SOL     hw 1410   2.433   4.713   0.227  0.4321  1.8830 -2.0237
  353SOL     hw 1411   2.581   4.686   0.237  0.4826  2.1248 -2.1173
  353SOL     vw 1412   2.504   4.671   0.199  0.1423  0.5674 -0.9114
  354SOL     ow 1413   4.593   5.540   1.867  0.1196 -0.4822  0.1411
  354SOL     hw 1414   4.669   5.588   1.897  0.2829 -0.8646  0.3506
  354SOL     hw 1415   4.628   5.459   1.829 -0.1684 -0.5828  0.0795
  354SOL     vw 1416   4.608   5.536   1.866  0.1028 -0.5457  0.1606
  355SOL     ow 1417   2.410   3.959   5.681 -0.2294 -0.1205 -0.0701
  355SOL     hw 1418   2.406   3.912   5.764 -1.8852  0.0261 -0.0210
  355SOL     hw 1419   2.341   3.918   5.628 -0.8897  1.4455 -0.4629
  355SOL     vw 1420   2.400   3.947   5.685 -0.5350  0.1054 -0.1156
  356SOL     ow 1421   2.127   5.209   2.186 -0.3631 -0.2875  0.5231
  356SOL     hw 1422   2.165   5.260   2.258 -0.8064  1.2434 -0.2738
  356SOL     hw 1423   2.042   5.180   2.220  0.3719 -1.4865  1.3846
  356SOL     vw 1424   2.121   5.212   2.200 -0.3247 -0.2437  0.5317
  357SOL     ow 1425   2.306   3.031   6.013  0.8670 -0.6291 -0.4444
  357SOL     hw 1426   2.380   3.078   6.051 -0.5431  1.5265 -0.2454
  357SOL     hw 1427   2.229   3.074   6.048 -0.5218 -2.5778 -0.9581
  357SOL     vw 1428   2.306   3.043   6.022  0.4978 -0.6019 -0.4859
  358SOL     ow 1429   1.254   3.786   3.115  0.2425 -0.2543 -0.1499
  358SOL     hw 1430   1.195   3.836   3.060  0.6402 -2.5483 -2.9264
  358SOL     hw 1431   1.339   3.790   3.070  1.0676 -0.8029  1.2580
  358SOL     vw 1432   1.258   3.793   3.102  0.4038 -0.6293 -0.3306
  359SOL     ow 1433   4.117   5.828   6.838  0.1618 -0.2822  0.7784
  359SOL     hw 1434   4.189   5.889   6.823  1.0954 -1.2801  1.0649
  359SOL     hw 1435   4.159   5.750   6.874 -0.8811 -1.3986 -0.3134
  359SOL     vw 1436   4.132   5.826   6.841  0.1473 -0.5612  0.6721
  360SOL     ow 1437   3.204   6.175   6.701 -0.7731 -0.3408  0.1118
  360SOL     hw 1438   3.135   6.108   6.704 -0.8649 -0.2538 -0.0498
  360SOL     hw 1439   3.285   6.125   6.700 -0.8009 -0.4316  1.2629
  360SOL     vw 1440   3.205   6.159   6.701 -0.7888 -0.3412  0.2425
  361SOL     ow 1441   7.000   4.173   1.268  0.4226 -0.1374 -0.2757
  361SOL     hw 1442   6.931   4.194   1.206 -0.1431  0.3897  0.5202
  361SOL     hw 1443   7.025   4.257   1.307  1.3471 -0.3491 -0.3745
  361SOL     vw 1444   6.994   4.186   1.265  0.4702 -0.0956 -0.1837
  362SOL     ow 1445   4.592   5.228   6.415  0.4473  0.1145  0.5266
  362SOL     hw 1446   4.587   5.134   6.399  3.5456 -0.2706  1.1800
  362SOL     hw 1447   4.501   5.255   6.429 -0.7307 -2.4168 -1.3907
  362SOL     vw 1448   4.579   5.220   6.415  0.7010 -0.2704  0.3600
  363SOL     ow 1449   5.079   5.960   3.325 -0.3082  0.3876 -0.2392
  363SOL     hw 1450   5.086   5.869   3.354 -3.5863  0.0967  0.0598
  363SOL     hw 1451   5.075   5.953   3.229 -0.1069  0.2702 -0.2404
  363SOL     vw 1452   5.079   5.947   3.316 -0.7141  0.3340 -0.1998
  364SOL     ow 1453   0.523   3.581   5.494 -0.0656 -0.4701  0.5074
  364SOL     hw 1454   0.596   3.639   5.474 -1.4551  1.0421 -0.4108
  364SOL     hw 1455   0.549   3.537   5.574  2.5437 -1.2223 -0.6536
  364SOL     vw 1456   0.536   3.583   5.502  0.0953 -0.3698  0.2329
  365SOL     ow 1457   1.038   6.016   2.518  0.0472  0.0869 -0.1426
  365SOL     hw 1458   1.076   6.102   2.501  1.0674 -0.0497  1.2422
  365SOL     hw 1459   0.975   6.003   2.448  2.4794  0.3663 -2.5338
  365SOL     vw 1460   1.035   6.026   2.507  0.5026  0.1056 -0.2755
  366SOL     ow 1461   2.365   4.282   6.008 -0.6296 -0.5803  0.6753
  366SOL     hw 1462   2.384   4.259   5.918 -1.5526  2.8061 -0.5537
  366SOL     hw 1463   2.320   4.205   6.044 -0.0751 -2.0868 -1.6554
  366SOL     vw 1464   2.361   4.269   6.001 -0.6781 -0.3321  0.2058
  367SOL     ow 1465   5.565   3.916   4.455  1.0095  0.4923 -0.0325
  367SOL     hw 1466   5.591   3.922   4.547 -0.8193  2.7829  0.4606
  367SOL     hw 1467   5.525   4.002   4.437 -0.9460 -0.7697 -2.2204
  367SOL     vw 1468   5.563   3.928   4.465  0.5102  0.6281 -0.2561
  368SOL     ow 1469   2.417   1.271   5.518 -0.1469  0.2279  0.2617
  368SOL     hw 1470   2.371   1.199   5.561 -0.0428  0.1784  0.2916
  368SOL     hw 1471   2.348   1.330   5.489 -0.1659  1.0157  1.7990
  368SOL     vw 1472   2.402   1.269   5.520 -0.1357  0.3253  0.4683
  369SOL     ow 1473   5.178   6.982   4.185  0.1362  0.1286  0.3403
  369SOL     hw 1474   5.124   6.910   4.217  3.5655 -2.7107  0.3170
  369SOL     hw 1475   5.203   7.030   4.264 -1.0022  0.5053  0.5013
  369SOL     vw 1476   5.174   6.979   4.200  0.4385 -0.1960  0.3583
  370SOL     ow 1477   2.625   4.783   4.699 -0.2588  0.0320 -0.4928
  370SOL     hw 1478   2.574   4.824   4.630  0.6075  0.1493 -1.0799
  370SOL     hw 1479   2.690   4.730   4.653 -1.9078 -2.8224  0.1967
  370SOL     vw 1480   2.627   4.781   4.684 -0.3620 -0.3288 -0.4795
  371SOL     ow 1481   5.468   2.097   0.357  0.7358 -0.3429  0.3707
  371SOL     hw 1482   5.459   2.063   0.267 -1.7092  1.8740 -0.3514
  371SOL     hw 1483   5.562   2.111   0.368  1.0700 -0.2286 -2.0445
  371SOL     vw 1484   5.479   2.094   0.346  0.4573 -0.0353 -0.0432
  372SOL     ow 1485   5.659   5.641   1.937 -0.2528  0.2641  0.4597
  372SOL     hw 1486   5.699   5.728   1.933 -2.4062  1.2968 -0.3985
  372SOL     hw 1487   5.589   5.650   2.001  0.1832 -1.2032  1.1950
  372SOL     vw 1488   5.655   5.654   1.945 -0.4795  0.2067  0.4436
  373SOL     ow 1489   6.297   3.145   3.378  0.0659  0.0921 -0.4528
  373SOL     hw 1490   6.300   3.166   3.285 -0.5594  2.3373 -0.0177
  373SOL     hw 1491   6.373   3.189   3.415  0.8623 -1.5839  0.0120
  373SOL     vw 1492   6.307   3.153   3.370  0.0885  0.1673 -0.3341
  374SOL     ow 1493   0.901   0.003   2.118  1.1552  0.0174 -0.4578
  374SOL     hw 1494   0.933   0.073   2.175  0.0405  0.3688 -0.2416
  374SOL     hw 1495   0.810  -0.010   2.145  1.9302 -3.1904  1.1798
  374SOL     vw 1496   0.893   0.011   2.129  1.1104 -0.3595 -0.2131
  375SOL     ow 1497   6.048   0.761   6.594  0.2992  0.2703 -0.7685
  375SOL     hw 1498   5.995   0.818   6.538 -2.8651 -1.3885  0.2815
  375SOL     hw 1499   5.984   0.706   6.639  3.0543 -3.1880 -0.6795
  375SOL     vw 1500   6.033   0.761   6.593  0.2453 -0.4049 -0.6185
  376SOL     ow 1501   5.405   4.977   4.292 -0.2762 -0.0382 -0.0076
  376SOL     hw 1502   5.402   4.916   4.366  1.0668 -0.9857 -0.7078
  376SOL     hw 1503   5.488   5.023   4.301  0.9985 -1.7750 -2.1284
  376SOL     vw 1504   5.415   4.975   4.303  0.0694 -0.3922 -0.3798
  377SOL     ow 1505   3.013   4.814   1.072 -0.0592  0.1038  0.1405
  377SOL     hw 1506   3.035   4.846   0.985  1.1831 -0.6718  0.1505
  377SOL     hw 1507   2.949   4.744   1.057  0.2128 -0.0810 -0.1542
  377SOL     vw 1508   3.008   4.809   1.059  0.1405 -0.0229  0.1030
  378SOL     ow 1509   6.193   5.455   6.741 -0.0861  0.1403  0.7642
  378SOL     hw 1510   6.153   5.481   6.824 -0.0647 -0.7749  1.0646
  378SOL     hw 1511   6.151   5.373   6.718  1.0557 -0.4440  0.6867
  378SOL     vw 1512   6.182   5.448   6.749  0.0675 -0.0577  0.7937
  379SOL     ow 1513   5.529   5.334   0.369 -0.0666  0.0018  0.3253
  379SOL     hw 1514   5.466   5.261   0.374  0.3807 -0.5839 -1.5557
  379SOL     hw 1515   5.591   5.307   0.301  2.2376  0.5773  2.0847
  379SOL     vw 1516   5.529   5.320   0.361  0.2964  0.0005  0.3093
  380SOL     ow 1517   0.813   4.722   1.226  0.2319 -0.9151 -0.3711
  380SOL     hw 1518   0.879   4.710   1.158  1.0319  3.8135 -0.7719
  380SOL     hw 1519   0.864   4.740   1.306 -0.6059 -0.7177  0.1347
  380SOL     vw 1520   0.829   4.723   1.228  0.2269 -0.2654 -0.3573
  381SOL     ow 1521   5.510   1.216   3.017 -0.1072 -0.1349  0.2175
  381SOL     hw 1522   5.474   1.236   2.931  1.5554  0.7820 -0.3125
  381SOL     hw 1523   5.453   1.262   3.078 -1.7348 -1.3770 -0.2962
  381SOL     vw 1524   5.498   1.225   3.014 -0.1025 -0.1778  0.0798
  382SOL     ow 1525   5.239   1.105   3.431 -0.1209 -0.0354  0.1974
  382SOL     hw 1526   5.248   1.049   3.509  3.1449  2.3987  1.8050
  382SOL     hw 1527   5.203   1.187   3.465 -3.6647 -0.5084 -1.9106
  382SOL     vw 1528   5.235   1.108   3.446 -0.1576  0.2233  0.1312
  383SOL     ow 1529   1.055   0.192   5.694  0.1136  0.3904  0.1463
  383SOL     hw 1530   0.967   0.204   5.731 -0.6190 -0.5334 -1.1867
  383SOL     hw 1531   1.073   0.098   5.705  0.8527  0.5380  0.2219
  383SOL     vw 1532   1.046   0.181   5.700  0.1146  0.2880 -0.0193
  384SOL     ow 1533   0.348   0.241   6.047  0.0020  0.0958 -0.0174
  384SOL     hw 1534   0.333   0.190   5.967 -0.9711 -1.6926  1.2287
  384SOL     hw 1535   0.277   0.304   6.049 -1.2777 -1.3179  0.5110
  384SOL     vw 1536   0.337   0.242   6.036 -0.2952 -0.3267  0.2167
  385SOL     ow 1537   6.974   2.523   4.598 -0.3953 -0.0379 -0.3871
  385SOL     hw 1538   7.020   2.444   4.625 -1.4696 -0.9736 -1.1762
  385SOL     hw 1539   7.041   2.591   4.596  0.0901 -0.2908  2.7822
  385SOL     vw 1540   6.989   2.521   4.601 -0.4730 -0.1947 -0.0727
  386SOL     ow 1541   3.390   0.359   2.546  0.5328 -0.2276  0.3987
  386SOL     hw 1542   3.368   0.277   2.502  1.2053  0.7508 -1.8885
  386SOL     hw 1543   3.306   0.398   2.568  0.0908  0.0363 -1.5957
  386SOL     vw 1544   3.376   0.353   2.543  0.5631 -0.0637 -0.1662
  387SOL     ow 1545   3.744   2.971   3.006  0.0646 -0.2375 -0.0643
  387SOL     hw 1546   3.751   3.064   2.985  2.4673 -0.4667 -0.5838
  387SOL     hw 1547   3.815   2.955   3.069 -0.7035 -1.6044  0.5077
  387SOL     vw 1548   3.754   2.981   3.011  0.2804 -0.4481 -0.0573
  388SOL     ow 1549   6.120   1.159   2.529 -0.0765  0.3482 -0.6811
  388SOL     hw 1550   6.178   1.198   2.464 -0.3060 -0.7093 -1.5350
  388SOL     hw 1551   6.163   1.076   2.553 -0.0414  0.6671  0.4532
  388SOL     vw 1552   6.133   1.153   2.524 -0.1020  0.2508 -0.6440
  389SOL     ow 1553   4.715   4.664   3.439 -0.2621  0.2656 -0.1079
  389SOL     hw 1554   4.742   4.721   3.511 -0.0217  0.8150 -0.6249
  389SOL     hw 1555   4.719   4.720   3.361 -1.6551  0.0128 -0.3900
  389SOL     vw 1556   4.719   4.679   3.438 -0.4139  0.3047 -0.2134
  390SOL     ow 1557   2.813   6.754   6.771  0.2146  0.5347  0.5202
  390SOL     hw 1558   2.795   6.826   6.831  0.9601  0.0662  1.3211
  390SOL     hw 1559   2.758   6.682   6.801 -0.0413  0.5543  0.1172
  390SOL     vw 1560   2.804   6.754   6.783  0.2793  0.4756  0.5727
  391SOL     ow 1561   1.520   6.892   6.989 -0.5362  0.8494  0.0361
  391SOL     hw 1562   1.586   6.889   6.920  0.0959  0.7983  0.6327
  391SOL     hw 1563   1.524   6.981   7.023 -1.3080  1.0706 -0.4224
  391SOL     vw 1564   1.529   6.903   6.984 -0.5546  0.8717  0.0544
  392SOL     ow 1565   2.647   1.347   4.023  0.1778 -0.0529 -0.0514
  392SOL     hw 1566   2.619   1.258   4.004 -0.0087 -0.2935  1.2712
  392SOL     hw 1567   2.572   1.401   3.998 -0.2779 -0.4099  0.5246
  392SOL     vw 1568   2.633   1.343   4.017  0.0930 -0.1317  0.1991
  393SOL     ow 1569   5.637   3.528   0.572  0.8289  0.5505 -0.5188
  393SOL     hw 1570   5.596   3.518   0.485 -0.1405 -0.4177  0.0173
  393SOL     hw 1571   5.568   3.504   0.633  1.2193  2.1449  0.5809
  393SOL     vw 1572   5.622   3.523   0.568  0.7527  0.6331 -0.3030
  394SOL     ow 1573   6.663   5.493   2.226 -0.1394  0.3885  0.4632
  394SOL     hw 1574   6.733   5.552   2.253 -0.8483 -0.1865  3.9056
  394SOL     hw 1575   6.584   5.529   2.265 -1.0721 -1.2185  0.1580
  394SOL     vw 1576   6.662   5.505   2.234 -0.3560  0.1006  0.8771
  395SOL     ow 1577   5.871   1.747   2.931 -0.0958  0.0863 -0.6536
  395SOL     hw 1578   5.778   1.763   2.949 -0.2533 -0.1593 -1.2419
  395SOL     hw 1579   5.893   1.672   2.985 -0.4501 -0.3645 -1.1319
  395SOL     vw 1580   5.861   1.740   2.941 -0.1633 -0.0055 -0.7943
  396SOL     ow 1581   2.051   6.859   4.462 -0.1769 -0.0071 -0.1208
  396SOL     hw 1582   2.037   6.949   4.430  1.2157  0.0614 -0.6055
  396SOL     hw 1583   1.974   6.840   4.515 -1.1950  0.9448 -1.2031
  396SOL     vw 1584   2.039   6.869   4.465 -0.1276  0.1276 -0.3273
  397SOL     ow 1585   3.791   5.836   6.157  0.4646 -0.5839 -0.4202
  397SOL     hw 1586   3.829   5.905   6.212  1.6229 -1.2881 -0.2970
  397SOL     hw 1587   3.724   5.796   6.213 -0.1084  0.3251 -0.4383
  397SOL     vw 1588   3.787   5.839   6.172  0.5418 -0.5572 -0.4063
  398SOL     ow 1589   3.092   6.188   5.245 -0.4080 -0.1631 -0.0273
  398SOL     hw 1590   3.120   6.277   5.224  1.3617 -0.9092 -1.0060
  398SOL     hw 1591   3.038   6.198   5.324  0.3689  1.6780  0.3246
  398SOL     vw 1592   3.088   6.201   5.253 -0.0720 -0.0186 -0.1101
  399SOL     ow 1593   4.884   2.722   6.917  0.2589  0.4930  0.1153
  399SOL     hw 1594   4.975   2.694   6.909  0.3324  0.8902 -0.5136
  399SOL     hw 1595   4.861   2.752   6.829 -0.7167 -0.3221  0.0828
  399SOL     vw 1596   4.893   2.722   6.904  0.1397  0.4380  0.0279
  400SOL     ow 1597   6.266   3.067   1.978  0.0356 -0.5071 -0.1867
  400SOL     hw 1598   6.223   3.080   1.894 -0.2079  3.0965  0.3055
  400SOL     hw 1599   6.195   3.039   2.037  0.3386 -3.7228 -1.1849
  400SOL     vw 1600   6.251   3.065   1.975  0.0436 -0.4559 -0.2534
  401SOL     ow 1601   0.387   3.501   1.776 -0.3340 -0.2552  0.2147
  401SOL     hw 1602   0.447   3.434   1.742 -0.5680 -0.7579  0.7762
  401SOL     hw 1603   0.326   3.453   1.832 -0.7017  0.3830  0.3753
  401SOL     vw 1604   0.387   3.486   1.779 -0.4134 -0.2375  0.3100
  402SOL     ow 1605   4.003   0.631   2.287 -0.4487  0.2298  0.1040
  402SOL     hw 1606   3.943   0.574   2.334  0.4123 -0.0708  0.8731
  402SOL     hw 1607   4.089   0.589   2.297 -0.2194  0.1520 -1.7281
  402SOL     vw 1608   4.006   0.618   2.294 -0.3049  0.1799 -0.0362
  403SOL     ow 1609   4.958   0.203   4.248 -0.1108 -0.3009 -0.3257
  403SOL     hw 1610   4.970   0.164   4.162 -0.6618  0.9531 -1.0082
  403SOL     hw 1611   4.911   0.284   4.231  0.4677  0.3727  1.0849
  403SOL     vw 1612   4.953   0.209   4.235 -0.1070 -0.0466 -0.2296
  404SOL     ow 1613   1.229   1.259   6.491  0.0748  0.2498  0.5683
  404SOL     hw 1614   1.195   1.169   6.495  0.3197  0.1488  0.4223
  404SOL     hw 1615   1.206   1.297   6.576 -0.6246  0.2686  0.3720
  404SOL     vw 1616   1.222   1.252   6.503  0.0148  0.2390  0.5231
  405SOL     ow 1617   5.623   4.631   5.808 -0.1055  0.2330  0.2380
  405SOL     hw 1618   5.719   4.628   5.805 -0.1068 -0.2925  0.7353
  405SOL     hw 1619   5.597   4.544   5.836 -0.7480  0.2808 -0.1971
  405SOL     vw 1620   5.632   4.619   5.811 -0.1907  0.1702  0.2460
  406SOL     ow 1621   3.334   3.865   2.406  0.6405 -0.2656 -0.2860
  406SOL     hw 1622   3.286   3.858   2.488  0.0113 -1.7748 -0.7396
  406SOL     hw 1623   3.267   3.866   2.338  1.1304  1.4862 -0.7953
  406SOL     vw 1624   3.319   3.864   2.408  0.6222 -0.2337 -0.4129
  407SOL     ow 1625   4.076   5.335   6.837  0.2394 -0.1209  0.0571
  407SOL     hw 1626   4.005   5.384   6.878 -0.4853 -1.3057  0.2460
  407SOL     hw 1627   4.119   5.399   6.780  0.1944  1.0990  1.3298
  407SOL     vw 1628   4.072   5.350   6.835  0.1380 -0.1166  0.2499
  408SOL     ow 1629   5.459   3.330   2.454  0.3559  0.3076 -0.0134
  408SOL     hw 1630   5.512   3.354   2.378  0.9785 -0.5428  0.1319
  408SOL     hw 1631   5.442   3.413   2.499  0.4748  0.7426 -0.7635
  408SOL     vw 1632   5.464   3.344   2.450  0.4535  0.2528 -0.0933
  409SOL     ow 1633   2.453   0.435   4.529 -0.3320 -0.3930  0.0616
  409SOL     hw 1634   2.471   0.382   4.606 -1.1340 -1.0766 -0.2082
  409SOL     hw 1635   2.457   0.374   4.456  0.2015  0.2078 -0.4277
  409SOL     vw 1636   2.456   0.420   4.530 -0.3673 -0.4039 -0.0386
  410SOL     ow 1637   4.731   1.366   2.952  0.3599  0.2237 -0.2915
  410SOL     hw 1638   4.813   1.392   2.910 -0.2916  1.7769 -0.6836
  410SOL     hw 1639   4.708   1.440   3.008 -0.6770 -0.2644 -0.0366
  410SOL     vw 1640   4.738   1.379   2.954  0.1371  0.3641 -0.3096
  411SOL     ow 1641   0.224   5.621   5.505 -0.3039  0.1989 -0.0516
  411SOL     hw 1642   0.181   5.543   5.470  0.7232  0.5690 -2.2571
  411SOL     hw 1643   0.157   5.690   5.501 -0.7222 -0.1704  0.4107
  411SOL     vw 1644   0.210   5.620   5.500 -0.2236  0.1993 -0.2813
  412SOL     ow 1645   1.184   5.748   2.396  0.2793 -0.9276 -0.3582
  412SOL     hw 1646   1.213   5.700   2.473 -0.0348  0.5924  0.7459
  412SOL     hw 1647   1.175   5.839   2.426 -3.1336 -0.8438 -1.2402
  412SOL     vw 1648   1.186   5.754   2.410 -0.2124 -0.7160 -0.3289
  413SOL     ow 1649   3.738   6.295   4.762  0.3568  0.1271  0.1757
  413SOL     hw 1650   3.774   6.352   4.694 -0.4003  1.3077  0.7345
  413SOL     hw 1651   3.775   6.208   4.742  0.3486  0.4866 -1.5758
  413SOL     vw 1652   3.748   6.291   4.750  0.2558  0.3304  0.0184
  414SOL     ow 1653   6.779   4.978   4.093 -0.1376 -0.4223  0.2672
  414SOL     hw 1654   6.745   4.902   4.140  0.4644 -0.4497  0.6614
  414SOL     hw 1655   6.842   5.017   4.153 -1.2192  1.0227  0.5254
  414SOL     vw 1656   6.783   4.973   4.107 -0.2010 -0.2353  0.3533
  415SOL     ow 1657   3.991   6.482   4.066 -0.3021  0.0482 -0.2162
  415SOL     hw 1658   4.072   6.473   4.117 -0.0823 -1.5465 -0.7970
  415SOL     hw 1659   4.009   6.438   3.983 -2.3056 -2.0630  0.3259
  415SOL     vw 1660   4.004   6.475   4.062 -0.5376 -0.4408 -0.2213
  416SOL     ow 1661   6.591   0.350   0.261  0.2003  0.1367  0.2969
  416SOL     hw 1662   6.642   0.350   0.180  0.0304  0.6361  0.1889
  416SOL     hw 1663   6.610   0.435   0.302  0.4125 -0.1751  0.8615
  416SOL     vw 1664   6.600   0.361   0.256  0.2062  0.1614  0.3571
  417SOL     ow 1665   0.867   4.150   2.224  0.2780  0.1751 -0.3676
  417SOL     hw 1666   0.890   4.086   2.291  2.2161  0.1986 -0.9460
  417SOL     hw 1667   0.816   4.217   2.270  1.5468  0.1752  1.0967
  417SOL     vw 1668   0.863   4.151   2.239  0.7012  0.1783 -0.2506
  418SOL     ow 1669   2.983   2.540   4.524  0.0323  0.1416  0.3366
  418SOL     hw 1670   2.927   2.467   4.550 -0.4870 -0.2052 -1.6021
  418SOL     hw 1671   2.974   2.603   4.595 -1.4497 -0.6381  0.8959
  418SOL     vw 1672   2.974   2.538   4.537 -0.2319 -0.0069  0.1545
  419SOL     ow 1673   4.742   0.238   6.884 -0.7433  0.6452 -0.4309
  419SOL     hw 1674   4.722   0.156   6.840 -0.6566  0.3332  0.0996
  419SOL     hw 1675   4.779   0.294   6.816 -0.4848  0.1279 -0.7193
  419SOL     vw 1676   4.744   0.235   6.869 -0.6976  0.5358 -0.3994
  420SOL     ow 1677   2.761   0.272   1.056 -0.4002  0.0710  0.4397
  420SOL     hw 1678   2.693   0.230   1.109  0.5773 -2.1716  0.0510
  420SOL     hw 1679   2.723   0.278   0.968  0.2441 -2.3456 -0.0787
  420SOL     vw 1680   2.747   0.267   1.051 -0.1861 -0.5437  0.3200
  421SOL     ow 1681   4.474   3.011   3.171 -0.2768  0.5427 -0.3623
  421SOL     hw 1682   4.454   2.922   3.201  2.5470  0.3540  1.3500
  421SOL     hw 1683   4.447   3.067   3.244  0.3989  0.7977 -0.3039
  421SOL     vw 1684   4.468   3.006   3.184  0.1848  0.5516 -0.1286
  422SOL     ow 1685   3.876   6.031   6.762 -0.3044 -0.4386  0.0901
  422SOL     hw 1686   3.784   6.031   6.735 -0.7676 -2.2065  1.4549
  422SOL     hw 1687   3.893   6.122   6.788 -1.3556  0.1328 -1.0934
  422SOL     vw 1688   3.866   6.043   6.762 -0.5043 -0.5963  0.1140
  423SOL     ow 1689   4.221   0.322   0.440  0.0753  0.3307 -0.1062
  423SOL     hw 1690   4.176   0.355   0.517  1.1240 -1.8634  1.5507
  423SOL     hw 1691   4.152   0.310   0.375 -1.3484 -0.5309  1.4857
  423SOL     vw 1692   4.206   0.325   0.441  0.0260 -0.0724  0.3224
  424SOL     ow 1693   5.483   0.101   1.590  1.0760  0.2673  0.1783
  424SOL     hw 1694   5.431   0.029   1.625 -2.2332  1.5921 -1.5405
  424SOL     hw 1695   5.493   0.162   1.663  1.7951 -0.7885  0.9925
  424SOL     vw 1696   5.478   0.099   1.604  0.7343  0.3028  0.0589
  425SOL     ow 1697   1.563   1.742   0.411 -0.9703  0.2646  0.4019
  425SOL     hw 1698   1.500   1.673   0.427 -0.0208 -0.9058 -0.6774
  425SOL     hw 1699   1.648   1.698   0.411 -0.4536  1.1101 -1.8233
  425SOL     vw 1700   1.566   1.727   0.413 -0.7769  0.2217 -0.0341
  426SOL     ow 1701   1.174   5.723   4.283  0.0484  0.0478  0.0804
  426SOL     hw 1702   1.129   5.705   4.200  0.7103  1.2323 -0.5583
  426SOL     hw 1703   1.204   5.814   4.275  0.8362 -0.0843  1.2971
  426SOL     vw 1704   1.172   5.733   4.271  0.2397  0.1867  0.1569
  427SOL     ow 1705   2.971   3.878   0.337  0.1313  0.0056 -0.1096
  427SOL     hw 1706   3.030   3.933   0.389 -1.6568  1.4256  0.4961
  427SOL     hw 1707   2.971   3.919   0.250  0.7019 -0.5217 -0.3647
  427SOL     vw 1708   2.979   3.890   0.332 -0.0293  0.1235 -0.0634
  428SOL     ow 1709   6.337   6.366   4.923  0.2517  0.2260 -0.0654
  428SOL     hw 1710   6.343   6.289   4.866 -0.1947  0.3597 -0.2906
  428SOL     hw 1711   6.371   6.336   5.007 -0.3255 -0.3403 -0.0297
  428SOL     vw 1712   6.343   6.352   4.926  0.1166  0.1690 -0.0906
  429SOL     ow 1713   4.874   5.303   6.412 -0.6869 -0.1113  0.6412
  429SOL     hw 1714   4.919   5.218   6.409 -0.7061 -0.0935 -0.7421
  429SOL     hw 1715   4.865   5.322   6.506  0.1705 -1.1780  0.9610
  429SOL     vw 1716   4.879   5.294   6.424 -0.5765 -0.2494  0.5009
  430SOL     ow 1717   6.938   1.852   1.788  0.1133 -0.0729  0.3767
  430SOL     hw 1718   6.948   1.895   1.703 -0.1068 -0.2224  0.2726
  430SOL     hw 1719   7.011   1.790   1.793  1.2703  1.3093  1.1460
  430SOL     vw 1720   6.949   1.849   1.777  0.2367  0.0898  0.4644
  431SOL     ow 1721   1.179   3.663   3.653  0.2923  0.0845  0.2416
  431SOL     hw 1722   1.166   3.736   3.593 -0.9701  0.5657  1.0389
  431SOL     hw 1723   1.252   3.690   3.709  0.4800  0.2969 -0.1054
  431SOL     vw 1724   1.187   3.676   3.653  0.1504  0.1760  0.3010
  432SOL     ow 1725   1.288   4.015   1.454 -0.6732  0.3144  0.3554
  432SOL     hw 1726   1.258   3.980   1.538 -1.6610 -0.4192 -0.2814
  432SOL     hw 1727   1.332   3.941   1.411 -3.0403 -0.3405 -1.1339
  432SOL     vw 1728   1.290   4.001   1.459 -1.1159  0.1311  0.0749
  433SOL     ow 1729   2.017   4.316   4.895  0.1937 -0.4095 -0.3275
  433SOL     hw 1730   1.971   4.237   4.866  0.8298 -0.1717 -2.1291
  433SOL     hw 1731   2.105   4.285   4.918  0.3909 -0.2678 -0.8713
  433SOL     vw 1732   2.023   4.301   4.894  0.3037 -0.3593 -0.6368
  434SOL     ow 1733   0.770   5.068   0.251  0.4487  0.4271 -0.2018
  434SOL     hw 1734   0.864   5.056   0.262  0.2835  0.4198  1.5005
  434SOL     hw 1735   0.736   4.980   0.236  0.5603  0.2323  0.6456
  434SOL     vw 1736   0.778   5.055   0.251  0.4416  0.4005  0.1346
  435SOL     ow 1737   0.627   5.245   5.560  0.5651  0.4675 -0.8857
  435SOL     hw 1738   0.698   5.235   5.497  2.3948  0.6768  1.0272
  435SOL     hw 1739   0.583   5.160   5.561  1.1380  0.1536 -1.7102
  435SOL     vw 1740   0.631   5.232   5.552  0.8821  0.4535 -0.7417
  436SOL     ow 1741   4.887   0.522   2.286  0.5384  0.2732  0.4070
  436SOL     hw 1742   4.872   0.435   2.321  0.4436 -0.8454 -2.1578
  436SOL     hw 1743   4.815   0.575   2.320 -0.2690 -1.0368  0.8128
  436SOL     vw 1744   4.876   0.518   2.295  0.4194 -0.0472  0.1222
  437SOL     ow 1745   2.141   1.223   5.756 -0.0141 -0.0322 -0.6907
  437SOL     hw 1746   2.208   1.286   5.784  0.6026 -0.5595 -0.9681
  437SOL     hw 1747   2.149   1.150   5.817 -0.5439  0.0245 -0.5432
  437SOL     vw 1748   2.151   1.222   5.768 -0.0025 -0.0944 -0.7079
  438SOL     ow 1749   4.201   5.578   4.801 -0.4895  0.0524  0.2148
  438SOL     hw 1750   4.267   5.533   4.749 -1.6963 -1.2109 -0.2746
  438SOL     hw 1751   4.230   5.669   4.803  1.9434 -0.6921  1.1427
  438SOL     vw 1752   4.213   5.584   4.794 -0.3273 -0.2124  0.2725
  439SOL     ow 1753   2.195   6.961   6.669  0.1548  0.0701 -0.0881
  439SOL     hw 1754   2.129   6.939   6.735  0.6644  0.4695  0.5735
  439SOL     hw 1755   2.183   6.896   6.600 -0.7533 -0.0221  0.1419
  439SOL     vw 1756   2.184   6.949   6.669  0.1022  0.1106  0.0296
  440SOL     ow 1757   3.112   5.210   5.141  0.1369  0.2358  0.1893
  440SOL     hw 1758   3.052   5.284   5.132  0.2051  0.1799 -0.8550
  440SOL     hw 1759   3.198   5.246   5.120  0.6474  0.5133  2.4837
  440SOL     vw 1760   3.116   5.224   5.137  0.2134  0.2649  0.3543
  441SOL     ow 1761   6.907   0.952   1.766 -0.5622  0.2625 -0.0594
  441SOL     hw 1762   6.961   0.875   1.779  0.9356  0.7602 -2.7851
  441SOL     hw 1763   6.927   1.008   1.842  1.3673 -0.3431 -0.0755
  441SOL     vw 1764   6.916   0.949   1.778 -0.1099  0.2483 -0.4212
  442SOL     ow 1765   2.408   2.148   3.126  0.4916  0.0053 -0.3054
  442SOL     hw 1766   2.334   2.115   3.176  0.2770  2.6252  1.3080
  442SOL     hw 1767   2.376   2.150   3.035 -0.9713 -0.0499  0.1887
  442SOL     vw 1768   2.394   2.144   3.120  0.2701  0.3438 -0.0273
  443SOL     ow 1769   1.816   4.234   5.112 -0.3602  0.4339  0.6596
  443SOL     hw 1770   1.725   4.259   5.128  0.0877  1.1004  2.4073
  443SOL     hw 1771   1.814   4.139   5.103 -1.2603  0.4697  0.4319
  443SOL     vw 1772   1.804   4.225   5.113 -0.4199  0.5264  0.8602
  444SOL     ow 1773   4.367   5.675   0.432  0.5223 -0.0573 -0.1892
  444SOL     hw 1774   4.414   5.745   0.387 -0.1077  0.6075  0.1633
  444SOL     hw 1775   4.435   5.624   0.477  1.0732 -0.2171 -1.1750
  444SOL     vw 1776   4.382   5.677   0.432  0.5119  0.0093 -0.2728
  445SOL     ow 1777   2.219   6.395   5.041 -0.4651 -0.1741  0.1254
  445SOL     hw 1778   2.131   6.425   5.020  0.5702  1.6945 -1.9241
  445SOL     hw 1779   2.237   6.326   4.976 -0.5927 -0.9755  0.9175
  445SOL     vw 1780   2.210   6.390   5.030 -0.3453 -0.0336 -0.0405
  446SOL     ow 1781   3.553   6.853   2.626  0.2542  0.8266  0.0895
  446SOL     hw 1782   3.640   6.838   2.590  0.6597  3.0649  0.0127
  446SOL     hw 1783   3.498   6.873   2.550  0.0511  1.0308  0.2883
  446SOL     vw 1784   3.557   6.854   2.611  0.2810  1.1487  0.1055
  447SOL     ow 1785   2.285   6.271   5.970  0.5440  0.5982  0.5533
  447SOL     hw 1786   2.213   6.332   5.953  0.1163  0.4210  1.6232
  447SOL     hw 1787   2.363   6.327   5.975  0.5393  0.7641 -0.8391
  447SOL     vw 1788   2.286   6.286   5.969  0.4870  0.5968  0.5109
  448SOL     ow 1789   2.492   1.928   5.204  0.6221 -0.0537  0.4765
  448SOL     hw 1790   2.414   1.880   5.231  0.4588  0.5088  1.0131
  448SOL     hw 1791   2.517   1.979   5.281  0.8861  0.5929 -0.0260
  448SOL     vw 1792   2.485   1.929   5.217  0.6354  0.1059  0.4811
  449SOL     ow 1793   4.803   1.550   5.347 -0.5391  0.3301 -0.0659
  449SOL     hw 1794   4.738   1.580   5.284 -1.5715  0.9914  1.2786
  449SOL     hw 1795   4.763   1.473   5.388  0.0580 -0.0013 -0.0939
  449SOL     vw 1796   4.789   1.544   5.344 -0.5970  0.3737  0.1078
  450SOL     ow 1797   6.709   5.209   3.872  0.2176  0.4528 -0.7047
  450SOL     hw 1798   6.641   5.213   3.805 -1.1600  2.1254  0.6591
  450SOL     hw 1799   6.688   5.283   3.930  0.3200 -1.8104  2.4771
  450SOL     vw 1800   6.697   5.220   3.871  0.0496  0.3750 -0.1049
  451SOL     ow 1801   3.954   4.030   0.710  0.2133  0.0817  0.8246
  451SOL     hw 1802   3.994   3.944   0.721  1.1126  0.3172 -0.3281
  451SOL     hw 1803   4.029   4.090   0.703 -0.2817  0.5593 -1.2604
  451SOL     vw 1804   3.969   4.027   0.710  0.2667  0.1755  0.3974
  452SOL     ow 1805   2.778   6.103   3.076 -0.4492  0.4195  0.1687
  452SOL     hw 1806   2.793   6.197   3.065  0.9020  0.0590 -1.7061
  452SOL     hw 1807   2.867   6.066   3.080 -0.9628 -0.8681 -0.0353
  452SOL     vw 1808   2.792   6.111   3.075 -0.3388  0.2019 -0.1056
  453SOL     ow 1809   2.679   5.506   4.153  0.6049 -0.2653  0.2889
  453SOL     hw 1810   2.585   5.519   4.168  0.3194 -1.6365 -0.1222
  453SOL     hw 1811   2.720   5.586   4.185 -0.7045  0.3551  0.4903
  453SOL     vw 1812   2.672   5.518   4.159  0.3945 -0.3643  0.2613
  454SOL     ow 1813   4.934   2.910   1.584 -0.3432  0.5113 -0.2885
  454SOL     hw 1814   4.961   2.858   1.508  1.2043  1.6924 -0.6074
  454SOL     hw 1815   4.932   3.000   1.551 -4.2609  0.6442 -0.1189
  454SOL     vw 1816   4.937   2.915   1.570 -0.6561  0.6846 -0.3082
  455SOL     ow 1817   5.028   1.450   2.011  0.0719  0.5090 -0.3872
  455SOL     hw 1818   5.105   1.412   1.971  0.9347  2.3833 -0.6132
  455SOL     hw 1819   5.061   1.525   2.061 -1.3634  0.1548  1.1882
  455SOL     vw 1820   5.042   1.455   2.012 -0.0038  0.7095 -0.2092
  456SOL     ow 1821   0.599   0.155   0.295  0.5145 -0.0990 -0.2694
  456SOL     hw 1822   0.526   0.159   0.233  0.5885  1.6706 -0.2798
  456SOL     hw 1823   0.566   0.198   0.374  1.4670  0.5732 -0.2154
  456SOL     vw 1824   0.585   0.161   0.297  0.6499  0.2232 -0.2637
  457SOL     ow 1825   5.949   1.757   5.685  0.4928 -0.2600 -0.1572
  457SOL     hw 1826   5.974   1.782   5.596 -0.2226  0.8277 -0.0733
  457SOL     hw 1827   5.861   1.720   5.676  0.2722  0.1824  0.1394
  457SOL     vw 1828   5.941   1.755   5.672  0.3693 -0.0581 -0.1068
  458SOL     ow 1829   1.531   6.119   3.534 -0.8308  0.1452 -0.1299
  458SOL     hw 1830   1.531   6.027   3.559  1.3866  0.1722  0.1325
  458SOL     hw 1831   1.475   6.162   3.599 -1.2126 -0.8839  0.2335
  458SOL     vw 1832   1.523   6.113   3.546 -0.5886  0.0131 -0.0474
  459SOL     ow 1833   1.010   6.659   5.041  0.5673  0.0974  0.4778
  459SOL     hw 1834   1.057   6.577   5.025 -1.1838 -0.6008 -1.5043
  459SOL     hw 1835   0.952   6.670   4.965  0.4058  2.9635  0.8873
  459SOL     vw 1836   1.008   6.650   5.029  0.3150  0.3836  0.2704
  460SOL     ow 1837   2.447   6.580   4.918  0.4096  0.4336  0.3145
  460SOL     hw 1838   2.451   6.673   4.895  0.0937 -0.0895 -2.1579
  460SOL     hw 1839   2.486   6.536   4.843  1.0242 -1.4461  1.6639
  460SOL     vw 1840   2.453   6.587   4.905  0.4491  0.1166  0.1662
  461SOL     ow 1841   1.730   6.609   5.602  0.0813 -0.5703  0.6316
  461SOL     hw 1842   1.648   6.600   5.555  0.3387 -1.1594  0.2769
  461SOL     hw 1843   1.720   6.552   5.679 -0.3557  0.4250  1.3288
  461SOL     vw 1844   1.718   6.600   5.606  0.0576 -0.5164  0.6769
  462SOL     ow 1845   0.879   6.376   6.993 -0.6755  0.1878 -0.2775
  462SOL     hw 1846   0.965   6.400   7.029 -0.4994 -0.0650 -0.5279
  462SOL     hw 1847   0.848   6.308   7.052 -0.7796  0.3924 -0.0918
  462SOL     vw 1848   0.886   6.370   7.006 -0.6660  0.1814 -0.2861
  463SOL     ow 1849   0.303   2.469   4.390  0.1790 -0.7185 -0.5174
  463SOL     hw 1850   0.397   2.453   4.386  0.2841 -0.0163 -1.0427
  463SOL     hw 1851   0.292   2.528   4.464 -0.1172 -2.4904  0.9188
  463SOL     vw 1852   0.314   2.474   4.399  0.1538 -0.8597 -0.3972
  464SOL     ow 1853   1.823   1.626   0.415  0.2838 -0.1061  0.2972
  464SOL     hw 1854   1.856   1.698   0.470 -0.1711  0.8055 -0.5888
  464SOL     hw 1855   1.838   1.547   0.467  2.0980  0.4680  0.7196
  464SOL     vw 1856   1.830   1.625   0.429  0.4631  0.0899  0.2361
  465SOL     ow 1857   4.178   5.376   4.520 -0.4179 -0.4545 -0.2565
  465SOL     hw 1858   4.217   5.451   4.474 -1.3010 -0.0188 -0.3188
  465SOL     hw 1859   4.252   5.333   4.563  0.1422  0.2948 -0.4489
  465SOL     vw 1860   4.193   5.381   4.520 -0.4604 -0.2983 -0.2902
  466SOL     ow 1861   3.848   6.412   2.661 -0.1880  0.3246 -0.2091
  466SOL     hw 1862   3.862   6.380   2.572  1.3780 -0.9070  0.4383
  466SOL     hw 1863   3.901   6.492   2.666  0.2368  0.0415 -0.1874
  466SOL     vw 1864   3.857   6.419   2.650  0.0746  0.1247 -0.1208
  467SOL     ow 1865   2.699   2.610   1.380  0.3252 -0.0972 -0.2270
  467SOL     hw 1866   2.748   2.575   1.454 -1.8962  1.4569  2.0978
  467SOL     hw 1867   2.672   2.532   1.330  3.2979 -1.0872 -0.5026
  467SOL     vw 1868   2.702   2.595   1.383  0.4244 -0.0229  0.0433
  468SOL     ow 1869   2.615   5.620   5.396  0.5528  0.0136 -0.1773
  468SOL     hw 1870   2.560   5.696   5.377  1.3605  0.3656 -1.2043
  468SOL     hw 1871   2.654   5.639   5.480  0.1721  0.3865 -0.0824
  468SOL     vw 1872   2.613   5.632   5.404  0.6092  0.1092 -0.3002
  469SOL     ow 1873   1.522   6.863   2.454  0.2204  0.3301 -0.2105
  469SOL     hw 1874   1.585   6.883   2.524 -0.8117 -0.7383  1.0799
  469SOL     hw 1875   1.481   6.947   2.434  1.8825  1.0169 -0.9515
  469SOL     vw 1876   1.525   6.877   2.461  0.3036  0.2799 -0.1379
  470SOL     ow 1877   2.908   4.239   5.688 -0.1303  0.7066  0.1278
  470SOL     hw 1878   2.962   4.250   5.767  0.1402  1.1629 -0.1160
  470SOL     hw 1879   2.969   4.251   5.616 -0.3279  0.0422 -0.1592
  470SOL     vw 1880   2.923   4.242   5.689 -0.1206  0.6793  0.0577
  471SOL     ow 1881   0.307   2.658   1.903  0.1124 -0.2096  0.4006
  471SOL     hw 1882   0.379   2.721   1.899 -0.9857  1.1179  0.6078
  471SOL     hw 1883   0.243   2.698   1.962  0.2381 -2.4942  2.1981
  471SOL     vw 1884   0.308   2.672   1.910 -0.0159 -0.3359  0.6651
  472SOL     ow 1885   5.550   5.593   4.655 -0.3971 -0.2271 -1.5641
  472SOL     hw 1886   5.497   5.541   4.594 -1.0685 -1.7037  0.1835
  472SOL     hw 1887   5.579   5.668   4.604 -2.1311 -0.6568 -3.2888
  472SOL     vw 1888   5.546   5.596   4.640 -0.7143 -0.4787 -1.5609
  473SOL     ow 1889   1.526   4.553   6.452  0.0548  0.1163 -0.4624
  473SOL     hw 1890   1.478   4.636   6.465 -2.4744 -1.2636 -0.2867
  473SOL     hw 1891   1.573   4.540   6.533 -0.3499  0.8876 -0.0823
  473SOL     vw 1892   1.526   4.562   6.464 -0.3322  0.0358 -0.3893
  474SOL     ow 1893   4.439   0.468   6.280  0.1877 -0.1649  0.1744
  474SOL     hw 1894   4.460   0.554   6.243  2.6126  0.7415  3.1921
  474SOL     hw 1895   4.352   0.448   6.246  0.7039  2.0668 -2.9781
  474SOL     vw 1896   4.430   0.477   6.270  0.5758  0.2491  0.1566
  475SOL     ow 1897   0.152   1.163   1.653 -0.0828 -0.1627 -0.4734
  475SOL     hw 1898   0.089   1.215   1.602  0.1410 -1.0867 -1.7389
  475SOL     hw 1899   0.168   1.216   1.732 -1.1851  0.8545 -0.8918
  475SOL     vw 1900   0.146   1.177   1.657 -0.1987 -0.1504 -0.6956
  476SOL     ow 1901   2.477   3.702   2.962 -0.0299 -0.0780 -0.2603
  476SOL     hw 1902   2.422   3.641   2.912 -1.7832 -0.3545  1.8267
  476SOL     hw 1903   2.515   3.647   3.031  0.1084  0.7761  0.3518
  476SOL     vw 1904   2.475   3.686   2.965 -0.2432 -0.0017  0.0958
  477SOL     ow 1905   5.684   6.457   4.142  0.3668  0.3663  0.4233
  477SOL     hw 1906   5.659   6.384   4.085 -1.2254  0.4685  0.9206
  477SOL     hw 1907   5.675   6.423   4.231 -0.4034  1.1384  0.6622
  477SOL     vw 1908   5.679   6.443   4.146  0.0551  0.4814  0.5202
  478SOL     ow 1909   1.069   6.901   5.193 -0.4907 -0.0308  0.0704
  478SOL     hw 1910   1.029   6.828   5.147  1.2510 -0.8079 -0.3190
  478SOL     hw 1911   1.113   6.861   5.268 -0.3537  0.7525  0.4190
  478SOL     vw 1912   1.070   6.886   5.196 -0.2429 -0.0303  0.0651
  479SOL     ow 1913   0.154   4.236   5.765 -0.5051 -0.2631 -0.2501
  479SOL     hw 1914   0.131   4.325   5.740  0.8386  0.7953  1.9973
  479SOL     hw 1915   0.234   4.217   5.717  0.5356  0.7033  1.0267
  479SOL     vw 1916   0.161   4.245   5.755 -0.1905  0.0038  0.2146
  480SOL     ow 1917   5.147   0.430   2.224 -0.1867  0.2627  0.5780
  480SOL     hw 1918   5.127   0.388   2.141 -0.9803  0.5231  0.6276
  480SOL     hw 1919   5.164   0.358   2.284  0.0763  0.0668  0.2689
  480SOL     vw 1920   5.147   0.415   2.221 -0.2568  0.2712  0.5437
  481SOL     ow 1921   1.188   4.868   5.300  0.1236 -0.7104  0.3125
  481SOL     hw 1922   1.253   4.917   5.351  0.2268 -0.3540 -0.1547
  481SOL     hw 1923   1.120   4.845   5.363 -1.4321  2.5708  0.0187
  481SOL     vw 1924   1.188   4.871   5.315 -0.0680 -0.2303  0.2122
  482SOL     ow 1925   6.196   4.562   1.177 -0.6013 -0.2044 -0.2141
  482SOL     hw 1926   6.112   4.607   1.184 -0.4389  0.2813 -1.2678
  482SOL     hw 1927   6.251   4.621   1.125  0.9702  0.3212  1.8833
  482SOL     vw 1928   6.192   4.576   1.171 -0.3726 -0.0713 -0.0765
  483SOL     ow 1929   0.984   4.121   3.339 -0.3941  0.0985 -0.6476
  483SOL     hw 1930   0.997   4.170   3.420 -1.2635  2.5861 -1.8938
  483SOL     hw 1931   0.907   4.163   3.299  0.2937 -0.7364 -2.9555
  483SOL     vw 1932   0.975   4.133   3.345 -0.4181  0.3164 -1.1165
  484SOL     ow 1933   3.032   0.109   5.323  0.5508 -0.0698 -0.1676
  484SOL     hw 1934   3.073   0.056   5.254  2.7829  1.0133  0.2395
  484SOL     hw 1935   3.056   0.199   5.300 -1.4927  0.6084  0.2359
  484SOL     vw 1936   3.041   0.114   5.311  0.5757  0.1626 -0.0608
  485SOL     ow 1937   1.555   1.179   1.186 -0.3914  0.5950  0.3143
  485SOL     hw 1938   1.548   1.236   1.262  1.1056 -0.1577  1.0747
  485SOL     hw 1939   1.496   1.106   1.205 -1.1327  1.1159  0.0538
  485SOL     vw 1940   1.546   1.177   1.199 -0.2916  0.5644  0.3803
  486SOL     ow 1941   4.738   6.361   6.988 -0.1205  1.1107  0.4000
  486SOL     hw 1942   4.661   6.304   6.988  1.3257 -0.9736 -0.1379
  486SOL     hw 1943   4.711   6.438   7.038 -1.6485 -0.8052  2.7528
  486SOL     vw 1944   4.724   6.364   6.994 -0.1311  0.5827  0.6394
  487SOL     ow 1945   3.171   4.257   0.107  0.0507  0.7544  0.0248
  487SOL     hw 1946   3.105   4.239   0.174 -1.1281  0.6904 -1.1072
  487SOL     hw 1947   3.191   4.172   0.069 -2.7895  1.1479 -2.8151
  487SOL     vw 1948   3.165   4.244   0.111 -0.4796  0.7977 -0.4992
  488SOL     ow 1949   3.803   4.311   0.823  0.0645  0.0946  0.0395
  488SOL     hw 1950   3.727   4.356   0.860  0.0658  0.4388 -0.3617
  488SOL     hw 1951   3.874   4.374   0.830  0.1063  0.0987 -0.3780
  488SOL     vw 1952   3.802   4.325   0.829  0.0702  0.1407 -0.0685
  489SOL     ow 1953   1.256   0.568   5.352  0.2071 -0.1154 -0.2106
  489SOL     hw 1954   1.221   0.583   5.264  0.7646 -0.5246 -0.5094
  489SOL     hw 1955   1.218   0.484   5.379 -0.2100  0.1620  0.0664
  489SOL     vw 1956   1.247   0.559   5.344  0.2256 -0.1327 -0.2136
  490SOL     ow 1957   6.443   0.608   6.383 -0.0049 -0.5302 -0.4091
  490SOL     hw 1958   6.412   0.675   6.322 -1.2103  0.2861  1.0310
  490SOL     hw 1959   6.518   0.569   6.339  0.0145  0.9606 -1.8147
  490SOL     vw 1960   6.449   0.612   6.369 -0.1614 -0.2258 -0.4046
  491SOL     ow 1961   5.279   5.886   3.615 -0.4481 -0.3748  0.3157
  491SOL     hw 1962   5.185   5.876   3.604 -0.5850  1.6144 -1.0440
  491SOL     hw 1963   5.292   5.898   3.709 -1.6362 -0.0869  0.4550
  491SOL     vw 1964   5.269   5.886   3.626 -0.6230 -0.0744  0.1546
  492SOL     ow 1965   5.517   0.468   4.989  0.1668 -0.6038 -0.4920
  492SOL     hw 1966   5.521   0.395   4.927  2.2157 -2.7014  1.9038
  492SOL     hw 1967   5.473   0.432   5.066 -0.8105  1.4211 -0.0409
  492SOL     vw 1968   5.512   0.454   4.991  0.3083 -0.6134 -0.1166
  493SOL     ow 1969   0.538   2.552   0.542 -0.1772 -0.2914 -0.3029
  493SOL     hw 1970   0.573   2.541   0.454 -2.9219 -0.4653 -1.4741
  493SOL     hw 1971   0.558   2.643   0.565 -0.2375  0.0321 -1.5054
  493SOL     vw 1972   0.545   2.563   0.534 -0.5473 -0.2716 -0.6161
  494SOL     ow 1973   2.458   1.230   1.552  0.0435  0.2841  0.0102
  494SOL     hw 1974   2.489   1.169   1.485 -0.4327 -0.5079  0.4810
  494SOL     hw 1975   2.362   1.228   1.543 -0.0592 -0.2125  1.0085
  494SOL     vw 1976   2.449   1.222   1.542 -0.0328  0.1141  0.2040
  495SOL     ow 1977   5.237   5.165   4.121 -0.2195  0.0546  0.3035
  495SOL     hw 1978   5.239   5.246   4.173 -2.8240  0.4389 -0.0373
  495SOL     hw 1979   5.149   5.130   4.135  0.6286 -2.4201 -0.0734
  495SOL     vw 1980   5.226   5.171   4.130 -0.4511 -0.2217  0.2089
  496SOL     ow 1981   4.352   2.392   3.895  0.4171  0.3694 -0.3351
  496SOL     hw 1982   4.274   2.425   3.940 -0.1113  0.4342 -1.2635
  496SOL     hw 1983   4.415   2.463   3.902 -0.1922  0.9893 -1.0099
  496SOL     vw 1984   4.350   2.406   3.902  0.2670  0.4597 -0.5467
  497SOL     ow 1985   2.238   4.658   1.519 -0.4057 -0.6166  0.3290
  497SOL     hw 1986   2.319   4.625   1.558 -0.0051 -0.9739 -0.7635
  497SOL     hw 1987   2.169   4.616   1.569  0.0910 -1.0879  0.6332
  497SOL     vw 1988   2.240   4.648   1.531 -0.2874 -0.7257  0.2249
  498SOL     ow 1989   0.196   2.486   3.901 -0.2233 -0.2091 -0.3644
  498SOL     hw 1990   0.219   2.509   3.991 -1.3774  1.2880 -0.4333
  498SOL     hw 1991   0.103   2.462   3.904 -0.0149 -1.2036 -0.9929
  498SOL     vw 1992   0.187   2.486   3.913 -0.3481 -0.1427 -0.4566
  499SOL     ow 1993   6.964   3.849   0.803  0.0603 -0.0634  0.0724
  499SOL     hw 1994   6.934   3.759   0.798  0.8311 -0.2609 -2.6587
  499SOL     hw 1995   6.884   3.901   0.816 -0.4635 -1.0441  0.9197
  499SOL     vw 1996   6.949   3.844   0.804  0.0927 -0.2186 -0.1762
  500SOL     ow 1997   4.988   5.651   6.194 -0.6897  0.0879 -0.4033
  500SOL     hw 1998   4.970   5.633   6.286  0.8055 -1.2979 -0.3540
  500SOL     hw 1999   4.971   5.745   6.185  1.1994  0.7408  1.8135
  500SOL     vw 2000   4.983   5.661   6.205 -0.2434 -0.0088 -0.1044
  501SOL     ow 2001   5.058   1.409   5.195  0.4101  0.4658 -0.0272
  501SOL     hw 2002   5.003   1.338   5.162 -1.5971  1.6325  0.6429
  501SOL     hw 2003   5.137   1.365   5.227  0.2566 -1.1872 -1.7269
  501SOL     vw 2004   5.062   1.394   5.195  0.1252  0.4016 -0.1628
  502SOL     ow 2005   5.278   4.418   1.045 -0.3755  0.1221 -0.1837
  502SOL     hw 2006   5.331   4.376   0.977  0.2952  1.6556 -0.6479
  502SOL     hw 2007   5.341   4.464   1.100 -0.9621 -0.6473  1.1859
  502SOL     vw 2008   5.293   4.419   1.043 -0.3643  0.2227 -0.0643
  503SOL     ow 2009   4.281   1.883   5.650 -0.0088  0.4858 -0.4166
  503SOL     hw 2010   4.352   1.820   5.646 -0.9407 -0.7995  1.5837
  503SOL     hw 2011   4.324   1.967   5.665  1.0946 -0.2878  0.9233
  503SOL     vw 2012   4.296   1.886   5.651  0.0138  0.2142  0.0241
  504SOL     ow 2013   0.816   0.899   6.892 -0.2480 -0.1412  0.1752
  504SOL     hw 2014   0.901   0.911   6.933 -0.8434 -2.0089  2.1408
  504SOL     hw 2015   0.819   0.810   6.856 -1.2169 -0.0749 -0.0967
  504SOL     vw 2016   0.827   0.889   6.893 -0.4544 -0.3789  0.3986
  505SOL     ow 2017   0.868   7.019   1.690 -0.2630 -0.6108 -0.5691
  505SOL     hw 2018   0.905   6.956   1.752 -2.1498 -1.7511 -0.5004
  505SOL     hw 2019   0.935   7.028   1.622  1.4456 -0.0604  1.1067
  505SOL     vw 2020   0.882   7.011   1.689 -0.2865 -0.6888 -0.3389
  506SOL     ow 2021   0.559   5.205   3.440  0.0320 -0.3508 -0.6245
  506SOL     hw 2022   0.504   5.148   3.493  0.8432 -2.0916 -1.5720
  506SOL     hw 2023   0.523   5.198   3.351  2.0752 -2.0456 -1.4057
  506SOL     vw 2024   0.547   5.197   3.435  0.4086 -0.8042 -0.8526
  507SOL     ow 2025   6.239   6.049   4.251 -0.5146  0.0518 -0.7897
  507SOL     hw 2026   6.201   5.965   4.276 -0.0539 -0.0843 -0.5212
  507SOL     hw 2027   6.266   6.089   4.333  0.0947  0.0560 -0.9856
  507SOL     vw 2028   6.238   6.043   4.265 -0.3731  0.0343 -0.7801
  508SOL     ow 2029   6.503   1.916   2.113  0.2366 -0.1601 -0.2616
  508SOL     hw 2030   6.486   2.004   2.147  0.4651 -0.0207 -0.5115
  508SOL     hw 2031   6.482   1.858   2.187  1.8293  0.2053  0.5184
  508SOL     vw 2032   6.498   1.920   2.127  0.4768 -0.0935 -0.1916
  509SOL     ow 2033   4.250   2.960   2.967  0.1389  0.1187  0.1155
  509SOL     hw 2034   4.201   2.900   2.912 -1.2474  1.2813  0.0135
  509SOL     hw 2035   4.199   2.966   3.048  1.4663 -0.5707  1.0317
  509SOL     vw 2036   4.237   2.953   2.971  0.1309  0.1812  0.2229
  510SOL     ow 2037   2.440   1.327   4.990  1.0036  0.3079 -0.6317
  510SOL     hw 2038   2.404   1.315   4.903  1.9947  1.7064 -1.2775
  510SOL     hw 2039   2.405   1.411   5.020  1.8112  0.5474 -0.3096
  510SOL     vw 2040   2.431   1.337   4.982  1.2410  0.5239 -0.6742
  511SOL     ow 2041   2.461   4.669   2.416 -0.4097 -0.1089  0.0427
  511SOL     hw 2042   2.500   4.640   2.498 -1.0503 -0.9240  0.0782
  511SOL     hw 2043   2.522   4.734   2.382  0.6029 -0.8179  0.4499
  511SOL     vw 2044   2.474   4.673   2.422 -0.3606 -0.3099  0.1012
  512SOL     ow 2045   4.446   1.603   4.482 -0.2252 -0.1688 -0.1956
  512SOL     hw 2046   4.530   1.619   4.437  0.4957 -1.1148  0.7655
  512SOL     hw 2047   4.445   1.508   4.497 -0.2147  0.1496  2.1629
  512SOL     vw 2048   4.457   1.593   4.478 -0.1287 -0.2516  0.2425
  513SOL     ow 2049   6.059   0.170   5.605 -0.0998  0.5267 -0.0032
  513SOL     hw 2050   6.137   0.129   5.642  0.3273  0.7198 -0.6665
  513SOL     hw 2051   6.067   0.263   5.629  0.8663  0.9088 -1.6738
  513SOL     vw 2052   6.070   0.177   5.613  0.0842  0.6026 -0.3111
  514SOL     ow 2053   5.768   1.890   0.548  0.3288 -0.0342  0.1623
  514SOL     hw 2054   5.777   1.981   0.574  0.3259 -0.3481  1.2955
  514SOL     hw 2055   5.674   1.879   0.531  0.1602 -0.1005  1.1031
  514SOL     vw 2056   5.757   1.900   0.549  0.3061 -0.0843  0.4360
  515SOL     ow 2057   2.658   5.939   0.720 -0.4024 -0.8252  0.0498
  515SOL     hw 2058   2.691   6.027   0.739 -0.2678 -0.6418 -1.0108
  515SOL     hw 2059   2.736   5.884   0.715 -0.5473 -1.3251  2.1113
  515SOL     vw 2060   2.673   5.943   0.722 -0.4038 -0.8667  0.1819
  516SOL     ow 2061   5.303   5.973   0.025  0.7385 -0.2469 -1.1233
  516SOL     hw 2062   5.323   5.883  -0.002 -1.7649 -0.3532 -2.9429
  516SOL     hw 2063   5.285   6.019  -0.057  1.9331  1.9720 -0.2400
  516SOL     vw 2064   5.303   5.967   0.010  0.5658  0.0317 -1.2468
  517SOL     ow 2065   5.708   6.175   3.181 -0.1448 -0.4119  0.4096
  517SOL     hw 2066   5.730   6.213   3.266 -0.2707  0.9574 -0.1442
  517SOL     hw 2067   5.768   6.102   3.171 -1.0810 -1.5005  2.2963
  517SOL     vw 2068   5.719   6.171   3.191 -0.2849 -0.3748  0.5854
  518SOL     ow 2069   6.752   2.883   6.074 -0.1405  0.0116  0.3249
  518SOL     hw 2070   6.697   2.902   6.150  0.5618  0.6945  0.6713
  518SOL     hw 2071   6.824   2.946   6.080 -1.6703  2.3214 -2.6361
  518SOL     vw 2072   6.754   2.894   6.085 -0.2499  0.4065 -0.0198
  519SOL     ow 2073   2.325   6.685   1.572  0.5090 -0.3006  0.9632
  519SOL     hw 2074   2.370   6.748   1.517  1.9085 -0.6653  1.6322
  519SOL     hw 2075   2.343   6.713   1.661 -0.5402 -0.5158  1.2605
  519SOL     vw 2076   2.333   6.697   1.576  0.5552 -0.3772  1.0906
  520SOL     ow 2077   2.357   6.411   3.937 -0.5344  0.1250  0.0171
  520SOL     hw 2078   2.279   6.358   3.951 -1.5252  1.4579 -0.2708
  520SOL     hw 2079   2.363   6.421   3.842  0.8107 -1.1102 -0.0676
  520SOL     vw 2080   2.348   6.405   3.926 -0.4876  0.1380 -0.0321
  521SOL     ow 2081   3.733   0.557   1.793 -0.3535 -0.1246 -0.5013
  521SOL     hw 2082   3.783   0.514   1.862  0.0914 -0.8490 -1.2566
  521SOL     hw 2083   3.645   0.568   1.831 -0.6277 -2.1347 -0.4220
  521SOL     vw 2084   3.728   0.552   1.807 -0.3310 -0.4854 -0.5906
  522SOL     ow 2085   4.408   0.546   0.455  0.4547  0.5027 -0.2404
  522SOL     hw 2086   4.480   0.484   0.444 -0.4722 -0.5792 -0.4252
  522SOL     hw 2087   4.386   0.541   0.548  1.3663  1.7226  0.0664
  522SOL     vw 2088   4.415   0.537   0.466  0.4525  0.5209 -0.2243
  523SOL     ow 2089   4.077   0.685   1.397 -0.0789 -0.0553 -0.7711
  523SOL     hw 2090   4.122   0.606   1.365 -2.3608 -0.9237 -2.0077
  523SOL     hw 2091   4.138   0.756   1.378  0.5176 -1.0828 -3.0867
  523SOL     vw 2092   4.091   0.684   1.391 -0.3011 -0.3055 -1.2398
  524SOL     ow 2093   6.978   1.064   6.797  0.1825 -0.4278  0.6658
  524SOL     hw 2094   6.940   1.146   6.765 -0.2133 -0.0735  1.9552
  524SOL     hw 2095   6.908   1.000   6.787  0.1097 -0.3517  0.6858
  524SOL     vw 2096   6.964   1.067   6.791  0.1206 -0.3710  0.8388
  525SOL     ow 2097   2.220   4.437   4.402  0.8297 -0.0084 -0.1189
  525SOL     hw 2098   2.261   4.351   4.393 -0.4023 -0.5376 -0.9283
  525SOL     hw 2099   2.224   4.474   4.315  0.6233  0.4108  0.0490
  525SOL     vw 2100   2.226   4.430   4.390  0.6399 -0.0229 -0.2034
  526SOL     ow 2101   6.205   5.571   3.042 -0.4345 -0.1198 -0.2529
  526SOL     hw 2102   6.172   5.601   2.958 -1.4779 -0.9180 -0.1451
  526SOL     hw 2103   6.176   5.638   3.104 -0.9853 -0.3029 -0.3097
  526SOL     vw 2104   6.197   5.584   3.039 -0.6444 -0.2489 -0.2463
  527SOL     ow 2105   1.948   5.119   0.281 -0.1942 -0.2916  0.1089
  527SOL     hw 2106   2.032   5.092   0.318 -0.2137 -0.3741  0.0938
  527SOL     hw 2107   1.947   5.082   0.192  0.0738  0.3406 -0.1645
  527SOL     vw 2108   1.959   5.110   0.274 -0.1613 -0.2191  0.0708
  528SOL     ow 2109   0.890   5.941   0.529 -0.1948 -0.7530 -0.6178
  528SOL     hw 2110   0.835   5.994   0.471  0.1922 -0.4066 -0.6771
  528SOL     hw 2111   0.970   5.993   0.539 -0.8628 -0.0401  1.4781
  528SOL     vw 2112   0.893   5.955   0.523 -0.2319 -0.6137 -0.3491
  529SOL     ow 2113   2.345   0.256   1.202  0.3268 -0.1614 -0.4732
  529SOL     hw 2114   2.341   0.283   1.294  0.3538 -2.0329  0.1105
  529SOL     hw 2115   2.277   0.308   1.159 -0.0746  0.3337  0.7199
  529SOL     vw 2116   2.336   0.267   1.208  0.2774 -0.3430 -0.2388
  530SOL     ow 2117   4.992   1.117   0.783  0.0841 -0.8621 -0.4792
  530SOL     hw 2118   5.068   1.065   0.754  1.2232  0.9318 -0.8642
  530SOL     hw 2119   5.008   1.131   0.877  0.5119 -0.0671 -0.6628
  530SOL     vw 2120   5.004   1.112   0.792  0.2911 -0.5205 -0.5542
  531SOL     ow 2121   7.009   5.044   4.961  0.0208  0.2709  0.3630
  531SOL     hw 2122   6.978   5.032   5.050  0.2436  0.1885  0.4320
  531SOL     hw 2123   6.985   5.134   4.938  0.9973  0.6993  0.9341
  531SOL     vw 2124   7.002   5.054   4.970  0.1788  0.3164  0.4473
  532SOL     ow 2125   1.480   3.580   5.070  0.3063 -0.0719 -0.1683
  532SOL     hw 2126   1.537   3.593   5.145  1.1115  0.2703 -0.8182
  532SOL     hw 2127   1.536   3.599   4.994 -0.1349 -1.5819 -0.9200
  532SOL     vw 2128   1.495   3.584   5.070  0.3543 -0.2260 -0.3531
  533SOL     ow 2129   0.821   4.937   5.711 -0.0288  0.5341 -0.4343
  533SOL     hw 2130   0.741   4.938   5.659  0.2752  0.4180 -0.9082
  533SOL     hw 2131   0.834   4.845   5.734  0.5485  0.3900 -1.2755
  533SOL     vw 2132   0.813   4.925   5.707  0.0874  0.4997 -0.6080
  534SOL     ow 2133   5.886   1.966   2.686  0.4615 -0.3940 -0.1880
  534SOL     hw 2134   5.847   1.928   2.607 -0.9772  0.1919  0.2043
  534SOL     hw 2135   5.922   2.050   2.657  1.4816 -0.9411 -0.5549
  534SOL     vw 2136   5.886   1.972   2.672  0.4065 -0.3889 -0.1845
  535SOL     ow 2137   5.721   5.708   1.415  0.0650  0.7553 -0.5339
  535SOL     hw 2138   5.727   5.663   1.331  0.8613 -2.7805  1.2215
  535SOL     hw 2139   5.804   5.755   1.423  0.4730  0.1881 -1.2563
  535SOL     vw 2140   5.733   5.708   1.405  0.2241  0.2139 -0.3976
  536SOL     ow 2141   4.083   0.061   4.775  0.7638  0.3318  0.5831
  536SOL     hw 2142   4.137   0.041   4.698 -2.7401  1.0459 -2.3604
  536SOL     hw 2143   4.048  -0.023   4.802 -0.4581  0.3888 -0.7158
  536SOL     vw 2144   4.086   0.047   4.768  0.1404  0.4335  0.0234
  537SOL     ow 2145   5.908   6.304   2.969 -0.0684 -0.3155 -0.9186
  537SOL     hw 2146   5.920   6.365   2.896  1.1801 -0.7227 -1.0798
  537SOL     hw 2147   5.951   6.224   2.940  0.7420 -0.3755  0.3715
  537SOL     vw 2148   5.915   6.302   2.955  0.2031 -0.3769 -0.7696
  538SOL     ow 2149   3.600   4.885   6.345 -0.7880 -0.0682  0.0904
  538SOL     hw 2150   3.661   4.909   6.416  0.0854 -0.2732 -0.5711
  538SOL     hw 2151   3.627   4.797   6.320 -0.8279  0.1623 -0.7778
  538SOL     vw 2152   3.612   4.877   6.351 -0.6779 -0.0651 -0.1116
  539SOL     ow 2153   2.264   5.445   3.532  0.0838  0.3659  0.1946
  539SOL     hw 2154   2.352   5.431   3.498  0.8559  0.3139  2.0769
  539SOL     hw 2155   2.218   5.363   3.514 -0.9521  1.6690 -4.3503
  539SOL     vw 2156   2.270   5.432   3.525  0.0489  0.5310 -0.1568
  540SOL     ow 2157   4.384   0.856   3.561 -0.3541  0.8264  0.1012
  540SOL     hw 2158   4.453   0.869   3.497  0.0965  1.2605  0.6587
  540SOL     hw 2159   4.306   0.894   3.521 -1.0297 -2.2272 -1.7760
  540SOL     vw 2160   4.382   0.863   3.547 -0.3839  0.4808 -0.0730
  541SOL     ow 2161   2.585   0.774   2.187 -0.2507  0.6877  0.0117
  541SOL     hw 2162   2.666   0.801   2.230 -0.5445  1.0531  0.3487
  541SOL     hw 2163   2.517   0.794   2.251 -0.6570  0.8710 -0.4762
  541SOL     vw 2164   2.587   0.780   2.201 -0.3431  0.7601 -0.0082
  542SOL     ow 2165   4.076   1.818   0.417 -0.0231 -0.0068 -0.2090
  542SOL     hw 2166   4.133   1.894   0.429  1.8428 -1.4400  0.5788
  542SOL     hw 2167   4.025   1.814   0.498  1.2319 -0.6226  0.5864
  542SOL     vw 2168   4.077   1.828   0.429  0.3889 -0.2772 -0.0001
  543SOL     ow 2169   3.887   6.025   2.090 -0.0044  0.3427  0.3628
  543SOL     hw 2170   3.891   5.963   2.163 -1.1957 -0.5865 -0.3246
  543SOL     hw 2171   3.938   5.984   2.020 -1.3744 -0.2501 -0.3354
  543SOL     vw 2172   3.894   6.011   2.090 -0.3422  0.1416  0.1801
  544SOL     ow 2173   3.243   3.054   3.468  0.4295 -0.3169  0.1653
  544SOL     hw 2174   3.223   3.147   3.484  0.9613 -0.0850 -0.4418
  544SOL     hw 2175   3.240   3.014   3.554 -1.8177 -0.1545  0.2170
  544SOL     vw 2176   3.240   3.061   3.481  0.2033 -0.2649  0.0920
  545SOL     ow 2177   0.956   6.858   1.905 -0.0098 -0.3267 -0.3263
  545SOL     hw 2178   0.915   6.906   1.977  0.3011 -0.9582  0.2866
  545SOL     hw 2179   1.041   6.830   1.940 -0.6577 -2.3645 -0.2032
  545SOL     vw 2180   0.962   6.860   1.919 -0.0543 -0.6788 -0.2292
  546SOL     ow 2181   0.907   3.476   0.736  0.0134 -0.5830  0.1948
  546SOL     hw 2182   0.975   3.507   0.675 -0.4707 -0.0915 -0.0982
  546SOL     hw 2183   0.906   3.381   0.723  0.3980 -0.5567 -0.0577
  546SOL     vw 2184   0.916   3.467   0.726  0.0002 -0.5146  0.1228
  547SOL     ow 2185   6.330   2.347   5.064 -0.6525  0.2811  0.2464
  547SOL     hw 2186   6.272   2.417   5.095 -0.8657  0.5987 -0.8433
  547SOL     hw 2187   6.413   2.363   5.109 -0.4123  1.7997 -0.6927
  547SOL     vw 2188   6.333   2.358   5.074 -0.6490  0.5233 -0.0212
  548SOL     ow 2189   1.180   0.759   5.507 -0.0341 -0.1402 -0.5227
  548SOL     hw 2190   1.232   0.738   5.585 -0.4375 -1.3730 -0.5729
  548SOL     hw 2191   1.202   0.692   5.444  0.3427  0.8937 -1.5282
  548SOL     vw 2192   1.190   0.748   5.509 -0.0377 -0.1664 -0.6618
  549SOL     ow 2193   1.842   1.491   0.177  0.3208  0.0891 -0.4443
  549SOL     hw 2194   1.919   1.433   0.182 -0.0776 -0.5671 -1.6068
  549SOL     hw 2195   1.849   1.546   0.255 -0.3730 -2.8860  1.9232
  549SOL     vw 2196   1.853   1.490   0.188  0.1767 -0.3901 -0.2853
  550SOL     ow 2197   0.775   1.545   0.758 -0.2049  0.2367  0.5535
  550SOL     hw 2198   0.726   1.617   0.717 -0.5529  0.0502  0.6431
  550SOL     hw 2199   0.757   1.469   0.703  1.2648  0.5062 -0.3423
  550SOL     vw 2200   0.766   1.545   0.745 -0.0569  0.2477  0.4471
  551SOL     ow 2201   6.219   0.647   0.286  0.3693  0.0307  0.2937
  551SOL     hw 2202   6.258   0.575   0.236  0.4105  0.3293 -0.1029
  551SOL     hw 2203   6.147   0.606   0.334 -0.7545  0.0506 -1.2974
  551SOL     vw 2204   6.215   0.632   0.286  0.2265  0.0727  0.0315
  552SOL     ow 2205   1.152   5.159   4.600 -0.9129 -0.2241 -0.0087
  552SOL     hw 2206   1.241   5.133   4.623 -0.5723  0.7110 -0.1953
  552SOL     hw 2207   1.122   5.210   4.676 -1.5117 -1.0272  0.3040
  552SOL     vw 2208   1.160   5.162   4.613 -0.9469 -0.2065  0.0081
  553SOL     ow 2209   3.568   2.622   4.131  0.0996  0.2617  0.0317
  553SOL     hw 2210   3.654   2.579   4.135 -0.5111 -0.9883 -0.1943
  553SOL     hw 2211   3.574   2.679   4.054  0.2424 -0.8851 -0.8244
  553SOL     vw 2212   3.580   2.624   4.121  0.0379 -0.0546 -0.1111
  554SOL     ow 2213   6.948   2.062   0.996  0.1671  0.2221 -0.8614
  554SOL     hw 2214   6.970   2.009   1.072  1.2650  0.4627 -0.9883
  554SOL     hw 2215   6.995   2.020   0.923  0.0761  0.6711 -1.1831
  554SOL     vw 2216   6.957   2.049   0.996  0.2997  0.3130 -0.9206
  555SOL     ow 2217   6.744   4.715   4.895 -1.0208  0.2432 -0.0916
  555SOL     hw 2218   6.713   4.772   4.825 -1.8975 -0.9454 -0.7063
  555SOL     hw 2219   6.839   4.718   4.889 -1.0863  0.4096 -1.1200
  555SOL     vw 2220   6.752   4.723   4.885 -1.1451  0.1085 -0.3085
  556SOL     ow 2221   3.063   6.541   1.701 -0.2588 -0.2301 -0.5821
  556SOL     hw 2222   3.046   6.457   1.660 -1.0392 -0.3108 -0.1288
  556SOL     hw 2223   3.143   6.528   1.752  0.9692 -0.0046 -2.3545
  556SOL     vw 2224   3.071   6.528   1.703 -0.1998 -0.2110 -0.7561
  557SOL     ow 2225   3.457   2.382   0.388 -0.6123 -0.6259 -0.4510
  557SOL     hw 2226   3.440   2.369   0.295  0.0145 -0.5278 -0.5851
  557SOL     hw 2227   3.552   2.390   0.394 -0.7227  0.5178  0.0527
  557SOL     vw 2228   3.467   2.381   0.377 -0.5441 -0.4621 -0.4022
  558SOL     ow 2229   3.034   3.930   2.050 -0.3520  0.0098 -0.0135
  558SOL     hw 2230   3.072   3.971   1.973  0.6782 -0.8915 -0.0186
  558SOL     hw 2231   3.001   3.845   2.018  0.9765 -0.8099  0.6874
  558SOL     vw 2232   3.035   3.924   2.036 -0.0409 -0.2173  0.0782
  559SOL     ow 2233   4.285   0.148   4.567 -0.5162 -0.4526 -0.2410
  559SOL     hw 2234   4.254   0.163   4.478 -0.6662  1.4349  0.0868
  559SOL     hw 2235   4.317   0.233   4.597 -3.4625 -0.1570  2.6527
  559SOL     vw 2236   4.285   0.161   4.559 -0.9246 -0.1646  0.1838
  560SOL     ow 2237   6.719   6.244   3.637 -0.1039  0.3728  0.2004
  560SOL     hw 2238   6.753   6.237   3.726  4.0856  1.0341 -1.1082
  560SOL     hw 2239   6.707   6.338   3.622 -0.4886  0.2883 -0.0478
  560SOL     vw 2240   6.722   6.255   3.647  0.3984  0.4489 -0.0048
  561SOL     ow 2241   2.439   4.042   3.932 -0.3979 -0.5860 -0.2517
  561SOL     hw 2242   2.401   4.105   3.871 -0.9998  0.2779  0.9650
  561SOL     hw 2243   2.376   4.038   4.004  1.3563  0.2060  1.4164
  561SOL     vw 2244   2.426   4.050   3.934 -0.2459 -0.3674  0.1290
  562SOL     ow 2245   5.561   1.506   1.615  0.2827  0.0456  0.6525
  562SOL     hw 2246   5.584   1.524   1.523 -0.2459  0.1525  0.5421
  562SOL     hw 2247   5.475   1.464   1.611  0.1345  0.2989  1.1176
  562SOL     vw 2248   5.553   1.503   1.602  0.1934  0.0932  0.6993
  563SOL     ow 2249   2.385   0.646   2.046 -0.2951  0.4530 -0.2033
  563SOL     hw 2250   2.366   0.560   2.008  2.4119 -0.7627  0.9307
  563SOL     hw 2251   2.356   0.638   2.137 -0.4870  0.9085 -0.2266
  563SOL     vw 2252   2.379   0.633   2.053  0.0367  0.3527 -0.0569
  564SOL     ow 2253   0.265   6.699   0.701 -0.0817 -0.1413 -0.5590
  564SOL     hw 2254   0.200   6.721   0.634 -0.2678 -0.1229 -0.3728
  564SOL     hw 2255   0.213   6.681   0.779  0.0523 -1.4595 -0.7578
  564SOL     vw 2256   0.250   6.700   0.702 -0.0886 -0.3128 -0.5606
  565SOL     ow 2257   3.994   0.314   4.937  0.1510  0.2400 -0.0952
  565SOL     hw 2258   3.965   0.289   5.025  1.5545 -0.1920  0.2739
  565SOL     hw 2259   4.003   0.230   4.891 -2.4531  0.5309 -1.3349
  565SOL     vw 2260   3.991   0.299   4.943 -0.0075  0.2214 -0.2100
  566SOL     ow 2261   0.790   5.671   0.707  0.2074 -0.6730  0.0275
  566SOL     hw 2262   0.854   5.616   0.751  1.1410  0.1219 -0.2989
  566SOL     hw 2263   0.712   5.615   0.698  1.0372 -1.8553 -0.0863
  566SOL     vw 2264   0.788   5.656   0.711  0.4401 -0.7241 -0.0306
  567SOL     ow 2265   2.579   0.129   1.173  0.2399  0.4288 -0.2885
  567SOL     hw 2266   2.489   0.160   1.181  0.5265  1.3304 -0.4444
  567SOL     hw 2267   2.571   0.044   1.131 -0.4884  0.8706 -1.0703
  567SOL     vw 2268   2.566   0.122   1.169  0.1817  0.6061 -0.4123
  568SOL     ow 2269   4.277   6.518   0.902  0.2638  0.1740 -0.0387
  568SOL     hw 2270   4.252   6.550   0.989  3.2492  1.3663  0.5014
  568SOL     hw 2271   4.363   6.557   0.886 -0.2009  0.0923 -3.6065
  568SOL     vw 2272   4.285   6.528   0.911  0.5965  0.3207 -0.4382
  569SOL     ow 2273   6.514   1.840   1.778 -0.6620 -0.9791 -0.1384
  569SOL     hw 2274   6.464   1.922   1.772 -1.5179 -1.4123  0.7810
  569SOL     hw 2275   6.579   1.847   1.708 -1.6561 -0.1511 -1.0188
  569SOL     vw 2276   6.516   1.852   1.768 -0.9060 -0.9270 -0.1333
  570SOL     ow 2277   4.913   5.584   5.318  0.0189 -0.4001 -0.1486
  570SOL     hw 2278   4.917   5.557   5.227 -2.2577 -0.0430 -0.4200
  570SOL     hw 2279   4.939   5.676   5.318 -2.6215  0.4111 -0.9254
  570SOL     vw 2280   4.917   5.592   5.306 -0.6299 -0.2460 -0.2871
  571SOL     ow 2281   3.875   5.582   4.880 -0.3464  0.2140  0.0277
  571SOL     hw 2282   3.857   5.512   4.817 -0.9842  3.1938 -3.4632
  571SOL     hw 2283   3.794   5.590   4.930 -0.5961 -0.9093 -0.1629
  571SOL     vw 2284   3.862   5.574   4.878 -0.4635  0.4590 -0.4582
  572SOL     ow 2285   2.954   4.412   1.921 -0.7304  0.0739 -0.0499
  572SOL     hw 2286   3.023   4.406   1.987 -0.3961 -2.1031 -0.5166
  572SOL     hw 2287   2.893   4.477   1.955  0.0793 -0.0642  1.7762
  572SOL     vw 2288   2.955   4.420   1.934 -0.5795 -0.2315  0.1295
  573SOL     ow 2289   0.843   6.902   6.061  0.2464 -0.5907  0.3589
  573SOL     hw 2290   0.781   6.974   6.052  0.1495 -0.9603 -2.7778
  573SOL     hw 2291   0.886   6.895   5.976  2.0569 -2.6508  1.3373
  573SOL     vw 2292   0.840   6.910   6.049  0.4725 -0.9110  0.0739
  574SOL     ow 2293   6.872   6.433   5.903  0.8897 -0.0941  0.4332
  574SOL     hw 2294   6.953   6.473   5.873  0.9346  0.9657  1.8520
  574SOL     hw 2295   6.884   6.423   5.997 -1.0375  1.1766  0.8726
  574SOL     vw 2296   6.884   6.437   5.911  0.6413  0.2131  0.6783
  575SOL     ow 2297   2.258   2.703   6.981 -0.9258  0.5811  0.0834
  575SOL     hw 2298   2.264   2.608   6.970 -0.0617  0.5258  0.9219
  575SOL     hw 2299   2.273   2.717   7.075  1.5100  1.7339 -0.3992
  575SOL     vw 2300   2.260   2.692   6.992 -0.4905  0.7259  0.1302
  576SOL     ow 2301   6.206   4.881   5.994 -0.2333  0.2329  0.0597
  576SOL     hw 2302   6.205   4.788   6.018 -0.9683  0.6413  1.7860
  576SOL     hw 2303   6.146   4.922   6.056  1.3114  2.1026  0.4336
  576SOL     vw 2304   6.198   4.874   6.006 -0.1268  0.5333  0.3369
  577SOL     ow 2305   3.139   4.398   4.059  0.1288 -0.2775  0.4359
  577SOL     hw 2306   3.214   4.374   4.114  0.5292 -0.1437 -0.0400
  577SOL     hw 2307   3.064   4.395   4.118  0.6065  0.2683  1.0865
  577SOL     vw 2308   3.139   4.394   4.074  0.2446 -0.1876  0.4590
  578SOL     ow 2309   4.582   0.312   6.531 -0.1967  0.3434 -0.0643
  578SOL     hw 2310   4.563   0.245   6.597 -1.5316  1.2800  0.5548
  578SOL     hw 2311   4.668   0.346   6.556  0.1295 -0.5575  0.0984
  578SOL     vw 2312   4.590   0.307   6.543 -0.3295  0.3481  0.0389
  579SOL     ow 2313   3.299   2.851   0.878 -0.1537  0.5680 -0.2365
  579SOL     hw 2314   3.236   2.790   0.839  0.1760  1.2415 -1.9004
  579SOL     hw 2315   3.245   2.915   0.925 -0.4950 -1.0323  1.6522
  579SOL     vw 2316   3.283   2.852   0.879 -0.1553  0.4456 -0.2068
  580SOL     ow 2317   3.528   0.619   6.910 -0.0347  0.4489  0.0308
  580SOL     hw 2318   3.600   0.680   6.894 -0.1310  0.3153 -0.9304
  580SOL     hw 2319   3.459   0.674   6.947  1.2114  0.2519  2.9016
  580SOL     vw 2320   3.528   0.634   6.913  0.1171  0.4053  0.2828
  581SOL     ow 2321   0.826   5.141   3.068 -0.8480 -0.3421 -0.2553
  581SOL     hw 2322   0.910   5.095   3.059  0.6249  2.0583  0.2606
  581SOL     hw 2323   0.836   5.219   3.014 -1.5997  1.4518  2.0488
  581SOL     vw 2324   0.838   5.145   3.059 -0.7528  0.2112  0.1167
  582SOL     ow 2325   1.063   1.266   6.802 -0.7136  0.0947  0.7895
  582SOL     hw 2326   0.997   1.336   6.799 -0.3081  0.4690  0.4031
  582SOL     hw 2327   1.096   1.268   6.892  1.2769  2.3098  0.1227
  582SOL     vw 2328   1.058   1.276   6.814 -0.3974  0.4364  0.6506
  583SOL     ow 2329   0.660   0.257   1.635  0.4526  0.5973 -0.1839
  583SOL     hw 2330   0.602   0.315   1.684 -0.7622 -0.8667  0.1809
  583SOL     hw 2331   0.605   0.219   1.567  1.0049 -0.7065  0.0660
  583SOL     vw 2332   0.645   0.260   1.633  0.3652  0.2321 -0.1028
  584SOL     ow 2333   5.311   6.158   6.860  1.0699  0.2153  0.6379
  584SOL     hw 2334   5.351   6.234   6.818  0.1528  0.1612 -0.3807
  584SOL     hw 2335   5.345   6.083   6.812 -0.4590  0.1851 -0.4853
  584SOL     vw 2336   5.321   6.158   6.848  0.7470  0.2041  0.3552
  585SOL     ow 2337   2.268   4.811   5.895 -0.8731 -0.2740 -0.3244
  585SOL     hw 2338   2.264   4.811   5.799  2.3847 -0.6055 -0.5751
  585SOL     hw 2339   2.236   4.897   5.920  2.7345  1.8508 -2.1708
  585SOL     vw 2340   2.263   4.822   5.886  0.0327 -0.0377 -0.6013
  586SOL     ow 2341   4.139   2.644   4.253  0.0281 -0.0467 -0.4075
  586SOL     hw 2342   4.130   2.559   4.295  0.9768  0.1836  0.2945
  586SOL     hw 2343   4.223   2.678   4.284 -0.7072  1.5167 -0.0078
  586SOL     vw 2344   4.149   2.637   4.262  0.0563  0.1901 -0.2623
  587SOL     ow 2345   1.072   6.129   6.561  0.4446  0.2974  0.4554
  587SOL     hw 2346   0.998   6.141   6.501  0.0241 -1.1251  0.6617
  587SOL     hw 2347   1.147   6.114   6.504  0.2431 -0.0041  0.2685
  587SOL     vw 2348   1.072   6.129   6.546  0.3625  0.0699  0.4582
  588SOL     ow 2349   6.052   2.380   2.158 -0.0715 -0.1167  0.1564
  588SOL     hw 2350   5.975   2.435   2.168  0.6674  1.0503 -0.3314
  588SOL     hw 2351   6.126   2.437   2.182  0.8425 -0.4071 -1.7295
  588SOL     vw 2352   6.052   2.395   2.162  0.1466 -0.0010 -0.1569
  589SOL     ow 2353   2.075   3.981   6.624  0.1271  0.0324 -0.0949
  589SOL     hw 2354   1.980   3.994   6.631 -0.3462 -1.1963 -2.8760
  589SOL     hw 2355   2.112   4.069   6.638 -1.5825  0.9507 -1.0354
  589SOL     vw 2356   2.067   3.994   6.627 -0.1609 -0.0086 -0.5858
  590SOL     ow 2357   2.142   6.026   5.798  0.3434 -0.5663  0.1445
  590SOL     hw 2358   2.050   6.023   5.772  0.1220 -0.6877  0.9030
  590SOL     hw 2359   2.190   6.001   5.719 -0.0737  2.4859 -1.2132
  590SOL     vw 2360   2.136   6.022   5.784  0.2590 -0.1795  0.0656
  591SOL     ow 2361   3.070   4.979   2.141  0.1287  0.3457  0.0559
  591SOL     hw 2362   3.022   5.041   2.196 -1.4292  0.6663 -1.5875
  591SOL     hw 2363   3.101   4.912   2.202 -2.5473  0.0351  1.1926
  591SOL     vw 2364   3.068   4.978   2.156 -0.4300  0.3471 -0.0111
  592SOL     ow 2365   3.964   6.109   5.498  0.3532  0.4711 -0.7372
  592SOL     hw 2366   3.969   6.169   5.573  0.4077  1.8969 -1.8357
  592SOL     hw 2367   3.960   6.167   5.421 -0.1021 -0.9426 -1.8190
  592SOL     vw 2368   3.964   6.125   5.498  0.3003  0.4728 -1.0247
  593SOL     ow 2369   5.915   2.198   1.122  0.0177 -0.0915 -0.3353
  593SOL     hw 2370   5.863   2.187   1.201  0.7903  0.1536  0.2187
  593SOL     hw 2371   5.939   2.109   1.096 -1.5589 -0.2807 -1.2091
  593SOL     vw 2372   5.912   2.185   1.129 -0.0880 -0.0842 -0.3775
  594SOL     ow 2373   6.871   6.109   5.237  0.2902 -0.3242  0.6393
  594SOL     hw 2374   6.865   6.153   5.152 -1.2839  1.1338  1.4292
  594SOL     hw 2375   6.962   6.120   5.264  0.5674  0.0787 -0.4070
  594SOL     vw 2376   6.882   6.117   5.229  0.1192 -0.0787  0.6053
  595SOL     ow 2377   1.714   0.205   5.005 -0.2026  0.2262  0.0162
  595SOL     hw 2378   1.772   0.188   4.931  2.1781  0.9972  1.5790
  595SOL     hw 2379   1.637   0.246   4.966  1.9924  2.9408 -1.8965
  595SOL     vw 2380   1.712   0.208   4.990  0.4011  0.6861 -0.0300
  596SOL     ow 2381   2.540   0.375   6.454 -0.2475  0.4155 -0.5734
  596SOL     hw 2382   2.575   0.425   6.528 -0.2196  2.6546 -1.9998
  596SOL     hw 2383   2.613   0.321   6.425  0.7501  1.8223 -0.8286
  596SOL     vw 2384   2.554   0.375   6.460 -0.1122  0.8966 -0.7949
  597SOL     ow 2385   0.626   1.671   4.945 -0.0361  0.2899  0.4274
  597SOL     hw 2386   0.630   1.656   4.851  1.1258  1.8251  0.1682
  597SOL     hw 2387   0.552   1.731   4.957  0.1869  0.5811  0.3843
  597SOL     vw 2388   0.617   1.677   4.934  0.1466  0.5309  0.3874
  598SOL     ow 2389   3.252   6.278   5.783  0.1170 -0.3141 -0.3777
  598SOL     hw 2390   3.273   6.281   5.876  2.1579  2.0081 -0.7982
  598SOL     hw 2391   3.212   6.363   5.765  0.9055 -0.2244 -1.8235
  598SOL     vw 2392   3.250   6.290   5.793  0.4904  0.0043 -0.6239
  599SOL     ow 2393   4.899   6.708   2.155 -0.1481 -0.0841  0.4228
  599SOL     hw 2394   4.972   6.722   2.093 -0.1266  1.1972  0.6993
  599SOL     hw 2395   4.939   6.718   2.241 -0.6008  0.4094  0.5812
  599SOL     vw 2396   4.914   6.711   2.158 -0.2050  0.1502  0.4802
  600SOL     ow 2397   1.652   5.092   0.388 -0.0034 -0.5927 -0.4384
  600SOL     hw 2398   1.564   5.124   0.409 -0.0170 -0.3988 -0.7975
  600SOL     hw 2399   1.637   5.020   0.327  0.0270 -1.2893  0.3631
  600SOL     vw 2400   1.638   5.087   0.383 -0.0012 -0.6590 -0.3800
  601SOL     ow 2401   6.580   4.036   6.053  0.5628  0.8531 -0.4435
  601SOL     hw 2402   6.675   4.027   6.057  0.3372 -3.5379  0.1730
  601SOL     hw 2403   6.557   4.090   6.129  2.4271 -1.0297  1.5871
  601SOL     vw 2404   6.589   4.042   6.063  0.7792  0.0253 -0.0942
  602SOL     ow 2405   5.011   0.533   0.143 -0.7086  0.7594 -0.2964
  602SOL     hw 2406   5.005   0.623   0.175 -0.7840 -0.1188  2.3723
  602SOL     hw 2407   4.986   0.479   0.218 -0.7468 -1.5017 -1.8482
  602SOL     vw 2408   5.007   0.538   0.157 -0.7238  0.3452 -0.1490
  603SOL     ow 2409   1.142   5.758   6.991 -0.1935 -0.1115 -0.3672
  603SOL     hw 2410   1.154   5.784   7.082 -0.9012  0.4087 -0.4150
  603SOL     hw 2411   1.079   5.686   6.995 -0.7224  0.3423 -0.4957
  603SOL     vw 2412   1.135   5.752   7.003 -0.3566  0.0174 -0.3904
  604SOL     ow 2413   3.566   6.042   5.116 -0.1908  0.9093  0.1801
  604SOL     hw 2414   3.625   6.061   5.189 -0.2711  1.7846  0.0334
  604SOL     hw 2415   3.519   5.963   5.142 -0.4463  1.3895  1.2162
  604SOL     vw 2416   3.568   6.034   5.129 -0.2352  1.0881  0.2978
  605SOL     ow 2417   1.548   2.882   6.059  0.6709 -0.5267  0.3898
  605SOL     hw 2418   1.575   2.843   5.975  2.0337 -1.3259  1.1647
  605SOL     hw 2419   1.627   2.923   6.093  0.4983 -1.4096  1.9292
  605SOL     vw 2420   1.562   2.882   6.052  0.8280 -0.7485  0.6952
  606SOL     ow 2421   3.831   0.015   5.169 -0.4928 -0.3660  0.3130
  606SOL     hw 2422   3.923  -0.011   5.170 -0.3423 -0.2026 -2.3794
  606SOL     hw 2423   3.831   0.106   5.197 -0.1367 -0.9018  2.2604
  606SOL     vw 2424   3.843   0.023   5.173 -0.4261 -0.4153  0.2148
  607SOL     ow 2425   4.735   0.824   1.095 -0.5459  0.0915 -0.0546
  607SOL     hw 2426   4.739   0.729   1.086  0.7191  0.0094  1.0213
  607SOL     hw 2427   4.774   0.842   1.181 -0.2730  1.6268 -0.4635
  607SOL     vw 2428   4.740   0.814   1.105 -0.3428  0.2833  0.0334
  608SOL     ow 2429   6.760   3.374   2.617  0.0814  0.1987 -0.1731
  608SOL     hw 2430   6.796   3.349   2.532  0.0434  0.3170 -0.2245
  608SOL     hw 2431   6.666   3.357   2.609  0.3108 -1.5452  0.4690
  608SOL     vw 2432   6.752   3.369   2.605  0.1068 -0.0157 -0.0951
  609SOL     ow 2433   1.940   2.695   4.650 -0.2838  0.1940 -0.3654
  609SOL     hw 2434   1.855   2.654   4.638  0.1012 -0.1375 -2.3431
  609SOL     hw 2435   1.998   2.623   4.676 -0.2762  0.0860 -0.6715
  609SOL     vw 2436   1.937   2.680   4.652 -0.2319  0.1360 -0.6664
  610SOL     ow 2437   0.289   0.972   0.328 -0.1823 -0.3383 -0.2162
  610SOL     hw 2438   0.218   0.968   0.264 -0.5498 -0.0699  0.1715
  610SOL     hw 2439   0.356   1.025   0.286 -0.0603 -0.8864 -0.7262
  610SOL     vw 2440   0.289   0.978   0.314 -0.2147 -0.3752 -0.2323
  611SOL     ow 2441   1.227   0.886   2.094  0.7098 -0.0914 -0.0359
  611SOL     hw 2442   1.255   0.966   2.050  2.3898 -0.7728 -0.2806
  611SOL     hw 2443   1.309   0.841   2.116 -0.0447 -0.1504  3.1139
  611SOL     vw 2444   1.242   0.891   2.091  0.8320 -0.1891  0.3475
  612SOL     ow 2445   5.192   1.418   0.213 -0.2864 -0.0695  0.5220
  612SOL     hw 2446   5.100   1.442   0.221  0.3736  2.0934  2.9533
  612SOL     hw 2447   5.205   1.406   0.119 -3.1068 -0.8542  0.1563
  612SOL     vw 2448   5.182   1.420   0.201 -0.5713  0.1124  0.7945
  613SOL     ow 2449   1.376   5.096   0.448 -0.1229  0.2574 -0.1972
  613SOL     hw 2450   1.325   5.148   0.385 -0.7397 -0.3480 -0.2096
  613SOL     hw 2451   1.324   5.097   0.528  1.3958  2.3215  0.8335
  613SOL     vw 2452   1.363   5.103   0.450 -0.0039  0.4497 -0.0629
  614SOL     ow 2453   3.885   6.719   4.240 -0.2628  0.3013  0.1877
  614SOL     hw 2454   3.978   6.735   4.259  0.6998 -2.1691 -1.8326
  614SOL     hw 2455   3.838   6.780   4.297  2.5213  0.3907  2.6270
  614SOL     vw 2456   3.891   6.729   4.250  0.2315 -0.0129  0.2429
  615SOL     ow 2457   4.690   3.233   3.811 -0.3559  0.4811 -0.4383
  615SOL     hw 2458   4.652   3.166   3.868 -1.2870  0.5658 -0.9515
  615SOL     hw 2459   4.720   3.301   3.871  0.8526 -0.4807  0.1193
  615SOL     vw 2460   4.689   3.233   3.827 -0.3192  0.3653 -0.4325
  616SOL     ow 2461   3.214   1.999   6.451 -0.2989 -0.4674  0.4939
  616SOL     hw 2462   3.256   1.998   6.365  0.3644 -0.3202  0.8131
  616SOL     hw 2463   3.187   1.908   6.466  0.2801 -0.6500  0.4618
  616SOL     vw 2464   3.216   1.986   6.442 -0.1351 -0.4721  0.5319
  617SOL     ow 2465   1.516   5.041   6.805  0.0804  0.1291  0.3232
  617SOL     hw 2466   1.569   5.035   6.725 -0.5860  1.3192 -0.2510
  617SOL     hw 2467   1.493   5.134   6.810  0.4502  0.1490  2.1447
  617SOL     vw 2468   1.520   5.053   6.795  0.0412  0.2887  0.4878
  618SOL     ow 2469   1.647   6.972   1.292  0.5367  0.1009  0.6540
  618SOL     hw 2470   1.695   6.890   1.296  0.0238 -0.3815 -1.6478
  618SOL     hw 2471   1.585   6.967   1.365  1.3584 -0.9837  1.3013
  618SOL     vw 2472   1.645   6.961   1.302  0.5775 -0.1059  0.4357
  619SOL     ow 2473   6.607   1.624   1.992  0.1166 -0.4261  0.2162
  619SOL     hw 2474   6.701   1.609   1.976  0.2758 -0.1836  0.8972
  619SOL     hw 2475   6.583   1.556   2.054  0.5591  1.2901  2.3846
  619SOL     vw 2476   6.616   1.613   1.998  0.1962 -0.1677  0.5921
  620SOL     ow 2477   2.996   6.602   5.989  0.4818 -0.0729  0.0776
  620SOL     hw 2478   2.931   6.671   6.002 -0.3796 -0.4120 -2.0377
  620SOL     hw 2479   3.020   6.609   5.897  1.2873 -1.8142  0.1152
  620SOL     vw 2480   2.990   6.612   5.979  0.4743 -0.3474 -0.1965
  621SOL     ow 2481   3.785   0.523   4.973 -0.0659 -0.3514  0.2383
  621SOL     hw 2482   3.830   0.571   5.042 -0.5077 -0.8905  0.9202
  621SOL     hw 2483   3.692   0.535   4.993 -0.1910 -2.0858  0.8753
  621SOL     vw 2484   3.779   0.531   4.985 -0.1405 -0.6514  0.4120
  622SOL     ow 2485   5.061   4.165   6.026  0.3969  0.3261 -0.4948
  622SOL     hw 2486   5.154   4.187   6.031 -0.2865  3.4754  1.7336
  622SOL     hw 2487   5.042   4.120   6.109  0.0898 -1.3772 -1.4429
  622SOL     vw 2488   5.071   4.162   6.038  0.2661  0.5169 -0.3259
  623SOL     ow 2489   4.193   1.266   2.914  0.5980  0.5026  0.1922
  623SOL     hw 2490   4.143   1.337   2.873 -0.5998  0.6563  1.8151
  623SOL     hw 2491   4.168   1.187   2.866  0.1720  0.8424 -0.1442
  623SOL     vw 2492   4.183   1.265   2.902  0.3836  0.5678  0.3619
  624SOL     ow 2493   5.203   2.840   6.396 -0.0668 -0.0122  0.5419
  624SOL     hw 2494   5.144   2.907   6.430  0.1796  0.9017 -0.7662
  624SOL     hw 2495   5.266   2.889   6.343  1.7972 -0.9645  1.7720
  624SOL     vw 2496   5.204   2.856   6.394  0.2115 -0.0172  0.5319
  625SOL     ow 2497   0.417   6.729   6.827 -0.3516  0.4912 -0.0803
  625SOL     hw 2498   0.333   6.713   6.870  0.2768 -1.2020  0.5932
  625SOL     hw 2499   0.400   6.713   6.735 -0.9304  0.8695 -0.0475
  625SOL     vw 2500   0.403   6.725   6.821 -0.3451  0.3178  0.0129
  626SOL     ow 2501   4.046   2.588   1.868 -0.4468 -0.1400 -0.4427
  626SOL     hw 2502   4.137   2.617   1.872 -0.8473  1.3298 -1.4461
  626SOL     hw 2503   4.017   2.589   1.960  0.0382  1.0894 -0.2899
  626SOL     vw 2504   4.054   2.592   1.881 -0.4356  0.2161 -0.5549
  627SOL     ow 2505   6.137   6.504   7.033  0.1445 -0.1271 -0.0817
  627SOL     hw 2506   6.154   6.459   7.116  0.3793  0.6486  0.2982
  627SOL     hw 2507   6.120   6.433   6.971 -2.3115 -0.6923  1.0941
  627SOL     vw 2508   6.137   6.488   7.036 -0.1488 -0.0994  0.1235
  628SOL     ow 2509   5.028   4.321   5.769 -0.2927 -0.3524 -0.3450
  628SOL     hw 2510   5.114   4.324   5.726  0.0539 -1.0607  0.2735
  628SOL     hw 2511   4.976   4.387   5.723  0.6068  0.1458 -0.6776
  628SOL     vw 2512   5.033   4.330   5.757 -0.1285 -0.3803 -0.3071
  629SOL     ow 2513   1.570   6.397   3.457  0.4284  0.7210 -0.3742
  629SOL     hw 2514   1.610   6.482   3.477 -0.8983  1.0031  1.4326
  629SOL     hw 2515   1.479   6.418   3.436 -0.0019 -0.2495  0.4166
  629SOL     vw 2516   1.563   6.411   3.457  0.1966  0.6301 -0.0314
  630SOL     ow 2517   3.738   3.297   4.786 -0.8761 -0.1552 -0.1249
  630SOL     hw 2518   3.802   3.346   4.733 -0.6287 -0.5923 -0.2315
  630SOL     hw 2519   3.654   3.318   4.746 -0.6076 -1.3346 -1.4083
  630SOL     vw 2520   3.736   3.306   4.774 -0.8080 -0.3686 -0.3083
  631SOL     ow 2521   3.192   6.954   5.499 -0.4004 -0.0388  0.2171
  631SOL     hw 2522   3.177   6.861   5.483  1.0360 -0.0015 -1.6924
  631SOL     hw 2523   3.270   6.975   5.447 -0.8938  2.3124  0.3243
  631SOL     vw 2524   3.200   6.945   5.490 -0.2759  0.2766 -0.0207
  632SOL     ow 2525   1.087   2.403   5.154 -0.0103  0.0069 -0.7495
  632SOL     hw 2526   1.165   2.441   5.113 -1.1120  1.2956 -1.7603
  632SOL     hw 2527   1.113   2.386   5.244  0.5543  3.4339 -0.1295
  632SOL     vw 2528   1.100   2.406   5.160 -0.0812  0.6291 -0.8011
  633SOL     ow 2529   2.131   6.326   6.614  0.4513  0.6914 -0.0094
  633SOL     hw 2530   2.144   6.362   6.526  0.6107  1.3774  0.2879
  633SOL     hw 2531   2.091   6.397   6.664 -1.1911 -0.2152  0.0587
  633SOL     vw 2532   2.127   6.340   6.609  0.2557  0.6621  0.0391
  634SOL     ow 2533   2.975   5.078   3.010 -0.3625  0.2899 -0.5668
  634SOL     hw 2534   3.019   5.032   3.081 -1.6105 -0.8938 -0.5170
  634SOL     hw 2535   2.934   5.154   3.051  1.2374  1.1845 -0.5478
  634SOL     vw 2536   2.975   5.082   3.025 -0.3160  0.2518 -0.5578
  635SOL     ow 2537   4.850   4.453   3.337  0.3301 -0.0250 -0.1437
  635SOL     hw 2538   4.892   4.414   3.414 -0.3064 -1.4384 -0.4842
  635SOL     hw 2539   4.791   4.519   3.373 -1.1129 -1.7062  0.7609
  635SOL     vw 2540   4.848   4.456   3.352  0.0553 -0.4334 -0.0693
  636SOL     ow 2541   6.957   2.361   1.096 -0.1623 -0.2316  0.6697
  636SOL     hw 2542   7.035   2.351   1.151 -0.3516 -1.9126  0.6854
  636SOL     hw 2543   6.944   2.455   1.089  2.5113  0.1510 -0.2083
  636SOL     vw 2544   6.966   2.372   1.102  0.1652 -0.4029  0.5559
  637SOL     ow 2545   1.082   2.580   5.826 -0.1255 -0.1065  0.1173
  637SOL     hw 2546   1.076   2.624   5.742  1.3399 -1.1535 -0.5988
  637SOL     hw 2547   0.992   2.571   5.856 -0.4970  4.1437  0.8117
  637SOL     vw 2548   1.069   2.584   5.819  0.0188  0.3161  0.1144
  638SOL     ow 2549   3.829   5.602   5.639 -0.4975 -0.2710 -0.2304
  638SOL     hw 2550   3.835   5.694   5.613 -0.1798  0.0887  1.0566
  638SOL     hw 2551   3.815   5.555   5.557 -0.7669  0.9304 -0.8956
  638SOL     vw 2552   3.828   5.608   5.625 -0.4911 -0.0651 -0.1478
  639SOL     ow 2553   6.292   2.076   7.033 -0.5504  0.1850  0.4953
  639SOL     hw 2554   6.252   2.152   7.076 -2.2731  0.6943 -1.7950
  639SOL     hw 2555   6.219   2.015   7.021  0.3164 -0.8064  0.1306
  639SOL     vw 2556   6.277   2.078   7.037 -0.6633  0.1214  0.1450
  640SOL     ow 2557   5.316   0.179   1.121 -0.3355 -0.1386  0.1992
  640SOL     hw 2558   5.370   0.251   1.151  0.4810 -1.1301  1.1711
  640SOL     hw 2559   5.356   0.151   1.038 -1.0202  0.8873 -0.5044
  640SOL     vw 2560   5.328   0.184   1.114 -0.3183 -0.1340  0.2347
  641SOL     ow 2561   4.354   0.445   0.167 -0.1767  0.1162  0.1237
  641SOL     hw 2562   4.369   0.508   0.097 -4.5302 -0.0124 -1.1839
  641SOL     hw 2563   4.387   0.362   0.132  2.1693  0.8862  0.3487
  641SOL     vw 2564   4.360   0.442   0.153 -0.4416  0.2008 -0.0192
  642SOL     ow 2565   3.525   4.917   0.814 -0.0776  0.2013  0.0109
  642SOL     hw 2566   3.449   4.865   0.786 -0.0342  0.1033  0.0749
  642SOL     hw 2567   3.594   4.852   0.830 -0.2664  0.2024  0.8694
  642SOL     vw 2568   3.524   4.901   0.813 -0.0968  0.1886  0.1326
  643SOL     ow 2569   2.655   3.931   3.759 -0.0492  0.7649  0.1565
  643SOL     hw 2570   2.735   3.982   3.749  0.7345 -0.2517  1.0891
  643SOL     hw 2571   2.653   3.875   3.682  0.5453  0.2568  0.5038
  643SOL     vw 2572   2.665   3.930   3.748  0.1326  0.5637  0.3253
  644SOL     ow 2573   0.049   2.419   0.656  0.3741  0.0065  0.1598
  644SOL     hw 2574   0.126   2.442   0.605  1.5543 -1.5714  1.1392
  644SOL     hw 2575  -0.025   2.441   0.600  1.5766  0.0599 -1.4562
  644SOL     vw 2576   0.049   2.425   0.642  0.6884 -0.1947  0.0758
  645SOL     ow 2577   2.961   3.612   4.680  0.0381 -0.5907  0.1625
  645SOL     hw 2578   2.989   3.537   4.627  1.2805 -1.6386  2.2211
  645SOL     hw 2579   2.867   3.597   4.694 -0.1644 -0.6565 -1.1304
  645SOL     vw 2580   2.952   3.600   4.674  0.1752 -0.7375  0.2637
  646SOL     ow 2581   2.053   5.361   5.406  0.4444 -0.1042  0.2017
  646SOL     hw 2582   2.046   5.308   5.327  0.8885 -0.3894  0.3506
  646SOL     hw 2583   2.051   5.452   5.375 -0.6994 -0.1887 -0.0245
  646SOL     vw 2584   2.052   5.366   5.392  0.3521 -0.1531  0.1915
  647SOL     ow 2585   5.202   5.950   0.299 -0.4523 -0.0855  0.3555
  647SOL     hw 2586   5.184   5.942   0.392  2.0058  2.6013  1.2173
  647SOL     hw 2587   5.157   5.876   0.259 -2.9162 -0.4356  3.4364
  647SOL     vw 2588   5.194   5.939   0.306 -0.4528  0.2227  0.8757
  648SOL     ow 2589   2.732   6.376   2.518 -0.3407  0.4938  0.0121
  648SOL     hw 2590   2.791   6.449   2.538  1.6677 -0.6412 -1.3475
  648SOL     hw 2591   2.711   6.339   2.604  0.3423  1.3917  0.5935
  648SOL     vw 2592   2.737   6.381   2.532  0.0143  0.4625 -0.0905
  649SOL     ow 2593   1.276   2.427   1.834  0.0039  0.6422 -0.6588
  649SOL     hw 2594   1.202   2.487   1.844  0.6698  1.5759 -1.2720
  649SOL     hw 2595   1.272   2.399   1.742 -1.6182 -2.0467  0.0930
  649SOL     vw 2596   1.265   2.431   1.823 -0.1223  0.4106 -0.6406
  650SOL     ow 2597   6.621   4.506   4.700  0.5627 -0.0879 -0.3187
  650SOL     hw 2598   6.639   4.558   4.621 -0.0868 -0.3534 -0.6474
  650SOL     hw 2599   6.596   4.420   4.667  0.6591 -0.3132  0.1932
  650SOL     vw 2600   6.620   4.502   4.685  0.4897 -0.1528 -0.2944
  651SOL     ow 2601   3.454   6.031   6.704  0.4748  0.4953 -0.1308
  651SOL     hw 2602   3.411   5.949   6.729  3.3355 -0.9112  0.5175
  651SOL     hw 2603   3.443   6.036   6.609 -0.2316 -0.3211 -0.0999
  651SOL     vw 2604   3.447   6.021   6.695  0.7590  0.2022 -0.0408
  652SOL     ow 2605   6.501   3.041   0.450  0.1505 -0.2198 -0.2488
  652SOL     hw 2606   6.499   3.114   0.389  0.0483  0.4555  0.5512
  652SOL     hw 2607   6.432   2.982   0.419  0.0755  0.1263 -0.7511
  652SOL     vw 2608   6.492   3.043   0.438  0.1271 -0.0850 -0.2095
  653SOL     ow 2609   6.029   3.928   5.976 -0.6330  0.2646 -0.0146
  653SOL     hw 2610   5.998   4.016   5.956 -0.5735 -0.1174 -1.9163
  653SOL     hw 2611   6.020   3.920   6.071 -1.3039  2.0577  0.0909
  653SOL     vw 2612   6.024   3.938   5.986 -0.7136  0.4507 -0.2515
  654SOL     ow 2613   0.118   3.326   3.618 -0.0632 -0.0509  0.1068
  654SOL     hw 2614   0.044   3.287   3.663  0.1544  0.5508  1.0186
  654SOL     hw 2615   0.161   3.253   3.573 -0.6618 -0.5486  0.3446
  654SOL     vw 2616   0.114   3.311   3.618 -0.1135 -0.0372  0.2583
  655SOL     ow 2617   4.559   0.278   4.390  0.5414  0.4959  0.2506
  655SOL     hw 2618   4.472   0.314   4.406 -0.2302 -1.6216  1.1869
  655SOL     hw 2619   4.604   0.345   4.338 -1.0472  2.3748  1.1856
  655SOL     vw 2620   4.554   0.291   4.385  0.2301  0.4644  0.4976
  656SOL     ow 2621   5.139   2.858   1.078  0.0215 -0.4961 -0.5755
  656SOL     hw 2622   5.142   2.898   0.991  0.2366  1.2307  0.1738
  656SOL     hw 2623   5.217   2.803   1.082  0.4300  0.0167 -1.2096
  656SOL     vw 2624   5.149   2.856   1.067  0.1040 -0.2006 -0.5603
  657SOL     ow 2625   6.503   5.546   6.848 -0.2270  0.7957 -0.1709
  657SOL     hw 2626   6.501   5.601   6.926  0.0083  0.9124 -0.2446
  657SOL     hw 2627   6.557   5.471   6.873 -3.7604 -1.5018  1.2757
  657SOL     vw 2628   6.510   5.543   6.861 -0.6623  0.5078  0.0105
  658SOL     ow 2629   0.451   6.008   1.314 -0.4958 -0.0587 -0.2100
  658SOL     hw 2630   0.432   6.077   1.378  1.2776 -0.2342  0.5604
  658SOL     hw 2631   0.466   6.054   1.232  2.1512  0.6757  0.6116
  658SOL     vw 2632   0.450   6.023   1.312  0.0874  0.0148  0.0001
  659SOL     ow 2633   0.801   1.127   2.454  0.5895  0.2720  0.5235
  659SOL     hw 2634   0.896   1.121   2.463  0.5997  0.5851  0.6403
  659SOL     hw 2635   0.788   1.162   2.366  0.5914  0.5239  0.6235
  659SOL     vw 2636   0.812   1.131   2.444  0.5911  0.3465  0.5522
  660SOL     ow 2637   5.583   5.940   3.609  0.5823  0.8870 -0.1763
  660SOL     hw 2638   5.666   5.906   3.641  0.1697  0.5044  0.4975
  660SOL     hw 2639   5.562   6.012   3.669 -0.5535 -0.2952  0.9031
  660SOL     vw 2640   5.591   5.945   3.621  0.3779  0.6804  0.0550
  661SOL     ow 2641   5.913   3.082   0.337  0.1092 -0.2007  0.2019
  661SOL     hw 2642   5.950   3.003   0.297 -0.1466  0.3984 -1.2934
  661SOL     hw 2643   5.890   3.137   0.263 -0.1684  1.0824  1.2109
  661SOL     vw 2644   5.915   3.079   0.322  0.0391  0.0477  0.1377
  662SOL     ow 2645   0.287   4.879   5.263 -0.2143 -0.1699  0.3901
  662SOL     hw 2646   0.193   4.891   5.277  0.1548  2.2615  1.2627
  662SOL     hw 2647   0.328   4.921   5.339  1.5973 -1.1186 -0.0088
  662SOL     vw 2648   0.280   4.887   5.275  0.0734  0.0257  0.4530
  663SOL     ow 2649   0.903   3.675   3.454 -0.0010  0.3635  0.4312
  663SOL     hw 2650   0.961   3.637   3.520 -0.7289 -0.6540  0.4997
  663SOL     hw 2651   0.893   3.607   3.387 -0.8204  0.6465  0.2439
  663SOL     vw 2652   0.909   3.661   3.454 -0.2051  0.2664  0.4157
  664SOL     ow 2653   2.029   0.212   2.837 -0.3797  0.0060 -0.3609
  664SOL     hw 2654   2.073   0.189   2.919  2.3000  1.0486 -1.4118
  664SOL     hw 2655   1.961   0.145   2.828  0.8386 -1.6073  1.4778
  664SOL     vw 2656   2.026   0.200   2.847  0.1346 -0.0693 -0.2569
  665SOL     ow 2657   3.725   3.307   1.910 -0.1433  0.2866 -0.1062
  665SOL     hw 2658   3.724   3.366   1.986 -1.4593  0.9164 -0.5812
  665SOL     hw 2659   3.633   3.287   1.894  0.3071 -3.3088  1.0365
  665SOL     vw 2660   3.713   3.312   1.918 -0.2575 -0.1047 -0.0181
  666SOL     ow 2661   2.668   2.114   3.116  0.0305 -0.2674  0.0673
  666SOL     hw 2662   2.675   2.028   3.074 -0.1869 -0.6619  0.8182
  666SOL     hw 2663   2.574   2.126   3.132 -0.0887  0.6890 -1.1830
  666SOL     vw 2664   2.656   2.104   3.113 -0.0139 -0.1931  0.0014
  667SOL     ow 2665   3.182   2.969   3.222 -0.0979 -0.2974 -0.5399
  667SOL     hw 2666   3.215   2.985   3.311  1.8409 -1.1587 -1.0476
  667SOL     hw 2667   3.208   2.878   3.203 -1.7577 -0.6253 -1.4753
  667SOL     vw 2668   3.189   2.959   3.231 -0.0610 -0.4542 -0.7302
  668SOL     ow 2669   2.906   6.919   4.269  1.0281  0.0081 -0.3008
  668SOL     hw 2670   2.878   6.829   4.251 -0.3447  0.2518  0.4988
  668SOL     hw 2671   2.956   6.945   4.191 -2.6900  0.2573 -2.8683
  668SOL     vw 2672   2.909   6.910   4.256  0.3564  0.0732 -0.5341
  669SOL     ow 2673   0.029   3.911   6.555  0.1343 -0.3345 -0.2994
  669SOL     hw 2674  -0.065   3.894   6.561  0.2322 -0.6290  0.6005
  669SOL     hw 2675   0.036   4.004   6.536 -0.3448  0.1773  1.7112
  669SOL     vw 2676   0.017   3.921   6.554  0.0840 -0.3058  0.0844
  670SOL     ow 2677   6.542   0.705   5.149 -0.0028 -0.3357  0.3228
  670SOL     hw 2678   6.449   0.723   5.133 -0.6183 -1.1091  2.5830
  670SOL     hw 2679   6.569   0.774   5.210  0.2600 -1.3337  1.3871
  670SOL     vw 2680   6.533   0.716   5.155 -0.0491 -0.5694  0.7615
  671SOL     ow 2681   4.507   0.241   0.035  0.0521 -0.7988 -0.5999
  671SOL     hw 2682   4.472   0.275  -0.047  0.6093 -0.6916 -0.8012
  671SOL     hw 2683   4.446   0.172   0.061 -0.4271 -0.4616 -0.8173
  671SOL     vw 2684   4.495   0.236   0.028  0.0622 -0.7402 -0.6552
  672SOL     ow 2685   4.792   0.081   3.587 -0.6464  0.3013  0.3970
  672SOL     hw 2686   4.814   0.048   3.674 -1.1151 -1.6592 -0.1701
  672SOL     hw 2687   4.838   0.023   3.527 -2.3709 -0.0191 -0.6868
  672SOL     vw 2688   4.801   0.069   3.590 -0.9358  0.0003  0.1794
  673SOL     ow 2689   1.663   5.223   2.114  0.1534  0.2872 -0.3081
  673SOL     hw 2690   1.749   5.199   2.148 -1.0415 -1.5039  1.6844
  673SOL     hw 2691   1.612   5.249   2.191 -2.0088 -1.7663 -0.9183
  673SOL     vw 2692   1.667   5.223   2.129 -0.2896 -0.2201 -0.1256
  674SOL     ow 2693   1.624   4.617   1.990  0.6637  0.3437 -0.2982
  674SOL     hw 2694   1.643   4.641   2.080 -0.0250 -1.3517  0.3455
  674SOL     hw 2695   1.704   4.636   1.942  0.6269  2.4632  0.3913
  674SOL     vw 2696   1.637   4.622   1.995  0.5680  0.3998 -0.1223
  675SOL     ow 2697   1.202   5.251   0.312 -0.3586 -0.4155 -0.2646
  675SOL     hw 2698   1.174   5.216   0.228 -0.7169  1.9005 -1.1946
  675SOL     hw 2699   1.139   5.215   0.375 -1.2665 -0.6940 -1.2882
  675SOL     vw 2700   1.190   5.242   0.309 -0.5257 -0.1471 -0.5223
  676SOL     ow 2701   0.790   5.284   3.292 -0.0823  0.4847 -0.5365
  676SOL     hw 2702   0.794   5.223   3.218 -1.0323 -0.2634  0.0073
  676SOL     hw 2703   0.873   5.273   3.337  1.0982  1.9211 -2.2115
  676SOL     vw 2704   0.801   5.275   3.288 -0.0518  0.5755 -0.6858
  677SOL     ow 2705   3.770   3.055   4.616 -0.7197 -0.6512 -0.4769
  677SOL     hw 2706   3.788   3.100   4.533 -0.6103  1.4904  0.6536
  677SOL     hw 2707   3.801   2.965   4.601  1.6625  0.3041 -1.9409
  677SOL     vw 2708   3.777   3.049   4.603 -0.3911 -0.2425 -0.5209
  678SOL     ow 2709   4.418   0.175   6.322  0.2795  0.5538 -0.6505
  678SOL     hw 2710   4.342   0.148   6.374  0.8076  0.2969  0.0067
  678SOL     hw 2711   4.477   0.100   6.325  1.4967  1.5025  0.6653
  678SOL     vw 2712   4.416   0.161   6.329  0.5100  0.6450 -0.3901
  679SOL     ow 2713   5.687   0.101   1.137  0.6977 -0.0070 -0.0076
  679SOL     hw 2714   5.781   0.098   1.153  0.6439 -0.2982  0.2755
  679SOL     hw 2715   5.677   0.159   1.062  1.1943 -0.8861 -0.7679
  679SOL     vw 2716   5.698   0.108   1.130  0.7563 -0.1614 -0.0706
  680SOL     ow 2717   0.356   1.700   1.702 -0.0573 -0.1616 -0.9330
  680SOL     hw 2718   0.389   1.626   1.651 -1.9517 -1.9125  0.1990
  680SOL     hw 2719   0.261   1.695   1.692 -0.3563  0.7340  1.0011
  680SOL     vw 2720   0.348   1.689   1.694 -0.3467 -0.2744 -0.5285
  681SOL     ow 2721   3.980   1.880   6.735  0.6916  0.0980  0.0534
  681SOL     hw 2722   3.917   1.848   6.670  0.5470  0.4466  0.0194
  681SOL     hw 2723   4.054   1.819   6.729  0.9084  0.4262 -0.8057
  681SOL     vw 2724   3.981   1.867   6.725  0.7012  0.1872 -0.0644
  682SOL     ow 2725   1.902   2.682   5.483 -0.6536  0.0455 -0.2745
  682SOL     hw 2726   1.831   2.673   5.547 -0.8370  0.9039 -0.3428
  682SOL     hw 2727   1.858   2.712   5.403 -0.4561 -1.1876 -0.8738
  682SOL     vw 2728   1.886   2.685   5.481 -0.6517 -0.0041 -0.3624
  683SOL     ow 2729   1.732   1.003   2.592 -0.3114  0.0933 -0.5904
  683SOL     hw 2730   1.641   1.013   2.619 -0.0712  1.2758 -0.1651
  683SOL     hw 2731   1.781   1.008   2.674  0.1778  0.0457 -0.8783
  683SOL     vw 2732   1.726   1.005   2.607 -0.2152  0.2430 -0.5723
  684SOL     ow 2733   0.905   2.760   0.449  0.0503  0.5853  0.3334
  684SOL     hw 2734   0.858   2.811   0.514 -0.6462  0.5782 -0.1617
  684SOL     hw 2735   0.894   2.669   0.476  0.0036  0.6003  0.3634
  684SOL     vw 2736   0.898   2.755   0.461 -0.0478  0.5864  0.2720
  685SOL     ow 2737   6.318   2.904   2.688 -0.7548  0.7888 -0.7336
  685SOL     hw 2738   6.377   2.838   2.651  1.0473  1.9631 -0.0916
  685SOL     hw 2739   6.335   2.982   2.636 -2.1766  1.0300 -0.8706
  685SOL     vw 2740   6.328   2.905   2.676 -0.7048  0.9756 -0.6671
  686SOL     ow 2741   1.888   4.636   2.938 -0.1085 -0.9393  0.2142
  686SOL     hw 2742   1.896   4.578   2.862  0.9425 -1.0577  0.3998
  686SOL     hw 2743   1.977   4.670   2.951 -0.8206  1.3208 -0.3546
  686SOL     vw 2744   1.901   4.633   2.929 -0.0638 -0.6568  0.1637
  687SOL     ow 2745   0.887   6.433   2.036  0.3253 -0.0189 -0.1765
  687SOL     hw 2746   0.841   6.504   1.990  1.5400  0.8680 -0.0814
  687SOL     hw 2747   0.852   6.435   2.125  0.9457  1.0516  0.0629
  687SOL     vw 2748   0.877   6.443   2.041  0.5674  0.2396 -0.1323
  688SOL     ow 2749   6.214   1.482   5.200 -0.0346 -0.3206 -0.0533
  688SOL     hw 2750   6.155   1.485   5.276  1.5179  0.6282  1.1800
  688SOL     hw 2751   6.222   1.574   5.172  0.5995 -0.4698 -0.3837
  688SOL     vw 2752   6.207   1.495   5.207  0.2542 -0.2151  0.0656
  689SOL     ow 2753   4.784   1.967   1.254  0.4027 -0.2285  0.9136
  689SOL     hw 2754   4.701   1.945   1.211 -0.2960  0.1090  2.0341
  689SOL     hw 2755   4.758   2.005   1.338  1.5917  2.4262  0.1975
  689SOL     vw 2756   4.770   1.969   1.260  0.4678  0.1662  0.9670
  690SOL     ow 2757   2.253   3.149   2.209 -0.1442  0.5228 -0.1000
  690SOL     hw 2758   2.229   3.068   2.253  0.0212  0.1114 -0.7540
  690SOL     hw 2759   2.170   3.183   2.175 -0.0135 -0.1665 -1.1374
  690SOL     vw 2760   2.239   3.143   2.210 -0.1050  0.3777 -0.3231
  691SOL     ow 2761   1.399   5.499   6.063 -0.0684  0.3371 -0.2078
  691SOL     hw 2762   1.492   5.475   6.070 -0.0462 -0.0786 -1.5386
  691SOL     hw 2763   1.388   5.524   5.971 -1.2493  0.5271 -0.0331
  691SOL     vw 2764   1.410   5.499   6.051 -0.2213  0.3073 -0.3600
  692SOL     ow 2765   1.104   3.859   3.403  0.5393  0.6655 -0.2576
  692SOL     hw 2766   1.033   3.797   3.419  0.9555  0.4773  0.9905
  692SOL     hw 2767   1.060   3.942   3.388 -0.0435  0.0358 -2.3116
  692SOL     vw 2768   1.089   3.861   3.403  0.5174  0.5575 -0.3639
  693SOL     ow 2769   3.820   3.200   1.607 -0.3927  0.2152 -0.2202
  693SOL     hw 2770   3.749   3.138   1.623  0.4454 -0.9143 -0.7420
  693SOL     hw 2771   3.837   3.194   1.513 -0.8393  1.8808 -0.4455
  693SOL     vw 2772   3.813   3.191   1.597 -0.3411  0.2860 -0.3188
  694SOL     ow 2773   5.811   6.333   0.586  0.2093 -0.1963 -0.4079
  694SOL     hw 2774   5.856   6.301   0.664  0.2297  0.4273 -0.1534
  694SOL     hw 2775   5.719   6.340   0.613  0.1981 -0.0919 -0.4709
  694SOL     vw 2776   5.805   6.330   0.600  0.2103 -0.1004 -0.3826
  695SOL     ow 2777   0.601   6.811   1.933  0.9323  0.8731  0.7041
  695SOL     hw 2778   0.660   6.736   1.920  0.7381  0.7469  0.5607
  695SOL     hw 2779   0.597   6.821   2.028 -0.1816 -0.2001  0.7903
  695SOL     vw 2780   0.609   6.802   1.944  0.7598  0.7145  0.6965
  696SOL     ow 2781   0.033   3.686   6.827  0.1246  0.1520  0.3156
  696SOL     hw 2782  -0.049   3.702   6.875 -0.3174 -0.2783 -0.2762
  696SOL     hw 2783   0.076   3.616   6.875  0.0980  0.3075  0.5703
  696SOL     vw 2784   0.028   3.679   6.839  0.0628  0.1159  0.2711
  697SOL     ow 2785   2.225   3.872   3.371  0.5831 -0.1612 -0.6435
  697SOL     hw 2786   2.263   3.794   3.411  3.3952  1.6091  0.5113
  697SOL     hw 2787   2.161   3.903   3.435 -0.1002 -1.1356 -0.8291
  697SOL     vw 2788   2.222   3.866   3.385  0.8640 -0.0563 -0.5157
  698SOL     ow 2789   6.046   3.394   5.499  0.0023 -0.1610  0.5317
  698SOL     hw 2790   5.994   3.329   5.547 -0.5923 -0.4314 -0.4540
  698SOL     hw 2791   5.992   3.417   5.423  0.5007  0.9839  0.4973
  698SOL     vw 2792   6.032   3.388   5.495 -0.0105 -0.0457  0.3970
  699SOL     ow 2793   3.190   3.326   3.512 -0.5524 -0.6226 -0.1651
  699SOL     hw 2794   3.255   3.358   3.449 -0.1750  1.3829  1.1531
  699SOL     hw 2795   3.107   3.332   3.466 -0.0751 -1.1104 -1.1285
  699SOL     vw 2796   3.188   3.331   3.497 -0.4395 -0.4225 -0.1183
  700SOL     ow 2797   1.162   5.301   4.299 -0.1319 -0.5092  0.0985
  700SOL     hw 2798   1.241   5.247   4.299  0.7038  0.6680  0.3614
  700SOL     hw 2799   1.159   5.339   4.211 -1.3044 -1.7742 -0.4403
  700SOL     vw 2800   1.172   5.299   4.287 -0.1764 -0.5207  0.0622
  701SOL     ow 2801   5.485   1.761   4.541  0.2640 -0.3062 -0.3839
  701SOL     hw 2802   5.403   1.808   4.530  0.1206 -0.4162  0.2079
  701SOL     hw 2803   5.463   1.670   4.521  0.5176 -0.1505 -1.4243
  701SOL     vw 2804   5.472   1.755   4.537  0.2785 -0.3002 -0.4432
  702SOL     ow 2805   6.361   2.235   4.797  0.8627  0.0901 -0.4968
  702SOL     hw 2806   6.307   2.199   4.726  1.3720 -0.1277 -0.7796
  702SOL     hw 2807   6.384   2.323   4.767  4.5184 -1.3620 -2.6042
  702SOL     vw 2808   6.357   2.241   4.784  1.4124 -0.1302 -0.8121
  703SOL     ow 2809   5.828   4.537   0.589 -0.5215  0.9537  0.0728
  703SOL     hw 2810   5.884   4.580   0.653  2.6497  0.3456 -2.0598
  703SOL     hw 2811   5.826   4.445   0.616  0.3408  0.7997 -0.3791
  703SOL     vw 2812   5.835   4.531   0.601  0.0105  0.8533 -0.2682
  704SOL     ow 2813   5.790   0.696   1.379  0.1793  0.8451  0.0075
  704SOL     hw 2814   5.822   0.736   1.460 -3.2128 -0.4119  2.2142
  704SOL     hw 2815   5.840   0.614   1.371  1.5873  1.6829 -0.0702
  704SOL     vw 2816   5.801   0.690   1.388 -0.0825  0.7898  0.2884
  705SOL     ow 2817   6.934   2.638   0.621 -0.4613  0.3127  0.2911
  705SOL     hw 2818   7.020   2.609   0.650 -1.8341 -4.5692  0.3445
  705SOL     hw 2819   6.944   2.654   0.527  0.8024  1.6473  0.6144
  705SOL     vw 2820   6.946   2.636   0.612 -0.4759 -0.1553  0.3408
  706SOL     ow 2821   5.922   6.457   2.734  0.2691  0.3064 -0.3466
  706SOL     hw 2822   5.881   6.543   2.725 -0.1565  0.1377 -0.0730
  706SOL     hw 2823   5.890   6.407   2.658  1.4935  0.7596 -1.1970
  706SOL     vw 2824   5.912   6.461   2.722  0.3743  0.3438 -0.4226
  707SOL     ow 2825   3.034   0.963   6.532  0.9244 -0.4731  0.1536
  707SOL     hw 2826   3.039   0.974   6.627 -1.8155 -1.5593  0.5245
  707SOL     hw 2827   2.991   0.878   6.519 -0.2265  0.3365 -1.9826
  707SOL     vw 2828   3.029   0.953   6.543  0.4110 -0.5096 -0.0792
  708SOL     ow 2829   5.314   6.115   4.704  0.1047 -0.1099 -0.1019
  708SOL     hw 2830   5.254   6.189   4.714 -2.5409 -1.7100 -2.6759
  708SOL     hw 2831   5.397   6.155   4.677 -0.7014  1.9747  0.3112
  708SOL     vw 2832   5.317   6.130   4.702 -0.3507 -0.0463 -0.3867
  709SOL     ow 2833   2.946   3.338   3.419  0.4794 -0.3562 -0.2583
  709SOL     hw 2834   2.900   3.413   3.457  2.9777  0.1389  2.0658
  709SOL     hw 2835   2.968   3.365   3.330 -0.7154  0.6712 -0.2740
  709SOL     vw 2836   2.943   3.351   3.413  0.6512 -0.1554  0.0461
  710SOL     ow 2837   4.841   1.466   6.888 -0.0913  0.3810  0.3256
  710SOL     hw 2838   4.917   1.520   6.910 -0.8505  1.1268  1.2728
  710SOL     hw 2839   4.864   1.378   6.916  1.4012  0.0377 -1.7775
  710SOL     vw 2840   4.854   1.462   6.895  0.0055  0.4340  0.1733
  711SOL     ow 2841   1.748   2.793   2.756  0.4464 -1.2275  0.0886
  711SOL     hw 2842   1.714   2.882   2.764  1.8655 -0.7471  1.2532
  711SOL     hw 2843   1.710   2.760   2.675  0.1458  0.5456 -0.5320
  711SOL     vw 2844   1.738   2.800   2.747  0.5940 -0.9301  0.1605
  712SOL     ow 2845   3.743   3.211   6.845 -0.3182 -0.3653 -0.3683
  712SOL     hw 2846   3.721   3.143   6.908 -0.5239 -0.5764 -0.6658
  712SOL     hw 2847   3.817   3.175   6.796  0.3077  0.0895  0.2190
  712SOL     vw 2848   3.750   3.197   6.847 -0.2627 -0.3333 -0.3302
  713SOL     ow 2849   4.688   5.328   1.733  0.3097 -0.2192 -0.2232
  713SOL     hw 2850   4.677   5.253   1.791 -1.2016 -1.4001 -1.9134
  713SOL     hw 2851   4.768   5.310   1.685  0.4629 -0.2783  0.0568
  713SOL     vw 2852   4.697   5.316   1.734  0.1307 -0.3824 -0.4093
  714SOL     ow 2853   3.493   4.583   2.645 -0.4533 -0.1186 -0.0602
  714SOL     hw 2854   3.459   4.509   2.596 -2.1508  0.5559  0.0068
  714SOL     hw 2855   3.445   4.659   2.610  0.4738  0.7897  0.5797
  714SOL     vw 2856   3.482   4.583   2.634 -0.5550  0.0899  0.0329
  715SOL     ow 2857   1.248   5.625   2.611 -0.6902 -0.2393 -0.7568
  715SOL     hw 2858   1.268   5.532   2.601 -1.7798 -0.5681 -0.0625
  715SOL     hw 2859   1.330   5.664   2.640 -0.5347 -1.2076  0.1774
  715SOL     vw 2860   1.261   5.618   2.613 -0.8134 -0.4106 -0.5419
  716SOL     ow 2861   3.634   5.761   2.894 -0.3237  0.2683 -0.2916
  716SOL     hw 2862   3.570   5.767   2.965 -1.2224  0.6475 -1.1108
  716SOL     hw 2863   3.646   5.667   2.881 -1.9134  0.1433 -1.1475
  716SOL     vw 2864   3.627   5.749   2.902 -0.6521  0.3018 -0.5125
  717SOL     ow 2865   4.491   4.114   6.464  0.6997  0.6022  0.0473
  717SOL     hw 2866   4.511   4.068   6.383 -0.7078 -1.9844  1.0351
  717SOL     hw 2867   4.526   4.057   6.533  1.8578  2.7138  1.3068
  717SOL     vw 2868   4.498   4.100   6.463  0.6669  0.5395  0.3438
  718SOL     ow 2869   5.240   3.584   4.988  0.0085 -0.1322  0.3643
  718SOL     hw 2870   5.183   3.535   5.048  0.7574 -1.3257  0.1354
  718SOL     hw 2871   5.322   3.593   5.035 -0.3541  1.6181  0.7055
  718SOL     vw 2872   5.243   3.579   5.002  0.0594 -0.0589  0.3793
  719SOL     ow 2873   4.121   6.131   0.076 -0.2424 -0.4780 -0.2420
  719SOL     hw 2874   4.200   6.081   0.059  0.0137 -0.1269 -0.0957
  719SOL     hw 2875   4.075   6.135  -0.008  0.1349 -0.2634 -0.4373
  719SOL     vw 2876   4.125   6.125   0.063 -0.1585 -0.4036 -0.2485
  720SOL     ow 2877   4.308   3.866   1.811  0.1521 -0.4488 -0.4029
  720SOL     hw 2878   4.384   3.859   1.870  1.8383 -0.9242 -2.4900
  720SOL     hw 2879   4.258   3.940   1.845  1.5184 -0.1531  1.0954
  720SOL     vw 2880   4.312   3.875   1.823  0.5550 -0.4725 -0.4805
  721SOL     ow 2881   5.940   1.361   5.591  0.2093 -0.3490 -0.5217
  721SOL     hw 2882   5.867   1.319   5.546 -0.8738  0.0554  0.8226
  721SOL     hw 2883   5.997   1.289   5.617  0.4077 -0.6540 -1.7025
  721SOL     vw 2884   5.938   1.346   5.588  0.0925 -0.3359 -0.5002
  722SOL     ow 2885   1.089   5.476   0.264  0.3712 -0.2020 -0.0742
  722SOL     hw 2886   1.110   5.482   0.171  0.7038 -1.0440 -0.0641
  722SOL     hw 2887   1.133   5.396   0.293  2.8398  1.5821  1.5059
  722SOL     vw 2888   1.098   5.466   0.256  0.7407 -0.0777  0.1356
  723SOL     ow 2889   0.274   6.797   3.696  0.9558 -0.4132 -0.0048
  723SOL     hw 2890   0.320   6.875   3.667  0.4198 -0.1812 -0.2441
  723SOL     hw 2891   0.310   6.726   3.643 -0.0535  0.0114 -1.3277
  723SOL     vw 2892   0.285   6.798   3.685  0.7519 -0.3269 -0.2109
  724SOL     ow 2893   4.775   5.684   1.987 -0.3561  0.0688 -0.1152
  724SOL     hw 2894   4.862   5.690   2.028  0.0117 -1.7751 -0.5178
  724SOL     hw 2895   4.752   5.774   1.966  2.4917  0.4825 -2.0924
  724SOL     vw 2896   4.784   5.697   1.990  0.0682 -0.1199 -0.4291
  725SOL     ow 2897   3.781   0.712   2.038 -0.1793  0.3147 -0.5976
  725SOL     hw 2898   3.765   0.749   1.951 -0.7284  3.2742  0.6643
  725SOL     hw 2899   3.695   0.685   2.069 -0.2515  0.8576 -0.3157
  725SOL     vw 2900   3.768   0.713   2.031 -0.2613  0.7768 -0.3939
  726SOL     ow 2901   3.516   6.218   4.555 -0.2457  0.6035 -0.3163
  726SOL     hw 2902   3.485   6.258   4.473  0.7538  0.0751 -0.9756
  726SOL     hw 2903   3.464   6.138   4.564 -1.2638  1.3090  0.2644
  726SOL     vw 2904   3.505   6.213   4.545 -0.2482  0.6270 -0.3269
  727SOL     ow 2905   0.082   3.923   5.866  0.0442 -0.2975 -0.3282
  727SOL     hw 2906   0.136   3.843   5.864 -3.0728 -2.5640 -1.4480
  727SOL     hw 2907   0.010   3.902   5.924 -0.6923  1.9193 -0.3512
  727SOL     vw 2908   0.080   3.909   5.873 -0.4642 -0.3041 -0.4787
  728SOL     ow 2909   0.833   1.525   1.083  0.7089  0.0925 -0.3213
  728SOL     hw 2910   0.769   1.591   1.111  1.1712  0.4818 -0.1729
  728SOL     hw 2911   0.802   1.443   1.123 -0.1056  0.1241 -0.8593
  728SOL     vw 2912   0.821   1.522   1.092  0.6625  0.1480 -0.3727
  729SOL     ow 2913   6.201   6.326   4.107  0.1310  0.3934 -0.9362
  729SOL     hw 2914   6.129   6.360   4.160  1.0102  1.2390 -0.2525
  729SOL     hw 2915   6.280   6.357   4.151  0.9864 -2.0446 -0.5983
  729SOL     vw 2916   6.202   6.334   4.120  0.3600  0.1833 -0.8013
  730SOL     ow 2917   2.955   1.179   5.436  0.5262 -0.7942 -0.0054
  730SOL     hw 2918   3.021   1.222   5.381  1.5913 -0.8336  1.1805
  730SOL     hw 2919   2.968   1.086   5.421 -1.0694 -0.7736 -1.7708
  730SOL     vw 2920   2.966   1.173   5.427  0.4561 -0.7967 -0.0820
  731SOL     ow 2921   2.010   7.001   0.044 -0.1088  0.1797  0.1906
  731SOL     hw 2922   1.945   7.072   0.043  0.5124  0.7817 -1.8189
  731SOL     hw 2923   1.998   6.957  -0.040  2.7340  0.9865 -0.7365
  731SOL     vw 2924   2.000   7.005   0.033  0.3483  0.3660 -0.1968
  732SOL     ow 2925   0.337   3.335   5.324  0.0475  0.0362 -0.3688
  732SOL     hw 2926   0.367   3.244   5.329  1.5740  0.5117 -0.1907
  732SOL     hw 2927   0.273   3.336   5.253  0.1369 -1.1435 -0.4746
  732SOL     vw 2928   0.333   3.323   5.315  0.2607 -0.0567 -0.3588
  733SOL     ow 2929   6.510   6.477   2.691  0.1862  0.2529 -0.4564
  733SOL     hw 2930   6.524   6.435   2.606  0.7051 -2.0488  0.6891
  733SOL     hw 2931   6.567   6.553   2.689  0.0253  0.3801 -2.2442
  733SOL     vw 2932   6.519   6.481   2.679  0.2334 -0.0341 -0.5412
  734SOL     ow 2933   1.436   1.456   6.349 -0.3142  0.1313  0.3858
  734SOL     hw 2934   1.479   1.503   6.420 -0.8722  1.7006 -0.2814
  734SOL     hw 2935   1.507   1.414   6.301  0.2581  0.7658  0.6643
  734SOL     vw 2936   1.451   1.456   6.352 -0.3123  0.4222  0.3345
  735SOL     ow 2937   5.292   0.087   5.423 -1.0069  0.0701  0.0852
  735SOL     hw 2938   5.286   0.179   5.450 -0.4346  0.3381 -0.6384
  735SOL     hw 2939   5.380   0.079   5.386 -0.2980 -1.3024  1.9693
  735SOL     vw 2940   5.303   0.098   5.421 -0.8378 -0.0756  0.2382
  736SOL     ow 2941   5.189   3.889   4.916 -0.3896  0.7222  0.1960
  736SOL     hw 2942   5.149   3.975   4.903  1.3853  1.8633  1.6846
  736SOL     hw 2943   5.278   3.909   4.946 -0.2216 -1.6195  1.4747
  736SOL     vw 2944   5.195   3.903   4.918 -0.1333  0.5637  0.5610
  737SOL     ow 2945   6.651   4.048   4.820 -0.0412 -0.3002  0.0724
  737SOL     hw 2946   6.639   4.063   4.913  0.1783 -0.3821  0.1159
  737SOL     hw 2947   6.606   4.121   4.777  2.6708  1.6881  0.3021
  737SOL     vw 2948   6.644   4.059   4.826  0.3457 -0.0486  0.1085
  738SOL     ow 2949   5.711   4.998   6.391 -0.5999 -0.2601  0.4051
  738SOL     hw 2950   5.641   5.032   6.335  0.5513  0.6843 -0.5397
  738SOL     hw 2951   5.752   5.076   6.428  0.3535 -0.7535  0.4216
  738SOL     vw 2952   5.707   5.013   6.388 -0.3221 -0.2005  0.2830
  739SOL     ow 2953   6.958   2.271   2.615  0.0478 -0.0395  0.1056
  739SOL     hw 2954   7.051   2.293   2.620  1.0158 -3.4178 -0.4150
  739SOL     hw 2955   6.916   2.349   2.579  2.4198  2.0862  1.6559
  739SOL     vw 2956   6.964   2.284   2.611  0.4883 -0.2049  0.2414
  740SOL     ow 2957   6.359   0.797   1.892 -0.4256  0.3244  0.2189
  740SOL     hw 2958   6.401   0.715   1.920  0.9669  0.4986 -1.1810
  740SOL     hw 2959   6.267   0.774   1.881 -0.2004 -0.8620  0.5830
  740SOL     vw 2960   6.353   0.783   1.894 -0.2122  0.1909  0.0823
  741SOL     ow 2961   2.305   2.730   6.064 -0.0769  0.4714 -0.4565
  741SOL     hw 2962   2.268   2.645   6.089  1.2329 -0.2963 -1.0361
  741SOL     hw 2963   2.400   2.716   6.065  0.3955  2.7823  2.4850
  741SOL     vw 2964   2.312   2.717   6.068  0.1583  0.6748 -0.1452
  742SOL     ow 2965   6.104   2.432   1.187 -0.3317  0.5198  0.0107
  742SOL     hw 2966   6.092   2.399   1.277 -1.3154 -0.4435 -0.4595
  742SOL     hw 2967   6.195   2.462   1.186 -0.2664  0.4595  1.3019
  742SOL     vw 2968   6.115   2.431   1.199 -0.4528  0.3848  0.1190
  743SOL     ow 2969   3.862   2.716   2.594  0.6577 -0.6695 -0.3666
  743SOL     hw 2970   3.912   2.718   2.513  0.7464  0.0594 -0.3006
  743SOL     hw 2971   3.822   2.629   2.596  0.4550 -0.6022 -1.3139
  743SOL     vw 2972   3.863   2.705   2.584  0.6427 -0.5643 -0.4828
  744SOL     ow 2973   5.704   3.674   3.323  0.2087 -0.0965  0.3431
  744SOL     hw 2974   5.641   3.737   3.358 -0.1562 -0.9570  1.2780
  744SOL     hw 2975   5.784   3.725   3.310 -0.3493  0.7630  0.2034
  744SOL     vw 2976   5.706   3.689   3.326  0.0868 -0.0966  0.4480
  745SOL     ow 2977   6.180   6.453   1.717  0.2541  0.2691 -0.0582
  745SOL     hw 2978   6.242   6.444   1.644  0.2883 -0.5902  0.0691
  745SOL     hw 2979   6.107   6.396   1.693  0.6938 -0.7916  1.0145
  745SOL     vw 2980   6.179   6.444   1.704  0.3169  0.0157  0.1001
  746SOL     ow 2981   1.764   4.731   3.233 -0.0866  0.1378 -0.3738
  746SOL     hw 2982   1.762   4.657   3.294  0.3873 -0.1156 -0.6616
  746SOL     hw 2983   1.716   4.800   3.278  2.8699  1.0274  1.7074
  746SOL     vw 2984   1.758   4.730   3.247  0.3660  0.2217 -0.1371
  747SOL     ow 2985   1.591   3.170   5.342  0.5555  0.0783  0.1325
  747SOL     hw 2986   1.615   3.167   5.435  0.2593  0.4815  0.2264
  747SOL     hw 2987   1.514   3.113   5.335  0.5936  0.0273  0.1325
  747SOL     vw 2988   1.584   3.162   5.353  0.5215  0.1246  0.1450
  748SOL     ow 2989   2.339   5.727   0.295  0.1857 -0.3598  0.3169
  748SOL     hw 2990   2.388   5.773   0.227  0.1135  0.1046  0.5727
  748SOL     hw 2991   2.262   5.693   0.250  0.5326 -0.7343  0.0020
  748SOL     vw 2992   2.335   5.729   0.280  0.2220 -0.3481  0.3091
  749SOL     ow 2993   0.345   6.754   5.311  0.6536 -0.2887 -0.3996
  749SOL     hw 2994   0.300   6.804   5.243  0.9929  0.2345 -0.2442
  749SOL     hw 2995   0.425   6.722   5.269  1.1282  0.4859 -0.1009
  749SOL     vw 2996   0.350   6.756   5.296  0.7610 -0.1175 -0.3400
  750SOL     ow 2997   3.230   3.657   4.780 -0.3134 -0.0892  0.0908
  750SOL     hw 2998   3.316   3.689   4.810  0.2809  1.0215 -2.5214
  750SOL     hw 2999   3.235   3.562   4.789  0.6696  0.0445  1.2214
  750SOL     vw 3000   3.242   3.649   4.785 -0.1053  0.0750 -0.1047
  751SOL     ow 3001   3.026   4.938   5.068  0.2938 -0.6736 -0.0217
  751SOL     hw 3002   3.079   4.935   4.989 -1.3616  1.0038 -1.2981
  751SOL     hw 3003   3.013   4.847   5.093  1.3858 -1.2082 -1.3147
  751SOL     vw 3004   3.031   4.926   5.061  0.2195 -0.5231 -0.3607
  752SOL     ow 3005   4.768   1.299   5.454 -0.1173 -0.2068  0.1714
  752SOL     hw 3006   4.698   1.325   5.513  0.0173  2.7455 -0.8309
  752SOL     hw 3007   4.727   1.240   5.391 -0.6996 -1.7676  1.9057
  752SOL     vw 3008   4.754   1.294   5.454 -0.1764 -0.0232  0.2680
  753SOL     ow 3009   0.656   0.981   2.704 -0.3009 -0.8664  0.0111
  753SOL     hw 3010   0.686   1.026   2.783  2.5940 -0.6963 -1.0535
  753SOL     hw 3011   0.583   0.927   2.733 -0.1085  0.0890  2.5257
  753SOL     vw 3012   0.651   0.980   2.718  0.1065 -0.7179  0.2023
  754SOL     ow 3013   1.014   2.626   0.157  0.1761 -0.4611  0.1435
  754SOL     hw 3014   0.975   2.540   0.171 -0.0401 -0.5281 -0.7792
  754SOL     hw 3015   1.108   2.610   0.153  0.4640 -0.1644  3.3946
  754SOL     vw 3016   1.021   2.613   0.158  0.1855 -0.4306  0.4507
  755SOL     ow 3017   5.136   4.959   2.388  0.1986 -0.3358 -0.7863
  755SOL     hw 3018   5.099   4.909   2.461  2.0741 -1.4633 -0.5364
  755SOL     hw 3019   5.104   4.914   2.309 -0.3405 -0.2293 -0.6350
  755SOL     vw 3020   5.127   4.946   2.387  0.3746 -0.4704 -0.7333
  756SOL     ow 3021   1.831   1.554   4.379  0.0158  0.2125 -0.4974
  756SOL     hw 3022   1.799   1.518   4.296  2.1503 -1.8288 -0.5351
  756SOL     hw 3023   1.796   1.495   4.446  0.6041  0.1560 -0.2304
  756SOL     vw 3024   1.822   1.542   4.376  0.3750 -0.0643 -0.4671
  757SOL     ow 3025   3.723   1.408   3.411  0.9737 -0.2385  0.1729
  757SOL     hw 3026   3.797   1.402   3.470  1.1328  1.8643  0.2549
  757SOL     hw 3027   3.646   1.392   3.466  1.3161 -2.1838  0.1311
  757SOL     vw 3028   3.723   1.405   3.426  1.0399 -0.2177  0.1782
  758SOL     ow 3029   5.415   2.399   0.449  0.3811  0.7592 -0.3176
  758SOL     hw 3030   5.473   2.437   0.383 -0.0882  2.0476 -0.0377
  758SOL     hw 3031   5.445   2.439   0.532 -0.5938  1.0927 -0.1137
  758SOL     vw 3032   5.427   2.410   0.451  0.1907  0.9731 -0.2538
  759SOL     ow 3033   4.284   1.844   5.913 -0.7841 -0.0174  0.5365
  759SOL     hw 3034   4.241   1.928   5.930  3.0306  2.4433 -0.6196
  759SOL     hw 3035   4.289   1.839   5.817 -0.8709 -1.5469  0.5911
  759SOL     vw 3036   4.279   1.854   5.902 -0.2923  0.1055  0.3912
  760SOL     ow 3037   6.789   2.839   6.525  0.3063 -0.5378  0.2331
  760SOL     hw 3038   6.859   2.773   6.522  0.9973  0.2078 -0.9922
  760SOL     hw 3039   6.753   2.832   6.613  0.8685 -2.0282  0.3774
  760SOL     vw 3040   6.793   2.829   6.536  0.4718 -0.6361  0.0904
  761SOL     ow 3041   0.139   1.128   4.881  0.0305  0.7226 -0.4456
  761SOL     hw 3042   0.162   1.045   4.924  1.1517  2.1833  1.9851
  761SOL     hw 3043   0.180   1.122   4.794  2.2177 -0.3123  0.5758
  761SOL     vw 3044   0.147   1.116   4.875  0.4670  0.7788  0.0098
  762SOL     ow 3045   0.768   3.727   0.853  0.8176 -0.3760 -0.4592
  762SOL     hw 3046   0.827   3.702   0.925  1.2187 -1.1412 -1.0343
  762SOL     hw 3047   0.786   3.820   0.839  3.1572 -0.9427 -1.7206
  762SOL     vw 3048   0.778   3.736   0.861  1.1791 -0.5517 -0.7015
  763SOL     ow 3049   0.056   5.894   4.222  0.1376  0.3204  0.4144
  763SOL     hw 3050   0.016   5.958   4.164  0.7741 -0.0279 -0.4375
  763SOL     hw 3051   0.143   5.929   4.241 -0.4742  1.0095  2.1476
  763SOL     vw 3052   0.062   5.907   4.217  0.1408  0.3653  0.5305
  764SOL     ow 3053   5.441   1.083   0.493  0.0716  0.0516 -0.1873
  764SOL     hw 3054   5.536   1.085   0.476  0.3826  1.7536  1.4712
  764SOL     hw 3055   5.427   0.999   0.536  1.1713  0.4950  1.1263
  764SOL     vw 3056   5.452   1.072   0.497  0.2577  0.3346  0.2048
  765SOL     ow 3057   3.202   5.168   1.965  0.2550  0.8893 -0.3614
  765SOL     hw 3058   3.293   5.161   1.995 -0.0402  2.7263  1.1254
  765SOL     hw 3059   3.167   5.244   2.011 -2.2228 -0.0850 -0.4804
  765SOL     vw 3060   3.210   5.177   1.975 -0.1109  1.0030 -0.1810
  766SOL     ow 3061   4.715   0.373   6.283 -0.8108  0.0008  0.0023
  766SOL     hw 3062   4.783   0.306   6.275 -0.8623 -0.1301  0.6067
  766SOL     hw 3063   4.752   0.451   6.242 -1.5653 -0.9662 -2.6838
  766SOL     vw 3064   4.729   0.374   6.277 -0.9172 -0.1441 -0.2723
  767SOL     ow 3065   1.807   6.003   0.651  0.3002 -0.1532 -0.1195
  767SOL     hw 3066   1.841   6.046   0.573 -1.1448 -0.2376 -0.8217
  767SOL     hw 3067   1.782   6.076   0.709 -0.6773 -0.0518 -0.6567
  767SOL     vw 3068   1.808   6.019   0.648 -0.0195 -0.1509 -0.2830
  768SOL     ow 3069   3.959   6.789   1.530 -0.5956  0.0549 -0.3082
  768SOL     hw 3070   3.917   6.875   1.527 -0.8353 -0.0623 -0.3172
  768SOL     hw 3071   3.888   6.728   1.550  0.0288  0.1616  2.6142
  768SOL     vw 3072   3.944   6.792   1.532 -0.5449  0.0534  0.0762
  769SOL     ow 3073   0.770   6.522   1.601 -0.5109  0.5587  0.8977
  769SOL     hw 3074   0.802   6.581   1.533 -0.0289 -0.2109  0.4495
  769SOL     hw 3075   0.681   6.499   1.573 -0.1537 -0.1045  0.2906
  769SOL     vw 3076   0.762   6.527   1.588 -0.4002  0.3698  0.7585
  770SOL     ow 3077   4.908   1.288   5.814  0.3713  0.4233 -0.5818
  770SOL     hw 3078   4.940   1.377   5.799 -0.9034  0.9883 -0.1267
  770SOL     hw 3079   4.815   1.292   5.791 -0.0089 -0.4395  0.6881
  770SOL     vw 3080   4.900   1.300   5.809  0.1531  0.3842 -0.3541
  771SOL     ow 3081   3.858   5.590   5.915  0.5625  0.4252  0.2151
  771SOL     hw 3082   3.942   5.548   5.935 -1.1896 -3.0334  1.0778
  771SOL     hw 3083   3.848   5.577   5.820  1.2250  1.4368 -0.0138
  771SOL     vw 3084   3.868   5.583   5.905  0.4187  0.1025  0.2987
  772SOL     ow 3085   6.344   6.387   0.354  0.0231  0.1021 -0.3368
  772SOL     hw 3086   6.366   6.431   0.436  1.2875 -1.5695  0.2547
  772SOL     hw 3087   6.426   6.387   0.303 -0.7309  1.0960 -1.6296
  772SOL     vw 3088   6.358   6.393   0.358  0.0901  0.0126 -0.4293
  773SOL     ow 3089   6.195   4.691   4.230 -0.0575 -0.2470 -0.3646
  773SOL     hw 3090   6.240   4.655   4.154  1.1759 -1.7328  0.9876
  773SOL     hw 3091   6.247   4.662   4.305 -0.9049  1.6128  1.0425
  773SOL     vw 3092   6.208   4.682   4.230 -0.0064 -0.1976 -0.0010
  774SOL     ow 3093   3.548   6.143   5.722  0.2284 -0.2338 -0.1801
  774SOL     hw 3094   3.632   6.166   5.761 -0.5941 -0.5015  1.8343
  774SOL     hw 3095   3.549   6.048   5.716 -0.0924 -0.2632  0.2266
  774SOL     vw 3096   3.559   6.134   5.726  0.0776 -0.2728  0.1392
  775SOL     ow 3097   5.233   0.075   4.416 -0.7827 -0.1589  0.2939
  775SOL     hw 3098   5.203  -0.009   4.450 -2.3103  1.0233  2.1386
  775SOL     hw 3099   5.318   0.089   4.457 -0.1441 -1.1437 -0.6693
  775SOL     vw 3100   5.240   0.066   4.426 -0.9000 -0.1328  0.4101
  776SOL     ow 3101   0.856   5.931   6.667 -0.5457 -0.4900 -0.3521
  776SOL     hw 3102   0.769   5.941   6.628  0.0674  0.0497 -1.6216
  776SOL     hw 3103   0.864   5.838   6.684 -1.7790 -0.4233  0.7825
  776SOL     vw 3104   0.846   5.920   6.664 -0.6275 -0.4098 -0.3698
  777SOL     ow 3105   3.444   2.715   5.971  0.1553  0.5918 -0.2320
  777SOL     hw 3106   3.417   2.705   6.062  0.6842 -1.1234 -0.2312
  777SOL     hw 3107   3.515   2.778   5.974  0.3005  0.4012  0.5782
  777SOL     vw 3108   3.450   2.722   5.983  0.2443  0.3405 -0.1249
  778SOL     ow 3109   5.357   1.201   0.260 -0.3845  0.4667 -0.1109
  778SOL     hw 3110   5.391   1.174   0.174 -1.2543 -0.4488 -0.1968
  778SOL     hw 3111   5.407   1.148   0.323 -0.3650  0.4813 -0.1141
  778SOL     vw 3112   5.368   1.190   0.257 -0.4969  0.3479 -0.1227
  779SOL     ow 3113   2.449   1.005   5.035 -0.2267 -0.2556  0.2290
  779SOL     hw 3114   2.395   0.952   5.095 -0.2131 -2.1726 -1.3481
  779SOL     hw 3115   2.390   1.027   4.963  0.0753  1.0385  0.3446
  779SOL     vw 3116   2.434   1.001   5.034 -0.1850 -0.3378  0.0360
  780SOL     ow 3117   0.211   1.912   6.455 -0.1381 -0.6047 -0.3546
  780SOL     hw 3118   0.163   1.855   6.514 -2.1876  0.6917 -0.6578
  780SOL     hw 3119   0.210   1.997   6.498 -0.0715 -0.0564 -1.4073
  780SOL     vw 3120   0.205   1.916   6.468 -0.3997 -0.3613 -0.5333
  781SOL     ow 3121   5.755   6.352   5.474 -0.2028  0.3441  0.3399
  781SOL     hw 3122   5.681   6.396   5.517  0.2406  0.7779  0.6835
  781SOL     hw 3123   5.815   6.332   5.546  1.1467  2.2190 -0.1664
  781SOL     vw 3124   5.754   6.355   5.489  0.0341  0.6485  0.3183
  782SOL     ow 3125   0.632   1.819   1.912  0.4975  0.2232 -0.3212
  782SOL     hw 3126   0.684   1.740   1.928  0.5130  0.2462 -0.2603
  782SOL     hw 3127   0.674   1.887   1.965 -2.2291 -0.7112  3.4232
  782SOL     vw 3128   0.645   1.817   1.921  0.1398  0.1030  0.1808
  783SOL     ow 3129   5.777   2.036   3.537 -0.4709 -0.4251  0.6239
  783SOL     hw 3130   5.821   2.040   3.452 -3.1394  0.1871 -0.8306
  783SOL     hw 3131   5.741   1.947   3.541 -0.1490 -0.5294  1.2311
  783SOL     vw 3132   5.778   2.024   3.526 -0.7803 -0.3580  0.5121
  784SOL     ow 3133   2.754   1.234   1.660  0.2915  0.6627 -0.0931
  784SOL     hw 3134   2.764   1.170   1.731 -4.9548 -0.2333  0.2491
  784SOL     hw 3135   2.804   1.197   1.587 -0.9844 -3.0209  0.6665
  784SOL     vw 3136   2.762   1.221   1.660 -0.5690  0.0585  0.0523
  785SOL     ow 3137   5.993   4.707   3.114 -0.0732 -0.4207  0.0985
  785SOL     hw 3138   5.900   4.725   3.104  0.1246  1.0498  0.7060
  785SOL     hw 3139   6.025   4.694   3.024 -0.5514  0.7242 -0.2531
  785SOL     vw 3140   5.985   4.708   3.101 -0.1104 -0.0758  0.1322
  786SOL     ow 3141   2.915   6.876   2.030 -0.2100 -0.9585 -0.5180
  786SOL     hw 3142   2.993   6.912   1.987  0.6320 -0.7406  1.1168
  786SOL     hw 3143   2.908   6.787   1.996  1.0759 -1.1625 -0.2975
  786SOL     vw 3144   2.925   6.869   2.020  0.0709 -0.9568 -0.2731
  787SOL     ow 3145   0.681   2.586   4.791  0.0214 -0.2802  0.4882
  787SOL     hw 3146   0.595   2.545   4.801 -1.1158  2.1516  1.4890
  787SOL     hw 3147   0.707   2.565   4.701 -2.1826 -0.0858 -0.2575
  787SOL     vw 3148   0.673   2.578   4.780 -0.4195  0.0663  0.5221
  788SOL     ow 3149   0.794   4.881   2.914  0.7006 -0.1534 -0.4779
  788SOL     hw 3150   0.862   4.816   2.934 -0.3411 -1.2775 -0.4408
  788SOL     hw 3151   0.789   4.935   2.992  1.6777  0.0628 -0.5541
  788SOL     vw 3152   0.802   4.879   2.927  0.6921 -0.2732 -0.4830
  789SOL     ow 3153   1.672   5.158   3.797 -0.1844 -0.1440 -0.1035
  789SOL     hw 3154   1.641   5.151   3.707  0.3648 -0.1795 -0.2933
  789SOL     hw 3155   1.602   5.120   3.850 -0.2577 -0.6584 -0.5615
  789SOL     vw 3156   1.659   5.152   3.792 -0.1217 -0.2167 -0.1889
  790SOL     ow 3157   5.401   0.577   4.755  0.1755  0.4708 -0.1657
  790SOL     hw 3158   5.332   0.607   4.696  0.4078  0.1990 -0.5788
  790SOL     hw 3159   5.468   0.539   4.697  1.3094  1.9530  0.1050
  790SOL     vw 3160   5.401   0.576   4.739  0.3560  0.6305 -0.1845
  791SOL     ow 3161   3.881   3.479   1.682 -0.5440 -0.6566  0.7665
  791SOL     hw 3162   3.810   3.494   1.620  0.6606  1.5376 -0.2065
  791SOL     hw 3163   3.892   3.562   1.728 -1.2954 -2.1596  3.9670
  791SOL     vw 3164   3.873   3.492   1.680 -0.4842 -0.5654  1.0604
  792SOL     ow 3165   2.895   4.759   2.959 -0.0229  0.1311 -0.8618
  792SOL     hw 3166   2.806   4.726   2.950  0.8196 -2.5437 -0.2833
  792SOL     hw 3167   2.937   4.699   3.021  2.1462  1.4005 -0.9863
  792SOL     vw 3168   2.889   4.747   2.966  0.3744 -0.0541 -0.8020
  793SOL     ow 3169   2.695   6.272   2.774  0.4031  0.3519 -0.0070
  793SOL     hw 3170   2.679   6.181   2.749 -0.8380  0.4335  0.4016
  793SOL     hw 3171   2.608   6.305   2.800  1.2214  0.8940  2.2990
  793SOL     vw 3172   2.681   6.265   2.774  0.3473  0.4342  0.3512
  794SOL     ow 3173   4.440   1.145   3.656 -0.1309 -0.4031  0.9271
  794SOL     hw 3174   4.372   1.194   3.609  0.7495  0.5820  0.6182
  794SOL     hw 3175   4.490   1.213   3.702  1.3500 -0.9602  0.2061
  794SOL     vw 3176   4.438   1.161   3.656  0.1807 -0.3466  0.7911
  795SOL     ow 3177   2.363   2.884   6.846 -0.1374  0.0370  0.5209
  795SOL     hw 3178   2.336   2.829   6.919 -0.6848 -0.5050 -0.0815
  795SOL     hw 3179   2.415   2.954   6.887 -2.0073  0.8315  1.6621
  795SOL     vw 3180   2.366   2.886   6.861 -0.4563  0.0702  0.5920
  796SOL     ow 3181   3.227   1.801   4.708  0.3612 -0.2364 -0.6255
  796SOL     hw 3182   3.190   1.766   4.627 -0.0901 -1.4959  0.0984
  796SOL     hw 3183   3.255   1.889   4.686 -0.1911 -0.3982 -2.0282
  796SOL     vw 3184   3.226   1.808   4.695  0.2288 -0.4240 -0.7150
  797SOL     ow 3185   1.081   1.878   3.820 -0.4703 -0.3313 -0.1433
  797SOL     hw 3186   1.105   1.861   3.729  0.0524 -1.4003  0.1779
  797SOL     hw 3187   1.007   1.819   3.837 -1.4692  0.8571 -0.2703
  797SOL     vw 3188   1.074   1.868   3.810 -0.5332 -0.3155 -0.1178
  798SOL     ow 3189   4.246   2.251   6.268 -0.7676  0.7090 -0.1112
  798SOL     hw 3190   4.176   2.198   6.231  0.9796 -0.0930 -2.5662
  798SOL     hw 3191   4.251   2.223   6.360 -2.4366 -0.5159 -0.3391
  798SOL     vw 3192   4.238   2.240   6.275 -0.7575  0.4414 -0.4652
  799SOL     ow 3193   5.917   4.287   6.557  0.1827  0.4675  0.9593
  799SOL     hw 3194   5.852   4.357   6.552  0.2434  0.4875  0.4323
  799SOL     hw 3195   5.987   4.324   6.612 -0.2551  0.4334  1.5531
  799SOL     vw 3196   5.918   4.301   6.564  0.1330  0.4654  0.9680
  800SOL     ow 3197   6.792   5.912   2.369  0.0604  0.3514  0.1804
  800SOL     hw 3198   6.707   5.895   2.409 -0.2943 -1.0760 -1.0936
  800SOL     hw 3199   6.809   6.005   2.387 -1.0173  0.2708  1.7923
  800SOL     vw 3200   6.783   5.922   2.377 -0.1285  0.1521  0.2251
  801SOL     ow 3201   0.424   5.446   5.594  0.6228  0.5276  0.3481
  801SOL     hw 3202   0.369   5.389   5.647  0.8413 -0.6097 -0.5902
  801SOL     hw 3203   0.507   5.399   5.586  0.1700 -0.0082 -2.0467
  801SOL     vw 3204   0.427   5.432   5.600  0.5919  0.3071 -0.0916
  802SOL     ow 3205   4.037   2.616   3.714 -0.0649 -0.2847 -0.4849
  802SOL     hw 3206   4.007   2.700   3.681  0.4547 -0.5935 -1.7735
  802SOL     hw 3207   4.120   2.600   3.669  0.3646 -1.0117  0.5142
  802SOL     vw 3208   4.044   2.625   3.704  0.0603 -0.4215 -0.5232
  803SOL     ow 3209   1.229   1.111   4.271 -1.2227  0.2777 -0.0265
  803SOL     hw 3210   1.146   1.094   4.227 -1.9457 -0.0686  1.4078
  803SOL     hw 3211   1.210   1.097   4.364  0.4982 -0.0248  0.3117
  803SOL     vw 3212   1.216   1.107   4.278 -1.0911  0.1920  0.2072
  804SOL     ow 3213   1.530   1.555   2.873 -0.1147 -0.4374  0.1052
  804SOL     hw 3214   1.521   1.478   2.817 -0.2176  1.4258 -2.6230
  804SOL     hw 3215   1.444   1.566   2.913 -0.5681 -0.8130 -0.7551
  804SOL     vw 3216   1.517   1.546   2.871 -0.1881 -0.2412 -0.3682
  805SOL     ow 3217   2.124   2.000   1.403  0.2335  0.3638 -0.4750
  805SOL     hw 3218   2.184   1.954   1.461 -0.7444 -2.5280 -1.5882
  805SOL     hw 3219   2.172   2.078   1.375  2.8255 -0.9815 -0.0645
  805SOL     vw 3220   2.138   2.004   1.407  0.4463 -0.1953 -0.5677
  806SOL     ow 3221   4.169   2.559   1.580 -0.4675 -0.8518  0.3848
  806SOL     hw 3222   4.197   2.610   1.504  1.3669  1.4304  2.4143
  806SOL     hw 3223   4.165   2.469   1.549 -0.3543  0.0542 -2.5093
  806SOL     vw 3224   4.172   2.554   1.566 -0.2108 -0.4311  0.2707
  807SOL     ow 3225   0.553   2.290   0.696 -0.7468 -0.1059 -0.1842
  807SOL     hw 3226   0.642   2.325   0.690 -1.0468  0.7903  0.3461
  807SOL     hw 3227   0.564   2.198   0.717  0.0510  0.0759  0.2233
  807SOL     vw 3228   0.566   2.283   0.698 -0.6811  0.0364 -0.0604
  808SOL     ow 3229   3.882   2.663   1.615 -0.1034 -0.1938 -0.3524
  808SOL     hw 3230   3.819   2.591   1.627 -1.3818  0.8188 -0.7220
  808SOL     hw 3231   3.860   2.701   1.530  2.3241 -1.0048 -1.4354
  808SOL     vw 3232   3.870   2.659   1.606  0.0482 -0.1673 -0.5441
  809SOL     ow 3233   5.419   2.002   1.854  0.8831  0.0565  0.2713
  809SOL     hw 3234   5.417   2.092   1.822  1.7621 -0.3128 -0.8967
  809SOL     hw 3235   5.371   2.005   1.937  0.9243  1.5961  0.2696
  809SOL     vw 3236   5.412   2.014   1.861  1.0045  0.2110  0.1169
  810SOL     ow 3237   4.142   1.867   4.837 -0.3564  0.4502  0.3752
  810SOL     hw 3238   4.167   1.920   4.913  1.0360 -0.2640  0.4367
  810SOL     hw 3239   4.072   1.811   4.870  0.2007  0.1821  1.1281
  810SOL     vw 3240   4.136   1.867   4.851 -0.0989  0.3206  0.4828
  811SOL     ow 3241   5.394   4.383   4.834 -0.3652  0.0337  0.3992
  811SOL     hw 3242   5.353   4.434   4.764  0.0224 -0.3757 -0.1345
  811SOL     hw 3243   5.380   4.292   4.809  3.2997 -0.2459 -1.3804
  811SOL     vw 3244   5.387   4.378   4.821  0.1693 -0.0572  0.0939
  812SOL     ow 3245   1.282   2.671   6.039 -0.3720  0.6014  1.1830
  812SOL     hw 3246   1.282   2.675   6.134 -0.2989  1.7875  1.1595
  812SOL     hw 3247   1.347   2.737   6.012 -0.9227  0.8190  0.3182
  812SOL     vw 3248   1.291   2.680   6.048 -0.4351  0.7865  1.0657
  813SOL     ow 3249   6.535   5.184   1.248  0.0683  0.0404  0.0092
  813SOL     hw 3250   6.470   5.125   1.209 -1.0730  0.8353  0.6467
  813SOL     hw 3251   6.561   5.140   1.329  0.7414 -0.5308 -0.5033
  813SOL     vw 3252   6.530   5.170   1.254  0.0062  0.0696  0.0257
  814SOL     ow 3253   1.016   4.041   1.272  0.5738 -0.3462 -0.2300
  814SOL     hw 3254   0.946   4.049   1.207  1.7553 -0.6835 -1.5720
  814SOL     hw 3255   0.972   4.005   1.349 -0.7332 -0.5715 -1.0499
  814SOL     vw 3256   1.001   4.037   1.274  0.5572 -0.4206 -0.5153
  815SOL     ow 3257   5.244   6.684   2.376  0.0803 -0.2296 -0.9855
  815SOL     hw 3258   5.281   6.629   2.444  2.9540  0.3758 -1.9043
  815SOL     hw 3259   5.306   6.757   2.368 -1.5964  1.1283 -2.3843
  815SOL     vw 3260   5.257   6.687   2.384  0.2387  0.0293 -1.2912
  816SOL     ow 3261   1.357   2.423   3.274  0.3439 -0.0281 -0.2430
  816SOL     hw 3262   1.297   2.452   3.343  0.6631 -1.2472  0.5750
  816SOL     hw 3263   1.427   2.488   3.275 -0.2197  0.5908 -0.1980
  816SOL     vw 3264   1.359   2.436   3.283  0.3117 -0.1073 -0.1291
  817SOL     ow 3265   2.540   5.113   6.293 -0.0163  0.0110 -0.3111
  817SOL     hw 3266   2.465   5.147   6.243  0.1100 -0.9177 -1.1686
  817SOL     hw 3267   2.568   5.035   6.244  0.8205 -0.2867  0.6102
  817SOL     vw 3268   2.534   5.107   6.280  0.1107 -0.1509 -0.3028
  818SOL     ow 3269   2.242   2.874   4.336 -0.6392  0.1342  0.0886
  818SOL     hw 3270   2.268   2.955   4.292  2.6062  0.2831  1.9365
  818SOL     hw 3271   2.267   2.888   4.428  2.0189 -3.6094  0.1305
  818SOL     vw 3272   2.249   2.887   4.343  0.1396 -0.3400  0.3381
  819SOL     ow 3273   2.126   1.864   1.175 -0.0641 -0.0385  0.2138
  819SOL     hw 3274   2.071   1.913   1.114  1.1798 -0.0205 -0.9242
  819SOL     hw 3275   2.112   1.908   1.259 -1.4055  0.2628 -0.1331
  819SOL     vw 3276   2.117   1.877   1.178 -0.0771  0.0037  0.0179
  820SOL     ow 3277   1.104   5.795   2.099  0.3437 -0.0510  0.1815
  820SOL     hw 3278   1.083   5.761   2.012  4.2001  1.9355 -1.8050
  820SOL     hw 3279   1.062   5.881   2.102  0.3864 -0.0290  0.1602
  820SOL     vw 3280   1.096   5.802   2.088  0.8582  0.2139 -0.0834
  821SOL     ow 3281   3.679   2.991   7.000  0.4113  0.0418 -0.0365
  821SOL     hw 3282   3.607   2.951   7.050 -0.3400  0.8881 -0.4082
  821SOL     hw 3283   3.749   2.927   7.004 -0.9037 -1.5317 -1.0026
  821SOL     vw 3284   3.679   2.977   7.007  0.1386 -0.0542 -0.2129
  822SOL     ow 3285   2.523   1.002   2.020 -0.1101  0.1828  0.1171
  822SOL     hw 3286   2.609   1.028   1.988 -0.8493  2.6129 -0.1117
  822SOL     hw 3287   2.464   1.019   1.946 -0.5948 -3.5577 -0.5560
  822SOL     vw 3288   2.526   1.008   2.006 -0.2717  0.0098 -0.0019
  823SOL     ow 3289   6.842   3.695   2.596  0.7696 -0.0195 -0.1305
  823SOL     hw 3290   6.898   3.772   2.601  0.5466  0.1130  0.4178
  823SOL     hw 3291   6.767   3.722   2.543  0.5888  0.2102  0.2375
  823SOL     vw 3292   6.840   3.709   2.590  0.7162  0.0283 -0.0097
  824SOL     ow 3293   5.341   1.321   3.211 -0.0929 -0.6843 -0.1157
  824SOL     hw 3294   5.248   1.301   3.221 -0.0906 -0.3389  0.6504
  824SOL     hw 3295   5.361   1.380   3.283  0.8112 -1.0543 -0.0511
  824SOL     vw 3296   5.332   1.326   3.221  0.0265 -0.6875 -0.0061
  825SOL     ow 3297   3.620   2.717   2.739 -0.4751 -0.1298 -0.1823
  825SOL     hw 3298   3.534   2.696   2.773 -0.1129 -0.2660  0.6653
  825SOL     hw 3299   3.662   2.632   2.725 -0.2351 -0.0484  0.0383
  825SOL     vw 3300   3.614   2.703   2.742 -0.3958 -0.1372 -0.0414
  826SOL     ow 3301   4.961   2.515   2.465  0.1971  0.6185 -0.1304
  826SOL     hw 3302   4.985   2.427   2.437  0.0527  0.6158 -0.2425
  826SOL     hw 3303   4.891   2.542   2.405 -1.8666 -0.3365  1.7136
  826SOL     vw 3304   4.955   2.507   2.454 -0.0942  0.4921  0.0981
  827SOL     ow 3305   6.100   6.608   4.723 -0.0827 -0.1565 -0.0252
  827SOL     hw 3306   6.038   6.641   4.657  0.2030 -0.1465 -0.2945
  827SOL     hw 3307   6.163   6.558   4.672  0.1219 -0.1766  0.2504
  827SOL     vw 3308   6.100   6.606   4.707 -0.0181 -0.1578 -0.0246
  828SOL     ow 3309   3.864   1.762   4.167  0.2270 -0.2295 -0.2840
  828SOL     hw 3310   3.837   1.749   4.259  0.2079  1.7878  0.0425
  828SOL     hw 3311   3.891   1.853   4.163 -0.1565 -0.1695 -2.4098
  828SOL     vw 3312   3.864   1.772   4.179  0.1739  0.0446 -0.5212
  829SOL     ow 3313   1.487   1.804   1.999  0.1511 -0.3328  0.2788
  829SOL     hw 3314   1.537   1.723   1.995  0.5470 -0.2005  1.7452
  829SOL     hw 3315   1.542   1.864   2.051 -1.0919  0.1242  1.1221
  829SOL     vw 3316   1.501   1.802   2.005  0.0394 -0.2550  0.5836
  830SOL     ow 3317   0.271   4.535   6.393 -0.4459 -0.4931 -0.7435
  830SOL     hw 3318   0.367   4.539   6.390 -0.4954  1.9352 -0.4522
  830SOL     hw 3319   0.245   4.521   6.301  0.1492  1.2399 -1.2087
  830SOL     vw 3320   0.280   4.534   6.380 -0.3739  0.0560 -0.7663
  831SOL     ow 3321   3.462   6.167   4.841  0.0129 -0.2639 -0.5043
  831SOL     hw 3322   3.517   6.156   4.918  1.0008  0.6030 -1.0719
  831SOL     hw 3323   3.446   6.078   4.810  1.2133 -0.5278 -0.4109
  831SOL     vw 3324   3.467   6.153   4.847  0.3017 -0.1843 -0.5667
  832SOL     ow 3325   4.741   0.139   4.633  0.4762 -0.1963  0.3361
  832SOL     hw 3326   4.807   0.072   4.650  1.4536  0.8255  0.6970
  832SOL     hw 3327   4.678   0.131   4.705  1.8640  0.7948  1.7142
  832SOL     vw 3328   4.741   0.129   4.644  0.7882  0.0693  0.5658
  833SOL     ow 3329   4.332   5.843   0.688  0.3075  0.3019 -0.3136
  833SOL     hw 3330   4.338   5.774   0.622  1.9534  0.1789 -0.0958
  833SOL     hw 3331   4.400   5.820   0.752  0.8352  2.0758 -0.1981
  833SOL     vw 3332   4.342   5.831   0.688  0.5944  0.5198 -0.2696
  834SOL     ow 3333   2.431   1.892   1.298  0.2288 -0.4367  0.2745
  834SOL     hw 3334   2.423   1.961   1.365  0.2620  2.0300 -2.0663
  834SOL     hw 3335   2.525   1.889   1.278  0.1987 -1.0102  0.2190
  834SOL     vw 3336   2.443   1.901   1.304  0.2291 -0.1869 -0.0417
  835SOL     ow 3337   1.884   5.152   2.253 -0.6158 -0.2929  0.0686
  835SOL     hw 3338   1.847   5.069   2.284 -2.3840  0.5511  0.3269
  835SOL     hw 3339   1.848   5.218   2.313  0.0369  0.7699 -0.6839
  835SOL     vw 3340   1.875   5.149   2.265 -0.7631 -0.0415  0.0033
  836SOL     ow 3341   2.631   4.302   5.786 -0.2672  0.6309 -0.2544
  836SOL     hw 3342   2.539   4.282   5.770 -0.4520  2.0365 -1.0574
  836SOL     hw 3343   2.630   4.369   5.854  0.3197 -1.4174  1.9272
  836SOL     vw 3344   2.619   4.308   5.793 -0.2142  0.5460 -0.0725
  837SOL     ow 3345   4.080   5.851   1.997  0.1836  0.0679  0.1823
  837SOL     hw 3346   4.164   5.886   1.967  0.9896 -1.4369  0.5720
  837SOL     hw 3347   4.101   5.802   2.076 -0.8530 -1.3484 -0.3670
  837SOL     vw 3348   4.094   5.849   2.003  0.1531 -0.3176  0.1612
  838SOL     ow 3349   1.923   2.583   2.664  0.3812  0.0877  0.5979
  838SOL     hw 3350   1.859   2.634   2.714  0.0139 -1.1514  1.4291
  838SOL     hw 3351   1.991   2.647   2.641 -0.5330  1.1607  0.7588
  838SOL     vw 3352   1.924   2.598   2.668  0.2121  0.0657  0.7288
  839SOL     ow 3353   3.135   6.522   6.994 -0.5841 -0.0663  0.0055
  839SOL     hw 3354   3.229   6.539   6.986 -0.6066  0.5068  0.7329
  839SOL     hw 3355   3.099   6.605   7.026 -1.6530  0.3840 -2.1627
  839SOL     vw 3356   3.142   6.535   6.997 -0.7281  0.0687 -0.1845
  840SOL     ow 3357   5.165   4.523   1.264 -0.0341  0.1123 -0.0423
  840SOL     hw 3358   5.205   4.445   1.227  0.8202 -0.1435  1.3449
  840SOL     hw 3359   5.238   4.582   1.282 -0.4193  0.2989  1.0141
  840SOL     vw 3360   5.180   4.521   1.262  0.0279  0.1035  0.2801
  841SOL     ow 3361   2.177   0.576   4.428 -0.1288  0.0166  0.1813
  841SOL     hw 3362   2.119   0.650   4.443 -0.1638  0.1452 -0.5496
  841SOL     hw 3363   2.118   0.501   4.416 -0.1501  0.1370 -0.5050
  841SOL     vw 3364   2.161   0.576   4.428 -0.1361  0.0495 -0.0060
  842SOL     ow 3365   2.015   0.798   4.488  0.5462 -0.3378  0.4402
  842SOL     hw 3366   2.032   0.850   4.567 -0.3224 -0.8590  0.9877
  842SOL     hw 3367   1.920   0.794   4.482  0.5869 -0.0734 -0.8120
  842SOL     vw 3368   2.005   0.805   4.497  0.4369 -0.3716  0.3471
  843SOL     ow 3369   3.416   4.144   5.889  0.6168 -0.5555  0.5516
  843SOL     hw 3370   3.439   4.120   5.799  0.4489  1.3404 -0.0550
  843SOL     hw 3371   3.383   4.234   5.882 -1.4764 -1.0992  2.1998
  843SOL     vw 3372   3.414   4.153   5.876  0.3184 -0.3772  0.6890
  844SOL     ow 3373   4.157   6.032   0.775 -0.0385 -0.1614 -0.6235
  844SOL     hw 3374   4.063   6.017   0.763  0.0284  0.6145 -2.3712
  844SOL     hw 3375   4.197   5.948   0.754 -0.2841 -0.3162 -0.4897
  844SOL     vw 3376   4.150   6.019   0.771 -0.0622 -0.0796 -0.8364
  845SOL     ow 3377   1.797   2.792   6.988  0.4159  0.0750 -0.0476
  845SOL     hw 3378   1.775   2.877   7.028 -1.1174 -0.6188  0.6742
  845SOL     hw 3379   1.730   2.732   7.021  3.3543 -2.2600  2.1682
  845SOL     vw 3380   1.785   2.796   6.997  0.6012 -0.3247  0.3402
  846SOL     ow 3381   1.231   1.203   5.324 -0.1501 -0.2869  0.3222
  846SOL     hw 3382   1.280   1.198   5.406 -1.0337  1.9446  1.0408
  846SOL     hw 3383   1.293   1.237   5.260  0.2867 -1.1741  0.2594
  846SOL     vw 3384   1.246   1.206   5.327 -0.2090 -0.1096  0.4089
  847SOL     ow 3385   4.703   5.253   0.791  0.1875 -0.5400 -0.3270
  847SOL     hw 3386   4.679   5.259   0.699  0.5237  0.4749 -0.3588
  847SOL     hw 3387   4.794   5.283   0.794  0.8323 -2.3984  0.0737
  847SOL     vw 3388   4.712   5.258   0.779  0.3169 -0.6516 -0.2783
  848SOL     ow 3389   2.426   1.946   0.060  0.7131  0.0582 -0.1687
  848SOL     hw 3390   2.413   1.888   0.135  1.1332 -0.5466 -0.5536
  848SOL     hw 3391   2.342   1.990   0.048  0.8971  0.8722  1.2388
  848SOL     vw 3392   2.413   1.944   0.068  0.7929  0.0858 -0.0338
  849SOL     ow 3393   6.642   6.040   0.464  0.5477 -1.0862 -0.1278
  849SOL     hw 3394   6.632   6.067   0.372 -0.3422  0.7271  0.4389
  849SOL     hw 3395   6.553   6.045   0.499  1.0583 -0.5272  1.1366
  849SOL     vw 3396   6.629   6.044   0.457  0.4976 -0.7732  0.1138
  850SOL     ow 3397   2.049   4.317   4.605  0.3925  0.1830  0.8121
  850SOL     hw 3398   2.076   4.327   4.696  0.2613 -0.0298  0.8748
  850SOL     hw 3399   2.084   4.232   4.579 -0.9446 -0.5049  1.1630
  850SOL     vw 3400   2.057   4.307   4.614  0.1987  0.0641  0.8669
  851SOL     ow 3401   2.713   2.912   1.354 -0.1151  0.0901 -0.6775
  851SOL     hw 3402   2.769   2.880   1.283  0.0134  0.1054 -0.5815
  851SOL     hw 3403   2.741   3.002   1.368  0.0907 -0.0195 -0.3747
  851SOL     vw 3404   2.724   2.920   1.347 -0.0710  0.0776 -0.6248
  852SOL     ow 3405   1.071   0.152   5.197 -0.2818 -0.5940  0.0630
  852SOL     hw 3406   1.079   0.207   5.275 -0.2757  2.2969 -1.8260
  852SOL     hw 3407   0.977   0.147   5.180 -0.2342 -0.4120 -0.2632
  852SOL     vw 3408   1.060   0.159   5.205 -0.2747 -0.1885 -0.2291
  853SOL     ow 3409   4.111   2.802   3.999  0.3595  0.0482 -0.7105
  853SOL     hw 3410   4.194   2.848   3.990  0.8954 -0.9514 -1.0243
  853SOL     hw 3411   4.135   2.709   3.998 -0.7562 -0.2522 -0.7481
  853SOL     vw 3412   4.125   2.796   3.998  0.2832 -0.1233 -0.7570
  854SOL     ow 3413   6.189   0.598   6.794  0.1039  0.7238 -0.1018
  854SOL     hw 3414   6.111   0.634   6.835 -1.7244 -0.6392 -2.1510
  854SOL     hw 3415   6.240   0.561   6.866 -0.9498  1.9306  1.3131
  854SOL     vw 3416   6.186   0.598   6.809 -0.2763  0.7032 -0.1855
  855SOL     ow 3417   5.029   4.463   0.985 -0.2768 -0.2280 -0.6720
  855SOL     hw 3418   5.112   4.417   0.996  0.3049  0.5607 -1.6026
  855SOL     hw 3419   4.992   4.426   0.904 -0.8815 -0.6271 -0.2253
  855SOL     vw 3420   5.035   4.452   0.976 -0.2799 -0.1767 -0.7358
  856SOL     ow 3421   1.687   1.253   3.441 -0.0154  0.1530 -0.7949
  856SOL     hw 3422   1.698   1.326   3.502 -0.6524  0.0611 -0.5631
  856SOL     hw 3423   1.597   1.260   3.410  0.4421  0.4873 -2.1196
  856SOL     vw 3424   1.677   1.263   3.445 -0.0391  0.1851 -0.9391
  857SOL     ow 3425   6.053   3.524   1.842 -0.6152  0.1946 -0.1456
  857SOL     hw 3426   6.028   3.608   1.804  1.6736  0.9259 -0.1991
  857SOL     hw 3427   5.972   3.472   1.842 -1.9303  2.1328 -0.7460
  857SOL     vw 3428   6.039   3.529   1.837 -0.4869  0.5468 -0.2319
  858SOL     ow 3429   4.851   0.585   6.165 -0.0246 -0.2518 -0.1782
  858SOL     hw 3430   4.929   0.629   6.200 -0.5214  2.0268 -1.7846
  858SOL     hw 3431   4.874   0.563   6.075 -0.2806 -2.2001  0.1779
  858SOL     vw 3432   4.865   0.588   6.158 -0.1240 -0.2082 -0.3431
  859SOL     ow 3433   5.581   0.390   3.348  0.1968 -0.4633 -0.5687
  859SOL     hw 3434   5.665   0.430   3.369  0.6212 -2.0402  0.9327
  859SOL     hw 3435   5.518   0.462   3.353  1.1647  0.3424  0.3501
  859SOL     vw 3436   5.584   0.405   3.351  0.3808 -0.5651 -0.2494
  860SOL     ow 3437   1.835   5.905   2.007  0.3891  0.3676 -0.3620
  860SOL     hw 3438   1.819   5.891   1.913 -1.0413 -0.9094  0.0288
  860SOL     hw 3439   1.829   6.000   2.019 -0.6974  0.4438 -1.3532
  860SOL     vw 3440   1.832   5.916   1.996  0.0570  0.2091 -0.4411
  861SOL     ow 3441   5.638   5.220   2.691 -0.3859 -0.6126 -0.1230
  861SOL     hw 3442   5.588   5.151   2.647 -1.9130  0.6776 -0.4937
  861SOL     hw 3443   5.708   5.242   2.629 -2.4861  1.1535 -2.0614
  861SOL     vw 3444   5.641   5.214   2.677 -0.8645 -0.2091 -0.4277
  862SOL     ow 3445   3.828   2.089   1.873 -0.6816  0.0842  0.0513
  862SOL     hw 3446   3.732   2.080   1.867 -0.7954  0.0738  1.6168
  862SOL     hw 3447   3.858   2.003   1.901 -0.2939  0.3202  0.3626
  862SOL     vw 3448   3.819   2.077   1.876 -0.6455  0.1138  0.2989
  863SOL     ow 3449   2.246   3.442   2.369 -0.0768 -0.2077 -0.2811
  863SOL     hw 3450   2.242   3.524   2.319  3.6638  0.4572  0.2243
  863SOL     hw 3451   2.243   3.470   2.461  0.5747 -0.6707 -0.1126
  863SOL     vw 3452   2.245   3.456   2.375  0.5026 -0.1811 -0.1923
  864SOL     ow 3453   0.687   1.874   5.112  0.1848  0.1461  0.0587
  864SOL     hw 3454   0.595   1.893   5.130 -0.2224 -1.3127 -0.3516
  864SOL     hw 3455   0.735   1.942   5.159 -1.0849  0.6631  0.6561
  864SOL     vw 3456   0.681   1.886   5.121 -0.0364  0.0219  0.0834
  865SOL     ow 3457   0.697   5.719   0.420  0.5184  0.7079 -0.4412
  865SOL     hw 3458   0.615   5.718   0.470  1.0476 -0.2959  0.4456
  865SOL     hw 3459   0.669   5.717   0.328 -0.4606  1.7371 -0.1770
  865SOL     vw 3460   0.682   5.718   0.414  0.4590  0.7114 -0.2893
  866SOL     ow 3461   4.858   3.826   5.519 -0.3685  0.3957  0.5157
  866SOL     hw 3462   4.773   3.785   5.507  0.1898 -1.0554  1.1798
  866SOL     hw 3463   4.862   3.848   5.612  0.5067 -0.9164  0.8300
  866SOL     vw 3464   4.847   3.823   5.530 -0.1793  0.0311  0.6447
  867SOL     ow 3465   1.717   2.573   4.612 -0.6890 -0.3891  0.2459
  867SOL     hw 3466   1.708   2.487   4.654 -0.8138 -0.4417  0.1144
  867SOL     hw 3467   1.651   2.627   4.654 -0.1465 -0.1593  0.8197
  867SOL     vw 3468   1.707   2.569   4.623 -0.6339 -0.3657  0.3040
  868SOL     ow 3469   0.311   0.585   0.222  0.4769 -0.0651  0.1020
  868SOL     hw 3470   0.255   0.598   0.146  0.1890  1.0949  0.4867
  868SOL     hw 3471   0.258   0.533   0.282  0.5126 -0.5437 -0.2758
  868SOL     vw 3472   0.296   0.580   0.220  0.4436  0.0248  0.1029
  869SOL     ow 3473   1.406   4.676   5.201 -0.2033  0.4875  0.4717
  869SOL     hw 3474   1.408   4.612   5.129 -1.0659  1.5515 -0.5376
  869SOL     hw 3475   1.470   4.643   5.264 -1.9397 -2.4127  0.9148
  869SOL     vw 3476   1.415   4.663   5.200 -0.5462  0.2453  0.3972
  870SOL     ow 3477   3.245   2.482   2.139 -0.1507 -0.5170  0.4947
  870SOL     hw 3478   3.327   2.449   2.176  0.0270 -0.9029 -0.2103
  870SOL     hw 3479   3.206   2.534   2.209  0.2265 -1.1168  1.1698
  870SOL     vw 3480   3.251   2.484   2.153 -0.0774 -0.6471  0.4908
  871SOL     ow 3481   3.282   2.760   4.195 -0.5493 -0.0037 -0.2413
  871SOL     hw 3482   3.289   2.851   4.223  0.3477 -0.1387  0.0012
  871SOL     hw 3483   3.295   2.762   4.100 -0.3096  0.0990 -0.2061
  871SOL     vw 3484   3.285   2.772   4.186 -0.3991 -0.0079 -0.2046
  872SOL     ow 3485   6.092   2.168   4.969  0.0723  0.0471 -0.0884
  872SOL     hw 3486   6.031   2.224   4.920 -0.2752 -0.2085  0.0533
  872SOL     hw 3487   6.037   2.101   5.008  0.5250 -0.5609 -0.4891
  872SOL     vw 3488   6.077   2.167   4.968  0.0861 -0.0669 -0.1228
  873SOL     ow 3489   1.464   5.797   1.329 -0.3615  0.1139 -0.2430
  873SOL     hw 3490   1.486   5.840   1.246  0.5451  2.2886  1.0473
  873SOL     hw 3491   1.545   5.754   1.356 -0.9427 -1.5004 -0.9406
  873SOL     vw 3492   1.478   5.797   1.322 -0.3185  0.1881 -0.1647
  874SOL     ow 3493   4.291   2.729   0.019 -0.0202  0.0305 -0.1088
  874SOL     hw 3494   4.255   2.656   0.070 -0.7235  0.7738  0.4930
  874SOL     hw 3495   4.274   2.705  -0.072 -3.4842  0.9457  0.1290
  874SOL     vw 3496   4.284   2.717   0.014 -0.5701  0.2494  0.0020
  875SOL     ow 3497   5.067   0.102   0.954  0.3325  0.2459  0.0655
  875SOL     hw 3498   5.124   0.164   1.000 -1.0081  1.4167  0.2186
  875SOL     hw 3499   5.052   0.142   0.869 -1.6172  0.8524  0.6352
  875SOL     vw 3500   5.072   0.115   0.949 -0.1016  0.4804  0.1609
  876SOL     ow 3501   1.300   1.465   2.986 -0.3820  0.0628  0.1132
  876SOL     hw 3502   1.310   1.377   2.950  0.4964  0.5301 -0.8308
  876SOL     hw 3503   1.224   1.458   3.045 -0.5854 -1.2133 -0.2646
  876SOL     vw 3504   1.291   1.453   2.989 -0.2930 -0.0440 -0.0613
  877SOL     ow 3505   0.010   1.533   0.676 -0.3475  0.0490  0.6526
  877SOL     hw 3506   0.029   1.580   0.595  0.0483  1.3442  1.4691
  877SOL     hw 3507  -0.084   1.542   0.687 -0.7479 -1.9187 -0.7069
  877SOL     vw 3508   0.000   1.540   0.667 -0.3481 -0.0398  0.5809
  878SOL     ow 3509   5.391   3.881   1.407  0.2569  0.6151  0.0706
  878SOL     hw 3510   5.406   3.801   1.456 -0.8462 -0.0366 -0.6127
  878SOL     hw 3511   5.296   3.888   1.401  0.2766  2.6738  1.2154
  878SOL     vw 3512   5.380   3.872   1.412  0.1137  0.8008  0.1314
  879SOL     ow 3513   3.738   0.543   4.298  0.1365  0.2385 -0.1894
  879SOL     hw 3514   3.698   0.469   4.343 -1.3058 -0.0282 -1.7932
  879SOL     hw 3515   3.795   0.503   4.233  2.1372  0.6166  1.2629
  879SOL     vw 3516   3.740   0.528   4.295  0.2102  0.2532 -0.2091
  880SOL     ow 3517   6.861   6.989   3.927 -0.1172  0.0283 -0.1464
  880SOL     hw 3518   6.821   7.057   3.873  0.3107  0.2985 -0.1228
  880SOL     hw 3519   6.789   6.959   3.983 -0.8240 -0.9130 -1.4904
  880SOL     vw 3520   6.846   6.994   3.927 -0.1540 -0.0603 -0.3208
  881SOL     ow 3521   4.715   1.641   6.655 -0.2849  0.1245 -0.5983
  881SOL     hw 3522   4.778   1.607   6.591  1.9525 -3.7830  3.1545
  881SOL     hw 3523   4.757   1.719   6.692  1.8726 -1.5987  0.8179
  881SOL     vw 3524   4.729   1.647   6.652  0.2949 -0.6185  0.0834
  882SOL     ow 3525   4.748   0.073   4.299 -0.0204 -0.2783  0.0855
  882SOL     hw 3526   4.728   0.025   4.219  1.3808 -1.1934  0.2430
  882SOL     hw 3527   4.841   0.095   4.291  0.3514 -1.0620  1.7766
  882SOL     vw 3528   4.758   0.069   4.288  0.2136 -0.5024  0.3293
  883SOL     ow 3529   4.818   6.067   3.344  0.0665  0.3007 -0.0022
  883SOL     hw 3530   4.810   5.972   3.333  1.0469  0.1130  0.7929
  883SOL     hw 3531   4.730   6.096   3.367  0.0430 -0.6124  1.1140
  883SOL     vw 3532   4.805   6.059   3.345  0.1929  0.1554  0.2500
  884SOL     ow 3533   2.664   1.809   1.202  0.1266  0.1277 -0.0398
  884SOL     hw 3534   2.758   1.820   1.216 -0.0922  0.2283  1.5723
  884SOL     hw 3535   2.649   1.715   1.209 -0.0122  0.1955  0.6088
  884SOL     vw 3536   2.674   1.798   1.205  0.0793  0.1500  0.2584
  885SOL     ow 3537   0.245   5.872   2.785 -0.2060 -0.3891 -0.5509
  885SOL     hw 3538   0.187   5.804   2.752  0.4680 -1.2047 -0.0961
  885SOL     hw 3539   0.262   5.848   2.876  2.7167 -1.5539 -1.2775
  885SOL     vw 3540   0.240   5.860   2.792  0.2685 -0.6504 -0.5869
  886SOL     ow 3541   0.518   0.478   1.048  0.4589 -0.3759 -0.7223
  886SOL     hw 3542   0.487   0.529   0.973  2.7661  0.7281 -1.0081
  886SOL     hw 3543   0.479   0.521   1.124  0.9093  0.7069 -1.0854
  886SOL     vw 3544   0.508   0.490   1.048  0.8228 -0.0874 -0.8079
  887SOL     ow 3545   5.677   0.195   2.286  0.0674 -0.5105 -0.1747
  887SOL     hw 3546   5.633   0.125   2.334  0.9178 -1.7706 -1.1852
  887SOL     hw 3547   5.633   0.198   2.201 -2.1831  2.4624  0.9239
  887SOL     vw 3548   5.666   0.186   2.281 -0.1173 -0.2845 -0.1630
  888SOL     ow 3549   5.262   2.571   6.512 -0.1780  0.2793 -0.4755
  888SOL     hw 3550   5.263   2.476   6.499  0.7573  0.5566 -3.1303
  888SOL     hw 3551   5.335   2.588   6.571 -0.8803 -0.6712  0.7282
  888SOL     vw 3552   5.271   2.561   6.518 -0.1473  0.1905 -0.6669
  889SOL     ow 3553   0.744   0.595   5.583 -0.2139 -0.1611 -0.0730
  889SOL     hw 3554   0.801   0.545   5.524  0.0160  1.2208 -1.0796
  889SOL     hw 3555   0.675   0.628   5.526  0.0119  1.2131  0.4028
  889SOL     vw 3556   0.743   0.593   5.568 -0.1538  0.2025 -0.1431
  890SOL     ow 3557   2.467   0.404   0.323 -0.1542  0.4233  0.5082
  890SOL     hw 3558   2.510   0.431   0.404 -0.0015 -1.9561  1.2778
  890SOL     hw 3559   2.532   0.352   0.277 -1.1099 -0.4772  0.1280
  890SOL     vw 3560   2.481   0.401   0.328 -0.2601 -0.0094  0.5596
  891SOL     ow 3561   2.868   6.620   1.911 -0.5739  0.3347 -0.3986
  891SOL     hw 3562   2.927   6.587   1.843 -3.3912 -0.1833 -2.8165
  891SOL     hw 3563   2.850   6.543   1.965 -1.1392 -0.2338 -1.3549
  891SOL     vw 3564   2.873   6.605   1.909 -1.0203  0.1915 -0.8438
  892SOL     ow 3565   0.751   1.310   6.646 -0.2221  0.5720  0.0557
  892SOL     hw 3566   0.705   1.315   6.562 -0.1135 -0.4588 -0.0815
  892SOL     hw 3567   0.771   1.401   6.668  1.0814  0.7942 -1.7985
  892SOL     vw 3568   0.748   1.323   6.637 -0.0358  0.4653 -0.2069
  893SOL     ow 3569   3.685   0.640   0.896 -0.7295 -0.2021 -0.5572
  893SOL     hw 3570   3.607   0.594   0.928 -0.0364 -0.2389  1.2174
  893SOL     hw 3571   3.751   0.572   0.884 -0.2726  0.0706  0.2705
  893SOL     vw 3572   3.683   0.625   0.899 -0.5778 -0.1709 -0.2139
  894SOL     ow 3573   0.108   5.433   3.619 -0.2325  0.0554 -0.6889
  894SOL     hw 3574   0.023   5.470   3.642 -0.8603 -0.5672 -1.9381
  894SOL     hw 3575   0.138   5.486   3.545  1.4574  1.6073  0.9947
  894SOL     vw 3576   0.101   5.445   3.612 -0.0924  0.1781 -0.6316
  895SOL     ow 3577   4.795   6.455   2.398  0.5345  0.1541  0.5204
  895SOL     hw 3578   4.884   6.445   2.363  0.4818  2.6089 -0.5113
  895SOL     hw 3579   4.801   6.530   2.458 -0.6337 -0.2995  1.2298
  895SOL     vw 3580   4.808   6.464   2.401  0.3736  0.4179  0.4779
  896SOL     ow 3581   1.709   1.899   3.224 -0.3086 -0.5942  0.0978
  896SOL     hw 3582   1.801   1.922   3.213 -1.1352  2.5739 -0.9455
  896SOL     hw 3583   1.699   1.885   3.318  1.1885 -0.9863  0.2239
  896SOL     vw 3584   1.719   1.900   3.235 -0.2201 -0.2279 -0.0232
  897SOL     ow 3585   3.779   1.163   3.255 -0.5178 -0.3074  0.1900
  897SOL     hw 3586   3.707   1.105   3.279 -1.3693  1.3558  1.9591
  897SOL     hw 3587   3.757   1.247   3.296  1.8721  0.5726 -0.1544
  897SOL     vw 3588   3.767   1.166   3.264 -0.3148  0.0281  0.3779
  898SOL     ow 3589   1.587   6.034   1.517  0.1272 -0.0578  0.0495
  898SOL     hw 3590   1.580   6.099   1.587 -0.1445  2.2780 -1.9775
  898SOL     hw 3591   1.660   6.066   1.463  1.2579 -2.5584 -0.0412
  898SOL     vw 3592   1.596   6.047   1.519  0.2405 -0.0796 -0.2299
  899SOL     ow 3593   3.210   2.727   1.905 -0.2764  0.1505  0.0232
  899SOL     hw 3594   3.220   2.813   1.946 -2.0007 -0.1276  1.1203
  899SOL     hw 3595   3.175   2.746   1.818  1.5415  0.6342 -0.6638
  899SOL     vw 3596   3.207   2.741   1.899 -0.2642  0.1777  0.0773
  900SOL     ow 3597   3.021   6.585   1.143 -0.1405 -0.3872  0.1822
  900SOL     hw 3598   2.933   6.548   1.146 -0.1467 -0.4145 -0.2731
  900SOL     hw 3599   3.064   6.540   1.071 -0.8208  1.9474 -1.8170
  900SOL     vw 3600   3.015   6.574   1.134 -0.2310 -0.0827 -0.1416
  901SOL     ow 3601   5.018   0.086   4.005 -0.0204 -0.1036  0.5930
  901SOL     hw 3602   5.082   0.037   4.057  1.7689 -0.2829 -1.6058
  901SOL     hw 3603   5.007   0.034   3.925 -3.0826 -0.1344  0.9042
  901SOL     vw 3604   5.025   0.073   4.001 -0.1884 -0.1313  0.3440
  902SOL     ow 3605   0.504   6.634   5.574 -0.8227  0.1413  0.0603
  902SOL     hw 3606   0.458   6.615   5.656  0.2053  0.2678  0.6914
  902SOL     hw 3607   0.591   6.663   5.602  1.2859 -4.1693 -1.0822
  902SOL     vw 3608   0.509   6.635   5.589 -0.4089 -0.4106 -0.0069
  903SOL     ow 3609   1.902   2.814   3.210  0.3521  0.0019  0.4729
  903SOL     hw 3610   1.974   2.764   3.249  0.2561 -1.6876 -1.3381
  903SOL     hw 3611   1.907   2.793   3.117 -1.7715  0.7773  0.1388
  903SOL     vw 3612   1.912   2.805   3.203  0.0592 -0.1186  0.1899
  904SOL     ow 3613   5.400   5.878   3.350 -0.3148  0.0951 -0.2054
  904SOL     hw 3614   5.314   5.908   3.323 -0.1900  2.4246  1.6642
  904SOL     hw 3615   5.454   5.884   3.271 -1.6537 -0.6829 -1.2060
  904SOL     vw 3616   5.396   5.882   3.336 -0.4749  0.2997 -0.0908
  905SOL     ow 3617   0.014   1.740   0.413 -0.4618  0.2333  0.2400
  905SOL     hw 3618   0.069   1.803   0.461 -1.1863  1.1960 -0.1611
  905SOL     hw 3619  -0.072   1.749   0.453 -0.7468  0.0270 -0.3260
  905SOL     vw 3620   0.010   1.749   0.425 -0.5950  0.3331  0.1124
  906SOL     ow 3621   6.138   6.719   6.443 -0.0109 -0.2718  0.3755
  906SOL     hw 3622   6.112   6.794   6.389 -0.5003  0.7940  2.0007
  906SOL     hw 3623   6.086   6.729   6.523 -0.3168 -2.5373  0.5261
  906SOL     vw 3624   6.127   6.730   6.446 -0.1159 -0.4299  0.6099
  907SOL     ow 3625   2.775   3.518   5.136  0.3885 -0.1635  0.1332
  907SOL     hw 3626   2.843   3.520   5.203  1.1430 -0.7841 -0.5997
  907SOL     hw 3627   2.822   3.521   5.053 -0.5766  2.5274 -0.4389
  907SOL     vw 3628   2.790   3.519   5.134  0.3607  0.1097 -0.0389
  908SOL     ow 3629   0.260   4.960   4.958 -0.3171 -0.4685  0.2719
  908SOL     hw 3630   0.282   4.972   5.050  0.2091  1.5434 -0.0693
  908SOL     hw 3631   0.276   5.046   4.918  2.4710 -2.0135 -2.3372
  908SOL     vw 3632   0.265   4.973   4.965  0.1202 -0.4070 -0.1175
  909SOL     ow 3633   3.859   1.982   3.395  0.4453 -0.1897  0.2416
  909SOL     hw 3634   3.823   1.894   3.407  1.0750 -0.6610 -1.1310
  909SOL     hw 3635   3.950   1.974   3.424 -0.1094  0.6597  2.4282
  909SOL     vw 3636   3.867   1.969   3.401  0.4553 -0.1398  0.3489
  910SOL     ow 3637   3.128   3.374   3.766 -0.5696 -0.2158 -0.1903
  910SOL     hw 3638   3.197   3.434   3.795 -0.7259 -0.4359  0.6766
  910SOL     hw 3639   3.155   3.346   3.678  0.3759 -0.1887  0.0824
  910SOL     vw 3640   3.141   3.378   3.758 -0.4655 -0.2412 -0.0399
  911SOL     ow 3641   5.561   3.679   6.869 -0.0095  0.0833  0.2622
  911SOL     hw 3642   5.611   3.654   6.947 -0.3091 -0.3378  0.3237
  911SOL     hw 3643   5.486   3.619   6.868  0.3715 -0.4134 -0.7432
  911SOL     vw 3644   5.558   3.668   6.879  0.0014 -0.0379  0.1378
  912SOL     ow 3645   1.738   5.833   2.346 -0.4973 -0.0042  0.0073
  912SOL     hw 3646   1.734   5.742   2.377 -0.6381  0.2991  0.8853
  912SOL     hw 3647   1.814   5.870   2.391 -0.1037  0.1682 -0.7728
  912SOL     vw 3648   1.748   5.826   2.356 -0.4639  0.0584  0.0203
  913SOL     ow 3649   5.004   4.657   3.237  0.1961 -0.1264  0.6596
  913SOL     hw 3650   4.986   4.731   3.296  2.2091 -1.0868  2.6432
  913SOL     hw 3651   4.960   4.583   3.279 -2.4272 -0.0672 -1.6868
  913SOL     vw 3652   4.995   4.657   3.251  0.1156 -0.2456  0.6118
  914SOL     ow 3653   2.354   1.710   1.002 -0.3054  0.9334  0.2429
  914SOL     hw 3654   2.323   1.621   1.017 -2.3080  1.3824 -0.8292
  914SOL     hw 3655   2.439   1.700   0.959 -0.1084 -0.4334  0.9270
  914SOL     vw 3656   2.361   1.697   0.998 -0.5436  0.8122  0.1917
  915SOL     ow 3657   2.673   2.703   4.460 -0.0419  0.6328 -0.5969
  915SOL     hw 3658   2.694   2.782   4.510 -1.1958  0.7683 -0.3019
  915SOL     hw 3659   2.590   2.673   4.496  2.3293 -3.2956  2.4341
  915SOL     vw 3660   2.665   2.709   4.471  0.1187  0.1324 -0.1583
  916SOL     ow 3661   6.519   1.908   5.517  0.5498  0.0246  0.0828
  916SOL     hw 3662   6.527   1.860   5.435  0.7895  0.1484  0.0335
  916SOL     hw 3663   6.425   1.926   5.525  0.6168  0.7882 -0.6195
  916SOL     vw 3664   6.507   1.904   5.507  0.5903  0.1417 -0.0167
  917SOL     ow 3665   3.515   1.622   5.214  0.2983  0.1104 -0.3857
  917SOL     hw 3666   3.594   1.616   5.161 -1.3081 -1.6255 -2.7584
  917SOL     hw 3667   3.513   1.541   5.265 -0.1997 -0.0888 -0.7162
  917SOL     vw 3668   3.525   1.611   5.214  0.0206 -0.1448 -0.7427
  918SOL     ow 3669   6.557   0.742   4.852  0.3447  0.9882  0.1162
  918SOL     hw 3670   6.477   0.689   4.845 -0.1961  1.8260 -0.3701
  918SOL     hw 3671   6.586   0.730   4.942  1.3261 -1.6066 -0.4590
  918SOL     vw 3672   6.550   0.734   4.863  0.4029  0.7564 -0.0241
  919SOL     ow 3673   2.973   0.730   2.879  0.3556  0.4342 -0.3200
  919SOL     hw 3674   2.916   0.731   2.801  0.0174  0.8495 -0.0698
  919SOL     hw 3675   3.046   0.673   2.854  0.1953  0.4749 -0.9053
  919SOL     vw 3676   2.975   0.722   2.865  0.2898  0.4943 -0.3642
  920SOL     ow 3677   5.512   4.564   0.706 -0.4000 -0.5099  0.2260
  920SOL     hw 3678   5.426   4.606   0.705 -0.2705 -0.2504 -0.3856
  920SOL     hw 3679   5.499   4.485   0.758 -0.2764  1.0196  2.7181
  920SOL     vw 3680   5.499   4.559   0.713 -0.3662 -0.2737  0.4741
  921SOL     ow 3681   0.330   3.713   2.014  0.1739  0.0542  0.5766
  921SOL     hw 3682   0.347   3.769   2.090  0.9018  2.8204 -1.4455
  921SOL     hw 3683   0.248   3.746   1.978  0.0490 -0.9364 -0.0705
  921SOL     vw 3684   0.321   3.725   2.019  0.2534  0.2885  0.2245
  922SOL     ow 3685   1.050   4.316   2.026  0.5843 -0.9899 -0.1531
  922SOL     hw 3686   1.039   4.368   2.106 -0.6003  1.5832 -1.8715
  922SOL     hw 3687   1.139   4.281   2.033  1.7733  1.9153  0.8034
  922SOL     vw 3688   1.061   4.318   2.038  0.5849 -0.2670 -0.2537
  923SOL     ow 3689   1.946   5.259   3.866  0.2846  0.1594 -0.6235
  923SOL     hw 3690   2.032   5.296   3.889  0.8817  0.2423 -2.7785
  923SOL     hw 3691   1.959   5.165   3.871 -0.5201  0.1296  2.3834
  923SOL     vw 3692   1.959   5.252   3.870  0.2573  0.1664 -0.5112
  924SOL     ow 3693   5.053   5.371   6.094  0.3207  0.0341 -0.1036
  924SOL     hw 3694   5.047   5.364   5.999 -0.1638 -0.0251 -0.0724
  924SOL     hw 3695   5.100   5.292   6.122  1.5678  0.6497 -0.3914
  924SOL     vw 3696   5.058   5.360   6.085  0.4213  0.1073 -0.1376
  925SOL     ow 3697   0.382   4.611   5.358 -0.4884  0.3779  0.0312
  925SOL     hw 3698   0.335   4.528   5.348 -0.1345  0.4316 -2.7525
  925SOL     hw 3699   0.321   4.677   5.327 -0.3029  1.0369  1.0279
  925SOL     vw 3700   0.368   4.609   5.352 -0.4172  0.4721 -0.2048
  926SOL     ow 3701   2.998   2.963   3.026  0.4607  0.1953  0.3891
  926SOL     hw 3702   2.903   2.970   3.017  0.6010 -0.2458 -2.5945
  926SOL     hw 3703   3.018   2.873   2.999  1.9734  1.4831 -3.3920
  926SOL     vw 3704   2.988   2.952   3.021  0.6788  0.3071 -0.5033
  927SOL     ow 3705   1.275   0.147   2.744 -0.1546 -0.0814  0.4146
  927SOL     hw 3706   1.361   0.124   2.777 -0.0086 -0.7659 -0.4191
  927SOL     hw 3707   1.291   0.185   2.658 -0.5857  1.0348  0.8084
  927SOL     vw 3708   1.288   0.149   2.737 -0.1922 -0.0244  0.3566
  928SOL     ow 3709   6.786   1.542   1.208 -0.4548 -0.0643 -0.4018
  928SOL     hw 3710   6.850   1.494   1.261  0.1186 -0.6625 -1.5884
  928SOL     hw 3711   6.808   1.634   1.222  0.1764 -0.2375 -0.2010
  928SOL     vw 3712   6.797   1.548   1.217 -0.2961 -0.1661 -0.5319
  929SOL     ow 3713   2.023   2.439   1.991  0.7104 -0.5130  0.2114
  929SOL     hw 3714   2.026   2.353   2.032 -0.6877 -1.5707 -1.7277
  929SOL     hw 3715   2.100   2.440   1.933  0.8198 -0.3780  0.3574
  929SOL     vw 3716   2.034   2.428   1.989  0.5404 -0.6348 -0.0252
  930SOL     ow 3717   0.130   4.224   4.224  0.2817 -0.0004  0.0250
  930SOL     hw 3718   0.172   4.152   4.176 -0.3290  0.2033 -0.8425
  930SOL     hw 3719   0.187   4.299   4.209 -0.5357  0.3762 -1.4928
  930SOL     vw 3720   0.143   4.224   4.215  0.0933  0.0758 -0.2897
  931SOL     ow 3721   6.646   2.594   4.588 -0.3776 -0.2973  0.2904
  931SOL     hw 3722   6.604   2.626   4.668 -0.0884 -1.6602  1.0255
  931SOL     hw 3723   6.581   2.610   4.519 -2.1089 -2.1656  1.3522
  931SOL     vw 3724   6.632   2.600   4.590 -0.5679 -0.7235  0.5276
  932SOL     ow 3725   6.844   0.104   5.367 -0.0744 -0.2890  0.0301
  932SOL     hw 3726   6.812   0.076   5.281  0.6304 -0.3347 -0.2252
  932SOL     hw 3727   6.768   0.097   5.424 -0.8727  0.8148 -0.8269
  932SOL     vw 3728   6.830   0.099   5.363 -0.0868 -0.1494 -0.1166
  933SOL     ow 3729   4.144   5.661   5.058 -0.0812  0.1881 -0.0874
  933SOL     hw 3730   4.237   5.676   5.042  0.0135 -1.1127 -0.9035
  933SOL     hw 3731   4.135   5.663   5.153  0.6721  0.9178 -0.0245
  933SOL     vw 3732   4.155   5.663   5.068  0.0308  0.1128 -0.1869
  934SOL     ow 3733   1.817   1.537   6.911  0.1303 -0.6064  0.1559
  934SOL     hw 3734   1.825   1.559   6.819 -1.7845 -1.8358 -0.3576
  934SOL     hw 3735   1.857   1.451   6.920  0.7623 -0.2776  0.5935
  934SOL     vw 3736   1.824   1.529   6.900 -0.0389 -0.7252  0.1457
  935SOL     ow 3737   6.057   1.939   6.566  0.0826  0.2073  0.2509
  935SOL     hw 3738   6.121   1.870   6.578  1.2500  1.3724  0.9749
  935SOL     hw 3739   6.053   1.984   6.650 -3.1001 -0.9291  0.8544
  935SOL     vw 3740   6.065   1.936   6.579 -0.1836  0.2111  0.4258
  936SOL     ow 3741   4.339   3.492   2.310 -0.0722  0.1642 -1.1048
  936SOL     hw 3742   4.359   3.526   2.223  1.7433  0.0259 -0.7812
  936SOL     hw 3743   4.360   3.399   2.305 -1.3166 -0.1463 -0.8961
  936SOL     vw 3744   4.345   3.484   2.298  0.0031  0.1049 -1.0346
  937SOL     ow 3745   0.439   6.708   2.703 -0.4547 -0.9727 -0.5909
  937SOL     hw 3746   0.444   6.727   2.610 -0.5289  1.8692 -0.0933
  937SOL     hw 3747   0.527   6.677   2.726  0.3946  0.9218 -1.1320
  937SOL     vw 3748   0.451   6.706   2.694 -0.3524 -0.3479 -0.5966
  938SOL     ow 3749   1.453   4.417   2.176 -0.3704  0.5389 -0.0741
  938SOL     hw 3750   1.494   4.445   2.258 -0.7371  0.4278  0.1474
  938SOL     hw 3751   1.376   4.367   2.204 -0.1689 -0.0013 -0.4723
  938SOL     vw 3752   1.448   4.414   2.191 -0.3922  0.4525 -0.0974
  939SOL     ow 3753   3.798   6.181   5.895  0.5179  0.1634 -0.4554
  939SOL     hw 3754   3.813   6.212   5.984  0.4996  3.1800 -1.3825
  939SOL     hw 3755   3.876   6.207   5.846 -0.0803 -0.0963 -1.6033
  939SOL     vw 3756   3.810   6.189   5.900  0.4367  0.5271 -0.7291
  940SOL     ow 3757   1.591   0.961   2.312 -0.7389  0.5758 -0.3001
  940SOL     hw 3758   1.537   0.895   2.269 -1.2978  1.4310 -0.9465
  940SOL     hw 3759   1.562   1.044   2.275  2.3501  0.9706 -2.2321
  940SOL     vw 3760   1.580   0.963   2.302 -0.4051  0.7407 -0.6403
  941SOL     ow 3761   6.728   0.188   3.043 -0.2383 -0.0116  0.0682
  941SOL     hw 3762   6.754   0.112   2.992 -0.9481 -0.7239  0.7345
  941SOL     hw 3763   6.745   0.263   2.986  2.8971 -0.3948  0.2914
  941SOL     vw 3764   6.734   0.188   3.029  0.0818 -0.1562  0.1855
  942SOL     ow 3765   0.515   1.802   2.630 -0.0776  0.5024  0.3169
  942SOL     hw 3766   0.507   1.870   2.563  0.1293  0.9398  0.7299
  942SOL     hw 3767   0.425   1.778   2.652 -0.1520 -0.3350 -0.7971
  942SOL     vw 3768   0.502   1.808   2.624 -0.0601  0.4496  0.2245
  943SOL     ow 3769   4.899   0.721   5.909 -0.3037  0.7062 -0.1567
  943SOL     hw 3770   4.832   0.753   5.847  0.0640 -1.6240 -1.8856
  943SOL     hw 3771   4.978   0.711   5.855  0.5890  0.4638  1.1559
  943SOL     vw 3772   4.901   0.724   5.893 -0.1373  0.3667 -0.2117
  944SOL     ow 3773   3.889   6.273   1.889  0.0199 -0.6209 -0.0572
  944SOL     hw 3774   3.976   6.255   1.854 -0.7602 -0.2483 -2.3661
  944SOL     hw 3775   3.836   6.292   1.812 -2.1657 -1.0168  1.2737
  944SOL     vw 3776   3.893   6.274   1.874 -0.3713 -0.6239 -0.1862
  945SOL     ow 3777   5.678   0.354   4.069  0.2000 -0.5293  0.0836
  945SOL     hw 3778   5.764   0.337   4.107  0.4404 -0.2123 -0.3109
  945SOL     hw 3779   5.657   0.443   4.098 -0.6176 -1.0925  1.3275
  945SOL     vw 3780   5.687   0.364   4.078  0.1237 -0.5618  0.1960
  946SOL     ow 3781   6.462   4.694   4.903  0.1266  0.7046 -0.4434
  946SOL     hw 3782   6.456   4.782   4.866 -0.3797  1.2378  0.8343
  946SOL     hw 3783   6.442   4.706   4.996  0.5033 -0.6981 -0.1573
  946SOL     vw 3784   6.459   4.707   4.911  0.1097  0.5898 -0.2370
  947SOL     ow 3785   0.296   1.865   4.381 -0.2383 -0.1141 -0.5412
  947SOL     hw 3786   0.227   1.840   4.443  1.1040 -0.1154  1.0328
  947SOL     hw 3787   0.307   1.789   4.325 -0.1094 -0.9136  0.5348
  947SOL     vw 3788   0.288   1.852   4.382 -0.0442 -0.2198 -0.1917
  948SOL     ow 3789   0.495   2.423   1.805  0.0463 -0.1227  0.5511
  948SOL     hw 3790   0.478   2.415   1.711 -0.2829 -0.4835  0.6441
  948SOL     hw 3791   0.561   2.357   1.823  0.9158  0.6698  0.3681
  948SOL     vw 3792   0.502   2.413   1.795  0.1175 -0.0658  0.5392
  949SOL     ow 3793   2.598   5.884   0.455 -0.5910  0.0030  0.2551
  949SOL     hw 3794   2.592   5.918   0.544 -0.9942  2.2601 -0.5749
  949SOL     hw 3795   2.685   5.909   0.425 -1.1216  0.9081 -0.5852
  949SOL     vw 3796   2.608   5.891   0.462 -0.7142  0.4203  0.0347
  950SOL     ow 3797   2.933   0.862   3.120 -0.4390 -0.2667  0.8324
  950SOL     hw 3798   2.841   0.844   3.137 -0.8811  0.5906 -0.4805
  950SOL     hw 3799   2.953   0.811   3.041  0.3383 -0.7663  1.3388
  950SOL     vw 3800   2.924   0.853   3.112 -0.3948 -0.2195  0.7261
  951SOL     ow 3801   6.763   6.459   5.617  0.7681 -0.1147 -0.5210
  951SOL     hw 3802   6.694   6.510   5.660 -0.1195 -0.2062 -1.7858
  951SOL     hw 3803   6.739   6.458   5.525  2.8485  0.4203 -1.1215
  951SOL     vw 3804   6.751   6.465   5.611  0.9253 -0.0560 -0.7672
  952SOL     ow 3805   6.353   2.854   6.198  0.4941  0.1076 -0.3169
  952SOL     hw 3806   6.373   2.947   6.194  0.3209  0.1836  0.4063
  952SOL     hw 3807   6.423   2.812   6.149  0.9282  0.5746 -0.1089
  952SOL     vw 3808   6.365   2.860   6.191  0.5286  0.1792 -0.1938
  953SOL     ow 3809   0.122   4.894   4.713 -0.3157 -0.0624 -0.3639
  953SOL     hw 3810   0.056   4.851   4.659 -0.9319  0.6841 -0.2292
  953SOL     hw 3811   0.171   4.950   4.652 -0.4079  0.0746 -0.3140
  953SOL     vw 3812   0.120   4.896   4.698 -0.4092  0.0544 -0.3395
  954SOL     ow 3813   4.503   6.453   5.157 -0.2608  0.0024 -0.3267
  954SOL     hw 3814   4.412   6.430   5.175  0.1234  0.0174  2.0008
  954SOL     hw 3815   4.514   6.540   5.196  0.5906  0.2810 -1.1543
  954SOL     vw 3816   4.493   6.461   5.165 -0.0978  0.0410 -0.1290
  955SOL     ow 3817   1.393   1.904   6.530 -0.2620  0.0291 -0.8611
  955SOL     hw 3818   1.332   1.901   6.604 -2.1922  0.0154 -2.3781
  955SOL     hw 3819   1.446   1.824   6.539 -0.0336  0.3343  0.8078
  955SOL     vw 3820   1.392   1.893   6.541 -0.4866  0.0675 -0.8409
  956SOL     ow 3821   6.382   3.326   2.025 -0.2507 -0.4124  0.3670
  956SOL     hw 3822   6.377   3.413   1.983  0.6004 -1.0320 -1.0830
  956SOL     hw 3823   6.388   3.345   2.118 -0.8041  1.0732  0.1305
  956SOL     vw 3824   6.382   3.340   2.032 -0.2112 -0.2983  0.1447
  957SOL     ow 3825   0.136   0.632   7.021  0.0587 -0.2262  0.1257
  957SOL     hw 3826   0.065   0.626   7.085  0.7263 -1.2233  0.7807
  957SOL     hw 3827   0.126   0.554   6.967  0.6687 -0.3751  0.2279
  957SOL     vw 3828   0.125   0.621   7.022  0.2273 -0.3774  0.2258
  958SOL     ow 3829   1.423   6.611   2.628  0.8427  0.1018 -0.6811
  958SOL     hw 3830   1.506   6.601   2.673  0.7118  0.5268 -0.3375
  958SOL     hw 3831   1.400   6.523   2.598 -0.1108 -0.6230  1.9251
  958SOL     vw 3832   1.431   6.598   2.630  0.6996  0.0620 -0.2919
  959SOL     ow 3833   2.450   1.514   6.728  0.3027  0.1157  0.3981
  959SOL     hw 3834   2.533   1.466   6.720  0.2093  0.0471 -0.1460
  959SOL     hw 3835   2.423   1.500   6.819  0.9867  0.2961  0.6365
  959SOL     vw 3836   2.458   1.506   6.739  0.3808  0.1305  0.3574
  960SOL     ow 3837   4.749   0.108   0.144 -0.1852 -0.0105 -0.2058
  960SOL     hw 3838   4.733   0.019   0.111  2.7336 -1.2341  1.2518
  960SOL     hw 3839   4.728   0.103   0.237  1.5761  0.2868  0.2431
  960SOL     vw 3840   4.744   0.095   0.152  0.4323 -0.1328  0.0457
  961SOL     ow 3841   1.810   0.459   6.031 -0.5316  0.3360 -0.8536
  961SOL     hw 3842   1.783   0.538   6.078 -1.6295  0.3743 -1.5160
  961SOL     hw 3843   1.869   0.491   5.962 -0.7530  0.5410 -0.9477
  961SOL     vw 3844   1.814   0.474   6.028 -0.7057  0.3681 -0.9534
  962SOL     ow 3845   4.947   5.376   0.786  0.8758 -0.5084 -0.4412
  962SOL     hw 3846   4.976   5.360   0.696  2.2175 -0.7090  0.0033
  962SOL     hw 3847   4.935   5.471   0.790  1.8191 -0.3656 -0.5702
  962SOL     vw 3848   4.950   5.386   0.775  1.1773 -0.5159 -0.3996
  963SOL     ow 3849   4.892   4.004   5.800  0.4065 -0.5592 -0.1672
  963SOL     hw 3850   4.812   3.952   5.793 -0.6022  0.8599  0.4315
  963SOL     hw 3851   4.953   3.947   5.847 -0.1777 -1.7236 -0.7716
  963SOL     vw 3852   4.889   3.990   5.805  0.1965 -0.5257 -0.1681
  964SOL     ow 3853   1.398   6.307   5.776  0.3440  0.1249  0.2452
  964SOL     hw 3854   1.445   6.292   5.694 -0.5759 -1.4349 -0.0265
  964SOL     hw 3855   1.357   6.393   5.765 -0.6431 -0.5069 -1.3942
  964SOL     vw 3856   1.399   6.316   5.764  0.0924 -0.1640 -0.0069
  965SOL     ow 3857   3.246   1.680   1.466 -0.1599 -0.5439  0.2404
  965SOL     hw 3858   3.241   1.653   1.557 -0.8238 -1.5656 -0.0847
  965SOL     hw 3859   3.243   1.776   1.469 -0.5990 -0.5808  1.2555
  965SOL     vw 3860   3.245   1.689   1.478 -0.3054 -0.6835  0.3314
  966SOL     ow 3861   6.937   2.992   4.967 -0.7256  0.3063 -0.0154
  966SOL     hw 3862   6.999   3.064   4.953 -2.4378  2.3351  1.9702
  966SOL     hw 3863   6.881   2.993   4.890 -1.1504  1.6087  0.2858
  966SOL     vw 3864   6.938   3.001   4.955 -1.0078  0.7458  0.2863
  967SOL     ow 3865   6.071   2.581   1.427 -0.1375  0.0718  0.0531
  967SOL     hw 3866   6.123   2.520   1.479  0.2434  1.2930  1.1645
  967SOL     hw 3867   6.110   2.578   1.340  1.7000  0.7612  0.7836
  967SOL     vw 3868   6.083   2.573   1.423  0.1550  0.3239  0.2961
  968SOL     ow 3869   4.053   1.468   1.589 -0.1248  0.2276 -0.0061
  968SOL     hw 3870   3.962   1.465   1.619  0.2640  2.8219  1.7536
  968SOL     hw 3871   4.105   1.454   1.669  1.0136  0.3558 -0.7072
  968SOL     vw 3872   4.048   1.465   1.604  0.0765  0.5867  0.1336
  969SOL     ow 3873   6.597   0.272   3.334  0.6474  0.2413 -0.6854
  969SOL     hw 3874   6.674   0.252   3.388  0.0037 -1.3665 -0.2990
  969SOL     hw 3875   6.564   0.355   3.369 -0.0800 -1.0137  1.8294
  969SOL     vw 3876   6.603   0.280   3.346  0.4666 -0.1364 -0.3026
  970SOL     ow 3877   5.589   1.775   3.011  0.5937  0.1281 -0.3971
  970SOL     hw 3878   5.618   1.772   3.102 -0.7849  1.1249  0.1240
  970SOL     hw 3879   5.586   1.869   2.990 -1.2078  0.0422 -0.7029
  970SOL     vw 3880   5.592   1.787   3.021  0.1743  0.2483 -0.3687
  971SOL     ow 3881   1.762   0.706   3.219 -0.7140  0.0805  0.6474
  971SOL     hw 3882   1.816   0.696   3.297  0.5484 -1.5562 -0.3610
  971SOL     hw 3883   1.823   0.731   3.150 -1.3768 -0.9147 -0.3329
  971SOL     vw 3884   1.777   0.708   3.220 -0.6349 -0.2668  0.3850
  972SOL     ow 3885   0.719   0.881   4.411  0.0108  0.6185 -0.0981
  972SOL     hw 3886   0.643   0.908   4.462  1.3213  1.8924  1.2766
  972SOL     hw 3887   0.738   0.956   4.355  1.7554  1.4133  1.4429
  972SOL     vw 3888   0.712   0.894   4.410  0.4139  0.8914  0.2866
  973SOL     ow 3889   4.397   2.071   2.750 -0.5703 -0.4649 -0.1180
  973SOL     hw 3890   4.425   2.030   2.668  0.0860  0.1697 -0.2161
  973SOL     hw 3891   4.302   2.078   2.741 -0.5019 -0.3719 -0.8442
  973SOL     vw 3892   4.388   2.066   2.738 -0.4745 -0.3688 -0.2267
  974SOL     ow 3893   1.432   5.080   4.639 -0.5149  0.2752  0.0992
  974SOL     hw 3894   1.445   5.000   4.589 -1.8927  0.5773 -0.8014
  974SOL     hw 3895   1.493   5.143   4.600 -1.1703  0.3436 -0.8578
  974SOL     vw 3896   1.442   5.078   4.627 -0.7831  0.3240 -0.1457
  975SOL     ow 3897   6.998   1.169   0.023 -0.0612 -0.0665  0.1136
  975SOL     hw 3898   6.920   1.219   0.048  0.4079  1.2055 -0.8142
  975SOL     hw 3899   6.993   1.162  -0.072  0.5702 -0.6315  0.1133
  975SOL     vw 3900   6.987   1.175   0.014  0.0839  0.0268 -0.0088
  976SOL     ow 3901   5.264   4.681   0.734 -0.0001  0.5453  0.5470
  976SOL     hw 3902   5.269   4.761   0.680  2.3980 -0.4765 -0.9287
  976SOL     hw 3903   5.211   4.621   0.682 -0.3516  0.5910  0.8474
  976SOL     vw 3904   5.258   4.684   0.720  0.2699  0.4163  0.3919
  977SOL     ow 3905   3.858   4.003   4.308  0.1246 -0.8267  0.1735
  977SOL     hw 3906   3.863   3.911   4.284  0.5066 -0.9917  0.8719
  977SOL     hw 3907   3.784   4.037   4.257 -0.4903 -1.6900  0.4640
  977SOL     vw 3908   3.849   3.995   4.298  0.0938 -0.9624  0.3037
  978SOL     ow 3909   3.869   5.719   6.718  0.0232 -0.0206 -0.2000
  978SOL     hw 3910   3.851   5.655   6.788  0.0907  0.7118  0.5042
  978SOL     hw 3911   3.814   5.690   6.645  0.9452 -1.5806 -0.3259
  978SOL     vw 3912   3.859   5.707   6.718  0.1538 -0.1299 -0.1240
  979SOL     ow 3913   3.991   5.886   5.664  0.1473 -0.4658  0.0245
  979SOL     hw 3914   3.998   5.959   5.602 -2.8947  1.6517  1.8754
  979SOL     hw 3915   4.081   5.869   5.691  1.1143  1.7192 -1.4981
  979SOL     vw 3916   4.004   5.894   5.659 -0.1264  0.1018  0.0677
  980SOL     ow 3917   3.653   2.894   2.458  0.6627  0.5348 -0.0670
  980SOL     hw 3918   3.712   2.963   2.428  0.2740  0.9359  0.0708
  980SOL     hw 3919   3.566   2.924   2.431  0.1528  1.4195  2.2619
  980SOL     vw 3920   3.649   2.907   2.451  0.5441  0.7045  0.2586
  981SOL     ow 3921   3.193   2.328   0.453 -0.1024  0.1626 -0.1593
  981SOL     hw 3922   3.233   2.253   0.498  1.1781  1.0846  0.3054
  981SOL     hw 3923   3.181   2.298   0.363 -0.8244 -1.0272  0.3075
  981SOL     vw 3924   3.197   2.314   0.447 -0.0287  0.1273 -0.0364
  982SOL     ow 3925   2.526   4.363   6.239 -0.8036 -0.0913  0.4175
  982SOL     hw 3926   2.548   4.406   6.321 -1.8554  0.5881  0.3643
  982SOL     hw 3927   2.583   4.286   6.236 -0.5607  0.0213  1.6505
  982SOL     vw 3928   2.536   4.358   6.249 -0.9103  0.0134  0.5734
  983SOL     ow 3929   3.663   6.225   2.062 -0.1974  0.1292 -0.1284
  983SOL     hw 3930   3.586   6.274   2.036 -0.6998  0.5190  1.9401
  983SOL     hw 3931   3.631   6.162   2.127  0.9117 -1.0258 -0.6568
  983SOL     vw 3932   3.649   6.223   2.067 -0.1173  0.0286  0.0747
  984SOL     ow 3933   4.741   5.934   2.742  0.0007 -0.2050 -0.1869
  984SOL     hw 3934   4.655   5.895   2.756  0.7211 -1.1883  1.8229
  984SOL     hw 3935   4.749   5.999   2.812  1.0536 -0.4359 -0.0819
  984SOL     vw 3936   4.731   5.938   2.753  0.2346 -0.3650  0.0921
  985SOL     ow 3937   3.348   5.611   4.051 -1.1555  0.2779  0.0217
  985SOL     hw 3938   3.359   5.522   4.020 -3.5348  0.0468 -0.3023
  985SOL     hw 3939   3.399   5.614   4.132 -0.6374 -1.2146 -0.2167
  985SOL     vw 3940   3.356   5.600   4.058 -1.4009  0.0503 -0.0525
  986SOL     ow 3941   3.427   5.029   6.510 -0.1498  0.4499 -0.2688
  986SOL     hw 3942   3.461   5.109   6.550 -0.9724  1.6471 -1.8544
  986SOL     hw 3943   3.439   4.961   6.577  1.6327  1.6318  0.6863
  986SOL     vw 3944   3.433   5.030   6.524 -0.0231  0.7639 -0.3517
  987SOL     ow 3945   2.941   4.725   5.214  0.3758  0.7046 -0.1585
  987SOL     hw 3946   2.981   4.640   5.230  0.6040 -0.1039 -3.9232
  987SOL     hw 3947   2.849   4.713   5.238  0.4466 -0.6004 -0.4530
  987SOL     vw 3948   2.934   4.712   5.219  0.4153  0.4258 -0.6943
  988SOL     ow 3949   5.588   1.476   3.055 -0.0938 -0.1984 -0.1495
  988SOL     hw 3950   5.681   1.495   3.064 -0.2002  0.3710 -0.1885
  988SOL     hw 3951   5.584   1.383   3.034  0.6196  0.2363 -2.4830
  988SOL     vw 3952   5.600   1.467   3.053 -0.0138 -0.0659 -0.4625
  989SOL     ow 3953   0.407   0.195   6.286 -0.1520 -0.3451 -0.3046
  989SOL     hw 3954   0.375   0.206   6.197 -0.3503 -0.6129 -0.2665
  989SOL     hw 3955   0.449   0.279   6.307 -2.2950  0.6566  0.2520
  989SOL     vw 3956   0.408   0.208   6.277 -0.4609 -0.2482 -0.2260
  990SOL     ow 3957   5.657   3.982   6.922 -0.2535  0.2421 -0.3746
  990SOL     hw 3958   5.747   3.950   6.934 -0.8835 -1.4640  0.2127
  990SOL     hw 3959   5.667   4.074   6.899  1.6120  0.3179  0.5125
  990SOL     vw 3960   5.670   3.990   6.921 -0.0904  0.0268 -0.1800
  991SOL     ow 3961   2.464   5.033   3.391  0.0221 -0.3325  0.1320
  991SOL     hw 3962   2.510   5.105   3.348  1.1856 -0.7871  0.5846
  991SOL     hw 3963   2.413   5.076   3.461  1.1836  0.0149  0.7897
  991SOL     vw 3964   2.463   5.048   3.395  0.3289 -0.3464  0.2785
  992SOL     ow 3965   5.064   2.730   2.928 -0.0293 -0.1773  0.4125
  992SOL     hw 3966   5.056   2.659   2.992  2.0933 -1.7805 -0.9574
  992SOL     hw 3967   5.131   2.788   2.965 -1.0938  0.6693  1.0860
  992SOL     vw 3968   5.072   2.729   2.941  0.1106 -0.2773  0.3207
  993SOL     ow 3969   1.526   2.687   4.365  0.4405 -0.5038 -0.1234
  993SOL     hw 3970   1.596   2.641   4.320  2.1067  1.0207  0.7875
  993SOL     hw 3971   1.554   2.689   4.457 -0.1273  1.3135  0.0415
  993SOL     vw 3972   1.539   2.681   4.371  0.5854 -0.0628  0.0188
  994SOL     ow 3973   5.831   3.174   4.821  0.1505  0.0536  0.0183
  994SOL     hw 3974   5.926   3.175   4.803  0.0595 -0.4516 -0.5389
  994SOL     hw 3975   5.795   3.237   4.759 -0.2137 -1.9941 -1.9929
  994SOL     vw 3976   5.839   3.183   4.810  0.0908 -0.2832 -0.3207
  995SOL     ow 3977   6.681   2.240   0.990  0.3016  0.2309  0.7540
  995SOL     hw 3978   6.635   2.291   0.922 -1.3490 -0.5555  1.2254
  995SOL     hw 3979   6.635   2.262   1.071  0.9453 -0.3815  1.2909
  995SOL     vw 3980   6.669   2.249   0.992  0.1688  0.0464  0.8870
  996SOL     ow 3981   2.132   5.334   1.904  0.2745  0.7973 -0.4985
  996SOL     hw 3982   2.200   5.401   1.896  0.8154  0.7906  2.6392
  996SOL     hw 3983   2.053   5.376   1.868  1.0884  2.2833 -0.6559
  996SOL     vw 3984   2.131   5.349   1.898  0.4534  0.9925 -0.1053
  997SOL     ow 3985   5.478   0.018   1.327  0.7227 -0.1038 -1.1537
  997SOL     hw 3986   5.494   0.057   1.413  1.6694 -1.2937 -0.7566
  997SOL     hw 3987   5.546   0.056   1.271  0.1105  0.6659 -1.3927
  997SOL     vw 3988   5.489   0.028   1.331  0.7668 -0.1592 -1.1329
  998SOL     ow 3989   6.951   6.966   1.813  0.6752  0.2033 -0.0929
  998SOL     hw 3990   7.018   7.013   1.763  0.2150  0.8379 -0.1321
  998SOL     hw 3991   6.870   7.013   1.794  0.1950 -0.6071 -0.1203
  998SOL     vw 3992   6.949   6.978   1.804  0.5512  0.1802 -0.1017
  999SOL     ow 3993   4.769   0.446   0.033 -0.0704  0.4677 -0.5042
  999SOL     hw 3994   4.856   0.470   0.066 -0.3509  0.0907  0.5445
  999SOL     hw 3995   4.713   0.520   0.055 -0.3350  0.0652  0.2018
  999SOL     vw 3996   4.773   0.459   0.040 -0.1421  0.3649 -0.2727
 1000SOL     ow 3997   6.905   2.286   0.788  0.1361  0.5093 -0.3204
 1000SOL     hw 3998   6.976   2.338   0.749  0.8185 -0.6513 -0.6692
 1000SOL     hw 3999   6.859   2.248   0.713 -0.4189  0.6875 -0.0741
 1000SOL     vw 4000   6.909   2.288   0.773  0.1528  0.3797 -0.3339
 1001SOL     ow 4001   6.963   1.555   1.443  0.2068  0.7970  0.0779
 1001SOL     hw 4002   6.957   1.459   1.446 -1.1731  0.8421 -0.6031
 1001SOL     hw 4003   6.898   1.586   1.505  1.5223  1.3206  1.2540
 1001SOL     vw 4004   6.954   1.546   1.451  0.1986  0.8720  0.1432
 1002SOL     ow 4005   0.397   1.121   4.218 -0.2956 -0.1483  0.3455
 1002SOL     hw 4006   0.396   1.216   4.227  0.2802 -0.2447  1.7644
 1002SOL     hw 4007   0.481   1.094   4.256 -0.0109 -1.1548 -0.9383
 1002SOL     vw 4008   0.408   1.130   4.224 -0.1821 -0.2939  0.3636
 1003SOL     ow 4009   6.712   3.461   1.468 -0.4646 -0.8700 -0.5479
 1003SOL     hw 4010   6.713   3.535   1.409  1.4229 -2.1018 -2.1976
 1003SOL     hw 4011   6.744   3.496   1.551 -1.7475  0.5864 -0.6342
 1003SOL     vw 4012   6.717   3.475   1.471 -0.3850 -0.8404 -0.7769
 1004SOL     ow 4013   2.478   3.397   2.207 -0.2920  0.0883  0.4115
 1004SOL     hw 4014   2.556   3.440   2.242  1.4744 -2.2914 -0.3854
 1004SOL     hw 4015   2.475   3.424   2.115 -0.8265  0.6803  0.5905
 1004SOL     vw 4016   2.488   3.407   2.199 -0.1295 -0.1476  0.3300
 1005SOL     ow 4017   2.930   5.390   4.052  0.2171 -0.6453  0.6774
 1005SOL     hw 4018   2.985   5.332   4.000 -1.7749 -0.3442 -2.0185
 1005SOL     hw 4019   2.979   5.471   4.059  0.3641 -0.5199 -1.2984
 1005SOL     vw 4020   2.944   5.393   4.046 -0.0262 -0.5889  0.0610
 1006SOL     ow 4021   5.227   3.596   4.469 -0.3599  0.1568  0.2600
 1006SOL     hw 4022   5.252   3.654   4.396 -0.5729  0.1632  0.1898
 1006SOL     hw 4023   5.132   3.588   4.461 -0.4169  0.3748  0.6989
 1006SOL     vw 4024   5.218   3.603   4.458 -0.3955  0.1864  0.3088
 1007SOL     ow 4025   0.842   1.405   5.302  0.2874  0.3620 -0.6356
 1007SOL     hw 4026   0.852   1.354   5.222  0.7198 -1.5443  0.5573
 1007SOL     hw 4027   0.777   1.356   5.353  1.5254  0.3754  1.0216
 1007SOL     vw 4028   0.835   1.392   5.298  0.5078  0.1122 -0.2594
 1008SOL     ow 4029   1.487   6.500   3.122  0.0827  0.0206 -0.3823
 1008SOL     hw 4030   1.466   6.519   3.214 -0.3454 -0.8691 -0.2826
 1008SOL     hw 4031   1.552   6.566   3.098 -1.0607  1.3505  0.0362
 1008SOL     vw 4032   1.493   6.511   3.131 -0.1247  0.0787 -0.3139
 1009SOL     ow 4033   5.850   1.766   6.382 -0.0158 -0.2947  0.1144
 1009SOL     hw 4034   5.854   1.698   6.315 -0.2665 -1.0976  0.9006
 1009SOL     hw 4035   5.798   1.728   6.453 -0.3692  0.8049  0.4683
 1009SOL     vw 4036   5.844   1.752   6.383 -0.0954 -0.2555  0.2649
 1010SOL     ow 4037   3.807   5.048   0.686 -0.2484 -0.5140 -0.0808
 1010SOL     hw 4038   3.849   5.130   0.659  1.2948 -1.4069 -0.5132
 1010SOL     hw 4039   3.798   4.998   0.605 -0.4589 -1.0951  0.2957
 1010SOL     vw 4040   3.811   5.052   0.672 -0.0725 -0.7083 -0.0882
 1011SOL     ow 4041   5.876   1.512   3.062 -0.6768 -0.8314 -0.4706
 1011SOL     hw 4042   5.968   1.488   3.056 -0.6295 -0.5582 -0.8891
 1011SOL     hw 4043   5.867   1.550   3.150  0.3866  2.2091 -1.5379
 1011SOL     vw 4044   5.887   1.514   3.073 -0.5305 -0.3942 -0.6669
 1012SOL     ow 4045   2.967   6.354   6.189 -0.5472 -0.0912 -1.0017
 1012SOL     hw 4046   2.927   6.336   6.274 -0.4273 -1.1296 -1.1543
 1012SOL     hw 4047   3.042   6.295   6.185  2.0961  2.9513 -0.0196
 1012SOL     vw 4048   2.971   6.344   6.200 -0.1825  0.1731 -0.8926
 1013SOL     ow 4049   6.909   5.212   6.491 -0.1832 -0.4789  0.0751
 1013SOL     hw 4050   6.912   5.304   6.518 -0.2998  0.2849 -2.2140
 1013SOL     hw 4051   6.871   5.166   6.565  0.3801  1.2236  1.5039
 1013SOL     vw 4052   6.905   5.218   6.504 -0.1242 -0.1533 -0.0384
 1014SOL     ow 4053   1.238   6.794   0.052 -0.1000  0.0137 -0.5061
 1014SOL     hw 4054   1.147   6.777   0.076 -0.0312  0.0779 -0.2005
 1014SOL     hw 4055   1.276   6.836   0.128  0.8574 -2.2831  0.3841
 1014SOL     vw 4056   1.231   6.797   0.065  0.0353 -0.2811 -0.3483
 1015SOL     ow 4057   4.796   3.715   0.979  0.3309 -0.3980 -0.0867
 1015SOL     hw 4058   4.746   3.634   0.986  1.7389 -1.4463 -1.5643
 1015SOL     hw 4059   4.831   3.730   1.067  0.0523 -1.3759  0.1956
 1015SOL     vw 4060   4.794   3.707   0.992  0.4799 -0.6654 -0.2444
 1016SOL     ow 4061   0.048   0.055   1.136  0.2109  0.1387  0.2120
 1016SOL     hw 4062   0.048   0.115   1.061  0.5424  0.1188  0.1946
 1016SOL     hw 4063   0.140   0.049   1.161  0.2495 -0.7960 -0.1353
 1016SOL     vw 4064   0.061   0.062   1.129  0.2596  0.0127  0.1639
 1017SOL     ow 4065   4.375   1.206   6.170  0.1535  0.3416  0.2597
 1017SOL     hw 4066   4.416   1.266   6.232  1.0270  0.4401 -0.3864
 1017SOL     hw 4067   4.411   1.231   6.085  0.8515 -1.3257  0.0089
 1017SOL     vw 4068   4.385   1.217   6.167  0.3610  0.1346  0.1411
 1018SOL     ow 4069   6.718   0.708   3.460 -0.2921  0.6565  0.2107
 1018SOL     hw 4070   6.635   0.698   3.412 -0.9696 -2.1196  1.7915
 1018SOL     hw 4071   6.785   0.684   3.396 -0.9408 -0.1462 -0.1902
 1018SOL     vw 4072   6.716   0.704   3.445 -0.4671  0.1843  0.3664
 1019SOL     ow 4073   1.761   2.968   6.253 -0.0727  0.1116 -0.0002
 1019SOL     hw 4074   1.685   3.010   6.292 -0.2375  0.3194 -0.5315
 1019SOL     hw 4075   1.836   3.016   6.290 -0.2063  0.0305  0.3766
 1019SOL     vw 4076   1.761   2.980   6.263 -0.1120  0.1283 -0.0207
 1020SOL     ow 4077   4.371   1.806   4.723 -0.2249 -0.0527  0.0252
 1020SOL     hw 4078   4.286   1.834   4.754  0.5115  0.6977  1.4517
 1020SOL     hw 4079   4.434   1.857   4.774  1.0916 -1.1914 -0.3864
 1020SOL     vw 4080   4.368   1.816   4.734  0.0463 -0.1039  0.1590
 1021SOL     ow 4081   3.038   5.673   4.072 -0.5191 -0.2899 -0.0777
 1021SOL     hw 4082   2.953   5.690   4.031 -1.0860 -1.3675  0.6195
 1021SOL     hw 4083   3.018   5.652   4.163  0.3706 -1.6554 -0.1599
 1021SOL     vw 4084   3.024   5.673   4.078 -0.4765 -0.6125  0.0036
 1022SOL     ow 4085   5.264   1.505   0.796 -0.5321 -0.4080  0.2004
 1022SOL     hw 4086   5.319   1.466   0.864 -0.4944 -1.1284 -0.2257
 1022SOL     hw 4087   5.306   1.589   0.776  0.3229 -0.8676  0.0015
 1022SOL     vw 4088   5.277   1.511   0.803 -0.4144 -0.5637  0.1179
 1023SOL     ow 4089   1.315   3.636   3.385 -0.4336  0.3532  0.0577
 1023SOL     hw 4090   1.311   3.572   3.314  2.1373  1.1086 -0.8890
 1023SOL     hw 4091   1.282   3.589   3.462 -0.4932 -1.4471 -1.0125
 1023SOL     vw 4092   1.310   3.622   3.386 -0.1023  0.2154 -0.2083
 1024SOL     ow 4093   4.613   3.038   4.661  0.2642 -0.1076 -0.2796
 1024SOL     hw 4094   4.688   3.027   4.720 -1.0858 -2.6648  1.1603
 1024SOL     hw 4095   4.618   2.962   4.603  1.1072  1.9423 -3.0840
 1024SOL     vw 4096   4.624   3.026   4.661  0.1972 -0.1746 -0.4594
 1025SOL     ow 4097   1.555   2.039   1.427 -0.2803 -0.4404 -0.0030
 1025SOL     hw 4098   1.460   2.047   1.438 -0.1403  0.3100  0.8029
 1025SOL     hw 4099   1.578   2.108   1.366 -0.0621  0.4648  1.0598
 1025SOL     vw 4100   1.545   2.049   1.421 -0.2330 -0.2220  0.2435
 1026SOL     ow 4101   4.054   1.838   1.365 -0.1585  0.3297  0.4580
 1026SOL     hw 4102   4.102   1.872   1.440  0.5383  1.7534 -0.5814
 1026SOL     hw 4103   4.083   1.747   1.357 -0.1674  0.1915  1.8298
 1026SOL     vw 4104   4.064   1.831   1.374 -0.0677  0.4993  0.5019
 1027SOL     ow 4105   6.737   2.596   0.804 -0.0168  0.4861 -0.5389
 1027SOL     hw 4106   6.807   2.625   0.746  0.1360 -0.1703 -0.6890
 1027SOL     hw 4107   6.768   2.618   0.892 -0.0393  1.0453 -0.6670
 1027SOL     vw 4108   6.751   2.603   0.808  0.0002  0.4734 -0.5756
 1028SOL     ow 4109   2.182   1.378   6.562 -0.4627  0.2921 -0.7373
 1028SOL     hw 4110   2.236   1.307   6.528  0.2656  0.4433  0.0545
 1028SOL     hw 4111   2.092   1.355   6.538 -0.4651 -1.8152  0.9956
 1028SOL     vw 4112   2.177   1.366   6.554 -0.3670  0.0340 -0.4041
 1029SOL     ow 4113   0.596   3.167   4.345 -0.0675  0.2691 -0.7544
 1029SOL     hw 4114   0.632   3.114   4.416 -3.2681  0.0445  0.8914
 1029SOL     hw 4115   0.613   3.257   4.371  1.9183  0.1850 -1.5899
 1029SOL     vw 4116   0.603   3.172   4.358 -0.2277  0.2284 -0.6473
 1030SOL     ow 4117   2.569   1.980   4.645 -0.1281 -0.0182 -0.2878
 1030SOL     hw 4118   2.622   2.024   4.578 -0.5477  1.3161  0.2096
 1030SOL     hw 4119   2.512   2.049   4.679 -0.7603 -0.9486  0.6141
 1030SOL     vw 4120   2.569   1.995   4.640 -0.2669  0.0352 -0.1030
 1031SOL     ow 4121   4.332   6.271   0.901  0.2551 -0.1611  0.6715
 1031SOL     hw 4122   4.416   6.264   0.947  0.8104 -0.1777 -0.3126
 1031SOL     hw 4123   4.307   6.362   0.911  0.9224  0.0987  0.1014
 1031SOL     vw 4124   4.340   6.282   0.908  0.4163 -0.1290  0.4665
 1032SOL     ow 4125   3.457   5.735   3.097  0.2157  0.6050 -0.4646
 1032SOL     hw 4126   3.455   5.662   3.159  1.4129  0.3275 -0.7247
 1032SOL     hw 4127   3.402   5.803   3.137 -0.8927 -0.4114 -0.2043
 1032SOL     vw 4128   3.449   5.734   3.111  0.2275  0.4344 -0.4646
 1033SOL     ow 4129   2.039   2.952   6.579 -0.2799 -0.2134  0.1641
 1033SOL     hw 4130   2.044   3.002   6.497 -2.7118  1.1535  0.7720
 1033SOL     hw 4131   2.071   3.013   6.646 -0.0576 -0.6811  0.4875
 1033SOL     vw 4132   2.044   2.967   6.577 -0.5715 -0.0948  0.2868
 1034SOL     ow 4133   6.160   4.368   6.644 -1.0071 -0.1032  0.5809
 1034SOL     hw 4134   6.218   4.428   6.691 -0.8125 -0.0182  0.2400
 1034SOL     hw 4135   6.211   4.342   6.567 -0.7342 -1.4028  1.1784
 1034SOL     vw 4136   6.175   4.373   6.640 -0.9453 -0.2635  0.6146
 1035SOL     ow 4137   0.721   2.899   5.671 -0.2935  0.3007 -0.0695
 1035SOL     hw 4138   0.647   2.933   5.619 -0.1255 -0.0398 -0.5445
 1035SOL     hw 4139   0.786   2.876   5.605 -1.3106 -3.2483 -0.0152
 1035SOL     vw 4140   0.720   2.901   5.655 -0.4055 -0.2124 -0.1249
 1036SOL     ow 4141   5.019   1.553   3.927 -0.2180  0.1696 -0.0341
 1036SOL     hw 4142   5.080   1.500   3.980 -0.3031  0.6285  0.5371
 1036SOL     hw 4143   4.938   1.502   3.925  0.1533 -0.4176 -0.7470
 1036SOL     vw 4144   5.017   1.539   3.934 -0.1805  0.1527 -0.0529
 1037SOL     ow 4145   5.887   1.200   3.924  0.0856 -0.2704  0.0553
 1037SOL     hw 4146   5.911   1.190   3.832  0.0260 -1.3980  0.1527
 1037SOL     hw 4147   5.801   1.159   3.932  0.1898 -0.3892  0.6641
 1037SOL     vw 4148   5.879   1.193   3.913  0.0916 -0.4348  0.1484
 1038SOL     ow 4149   4.231   4.014   6.608  0.1657  0.4710 -0.8367
 1038SOL     hw 4150   4.222   3.999   6.702 -0.1016  1.4758 -0.6892
 1038SOL     hw 4151   4.142   4.008   6.574  0.3933 -1.0715 -1.2315
 1038SOL     vw 4152   4.218   4.011   6.616  0.1605  0.4001 -0.8690
 1039SOL     ow 4153   0.565   2.702   1.714 -0.3751  0.0304 -0.2129
 1039SOL     hw 4154   0.529   2.615   1.730  0.5848  0.1477  3.5371
 1039SOL     hw 4155   0.660   2.691   1.722 -0.3032  1.6825  3.0959
 1039SOL     vw 4156   0.573   2.689   1.718 -0.2390  0.2639  0.7184
 1040SOL     ow 4157   1.949   6.609   0.869  0.3875  0.3792  0.1084
 1040SOL     hw 4158   1.864   6.639   0.902  0.8525  2.7252 -0.6122
 1040SOL     hw 4159   1.971   6.534   0.923 -0.9702  1.2906  2.0480
 1040SOL     vw 4160   1.941   6.603   0.880  0.2697  0.8090  0.2693
 1041SOL     ow 4161   5.526   1.569   2.767 -0.2254 -0.1627  0.1886
 1041SOL     hw 4162   5.571   1.629   2.707  0.4318 -0.8810 -0.0616
 1041SOL     hw 4163   5.455   1.532   2.715  0.8658 -1.4415 -0.4713
 1041SOL     vw 4164   5.523   1.572   2.752  0.0052 -0.4262  0.0685
 1042SOL     ow 4165   2.960   4.160   2.253 -0.3639 -0.3554 -0.6165
 1042SOL     hw 4166   3.034   4.201   2.297 -0.4994  1.2211 -1.7684
 1042SOL     hw 4167   2.893   4.152   2.322  0.6320 -1.3039  0.3000
 1042SOL     vw 4168   2.961   4.164   2.268 -0.2503 -0.2725 -0.6475
 1043SOL     ow 4169   5.866   5.493   6.089 -0.2030  0.9293 -0.2285
 1043SOL     hw 4170   5.950   5.454   6.112  0.5776  1.1956 -2.4329
 1043SOL     hw 4171   5.826   5.431   6.028 -1.4930  0.9682  0.5217
 1043SOL     vw 4172   5.871   5.480   6.084 -0.2704  0.9694 -0.4201
 1044SOL     ow 4173   6.569   5.067   0.422  0.1096 -0.0746  0.1257
 1044SOL     hw 4174   6.526   5.124   0.357  0.0957 -0.9717 -0.6744
 1044SOL     hw 4175   6.520   5.081   0.502 -0.0806  0.8193 -0.1340
 1044SOL     vw 4176   6.557   5.076   0.424  0.0825 -0.0751 -0.0141
 1045SOL     ow 4177   6.508   5.464   1.067  0.1067  0.2206  0.0253
 1045SOL     hw 4178   6.492   5.549   1.025  1.9743  1.5926  1.8604
 1045SOL     hw 4179   6.521   5.403   0.995 -3.0727  1.0088 -1.3966
 1045SOL     vw 4180   6.508   5.467   1.052 -0.0663  0.5057  0.0799
 1046SOL     ow 4181   2.744   5.337   6.278  0.0727  0.2065  0.3288
 1046SOL     hw 4182   2.679   5.269   6.260 -1.0755  1.0429  1.1623
 1046SOL     hw 4183   2.700   5.419   6.255  1.3764  0.7045 -0.5168
 1046SOL     vw 4184   2.729   5.339   6.272  0.0932  0.3824  0.3271
 1047SOL     ow 4185   6.242   5.051   5.784  0.4768 -0.2913  0.6106
 1047SOL     hw 4186   6.204   5.136   5.809  1.3705  0.4584 -0.4678
 1047SOL     hw 4187   6.214   4.991   5.853 -1.2209  0.5941  0.7544
 1047SOL     vw 4188   6.233   5.055   5.797  0.3705 -0.0756  0.4876
 1048SOL     ow 4189   0.140   3.576   3.815 -0.0203  0.4794  0.2801
 1048SOL     hw 4190   0.187   3.648   3.857  0.9191 -0.2282  0.4761
 1048SOL     hw 4191   0.104   3.525   3.888  1.7276 -0.8268  0.2866
 1048SOL     vw 4192   0.141   3.579   3.830  0.3342  0.2136  0.3068
 1049SOL     ow 4193   3.709   4.002   3.390  0.2918 -0.2599 -0.2982
 1049SOL     hw 4194   3.690   3.933   3.454 -1.8377  1.1224  0.6520
 1049SOL     hw 4195   3.738   4.076   3.442 -2.0183  1.0788 -0.7802
 1049SOL     vw 4196   3.710   4.003   3.405 -0.2940  0.0992 -0.2365
 1050SOL     ow 4197   5.666   1.716   5.740 -0.1674 -0.1543  0.0241
 1050SOL     hw 4198   5.667   1.744   5.832 -0.1843  4.0221 -1.0419
 1050SOL     hw 4199   5.619   1.786   5.694  1.5121 -1.0596 -3.4213
 1050SOL     vw 4200   5.660   1.729   5.746  0.0520  0.2772 -0.5708
 1051SOL     ow 4201   0.585   3.096   2.362  0.6764  0.0606 -0.4734
 1051SOL     hw 4202   0.490   3.089   2.356  0.6916 -1.2757  0.4345
 1051SOL     hw 4203   0.601   3.186   2.387 -0.1206  1.4450 -4.2026
 1051SOL     vw 4204   0.574   3.107   2.364  0.5732  0.0669 -0.8458
 1052SOL     ow 4205   6.696   4.183   5.084 -0.4614 -0.1703  0.2778
 1052SOL     hw 4206   6.787   4.166   5.110 -0.0462  3.2203  1.6143
 1052SOL     hw 4207   6.647   4.181   5.167 -1.1220  0.4306 -0.0833
 1052SOL     vw 4208   6.702   4.181   5.099 -0.4938  0.3567  0.4065
 1053SOL     ow 4209   1.227   1.750   0.345 -0.5313  0.2816 -0.2538
 1053SOL     hw 4210   1.157   1.693   0.313 -0.7352  0.9942 -1.1218
 1053SOL     hw 4211   1.258   1.708   0.425 -0.5429 -1.1344 -0.9750
 1053SOL     vw 4212   1.222   1.737   0.352 -0.5597  0.1887 -0.4634
 1054SOL     ow 4213   5.027   2.813   0.390  0.3513  0.2039 -0.1664
 1054SOL     hw 4214   5.107   2.857   0.363  0.0046  0.7749 -0.2830
 1054SOL     hw 4215   4.964   2.884   0.402 -1.1989 -0.4392 -3.5000
 1054SOL     vw 4216   5.029   2.828   0.388  0.1011  0.1945 -0.6216
 1055SOL     ow 4217   2.908   1.188   6.437  0.1946  0.5127  0.5453
 1055SOL     hw 4218   2.812   1.190   6.436  0.0803 -0.8039  2.3998
 1055SOL     hw 4219   2.929   1.101   6.472  2.1455 -0.2495 -2.1678
 1055SOL     vw 4220   2.898   1.177   6.442  0.4369  0.2384  0.4318
 1056SOL     ow 4221   3.487   2.630   0.840  0.1469  0.1593  0.1444
 1056SOL     hw 4222   3.483   2.570   0.914 -0.3147 -1.2646 -0.9871
 1056SOL     hw 4223   3.577   2.624   0.808  0.4530  1.0666  0.7971
 1056SOL     vw 4224   3.498   2.622   0.845  0.1264  0.0911  0.0812
 1057SOL     ow 4225   6.335   1.024   4.060  0.7128  0.2762  0.6028
 1057SOL     hw 4226   6.333   1.120   4.061  1.2994  0.3133 -0.4048
 1057SOL     hw 4227   6.421   1.001   4.096  0.9035  0.1595  0.0804
 1057SOL     vw 4228   6.346   1.034   4.065  0.8152  0.2657  0.4008
 1058SOL     ow 4229   4.422   1.339   4.483 -0.4819  0.0985 -0.1891
 1058SOL     hw 4230   4.414   1.327   4.389 -1.3087  0.9621 -0.2501
 1058SOL     hw 4231   4.336   1.314   4.518  0.0022 -0.7637  0.3990
 1058SOL     vw 4232   4.409   1.334   4.476 -0.5274  0.0986 -0.1192
 1059SOL     ow 4233   1.312   6.604   2.910  0.1060 -0.4010 -0.1884
 1059SOL     hw 4234   1.339   6.622   2.820 -0.7884  1.5034 -0.1066
 1059SOL     hw 4235   1.298   6.690   2.949  2.1358 -1.0829  2.3495
 1059SOL     vw 4236   1.314   6.617   2.903  0.2558 -0.2396  0.1574
 1060SOL     ow 4237   4.319   6.670   0.244  0.2649 -0.2444  0.0499
 1060SOL     hw 4238   4.261   6.746   0.232  0.5711  0.2214  1.3196
 1060SOL     hw 4239   4.398   6.693   0.196  0.4837  0.4131  0.6917
 1060SOL     vw 4240   4.322   6.683   0.236  0.3343 -0.0963  0.3021
 1061SOL     ow 4241   2.795   0.462   6.829  0.1169  0.5167 -0.2618
 1061SOL     hw 4242   2.830   0.525   6.893  0.4902 -1.4946  1.6240
 1061SOL     hw 4243   2.863   0.395   6.822 -1.7384 -1.5452  0.6144
 1061SOL     vw 4244   2.809   0.462   6.837 -0.0787 -0.0207  0.1028
 1062SOL     ow 4245   2.313   4.302   0.676  0.3038 -0.4205 -0.2291
 1062SOL     hw 4246   2.280   4.232   0.733 -1.9687  1.5372  1.0488
 1062SOL     hw 4247   2.300   4.269   0.587  0.6534 -2.1483  0.3145
 1062SOL     vw 4248   2.307   4.288   0.672  0.0502 -0.3901  0.0112
 1063SOL     ow 4249   6.983   4.466   4.201 -0.0616 -0.7507 -0.0171
 1063SOL     hw 4250   7.036   4.502   4.273  3.0626 -3.4197 -0.7241
 1063SOL     hw 4251   6.951   4.543   4.154 -0.8980  1.0715  3.2041
 1063SOL     vw 4252   6.986   4.481   4.204  0.2403 -0.8626  0.3145
 1064SOL     ow 4253   2.856   2.653   5.648 -0.4488  0.2831  0.2152
 1064SOL     hw 4254   2.828   2.567   5.618 -0.9161  1.0461 -1.6789
 1064SOL     hw 4255   2.871   2.642   5.742 -0.0477 -1.9563 -0.0604
 1064SOL     vw 4256   2.854   2.640   5.656 -0.4575  0.0885 -0.0713
 1065SOL     ow 4257   2.830   6.675   3.914 -0.1004  0.3732  0.6232
 1065SOL     hw 4258   2.752   6.706   3.867 -1.1687  0.3326  2.2828
 1065SOL     hw 4259   2.849   6.589   3.876  0.7768  1.4521 -1.6043
 1065SOL     vw 4260   2.822   6.668   3.902 -0.1256  0.5102  0.5484
 1066SOL     ow 4261   5.646   4.135   3.999 -0.4037 -0.0219  0.3216
 1066SOL     hw 4262   5.611   4.221   4.019 -0.5354 -0.4048  1.8336
 1066SOL     hw 4263   5.735   4.152   3.968 -1.1719  0.7974 -1.5842
 1066SOL     vw 4264   5.654   4.148   3.998 -0.5226  0.0355  0.2698
 1067SOL     ow 4265   5.001   1.734   5.261 -0.2895 -0.5144 -0.5348
 1067SOL     hw 4266   5.058   1.769   5.193  1.3659 -0.3345  0.8904
 1067SOL     hw 4267   4.981   1.809   5.317  1.6169 -1.3582  1.3813
 1067SOL     vw 4268   5.006   1.748   5.259  0.1802 -0.6020 -0.0939
 1068SOL     ow 4269   5.823   6.628   0.825 -0.0591 -0.5542  0.6237
 1068SOL     hw 4270   5.754   6.604   0.763  1.1803  0.1962 -1.1308
 1068SOL     hw 4271   5.896   6.569   0.804  0.3743 -0.3083  1.4018
 1068SOL     vw 4272   5.823   6.617   0.814  0.1616 -0.4230  0.4948
 1069SOL     ow 4273   6.615   6.856   3.721 -0.0125  0.2304 -0.1659
 1069SOL     hw 4274   6.641   6.948   3.726 -0.5367  0.4712 -1.5221
 1069SOL     hw 4275   6.667   6.821   3.649  0.2412 -0.5690  0.3954
 1069SOL     vw 4276   6.625   6.864   3.713 -0.0482  0.1569 -0.2708
 1070SOL     ow 4277   6.757   0.534   5.318 -1.0751 -0.4511  0.2856
 1070SOL     hw 4278   6.796   0.492   5.241 -0.5953  0.6953 -0.1327
 1070SOL     hw 4279   6.819   0.604   5.341 -1.6832 -0.1732  1.1291
 1070SOL     vw 4280   6.770   0.538   5.311 -1.0920 -0.2632  0.3417
 1071SOL     ow 4281   1.851   2.414   5.413 -0.0193 -0.1072  0.0647
 1071SOL     hw 4282   1.762   2.409   5.450 -0.7374  1.2039 -1.3688
 1071SOL     hw 4283   1.875   2.506   5.421  1.1752 -0.4349  0.3339
 1071SOL     vw 4284   1.842   2.425   5.419  0.0435  0.0225 -0.0889
 1072SOL     ow 4285   0.215   4.720   2.177 -0.0744  0.3927  0.4763
 1072SOL     hw 4286   0.219   4.652   2.110  1.5765 -0.7827  1.6739
 1072SOL     hw 4287   0.251   4.679   2.255 -0.2849  2.2562  1.6244
 1072SOL     vw 4288   0.220   4.706   2.178  0.1156  0.4835  0.7857
 1073SOL     ow 4289   1.940   3.258   4.107 -0.1570  0.3682 -0.4330
 1073SOL     hw 4290   1.901   3.272   4.020 -0.5813  2.6598  0.0538
 1073SOL     hw 4291   2.030   3.291   4.098  0.2304 -0.6348 -0.3337
 1073SOL     vw 4292   1.947   3.265   4.094 -0.1618  0.5381 -0.3557
 1074SOL     ow 4293   6.123   6.715   1.656 -0.8100  0.2134 -0.3160
 1074SOL     hw 4294   6.147   6.624   1.669  0.5314  0.8606  2.7254
 1074SOL     hw 4295   6.168   6.742   1.576  0.3409 -1.2920 -0.2047
 1074SOL     vw 4296   6.132   6.707   1.648 -0.4814  0.1001  0.1000
 1075SOL     ow 4297   4.599   5.530   0.517  0.0741  0.1873 -0.4161
 1075SOL     hw 4298   4.610   5.436   0.506  0.1368  0.1603 -0.1183
 1075SOL     hw 4299   4.670   5.569   0.466  2.1455  0.0108  2.1243
 1075SOL     vw 4300   4.609   5.523   0.508  0.3555  0.1607 -0.0416
 1076SOL     ow 4301   1.526   3.407   6.312 -0.1060 -0.4813  0.1555
 1076SOL     hw 4302   1.517   3.409   6.408 -1.4674 -0.3913  0.0474
 1076SOL     hw 4303   1.474   3.481   6.281  0.6740 -0.2573 -0.6398
 1076SOL     vw 4304   1.518   3.417   6.321 -0.1827 -0.4399  0.0365
 1077SOL     ow 4305   6.795   1.933   5.451  0.0366 -0.1297  0.8348
 1077SOL     hw 4306   6.862   1.994   5.419  0.0423 -0.9539 -0.8716
 1077SOL     hw 4307   6.810   1.853   5.401 -2.0026 -0.4427  0.6207
 1077SOL     vw 4308   6.806   1.931   5.440 -0.2317 -0.2797  0.5815
 1078SOL     ow 4309   2.105   1.640   4.425 -0.0160 -0.5897  0.0220
 1078SOL     hw 4310   2.188   1.669   4.388  0.2931  0.1556  1.2263
 1078SOL     hw 4311   2.129   1.594   4.505 -0.6956 -1.5390 -0.3118
 1078SOL     vw 4312   2.119   1.638   4.431 -0.0648 -0.6166  0.1369
 1079SOL     ow 4313   3.911   0.269   5.192 -0.2399 -0.7747  0.0686
 1079SOL     hw 4314   3.987   0.236   5.240 -0.8209 -1.6373  0.4311
 1079SOL     hw 4315   3.886   0.349   5.238  1.2874  0.3082 -0.9141
 1079SOL     vw 4316   3.918   0.275   5.205 -0.1152 -0.7457 -0.0134
 1080SOL     ow 4317   4.010   6.258   6.883  0.6595  0.1639 -0.1260
 1080SOL     hw 4318   3.964   6.310   6.948  2.4360 -0.5975  1.8422
 1080SOL     hw 4319   4.087   6.310   6.860  1.8355 -1.0186  0.9882
 1080SOL     vw 4320   4.014   6.271   6.888  1.0488 -0.0927  0.2806
 1081SOL     ow 4321   5.761   6.699   4.292 -0.4356 -0.1772 -0.5991
 1081SOL     hw 4322   5.779   6.652   4.374 -1.3917  0.0239 -0.2583
 1081SOL     hw 4323   5.844   6.738   4.268  0.1721 -1.3216 -0.4261
 1081SOL     vw 4324   5.774   6.698   4.300 -0.4814 -0.3018 -0.5312
 1082SOL     ow 4325   3.278   4.666   4.017  0.4208 -0.5685 -0.2009
 1082SOL     hw 4326   3.370   4.673   4.044  0.3132  0.8744 -0.1404
 1082SOL     hw 4327   3.230   4.717   4.083 -0.2575 -0.1694 -0.9921
 1082SOL     vw 4328   3.284   4.674   4.029  0.3170 -0.3252 -0.2975
 1083SOL     ow 4329   0.637   1.145   6.842  0.2325 -0.5635 -0.2509
 1083SOL     hw 4330   0.648   1.221   6.785  0.5799 -0.2847  0.1762
 1083SOL     hw 4331   0.653   1.179   6.930  1.5941 -1.3670 -0.1532
 1083SOL     vw 4332   0.641   1.159   6.846  0.4580 -0.6328 -0.1817
 1084SOL     ow 4333   1.785   0.707   1.561 -0.6173  0.6091  0.4679
 1084SOL     hw 4334   1.702   0.680   1.521  0.4402 -0.3442 -1.2048
 1084SOL     hw 4335   1.761   0.776   1.622 -2.6584  0.2362  0.1569
 1084SOL     vw 4336   1.771   0.712   1.564 -0.7470  0.4341  0.2061
 1085SOL     ow 4337   2.539   0.494   6.704  0.2121 -0.3144 -0.2085
 1085SOL     hw 4338   2.626   0.502   6.742 -0.1889  0.9497  0.5002
 1085SOL     hw 4339   2.506   0.583   6.698 -0.4160 -0.6111 -2.0114
 1085SOL     vw 4340   2.546   0.507   6.708  0.0764 -0.1867 -0.3526
 1086SOL     ow 4341   3.513   3.139   6.724  0.3076  0.2805 -0.1051
 1086SOL     hw 4342   3.463   3.112   6.802 -0.0824  0.5321 -0.2609
 1086SOL     hw 4343   3.601   3.158   6.757  1.2133 -3.0515 -0.2958
 1086SOL     vw 4344   3.518   3.138   6.739  0.3756 -0.1260 -0.1504
 1087SOL     ow 4345   5.640   2.584   5.893 -0.1496  0.2787  0.1503
 1087SOL     hw 4346   5.704   2.542   5.950 -1.3013 -1.3893  0.3047
 1087SOL     hw 4347   5.587   2.638   5.952 -0.8302 -0.8099  0.5717
 1087SOL     vw 4348   5.642   2.586   5.909 -0.3912 -0.0849  0.2263
 1088SOL     ow 4349   0.704   4.699   4.025 -0.2546  0.6179  0.3431
 1088SOL     hw 4350   0.632   4.756   4.051 -0.3269  0.2252  1.0320
 1088SOL     hw 4351   0.717   4.641   4.101  1.7948  1.6790  0.8752
 1088SOL     vw 4352   0.696   4.698   4.039  0.0063  0.7062  0.5043
 1089SOL     ow 4353   1.520   4.898   0.029  0.1488 -0.3008  0.2032
 1089SOL     hw 4354   1.548   4.847   0.105  2.1657 -0.8985 -0.8604
 1089SOL     hw 4355   1.544   4.988   0.050  1.0582 -0.5170  0.1596
 1089SOL     vw 4356   1.527   4.903   0.042  0.5349 -0.4084  0.0571
 1090SOL     ow 4357   4.626   1.093   4.633  0.4500 -0.3245 -0.9178
 1090SOL     hw 4358   4.669   1.031   4.575 -1.1621 -0.5701 -1.9154
 1090SOL     hw 4359   4.594   1.040   4.706  1.1459 -0.2569 -0.5520
 1090SOL     vw 4360   4.628   1.078   4.635  0.3290 -0.3480 -1.0011
 1091SOL     ow 4361   4.265   6.331   0.207  0.8394 -0.7561  0.9122
 1091SOL     hw 4362   4.219   6.278   0.141 -0.2347  0.7438  0.3991
 1091SOL     hw 4363   4.316   6.267   0.257 -2.0823 -2.6678  1.7674
 1091SOL     vw 4364   4.265   6.316   0.205  0.3123 -0.8104  0.9573
 1092SOL     ow 4365   0.500   4.544   2.981  0.3728 -0.0207 -0.2679
 1092SOL     hw 4366   0.515   4.591   2.899 -0.8805 -0.4254 -0.7576
 1092SOL     hw 4367   0.583   4.549   3.027  0.7297  1.3256 -0.9942
 1092SOL     vw 4368   0.513   4.551   2.976  0.2546  0.1035 -0.4283
 1093SOL     ow 4369   2.254   3.424   1.577  0.1013  0.3133  0.5139
 1093SOL     hw 4370   2.296   3.484   1.639  2.4546 -0.1449 -0.5511
 1093SOL     hw 4371   2.229   3.480   1.503  0.5565  0.2852  0.3385
 1093SOL     vw 4372   2.256   3.440   1.575  0.4718  0.2491  0.3502
 1094SOL     ow 4373   3.035   0.947   3.340  0.0437  0.0125 -0.1454
 1094SOL     hw 4374   3.009   1.039   3.350 -1.6127 -0.4723  0.3150
 1094SOL     hw 4375   2.996   0.920   3.257 -0.8154 -0.6749  0.4543
 1094SOL     vw 4376   3.026   0.956   3.330 -0.2882 -0.1422 -0.0056
 1095SOL     ow 4377   0.782   3.270   6.820  1.2444 -0.1000  0.2338
 1095SOL     hw 4378   0.820   3.280   6.907  1.6256 -0.0753  0.0653
 1095SOL     hw 4379   0.747   3.181   6.819  0.8674  0.0410  0.5542
 1095SOL     vw 4380   0.782   3.260   6.831  1.2450 -0.0781  0.2542
 1096SOL     ow 4381   2.909   5.446   2.872 -0.0660 -0.5222  0.1350
 1096SOL     hw 4382   2.844   5.415   2.809 -1.4668 -1.0643  1.7485
 1096SOL     hw 4383   2.872   5.422   2.957  0.5645  2.3317  1.3189
 1096SOL     vw 4384   2.896   5.439   2.875 -0.1676 -0.2172  0.5041
 1097SOL     ow 4385   4.781   6.312   5.923  0.1248 -0.6012  0.0610
 1097SOL     hw 4386   4.787   6.238   5.983 -1.0825 -1.2579 -0.5863
 1097SOL     hw 4387   4.829   6.383   5.966 -0.5149 -1.1288  1.6791
 1097SOL     vw 4388   4.788   6.312   5.936 -0.1190 -0.7577  0.1891
 1098SOL     ow 4389   6.336   3.733   0.772 -0.3910  0.3211  0.3408
 1098SOL     hw 4390   6.351   3.657   0.829 -0.9109  1.6142  2.3069
 1098SOL     hw 4391   6.374   3.707   0.688  1.3411 -1.3118  1.5254
 1098SOL     vw 4392   6.343   3.719   0.769 -0.2310  0.2761  0.7565
 1099SOL     ow 4393   6.192   6.489   2.658  0.2171  0.5174  0.5685
 1099SOL     hw 4394   6.097   6.487   2.662  0.2417  0.0895  0.9685
 1099SOL     hw 4395   6.212   6.547   2.584 -0.3703 -0.6313 -0.5177
 1099SOL     vw 4396   6.182   6.497   2.648  0.1428  0.3092  0.4779
 1100SOL     ow 4397   1.723   6.746   0.985  0.0478 -0.0303 -0.3845
 1100SOL     hw 4398   1.703   6.710   1.071  1.5601 -0.5349 -0.2013
 1100SOL     hw 4399   1.647   6.725   0.931 -0.4622 -0.6508  0.5585
 1100SOL     vw 4400   1.710   6.739   0.989  0.1800 -0.1788 -0.2360
 1101SOL     ow 4401   2.767   5.656   0.805  0.0054  0.4565 -0.2820
 1101SOL     hw 4402   2.837   5.711   0.841  0.9812 -1.3881  0.7697
 1101SOL     hw 4403   2.811   5.576   0.777 -1.3621  0.2086 -1.8876
 1101SOL     vw 4404   2.782   5.653   0.806 -0.0463  0.1805 -0.3551
 1102SOL     ow 4405   0.093   1.080   4.051 -0.3624 -0.1086 -0.1236
 1102SOL     hw 4406   0.079   1.043   3.964  0.9325  1.1001 -0.8931
 1102SOL     hw 4407   0.004   1.096   4.084 -0.9796 -3.4002  0.1184
 1102SOL     vw 4408   0.079   1.078   4.044 -0.2730 -0.3834 -0.1931
 1103SOL     ow 4409   1.357   0.678   6.195 -0.2894  0.1418  0.1251
 1103SOL     hw 4410   1.450   0.677   6.214 -0.0584 -0.2053 -0.9629
 1103SOL     hw 4411   1.351   0.706   6.104 -1.2054 -0.3612  0.0159
 1103SOL     vw 4412   1.368   0.681   6.185 -0.3797  0.0297 -0.0329
 1104SOL     ow 4413   5.246   1.776   5.060 -0.3298 -0.4896  0.0714
 1104SOL     hw 4414   5.176   1.764   4.995  0.5993 -1.0653 -0.8408
 1104SOL     hw 4415   5.241   1.868   5.083 -2.6110 -0.8670  1.4501
 1104SOL     vw 4416   5.236   1.786   5.055 -0.5081 -0.6154  0.1328
 1105SOL     ow 4417   5.893   4.708   4.306  0.0878 -0.3400 -0.2301
 1105SOL     hw 4418   5.858   4.681   4.221  0.8341  2.3652 -1.5069
 1105SOL     hw 4419   5.828   4.679   4.369 -2.2109  0.5236 -2.0642
 1105SOL     vw 4420   5.880   4.700   4.303 -0.1171  0.1309 -0.6406
 1106SOL     ow 4421   5.228   5.497   6.294 -0.1410 -0.4512 -0.2631
 1106SOL     hw 4422   5.210   5.527   6.383  0.6548  0.1010 -0.2780
 1106SOL     hw 4423   5.254   5.405   6.304 -1.4599 -0.8261 -0.0937
 1106SOL     vw 4424   5.229   5.489   6.307 -0.2100 -0.4275 -0.2429
 1107SOL     ow 4425   5.432   3.467   0.711  0.3179 -0.2407  0.2500
 1107SOL     hw 4426   5.456   3.425   0.794 -2.9873  0.5849  1.7991
 1107SOL     hw 4427   5.405   3.396   0.654  2.0001 -0.7539  0.0265
 1107SOL     vw 4428   5.432   3.452   0.714  0.1040 -0.1993  0.4250
 1108SOL     ow 4429   0.472   6.850   0.540 -0.1437 -0.1313 -0.4969
 1108SOL     hw 4430   0.543   6.885   0.485  0.2670  0.3678  0.3369
 1108SOL     hw 4431   0.447   6.923   0.596 -1.3590 -0.2861 -0.8006
 1108SOL     vw 4432   0.478   6.864   0.540 -0.2498 -0.0858 -0.4270
 1109SOL     ow 4433   1.318   6.454   4.797  1.4116  0.2073  0.6860
 1109SOL     hw 4434   1.408   6.421   4.798  2.5492  2.8488 -1.3267
 1109SOL     hw 4435   1.290   6.444   4.706 -0.2572 -0.2885  1.2185
 1109SOL     vw 4436   1.326   6.449   4.785  1.3416  0.4904  0.4907
 1110SOL     ow 4437   3.857   2.684   4.133  0.3032 -0.2133  0.0478
 1110SOL     hw 4438   3.873   2.603   4.182 -0.7321 -1.2457 -1.2464
 1110SOL     hw 4439   3.868   2.659   4.041 -0.9585  0.8784 -0.4323
 1110SOL     vw 4440   3.861   2.670   4.128  0.0004 -0.2053 -0.1862
 1111SOL     ow 4441   1.896   1.040   2.299  0.3344 -0.3317 -0.0130
 1111SOL     hw 4442   1.938   1.010   2.219 -0.2543  0.4448 -0.6359
 1111SOL     hw 4443   1.853   1.122   2.274  1.3604  0.7092  1.4508
 1111SOL     vw 4444   1.896   1.047   2.285  0.3921 -0.0919  0.0980
 1112SOL     ow 4445   3.151   1.314   5.630 -0.6231  1.0843  0.1129
 1112SOL     hw 4446   3.148   1.358   5.715 -0.3037  0.2549  0.5670
 1112SOL     hw 4447   3.244   1.305   5.611 -0.6507 -0.3054  0.5294
 1112SOL     vw 4448   3.163   1.319   5.639 -0.5847  0.7914  0.2279
 1113SOL     ow 4449   3.296   1.389   0.305 -0.4793 -0.3137 -0.3728
 1113SOL     hw 4450   3.222   1.359   0.252  0.3255  0.7465 -2.1658
 1113SOL     hw 4451   3.260   1.463   0.355 -0.9815 -0.6801 -0.1839
 1113SOL     vw 4452   3.281   1.395   0.305 -0.4393 -0.2223 -0.5844
 1114SOL     ow 4453   4.340   4.551   0.210 -0.2769 -0.5171 -0.5051
 1114SOL     hw 4454   4.302   4.519   0.291 -1.7240 -0.9682 -1.3292
 1114SOL     hw 4455   4.396   4.624   0.237 -0.7138 -0.6753  0.8889
 1114SOL     vw 4456   4.342   4.557   0.224 -0.5255 -0.5977 -0.4299
 1115SOL     ow 4457   5.617   5.534   1.691 -0.4803 -0.6619 -0.1976
 1115SOL     hw 4458   5.640   5.572   1.776 -0.5026  0.5629 -0.7214
 1115SOL     hw 4459   5.693   5.480   1.668 -0.7752 -1.5818  0.9137
 1115SOL     vw 4460   5.630   5.532   1.699 -0.5221 -0.6218 -0.1201
 1116SOL     ow 4461   6.460   3.827   5.871 -0.3307  1.0034 -0.2597
 1116SOL     hw 4462   6.533   3.803   5.814  0.4851  0.6411  0.9098
 1116SOL     hw 4463   6.450   3.753   5.930  1.2053  2.7556  2.4076
 1116SOL     vw 4464   6.468   3.814   5.871 -0.0203  1.1867  0.2465
 1117SOL     ow 4465   2.279   6.893   3.323 -0.3540 -0.1490  0.0911
 1117SOL     hw 4466   2.222   6.902   3.399  0.1720  0.7306  0.3949
 1117SOL     hw 4467   2.296   6.983   3.294 -1.7063 -0.4770 -1.9695
 1117SOL     vw 4468   2.274   6.906   3.329 -0.4630 -0.0763 -0.1407
 1118SOL     ow 4469   3.588   1.837   2.271 -0.0877  0.2313  0.5531
 1118SOL     hw 4470   3.674   1.799   2.254  0.6366  2.1931 -0.4019
 1118SOL     hw 4471   3.600   1.893   2.348 -1.3575 -1.9792  2.5202
 1118SOL     vw 4472   3.601   1.839   2.279 -0.1595  0.1985  0.6865
 1119SOL     ow 4473   2.030   2.938   0.463  0.6329  0.0823 -0.8027
 1119SOL     hw 4474   1.979   2.977   0.392 -0.8864  0.9213  0.6830
 1119SOL     hw 4475   2.010   2.844   0.459 -1.2543  0.4261 -0.1064
 1119SOL     vw 4476   2.021   2.931   0.453  0.1836  0.2384 -0.5148
 1120SOL     ow 4477   3.294   6.954   3.675  0.5049  0.0496  0.6027
 1120SOL     hw 4478   3.247   6.890   3.621  0.7423  0.5310 -0.2001
 1120SOL     hw 4479   3.289   6.919   3.764 -2.5596  0.7270  0.8243
 1120SOL     vw 4480   3.287   6.941   3.679  0.1317  0.2027  0.5261
 1121SOL     ow 4481   5.819   3.963   4.305 -0.1592  0.0382  0.0264
 1121SOL     hw 4482   5.914   3.950   4.314 -0.0588  0.5616 -0.2589
 1121SOL     hw 4483   5.803   4.050   4.340 -0.8656 -0.8779  2.1278
 1121SOL     vw 4484   5.829   3.972   4.311 -0.2391 -0.0136  0.2661
 1122SOL     ow 4485   4.237   1.761   6.674 -0.0108  0.3329  0.1979
 1122SOL     hw 4486   4.257   1.672   6.702 -0.9043  0.3074  0.8191
 1122SOL     hw 4487   4.320   1.796   6.642  0.6339 -0.3075  1.1166
 1122SOL     vw 4488   4.251   1.754   6.674 -0.0434  0.2450  0.4015
 1123SOL     ow 4489   2.302   3.841   3.082  0.0855 -0.3601 -0.4470
 1123SOL     hw 4490   2.374   3.800   3.033 -0.3882 -0.0988 -1.3865
 1123SOL     hw 4491   2.224   3.794   3.054 -0.2829  0.2619 -0.4762
 1123SOL     vw 4492   2.301   3.830   3.072 -0.0256 -0.2437 -0.5748
 1124SOL     ow 4493   6.524   3.783   6.274 -0.2921 -0.1082 -0.6874
 1124SOL     hw 4494   6.553   3.771   6.364 -1.2688  1.5739 -0.1001
 1124SOL     hw 4495   6.545   3.701   6.231  1.0332 -0.6181  0.8382
 1124SOL     vw 4496   6.530   3.771   6.280 -0.2463  0.0465 -0.4086
 1125SOL     ow 4497   4.434   4.603   5.730  0.3826  0.2193 -0.0910
 1125SOL     hw 4498   4.513   4.609   5.676 -0.5949  1.6302 -1.4129
 1125SOL     hw 4499   4.388   4.526   5.697  1.3538 -0.8499  0.9503
 1125SOL     vw 4500   4.439   4.593   5.719  0.3817  0.2644 -0.1280
 1126SOL     ow 4501   6.183   2.315   0.067  0.0987 -0.3455 -0.1398
 1126SOL     hw 4502   6.263   2.364   0.049 -0.0626  0.0651  0.2481
 1126SOL     hw 4503   6.118   2.382   0.088 -0.5013 -0.6380 -0.9956
 1126SOL     vw 4504   6.185   2.330   0.067 -0.0019 -0.3301 -0.2016
 1127SOL     ow 4505   0.816   3.202   4.822  0.5169  0.3551  0.2980
 1127SOL     hw 4506   0.855   3.231   4.740  1.2739 -0.6456  0.2977
 1127SOL     hw 4507   0.722   3.199   4.804  0.7426 -0.6257 -0.7839
 1127SOL     vw 4508   0.808   3.205   4.809  0.6465  0.0936  0.1554
 1128SOL     ow 4509   2.961   0.796   5.079 -0.2687  0.0284 -0.1517
 1128SOL     hw 4510   3.027   0.844   5.030 -1.3690  0.6469 -1.0624
 1128SOL     hw 4511   3.011   0.728   5.125  1.0660  0.8323 -0.3452
 1128SOL     vw 4512   2.976   0.793   5.079 -0.2379  0.2160 -0.2973
 1129SOL     ow 4513   5.123   6.164   2.312  0.3308  0.3497 -0.0058
 1129SOL     hw 4514   5.131   6.104   2.387  1.5163  0.2156 -0.2231
 1129SOL     hw 4515   5.065   6.119   2.251  2.1589 -1.1710 -0.7008
 1129SOL     vw 4516   5.116   6.150   2.314  0.7281  0.1311 -0.1261
 1130SOL     ow 4517   1.921   2.756   2.963  0.1109  0.2427 -0.2520
 1130SOL     hw 4518   1.859   2.768   2.892 -0.2347 -1.2294 -0.2434
 1130SOL     hw 4519   2.006   2.746   2.920 -0.1382 -0.9354 -0.5137
 1130SOL     vw 4520   1.924   2.756   2.948  0.0324 -0.1068 -0.2854
 1131SOL     ow 4521   0.592   5.537   3.368 -0.9236 -0.1107  0.6976
 1131SOL     hw 4522   0.502   5.548   3.338 -0.4156  1.7385 -0.3297
 1131SOL     hw 4523   0.597   5.587   3.449 -1.4783 -2.5044  2.3013
 1131SOL     vw 4524   0.581   5.545   3.374 -0.9298 -0.1826  0.7737
 1132SOL     ow 4525   0.375   3.866   0.561 -0.2511 -0.0723  0.5221
 1132SOL     hw 4526   0.280   3.857   0.553 -0.3795 -0.2004  1.9255
 1132SOL     hw 4527   0.408   3.850   0.472 -1.5677  0.5225 -0.1062
 1132SOL     vw 4528   0.367   3.862   0.548 -0.4418 -0.0107  0.6243
 1133SOL     ow 4529   4.559   4.178   5.809  0.1039 -0.4426  0.2754
 1133SOL     hw 4530   4.520   4.090   5.808 -0.5254 -0.1731 -1.0670
 1133SOL     hw 4531   4.497   4.232   5.759  1.6037  0.2676 -0.8739
 1133SOL     vw 4532   4.545   4.174   5.802  0.2189 -0.3133 -0.0534
 1134SOL     ow 4533   0.602   4.974   5.559  0.6626 -0.3491 -0.3428
 1134SOL     hw 4534   0.637   4.963   5.471 -0.8749 -1.7986 -0.8164
 1134SOL     hw 4535   0.508   4.961   5.550  0.0579  2.2602  1.0655
 1134SOL     vw 4536   0.595   4.971   5.547  0.3799 -0.1960 -0.2193
 1135SOL     ow 4537   2.024   3.994   0.239 -0.1627  0.0882 -0.5860
 1135SOL     hw 4538   2.060   4.082   0.252 -1.2797  0.2652  2.0347
 1135SOL     hw 4539   2.099   3.936   0.252  0.1563  0.6043 -0.0296
 1135SOL     vw 4540   2.038   3.998   0.243 -0.2680  0.1796 -0.1668
 1136SOL     ow 4541   1.520   5.907   0.738  0.6551 -0.7486  0.1610
 1136SOL     hw 4542   1.496   5.838   0.800 -1.1086 -1.7162 -1.4953
 1136SOL     hw 4543   1.437   5.950   0.717  1.4578  0.6297 -0.3052
 1136SOL     vw 4544   1.506   5.904   0.743  0.5283 -0.6948 -0.1190
 1137SOL     ow 4545   4.948   2.867   1.880  0.1390  0.5097 -0.5686
 1137SOL     hw 4546   5.013   2.937   1.883  0.9326 -0.0978 -2.2359
 1137SOL     hw 4547   4.890   2.885   1.954  1.7885  1.4694  0.5704
 1137SOL     vw 4548   4.949   2.879   1.890  0.4613  0.5561 -0.6382
 1138SOL     ow 4549   0.607   5.713   1.268  0.5866  0.5026  0.5202
 1138SOL     hw 4550   0.652   5.756   1.195  2.0296 -1.6823  0.0110
 1138SOL     hw 4551   0.675   5.702   1.335  0.5390 -1.5621  0.3161
 1138SOL     vw 4552   0.622   5.717   1.267  0.7707 -0.0579  0.4261
 1139SOL     ow 4553   1.442   3.797   4.188 -0.1039 -0.1541 -0.3101
 1139SOL     hw 4554   1.409   3.758   4.108 -1.6721 -1.6387  0.9739
 1139SOL     hw 4555   1.537   3.793   4.180 -0.1872  1.0332 -2.6506
 1139SOL     vw 4556   1.450   3.792   4.177 -0.3218 -0.1932 -0.4494
 1140SOL     ow 4557   5.532   1.692   5.178  0.4271  0.1194  0.4887
 1140SOL     hw 4558   5.526   1.727   5.267 -3.3956 -0.5366  0.6788
 1140SOL     hw 4559   5.539   1.597   5.190  0.7097  0.0834  0.0669
 1140SOL     vw 4560   5.532   1.684   5.192 -0.0401  0.0281  0.4582
 1141SOL     ow 4561   2.795   6.214   2.329  0.3831 -0.0708  0.7229
 1141SOL     hw 4562   2.769   6.281   2.393 -0.4910  0.1295  0.1728
 1141SOL     hw 4563   2.771   6.131   2.370 -1.4569  0.1169  0.1192
 1141SOL     vw 4564   2.788   6.212   2.343  0.0250 -0.0198  0.5708
 1142SOL     ow 4565   7.002   5.623   4.030 -0.3630  0.7388 -0.5186
 1142SOL     hw 4566   6.928   5.594   3.976 -0.5412 -0.6731  0.4168
 1142SOL     hw 4567   7.070   5.646   3.967 -1.0422  0.4830 -1.3717
 1142SOL     vw 4568   7.001   5.622   4.015 -0.4759  0.5188 -0.5078
 1143SOL     ow 4569   0.097   3.196   6.409 -0.0529 -0.0142 -0.5431
 1143SOL     hw 4570   0.179   3.179   6.361  1.2176  1.2576  1.0661
 1143SOL     hw 4571   0.035   3.225   6.342  1.0542 -0.2107 -1.6899
 1143SOL     vw 4572   0.100   3.197   6.394  0.2608  0.1277 -0.4818
 1144SOL     ow 4573   4.444   2.206   6.065 -0.4318  0.2330  0.4145
 1144SOL     hw 4574   4.480   2.186   5.979 -0.6484  4.2425 -0.7998
 1144SOL     hw 4575   4.520   2.203   6.123  0.1984  0.0087 -0.3993
 1144SOL     vw 4576   4.459   2.203   6.061 -0.3772  0.7327  0.1471
 1145SOL     ow 4577   4.508   4.507   6.971 -0.3158 -0.0558 -0.1914
 1145SOL     hw 4578   4.537   4.588   6.929 -0.5041 -1.5143 -3.4671
 1145SOL     hw 4579   4.584   4.477   7.020  1.0922  0.2504 -2.0642
 1145SOL     vw 4580   4.522   4.514   6.972 -0.1547 -0.2079 -0.8707
 1146SOL     ow 4581   6.327   3.540   1.843 -0.3774 -0.5432  0.3907
 1146SOL     hw 4582   6.233   3.542   1.861 -0.4987  2.9270 -0.0921
 1146SOL     hw 4583   6.341   3.610   1.780  2.1832 -2.8717 -1.8852
 1146SOL     vw 4584   6.316   3.549   1.837 -0.0556 -0.3926  0.0267
 1147SOL     ow 4585   3.318   0.838   3.415  0.3257 -0.1667  1.0977
 1147SOL     hw 4586   3.376   0.901   3.458  1.0983  1.2560 -1.8190
 1147SOL     hw 4587   3.376   0.766   3.390  0.1865 -0.2913  1.1375
 1147SOL     vw 4588   3.334   0.837   3.417  0.4092  0.0046  0.7180
 1148SOL     ow 4589   2.733   0.326   3.722  0.4677  0.3447  0.0280
 1148SOL     hw 4590   2.791   0.376   3.780  1.8161 -1.0683 -0.0381
 1148SOL     hw 4591   2.792   0.272   3.669 -0.7913  0.8010 -1.9431
 1148SOL     vw 4592   2.748   0.325   3.723  0.4796  0.2185 -0.2408
 1149SOL     ow 4593   1.497   5.256   1.909 -0.2423  0.0760 -0.2851
 1149SOL     hw 4594   1.555   5.306   1.852 -0.9297  0.8905 -0.2799
 1149SOL     hw 4595   1.552   5.233   1.985  0.5045 -0.4976 -0.9811
 1149SOL     vw 4596   1.512   5.259   1.912 -0.2344  0.1075 -0.3762
 1150SOL     ow 4597   2.720   2.017   2.405 -0.3347 -0.2351 -0.3197
 1150SOL     hw 4598   2.781   1.956   2.446 -0.4407 -1.1225 -1.4201
 1150SOL     hw 4599   2.640   2.010   2.458  1.1197  2.7131  2.6197
 1150SOL     vw 4600   2.717   2.008   2.417 -0.1569  0.0368 -0.0771
 1151SOL     ow 4601   4.956   2.850   4.689 -0.5261 -0.0835  0.2228
 1151SOL     hw 4602   4.890   2.781   4.690 -1.3300  0.6432 -0.6717
 1151SOL     hw 4603   4.961   2.880   4.780 -2.8254  1.1095  0.0261
 1151SOL     vw 4604   4.948   2.845   4.701 -0.9358  0.1698  0.0787
 1152SOL     ow 4605   0.667   6.942   0.389 -0.0308  1.1198 -0.5343
 1152SOL     hw 4606   0.762   6.932   0.389 -0.0630  0.0177  1.6168
 1152SOL     hw 4607   0.652   7.031   0.359  1.7079  1.4314 -0.6074
 1152SOL     vw 4608   0.678   6.952   0.385  0.1944  1.0157 -0.2601
 1153SOL     ow 4609   2.085   6.536   1.477  0.8831  0.0335  0.6302
 1153SOL     hw 4610   2.056   6.466   1.418  1.7925 -1.0869  1.4758
 1153SOL     hw 4611   2.023   6.534   1.549 -0.3704  1.5601 -0.3415
 1153SOL     vw 4612   2.073   6.527   1.479  0.8376  0.0870  0.6136
 1154SOL     ow 4613   7.021   3.453   2.708 -0.0237  0.3667 -0.2167
 1154SOL     hw 4614   7.086   3.451   2.637 -1.1220 -0.6901 -1.2299
 1154SOL     hw 4615   7.029   3.368   2.751  0.6343  0.9995  0.9712
 1154SOL     vw 4616   7.031   3.442   2.704 -0.0818  0.3108 -0.1937
 1155SOL     ow 4617   1.779   6.613   0.652  0.3005  0.1564 -0.8334
 1155SOL     hw 4618   1.698   6.662   0.661 -0.0152 -0.5903  1.0448
 1155SOL     hw 4619   1.763   6.552   0.580 -1.6880 -1.4769  0.8503
 1155SOL     vw 4620   1.766   6.611   0.644 -0.0035 -0.1576 -0.3634
 1156SOL     ow 4621   1.221   5.138   1.911  0.4704  0.1516  0.3001
 1156SOL     hw 4622   1.229   5.111   2.002 -1.2817  1.6313  0.9490
 1156SOL     hw 4623   1.127   5.149   1.897  0.8564  2.4486 -0.9065
 1156SOL     vw 4624   1.210   5.136   1.921  0.2902  0.6497  0.2264
 1157SOL     ow 4625   3.193   1.152   6.228 -0.3544  0.1612  0.1149
 1157SOL     hw 4626   3.249   1.191   6.296 -1.4008  0.4494  0.8244
 1157SOL     hw 4627   3.228   1.188   6.146  0.5529  0.2687  0.5326
 1157SOL     vw 4628   3.205   1.162   6.226 -0.3728  0.2134  0.2635
 1158SOL     ow 4629   5.912   6.933   5.556 -0.1053  0.7704 -0.2977
 1158SOL     hw 4630   5.950   6.879   5.486  0.3599  1.1359 -0.3273
 1158SOL     hw 4631   5.896   6.871   5.627 -0.5823  0.3950 -0.7206
 1158SOL     vw 4632   5.915   6.918   5.556 -0.1068  0.7694 -0.3574
 1159SOL     ow 4633   4.867   0.395   4.634  0.3821 -0.2879 -0.2834
 1159SOL     hw 4634   4.825   0.444   4.564  2.4302 -1.0639 -2.1861
 1159SOL     hw 4635   4.821   0.311   4.636  0.0036 -0.0793 -0.3714
 1159SOL     vw 4636   4.856   0.390   4.625  0.6022 -0.3627 -0.5460
 1160SOL     ow 4637   5.956   0.314   2.309 -0.1552  0.0210 -0.0023
 1160SOL     hw 4638   5.938   0.276   2.222  0.1258  0.5612 -0.3032
 1160SOL     hw 4639   6.011   0.390   2.290  0.5337 -0.2913  0.7166
 1160SOL     vw 4640   5.961   0.319   2.295 -0.0269  0.0511  0.0528
 1161SOL     ow 4641   0.760   3.013   3.265  0.0364 -0.0131 -0.0487
 1161SOL     hw 4642   0.683   3.070   3.266  1.5405  2.0875  0.7501
 1161SOL     hw 4643   0.813   3.044   3.192  0.8557 -0.4419  0.3456
 1161SOL     vw 4644   0.757   3.024   3.255  0.3429  0.2074  0.1086
 1162SOL     ow 4645   2.318   1.944   3.853  0.5881  0.2379 -0.0019
 1162SOL     hw 4646   2.411   1.965   3.850  1.1198 -0.9388  3.3646
 1162SOL     hw 4647   2.292   1.966   3.943 -2.7701  1.8072 -1.1977
 1162SOL     vw 4648   2.326   1.950   3.865  0.2151  0.2897  0.2846
 1163SOL     ow 4649   6.813   4.936   5.752 -0.0985 -0.2759 -0.0363
 1163SOL     hw 4650   6.859   4.852   5.754  3.0893  1.3125 -0.1523
 1163SOL     hw 4651   6.811   4.960   5.659 -2.3982 -0.8353 -0.1915
 1163SOL     vw 4652   6.819   4.928   5.740  0.0188 -0.1400 -0.0720
 1164SOL     ow 4653   2.788   5.273   4.304 -0.1641  0.2297 -0.0058
 1164SOL     hw 4654   2.871   5.274   4.351 -0.7758 -0.4468  1.1076
 1164SOL     hw 4655   2.722   5.294   4.370 -0.9415  0.2354 -0.7608
 1164SOL     vw 4656   2.790   5.276   4.319 -0.3474  0.1411  0.0415
 1165SOL     ow 4657   3.081   3.595   6.185  0.1992 -0.3648  0.2934
 1165SOL     hw 4658   3.104   3.579   6.276  2.1874  1.5200  0.2117
 1165SOL     hw 4659   3.154   3.646   6.150 -1.4983  0.8730 -1.7521
 1165SOL     vw 4660   3.094   3.599   6.192  0.2376  0.0472  0.0126
 1166SOL     ow 4661   3.762   5.479   1.958  0.0128  0.3225 -0.0560
 1166SOL     hw 4662   3.732   5.531   2.032  1.5113 -0.3025  1.0344
 1166SOL     hw 4663   3.808   5.405   1.997 -1.5620 -1.5599 -1.5701
 1166SOL     vw 4664   3.764   5.476   1.973  0.0027 -0.0083 -0.1119
 1167SOL     ow 4665   5.485   0.373   1.154  0.1473  0.0811 -0.6376
 1167SOL     hw 4666   5.554   0.397   1.217 -0.4260  1.2058 -0.4074
 1167SOL     hw 4667   5.477   0.449   1.097 -0.7299 -0.1292 -0.8157
 1167SOL     vw 4668   5.493   0.386   1.155 -0.0439  0.2017 -0.6307
 1168SOL     ow 4669   1.142   1.792   4.134  0.1043 -0.1041 -0.0730
 1168SOL     hw 4670   1.220   1.811   4.186 -0.8666 -0.3305  1.5427
 1168SOL     hw 4671   1.069   1.807   4.193 -1.0621 -0.6298 -1.3089
 1168SOL     vw 4672   1.143   1.796   4.148 -0.1777 -0.2034 -0.0229
 1169SOL     ow 4673   4.087   5.354   4.954  0.3139  0.0580  0.1144
 1169SOL     hw 4674   4.175   5.324   4.977 -0.1116  0.7718  3.0227
 1169SOL     hw 4675   4.029   5.283   4.984 -0.1527 -0.6794 -2.3134
 1169SOL     vw 4676   4.091   5.340   4.961  0.1965  0.0548  0.1779
 1170SOL     ow 4677   4.604   4.362   4.187  0.3511 -0.5027  0.1745
 1170SOL     hw 4678   4.550   4.319   4.121  1.5189  0.3584 -1.3830
 1170SOL     hw 4679   4.565   4.449   4.196  0.6609 -0.3552  0.0733
 1170SOL     vw 4680   4.591   4.368   4.180  0.5457 -0.3693 -0.0443
 1171SOL     ow 4681   6.100   7.000   1.767 -0.0559  0.5587  0.2993
 1171SOL     hw 4682   6.152   7.058   1.822  1.4386 -1.1772  0.8084
 1171SOL     hw 4683   6.087   7.049   1.686  1.9608  1.2567  0.3534
 1171SOL     vw 4684   6.105   7.014   1.763  0.4075  0.4217  0.3735
 1172SOL     ow 4685   5.993   1.409   4.126  0.3052 -0.8324 -0.3676
 1172SOL     hw 4686   5.970   1.483   4.182  0.1966 -1.5265  0.5295
 1172SOL     hw 4687   6.032   1.345   4.186  1.2041 -1.1599 -1.2645
 1172SOL     vw 4688   5.995   1.411   4.141  0.4096 -0.9672 -0.3679
 1173SOL     ow 4689   2.524   1.446   0.736 -0.4578  0.5425  0.2011
 1173SOL     hw 4690   2.559   1.513   0.794 -0.2697  0.7664 -0.1701
 1173SOL     hw 4691   2.455   1.490   0.687  1.2869  1.1820 -1.8231
 1173SOL     vw 4692   2.519   1.461   0.737 -0.2028  0.6564 -0.1149
 1174SOL     ow 4693   6.825   1.291   2.705  0.3044  0.1534 -0.1869
 1174SOL     hw 4694   6.901   1.346   2.726  0.1593 -0.0384  0.8800
 1174SOL     hw 4695   6.753   1.329   2.755  0.0558 -0.6281  0.0621
 1174SOL     vw 4696   6.825   1.303   2.714  0.2527  0.0250 -0.0132
 1175SOL     ow 4697   6.705   0.080   3.743 -0.1612 -0.3975  0.1990
 1175SOL     hw 4698   6.701   0.165   3.785 -0.2838 -0.8580  1.1549
 1175SOL     hw 4699   6.737   0.098   3.655  1.4968  0.4547  0.9276
 1175SOL     vw 4700   6.709   0.093   3.737  0.0412 -0.3458  0.4212
 1176SOL     ow 4701   2.514   1.971   2.600 -0.7998  0.4031  0.7349
 1176SOL     hw 4702   2.515   1.880   2.573 -0.4669  0.1489  1.5547
 1176SOL     hw 4703   2.557   1.971   2.685 -4.2597  0.7082  2.6833
 1176SOL     vw 4704   2.520   1.959   2.608 -1.2122  0.4098  1.0999
 1177SOL     ow 4705   0.640   5.285   1.634  0.8054 -0.2019  0.4356
 1177SOL     hw 4706   0.669   5.194   1.645 -0.2494 -0.5354  0.4945
 1177SOL     hw 4707   0.703   5.322   1.571 -0.8059 -1.9999 -2.4533
 1177SOL     vw 4708   0.652   5.278   1.627  0.4537 -0.4830  0.0623
 1178SOL     ow 4709   0.928   6.135   6.851 -0.0080 -0.0667 -0.5367
 1178SOL     hw 4710   0.891   6.218   6.882 -0.6253 -0.2619 -0.7271
 1178SOL     hw 4711   0.893   6.069   6.911  0.5178 -0.1862 -0.3563
 1178SOL     vw 4712   0.918   6.137   6.863 -0.0201 -0.1082 -0.5379
 1179SOL     ow 4713   3.633   6.817   5.207 -0.2658 -0.0513 -0.0136
 1179SOL     hw 4714   3.700   6.748   5.212  1.4243  1.5260  0.3023
 1179SOL     hw 4715   3.553   6.771   5.183  1.4641 -1.7615 -3.1808
 1179SOL     vw 4716   3.631   6.801   5.204  0.1855 -0.0687 -0.3901
 1180SOL     ow 4717   1.821   0.168   5.959 -0.4123 -0.4943 -0.4699
 1180SOL     hw 4718   1.881   0.139   6.028  0.5437 -0.7450 -1.3821
 1180SOL     hw 4719   1.847   0.118   5.882 -0.2577  1.0783 -1.4790
 1180SOL     vw 4720   1.832   0.158   5.958 -0.2657 -0.3199 -0.7234
 1181SOL     ow 4721   6.756   4.962   0.148 -0.3849  0.2938 -0.2830
 1181SOL     hw 4722   6.715   4.982   0.063 -3.2810 -1.9591  0.4284
 1181SOL     hw 4723   6.824   4.899   0.127 -1.3749 -0.5940 -0.9410
 1181SOL     vw 4724   6.759   4.956   0.134 -0.8976 -0.1206 -0.2760
 1182SOL     ow 4725   2.409   1.127   2.567 -0.5207  0.2500  0.3189
 1182SOL     hw 4726   2.398   1.045   2.615  0.5403  0.1521  0.4366
 1182SOL     hw 4727   2.502   1.127   2.543 -0.9757  0.3831 -1.5650
 1182SOL     vw 4728   2.420   1.116   2.570 -0.4407  0.2546  0.0858
 1183SOL     ow 4729   1.610   5.780   4.517 -0.1546  0.1119 -0.1460
 1183SOL     hw 4730   1.606   5.737   4.432  2.0616  0.3497 -0.4520
 1183SOL     hw 4731   1.547   5.852   4.512 -0.8191 -0.5304 -1.1779
 1183SOL     vw 4732   1.601   5.784   4.505  0.0502  0.0587 -0.3226
 1184SOL     ow 4733   6.098   0.550   2.276 -0.0882  0.6488 -0.1138
 1184SOL     hw 4734   6.171   0.602   2.310 -0.3433  1.4471 -0.7788
 1184SOL     hw 4735   6.074   0.592   2.193  0.3448 -1.1115 -1.1755
 1184SOL     vw 4736   6.104   0.562   2.270 -0.0651  0.5218 -0.3417
 1185SOL     ow 4737   1.178   1.682   2.075 -0.1956 -0.8753 -0.0272
 1185SOL     hw 4738   1.117   1.608   2.068  1.8124 -2.7126  0.9213
 1185SOL     hw 4739   1.184   1.698   2.169  0.1973 -0.1876 -0.1698
 1185SOL     vw 4740   1.170   1.674   2.086  0.1211 -1.0269  0.0790
 1186SOL     ow 4741   4.693   0.418   2.118  0.3160 -0.2716 -0.2725
 1186SOL     hw 4742   4.736   0.384   2.040  0.4377 -1.6477  0.3707
 1186SOL     hw 4743   4.753   0.485   2.152  0.5671 -0.1330 -0.9796
 1186SOL     vw 4744   4.707   0.423   2.112  0.3653 -0.4348 -0.2810
 1187SOL     ow 4745   3.722   4.962   5.594  0.1974 -0.3018  0.5204
 1187SOL     hw 4746   3.712   4.955   5.499 -1.3536 -0.4009  0.6519
 1187SOL     hw 4747   3.754   5.051   5.609  1.0575 -0.4939 -0.1197
 1187SOL     vw 4748   3.725   4.973   5.583  0.1062 -0.3402  0.4535
 1188SOL     ow 4749   3.641   3.684   2.445  0.7520  0.2226 -0.4816
 1188SOL     hw 4750   3.690   3.693   2.527  0.7381  0.1231 -0.4613
 1188SOL     hw 4751   3.635   3.589   2.432  1.4254  0.2456 -1.0087
 1188SOL     vw 4752   3.646   3.673   2.454  0.8391  0.2126 -0.5486
 1189SOL     ow 4753   0.514   1.935   6.859 -0.5448  0.1020  0.2161
 1189SOL     hw 4754   0.484   1.975   6.941 -2.6530 -0.7362 -0.0895
 1189SOL     hw 4755   0.434   1.915   6.811  0.6292  0.5633 -2.0868
 1189SOL     vw 4756   0.499   1.938   6.863 -0.6680  0.0523 -0.1280
 1190SOL     ow 4757   4.347   2.284   5.096 -0.5354  0.1010 -0.2345
 1190SOL     hw 4758   4.430   2.270   5.052  1.3461 -1.2734  3.3227
 1190SOL     hw 4759   4.351   2.375   5.126 -0.0912 -0.0626  0.2272
 1190SOL     vw 4760   4.359   2.294   5.094 -0.2291 -0.1019  0.2956
 1191SOL     ow 4761   1.236   6.156   4.941  0.5047 -0.4609  0.1828
 1191SOL     hw 4762   1.304   6.160   4.874  0.0676 -1.5868 -0.3446
 1191SOL     hw 4763   1.213   6.063   4.947 -3.7322  0.1810 -2.4840
 1191SOL     vw 4764   1.242   6.144   4.933 -0.1120 -0.5250 -0.2389
 1192SOL     ow 4765   0.674   5.235   6.026  0.3891 -0.5315 -0.2172
 1192SOL     hw 4766   0.751   5.237   6.083 -0.1345  1.1525  0.5008
 1192SOL     hw 4767   0.704   5.191   5.947  0.9258 -3.7091  1.5712
 1192SOL     vw 4768   0.688   5.229   6.023  0.3908 -0.7286  0.1135
 1193SOL     ow 4769   2.095   0.774   3.895 -0.0592  0.1355  0.1626
 1193SOL     hw 4770   2.093   0.727   3.812 -0.0273 -1.5064  1.0612
 1193SOL     hw 4771   2.137   0.858   3.873  2.1268 -1.1666 -1.0432
 1193SOL     vw 4772   2.101   0.779   3.881  0.2335 -0.2530  0.1221
 1194SOL     ow 4773   0.801   5.218   5.770 -0.7753 -0.1434  0.5945
 1194SOL     hw 4774   0.798   5.305   5.809  1.0019 -0.0046  0.5036
 1194SOL     hw 4775   0.756   5.227   5.686  2.5139  1.6880 -1.1546
 1194SOL     vw 4776   0.795   5.231   5.764 -0.1069  0.1166  0.3514
 1195SOL     ow 4777   4.691   2.896   5.433 -0.3754  0.1885 -0.0161
 1195SOL     hw 4778   4.617   2.841   5.411 -1.0693  0.4933  1.4279
 1195SOL     hw 4779   4.765   2.836   5.441 -0.7713 -0.3082 -0.0678
 1195SOL     vw 4780   4.691   2.881   5.431 -0.5193  0.1631  0.1674
 1196SOL     ow 4781   5.018   1.718   4.920 -0.0228  0.3998 -0.3682
 1196SOL     hw 4782   4.937   1.728   4.970  0.7410 -2.9178  1.8624
 1196SOL     hw 4783   4.990   1.712   4.829 -1.8444  2.9359 -0.0582
 1196SOL     vw 4784   5.004   1.719   4.915 -0.1624  0.2968 -0.0331
 1197SOL     ow 4785   5.407   4.915   6.986 -0.1724 -0.4489  0.0111
 1197SOL     hw 4786   5.483   4.972   6.995  0.1909 -0.8500 -0.4408
 1197SOL     hw 4787   5.443   4.826   6.991 -0.5224 -0.6521 -0.7954
 1197SOL     vw 4788   5.422   4.911   6.988 -0.1705 -0.5288 -0.1547
 1198SOL     ow 4789   5.059   6.801   0.686 -0.1927  0.4294 -0.4244
 1198SOL     hw 4790   5.094   6.739   0.750  0.4065  0.0675 -1.0811
 1198SOL     hw 4791   5.111   6.785   0.607  0.2699  2.0922 -0.4771
 1198SOL     vw 4792   5.071   6.790   0.684 -0.0525  0.6011 -0.5180
 1199SOL     ow 4793   1.751   5.410   3.677 -0.0128  0.7116  0.4461
 1199SOL     hw 4794   1.678   5.473   3.673 -1.2817 -0.7567 -0.4888
 1199SOL     hw 4795   1.755   5.373   3.589  0.6254 -0.6103  1.0159
 1199SOL     vw 4796   1.742   5.414   3.665 -0.0960  0.3433  0.3979
 1200SOL     ow 4797   5.063   1.230   0.393  0.4053 -0.1173  0.4292
 1200SOL     hw 4798   5.045   1.184   0.311  1.6747  2.2382 -1.2816
 1200SOL     hw 4799   4.983   1.281   0.409  0.6032  0.3485 -0.0318
 1200SOL     vw 4800   5.050   1.231   0.384  0.5989  0.2550  0.1426
 1201SOL     ow 4801   3.326   5.706   1.522  0.6409 -0.3071  0.4455
 1201SOL     hw 4802   3.322   5.801   1.510 -0.1845 -0.6325 -2.7996
 1201SOL     hw 4803   3.390   5.676   1.458 -1.0784 -2.1449 -0.5154
 1201SOL     vw 4804   3.334   5.714   1.512  0.3051 -0.5925 -0.1094
 1202SOL     ow 4805   5.871   5.561   4.805  0.2676 -0.2027 -0.0157
 1202SOL     hw 4806   5.918   5.554   4.888  0.9279  1.4385 -0.2200
 1202SOL     hw 4807   5.931   5.523   4.740  0.1754 -0.5532  0.1000
 1202SOL     vw 4808   5.885   5.555   4.807  0.3428 -0.0324 -0.0274
 1203SOL     ow 4809   2.911   3.066   3.359  0.1701 -0.0638 -0.2639
 1203SOL     hw 4810   2.829   3.042   3.402  1.5717 -0.9585  2.1065
 1203SOL     hw 4811   2.924   3.158   3.382 -0.9416  0.6030 -2.0892
 1203SOL     vw 4812   2.902   3.075   3.368  0.2085 -0.0939 -0.1919
 1204SOL     ow 4813   4.356   5.559   3.125 -0.2844 -0.0325 -0.5894
 1204SOL     hw 4814   4.446   5.546   3.155 -0.4961  0.2420  0.1814
 1204SOL     hw 4815   4.363   5.624   3.054  0.1480 -0.2050 -0.7063
 1204SOL     vw 4816   4.369   5.566   3.119 -0.2551 -0.0188 -0.5032
 1205SOL     ow 4817   4.921   1.002   5.974  0.7428 -0.3798 -0.3731
 1205SOL     hw 4818   4.886   1.002   6.064 -1.6004 -1.0783 -1.1999
 1205SOL     hw 4819   4.919   0.910   5.948  1.4644 -0.1946 -1.1125
 1205SOL     vw 4820   4.916   0.990   5.983  0.5288 -0.4475 -0.5798
 1206SOL     ow 4821   6.140   1.550   5.718 -0.2139 -0.4260 -0.0573
 1206SOL     hw 4822   6.219   1.501   5.742 -1.8455 -2.1476  2.2553
 1206SOL     hw 4823   6.123   1.526   5.627  1.4207 -0.6812 -0.3224
 1206SOL     vw 4824   6.148   1.541   5.710 -0.2134 -0.6868  0.2124
 1207SOL     ow 4825   5.899   0.622   2.465 -0.3730 -0.4075  0.9224
 1207SOL     hw 4826   5.974   0.618   2.406 -1.0301 -0.2427  0.0562
 1207SOL     hw 4827   5.937   0.641   2.551  0.4409  1.2783  0.2346
 1207SOL     vw 4828   5.914   0.624   2.468 -0.3524 -0.1634  0.7173
 1208SOL     ow 4829   1.818   2.546   1.810  0.4071  0.6376  0.0005
 1208SOL     hw 4830   1.852   2.588   1.731  0.2926 -1.1317 -1.0509
 1208SOL     hw 4831   1.724   2.541   1.796  0.3619  0.5117  0.3439
 1208SOL     vw 4832   1.810   2.551   1.798  0.3859  0.3875 -0.0929
 1209SOL     ow 4833   6.974   3.555   3.623  0.8230  0.2017 -0.1442
 1209SOL     hw 4834   6.945   3.625   3.681 -1.2499  0.3828 -1.3122
 1209SOL     hw 4835   6.903   3.491   3.625  1.7364 -0.8632 -0.7198
 1209SOL     vw 4836   6.961   3.556   3.631  0.6702  0.0850 -0.3743
 1210SOL     ow 4837   2.661   0.516   3.468  0.0015 -0.4482  0.7536
 1210SOL     hw 4838   2.646   0.610   3.479 -1.0155 -0.8612  4.2056
 1210SOL     hw 4839   2.726   0.510   3.398 -0.6562  2.7331 -0.3001
 1210SOL     vw 4840   2.668   0.528   3.460 -0.2195 -0.0829  1.0701
 1211SOL     ow 4841   0.289   6.030   4.300 -0.1734 -0.6143 -0.7955
 1211SOL     hw 4842   0.367   6.063   4.256  0.4653  0.1082  0.8279
 1211SOL     hw 4843   0.321   5.979   4.374 -1.1587  1.1919  1.0008
 1211SOL     vw 4844   0.303   6.028   4.304 -0.2191 -0.2806 -0.3443
 1212SOL     ow 4845   3.160   4.079   1.814  0.5190 -0.2101  0.1627
 1212SOL     hw 4846   3.238   4.026   1.793  0.3728 -1.8114  3.0173
 1212SOL     hw 4847   3.189   4.169   1.804  1.8078 -0.7804 -1.7268
 1212SOL     vw 4848   3.174   4.084   1.810  0.6698 -0.4966  0.2900
 1213SOL     ow 4849   3.745   5.092   4.325  0.3423  0.0125 -0.1944
 1213SOL     hw 4850   3.707   5.005   4.321  0.4782 -0.0289 -0.7206
 1213SOL     hw 4851   3.681   5.144   4.374 -0.4671 -0.0255 -1.1662
 1213SOL     vw 4852   3.731   5.088   4.331  0.2533  0.0021 -0.3920
 1214SOL     ow 4853   0.910   3.132   3.077 -0.4840  0.0800 -0.0576
 1214SOL     hw 4854   0.997   3.107   3.044 -0.4343  1.0460 -0.7031
 1214SOL     hw 4855   0.867   3.173   3.002 -2.0523 -1.6151 -0.1733
 1214SOL     vw 4856   0.916   3.134   3.062 -0.6844 -0.0162 -0.1581
 1215SOL     ow 4857   3.525   0.422   0.061  0.3278  0.2966 -0.2550
 1215SOL     hw 4858   3.485   0.339   0.035 -3.9103  2.0242  0.0525
 1215SOL     hw 4859   3.530   0.473  -0.021  0.7033  0.5880 -0.0557
 1215SOL     vw 4860   3.520   0.418   0.046 -0.1818  0.5630 -0.1881
 1216SOL     ow 4861   4.462   4.886   5.655 -0.1103  0.0272  0.0971
 1216SOL     hw 4862   4.555   4.903   5.666 -0.5683  1.9250  1.5422
 1216SOL     hw 4863   4.437   4.938   5.578 -0.1370  0.2863  0.2769
 1216SOL     vw 4864   4.471   4.895   5.647 -0.1743  0.3119  0.3114
 1217SOL     ow 4865   3.416   0.606   6.223  0.5391  0.7014  0.3534
 1217SOL     hw 4866   3.421   0.595   6.129  1.6575  0.0081  0.4742
 1217SOL     hw 4867   3.361   0.534   6.254  0.2368  0.8836  0.2336
 1217SOL     vw 4868   3.410   0.595   6.215  0.6468  0.6340  0.3536
 1218SOL     ow 4869   4.615   6.162   5.129 -0.1281 -0.0453  0.0554
 1218SOL     hw 4870   4.534   6.169   5.181 -0.8106 -1.2753 -0.7823
 1218SOL     hw 4871   4.681   6.132   5.191 -0.2418  1.1635  0.7956
 1218SOL     vw 4872   4.613   6.159   5.144 -0.2332 -0.0484  0.0424
 1219SOL     ow 4873   1.329   4.779   6.825 -0.5188  0.6210 -0.1937
 1219SOL     hw 4874   1.284   4.781   6.910  1.5036 -0.6679  1.0168
 1219SOL     hw 4875   1.277   4.719   6.771 -0.7918 -0.1202  0.8469
 1219SOL     vw 4876   1.316   4.771   6.829 -0.2880  0.3531  0.1032
 1220SOL     ow 4877   1.189   2.817   0.268 -0.0616  0.2305  0.3803
 1220SOL     hw 4878   1.258   2.755   0.246  0.4150  0.4552  1.2213
 1220SOL     hw 4879   1.218   2.900   0.231  1.0192  0.7433  2.2304
 1220SOL     vw 4880   1.202   2.820   0.260  0.1438  0.3278  0.7354
 1221SOL     ow 4881   4.006   1.305   1.376 -0.1969  0.0335  0.1900
 1221SOL     hw 4882   3.973   1.285   1.464  0.8028 -0.8657  0.3952
 1221SOL     hw 4883   3.954   1.249   1.318 -0.6441  0.3904  0.2477
 1221SOL     vw 4884   3.995   1.295   1.380 -0.1241 -0.0381  0.2246
 1222SOL     ow 4885   1.087   2.459   6.111 -0.2656 -0.0173 -0.4250
 1222SOL     hw 4886   1.092   2.482   6.204  0.4282  2.1536 -0.9316
 1222SOL     hw 4887   1.014   2.398   6.105 -1.0379  0.6542  1.3931
 1222SOL     vw 4888   1.078   2.454   6.123 -0.2760  0.3579 -0.2518
 1223SOL     ow 4889   1.677   4.298   2.026  0.4487  0.1189  0.0800
 1223SOL     hw 4890   1.728   4.280   1.947 -1.0745 -0.2311 -0.8668
 1223SOL     hw 4891   1.717   4.242   2.093  0.1483 -1.5929 -1.1021
 1223SOL     vw 4892   1.689   4.288   2.024  0.2081 -0.1533 -0.2010
 1224SOL     ow 4893   1.643   0.655   6.274  0.1857  0.4007  0.1622
 1224SOL     hw 4894   1.704   0.726   6.296  2.2756 -1.1209 -0.3634
 1224SOL     hw 4895   1.675   0.580   6.324 -0.1104 -0.9313 -1.5446
 1224SOL     vw 4896   1.655   0.655   6.284  0.4223  0.0242 -0.1323
 1225SOL     ow 4897   5.675   0.568   6.109  0.2938  0.3050  0.1001
 1225SOL     hw 4898   5.713   0.640   6.058 -0.3040  0.6997  0.1948
 1225SOL     hw 4899   5.619   0.612   6.173  0.1958 -0.2341  0.3857
 1225SOL     vw 4900   5.672   0.583   6.111  0.2022  0.2860  0.1504
 1226SOL     ow 4901   0.061   6.836   6.524 -0.0274 -0.4212 -0.1509
 1226SOL     hw 4902   0.055   6.828   6.620  2.5453 -0.8564  0.0520
 1226SOL     hw 4903   0.015   6.760   6.490 -2.1500  0.4374  0.6488
 1226SOL     vw 4904   0.054   6.825   6.532  0.0320 -0.3653 -0.0184
 1227SOL     ow 4905   5.948   6.669   4.992 -0.1696  0.3938 -0.3378
 1227SOL     hw 4906   5.890   6.600   4.958  1.4855 -0.8324 -0.8494
 1227SOL     hw 4907   5.897   6.713   5.059 -0.9959 -2.0005  0.7363
 1227SOL     vw 4908   5.934   6.665   4.996 -0.0601 -0.0837 -0.2635
 1228SOL     ow 4909   5.841   4.064   6.686 -0.3103  0.1517 -0.9307
 1228SOL     hw 4910   5.929   4.026   6.686 -0.1990  0.4041 -0.8401
 1228SOL     hw 4911   5.849   4.142   6.632 -0.3101  0.5522 -0.3597
 1228SOL     vw 4912   5.854   4.069   6.679 -0.2956  0.2379 -0.8433
 1229SOL     ow 4913   0.997   5.526   7.028  0.0409  0.3560 -0.0628
 1229SOL     hw 4914   0.920   5.570   7.064  1.4098  1.3765  1.8173
 1229SOL     hw 4915   0.962   5.447   6.988 -1.9643  0.6085  1.0146
 1229SOL     vw 4916   0.982   5.522   7.028 -0.0431  0.5238  0.3274
 1230SOL     ow 4917   6.409   6.645   6.536  0.1148  0.4176  0.2227
 1230SOL     hw 4918   6.462   6.577   6.578  0.1208  0.9008  1.0279
 1230SOL     hw 4919   6.460   6.726   6.548  0.3239  0.5007 -1.1211
 1230SOL     vw 4920   6.423   6.647   6.543  0.1433  0.4923  0.1514
 1231SOL     ow 4921   2.776   3.755   2.914 -0.1450 -0.2825  0.8704
 1231SOL     hw 4922   2.803   3.834   2.961  1.2165  0.0441 -0.4177
 1231SOL     hw 4923   2.834   3.687   2.947 -0.6971 -0.5611  1.2901
 1231SOL     vw 4924   2.787   3.756   2.925 -0.0381 -0.2762  0.7559
 1232SOL     ow 4925   6.536   3.677   3.593 -0.7403 -0.3184  0.5369
 1232SOL     hw 4926   6.583   3.598   3.567 -0.9333 -0.3879  0.3991
 1232SOL     hw 4927   6.463   3.684   3.531  1.2876  1.9845 -1.8572
 1232SOL     vw 4928   6.532   3.668   3.582 -0.4983 -0.0236  0.2027
 1233SOL     ow 4929   3.705   2.019   6.783 -0.6058 -0.1422 -0.3788
 1233SOL     hw 4930   3.642   1.988   6.848 -0.6911  0.9605  0.0950
 1233SOL     hw 4931   3.686   1.969   6.704 -0.6042 -1.3968  0.4004
 1233SOL     vw 4932   3.694   2.009   6.781 -0.6168 -0.1622 -0.2136
 1234SOL     ow 4933   2.974   3.557   5.853  0.5923  0.5238 -0.5852
 1234SOL     hw 4934   2.989   3.650   5.840  3.2135  0.0019 -1.8457
 1234SOL     hw 4935   2.972   3.520   5.765  0.7533 -0.7814 -0.0686
 1234SOL     vw 4936   2.976   3.564   5.840  0.9594  0.2828 -0.6833
 1235SOL     ow 4937   0.988   3.064   2.579 -0.1088  0.4690 -0.4595
 1235SOL     hw 4938   1.068   3.097   2.620  0.3989 -0.3960 -0.7134
 1235SOL     hw 4939   0.934   3.141   2.566  1.2043  1.2845 -1.4127
 1235SOL     vw 4940   0.992   3.078   2.583  0.1315  0.4624 -0.6187
 1236SOL     ow 4941   3.803   3.448   0.834 -0.7054  0.3576 -0.3172
 1236SOL     hw 4942   3.785   3.450   0.929 -0.4752 -0.2187 -0.2585
 1236SOL     hw 4943   3.739   3.508   0.797 -1.1726  0.1558  0.1477
 1236SOL     vw 4944   3.792   3.456   0.842 -0.7367  0.2549 -0.2481
 1237SOL     ow 4945   4.944   2.053   0.988 -0.2800  0.1209  0.2034
 1237SOL     hw 4946   5.025   2.058   0.938  0.6464  0.2451  1.6429
 1237SOL     hw 4947   4.896   2.132   0.964  0.6715  0.7627  0.3714
 1237SOL     vw 4948   4.948   2.064   0.978 -0.0319  0.2220  0.4155
 1238SOL     ow 4949   4.369   6.794   3.206  0.6876  0.1741  0.2465
 1238SOL     hw 4950   4.309   6.818   3.135 -0.4203  1.2159  1.4901
 1238SOL     hw 4951   4.327   6.720   3.250  0.4466  0.7187  0.9426
 1238SOL     vw 4952   4.356   6.787   3.202  0.5097  0.3834  0.5022
 1239SOL     ow 4953   6.088   6.423   5.001 -0.1787  0.3320 -0.2121
 1239SOL     hw 4954   6.176   6.395   4.975  0.4267  1.2452  0.7363
 1239SOL     hw 4955   6.042   6.342   5.022 -0.5434 -0.4189 -3.4254
 1239SOL     vw 4956   6.094   6.409   5.000 -0.1466  0.3536 -0.5112
 1240SOL     ow 4957   0.286   3.163   4.450  0.3780 -0.1575 -0.0537
 1240SOL     hw 4958   0.206   3.206   4.421  0.1218 -0.2480  0.5139
 1240SOL     hw 4959   0.296   3.189   4.542 -0.5956 -2.4448  0.7902
 1240SOL     vw 4960   0.277   3.172   4.458  0.2157 -0.4714  0.1323
 1241SOL     ow 4961   0.198   3.787   0.885  0.1426 -0.5217  0.4760
 1241SOL     hw 4962   0.279   3.816   0.844  1.2584 -0.8289  2.3988
 1241SOL     hw 4963   0.192   3.694   0.862 -1.0330  0.0215 -1.7604
 1241SOL     vw 4964   0.208   3.778   0.876  0.1347 -0.4905  0.4346
 1242SOL     ow 4965   6.235   5.796   1.586 -0.3959  0.4546 -0.6549
 1242SOL     hw 4966   6.158   5.806   1.529 -0.1779 -2.8289 -1.7180
 1242SOL     hw 4967   6.294   5.740   1.536  1.7266  1.0270  1.0947
 1242SOL     vw 4968   6.232   5.790   1.572 -0.0870  0.0970 -0.5643
 1243SOL     ow 4969   0.119   6.871   3.960 -0.5878 -0.8590  0.6798
 1243SOL     hw 4970   0.069   6.953   3.969  1.1134  0.3842 -0.6014
 1243SOL     hw 4971   0.121   6.835   4.048 -1.8812  0.1561  1.1689
 1243SOL     vw 4972   0.112   6.877   3.972 -0.5340 -0.5610  0.5752
 1244SOL     ow 4973   6.600   1.410   2.819 -0.4940 -0.3133 -0.3277
 1244SOL     hw 4974   6.582   1.398   2.912  1.4979  0.6205  0.2309
 1244SOL     hw 4975   6.542   1.481   2.791 -1.8440 -1.2893 -0.0884
 1244SOL     vw 4976   6.590   1.418   2.827 -0.4094 -0.3189 -0.2226
 1245SOL     ow 4977   4.593   4.381   6.440 -0.3541 -0.0278  0.5196
 1245SOL     hw 4978   4.628   4.302   6.482  1.2038  0.2257 -0.2184
 1245SOL     hw 4979   4.595   4.448   6.508  2.0363  0.3522  0.1733
 1245SOL     vw 4980   4.598   4.379   6.454  0.1667  0.0558  0.3765
 1246SOL     ow 4981   0.666   1.602   5.267  0.2265 -0.9846  0.9851
 1246SOL     hw 4982   0.727   1.533   5.294  0.6708 -0.3314  1.6464
 1246SOL     hw 4983   0.589   1.588   5.321 -1.2358 -3.2935 -1.4498
 1246SOL     vw 4984   0.664   1.591   5.277  0.0922 -1.2030  0.7510
 1247SOL     ow 4985   5.694   4.905   1.906 -0.2721 -0.4600 -0.2340
 1247SOL     hw 4986   5.613   4.878   1.948  0.6778 -1.7403  0.8815
 1247SOL     hw 4987   5.714   4.834   1.845 -0.2366  0.0839 -0.8638
 1247SOL     vw 4988   5.686   4.892   1.904 -0.1421 -0.5569 -0.1699
 1248SOL     ow 4989   4.998   6.043   2.114  0.0706  0.1753 -0.6613
 1248SOL     hw 4990   4.910   6.077   2.099 -0.6477 -1.4989 -0.4291
 1248SOL     hw 4991   5.043   6.058   2.031  0.0992  2.4198 -0.3172
 1248SOL     vw 4992   4.992   6.050   2.101 -0.0205  0.2506 -0.5852
 1249SOL     ow 4993   3.703   5.067   3.715 -0.4354  0.3839 -0.4589
 1249SOL     hw 4994   3.624   5.119   3.731 -0.3816 -0.4683  3.6195
 1249SOL     hw 4995   3.775   5.130   3.724 -0.5303  0.5209 -0.6464
 1249SOL     vw 4996   3.702   5.082   3.718 -0.4408  0.2897  0.0542
 1250SOL     ow 4997   5.608   3.922   6.659 -0.0454  0.1894 -0.3584
 1250SOL     hw 4998   5.695   3.963   6.654  0.3902 -0.7160 -0.4132
 1250SOL     hw 4999   5.577   3.922   6.568 -0.0047  0.3090 -0.3725
 1250SOL     vw 5000   5.615   3.927   6.646  0.0174  0.0857 -0.3676
 1251SOL     ow 5001   2.636   4.118   5.572  0.8679  0.3066  0.4907
 1251SOL     hw 5002   2.573   4.057   5.610  1.8190 -0.3262  1.1000
 1251SOL     hw 5003   2.688   4.064   5.512  1.1915  0.6889  0.4239
 1251SOL     vw 5004   2.635   4.103   5.569  1.0362  0.2737  0.5622
 1252SOL     ow 5005   2.524   0.118   6.249  0.5676 -0.8633 -0.1271
 1252SOL     hw 5006   2.590   0.181   6.222 -1.3561  0.7088 -1.5412
 1252SOL     hw 5007   2.551   0.036   6.209  2.1781 -0.5164  0.2076
 1252SOL     vw 5008   2.536   0.116   6.240  0.5263 -0.6101 -0.2692
 1253SOL     ow 5009   0.755   2.145   5.328  0.2434 -0.8108  0.0856
 1253SOL     hw 5010   0.717   2.233   5.328 -0.8772 -1.2680  0.1859
 1253SOL     hw 5011   0.720   2.105   5.408  1.7238 -0.9570  0.6907
 1253SOL     vw 5012   0.745   2.152   5.339  0.2909 -0.8905  0.1788
 1254SOL     ow 5013   0.372   0.286   2.888 -0.7568 -0.0799 -0.3913
 1254SOL     hw 5014   0.306   0.351   2.863  0.0777  0.7895 -0.3977
 1254SOL     hw 5015   0.400   0.247   2.805  0.4404  1.2561 -0.6528
 1254SOL     vw 5016   0.367   0.289   2.874 -0.4888  0.2111 -0.4265
 1255SOL     ow 5017   3.808   0.849   4.199 -0.5208  0.5000 -0.4724
 1255SOL     hw 5018   3.869   0.788   4.158 -1.8724  0.0871 -1.9547
 1255SOL     hw 5019   3.864   0.908   4.250  0.9215 -1.1680 -0.0175
 1255SOL     vw 5020   3.824   0.849   4.201 -0.5089  0.2255 -0.6080
 1256SOL     ow 5021   1.103   1.016   6.536  0.8039 -0.9869 -0.2861
 1256SOL     hw 5022   1.140   1.022   6.624  0.3039  2.5766 -0.1612
 1256SOL     hw 5023   1.016   1.053   6.544  0.7864 -0.4596 -2.2864
 1256SOL     vw 5024   1.097   1.022   6.549  0.7356 -0.4472 -0.5336
 1257SOL     ow 5025   6.959   1.318   0.858  0.1538  0.4658  0.4113
 1257SOL     hw 5026   6.887   1.307   0.797  0.0284 -0.6118  0.7344
 1257SOL     hw 5027   6.980   1.229   0.887  0.2618  0.9379  1.8671
 1257SOL     vw 5028   6.953   1.305   0.854  0.1516  0.3859  0.6460
 1258SOL     ow 5029   1.979   6.632   5.390  0.3977  0.2684  0.1252
 1258SOL     hw 5030   1.907   6.669   5.339  0.0175  1.1595  1.2602
 1258SOL     hw 5031   1.997   6.547   5.348 -2.1285 -0.5582  0.5362
 1258SOL     vw 5032   1.972   6.626   5.378  0.0142  0.2770  0.3293
 1259SOL     ow 5033   2.179   5.270   3.962 -0.4213 -0.4598 -0.4047
 1259SOL     hw 5034   2.273   5.289   3.956 -0.2368 -1.3696 -0.5493
 1259SOL     hw 5035   2.164   5.251   4.055 -0.3414 -0.8868 -0.4769
 1259SOL     vw 5036   2.189   5.270   3.974 -0.3864 -0.6363 -0.4332
 1260SOL     ow 5037   5.295   1.579   2.955 -0.4521 -0.0225  0.1437
 1260SOL     hw 5038   5.278   1.512   2.889 -0.7136  0.1749  0.0034
 1260SOL     hw 5039   5.219   1.638   2.948  0.0872  0.6547 -0.1958
 1260SOL     vw 5040   5.282   1.578   2.945 -0.4156  0.0929  0.0803
 1261SOL     ow 5041   3.642   0.140   2.587 -0.5713 -0.1972 -0.2437
 1261SOL     hw 5042   3.705   0.082   2.629  1.1683  3.1313  2.1975
 1261SOL     hw 5043   3.666   0.140   2.494  4.0214  1.7196  0.6857
 1261SOL     vw 5044   3.653   0.133   2.580  0.2640  0.4948  0.2011
 1262SOL     ow 5045   4.133   1.592   1.286 -0.6565  0.1155 -0.2249
 1262SOL     hw 5046   4.215   1.640   1.275 -0.2035 -0.3638  0.8786
 1262SOL     hw 5047   4.116   1.553   1.200  0.5640 -0.2235 -0.3303
 1262SOL     vw 5048   4.142   1.593   1.273 -0.4358  0.0075 -0.0932
 1263SOL     ow 5049   1.966   6.948   0.393  0.1078  0.3494 -0.2774
 1263SOL     hw 5050   1.937   7.039   0.383 -0.2657  0.1743 -0.8424
 1263SOL     hw 5051   1.896   6.896   0.352 -0.1939 -0.2642  0.9841
 1263SOL     vw 5052   1.953   6.953   0.386  0.0188  0.2453 -0.1855
 1264SOL     ow 5053   2.552   2.399   0.427  0.2551 -0.1761 -0.1214
 1264SOL     hw 5054   2.598   2.456   0.365  1.7297 -0.1321  0.9676
 1264SOL     hw 5055   2.531   2.455   0.501  0.7151 -0.7852  0.4794
 1264SOL     vw 5056   2.555   2.414   0.429  0.5105 -0.2507  0.1015
 1265SOL     ow 5057   4.422   0.397   2.087 -0.2328  0.4605 -0.1857
 1265SOL     hw 5058   4.518   0.405   2.090 -0.1141 -0.9675  1.2018
 1265SOL     hw 5059   4.404   0.359   2.002  0.6445 -1.2329  0.3463
 1265SOL     vw 5060   4.433   0.393   2.076 -0.1016  0.0487  0.0676
 1266SOL     ow 5061   0.096   3.803   1.942  0.7579 -0.4378  0.0534
 1266SOL     hw 5062   0.091   3.828   2.034 -0.5143 -0.2833 -0.0351
 1266SOL     hw 5063   0.042   3.724   1.936 -0.2128  0.2700 -0.7771
 1266SOL     vw 5064   0.088   3.796   1.953  0.4619 -0.3240 -0.0679
 1267SOL     ow 5065   1.731   6.969   5.121 -0.2897  0.1172 -0.4904
 1267SOL     hw 5066   1.762   6.915   5.048  0.2331  0.2340 -0.3549
 1267SOL     hw 5067   1.726   6.908   5.195 -1.8393 -0.2525 -0.8580
 1267SOL     vw 5068   1.734   6.954   5.121 -0.4252  0.0839 -0.5209
 1268SOL     ow 5069   4.990   2.194   1.264  0.1222 -0.4523 -0.0183
 1268SOL     hw 5070   5.078   2.232   1.267  0.1714 -0.4434 -1.0020
 1268SOL     hw 5071   4.931   2.265   1.289  0.4098 -0.5404  0.9327
 1268SOL     vw 5072   4.994   2.208   1.267  0.1667 -0.4627 -0.0226
 1269SOL     ow 5073   2.373   4.219   5.754  0.4274 -0.2250  0.6193
 1269SOL     hw 5074   2.376   4.127   5.730  0.8734  0.2962 -1.4935
 1269SOL     hw 5075   2.298   4.255   5.707 -0.7941  0.1867  2.7545
 1269SOL     vw 5076   2.363   4.212   5.745  0.3252 -0.1018  0.6225
 1270SOL     ow 5077   1.033   3.918   0.426  0.1331  0.1133  0.7430
 1270SOL     hw 5078   0.987   3.950   0.503  0.0902  0.9465  0.3840
 1270SOL     hw 5079   1.097   3.855   0.460  0.6879  1.0766  1.5566
 1270SOL     vw 5080   1.036   3.914   0.440  0.2007  0.3505  0.8030
 1271SOL     ow 5081   4.648   0.382   3.553  0.0264 -0.7421 -0.1235
 1271SOL     hw 5082   4.605   0.461   3.522  0.4775 -0.4370  0.0190
 1271SOL     hw 5083   4.583   0.340   3.611 -0.2854 -0.5840 -0.3573
 1271SOL     vw 5084   4.634   0.387   3.557  0.0446 -0.6810 -0.1355
 1272SOL     ow 5085   1.380   3.963   3.312  0.0588  0.1511  0.2402
 1272SOL     hw 5086   1.382   4.008   3.228  0.0434 -0.4602 -0.0891
 1272SOL     hw 5087   1.406   4.031   3.375  1.2968  0.3124 -0.3972
 1272SOL     vw 5088   1.384   3.978   3.309  0.2201  0.0917  0.1127
 1273SOL     ow 5089   1.094   5.136   5.665 -0.1476  0.6495 -0.2466
 1273SOL     hw 5090   1.104   5.228   5.691 -0.3031  0.5999 -0.0046
 1273SOL     hw 5091   1.094   5.138   5.569  0.0541  0.8796 -0.2447
 1273SOL     vw 5092   1.095   5.149   5.656 -0.1414  0.6735 -0.2143
 1274SOL     ow 5093   0.787   6.614   1.867 -0.1382 -0.4797 -0.2918
 1274SOL     hw 5094   0.760   6.581   1.781 -0.7963 -0.4889 -0.0877
 1274SOL     hw 5095   0.849   6.684   1.847  0.0610 -0.7859 -0.7634
 1274SOL     vw 5096   0.791   6.619   1.853 -0.1988 -0.5212 -0.3271
 1275SOL     ow 5097   4.064   5.771   0.442 -0.1290 -0.1888  0.1546
 1275SOL     hw 5098   4.151   5.732   0.443  0.1228  0.3825  0.9857
 1275SOL     hw 5099   4.009   5.706   0.487 -0.2849 -0.8572 -0.9609
 1275SOL     vw 5100   4.068   5.757   0.448 -0.1163 -0.2015  0.1171
 1276SOL     ow 5101   0.449   6.551   0.556  0.0529  0.1136 -0.3280
 1276SOL     hw 5102   0.373   6.495   0.548 -1.0281  1.2013  1.5218
 1276SOL     hw 5103   0.524   6.491   0.559 -0.9633 -1.1565  0.4665
 1276SOL     vw 5104   0.449   6.536   0.556 -0.2238  0.0894  0.0209
 1277SOL     ow 5105   5.984   1.764   0.320 -0.5320 -0.0594  0.0394
 1277SOL     hw 5106   6.056   1.820   0.348 -1.2304  1.2051 -0.6069
 1277SOL     hw 5107   6.026   1.683   0.291  0.5074  0.1703  0.8682
 1277SOL     vw 5108   5.999   1.761   0.320 -0.4869  0.1377  0.0634
 1278SOL     ow 5109   1.079   6.748   6.211  0.2770  0.1931 -0.1867
 1278SOL     hw 5110   1.158   6.719   6.257  0.6393  1.2561 -0.1061
 1278SOL     hw 5111   1.093   6.722   6.120 -0.2218 -1.4719  0.1790
 1278SOL     vw 5112   1.091   6.741   6.205  0.2590  0.1137 -0.1278
 1279SOL     ow 5113   5.554   4.170   3.706  0.1488  0.1519  0.6526
 1279SOL     hw 5114   5.564   4.168   3.611  0.5375  1.3910  0.6452
 1279SOL     hw 5115   5.510   4.253   3.724  0.3880  0.0954  1.5724
 1279SOL     vw 5116   5.550   4.181   3.696  0.2315  0.3080  0.7731
 1280SOL     ow 5117   2.319   2.805   0.184  0.4750 -0.4427 -0.0393
 1280SOL     hw 5118   2.393   2.823   0.242  1.2199 -0.3121 -1.0030
 1280SOL     hw 5119   2.244   2.797   0.243  0.5717  2.9232  0.7237
 1280SOL     vw 5120   2.319   2.806   0.200  0.5862  0.0187 -0.0658
 1281SOL     ow 5121   4.202   2.050   0.416 -0.2095  0.0415 -0.2623
 1281SOL     hw 5122   4.224   2.137   0.382  0.2782 -0.5971 -1.6741
 1281SOL     hw 5123   4.259   2.039   0.492  0.3210  0.6342 -0.5603
 1281SOL     vw 5124   4.212   2.060   0.421 -0.0753  0.0354 -0.4879
 1282SOL     ow 5125   6.054   1.619   6.014  0.0246 -0.0864  0.3267
 1282SOL     hw 5126   5.989   1.596   6.081 -0.0650  0.3374  0.3902
 1282SOL     hw 5127   6.138   1.600   6.055 -0.0008  0.7896  0.8162
 1282SOL     vw 5128   6.056   1.614   6.028  0.0095  0.0851  0.3994
 1283SOL     ow 5129   4.450   4.283   3.959 -0.5419  0.2726  0.6296
 1283SOL     hw 5130   4.465   4.377   3.951 -0.6567  0.1713 -0.9406
 1283SOL     hw 5131   4.366   4.276   4.005  0.9205  0.8726  3.6859
 1283SOL     vw 5132   4.441   4.295   3.964 -0.3641  0.3386  0.8256
 1284SOL     ow 5133   1.398   0.667   0.658 -0.1847 -0.2063 -0.1984
 1284SOL     hw 5134   1.376   0.650   0.750  1.2805 -0.1113  0.1882
 1284SOL     hw 5135   1.493   0.679   0.658 -0.4475  2.5677 -1.2926
 1284SOL     vw 5136   1.407   0.666   0.670 -0.0260  0.1722 -0.2917
 1285SOL     ow 5137   5.181   6.221   1.045 -0.2562 -0.1317  0.7323
 1285SOL     hw 5138   5.090   6.236   1.019 -0.1654  1.2505  1.1483
 1285SOL     hw 5139   5.233   6.255   0.972 -0.0536 -1.8646  0.0226
 1285SOL     vw 5140   5.176   6.228   1.032 -0.2174 -0.1781  0.6935
 1286SOL     ow 5141   5.828   1.604   6.172 -0.1278  0.1982 -0.5781
 1286SOL     hw 5142   5.771   1.527   6.175 -0.2035  0.1639 -1.9438
 1286SOL     hw 5143   5.780   1.667   6.117  0.2024  0.9882  0.0252
 1286SOL     vw 5144   5.814   1.602   6.165 -0.0939  0.2980 -0.6785
 1287SOL     ow 5145   3.813   0.922   3.075  0.1004 -0.0012 -0.1667
 1287SOL     hw 5146   3.737   0.938   3.018  1.5725 -0.4157 -2.3882
 1287SOL     hw 5147   3.787   0.846   3.128 -1.7797  1.1469  0.6709
 1287SOL     vw 5148   3.799   0.914   3.074  0.0465  0.0955 -0.3493
 1288SOL     ow 5149   3.918   0.985   5.350  0.1114  0.3231 -0.0122
 1288SOL     hw 5150   3.874   0.987   5.435  0.8465 -1.0441  0.4185
 1288SOL     hw 5151   3.847   0.979   5.286 -0.3806 -2.0353  0.6785
 1288SOL     vw 5152   3.903   0.985   5.353  0.1434 -0.1684  0.1359
 1289SOL     ow 5153   2.478   6.144   3.211 -0.2064 -0.4196 -0.0437
 1289SOL     hw 5154   2.451   6.128   3.302 -1.2284 -3.6384 -0.7826
 1289SOL     hw 5155   2.397   6.166   3.165 -0.4365 -2.7297 -0.8566
 1289SOL     vw 5156   2.464   6.145   3.217 -0.3716 -1.1489 -0.2484
 1290SOL     ow 5157   2.591   4.475   5.973  0.2806  0.2716  0.0788
 1290SOL     hw 5158   2.679   4.455   6.005  0.6913 -0.3232 -1.3497
 1290SOL     hw 5159   2.606   4.527   5.894 -0.5565 -1.4737 -1.2992
 1290SOL     vw 5160   2.605   4.479   5.967  0.2242 -0.0372 -0.2916
 1291SOL     ow 5161   4.441   1.176   3.000 -0.2895 -0.4395  0.0732
 1291SOL     hw 5162   4.354   1.207   2.978 -0.1318 -0.1671 -0.1692
 1291SOL     hw 5163   4.462   1.218   3.084  1.4038  3.1269 -1.9351
 1291SOL     vw 5164   4.432   1.185   3.008 -0.0453  0.0670 -0.2235
 1292SOL     ow 5165   4.376   2.353   2.839  0.0200  0.6226  0.0651
 1292SOL     hw 5166   4.410   2.375   2.752  0.7624  0.3868  0.2898
 1292SOL     hw 5167   4.375   2.436   2.887  0.1786  0.6496  0.0223
 1292SOL     vw 5168   4.380   2.367   2.834  0.1390  0.5951  0.0892
 1293SOL     ow 5169   5.378   0.243   6.970 -0.0844 -0.4923  0.2489
 1293SOL     hw 5170   5.316   0.183   7.012  2.1372 -1.9292  1.7031
 1293SOL     hw 5171   5.411   0.194   6.895  1.2011 -0.8632  1.0204
 1293SOL     vw 5172   5.374   0.228   6.966  0.3784 -0.7308  0.5426
 1294SOL     ow 5173   1.863   5.950   4.580  0.1594 -0.0438  0.0722
 1294SOL     hw 5174   1.859   6.014   4.508  0.9481 -1.5359 -1.3670
 1294SOL     hw 5175   1.810   5.989   4.649 -0.8952  1.3355 -1.4231
 1294SOL     vw 5176   1.855   5.964   4.579  0.1242 -0.0587 -0.3147
 1295SOL     ow 5177   4.505   7.022   4.500 -0.5514  0.6712 -0.0608
 1295SOL     hw 5178   4.480   6.955   4.436  0.7668 -1.2414  1.3062
 1295SOL     hw 5179   4.423   7.063   4.526 -1.3441 -0.0571 -1.3422
 1295SOL     vw 5180   4.491   7.018   4.495 -0.4818  0.3226 -0.0498
 1296SOL     ow 5181   0.921   0.786   6.448  0.3319  0.0956  0.3878
 1296SOL     hw 5182   0.845   0.844   6.446  0.1844 -0.1152 -1.1888
 1296SOL     hw 5183   0.886   0.700   6.469  0.3937  0.3388  1.5264
 1296SOL     vw 5184   0.907   0.783   6.450  0.3206  0.0999  0.3300
 1297SOL     ow 5185   0.304   1.028   1.413 -0.3094  0.2740 -0.4758
 1297SOL     hw 5186   0.371   1.057   1.351 -0.5032  2.0916  0.1248
 1297SOL     hw 5187   0.254   0.961   1.365  0.8263  0.1546 -1.5306
 1297SOL     vw 5188   0.306   1.023   1.398 -0.1851  0.4980 -0.5357
 1298SOL     ow 5189   1.977   5.551   3.430 -0.5053  0.4542  0.5396
 1298SOL     hw 5190   1.934   5.467   3.412 -1.8076  1.3216 -0.6520
 1298SOL     hw 5191   1.931   5.585   3.507  0.6206 -0.2993  1.5672
 1298SOL     vw 5192   1.965   5.544   3.438 -0.5286  0.4692  0.5180
 1299SOL     ow 5193   6.278   0.444   0.094  0.1500 -0.0029  0.4112
 1299SOL     hw 5194   6.193   0.443   0.051 -0.0281  0.4023  0.7525
 1299SOL     hw 5195   6.341   0.434   0.022 -0.0674  2.3503 -0.1948
 1299SOL     vw 5196   6.275   0.443   0.079  0.0978  0.3610  0.3763
 1300SOL     ow 5197   2.240   4.495   4.144  0.0832  0.1075 -0.0553
 1300SOL     hw 5198   2.326   4.479   4.105 -0.5918 -1.8744 -0.8170
 1300SOL     hw 5199   2.179   4.447   4.089 -0.8224 -4.1277  4.0066
 1300SOL     vw 5200   2.243   4.487   4.132 -0.1254 -0.7129  0.3803
 1301SOL     ow 5201   5.740   0.156   5.536  0.0653  0.1431  0.6285
 1301SOL     hw 5202   5.683   0.126   5.465 -0.4418 -1.3582  1.6230
 1301SOL     hw 5203   5.752   0.249   5.519  0.1542 -0.2230 -1.5488
 1301SOL     vw 5204   5.734   0.164   5.524  0.0098 -0.1033  0.4723
 1302SOL     ow 5205   3.052   6.679   1.451  0.4677 -0.4278 -0.1141
 1302SOL     hw 5206   3.085   6.632   1.527 -0.2109  0.0887  0.5186
 1302SOL     hw 5207   2.960   6.655   1.446  0.1935  0.5610  0.0230
 1302SOL     vw 5208   3.044   6.670   1.460  0.3420 -0.2291 -0.0126
 1303SOL     ow 5209   3.193   5.922   5.063 -0.5861 -0.7035  0.2053
 1303SOL     hw 5210   3.127   5.865   5.023 -0.1130 -1.2409  0.1680
 1303SOL     hw 5211   3.261   5.862   5.092 -0.0781 -0.1500  0.1699
 1303SOL     vw 5212   3.193   5.907   5.061 -0.4567 -0.7014  0.1955
 1304SOL     ow 5213   3.536   3.815   3.261  0.0395 -0.0100 -0.1724
 1304SOL     hw 5214   3.580   3.748   3.314 -0.6045 -0.1573  0.1898
 1304SOL     hw 5215   3.476   3.766   3.205 -1.0427  0.2985  0.6807
 1304SOL     vw 5216   3.534   3.800   3.261 -0.1881  0.0113 -0.0119
 1305SOL     ow 5217   6.943   6.816   2.120 -0.6916  0.0640  0.2681
 1305SOL     hw 5218   6.920   6.724   2.113 -1.8888  0.3751 -0.2168
 1305SOL     hw 5219   6.923   6.840   2.210  0.2345 -0.2934  0.5771
 1305SOL     vw 5220   6.938   6.807   2.131 -0.7272  0.0577  0.2449
 1306SOL     ow 5221   5.847   2.217   2.309 -0.2635  0.1224 -0.5089
 1306SOL     hw 5222   5.789   2.259   2.246 -0.5719  5.0737  2.5469
 1306SOL     hw 5223   5.793   2.150   2.351 -2.0059  0.9576 -1.3354
 1306SOL     vw 5224   5.832   2.214   2.306 -0.5343  0.8857 -0.2147
 1307SOL     ow 5225   6.448   5.446   3.235 -0.0522 -0.4553 -0.7067
 1307SOL     hw 5226   6.502   5.487   3.303 -1.9267  1.8811 -0.4890
 1307SOL     hw 5227   6.443   5.354   3.261  0.0733  0.1745  1.8548
 1307SOL     vw 5228   6.454   5.439   3.248 -0.2830 -0.0639 -0.3400
 1308SOL     ow 5229   6.986   3.248   2.890 -0.5472  0.1713  0.2916
 1308SOL     hw 5230   6.977   3.156   2.915  0.1030 -0.2155 -0.7926
 1308SOL     hw 5231   6.945   3.297   2.961  2.4351 -0.7573  2.8561
 1308SOL     vw 5232   6.979   3.242   2.903 -0.0680 -0.0021  0.4870
 1309SOL     ow 5233   2.764   3.710   0.302 -0.5477  0.3433  0.6219
 1309SOL     hw 5234   2.708   3.780   0.271  1.0103  1.1842 -0.3967
 1309SOL     hw 5235   2.847   3.752   0.322  0.8623 -1.3480 -1.2173
 1309SOL     vw 5236   2.768   3.725   0.301 -0.1563  0.2311  0.2448
 1310SOL     ow 5237   3.612   2.921   0.769 -0.1529  0.0622 -0.2160
 1310SOL     hw 5238   3.635   2.896   0.680 -2.7869 -0.5883 -0.8093
 1310SOL     hw 5239   3.587   3.013   0.764  1.6147  0.6131  0.3138
 1310SOL     vw 5240   3.611   2.930   0.757 -0.2674  0.0491 -0.2244
 1311SOL     ow 5241   6.767   1.883   1.970 -0.4620 -0.2123  0.0636
 1311SOL     hw 5242   6.835   1.876   1.903 -0.8045  2.9291 -0.7618
 1311SOL     hw 5243   6.756   1.977   1.983 -4.7007 -0.5187  0.0695
 1311SOL     vw 5244   6.774   1.894   1.963 -1.0664  0.1618 -0.0445
 1312SOL     ow 5245   0.667   3.839   3.451  0.2292 -0.3755 -0.2853
 1312SOL     hw 5246   0.635   3.812   3.365  1.7185  0.0493 -0.9991
 1312SOL     hw 5247   0.600   3.900   3.483 -1.5006 -2.2298 -0.0984
 1312SOL     vw 5248   0.654   3.843   3.444  0.1975 -0.5640 -0.3549
 1313SOL     ow 5249   2.905   3.643   0.937  0.1180  0.3648 -0.3484
 1313SOL     hw 5250   2.843   3.658   0.865 -2.7688 -0.1519  1.8642
 1313SOL     hw 5251   2.905   3.548   0.950  1.2883  0.3661 -0.1685
 1313SOL     vw 5252   2.897   3.632   0.929 -0.1085  0.2970 -0.0328
 1314SOL     ow 5253   6.367   3.411   5.475  0.0366  0.4146  0.2437
 1314SOL     hw 5254   6.417   3.493   5.476 -0.2418  0.6220 -0.9381
 1314SOL     hw 5255   6.418   3.351   5.529  1.6959  0.5783 -1.0391
 1314SOL     vw 5256   6.380   3.414   5.482  0.2189  0.4636 -0.0815
 1315SOL     ow 5257   6.680   4.453   5.014 -0.3391  0.5094  0.0415
 1315SOL     hw 5258   6.734   4.494   5.081  0.0094  1.0515 -0.5638
 1315SOL     hw 5259   6.692   4.359   5.027 -1.4452  0.5465  1.6898
 1315SOL     vw 5260   6.689   4.446   5.024 -0.4389  0.5856  0.1791
 1316SOL     ow 5261   0.941   6.031   2.829  0.3275 -0.1510  0.2660
 1316SOL     hw 5262   0.889   6.112   2.824 -1.3425 -1.2324 -1.0640
 1316SOL     hw 5263   0.940   6.009   2.922  1.4778  1.7301  0.7812
 1316SOL     vw 5264   0.934   6.039   2.840  0.2590 -0.0455  0.1584
 1317SOL     ow 5265   5.560   0.770   1.154 -0.0556  0.1392 -0.3388
 1317SOL     hw 5266   5.546   0.685   1.111 -0.8706 -1.0489  2.0983
 1317SOL     hw 5267   5.475   0.794   1.189  0.9331 -0.1502  2.5585
 1317SOL     vw 5268   5.547   0.762   1.153 -0.0327 -0.0558  0.3651
 1318SOL     ow 5269   6.660   2.905   5.176 -0.4288 -0.2703 -0.0464
 1318SOL     hw 5270   6.587   2.899   5.114 -0.5159  1.0196 -0.1089
 1318SOL     hw 5271   6.621   2.890   5.262 -0.4751 -1.1331 -0.2099
 1318SOL     vw 5272   6.645   2.903   5.179 -0.4463 -0.2139 -0.0763
 1319SOL     ow 5273   0.129   6.219   4.819 -0.2035  0.2010 -0.4110
 1319SOL     hw 5274   0.066   6.271   4.871  0.0636  0.1765 -0.0579
 1319SOL     hw 5275   0.195   6.192   4.883 -0.6332 -1.0438 -0.4804
 1319SOL     vw 5276   0.129   6.222   4.834 -0.2249  0.0334 -0.3738
 1320SOL     ow 5277   4.508   6.656   5.313 -0.0641  0.6198  0.1120
 1320SOL     hw 5278   4.512   6.749   5.333 -2.0144  0.2129  2.9330
 1320SOL     hw 5279   4.415   6.633   5.320  0.2558 -1.4362 -1.2070
 1320SOL     vw 5280   4.496   6.665   5.316 -0.2792  0.2949  0.3104
 1321SOL     ow 5281   6.829   5.145   5.898 -0.0705 -0.2586 -0.2430
 1321SOL     hw 5282   6.921   5.163   5.877  0.3191  0.5007  1.8886
 1321SOL     hw 5283   6.806   5.072   5.841  1.9979 -0.7842 -0.4962
 1321SOL     vw 5284   6.838   5.138   5.888  0.2539 -0.2279  0.0050
 1322SOL     ow 5285   5.778   5.450   2.847  0.0020  0.0511  0.1826
 1322SOL     hw 5286   5.830   5.516   2.891 -0.0461 -0.0499  0.3916
 1322SOL     hw 5287   5.755   5.489   2.763  2.3048 -0.7489 -0.9095
 1322SOL     vw 5288   5.782   5.464   2.841  0.2995 -0.0675  0.0660
 1323SOL     ow 5289   5.703   0.522   2.318  0.4757  0.4817  0.3409
 1323SOL     hw 5290   5.674   0.548   2.231  0.0161  0.7929  0.5861
 1323SOL     hw 5291   5.755   0.597   2.349  1.8849 -0.2204 -0.2470
 1323SOL     vw 5292   5.706   0.536   2.310  0.6011  0.4301  0.2956
 1324SOL     ow 5293   2.981   5.764   0.184 -0.5817 -0.4431 -0.1896
 1324SOL     hw 5294   3.062   5.805   0.214 -1.5645  0.0066  2.0549
 1324SOL     hw 5295   2.942   5.829   0.125  0.5471 -0.5680 -1.1038
 1324SOL     vw 5296   2.987   5.778   0.180 -0.5623 -0.4003 -0.0141
 1325SOL     ow 5297   5.774   3.314   6.689  0.2604 -0.2083  0.3670
 1325SOL     hw 5298   5.715   3.381   6.722  1.9539  0.5864  1.9633
 1325SOL     hw 5299   5.830   3.360   6.626  0.1003 -0.6096 -0.0716
 1325SOL     vw 5300   5.774   3.329   6.685  0.4630 -0.1565  0.5200
 1326SOL     ow 5301   2.010   6.371   5.300  0.5119 -0.5009 -0.1115
 1326SOL     hw 5302   1.994   6.312   5.227 -1.1066 -2.3687  1.6252
 1326SOL     hw 5303   2.024   6.314   5.375  1.2529  1.3301  1.2356
 1326SOL     vw 5304   2.009   6.356   5.300  0.3963 -0.5054  0.2954
 1327SOL     ow 5305   0.456   4.117   5.934 -0.1705 -0.1630 -0.6267
 1327SOL     hw 5306   0.480   4.072   5.853  0.2615  1.7400 -1.6019
 1327SOL     hw 5307   0.409   4.195   5.906  0.5415  0.8767  0.9188
 1327SOL     vw 5308   0.453   4.121   5.920 -0.0196  0.2251 -0.5515
 1328SOL     ow 5309   2.596   4.514   6.991  0.0147  0.2202 -0.4470
 1328SOL     hw 5310   2.569   4.442   7.049  1.1887  0.3933  0.3460
 1328SOL     hw 5311   2.598   4.474   6.904 -0.7274 -0.3332 -0.2254
 1328SOL     vw 5312   2.593   4.499   6.987  0.0718  0.1698 -0.3133
 1329SOL     ow 5313   4.061   5.794   5.976 -0.2495 -0.0406  0.4036
 1329SOL     hw 5314   4.130   5.728   5.976 -0.8789 -0.7654 -1.0329
 1329SOL     hw 5315   4.107   5.877   5.986  0.5460 -0.6611  2.4646
 1329SOL     vw 5316   4.076   5.796   5.977 -0.2277 -0.2182  0.4861
 1330SOL     ow 5317   5.086   6.316   6.912 -0.2712  0.7568 -0.0262
 1330SOL     hw 5318   5.163   6.265   6.888 -1.3256 -0.3591 -1.1475
 1330SOL     hw 5319   5.098   6.401   6.869  0.1946  0.4863 -0.4288
 1330SOL     vw 5320   5.098   6.321   6.903 -0.3486  0.5739 -0.2272
 1331SOL     ow 5321   5.730   1.952   4.545 -0.9891  0.2119 -0.0332
 1331SOL     hw 5322   5.820   1.940   4.516 -1.3087 -1.9196 -0.3258
 1331SOL     hw 5323   5.732   2.031   4.599  1.3119 -0.5171  1.0500
 1331SOL     vw 5324   5.742   1.961   4.548 -0.7274 -0.1655  0.0710
 1332SOL     ow 5325   0.570   0.475   0.301  0.1213 -0.4479  1.0546
 1332SOL     hw 5326   0.601   0.424   0.226 -1.8082 -1.3330  0.8049
 1332SOL     hw 5327   0.555   0.410   0.369  3.1524  0.4784  2.7874
 1332SOL     vw 5328   0.572   0.460   0.300  0.2666 -0.4425  1.2502
 1333SOL     ow 5329   4.100   4.864   1.907  0.1503  0.3596  0.7761
 1333SOL     hw 5330   4.041   4.843   1.834 -0.2201  0.0257  1.1609
 1333SOL     hw 5331   4.167   4.920   1.869 -0.2571  0.5045  0.2624
 1333SOL     vw 5332   4.101   4.868   1.893  0.0474  0.3345  0.7591
 1334SOL     ow 5333   3.932   5.969   0.608  0.1497 -0.4288  0.5292
 1334SOL     hw 5334   3.884   6.049   0.630 -2.7518 -0.6851 -3.7211
 1334SOL     hw 5335   3.871   5.898   0.625 -0.4873 -0.9391 -3.0162
 1334SOL     vw 5336   3.918   5.970   0.613 -0.3171 -0.5300 -0.4993
 1335SOL     ow 5337   3.158   6.391   6.564 -0.4372  0.3046 -0.0525
 1335SOL     hw 5338   3.184   6.320   6.622  2.6254  1.2069 -0.1622
 1335SOL     hw 5339   3.186   6.362   6.477 -1.4457  0.6167 -0.4948
 1335SOL     vw 5340   3.165   6.378   6.560 -0.1661  0.4652 -0.1252
 1336SOL     ow 5341   6.097   1.507   5.445 -0.0343  0.5630 -0.0122
 1336SOL     hw 5342   6.061   1.596   5.454  1.0698  0.8315  3.0343
 1336SOL     hw 5343   6.027   1.450   5.477 -0.9122  0.2044 -2.3840
 1336SOL     vw 5344   6.083   1.511   5.451 -0.0043  0.5511  0.0770
 1337SOL     ow 5345   4.369   5.765   1.787  0.5212 -0.4429 -0.7271
 1337SOL     hw 5346   4.278   5.767   1.755 -0.8734 -1.9223  2.6080
 1337SOL     hw 5347   4.379   5.848   1.833  0.1372 -1.0463  0.4872
 1337SOL     vw 5348   4.358   5.776   1.789  0.2863 -0.7179 -0.1268
 1338SOL     ow 5349   5.558   1.540   5.953 -0.2058  0.0515  0.1728
 1338SOL     hw 5350   5.555   1.561   6.046 -0.8055  3.3395 -0.4358
 1338SOL     hw 5351   5.466   1.540   5.926 -0.0401 -0.8943 -0.4224
 1338SOL     vw 5352   5.545   1.543   5.962 -0.2632  0.3605  0.0143
 1339SOL     ow 5353   0.416   0.753   0.440 -0.2330  0.2587 -0.0240
 1339SOL     hw 5354   0.371   0.835   0.421  0.2715  0.6081  0.2740
 1339SOL     hw 5355   0.482   0.776   0.505 -1.7787 -0.8688  2.0713
 1339SOL     vw 5356   0.419   0.767   0.446 -0.3704  0.1560  0.2917
 1340SOL     ow 5357   3.904   6.363   6.093 -0.2256 -0.3774  0.2757
 1340SOL     hw 5358   3.817   6.399   6.077 -0.6487 -1.8362 -0.9485
 1340SOL     hw 5359   3.957   6.395   6.020 -0.1256 -0.7070  0.2020
 1340SOL     vw 5360   3.900   6.372   6.081 -0.2683 -0.6135  0.1047
 1341SOL     ow 5361   0.033   2.066   6.200  0.1420  0.5847 -0.4804
 1341SOL     hw 5362  -0.034   2.102   6.260  0.3770 -0.2577  0.3075
 1341SOL     hw 5363   0.046   2.135   6.135 -0.0700  1.5652  0.4832
 1341SOL     vw 5364   0.026   2.080   6.200  0.1450  0.6030 -0.2491
 1342SOL     ow 5365   0.898   5.234   6.167 -0.7275  0.0116  0.1627
 1342SOL     hw 5366   0.863   5.219   6.255  0.1273 -0.9352  0.3509
 1342SOL     hw 5367   0.940   5.320   6.173  1.4235 -1.0539  1.3969
 1342SOL     vw 5368   0.899   5.244   6.180 -0.3309 -0.2537  0.3502
 1343SOL     ow 5369   4.045   0.829   1.694  0.3588 -0.0710  0.2489
 1343SOL     hw 5370   3.964   0.880   1.694 -0.1634 -0.8732  0.8608
 1343SOL     hw 5371   4.113   0.892   1.719 -0.3729  0.2073  1.6458
 1343SOL     vw 5372   4.043   0.844   1.697  0.1934 -0.1401  0.5139
 1344SOL     ow 5373   4.565   0.020   3.187  0.5352  0.2023 -0.3382
 1344SOL     hw 5374   4.582   0.076   3.111  0.6983  2.5051  1.2967
 1344SOL     hw 5375   4.491   0.062   3.231  1.5449 -0.0717  1.6983
 1344SOL     vw 5376   4.557   0.033   3.183  0.6897  0.4700  0.1462
 1345SOL     ow 5377   5.113   0.569   4.684 -0.1467 -0.8609 -0.0570
 1345SOL     hw 5378   5.081   0.623   4.756  0.3255 -2.1072  1.1162
 1345SOL     hw 5379   5.110   0.627   4.608  0.4459  0.8386  1.1646
 1345SOL     vw 5380   5.108   0.583   4.683 -0.0060 -0.8011  0.2589
 1346SOL     ow 5381   1.795   3.783   1.402 -0.6838 -0.7141  0.1884
 1346SOL     hw 5382   1.757   3.696   1.391  2.1652 -1.8711 -1.7314
 1346SOL     hw 5383   1.821   3.787   1.494  0.0787 -2.3645  0.0771
 1346SOL     vw 5384   1.794   3.772   1.412 -0.2073 -1.0844 -0.0795
 1347SOL     ow 5385   0.224   4.339   3.007  0.1019 -0.6466  0.2382
 1347SOL     hw 5386   0.190   4.251   3.023 -1.7709  0.1168  0.7016
 1347SOL     hw 5387   0.174   4.372   2.932  1.8823 -0.5120 -0.9547
 1347SOL     vw 5388   0.213   4.332   2.999  0.0897 -0.5283  0.1419
 1348SOL     ow 5389   6.532   0.870   4.566  0.9006 -0.4977 -0.3324
 1348SOL     hw 5390   6.572   0.919   4.493  1.3331 -1.0666 -0.4898
 1348SOL     hw 5391   6.470   0.932   4.605  1.6076  0.2586 -0.3690
 1348SOL     vw 5392   6.529   0.885   4.561  1.0507 -0.4730 -0.3576
 1349SOL     ow 5393   0.357   4.943   1.148 -0.1359  0.3326  0.0967
 1349SOL     hw 5394   0.452   4.936   1.157 -0.1925 -1.2930 -0.2001
 1349SOL     hw 5395   0.330   4.858   1.112 -1.7244  0.6730  0.3953
 1349SOL     vw 5396   0.366   4.931   1.144 -0.3530  0.1628  0.0970
 1350SOL     ow 5397   4.075   1.026   5.052  0.1894  0.1229 -0.4796
 1350SOL     hw 5398   4.159   0.987   5.029  0.6580  0.4484  0.6167
 1350SOL     hw 5399   4.033   1.046   4.968  1.9040  1.4733 -1.0649
 1350SOL     vw 5400   4.080   1.024   5.038  0.4776  0.3440 -0.4125
 1351SOL     ow 5401   6.551   3.122   1.287 -0.3632 -0.2762  0.5608
 1351SOL     hw 5402   6.615   3.052   1.275  0.3077  0.6564 -2.3487
 1351SOL     hw 5403   6.467   3.078   1.289  0.1159 -1.2547 -0.0484
 1351SOL     vw 5404   6.549   3.107   1.286 -0.2115 -0.2823  0.0966
 1352SOL     ow 5405   6.174   3.979   0.727 -0.5341 -0.0984  0.6820
 1352SOL     hw 5406   6.138   3.989   0.639 -0.2000 -1.4706  0.3768
 1352SOL     hw 5407   6.254   4.031   0.726 -0.6170  0.0263  0.2349
 1352SOL     vw 5408   6.179   3.987   0.715 -0.5009 -0.2631  0.5827
 1353SOL     ow 5409   0.674   5.258   0.497 -0.5734  0.5371  0.1623
 1353SOL     hw 5410   0.677   5.348   0.528 -1.0382  0.4905  0.3462
 1353SOL     hw 5411   0.663   5.205   0.576 -1.0587  0.3705 -0.0144
 1353SOL     vw 5412   0.673   5.263   0.511 -0.6987  0.5090  0.1632
 1354SOL     ow 5413   2.190   4.345   5.612  0.8124  0.3079 -0.4257
 1354SOL     hw 5414   2.238   4.416   5.570 -0.6707  1.2286 -0.6104
 1354SOL     hw 5415   2.101   4.352   5.578  0.3776 -0.9829  0.3734
 1354SOL     vw 5416   2.185   4.355   5.602  0.5593  0.2592 -0.3450
 1355SOL     ow 5417   5.032   3.623   4.783  0.4043 -0.2160 -0.3822
 1355SOL     hw 5418   5.050   3.530   4.778  0.3784 -0.2702  0.3445
 1355SOL     hw 5419   4.939   3.629   4.804  0.3983 -0.0275 -0.4544
 1355SOL     vw 5420   5.022   3.612   4.785  0.3998 -0.1984 -0.2956
 1356SOL     ow 5421   0.257   6.248   4.469 -0.0901 -0.3545 -0.9011
 1356SOL     hw 5422   0.327   6.303   4.434  1.2242 -2.5156 -1.8548
 1356SOL     hw 5423   0.264   6.165   4.422 -1.1796 -1.8250  1.3046
 1356SOL     vw 5424   0.267   6.244   4.458 -0.0604 -0.8337 -0.7360
 1357SOL     ow 5425   1.229   6.355   3.123  0.1443 -0.3463 -0.3566
 1357SOL     hw 5426   1.225   6.268   3.162  1.4602 -1.1304 -1.8523
 1357SOL     hw 5427   1.138   6.376   3.101 -0.0582 -1.9515 -1.2167
 1357SOL     vw 5428   1.216   6.346   3.125  0.2912 -0.6616 -0.6675
 1358SOL     ow 5429   6.178   2.609   3.437 -0.5148  0.5584  0.6039
 1358SOL     hw 5430   6.088   2.620   3.404 -0.1282  1.1696 -0.2800
 1358SOL     hw 5431   6.174   2.528   3.489 -1.4917  0.3677  0.2653
 1358SOL     vw 5432   6.165   2.599   3.440 -0.5927  0.6140  0.4425
 1359SOL     ow 5433   1.656   4.416   3.843  0.4321  0.2752 -0.4393
 1359SOL     hw 5434   1.664   4.344   3.905 -1.3581  0.9388  0.6380
 1359SOL     hw 5435   1.630   4.375   3.761 -1.4981 -0.2770  0.3966
 1359SOL     vw 5436   1.654   4.401   3.840 -0.0588  0.2897 -0.1868
 1360SOL     ow 5437   2.002   6.410   2.140 -0.4453 -0.5394  0.0511
 1360SOL     hw 5438   2.056   6.488   2.123  1.0374 -1.7205 -0.9546
 1360SOL     hw 5439   1.965   6.426   2.227 -0.4390  1.4129 -0.2474
 1360SOL     vw 5440   2.005   6.422   2.149 -0.2488 -0.4375 -0.1211
 1361SOL     ow 5441   5.014   2.760   2.648  0.0189 -0.0781  0.0421
 1361SOL     hw 5442   5.038   2.780   2.739 -0.1740 -1.0959  0.3293
 1361SOL     hw 5443   4.974   2.840   2.616  0.7371  0.5385  0.6262
 1361SOL     vw 5444   5.012   2.773   2.656  0.0885 -0.1309  0.1571
 1362SOL     ow 5445   6.110   1.794   2.739  0.0422  0.2004  0.3441
 1362SOL     hw 5446   6.174   1.798   2.811  0.8414 -1.4374 -0.2411
 1362SOL     hw 5447   6.161   1.814   2.661 -0.8446  2.0611  0.1734
 1362SOL     vw 5448   6.125   1.797   2.738  0.0308  0.2298  0.2444
 1363SOL     ow 5449   2.912   6.342   0.067  0.0783 -0.0434 -0.2603
 1363SOL     hw 5450   2.878   6.288  -0.004 -0.0800 -0.1601 -0.0967
 1363SOL     hw 5451   2.835   6.385   0.103  0.2330  0.4789 -0.5440
 1363SOL     vw 5452   2.897   6.341   0.062  0.0780  0.0098 -0.2762
 1364SOL     ow 5453   2.404   1.544   6.436  0.0776 -0.1458 -0.8911
 1364SOL     hw 5454   2.434   1.465   6.391  0.8457 -0.3622 -0.0300
 1364SOL     hw 5455   2.475   1.607   6.424 -0.2984  0.2440 -1.1193
 1364SOL     vw 5456   2.417   1.542   6.428  0.1293 -0.1230 -0.8073
 1365SOL     ow 5457   4.236   0.496   2.346 -0.1575 -0.2143  0.1906
 1365SOL     hw 5458   4.311   0.548   2.375  0.2312 -0.7269  0.1110
 1365SOL     hw 5459   4.190   0.473   2.427 -0.5301  0.5467  0.2009
 1365SOL     vw 5460   4.239   0.500   2.360 -0.1554 -0.1815  0.1816
 1366SOL     ow 5461   4.214   5.026   1.696 -0.2603 -0.2991  0.0404
 1366SOL     hw 5462   4.305   5.039   1.721 -0.2494  0.3371 -0.3343
 1366SOL     hw 5463   4.209   5.056   1.605 -0.7812 -0.5949 -0.0327
 1366SOL     vw 5464   4.225   5.031   1.687 -0.3276 -0.2542 -0.0187
 1367SOL     ow 5465   5.239   2.662   2.489  0.4103  0.1065 -0.1136
 1367SOL     hw 5466   5.329   2.648   2.519  0.7793 -0.4891 -1.4269
 1367SOL     hw 5467   5.237   2.623   2.402 -1.5083 -1.1328  0.4413
 1367SOL     vw 5468   5.251   2.655   2.481  0.2060 -0.1355 -0.2136
 1368SOL     ow 5469   1.575   2.970   0.858  0.1491  0.1789  0.2046
 1368SOL     hw 5470   1.582   2.913   0.935  0.7979  0.9690  0.7362
 1368SOL     hw 5471   1.616   3.052   0.884  2.4639 -0.2598 -1.7076
 1368SOL     vw 5472   1.581   2.973   0.872  0.5401  0.2253  0.0224
 1369SOL     ow 5473   4.113   2.082   2.742 -0.4419  0.8423 -0.1434
 1369SOL     hw 5474   4.031   2.041   2.714  0.2976 -0.5612 -0.3378
 1369SOL     hw 5475   4.087   2.170   2.771 -2.5208 -0.5862  2.8227
 1369SOL     vw 5476   4.099   2.089   2.742 -0.6185  0.4686  0.2223
 1370SOL     ow 5477   1.906   5.179   0.566 -0.3430  0.0274  0.5935
 1370SOL     hw 5478   1.870   5.112   0.623 -0.5447 -1.9620 -1.7124
 1370SOL     hw 5479   1.996   5.150   0.549 -0.3043  0.5513 -0.1274
 1370SOL     vw 5480   1.913   5.166   0.571 -0.3644 -0.1659  0.1942
 1371SOL     ow 5481   4.835   4.548   6.371  0.2050  0.1376 -0.2701
 1371SOL     hw 5482   4.798   4.636   6.373 -0.9641 -0.3502  1.4578
 1371SOL     hw 5483   4.930   4.561   6.380  0.0314  1.2133  0.0969
 1371SOL     vw 5484   4.843   4.561   6.373  0.0279  0.2151  0.0064
 1372SOL     ow 5485   5.314   1.337   0.518 -0.4045  0.2241  0.7435
 1372SOL     hw 5486   5.360   1.256   0.542 -1.2660 -0.3140  0.6021
 1372SOL     hw 5487   5.306   1.384   0.601 -1.5177 -0.6798  1.1751
 1372SOL     vw 5488   5.319   1.332   0.532 -0.6649  0.0339  0.7818
 1373SOL     ow 5489   0.149   0.884   6.918  0.4417 -0.6521 -0.1356
 1373SOL     hw 5490   0.162   0.790   6.933  0.6955 -0.3797  1.5857
 1373SOL     hw 5491   0.122   0.918   7.003 -3.3739  0.2787 -1.5331
 1373SOL     vw 5492   0.147   0.876   6.931 -0.0282 -0.4934 -0.0930
 1374SOL     ow 5493   6.549   4.212   4.642 -0.2322 -0.4841 -0.0421
 1374SOL     hw 5494   6.461   4.202   4.678 -0.4060 -0.7442 -0.5481
 1374SOL     hw 5495   6.557   4.144   4.576  0.3840 -0.5207  0.0634
 1374SOL     vw 5496   6.539   4.202   4.638 -0.1738 -0.5233 -0.0949
 1375SOL     ow 5497   6.793   6.166   3.360  0.3145  0.3754  0.0571
 1375SOL     hw 5498   6.733   6.210   3.299 -0.3033  0.5386  0.7695
 1375SOL     hw 5499   6.765   6.195   3.447 -0.5182 -1.8810  0.6069
 1375SOL     vw 5500   6.781   6.176   3.363  0.1233  0.0994  0.2235
 1376SOL     ow 5501   5.916   5.759   6.224  0.4771  0.1901 -0.1527
 1376SOL     hw 5502   5.953   5.722   6.305  0.6751  2.2444  0.7628
 1376SOL     hw 5503   5.953   5.847   6.220 -2.1845  1.3671 -0.6594
 1376SOL     vw 5504   5.926   5.765   6.234  0.1521  0.6163 -0.0987
 1377SOL     ow 5505   4.635   6.705   2.288  0.1123 -0.3141 -0.8482
 1377SOL     hw 5506   4.657   6.674   2.375 -0.6812  0.8682 -0.2004
 1377SOL     hw 5507   4.648   6.800   2.292 -0.9444 -0.1128 -1.6845
 1377SOL     vw 5508   4.639   6.714   2.300 -0.1318 -0.1318 -0.8732
 1378SOL     ow 5509   4.810   6.120   4.213  0.1760  0.2173  0.2444
 1378SOL     hw 5510   4.833   6.060   4.142 -0.5641 -1.7427  1.5527
 1378SOL     hw 5511   4.757   6.066   4.273  1.8606  1.3589  2.9381
 1378SOL     vw 5512   4.806   6.105   4.212  0.3009  0.1097  0.7725
 1379SOL     ow 5513   0.557   4.273   4.752  0.4036  0.4740  0.1795
 1379SOL     hw 5514   0.577   4.355   4.706  1.8165  0.3637  0.5816
 1379SOL     hw 5515   0.480   4.294   4.805  1.0663  1.7068  0.6915
 1379SOL     vw 5516   0.549   4.287   4.753  0.6774  0.6220  0.3002
 1380SOL     ow 5517   2.044   2.722   1.896  0.6831 -0.0968 -0.4374
 1380SOL     hw 5518   2.119   2.738   1.953 -1.0320  0.5782  1.7979
 1380SOL     hw 5519   2.007   2.810   1.881  0.9019 -0.2999 -2.3890
 1380SOL     vw 5520   2.049   2.736   1.901  0.4858 -0.0346 -0.3999
 1381SOL     ow 5521   5.867   1.503   3.865  0.2549  0.2195 -0.3801
 1381SOL     hw 5522   5.816   1.486   3.786 -3.5981  2.1342  1.4229
 1381SOL     hw 5523   5.897   1.593   3.856 -0.5361  0.5796  0.4392
 1381SOL     vw 5524   5.864   1.513   3.854 -0.3579  0.5196 -0.0341
 1382SOL     ow 5525   1.638   1.803   3.480 -0.2862  0.1955  0.5389
 1382SOL     hw 5526   1.553   1.788   3.521 -0.2422 -1.2184  0.1884
 1382SOL     hw 5527   1.701   1.755   3.535 -0.1749 -1.3926 -0.8639
 1382SOL     vw 5528   1.635   1.795   3.493 -0.2658 -0.2006  0.3076
 1383SOL     ow 5529   2.767   7.014   2.318 -0.1058 -0.1151 -0.3271
 1383SOL     hw 5530   2.845   7.044   2.365 -0.6085  1.5607 -0.5069
 1383SOL     hw 5531   2.709   6.983   2.387 -0.1392  0.7023  0.0319
 1383SOL     vw 5532   2.770   7.014   2.333 -0.1764  0.2143 -0.3034
 1384SOL     ow 5533   5.604   2.746   6.119  0.2170 -0.2501 -0.1500
 1384SOL     hw 5534   5.543   2.703   6.179  0.5278 -0.2237  0.1913
 1384SOL     hw 5535   5.592   2.840   6.136  1.7978 -0.2586  1.4297
 1384SOL     vw 5536   5.595   2.753   6.129  0.4666 -0.2478  0.1035
 1385SOL     ow 5537   0.632   4.938   1.212 -0.7011 -0.0341  0.3376
 1385SOL     hw 5538   0.626   4.927   1.307  0.3450  2.1235  0.7173
 1385SOL     hw 5539   0.716   4.899   1.188 -0.4050  0.4836  0.5109
 1385SOL     vw 5540   0.642   4.932   1.221 -0.5240  0.3188  0.4105
 1386SOL     ow 5541   0.713   0.092   6.126  0.2009  0.1717 -0.1377
 1386SOL     hw 5542   0.739   0.171   6.174  1.8204 -0.0785 -0.5457
 1386SOL     hw 5543   0.617   0.097   6.123  0.2606  3.2843 -2.0481
 1386SOL     vw 5544   0.704   0.103   6.132  0.4224  0.5494 -0.4435
 1387SOL     ow 5545   1.072   0.815   3.796  0.8020  1.0494 -0.2826
 1387SOL     hw 5546   1.013   0.878   3.838  0.4005  1.5726 -1.5860
 1387SOL     hw 5547   1.148   0.810   3.854 -0.9237 -0.4595  2.0372
 1387SOL     vw 5548   1.074   0.822   3.809  0.5214  0.9194 -0.1484
 1388SOL     ow 5549   3.881   5.530   6.903  0.6814 -0.4232 -1.1849
 1388SOL     hw 5550   3.941   5.565   6.969  0.4702  1.0904 -1.7620
 1388SOL     hw 5551   3.800   5.514   6.951  1.4122 -2.2147 -0.4610
 1388SOL     vw 5552   3.878   5.533   6.918  0.7499 -0.4601 -1.1654
 1389SOL     ow 5553   4.311   1.376   1.470  0.8730  0.7323 -0.1296
 1389SOL     hw 5554   4.343   1.328   1.546  1.6266 -1.7495 -1.8773
 1389SOL     hw 5555   4.391   1.399   1.421  0.3564  1.5280 -0.6335
 1389SOL     vw 5556   4.326   1.373   1.473  0.9043  0.5099 -0.4267
 1390SOL     ow 5557   2.265   5.121   0.270  0.8117  0.0073  0.1477
 1390SOL     hw 5558   2.224   5.179   0.206 -0.7006  1.4910  2.3364
 1390SOL     hw 5559   2.295   5.046   0.218 -1.5710  0.4631 -2.0952
 1390SOL     vw 5560   2.263   5.119   0.254  0.2978  0.2632  0.1405
 1391SOL     ow 5561   2.025   2.670   4.374 -0.0697  0.3770 -0.9539
 1391SOL     hw 5562   2.009   2.685   4.468  2.9567  0.5510 -0.3550
 1391SOL     hw 5563   1.948   2.621   4.345  0.0736 -2.2142  2.3274
 1391SOL     vw 5564   2.013   2.665   4.383  0.3486  0.0581 -0.4420
 1392SOL     ow 5565   1.523   2.238   3.122 -0.6767 -0.0631  0.1874
 1392SOL     hw 5566   1.474   2.298   3.066  0.5981  2.2465  1.4052
 1392SOL     hw 5567   1.610   2.232   3.081 -0.5951 -0.5948  0.4232
 1392SOL     vw 5568   1.528   2.245   3.109 -0.4978  0.1714  0.3792
 1393SOL     ow 5569   0.855   0.241   1.879  0.1048 -0.6518  0.0915
 1393SOL     hw 5570   0.809   0.324   1.883  1.9870  0.4245  0.7325
 1393SOL     hw 5571   0.848   0.206   1.968 -1.2322 -1.5342 -0.3320
 1393SOL     vw 5572   0.848   0.247   1.891  0.1767 -0.6262  0.1202
 1394SOL     ow 5573   1.517   6.062   5.927 -0.8864  0.8004  0.2159
 1394SOL     hw 5574   1.609   6.086   5.917 -0.9321  0.8332 -0.1490
 1394SOL     hw 5575   1.500   6.001   5.856 -1.3829  1.5007 -0.2782
 1394SOL     vw 5576   1.527   6.057   5.917 -0.9579  0.8969  0.1028
 1395SOL     ow 5577   0.182   2.604   3.552  0.0333  0.5187  0.1509
 1395SOL     hw 5578   0.088   2.608   3.537  0.2403  1.0249 -1.1181
 1395SOL     hw 5579   0.216   2.552   3.479  0.8353  1.0762  0.1198
 1395SOL     vw 5580   0.174   2.597   3.541  0.1664  0.6591 -0.0205
 1396SOL     ow 5581   1.721   5.396   4.010 -0.4466 -0.1904  0.0405
 1396SOL     hw 5582   1.777   5.356   4.077  0.8689  1.2254 -0.1666
 1396SOL     hw 5583   1.633   5.367   4.033  0.2380 -1.6530  0.9847
 1396SOL     vw 5584   1.717   5.387   4.022 -0.1826 -0.1965  0.1376
 1397SOL     ow 5585   0.269   5.143   3.538 -0.2337 -0.4590 -0.2495
 1397SOL     hw 5586   0.233   5.128   3.451 -1.3758  1.6653 -0.2192
 1397SOL     hw 5587   0.299   5.057   3.567  1.8711 -0.9715 -3.4091
 1397SOL     vw 5588   0.268   5.130   3.531 -0.1067 -0.2463 -0.6622
 1398SOL     ow 5589   5.406   5.211   2.393  0.0273  0.0740  0.2845
 1398SOL     hw 5590   5.459   5.200   2.472 -0.4708  1.0577  0.7605
 1398SOL     hw 5591   5.402   5.305   2.379  0.9674 -0.0993 -1.5209
 1398SOL     vw 5592   5.413   5.222   2.401  0.0854  0.1812  0.1091
 1399SOL     ow 5593   4.874   5.452   4.115 -0.1215  0.1864  0.3920
 1399SOL     hw 5594   4.953   5.443   4.062 -0.0861  2.6728 -0.0731
 1399SOL     hw 5595   4.906   5.475   4.202 -0.2906  2.4359 -0.0858
 1399SOL     vw 5596   4.888   5.454   4.120 -0.1390  0.8113  0.2675
 1400SOL     ow 5597   4.060   6.247   2.836  0.2440  0.5957  0.5645
 1400SOL     hw 5598   4.097   6.317   2.891  1.7905  0.1709  0.1087
 1400SOL     hw 5599   4.072   6.167   2.888  0.8776  0.3216  0.0077
 1400SOL     vw 5600   4.067   6.246   2.850  0.5317  0.5035  0.4309
 1401SOL     ow 5601   5.803   5.057   1.699  0.0907 -0.2400 -0.1967
 1401SOL     hw 5602   5.736   5.039   1.633  0.2667  0.2151 -0.5018
 1401SOL     hw 5603   5.880   5.009   1.669  0.3422  0.4174 -0.6304
 1401SOL     vw 5604   5.805   5.048   1.686  0.1471 -0.0932 -0.2942
 1402SOL     ow 5605   4.890   3.080   0.532  0.4292 -0.1308 -0.5551
 1402SOL     hw 5606   4.827   3.105   0.464  1.1334 -2.4081 -2.1875
 1402SOL     hw 5607   4.970   3.126   0.509 -0.1030  1.4138  0.5216
 1402SOL     vw 5608   4.892   3.089   0.520  0.4518 -0.2276 -0.6284
 1403SOL     ow 5609   3.924   0.544   1.609 -0.1833  0.0405  0.0770
 1403SOL     hw 5610   3.847   0.550   1.666 -0.9909 -3.2392 -0.4548
 1403SOL     hw 5611   3.892   0.497   1.531  1.3564  2.5537 -2.2632
 1403SOL     vw 5612   3.909   0.538   1.606 -0.0868 -0.0606 -0.3019
 1404SOL     ow 5613   5.469   6.060   0.289  0.3906 -1.0645  0.2855
 1404SOL     hw 5614   5.481   6.016   0.373 -1.0822  0.6362  1.4575
 1404SOL     hw 5615   5.552   6.047   0.243  1.6449 -1.1154  2.4586
 1404SOL     vw 5616   5.482   6.052   0.294  0.3619 -0.8466  0.7269
 1405SOL     ow 5617   2.379   1.430   2.616 -0.0040  1.1976 -0.4581
 1405SOL     hw 5618   2.434   1.425   2.695 -0.0457  3.6990 -0.2104
 1405SOL     hw 5619   2.369   1.523   2.599 -3.1420  0.8300 -1.2397
 1405SOL     vw 5620   2.385   1.441   2.625 -0.4236  1.4790 -0.5286
 1406SOL     ow 5621   0.323   4.054   1.774 -0.3820 -0.0948 -0.4553
 1406SOL     hw 5622   0.268   4.040   1.850  0.4651  0.1808  0.2217
 1406SOL     hw 5623   0.355   4.143   1.783 -0.7764  0.1703 -1.4773
 1406SOL     vw 5624   0.320   4.064   1.785 -0.3223 -0.0234 -0.5008
 1407SOL     ow 5625   0.628   3.573   3.565  0.8049  0.0122 -0.7075
 1407SOL     hw 5626   0.533   3.566   3.553  0.5551  0.8141  0.5325
 1407SOL     hw 5627   0.646   3.517   3.641  0.8125  2.1003  0.9373
 1407SOL     vw 5628   0.618   3.565   3.574  0.7730  0.3935 -0.3269
 1408SOL     ow 5629   1.556   3.936   6.146 -0.1247 -0.8121 -0.2503
 1408SOL     hw 5630   1.589   3.874   6.211  0.9658 -0.6707 -0.6496
 1408SOL     hw 5631   1.462   3.918   6.141 -0.2704 -0.7141  1.4795
 1408SOL     vw 5632   1.548   3.926   6.154 -0.0001 -0.7805 -0.0744
 1409SOL     ow 5633   4.986   6.770   2.384 -0.3544  0.5055 -0.4192
 1409SOL     hw 5634   5.081   6.754   2.380 -0.6825 -2.7179  1.4769
 1409SOL     hw 5635   4.978   6.851   2.434  1.3576  1.9762 -2.3149
 1409SOL     vw 5636   4.998   6.779   2.390 -0.1717  0.2742 -0.4193
 1410SOL     ow 5637   5.909   6.888   5.172  0.0781 -0.2986  0.6085
 1410SOL     hw 5638   6.001   6.867   5.187  0.0900 -0.2483  0.6062
 1410SOL     hw 5639   5.909   6.944   5.094 -0.0033 -0.7039  0.3152
 1410SOL     vw 5640   5.921   6.893   5.164  0.0689 -0.3457  0.5696
 1411SOL     ow 5641   0.660   0.566   4.384 -0.3387  0.2851  0.0195
 1411SOL     hw 5642   0.606   0.551   4.462  0.7715 -1.8391  0.4723
 1411SOL     hw 5643   0.601   0.551   4.311 -0.4630 -1.9667  0.5045
 1411SOL     vw 5644   0.645   0.562   4.385 -0.2086 -0.2923  0.1431
 1412SOL     ow 5645   6.657   2.153   3.613 -0.1866 -0.5672 -0.0543
 1412SOL     hw 5646   6.668   2.112   3.699  1.4270 -1.9277 -0.8573
 1412SOL     hw 5647   6.736   2.129   3.564 -1.6299 -0.9557 -2.3622
 1412SOL     vw 5648   6.669   2.144   3.618 -0.1640 -0.7980 -0.4648
 1413SOL     ow 5649   1.294   5.030   0.714  0.4969 -0.2746 -0.1554
 1413SOL     hw 5650   1.275   5.077   0.795 -2.2411 -0.7017 -0.4454
 1413SOL     hw 5651   1.254   4.944   0.727  1.4225 -0.9108 -1.3643
 1413SOL     vw 5652   1.286   5.025   0.726  0.2578 -0.4151 -0.3532
 1414SOL     ow 5653   0.439   5.769   2.515 -0.3182 -0.0485 -0.5570
 1414SOL     hw 5654   0.455   5.755   2.421 -0.2995  1.2552 -0.7683
 1414SOL     hw 5655   0.412   5.683   2.548 -1.0314 -0.3698 -1.9039
 1414SOL     vw 5656   0.438   5.755   2.507 -0.4098  0.0811 -0.7625
 1415SOL     ow 5657   1.180   0.848   6.287 -0.0219  0.3835 -0.3525
 1415SOL     hw 5658   1.248   0.787   6.257  0.1157  0.2105  0.2962
 1415SOL     hw 5659   1.225   0.932   6.294  0.4208  0.0542  1.1247
 1415SOL     vw 5660   1.195   0.851   6.284  0.0547  0.3172 -0.0720
 1416SOL     ow 5661   5.002   2.656   0.185 -0.3071  0.3747 -0.7929
 1416SOL     hw 5662   5.053   2.576   0.199  0.2196  0.8819  0.2876
 1416SOL     hw 5663   5.018   2.709   0.263 -1.2017  1.2463 -1.1780
 1416SOL     vw 5664   5.010   2.652   0.197 -0.3557  0.5567 -0.7012
 1417SOL     ow 5665   4.925   1.409   0.796 -0.3885  0.0129  0.0467
 1417SOL     hw 5666   4.853   1.439   0.740  0.2392 -1.1650 -1.4707
 1417SOL     hw 5667   4.928   1.314   0.783 -0.0384 -0.2632  1.9107
 1417SOL     vw 5668   4.916   1.401   0.787 -0.2596 -0.1789  0.0924
 1418SOL     ow 5669   1.336   3.630   4.443 -0.6196  0.0904 -0.1416
 1418SOL     hw 5670   1.263   3.569   4.440  0.7737 -1.7069  0.2872
 1418SOL     hw 5671   1.413   3.575   4.458  0.9338  1.8125 -1.2631
 1418SOL     vw 5672   1.337   3.615   4.445 -0.2308  0.0805 -0.2327
 1419SOL     ow 5673   5.171   6.073   1.356 -0.0601  0.1868  0.5414
 1419SOL     hw 5674   5.090   6.101   1.399 -0.0722 -0.1106  0.7174
 1419SOL     hw 5675   5.156   5.981   1.336  0.5732 -0.1165  1.3858
 1419SOL     vw 5676   5.158   6.064   1.359  0.0219  0.1075  0.6760
 1420SOL     ow 5677   0.928   5.228   4.404 -0.0177  0.2767  0.3004
 1420SOL     hw 5678   0.853   5.257   4.352 -0.0203  0.6450  0.5003
 1420SOL     hw 5679   1.004   5.263   4.356 -0.0911  2.0865  1.4129
 1420SOL     vw 5680   0.928   5.237   4.390 -0.0277  0.5641  0.4735
 1421SOL     ow 5681   3.213   2.037   6.759 -0.4183  0.8106 -0.1451
 1421SOL     hw 5682   3.289   1.979   6.751  0.5663  2.1953 -1.4488
 1421SOL     hw 5683   3.219   2.072   6.848 -0.0934  0.1600  0.0912
 1421SOL     vw 5684   3.224   2.034   6.770 -0.2457  0.9075 -0.2861
 1422SOL     ow 5685   3.013   3.708   4.980  0.3710 -0.5997 -0.3532
 1422SOL     hw 5686   3.062   3.678   5.056 -0.2205 -2.6308 -0.7131
 1422SOL     hw 5687   2.955   3.776   5.014 -1.0711 -2.5945  1.4028
 1422SOL     vw 5688   3.012   3.713   4.994  0.1028 -1.1309 -0.1693
 1423SOL     ow 5689   5.968   4.655   1.903 -0.2677  0.0167  0.2217
 1423SOL     hw 5690   6.028   4.725   1.927  0.4272 -0.6443  0.4519
 1423SOL     hw 5691   5.928   4.683   1.821  0.5858  0.3211 -0.0890
 1423SOL     vw 5692   5.970   4.668   1.896 -0.0634 -0.0303  0.2110
 1424SOL     ow 5693   5.045   1.468   5.492  0.1421 -0.3593 -0.7925
 1424SOL     hw 5694   4.993   1.391   5.515  1.4751 -1.1357 -0.2797
 1424SOL     hw 5695   5.052   1.517   5.574  0.5094 -0.4290 -0.7845
 1424SOL     vw 5696   5.039   1.464   5.506  0.3667 -0.4709 -0.7236
 1425SOL     ow 5697   1.473   1.921   0.603  0.0446  0.1665  0.1452
 1425SOL     hw 5698   1.514   1.878   0.528  1.3712  1.3563  0.1445
 1425SOL     hw 5699   1.546   1.959   0.652 -0.9090  0.5935  1.2912
 1425SOL     vw 5700   1.488   1.921   0.600  0.0938  0.3797  0.2963
 1426SOL     ow 5701   0.325   0.298   4.475 -0.3712 -0.0636 -0.6279
 1426SOL     hw 5702   0.244   0.313   4.524 -0.7511  0.4587 -1.3873
 1426SOL     hw 5703   0.295   0.280   4.385  0.2955 -1.2236 -0.6379
 1426SOL     vw 5704   0.310   0.298   4.470 -0.3334 -0.1477 -0.7296
 1427SOL     ow 5705   4.150   4.645   3.443 -0.7332 -0.6579 -0.3012
 1427SOL     hw 5706   4.079   4.584   3.464 -1.2240 -0.6419 -1.8282
 1427SOL     hw 5707   4.107   4.715   3.394  0.3444 -0.6728 -1.2831
 1427SOL     vw 5708   4.135   4.646   3.439 -0.6557 -0.6578 -0.6322
 1428SOL     ow 5709   3.220   6.242   4.964  0.2674 -0.4959  0.6665
 1428SOL     hw 5710   3.174   6.295   4.899 -0.8654 -1.8831  0.2930
 1428SOL     hw 5711   3.306   6.226   4.925  0.0903 -0.1726  0.1281
 1428SOL     vw 5712   3.226   6.247   4.951  0.0945 -0.6363  0.5462
 1429SOL     ow 5713   4.164   6.077   0.468 -0.4791  0.4835  0.0982
 1429SOL     hw 5714   4.197   6.053   0.555 -0.2265  0.1212 -0.0963
 1429SOL     hw 5715   4.242   6.102   0.419 -0.6920  1.2981  0.1650
 1429SOL     vw 5716   4.178   6.077   0.473 -0.4735  0.5431  0.0814
 1430SOL     ow 5717   0.319   2.192   4.431  0.0052 -0.1343  0.0953
 1430SOL     hw 5718   0.341   2.172   4.522  1.2969 -0.2545 -0.2142
 1430SOL     hw 5719   0.309   2.287   4.429 -0.8381 -0.2054  0.5147
 1430SOL     vw 5720   0.321   2.202   4.443  0.0644 -0.1596  0.1097
 1431SOL     ow 5721   5.172   5.071   6.820  0.7539  0.2790 -0.4657
 1431SOL     hw 5722   5.158   5.032   6.733  1.7052  1.2827 -1.0981
 1431SOL     hw 5723   5.224   5.149   6.802  2.1104 -0.2089  1.1550
 1431SOL     vw 5724   5.177   5.076   6.806  1.0583  0.3469 -0.3352
 1432SOL     ow 5725   2.559   6.946   0.997  0.1514 -0.0251  0.3181
 1432SOL     hw 5726   2.549   6.999   0.918 -1.4419  0.8044  1.0360
 1432SOL     hw 5727   2.588   6.861   0.964  0.0428  0.4471 -1.1069
 1432SOL     vw 5728   2.561   6.942   0.982 -0.0731  0.1466  0.2248
 1433SOL     ow 5729   4.028   5.619   1.869  0.2014 -0.5179  0.5003
 1433SOL     hw 5730   4.106   5.565   1.881  0.3327 -0.5527 -0.4320
 1433SOL     hw 5731   4.047   5.700   1.916  0.5564 -0.7630  0.7816
 1433SOL     vw 5732   4.041   5.622   1.877  0.2656 -0.5548  0.4144
 1434SOL     ow 5733   6.097   4.536   2.161  0.3521 -0.6498  0.4989
 1434SOL     hw 5734   6.038   4.542   2.236 -1.1797  0.9936 -0.7272
 1434SOL     hw 5735   6.185   4.528   2.199 -0.0032  3.2579  2.6268
 1434SOL     vw 5736   6.101   4.536   2.176  0.1030  0.0827  0.6180
 1435SOL     ow 5737   6.838   0.992   2.622  0.1291 -0.6945  0.2347
 1435SOL     hw 5738   6.811   0.959   2.707 -0.3491 -2.0581 -0.4152
 1435SOL     hw 5739   6.897   0.925   2.587 -1.0579 -1.0561 -1.2188
 1435SOL     vw 5740   6.842   0.979   2.628 -0.0906 -0.9221 -0.0428
 1436SOL     ow 5741   1.661   3.297   4.244 -0.1362 -0.1357  0.8118
 1436SOL     hw 5742   1.654   3.353   4.322  0.6655  2.4325 -0.8389
 1436SOL     hw 5743   1.582   3.318   4.193  0.7811  0.4748 -0.3957
 1436SOL     vw 5744   1.649   3.307   4.248  0.0906  0.2836  0.4344
 1437SOL     ow 5745   6.458   5.542   2.926  0.0405  0.1603  0.3000
 1437SOL     hw 5746   6.470   5.619   2.869  0.5505 -0.5298 -0.5486
 1437SOL     hw 5747   6.544   5.501   2.929  0.1520  0.4446  2.0043
 1437SOL     vw 5748   6.471   5.547   2.919  0.1225  0.1068  0.4129
 1438SOL     ow 5749   6.268   6.691   4.962  0.9277  0.3311  0.1805
 1438SOL     hw 5750   6.254   6.785   4.953 -0.4747  0.0800 -0.7380
 1438SOL     hw 5751   6.356   6.676   4.929  0.2627  1.0399 -2.1073
 1438SOL     vw 5752   6.278   6.702   4.956  0.6549  0.3915 -0.2425
 1439SOL     ow 5753   0.056   4.983   1.272 -0.2201  0.8618  0.3477
 1439SOL     hw 5754  -0.002   4.994   1.197 -1.1892  3.1731  1.3319
 1439SOL     hw 5755   0.002   4.941   1.339  0.9528 -2.2205 -0.5054
 1439SOL     vw 5756   0.041   4.979   1.271 -0.1932  0.7598  0.3650
 1440SOL     ow 5757   0.618   4.595   1.031 -0.0986 -0.5813 -0.4511
 1440SOL     hw 5758   0.646   4.553   0.951  0.4974 -4.7107  1.6627
 1440SOL     hw 5759   0.527   4.566   1.043  0.9096 -3.1386  2.0033
 1440SOL     vw 5760   0.609   4.586   1.022  0.1130 -1.4634  0.1516
 1441SOL     ow 5761   4.182   5.292   3.188 -0.7278 -0.0596 -0.2114
 1441SOL     hw 5762   4.208   5.229   3.256 -2.2179 -0.9351 -0.4005
 1441SOL     hw 5763   4.214   5.254   3.106  0.2542  0.5308 -0.1165
 1441SOL     vw 5764   4.190   5.278   3.186 -0.7951 -0.0975 -0.2239
 1442SOL     ow 5765   5.393   6.055   2.130  0.0271 -0.4221 -0.8232
 1442SOL     hw 5766   5.480   6.046   2.167  0.4725 -2.3633 -2.2173
 1442SOL     hw 5767   5.370   5.968   2.099 -3.2554 -0.4608  1.2211
 1442SOL     vw 5768   5.401   6.042   2.131 -0.3476 -0.6833 -0.7373
 1443SOL     ow 5769   2.598   2.151   0.212 -0.2541  0.0897 -0.0551
 1443SOL     hw 5770   2.610   2.056   0.210  0.4222  0.1826 -1.7416
 1443SOL     hw 5771   2.526   2.167   0.152 -0.5358  0.6305  0.4220
 1443SOL     vw 5772   2.590   2.141   0.204 -0.2021  0.1734 -0.2147
 1444SOL     ow 5773   4.883   0.858   0.877  0.2806 -0.6486  0.2966
 1444SOL     hw 5774   4.852   0.860   0.967  0.5697 -0.6748  0.3992
 1444SOL     hw 5775   4.882   0.765   0.853 -0.0033 -0.6214  0.1981
 1444SOL     vw 5776   4.879   0.846   0.886  0.2813 -0.6485  0.2971
 1445SOL     ow 5777   3.502   3.037   6.401 -0.1548  0.3296  0.2875
 1445SOL     hw 5778   3.440   3.054   6.330 -0.5151 -0.3561  0.4294
 1445SOL     hw 5779   3.580   3.004   6.357 -0.1389  0.5374  0.1601
 1445SOL     vw 5780   3.504   3.035   6.386 -0.2002  0.2666  0.2894
 1446SOL     ow 5781   3.058   0.300   1.158  0.0150 -0.5754  0.0819
 1446SOL     hw 5782   3.120   0.309   1.231 -0.3211  0.8879  0.2082
 1446SOL     hw 5783   3.113   0.276   1.083  1.0167  2.0498 -0.1343
 1446SOL     vw 5784   3.074   0.298   1.158  0.1029 -0.0360  0.0700
 1447SOL     ow 5785   5.306   0.738   4.990  0.0776 -0.4755 -0.3361
 1447SOL     hw 5786   5.243   0.769   4.925 -2.0080 -1.7589  0.9273
 1447SOL     hw 5787   5.291   0.795   5.066  0.3218 -0.9169  0.0446
 1447SOL     vw 5788   5.296   0.750   4.992 -0.1652 -0.7030 -0.1192
 1448SOL     ow 5789   2.429   6.855   6.787 -0.1821  0.3715 -0.6105
 1448SOL     hw 5790   2.499   6.853   6.853 -2.4663  1.2061  2.0219
 1448SOL     hw 5791   2.407   6.763   6.773  2.0086  0.0071 -2.2731
 1448SOL     vw 5792   2.436   6.843   6.794 -0.1944  0.4332 -0.4823
 1449SOL     ow 5793   6.375   2.057   1.799 -0.7352  0.0091  0.5511
 1449SOL     hw 5794   6.422   2.137   1.822 -1.1741  0.0297  1.4183
 1449SOL     hw 5795   6.288   2.087   1.772 -0.9402 -0.1840  0.9967
 1449SOL     vw 5796   6.370   2.071   1.798 -0.8204 -0.0136  0.7243
 1450SOL     ow 5797   0.952   5.130   1.919 -0.6463  0.2222  1.2413
 1450SOL     hw 5798   0.925   5.107   1.831 -0.9965  1.6418  0.9565
 1450SOL     hw 5799   0.930   5.053   1.972  1.2058 -1.3937 -0.1675
 1450SOL     vw 5800   0.946   5.117   1.915 -0.4481  0.1962  1.0178
 1451SOL     ow 5801   2.115   3.789   1.307  0.0095  0.2931  0.1099
 1451SOL     hw 5802   2.140   3.708   1.352  0.9156  1.2636  1.4308
 1451SOL     hw 5803   2.167   3.789   1.227 -1.9466 -1.6855 -1.2832
 1451SOL     vw 5804   2.125   3.778   1.303 -0.1290  0.1600  0.1003
 1452SOL     ow 5805   1.091   3.021   1.433 -0.2641  0.7231 -0.5285
 1452SOL     hw 5806   1.044   2.995   1.355 -1.1823  1.3508 -0.2016
 1452SOL     hw 5807   1.023   3.040   1.498  0.4402  1.1984  0.1031
 1452SOL     vw 5808   1.076   3.020   1.431 -0.2923  0.8688 -0.4020
 1453SOL     ow 5809   1.094   0.313   5.425  0.1281  0.0910 -0.3679
 1453SOL     hw 5810   1.078   0.281   5.514  0.9549  0.9201  0.0924
 1453SOL     hw 5811   1.011   0.353   5.399 -0.4838 -1.1523 -0.4266
 1453SOL     vw 5812   1.081   0.314   5.433  0.1565  0.0363 -0.3147
 1454SOL     ow 5813   1.321   6.949   0.228  0.3582  0.4323  0.0301
 1454SOL     hw 5814   1.244   6.957   0.284  1.1240  1.8850  0.9341
 1454SOL     hw 5815   1.364   7.035   0.234  2.6804 -0.6880  0.5266
 1454SOL     vw 5816   1.317   6.962   0.236  0.7656  0.4761  0.2148
 1455SOL     ow 5817   2.736   5.350   2.703  0.3273  0.2291 -0.4831
 1455SOL     hw 5818   2.665   5.410   2.680 -0.3404 -0.6839 -0.8665
 1455SOL     hw 5819   2.760   5.308   2.620 -1.0552 -1.9764  0.1623
 1455SOL     vw 5820   2.730   5.352   2.689  0.0569 -0.1824 -0.4485
 1456SOL     ow 5821   6.811   2.148   0.140 -0.0570 -0.3032  0.0458
 1456SOL     hw 5822   6.864   2.228   0.136  0.5478 -0.6696  0.6247
 1456SOL     hw 5823   6.789   2.138   0.232  0.1066 -0.9520  0.0198
 1456SOL     vw 5824   6.815   2.157   0.151  0.0443 -0.4373  0.1187
 1457SOL     ow 5825   0.948   6.249   5.032  0.2663  0.2389 -0.1313
 1457SOL     hw 5826   0.937   6.198   4.952 -1.5559  0.1767  0.1131
 1457SOL     hw 5827   0.865   6.238   5.079  0.6170  1.7382  0.9160
 1457SOL     vw 5828   0.936   6.241   5.028  0.0722  0.4284  0.0391
 1458SOL     ow 5829   0.124   1.263   6.210  0.2642  0.3425 -0.3337
 1458SOL     hw 5830   0.200   1.310   6.242  0.2524  0.7564 -0.9035
 1458SOL     hw 5831   0.063   1.262   6.284  0.0848  1.6042 -0.4564
 1458SOL     vw 5832   0.126   1.269   6.224  0.2390  0.5636 -0.4249
 1459SOL     ow 5833   3.712   6.543   3.977  0.3536  0.1585  0.2561
 1459SOL     hw 5834   3.724   6.507   3.889  0.4311 -1.1081  0.7590
 1459SOL     hw 5835   3.622   6.576   3.977  0.2640 -0.0724 -0.2167
 1459SOL     vw 5836   3.702   6.543   3.965  0.3519 -0.0391  0.2601
 1460SOL     ow 5837   2.314   0.313   6.255  0.3931 -0.1099 -0.3497
 1460SOL     hw 5838   2.382   0.248   6.238 -0.4015 -1.4313  1.1908
 1460SOL     hw 5839   2.253   0.304   6.181  0.3706 -1.0280 -0.2288
 1460SOL     vw 5840   2.315   0.303   6.243  0.2854 -0.4054 -0.1302
 1461SOL     ow 5841   4.554   2.233   3.682 -0.8546 -0.2596 -0.4249
 1461SOL     hw 5842   4.534   2.264   3.593  0.1704 -0.2858 -0.6751
 1461SOL     hw 5843   4.648   2.217   3.681 -0.4821  1.5123  1.2122
 1461SOL     vw 5844   4.564   2.235   3.670 -0.6702 -0.0292 -0.2419
 1462SOL     ow 5845   3.368   1.797   5.015 -0.3952 -0.0190  0.2525
 1462SOL     hw 5846   3.404   1.748   5.089 -0.2216 -2.8116 -1.5499
 1462SOL     hw 5847   3.441   1.850   4.984  0.1085 -0.3469  0.8454
 1462SOL     vw 5848   3.383   1.798   5.021 -0.3058 -0.4308  0.0927
 1463SOL     ow 5849   6.412   0.748   6.611  0.6944  0.2453 -0.2331
 1463SOL     hw 5850   6.442   0.696   6.537 -2.7973 -0.1467 -1.5885
 1463SOL     hw 5851   6.433   0.839   6.588 -1.0276  0.2106 -2.1989
 1463SOL     vw 5852   6.419   0.753   6.599  0.0064  0.1890 -0.6714
 1464SOL     ow 5853   4.141   2.973   6.966 -0.2862 -0.0282 -0.0378
 1464SOL     hw 5854   4.115   2.919   6.891  0.4409 -1.8779  0.9809
 1464SOL     hw 5855   4.140   3.062   6.932 -0.4934 -0.7505 -2.0995
 1464SOL     vw 5856   4.137   2.977   6.952 -0.2177 -0.3675 -0.1755
 1465SOL     ow 5857   0.706   5.213   6.374  0.7341  0.2166 -0.0101
 1465SOL     hw 5858   0.669   5.136   6.332  0.8381  0.2790 -0.2169
 1465SOL     hw 5859   0.753   5.179   6.450 -0.5773  0.2247  0.8324
 1465SOL     vw 5860   0.708   5.198   6.379  0.5748  0.2260  0.0739
 1466SOL     ow 5861   2.677   4.801   0.004  0.0799 -0.1126 -0.3688
 1466SOL     hw 5862   2.719   4.850   0.074 -1.2658 -0.8829  1.0160
 1466SOL     hw 5863   2.691   4.855  -0.074  1.5113  0.8072  0.4774
 1466SOL     vw 5864   2.684   4.815   0.003  0.0913 -0.0930 -0.0744
 1467SOL     ow 5865   2.866   6.683   4.175 -0.6083 -0.4958 -0.0838
 1467SOL     hw 5866   2.860   6.694   4.080  0.9744  0.1330 -0.1443
 1467SOL     hw 5867   2.943   6.628   4.188  0.1994  0.7752  0.8630
 1467SOL     vw 5868   2.875   6.678   4.164 -0.2930 -0.2449  0.0331
 1468SOL     ow 5869   0.069   3.929   0.592 -0.1586  0.1197 -0.5702
 1468SOL     hw 5870   0.084   3.852   0.538 -1.3116 -1.6122  1.4147
 1468SOL     hw 5871   0.022   3.896   0.669  1.5362  2.3673  1.6119
 1468SOL     vw 5872   0.065   3.915   0.595 -0.0871  0.1876 -0.0204
 1469SOL     ow 5873   6.832   1.750   6.918  0.4098  0.9138 -0.1903
 1469SOL     hw 5874   6.829   1.664   6.876  1.4619  0.3316  0.8734
 1469SOL     hw 5875   6.847   1.811   6.846 -0.7152  0.2661 -1.0118
 1469SOL     vw 5876   6.833   1.747   6.903  0.4001  0.7516 -0.1581
 1470SOL     ow 5877   0.598   6.846   5.438  0.0371 -0.6129 -0.5284
 1470SOL     hw 5878   0.682   6.831   5.480  1.0868 -1.4042 -2.7342
 1470SOL     hw 5879   0.584   6.940   5.446 -0.5811 -0.8659  2.7518
 1470SOL     vw 5880   0.607   6.856   5.444  0.0940 -0.7508 -0.3865
 1471SOL     ow 5881   6.878   5.270   2.384 -0.2568  0.4318  0.2939
 1471SOL     hw 5882   6.868   5.220   2.465  1.0995 -1.5606 -0.6838
 1471SOL     hw 5883   6.972   5.291   2.380 -0.3472  0.7177 -0.6298
 1471SOL     vw 5884   6.889   5.266   2.394 -0.0899  0.2067  0.0430
 1472SOL     ow 5885   5.143   4.738   0.993  0.7834  0.1517 -0.1122
 1472SOL     hw 5886   5.155   4.833   0.987 -1.4125  0.5061  0.2141
 1472SOL     hw 5887   5.199   4.702   0.924  1.9884  1.6325  0.0414
 1472SOL     vw 5888   5.152   4.746   0.983  0.6528  0.3936 -0.0489
 1473SOL     ow 5889   1.335   6.498   3.353 -0.5758 -0.4683  0.1652
 1473SOL     hw 5890   1.287   6.521   3.432  0.7778  1.4085  0.5089
 1473SOL     hw 5891   1.281   6.431   3.311 -3.5421  1.5247  0.4759
 1473SOL     vw 5892   1.321   6.493   3.358 -0.7885  0.0422  0.2515
 1474SOL     ow 5893   2.073   0.649   1.641  0.8069  0.2047 -0.2914
 1474SOL     hw 5894   2.149   0.602   1.676 -0.3467 -2.0972 -0.7172
 1474SOL     hw 5895   2.029   0.684   1.718  0.6020 -1.1857  0.2620
 1474SOL     vw 5896   2.078   0.647   1.656  0.6278 -0.2824 -0.2746
 1475SOL     ow 5897   0.734   5.286   1.924  0.1217 -0.1812 -0.3120
 1475SOL     hw 5898   0.815   5.243   1.897  1.1426  2.4024 -1.7702
 1475SOL     hw 5899   0.729   5.270   2.018  2.0646 -0.8460 -0.2668
 1475SOL     vw 5900   0.744   5.278   1.933  0.5127  0.0718 -0.4985
 1476SOL     ow 5901   3.603   6.962   3.596  0.0009  0.5344  0.4838
 1476SOL     hw 5902   3.676   6.997   3.545  1.1650 -1.1820  0.8911
 1476SOL     hw 5903   3.586   6.876   3.557 -0.3210 -0.0133  1.7813
 1476SOL     vw 5904   3.610   6.955   3.584  0.1121  0.2356  0.7087
 1477SOL     ow 5905   1.187   6.453   5.018 -0.2416  0.2353  0.0208
 1477SOL     hw 5906   1.245   6.499   5.079  0.6597  0.7689 -1.1877
 1477SOL     hw 5907   1.235   6.454   4.935 -2.1402  1.0204 -1.1276
 1477SOL     vw 5908   1.201   6.459   5.015 -0.3732  0.4094 -0.2902
 1478SOL     ow 5909   0.878   0.820   5.618 -0.3275  0.2587 -0.0654
 1478SOL     hw 5910   0.809   0.876   5.656  0.2955  1.1978 -0.2693
 1478SOL     hw 5911   0.834   0.739   5.596 -1.1467  0.4542  0.7872
 1478SOL     vw 5912   0.863   0.817   5.620 -0.3533  0.4084  0.0203
 1479SOL     ow 5913   4.649   3.906   5.746 -0.3065 -0.4984 -0.2139
 1479SOL     hw 5914   4.612   3.942   5.665  0.0263  1.3046  0.3733
 1479SOL     hw 5915   4.573   3.880   5.798 -0.5186 -1.7874 -1.1366
 1479SOL     vw 5916   4.634   3.907   5.742 -0.2906 -0.4307 -0.2582
 1480SOL     ow 5917   4.372   3.247   3.025 -0.5823 -0.3431  0.1115
 1480SOL     hw 5918   4.419   3.316   3.072  0.1400  0.4349 -1.6362
 1480SOL     hw 5919   4.280   3.263   3.045 -0.3829  0.7833  0.2309
 1480SOL     vw 5920   4.366   3.258   3.034 -0.4609 -0.0919 -0.1034
 1481SOL     ow 5921   5.057   5.349   5.847 -0.7785 -0.5741  0.0534
 1481SOL     hw 5922   5.140   5.386   5.815 -1.6912  0.6649 -0.9717
 1481SOL     hw 5923   5.047   5.267   5.799 -0.6203 -0.2465 -0.5435
 1481SOL     vw 5924   5.067   5.343   5.836 -0.8786 -0.3672 -0.1605
 1482SOL     ow 5925   1.863   5.283   5.605 -1.1229 -0.6253  0.0762
 1482SOL     hw 5926   1.907   5.199   5.618  0.9056  0.5556  1.3398
 1482SOL     hw 5927   1.914   5.327   5.537 -1.6310 -0.0688  0.0425
 1482SOL     vw 5928   1.876   5.278   5.598 -0.9223 -0.3958  0.2384
 1483SOL     ow 5929   0.626   0.064   1.849  0.0694 -0.1138 -0.0484
 1483SOL     hw 5930   0.540   0.103   1.832  0.3970  0.0712 -1.4542
 1483SOL     hw 5931   0.607  -0.019   1.892 -1.0757 -1.7497 -3.3920
 1483SOL     vw 5932   0.612   0.058   1.852 -0.0384 -0.3053 -0.6750
 1484SOL     ow 5933   4.148   0.611   0.291 -0.3028  0.1488 -0.0255
 1484SOL     hw 5934   4.066   0.615   0.341 -0.7628 -0.2543 -0.7136
 1484SOL     hw 5935   4.141   0.684   0.229 -0.7456 -0.6505 -0.9461
 1484SOL     vw 5936   4.136   0.621   0.289 -0.4218 -0.0099 -0.2377
 1485SOL     ow 5937   6.378   5.679   5.183 -0.0171  0.0281 -0.2885
 1485SOL     hw 5938   6.290   5.709   5.204  1.2699  2.9245  1.5438
 1485SOL     hw 5939   6.424   5.677   5.267  1.2699 -3.1893 -0.9077
 1485SOL     vw 5940   6.373   5.683   5.197  0.3223 -0.0141 -0.1285
 1486SOL     ow 5941   3.627   3.821   4.969 -0.4797  0.0490  0.2879
 1486SOL     hw 5942   3.547   3.767   4.971 -0.4151 -0.1275 -0.8936
 1486SOL     hw 5943   3.697   3.759   4.952 -0.4574  0.5051 -1.5429
 1486SOL     vw 5944   3.625   3.805   4.967 -0.4683  0.0859 -0.1099
 1487SOL     ow 5945   4.229   6.868   5.884 -0.5928 -0.1361  0.1715
 1487SOL     hw 5946   4.274   6.841   5.964  0.1085  0.0015 -0.1749
 1487SOL     hw 5947   4.291   6.852   5.814 -0.9503  0.3844 -0.2769
 1487SOL     vw 5948   4.243   6.862   5.886 -0.5474 -0.0491  0.0668
 1488SOL     ow 5949   4.821   3.244   4.157  0.1648 -0.0324 -0.1590
 1488SOL     hw 5950   4.732   3.234   4.191 -0.1942 -0.5762 -1.2136
 1488SOL     hw 5951   4.815   3.317   4.096  0.0589 -1.0488 -1.4081
 1488SOL     vw 5952   4.808   3.252   4.153  0.1030 -0.2383 -0.4630
 1489SOL     ow 5953   2.319   2.074   5.655  0.2071 -0.4857 -0.0596
 1489SOL     hw 5954   2.378   2.141   5.621 -0.6783  0.2846 -0.1235
 1489SOL     hw 5955   2.321   2.005   5.588 -0.8613  0.6377 -1.3211
 1489SOL     vw 5956   2.327   2.074   5.642 -0.0508 -0.2357 -0.2344
 1490SOL     ow 5957   2.286   4.541   6.081 -0.7711 -0.1411  0.6259
 1490SOL     hw 5958   2.199   4.502   6.083 -1.3437  1.0921  2.9867
 1490SOL     hw 5959   2.273   4.625   6.035 -0.6413 -0.3505  0.2057
 1490SOL     vw 5960   2.273   4.547   6.075 -0.8295 -0.0060  0.8819
 1491SOL     ow 5961   5.821   3.345   0.506  0.5336  0.1400 -0.3235
 1491SOL     hw 5962   5.804   3.371   0.415  0.8008 -0.0566 -0.4311
 1491SOL     hw 5963   5.785   3.416   0.558  0.2330  0.1812 -0.5792
 1491SOL     vw 5964   5.814   3.358   0.501  0.5293  0.1196 -0.3715
 1492SOL     ow 5965   2.546   0.019   0.738 -0.3804  0.2251  0.4351
 1492SOL     hw 5966   2.481   0.088   0.746  2.0156  2.5645  0.8956
 1492SOL     hw 5967   2.602   0.046   0.665  0.8535 -1.0060  0.8653
 1492SOL     vw 5968   2.545   0.031   0.730  0.0985  0.3713  0.5526
 1493SOL     ow 5969   6.774   0.013   1.113 -0.2655 -0.2105 -0.4335
 1493SOL     hw 5970   6.728   0.095   1.093 -0.5174 -0.8037 -2.4415
 1493SOL     hw 5971   6.704  -0.048   1.137 -0.0045  0.3639  2.1117
 1493SOL     vw 5972   6.759   0.016   1.114 -0.2642 -0.2127 -0.3625
 1494SOL     ow 5973   1.785   2.430   2.366  0.3592  0.4813 -0.0238
 1494SOL     hw 5974   1.816   2.353   2.318 -1.2559 -1.0796  1.3130
 1494SOL     hw 5975   1.813   2.505   2.312  0.2292 -1.0842 -2.4063
 1494SOL     vw 5976   1.793   2.430   2.352  0.1290  0.0688 -0.1616
 1495SOL     ow 5977   4.036   6.266   5.758 -0.1718  0.3572 -0.0937
 1495SOL     hw 5978   4.123   6.230   5.739 -0.5795 -0.1871 -1.0080
 1495SOL     hw 5979   4.039   6.355   5.721 -0.1288  0.1966 -0.4818
 1495SOL     vw 5980   4.048   6.273   5.750 -0.2201  0.2639 -0.2654
 1496SOL     ow 5981   5.044   5.407   5.522  0.1873  0.3229 -0.1640
 1496SOL     hw 5982   5.094   5.331   5.554 -0.6655  0.0081  0.4320
 1496SOL     hw 5983   5.110   5.476   5.512  0.9309 -0.4071 -0.4457
 1496SOL     vw 5984   5.060   5.406   5.524  0.1733  0.1848 -0.1225
 1497SOL     ow 5985   2.333   4.733   1.254 -0.3463  0.2427  0.7202
 1497SOL     hw 5986   2.366   4.791   1.184 -1.3069  1.0607  0.9221
 1497SOL     hw 5987   2.331   4.646   1.214  1.9473  0.1507  0.6751
 1497SOL     vw 5988   2.337   4.729   1.239 -0.1705  0.3386  0.7409
 1498SOL     ow 5989   4.969   4.092   6.282  0.4254 -0.1503 -0.0454
 1498SOL     hw 5990   5.019   4.142   6.347 -0.3700 -3.0156  3.0188
 1498SOL     hw 5991   4.959   4.005   6.321 -3.3520 -0.9758 -2.3903
 1498SOL     vw 5992   4.974   4.087   6.296 -0.1779 -0.6375  0.0496
 1499SOL     ow 5993   3.100   4.095   1.526 -0.2261  0.1804 -0.1766
 1499SOL     hw 5994   3.078   4.128   1.439  0.8794 -0.6187 -0.7823
 1499SOL     hw 5995   3.124   4.003   1.512  1.4461  0.4400  0.7148
 1499SOL     vw 5996   3.100   4.087   1.513  0.1404  0.1092 -0.1388
 1500SOL     ow 5997   3.427   2.907   2.959 -0.0651  0.6025 -0.0527
 1500SOL     hw 5998   3.351   2.883   3.012 -0.5240 -1.7918 -1.6926
 1500SOL     hw 5999   3.391   2.958   2.887 -0.0931 -0.1862 -0.6080
 1500SOL     vw 6000   3.412   2.911   2.957 -0.1293  0.1825 -0.3421
 1501SOL     ow 6001   5.165   4.290   1.856 -0.4622  0.0804 -0.6001
 1501SOL     hw 6002   5.255   4.319   1.847 -0.2898 -0.5031 -0.8240
 1501SOL     hw 6003   5.113   4.370   1.854 -0.0824  0.3307 -2.1586
 1501SOL     vw 6004   5.170   4.304   1.854 -0.3893  0.0362 -0.8353
 1502SOL     ow 6005   2.767   1.082   1.908  0.0361  0.3824 -0.4392
 1502SOL     hw 6006   2.758   1.177   1.914 -1.2661  0.1950  1.8743
 1502SOL     hw 6007   2.851   1.063   1.950 -0.1166  0.4824 -0.0762
 1502SOL     vw 6008   2.777   1.092   1.915 -0.1558  0.3709 -0.0861
 1503SOL     ow 6009   3.242   2.548   5.734 -0.6000  0.0861 -0.2350
 1503SOL     hw 6010   3.228   2.505   5.649  1.8218 -1.0179 -0.1421
 1503SOL     hw 6011   3.158   2.538   5.779 -1.4651 -0.6793 -1.8962
 1503SOL     vw 6012   3.229   2.541   5.729 -0.3945 -0.1606 -0.4418
 1504SOL     ow 6013   3.370   5.475   0.347 -0.1668  0.0312  0.1830
 1504SOL     hw 6014   3.447   5.524   0.376  0.1460  0.4292 -1.2680
 1504SOL     hw 6015   3.333   5.440   0.428  2.8966 -2.2682  0.7626
 1504SOL     vw 6016   3.375   5.477   0.362  0.2787 -0.2196  0.0680
 1505SOL     ow 6017   0.527   1.981   3.390  0.6358 -0.4843 -0.7744
 1505SOL     hw 6018   0.435   1.999   3.408  0.2969 -1.3256 -1.6164
 1505SOL     hw 6019   0.560   1.942   3.471  0.0226 -1.0026 -0.7693
 1505SOL     vw 6020   0.519   1.978   3.403  0.5101 -0.6637 -0.8848
 1506SOL     ow 6021   3.042   5.723   1.649  0.1312 -0.2289  0.0874
 1506SOL     hw 6022   2.969   5.702   1.707  2.1821  0.0250  2.9625
 1506SOL     hw 6023   3.032   5.816   1.631 -0.1976 -0.1759  0.5239
 1506SOL     vw 6024   3.031   5.732   1.654  0.3583 -0.1886  0.5243
 1507SOL     ow 6025   3.152   4.783   1.344 -0.6181  0.2538 -0.3598
 1507SOL     hw 6026   3.071   4.746   1.379  0.5841 -2.0657  0.1983
 1507SOL     hw 6027   3.216   4.773   1.415  0.8348 -0.5546 -1.7138
 1507SOL     vw 6028   3.150   4.777   1.358 -0.2676 -0.1585 -0.4647
 1508SOL     ow 6029   3.747   0.085   3.443 -0.0732 -0.1338 -0.0602
 1508SOL     hw 6030   3.799   0.139   3.503 -2.0141  0.8747  0.8228
 1508SOL     hw 6031   3.725   0.144   3.371 -1.6804  0.1254  0.5996
 1508SOL     vw 6032   3.751   0.100   3.442 -0.5413  0.0335  0.1433
 1509SOL     ow 6033   3.702   3.900   5.209  0.0843 -0.0853  0.2533
 1509SOL     hw 6034   3.665   3.837   5.271  2.7719 -2.7803 -0.6392
 1509SOL     hw 6035   3.663   3.877   5.125  0.4440 -0.0005  0.0616
 1509SOL     vw 6036   3.692   3.889   5.206  0.4864 -0.4296  0.1101
 1510SOL     ow 6037   2.161   5.110   0.515  0.8957  0.3223  0.4061
 1510SOL     hw 6038   2.211   5.138   0.592  3.1883 -2.0697 -0.0670
 1510SOL     hw 6039   2.222   5.116   0.442  0.1163 -1.4781 -0.4532
 1510SOL     vw 6040   2.175   5.114   0.516  1.0953 -0.2308  0.2303
 1511SOL     ow 6041   5.733   1.780   5.991 -0.0955  0.2183 -0.3904
 1511SOL     hw 6042   5.669   1.821   6.050  0.1019 -1.4179  1.0658
 1511SOL     hw 6043   5.808   1.839   5.994 -0.1246  0.2340  0.9618
 1511SOL     vw 6044   5.734   1.793   5.999 -0.0732  0.0045 -0.0200
 1512SOL     ow 6045   1.979   0.580   1.353 -0.1990 -0.0023  0.0135
 1512SOL     hw 6046   2.069   0.575   1.322 -0.2734  0.8773 -0.3962
 1512SOL     hw 6047   1.952   0.670   1.333 -1.0525 -0.1496  0.4421
 1512SOL     vw 6048   1.987   0.591   1.346 -0.3214  0.0944  0.0160
 1513SOL     ow 6049   1.716   1.011   3.302  0.2822  0.6545 -0.0363
 1513SOL     hw 6050   1.727   0.918   3.284  0.0137  0.3542  1.2421
 1513SOL     hw 6051   1.754   1.055   3.226  0.0767 -0.4958 -0.8258
 1513SOL     vw 6052   1.723   1.005   3.290  0.2197  0.4632  0.0283
 1514SOL     ow 6053   6.250   6.429   6.343 -0.6243  0.1954 -0.8544
 1514SOL     hw 6054   6.317   6.360   6.346 -1.5766 -0.7350  0.4258
 1514SOL     hw 6055   6.169   6.382   6.324 -2.0570  0.1611  4.0568
 1514SOL     vw 6056   6.248   6.414   6.341 -0.9389  0.0682 -0.0377
 1515SOL     ow 6057   0.562   6.715   0.818  0.0785  0.6757 -0.8601
 1515SOL     hw 6058   0.566   6.675   0.905  1.1934  0.5125 -0.9642
 1515SOL     hw 6059   0.647   6.759   0.808  0.8226 -1.0044 -2.6216
 1515SOL     vw 6060   0.574   6.715   0.828  0.3237  0.4325 -1.1062
 1516SOL     ow 6061   3.040   6.609   6.727  0.1665  0.1826 -0.1409
 1516SOL     hw 6062   2.967   6.670   6.735 -1.0761 -1.1792 -0.5042
 1516SOL     hw 6063   3.053   6.575   6.816  2.2911  2.4414  0.5282
 1516SOL     vw 6064   3.032   6.612   6.740  0.2826  0.3011 -0.1006
 1517SOL     ow 6065   4.057   4.796   2.179  0.2809 -0.2862 -0.1841
 1517SOL     hw 6066   4.056   4.832   2.091  1.2358  1.2306  0.3814
 1517SOL     hw 6067   3.978   4.741   2.184  0.5329 -0.8872 -2.1437
 1517SOL     vw 6068   4.046   4.794   2.168  0.4401 -0.1655 -0.3680
 1518SOL     ow 6069   3.947   3.132   4.845 -0.1785 -0.5800 -0.3359
 1518SOL     hw 6070   3.921   3.158   4.934 -1.2836 -2.4512 -0.0620
 1518SOL     hw 6071   3.999   3.206   4.813 -1.8858  1.2559  0.9078
 1518SOL     vw 6072   3.951   3.145   4.853 -0.5496 -0.5847 -0.1357
 1519SOL     ow 6073   6.509   5.892   1.712 -0.3506  0.0362  0.4278
 1519SOL     hw 6074   6.562   5.824   1.754  0.8595  1.4193  1.2150
 1519SOL     hw 6075   6.523   5.877   1.618  0.6803 -0.2295  0.6028
 1519SOL     vw 6076   6.518   5.881   1.705 -0.0548  0.1838  0.5547
 1520SOL     ow 6077   4.980   6.039   2.562 -0.5028 -0.2603 -0.2799
 1520SOL     hw 6078   5.028   6.002   2.636  1.0051 -0.5591 -1.3534
 1520SOL     hw 6079   4.986   6.134   2.574  0.1932 -0.2972 -0.2724
 1520SOL     vw 6080   4.987   6.046   2.573 -0.2120 -0.3049 -0.4205
 1521SOL     ow 6081   3.869   5.760   3.687 -0.0911  0.0692  0.3251
 1521SOL     hw 6082   3.937   5.716   3.738  0.5423  2.0967  1.3344
 1521SOL     hw 6083   3.917   5.820   3.630 -0.9527  0.1577 -0.3243
 1521SOL     vw 6084   3.884   5.762   3.686 -0.1212  0.3486  0.3725
 1522SOL     ow 6085   0.916   2.163   5.133 -0.5928 -0.2425 -0.2978
 1522SOL     hw 6086   0.840   2.168   5.073 -1.0291  1.3824  0.3571
 1522SOL     hw 6087   0.877   2.152   5.219 -0.0919  0.6453  0.0495
 1522SOL     vw 6088   0.901   2.162   5.136 -0.5843  0.0890 -0.1659
 1523SOL     ow 6089   3.928   4.593   1.348  0.3493  0.0312 -0.2714
 1523SOL     hw 6090   3.834   4.607   1.339 -0.2032 -2.4721  0.6070
 1523SOL     hw 6091   3.966   4.621   1.265 -1.4318 -0.6985 -1.3747
 1523SOL     vw 6092   3.921   4.599   1.336  0.0414 -0.3953 -0.3011
 1524SOL     ow 6093   6.215   5.454   4.956 -0.3120  0.5001 -0.5464
 1524SOL     hw 6094   6.218   5.385   4.890  1.4455 -0.4055  0.4139
 1524SOL     hw 6095   6.191   5.533   4.907 -2.4469 -0.7454 -1.6505
 1524SOL     vw 6096   6.212   5.455   4.941 -0.3619  0.2160 -0.5655
 1525SOL     ow 6097   2.620   5.417   5.584  0.0653 -0.2265 -0.1539
 1525SOL     hw 6098   2.706   5.381   5.608  0.5553  0.8536 -0.2404
 1525SOL     hw 6099   2.599   5.477   5.655  0.7293  1.6965 -1.4971
 1525SOL     vw 6100   2.629   5.420   5.597  0.2177  0.1698 -0.3424
 1526SOL     ow 6101   4.143   3.375   0.758 -0.4511  0.4891  0.3958
 1526SOL     hw 6102   4.192   3.363   0.677 -1.1443 -3.4010  0.3591
 1526SOL     hw 6103   4.207   3.361   0.828 -0.7037 -0.7559  0.3995
 1526SOL     vw 6104   4.158   3.372   0.757 -0.5760 -0.1884  0.3914
 1527SOL     ow 6105   4.593   0.444   2.435  0.0931  0.0014 -0.1569
 1527SOL     hw 6106   4.613   0.529   2.396 -0.3776  0.2803  0.1977
 1527SOL     hw 6107   4.594   0.460   2.529  0.2263 -0.4412 -0.0766
 1527SOL     vw 6108   4.596   0.457   2.442  0.0489 -0.0202 -0.0995
 1528SOL     ow 6109   2.432   6.024   6.008  0.2341  0.2341  0.1769
 1528SOL     hw 6110   2.515   6.065   5.980  0.0821 -0.2929 -1.1124
 1528SOL     hw 6111   2.459   5.942   6.050  0.3273 -1.1852 -2.4484
 1528SOL     vw 6112   2.447   6.019   6.010  0.2264 -0.0226 -0.3397
 1529SOL     ow 6113   2.944   3.361   4.054 -0.0661  1.0571 -0.3548
 1529SOL     hw 6114   2.861   3.325   4.085  1.4191 -1.8582  0.6968
 1529SOL     hw 6115   2.994   3.375   4.135  1.5604 -0.3637 -1.0625
 1529SOL     vw 6116   2.940   3.358   4.069  0.3445  0.4849 -0.3095
 1530SOL     ow 6117   4.294   0.859   6.114 -0.2038 -0.3962  0.6113
 1530SOL     hw 6118   4.212   0.811   6.126  0.7599 -2.7447 -1.5459
 1530SOL     hw 6119   4.361   0.802   6.151  0.6053  1.3055  1.9379
 1530SOL     vw 6120   4.292   0.845   6.121  0.0303 -0.4815  0.5014
 1531SOL     ow 6121   0.047   4.019   1.698 -0.2782 -0.2594  0.2943
 1531SOL     hw 6122   0.051   3.951   1.765  2.9559 -2.5003 -1.8353
 1531SOL     hw 6123   0.135   4.020   1.661 -1.5014  1.8349 -2.9732
 1531SOL     vw 6124   0.059   4.010   1.702 -0.0129 -0.2787 -0.4178
 1532SOL     ow 6125   3.148   0.235   5.560 -0.0457 -0.6497 -0.3882
 1532SOL     hw 6126   3.100   0.286   5.625  0.7892 -0.4994  0.1168
 1532SOL     hw 6127   3.236   0.272   5.560  0.1954 -1.1999 -1.0034
 1532SOL     vw 6128   3.153   0.246   5.568  0.0963 -0.7024 -0.4027
 1533SOL     ow 6129   6.388   5.144   5.545 -0.2572  0.0263 -0.2201
 1533SOL     hw 6130   6.473   5.115   5.512 -0.2744 -0.0169 -0.2265
 1533SOL     hw 6131   6.406   5.228   5.587 -0.4720  0.7867 -1.5684
 1533SOL     vw 6132   6.401   5.151   5.546 -0.2878  0.1209 -0.3986
 1534SOL     ow 6133   6.688   3.846   4.595  0.1705  0.3023  0.3433
 1534SOL     hw 6134   6.761   3.803   4.551  0.3113 -0.0351  0.9090
 1534SOL     hw 6135   6.631   3.874   4.523  0.0959 -0.7765 -0.0381
 1534SOL     vw 6136   6.690   3.844   4.580  0.1791  0.1156  0.3674
 1535SOL     ow 6137   4.054   4.709   2.464  0.3824 -0.5051  0.2966
 1535SOL     hw 6138   3.990   4.772   2.497  1.6341 -0.5933  3.2157
 1535SOL     hw 6139   4.039   4.630   2.517  1.9526 -0.9843  0.0788
 1535SOL     vw 6140   4.044   4.707   2.476  0.7551 -0.5803  0.6529
 1536SOL     ow 6141   4.118   2.056   5.042 -0.5443 -0.2652 -0.5791
 1536SOL     hw 6142   4.023   2.057   5.032 -0.6370 -3.3361 -0.9223
 1536SOL     hw 6143   4.132   2.036   5.135 -0.3354 -1.8428 -0.9192
 1536SOL     vw 6144   4.108   2.053   5.053 -0.5288 -0.8786 -0.6695
 1537SOL     ow 6145   3.636   2.171   3.350 -0.1109 -0.0649  0.2357
 1537SOL     hw 6146   3.674   2.246   3.397 -0.4813  0.5530 -0.4318
 1537SOL     hw 6147   3.546   2.168   3.381  0.0177 -0.5045  0.5756
 1537SOL     vw 6148   3.629   2.181   3.361 -0.1429 -0.0412  0.1924
 1538SOL     ow 6149   6.353   2.828   3.350  0.2319 -0.4878 -0.0903
 1538SOL     hw 6150   6.432   2.821   3.297  1.6862 -0.7727  1.9746
 1538SOL     hw 6151   6.302   2.751   3.326  1.1430 -0.9518 -0.6131
 1538SOL     vw 6152   6.357   2.817   3.340  0.5441 -0.5866  0.1130
 1539SOL     ow 6153   0.430   3.940   0.817  0.4384  0.0803  0.1907
 1539SOL     hw 6154   0.427   3.915   0.725 -1.5416  0.6642  0.0723
 1539SOL     hw 6155   0.523   3.955   0.834  0.8291  0.0776 -1.7311
 1539SOL     vw 6156   0.442   3.939   0.807  0.2287  0.1571 -0.0785
 1540SOL     ow 6157   6.158   6.779   7.022 -0.7891 -0.0749 -0.1501
 1540SOL     hw 6158   6.092   6.825   7.074 -1.0768 -1.1853  0.4874
 1540SOL     hw 6159   6.147   6.687   7.045  1.1902 -0.2675  0.2268
 1540SOL     vw 6160   6.148   6.773   7.032 -0.5660 -0.2465 -0.0163
 1541SOL     ow 6161   5.224   5.622   5.992 -0.2410  0.1055 -0.7588
 1541SOL     hw 6162   5.223   5.605   5.898  1.6689  0.8862 -0.9742
 1541SOL     hw 6163   5.231   5.717   5.999 -2.2840  0.2458  0.2494
 1541SOL     vw 6164   5.225   5.632   5.981 -0.2587  0.2270 -0.6542
 1542SOL     ow 6165   2.570   1.993   3.826  0.5240 -0.1487  0.3766
 1542SOL     hw 6166   2.648   2.008   3.879  0.9751  1.4200 -0.6724
 1542SOL     hw 6167   2.604   1.969   3.739 -0.0996  1.7455 -0.4327
 1542SOL     vw 6168   2.585   1.992   3.821  0.5013  0.3082  0.1315
 1543SOL     ow 6169   2.396   3.167   2.455 -0.1991  0.0137 -0.2105
 1543SOL     hw 6170   2.476   3.131   2.494 -0.1137  0.2888 -0.1304
 1543SOL     hw 6171   2.325   3.124   2.503 -0.1070  1.3788  1.2503
 1543SOL     vw 6172   2.398   3.156   2.467 -0.1757  0.2301 -0.0072
 1544SOL     ow 6173   2.632   4.804   3.584 -0.4464 -0.1910 -0.0596
 1544SOL     hw 6174   2.609   4.721   3.627  0.4589 -0.7157 -0.5741
 1544SOL     hw 6175   2.714   4.786   3.539 -1.5541  0.2244 -2.3671
 1544SOL     vw 6176   2.639   4.791   3.584 -0.4730 -0.2053 -0.4320
 1545SOL     ow 6177   0.469   3.806   1.763  0.1722 -0.3247 -0.3350
 1545SOL     hw 6178   0.521   3.800   1.683 -2.8439  0.1154 -2.5169
 1545SOL     hw 6179   0.439   3.897   1.765  0.9877 -0.0522  1.9298
 1545SOL     vw 6180   0.472   3.817   1.752 -0.1182 -0.2308 -0.3240
 1546SOL     ow 6181   1.438   0.751   2.194 -0.6726 -0.6106  0.2624
 1546SOL     hw 6182   1.465   0.693   2.266  1.2665  0.5252  0.5539
 1546SOL     hw 6183   1.496   0.728   2.122 -0.1476  0.6147  0.2525
 1546SOL     vw 6184   1.449   0.741   2.194 -0.3474 -0.2991  0.2996
 1547SOL     ow 6185   3.609   4.781   2.854 -0.0313 -0.0217  0.1913
 1547SOL     hw 6186   3.650   4.841   2.792 -0.5960 -0.5705 -0.7446
 1547SOL     hw 6187   3.578   4.838   2.925  1.8181  0.4518  0.6532
 1547SOL     vw 6188   3.610   4.796   2.855  0.1383 -0.0317  0.1286
 1548SOL     ow 6189   6.087   0.931   0.167 -0.0804  0.2147 -0.3895
 1548SOL     hw 6190   6.076   0.979   0.085  0.4570  0.8102 -0.1236
 1548SOL     hw 6191   6.017   0.964   0.223  0.2688  0.6666 -0.2181
 1548SOL     vw 6192   6.077   0.942   0.163  0.0367  0.3529 -0.3318
 1549SOL     ow 6193   6.851   2.683   5.849  0.0308  0.2995 -0.3543
 1549SOL     hw 6194   6.790   2.706   5.779 -1.7228 -1.6568  0.4427
 1549SOL     hw 6195   6.892   2.601   5.820  0.8825  0.5905 -0.0200
 1549SOL     vw 6196   6.848   2.675   5.836 -0.0885  0.0799 -0.2050
 1550SOL     ow 6197   1.244   5.495   4.483  0.2878  0.0404  0.1592
 1550SOL     hw 6198   1.251   5.428   4.415  2.7836 -0.7986  1.1311
 1550SOL     hw 6199   1.254   5.447   4.565 -0.4846  1.2995  1.0274
 1550SOL     vw 6200   1.246   5.480   4.485  0.5152  0.0958  0.4020
 1551SOL     ow 6201   0.042   4.015   1.049 -0.0544  0.2844  0.2579
 1551SOL     hw 6202   0.125   4.054   1.021  1.6938 -2.5113  1.1518
 1551SOL     hw 6203   0.027   4.050   1.137  0.5931  0.2290  0.3960
 1551SOL     vw 6204   0.051   4.025   1.057  0.2617 -0.0918  0.3940
 1552SOL     ow 6205   3.246   2.637   0.423 -0.2182 -0.3167 -0.0689
 1552SOL     hw 6206   3.220   2.710   0.479 -1.3496  1.1662 -2.3575
 1552SOL     hw 6207   3.215   2.662   0.336  2.2168 -2.0624 -1.5527
 1552SOL     vw 6208   3.239   2.650   0.419 -0.0464 -0.3514 -0.5667
 1553SOL     ow 6209   3.806   4.905   3.469  0.2647  0.2139 -0.3789
 1553SOL     hw 6210   3.770   4.966   3.405 -2.0491  0.0299  0.6136
 1553SOL     hw 6211   3.831   4.828   3.417  0.3406  0.8252 -1.2745
 1553SOL     vw 6212   3.804   4.903   3.454 -0.0305  0.2701 -0.3661
 1554SOL     ow 6213   6.836   2.482   2.486 -0.2943  0.1886  0.0044
 1554SOL     hw 6214   6.897   2.511   2.418 -0.4274 -0.1369 -0.2580
 1554SOL     hw 6215   6.769   2.433   2.438  0.2736 -1.1184  0.5060
 1554SOL     vw 6216   6.835   2.479   2.471 -0.2372 -0.0268  0.0360
 1555SOL     ow 6217   0.495   5.454   1.841  0.4298 -0.4571  0.5373
 1555SOL     hw 6218   0.468   5.493   1.924 -0.4239 -2.0888  1.0942
 1555SOL     hw 6219   0.414   5.444   1.791  1.0499  1.4255 -0.9734
 1555SOL     vw 6220   0.481   5.458   1.845  0.3990 -0.4239  0.4114
 1556SOL     ow 6221   5.836   5.838   3.648  0.6824  0.4039 -0.0464
 1556SOL     hw 6222   5.895   5.783   3.699 -2.7811 -1.5683  2.1291
 1556SOL     hw 6223   5.855   5.816   3.557 -0.0852 -4.1036  0.6884
 1556SOL     vw 6224   5.847   5.828   3.643  0.1242 -0.4511  0.3376
 1557SOL     ow 6225   6.970   4.257   3.971 -0.2359  0.3972 -0.0540
 1557SOL     hw 6226   6.876   4.267   3.956 -0.0845  1.0217 -0.6238
 1557SOL     hw 6227   7.012   4.301   3.897  0.5058  1.6691  1.0669
 1557SOL     vw 6228   6.963   4.264   3.960 -0.1183  0.6475  0.0187
 1558SOL     ow 6229   2.754   1.595   4.154  0.0885  0.3759 -0.9351
 1558SOL     hw 6230   2.662   1.615   4.173  0.2042  0.5228 -0.5208
 1558SOL     hw 6231   2.802   1.623   4.233  0.4971  0.3683 -1.1772
 1558SOL     vw 6232   2.748   1.601   4.167  0.1576  0.3943 -0.9122
 1559SOL     ow 6233   5.020   6.317   5.740 -0.3027  0.5195 -0.4779
 1559SOL     hw 6234   5.048   6.248   5.801 -2.8992  0.7991  1.1922
 1559SOL     hw 6235   5.101   6.355   5.708  1.2219  0.0397  2.4807
 1559SOL     vw 6236   5.034   6.313   5.744 -0.4442  0.4930  0.1328
 1560SOL     ow 6237   1.223   5.930   2.742  0.4774  0.1763  0.0913
 1560SOL     hw 6238   1.301   5.985   2.734  1.5607 -1.2970 -0.0601
 1560SOL     hw 6239   1.238   5.878   2.821 -0.5713  0.1964  0.3150
 1560SOL     vw 6240   1.236   5.930   2.751  0.4820 -0.0153  0.1009
 1561SOL     ow 6241   3.627   5.882   5.635 -0.7660 -0.8043  0.6846
 1561SOL     hw 6242   3.694   5.919   5.692 -1.4046  1.0863  0.2840
 1561SOL     hw 6243   3.563   5.843   5.695 -0.8120  0.0820  1.2352
 1561SOL     vw 6244   3.627   5.882   5.651 -0.8564 -0.4377  0.7043
 1562SOL     ow 6245   5.594   0.360   3.792 -0.5749 -0.2602  0.6974
 1562SOL     hw 6246   5.532   0.407   3.737 -0.0144  0.9459  1.0509
 1562SOL     hw 6247   5.677   0.406   3.780 -0.0498 -1.0300  1.2373
 1562SOL     vw 6248   5.597   0.372   3.783 -0.4315 -0.2027  0.8153
 1563SOL     ow 6249   1.596   0.484   3.373 -0.8268  0.0029  0.1670
 1563SOL     hw 6250   1.655   0.469   3.447  0.0745  3.2707  0.2407
 1563SOL     hw 6251   1.509   0.460   3.406 -0.3093  0.4396  1.9480
 1563SOL     vw 6252   1.592   0.479   3.387 -0.6396  0.4917  0.4116
 1564SOL     ow 6253   1.597   1.594   3.145 -0.5270  0.1718  0.4802
 1564SOL     hw 6254   1.608   1.553   3.060 -2.7926  4.2979 -2.1710
 1564SOL     hw 6255   1.678   1.577   3.191 -0.0551 -4.1520 -1.4891
 1564SOL     vw 6256   1.609   1.587   3.140 -0.7638  0.1457 -0.1293
 1565SOL     ow 6257   4.938   4.117   1.879 -0.4118 -0.1663 -0.5642
 1565SOL     hw 6258   4.965   4.117   1.787 -0.6806 -2.7980 -0.7332
 1565SOL     hw 6259   4.843   4.104   1.877 -0.9912  3.1192  0.1175
 1565SOL     vw 6260   4.929   4.115   1.867 -0.5238 -0.0801 -0.4966
 1566SOL     ow 6261   2.169   0.604   4.148  0.0544 -0.0498  0.1389
 1566SOL     hw 6262   2.161   0.606   4.244 -1.2662 -0.2581  0.0553
 1566SOL     hw 6263   2.214   0.522   4.129 -1.8114 -1.2156  0.4965
 1566SOL     vw 6264   2.174   0.594   4.158 -0.3660 -0.2311  0.1752
 1567SOL     ow 6265   1.572   6.855   3.986 -0.2330  0.3953  0.7894
 1567SOL     hw 6266   1.622   6.814   3.915  2.2720  1.2531  1.9280
 1567SOL     hw 6267   1.538   6.782   4.037  1.1607 -0.2913  0.7871
 1567SOL     vw 6268   1.574   6.840   3.983  0.2814  0.4179  0.9394
 1568SOL     ow 6269   2.591   2.835   4.175 -0.7701 -0.1930  0.0351
 1568SOL     hw 6270   2.580   2.926   4.202  0.8515  0.5513 -1.6123
 1568SOL     hw 6271   2.542   2.828   4.093 -0.4578 -0.6264 -0.1217
 1568SOL     vw 6272   2.583   2.846   4.167 -0.5151 -0.1521 -0.2029
 1569SOL     ow 6273   1.220   1.936   0.558 -0.7398  0.0576 -0.0489
 1569SOL     hw 6274   1.178   2.003   0.612  0.2661  1.4240 -0.8948
 1569SOL     hw 6275   1.314   1.951   0.571 -0.5000 -0.7777 -0.7624
 1569SOL     vw 6276   1.227   1.947   0.567 -0.5755  0.1277 -0.2546
 1570SOL     ow 6277   2.417   1.159   5.274 -0.1953  0.0812  0.4389
 1570SOL     hw 6278   2.419   1.204   5.358 -0.8759 -1.3455  1.2584
 1570SOL     hw 6279   2.339   1.103   5.278  0.3110 -0.7589 -0.7308
 1570SOL     vw 6280   2.407   1.157   5.285 -0.2182 -0.2178  0.3927
 1571SOL     ow 6281   6.148   3.864   2.543  0.0086 -0.3831 -0.1067
 1571SOL     hw 6282   6.171   3.778   2.579 -1.4074 -0.7101  0.0845
 1571SOL     hw 6283   6.174   3.858   2.451 -0.0745 -1.0244 -0.0989
 1571SOL     vw 6284   6.154   3.852   2.536 -0.1895 -0.5108 -0.0805
 1572SOL     ow 6285   3.091   1.476   2.999  0.5943  0.4502 -0.3280
 1572SOL     hw 6286   3.152   1.541   2.965 -0.4842  1.8533  0.3085
 1572SOL     hw 6287   3.054   1.516   3.077  0.3669 -1.2182  0.4605
 1572SOL     vw 6288   3.094   1.489   3.005  0.4220  0.4152 -0.1401
 1573SOL     ow 6289   0.399   7.009   4.514 -0.2349  0.2072 -0.2416
 1573SOL     hw 6290   0.469   6.948   4.535 -0.5564  0.2756  1.0968
 1573SOL     hw 6291   0.322   6.954   4.502 -0.6384  0.3537  1.4729
 1573SOL     vw 6292   0.398   6.994   4.515 -0.3306  0.2356  0.1609
 1574SOL     ow 6293   1.974   6.842   0.633 -0.7055  0.3864 -0.1670
 1574SOL     hw 6294   1.959   6.881   0.547 -0.8307 -0.7669 -0.6731
 1574SOL     hw 6295   2.020   6.911   0.682 -0.3554  0.9433 -1.2426
 1574SOL     vw 6296   1.978   6.856   0.628 -0.6759  0.3078 -0.3757
 1575SOL     ow 6297   1.779   2.789   6.624  0.4355  0.3811 -0.1512
 1575SOL     hw 6298   1.698   2.824   6.661  0.4639 -0.3575  0.6338
 1575SOL     hw 6299   1.752   2.710   6.577  0.8610 -0.6404  1.2652
 1575SOL     vw 6300   1.765   2.783   6.622  0.4955  0.1489  0.1392
 1576SOL     ow 6301   0.165   3.008   2.760  0.4991 -0.0753 -0.3280
 1576SOL     hw 6302   0.237   3.067   2.783 -0.5764  0.4617  1.9307
 1576SOL     hw 6303   0.160   3.013   2.665  1.5881  2.0934 -0.3353
 1576SOL     vw 6304   0.174   3.016   2.750  0.5009  0.2817 -0.0310
 1577SOL     ow 6305   5.359   3.864   6.890 -0.0528  0.5007 -0.2560
 1577SOL     hw 6306   5.273   3.889   6.858 -0.1365  0.6238  0.0594
 1577SOL     hw 6307   5.345   3.840   6.981 -0.1001 -1.4049 -0.7288
 1577SOL     vw 6308   5.346   3.864   6.898 -0.0703  0.2656 -0.2766
 1578SOL     ow 6309   0.812   0.663   6.796  0.0223 -0.4575 -0.7246
 1578SOL     hw 6310   0.736   0.642   6.743  0.0768 -0.1971 -0.9028
 1578SOL     hw 6311   0.869   0.586   6.788 -1.2498 -1.7192  1.2996
 1578SOL     vw 6312   0.810   0.650   6.788 -0.1383 -0.5896 -0.4811
 1579SOL     ow 6313   2.812   6.345   3.003  0.2380 -0.2564 -0.6534
 1579SOL     hw 6314   2.777   6.312   2.920  2.3284 -1.8678 -0.9884
 1579SOL     hw 6315   2.905   6.359   2.986  0.0927  3.0973  0.3903
 1579SOL     vw 6316   2.820   6.343   2.990  0.4946 -0.0265 -0.5598
 1580SOL     ow 6317   0.702   3.583   6.768  0.4180  0.3511 -0.3527
 1580SOL     hw 6318   0.624   3.576   6.823  0.3278 -0.2296 -0.5471
 1580SOL     hw 6319   0.722   3.676   6.766  0.8987  0.3116  1.3127
 1580SOL     vw 6320   0.694   3.594   6.775  0.4695  0.2694 -0.1585
 1581SOL     ow 6321   1.862   2.634   2.150  0.1518 -0.6141  0.4124
 1581SOL     hw 6322   1.933   2.677   2.198 -0.7782 -0.4740  1.7494
 1581SOL     hw 6323   1.806   2.706   2.120  0.6127 -0.7169 -0.7133
 1581SOL     vw 6324   1.864   2.649   2.153  0.0899 -0.6093  0.4404
 1582SOL     ow 6325   6.737   2.831   0.360 -0.1574 -0.2691 -0.7976
 1582SOL     hw 6326   6.702   2.744   0.342  0.5535 -0.8777  0.6419
 1582SOL     hw 6327   6.811   2.840   0.299 -0.6523 -0.3849 -1.4226
 1582SOL     vw 6328   6.742   2.821   0.350 -0.1290 -0.3647 -0.6901
 1583SOL     ow 6329   4.923   1.836   3.975  0.1685  0.1399  0.4767
 1583SOL     hw 6330   4.956   1.850   4.063  0.6429 -1.5540  0.6156
 1583SOL     hw 6331   4.897   1.923   3.944  1.2234  0.9543  1.7796
 1583SOL     vw 6332   4.924   1.849   3.982  0.3705  0.0238  0.6670
 1584SOL     ow 6333   0.254   1.911   6.787 -0.0453 -0.0326 -0.4237
 1584SOL     hw 6334   0.250   1.843   6.720 -0.9453 -2.5840  2.0374
 1584SOL     hw 6335   0.164   1.940   6.797 -0.1663 -0.7269  0.6382
 1584SOL     vw 6336   0.242   1.906   6.779 -0.1800 -0.4609  0.0412
 1585SOL     ow 6337   3.937   6.311   2.189 -0.6425 -0.8445  0.1830
 1585SOL     hw 6338   3.884   6.376   2.236 -0.8276 -1.0357  0.2354
 1585SOL     hw 6339   4.027   6.344   2.197 -0.4970 -1.5503  1.7995
 1585SOL     vw 6340   3.942   6.324   2.196 -0.6477 -0.9630  0.4032
 1586SOL     ow 6341   1.779   3.435   5.195 -0.0277  0.3757  0.8676
 1586SOL     hw 6342   1.776   3.473   5.107 -0.1930 -0.6167  0.4321
 1586SOL     hw 6343   1.806   3.508   5.251 -0.9488  1.2939  0.1570
 1586SOL     vw 6344   1.782   3.450   5.191 -0.1711  0.3659  0.7162
 1587SOL     ow 6345   2.813   6.386   3.845 -0.1427  0.1024  0.2604
 1587SOL     hw 6346   2.867   6.307   3.844 -0.2331  0.0439  0.0733
 1587SOL     hw 6347   2.728   6.358   3.811 -0.8062 -0.1612  2.0426
 1587SOL     vw 6348   2.809   6.372   3.840 -0.2421  0.0598  0.4708
 1588SOL     ow 6349   2.618   2.790   6.762 -0.1819 -0.1367 -0.1269
 1588SOL     hw 6350   2.635   2.696   6.768  0.9447  0.1185  1.2348
 1588SOL     hw 6351   2.686   2.830   6.816 -1.7699  1.3433  0.8856
 1588SOL     vw 6352   2.629   2.783   6.770 -0.2428  0.0924  0.1864
 1589SOL     ow 6353   6.434   4.789   5.176 -0.2302 -0.4332 -0.1147
 1589SOL     hw 6354   6.416   4.875   5.140 -3.3416 -0.2995  1.3824
 1589SOL     hw 6355   6.486   4.806   5.255 -1.3294  0.1524  0.4939
 1589SOL     vw 6356   6.439   4.803   5.182 -0.7858 -0.3383  0.1631
 1590SOL     ow 6357   1.517   1.146   4.155  0.0995 -0.3024  0.0127
 1590SOL     hw 6358   1.571   1.080   4.199 -0.4266 -0.8635 -0.1812
 1590SOL     hw 6359   1.566   1.168   4.076 -0.3012 -1.3528 -0.5376
 1590SOL     vw 6360   1.531   1.140   4.151 -0.0228 -0.5150 -0.0854
 1591SOL     ow 6361   3.604   1.949   5.667  0.0420 -0.4037  0.1990
 1591SOL     hw 6362   3.661   2.016   5.705 -1.7021  1.3247 -0.0566
 1591SOL     hw 6363   3.548   1.921   5.739 -0.1658 -0.5532 -0.0180
 1591SOL     vw 6364   3.604   1.954   5.681 -0.2154 -0.1954  0.1366
 1592SOL     ow 6365   1.805   3.066   3.358  0.0982 -0.1067  0.1178
 1592SOL     hw 6366   1.766   3.005   3.421 -0.1187 -0.6674 -0.5515
 1592SOL     hw 6367   1.860   3.123   3.412  1.5290 -1.8459  0.5903
 1592SOL     vw 6368   1.807   3.066   3.373  0.2584 -0.4103  0.0919
 1593SOL     ow 6369   6.991   1.380   4.864  0.5067  0.4340  0.3693
 1593SOL     hw 6370   7.017   1.387   4.772  0.8848  0.5853  0.4879
 1593SOL     hw 6371   6.957   1.466   4.887  1.4503  0.7339  0.6859
 1593SOL     vw 6372   6.990   1.392   4.855  0.6814  0.4935  0.4272
 1594SOL     ow 6373   2.533   5.546   0.956  0.3330 -0.5975 -0.0414
 1594SOL     hw 6374   2.532   5.462   0.910  1.7819 -0.7280  0.1032
 1594SOL     hw 6375   2.441   5.563   0.978 -0.0245 -1.9582 -0.3986
 1594SOL     vw 6376   2.521   5.537   0.953  0.4771 -0.7942 -0.0695
 1595SOL     ow 6377   6.335   3.904   6.118  0.2910 -0.1870  0.0716
 1595SOL     hw 6378   6.252   3.864   6.145  0.2484 -1.5271 -1.8400
 1595SOL     hw 6379   6.400   3.864   6.176 -0.2666  0.1628  0.9631
 1595SOL     vw 6380   6.332   3.893   6.129  0.2117 -0.3177 -0.0629
 1596SOL     ow 6381   4.482   3.054   2.807 -0.4501 -0.0192 -0.5137
 1596SOL     hw 6382   4.501   2.972   2.762 -0.0478  1.3026 -2.9432
 1596SOL     hw 6383   4.567   3.084   2.839 -0.9598 -1.9482  3.2869
 1596SOL     vw 6384   4.496   3.047   2.805 -0.4640 -0.0993 -0.3327
 1597SOL     ow 6385   5.509   4.665   4.969 -0.1479 -0.3893  0.7634
 1597SOL     hw 6386   5.559   4.710   4.902 -0.2272 -0.5896  0.5661
 1597SOL     hw 6387   5.440   4.727   4.993 -1.1855 -0.9586 -0.5947
 1597SOL     vw 6388   5.506   4.679   4.963 -0.2954 -0.4907  0.5581
 1598SOL     ow 6389   3.794   1.725   1.196 -0.2799 -0.4644 -0.3672
 1598SOL     hw 6390   3.730   1.701   1.262 -0.4095 -0.7419 -0.5957
 1598SOL     hw 6391   3.811   1.644   1.148  0.1111 -0.3537 -0.4190
 1598SOL     vw 6392   3.788   1.711   1.198 -0.2455 -0.4864 -0.4042
 1599SOL     ow 6393   5.778   0.372   2.548  0.0918  0.1812 -0.5233
 1599SOL     hw 6394   5.739   0.358   2.634 -1.7735 -0.4164 -1.4085
 1599SOL     hw 6395   5.794   0.466   2.543 -1.0105  0.4120  0.0116
 1599SOL     vw 6396   5.775   0.382   2.558 -0.2997  0.1328 -0.5693
 1600SOL     ow 6397   1.284   2.347   5.921  0.3607  0.0274 -0.2982
 1600SOL     hw 6398   1.244   2.265   5.951  0.5784  0.0612  0.1020
 1600SOL     hw 6399   1.327   2.324   5.839  0.8824 -0.3902  0.0866
 1600SOL     vw 6400   1.284   2.333   5.914  0.4582 -0.0232 -0.1948
 1601SOL     ow 6401   3.786   0.457   0.591  0.1540 -0.3026 -0.0687
 1601SOL     hw 6402   3.721   0.387   0.591 -0.1190 -0.0718 -1.0785
 1601SOL     hw 6403   3.850   0.431   0.658 -0.6843 -0.8006  0.5576
 1601SOL     vw 6404   3.786   0.444   0.600  0.0075 -0.3379 -0.1192
 1602SOL     ow 6405   0.221   0.014   6.338 -0.0061  0.4864  0.4437
 1602SOL     hw 6406   0.287   0.084   6.341  0.0688  0.5692 -1.5963
 1602SOL     hw 6407   0.217  -0.010   6.245 -2.0918 -0.2576  0.6947
 1602SOL     vw 6408   0.229   0.020   6.326 -0.2714  0.3991  0.2077
 1603SOL     ow 6409   5.549   3.921   4.166 -0.8224  0.3075  0.2532
 1603SOL     hw 6410   5.454   3.910   4.157 -0.7159  0.3621 -1.2733
 1603SOL     hw 6411   5.569   3.997   4.111 -0.0319  1.0342  1.4965
 1603SOL     vw 6412   5.539   3.930   4.157 -0.7041  0.4106  0.2158
 1604SOL     ow 6413   2.804   3.620   6.114 -0.4296  0.5668 -0.2555
 1604SOL     hw 6414   2.760   3.686   6.061  1.3327  1.2839 -0.9163
 1604SOL     hw 6415   2.782   3.642   6.204  0.0130  1.9838 -0.4804
 1604SOL     vw 6416   2.795   3.631   6.119 -0.1388  0.8483 -0.3724
 1605SOL     ow 6417   0.229   5.418   1.739 -0.0132 -0.1949  0.2921
 1605SOL     hw 6418   0.195   5.492   1.790 -0.1313 -0.1433  0.1400
 1605SOL     hw 6419   0.156   5.356   1.735 -0.2018  0.0547 -0.3080
 1605SOL     vw 6420   0.215   5.420   1.745 -0.0537 -0.1554  0.1929
 1606SOL     ow 6421   3.331   2.509   0.668  0.4046 -0.1179  0.0340
 1606SOL     hw 6422   3.256   2.467   0.711 -1.0834 -1.2935 -3.4040
 1606SOL     hw 6423   3.394   2.523   0.739 -1.8287 -1.8086  2.5642
 1606SOL     vw 6424   3.329   2.506   0.683 -0.0864 -0.4960 -0.0857
 1607SOL     ow 6425   5.501   3.648   5.634 -0.4424  0.0420 -0.5379
 1607SOL     hw 6426   5.465   3.728   5.594  2.1476  0.8257 -1.5072
 1607SOL     hw 6427   5.567   3.680   5.696  0.8018 -1.3088 -1.0995
 1607SOL     vw 6428   5.505   3.663   5.637  0.0637 -0.0327 -0.7401
 1608SOL     ow 6429   0.882   2.743   5.999  0.7789 -0.8332  0.3683
 1608SOL     hw 6430   0.863   2.737   6.092  0.8200 -0.7469  0.3822
 1608SOL     hw 6431   0.952   2.808   5.992  1.3810 -1.4658  0.3577
 1608SOL     vw 6432   0.889   2.751   6.010  0.8638 -0.9053  0.3691
 1609SOL     ow 6433   4.470   5.188   0.985  0.7467 -0.0569 -0.4837
 1609SOL     hw 6434   4.424   5.167   1.067 -0.0376  1.1165 -0.6092
 1609SOL     hw 6435   4.415   5.149   0.917  0.9710 -0.3201 -0.5186
 1609SOL     vw 6436   4.457   5.180   0.987  0.6728  0.0632 -0.5049
 1610SOL     ow 6437   3.353   1.067   0.327 -0.0364 -0.6982 -0.9738
 1610SOL     hw 6438   3.342   1.033   0.416 -0.1509  2.4859  0.3635
 1610SOL     hw 6439   3.311   1.002   0.271 -0.0106 -2.7912  1.2757
 1610SOL     vw 6440   3.346   1.054   0.332 -0.0482 -0.5543 -0.5006
 1611SOL     ow 6441   3.476   2.817   0.089  0.0487  0.0968  0.1765
 1611SOL     hw 6442   3.492   2.761   0.013  2.5932 -1.2187  1.5533
 1611SOL     hw 6443   3.382   2.834   0.087 -0.3376 -1.8560 -1.9164
 1611SOL     vw 6444   3.466   2.812   0.079  0.3334 -0.3344  0.0820
 1612SOL     ow 6445   4.810   4.332   6.207 -0.2806 -0.0798 -0.5185
 1612SOL     hw 6446   4.858   4.255   6.237  0.6610  0.5764 -0.3034
 1612SOL     hw 6447   4.878   4.397   6.190 -0.8316 -0.1158 -3.2503
 1612SOL     vw 6448   4.825   4.330   6.209 -0.2291  0.0021 -0.8507
 1613SOL     ow 6449   5.159   0.418   6.971  0.3395  0.9241 -0.2847
 1613SOL     hw 6450   5.101   0.365   6.916  0.4869  1.5197 -1.0239
 1613SOL     hw 6451   5.099   0.470   7.024  0.1930  1.0273 -0.5470
 1613SOL     vw 6452   5.143   0.418   6.971  0.3397  1.0163 -0.4170
 1614SOL     ow 6453   5.559   1.819   1.731  0.8681  0.2530  0.1545
 1614SOL     hw 6454   5.574   1.863   1.647 -0.7075  0.3272 -0.1151
 1614SOL     hw 6455   5.499   1.876   1.778 -2.1313 -1.9707 -0.6395
 1614SOL     vw 6456   5.553   1.832   1.726  0.2646 -0.0307  0.0142
 1615SOL     ow 6457   0.053   6.616   3.770 -0.0367 -0.5366  0.4241
 1615SOL     hw 6458  -0.028   6.591   3.725 -1.0657 -0.9706  2.3926
 1615SOL     hw 6459   0.087   6.535   3.806  0.5003 -0.1401  0.8302
 1615SOL     vw 6460   0.047   6.602   3.769 -0.1018 -0.5414  0.7374
 1616SOL     ow 6461   2.816   0.695   2.657  0.5032  0.2738 -0.5107
 1616SOL     hw 6462   2.721   0.703   2.659  0.3355 -1.2965 -0.7829
 1616SOL     hw 6463   2.832   0.601   2.647  2.1190 -0.0448  3.3024
 1616SOL     vw 6464   2.806   0.684   2.656  0.6945  0.0246 -0.0434
 1617SOL     ow 6465   2.642   6.854   6.957  0.0680 -0.0878 -0.4308
 1617SOL     hw 6466   2.649   6.944   6.988  1.7335 -0.3667  0.1185
 1617SOL     hw 6467   2.655   6.801   7.035 -0.7827 -0.8027 -0.7726
 1617SOL     vw 6468   2.645   6.859   6.971  0.1755 -0.2191 -0.4034
 1618SOL     ow 6469   0.921   0.815   2.066  0.2135  0.0055 -0.2423
 1618SOL     hw 6470   0.881   0.902   2.063  0.4567  0.1709  0.7415
 1618SOL     hw 6471   0.848   0.754   2.051  0.1018  0.3807 -1.2701
 1618SOL     vw 6472   0.906   0.818   2.064  0.2308  0.0768 -0.2481
 1619SOL     ow 6473   1.503   2.632   1.786 -0.2636 -0.1141 -0.1238
 1619SOL     hw 6474   1.465   2.719   1.789 -1.8559 -0.7478 -0.5714
 1619SOL     hw 6475   1.509   2.612   1.692  1.0228 -0.1148 -0.0546
 1619SOL     vw 6476   1.499   2.641   1.774 -0.3040 -0.1979 -0.1737
 1620SOL     ow 6477   6.978   3.513   1.314  0.1557  0.1157  0.2755
 1620SOL     hw 6478   7.020   3.572   1.376 -0.6779  2.8963 -1.5976
 1620SOL     hw 6479   7.046   3.450   1.290  1.1694  0.4240  2.2050
 1620SOL     vw 6480   6.993   3.513   1.319  0.1798  0.5233  0.2829
 1621poe    c31 6481   2.089   4.071   0.762 -0.2133 -0.1398 -0.4975
 1621poe     o2 6482   2.202   4.125   0.827 -0.7537 -0.2187  0.5377
 1621poe    c23 6483   2.278   4.041   0.911  0.2381 -0.0224 -0.1397
 1621poe    c23 6484   2.399   4.115   0.971  0.1298  0.1513 -0.1335
 1621poe     o2 6485   2.480   4.178   0.875  0.6973 -0.2779  0.0576
 1621poe    c23 6486   2.584   4.235   0.951  0.7483 -0.3748  0.0606
 1621poe    c23 6487   2.647   4.349   0.868  0.1628 -0.1305 -0.0517
 1621poe     o2 6488   2.547   4.445   0.843  0.0176 -0.2780 -0.0421
 1621poe    c23 6489   2.591   4.565   0.783  0.0428 -0.3884 -0.2455
 1621poe    c23 6490   2.471   4.660   0.806  0.3463  0.0651 -0.5146
 1621poe     o2 6491   2.348   4.608   0.760  0.2131 -0.1874  0.1201
 1621poe    c31 6492   2.255   4.714   0.768 -0.0783 -0.4284 -0.0769
 1622poe    c31 6493   6.716   0.471   4.570 -0.6160 -0.3789 -0.1748
 1622poe     o2 6494   6.754   0.570   4.663  0.1316 -0.5482 -0.2960
 1622poe    c23 6495   6.869   0.634   4.613 -0.2775  0.1125 -0.3931
 1622poe    c23 6496   6.911   0.739   4.717 -0.2659 -0.4387  0.1633
 1622poe     o2 6497   6.818   0.845   4.716 -0.0081 -0.2120 -0.9684
 1622poe    c23 6498   6.856   0.955   4.795  0.2909 -0.9416 -0.0782
 1622poe    c23 6499   6.759   1.072   4.768  0.2874 -0.8265  0.4231
 1622poe     o2 6500   6.626   1.025   4.772  0.0075 -0.0422  0.4235
 1622poe    c23 6501   6.536   1.127   4.808 -0.0577 -0.3084  1.0279
 1622poe    c23 6502   6.392   1.074   4.800 -0.3869  0.7049 -0.1254
 1622poe     o2 6503   6.360   1.017   4.675 -0.2207 -0.7121  0.4605
 1622poe    c31 6504   6.222   0.991   4.675 -0.3544 -0.0414  0.0314
 1623poe    c31 6505   2.263   1.727   1.593 -0.4422  0.6707  0.2152
 1623poe     o2 6506   2.277   1.864   1.563  0.0033  0.5711 -0.0543
 1623poe    c23 6507   2.375   1.930   1.640  0.0410  0.2929  0.1399
 1623poe    c23 6508   2.365   2.081   1.608 -0.5217  0.3075  0.3715
 1623poe     o2 6509   2.396   2.089   1.471  0.3593  0.6286  0.5863
 1623poe    c23 6510   2.410   2.226   1.441 -0.8481  0.6020 -0.1589
 1623poe    c23 6511   2.318   2.276   1.328 -0.7456  0.0916 -0.4682
 1623poe     o2 6512   2.180   2.252   1.338 -0.6492 -0.3190 -0.1069
 1623poe    c23 6513   2.100   2.357   1.387 -0.2215  0.1084 -0.3216
 1623poe    c23 6514   2.078   2.353   1.539 -0.0034  0.0722 -0.2913
 1623poe     o2 6515   2.006   2.242   1.587 -0.1210  0.1642 -0.2548
 1623poe    c31 6516   2.032   2.219   1.724  0.3169 -0.2393 -0.4030
 1624poe    c31 6517   0.474   0.275   3.862 -0.0790  0.1707 -0.1288
 1624poe     o2 6518   0.408   0.150   3.862  0.0909  0.0816 -0.3431
 1624poe    c23 6519   0.327   0.134   3.748  0.3634 -0.1570 -0.5048
 1624poe    c23 6520   0.393   0.130   3.609  0.3907  0.2069 -0.5041
 1624poe     o2 6521   0.450   0.003   3.582  0.4833  0.1120  0.1054
 1624poe    c23 6522   0.462  -0.039   3.448  0.3920  0.3116  0.0330
 1624poe    c23 6523   0.542  -0.170   3.435  0.0265  0.0745  0.1829
 1624poe     o2 6524   0.482  -0.286   3.489  0.0753  0.1047  0.3021
 1624poe    c23 6525   0.404  -0.356   3.395  0.1923 -0.0457  0.3161
 1624poe    c23 6526   0.376  -0.492   3.463 -0.3249 -0.0520  0.0993
 1624poe     o2 6527   0.331  -0.486   3.596  0.3207 -0.1621  0.3275
 1624poe    c31 6528   0.323  -0.606   3.669  0.0246  0.1248  0.7693
 1625poe    c31 6529   4.444   5.163   2.985  0.1978 -0.0885 -0.3452
 1625poe     o2 6530   4.315   5.216   2.959  0.1369 -0.1745 -0.2174
 1625poe    c23 6531   4.314   5.322   2.867  0.2237 -0.3296 -0.3981
 1625poe    c23 6532   4.170   5.375   2.851  0.3310  0.1762  0.2602
 1625poe     o2 6533   4.126   5.437   2.969 -0.1250 -0.1261  0.2538
 1625poe    c23 6534   3.988   5.460   2.951  0.0030  0.3168 -0.2034
 1625poe    c23 6535   3.958   5.572   3.052 -0.7987 -0.0015 -0.0773
 1625poe     o2 6536   4.031   5.557   3.172 -0.2454  0.4380 -0.3531
 1625poe    c23 6537   3.965   5.620   3.279 -0.5211  0.2621 -0.4183
 1625poe    c23 6538   4.071   5.623   3.391  0.2521 -0.0515 -1.1241
 1625poe     o2 6539   4.171   5.526   3.368  0.1191 -0.4951  0.0629
 1625poe    c31 6540   4.256   5.530   3.480  0.2776  0.0626 -0.0741
 1626poe    c31 6541   1.961   6.762   4.103  0.0367 -0.0809  0.2210
 1626poe     o2 6542   2.084   6.772   4.170 -0.0686 -0.1576  0.4259
 1626poe    c23 6543   2.164   6.877   4.119 -0.2443 -0.0523  0.3660
 1626poe    c23 6544   2.308   6.852   4.167 -0.0775  0.2983  0.0561
 1626poe     o2 6545   2.307   6.806   4.301  0.0787 -0.0372 -0.0561
 1626poe    c23 6546   2.432   6.782   4.362  0.3361 -0.0816 -0.5889
 1626poe    c23 6547   2.393   6.746   4.507  0.0614  0.0592 -0.6269
 1626poe     o2 6548   2.270   6.679   4.523  0.0742  0.1695 -0.0460
 1626poe    c23 6549   2.261   6.648   4.660 -0.7029  0.0356 -0.1231
 1626poe    c23 6550   2.139   6.560   4.695 -0.2927 -0.1619  0.8434
 1626poe     o2 6551   2.144   6.441   4.620 -0.4749  0.6755 -0.5413
 1626poe    c31 6552   2.047   6.343   4.649  0.3549  0.1093  0.3872
 1627poe    c31 6553   2.057   0.507   5.805 -0.1605 -0.6060  0.5028
 1627poe     o2 6554   1.975   0.600   5.872 -0.2240 -0.1928 -0.1442
 1627poe    c23 6555   2.018   0.734   5.859 -0.5603 -0.1026 -0.3632
 1627poe    c23 6556   1.936   0.836   5.940  0.2706 -0.1532  0.5671
 1627poe     o2 6557   1.963   0.845   6.078  0.4039 -0.0598  0.5354
 1627poe    c23 6558   1.892   0.948   6.143 -0.3376 -0.2758  0.0882
 1627poe    c23 6559   1.902   0.935   6.297 -0.0158 -0.3495  0.0611
 1627poe     o2 6560   1.837   0.826   6.357  0.2587 -0.4573  0.1647
 1627poe    c23 6561   1.876   0.820   6.493  0.3096 -0.1409  0.1642
 1627poe    c23 6562   1.780   0.729   6.572 -0.6205  0.4239 -0.2980
 1627poe     o2 6563   1.783   0.601   6.514  0.2608  0.3616 -0.1244
 1627poe    c31 6564   1.711   0.503   6.586  0.3267  0.2968 -0.1463
 1628poe    c31 6565   6.688   2.485   0.425 -0.3926  0.5693  0.4130
 1628poe     o2 6566   6.760   2.558   0.328  0.0623 -0.3955  0.0136
 1628poe    c23 6567   6.863   2.484   0.267  0.2709  0.1865 -0.3428
 1628poe    c23 6568   6.999   2.556   0.261  0.4133 -0.0553  0.0281
 1628poe     o2 6569   7.054   2.583   0.388 -0.3997  0.4104  0.2835
 1628poe    c23 6570   7.187   2.629   0.373 -0.3896  0.2257 -0.1896
 1628poe    c23 6571   7.227   2.720   0.490 -0.3851 -0.4376  0.3268
 1628poe     o2 6572   7.254   2.644   0.607 -0.0161 -0.2910  0.3375
 1628poe    c23 6573   7.326   2.727   0.695  0.4622  0.0450 -0.3591
 1628poe    c23 6574   7.351   2.652   0.827 -0.3642  0.4409  0.0317
 1628poe     o2 6575   7.414   2.527   0.810 -0.6100  0.3623 -0.3124
 1628poe    c31 6576   7.406   2.448   0.927 -0.6549 -0.0748 -0.6087
 1629poe    c31 6577   2.916   1.314   2.718  0.2949  0.6149  0.0025
 1629poe     o2 6578   2.989   1.249   2.820 -0.2693 -0.2928 -0.1634
 1629poe    c23 6579   3.051   1.135   2.766 -0.4753 -0.4453 -0.0815
 1629poe    c23 6580   3.109   1.048   2.879 -0.2885  0.0938  0.2433
 1629poe     o2 6581   3.175   1.127   2.975 -0.5754  0.1835  0.3684
 1629poe    c23 6582   3.209   1.049   3.088  0.3747 -0.2729 -0.2172
 1629poe    c23 6583   3.248   1.150   3.198 -0.2980 -0.1540 -0.0873
 1629poe     o2 6584   3.153   1.254   3.208 -0.2712 -0.1175 -0.2167
 1629poe    c23 6585   3.145   1.305   3.339 -0.0889  0.2991 -0.3683
 1629poe    c23 6586   2.998   1.301   3.383  0.0282  0.2619  0.0261
 1629poe     o2 6587   2.940   1.173   3.372  0.2690  0.1817 -0.3494
 1629poe    c31 6588   2.804   1.183   3.408  0.3148  0.1298 -0.1576
 1630poe    c31 6589   0.269   1.239   6.803 -1.1792 -0.1464  0.3462
 1630poe     o2 6590   0.213   1.135   6.725 -0.7619  0.0242 -0.1871
 1630poe    c23 6591   0.287   1.133   6.605 -0.1524 -0.6029  0.1923
 1630poe    c23 6592   0.217   1.028   6.516  0.0861 -0.1223 -0.5678
 1630poe     o2 6593   0.173   0.932   6.610  0.4893 -0.1023 -0.3545
 1630poe    c23 6594   0.147   0.809   6.547 -0.2517  0.1589 -0.5675
 1630poe    c23 6595   0.048   0.720   6.624  0.0311  0.1349 -0.2309
 1630poe     o2 6596  -0.075   0.786   6.643  0.2816  0.5582 -0.0751
 1630poe    c23 6597  -0.151   0.713   6.736 -0.0840 -0.2003 -0.9493
 1630poe    c23 6598  -0.285   0.780   6.771  0.0382 -0.3816 -0.1095
 1630poe     o2 6599  -0.260   0.917   6.792 -0.4005 -0.2887 -0.1873
 1630poe    c31 6600  -0.375   0.972   6.853 -0.4224 -0.8385  0.2771
 1631poe    c31 6601   5.518   4.349   0.458  0.3465 -0.3461 -0.2621
 1631poe     o2 6602   5.590   4.467   0.430  0.0069  0.0251  0.3954
 1631poe    c23 6603   5.503   4.550   0.357  0.5330  0.3862  0.1687
 1631poe    c23 6604   5.570   4.687   0.337  0.7532  0.1967 -0.4021
 1631poe     o2 6605   5.610   4.726   0.466 -0.2579 -0.1618  0.0274
 1631poe    c23 6606   5.642   4.863   0.475 -0.7251 -0.0282 -0.3102
 1631poe    c23 6607   5.670   4.892   0.624  0.0133 -0.3449 -0.3843
 1631poe     o2 6608   5.777   4.814   0.672 -0.2028 -0.0235  0.6313
 1631poe    c23 6609   5.795   4.822   0.812 -0.2831  0.1055  0.6342
 1631poe    c23 6610   5.939   4.774   0.838 -0.2700 -0.1655  0.0662
 1631poe     o2 6611   5.949   4.640   0.793  0.2726 -0.0909 -0.0364
 1631poe    c31 6612   6.085   4.604   0.803  0.1698 -0.5609 -0.2934
 1632poe    c31 6613   3.532   4.845   6.805  0.1277  0.2392  0.4322
 1632poe     o2 6614   3.455   4.843   6.687  0.2820 -0.5164  0.3432
 1632poe    c23 6615   3.413   4.708   6.678 -0.0788 -0.3710 -0.2687
 1632poe    c23 6616   3.316   4.683   6.562 -0.6662  0.2621  0.0759
 1632poe     o2 6617   3.366   4.690   6.430 -0.1435 -0.6617  0.2141
 1632poe    c23 6618   3.258   4.668   6.342  0.2296 -0.4889 -0.2905
 1632poe    c23 6619   3.293   4.721   6.202 -0.3854  0.2758 -0.1608
 1632poe     o2 6620   3.323   4.859   6.210  0.1319  0.1511  0.0710
 1632poe    c23 6621   3.327   4.914   6.080  0.9821  0.0212  0.0374
 1632poe    c23 6622   3.335   5.065   6.107  0.6566  0.0196  0.1532
 1632poe     o2 6623   3.423   5.072   6.217  0.0096  0.0345  0.6747
 1632poe    c31 6624   3.483   5.200   6.221  0.2488 -0.0594  0.2169
 1633poe    c31 6625   4.005   3.729   0.842  0.1308  0.0805 -0.1590
 1633poe     o2 6626   4.078   3.809   0.752  0.2872  0.1543  0.0337
 1633poe    c23 6627   4.159   3.739   0.660 -0.3385 -0.0985 -0.3317
 1633poe    c23 6628   4.082   3.665   0.550 -0.5904 -0.3635  0.0197
 1633poe     o2 6629   4.018   3.545   0.588 -0.0356 -0.7005 -0.0868
 1633poe    c23 6630   3.920   3.512   0.493 -0.1323 -0.3410 -0.1138
 1633poe    c23 6631   3.919   3.361   0.465  0.8195 -0.4327  0.3179
 1633poe     o2 6632   3.906   3.284   0.582 -0.2188 -0.3993  0.2312
 1633poe    c23 6633   3.934   3.147   0.570  0.3474 -0.2461 -0.2216
 1633poe    c23 6634   3.922   3.083   0.710 -0.0130 -0.4140 -0.3271
 1633poe     o2 6635   3.958   3.180   0.805  0.2981 -0.4628 -0.3906
 1633poe    c31 6636   3.993   3.118   0.927 -0.9209  0.7402  0.6174
 1634poe    c31 6637   0.072   6.632   5.479 -0.0900 -0.3132 -0.2034
 1634poe     o2 6638   0.023   6.763   5.499  0.3859 -0.1618 -0.0161
 1634poe    c23 6639  -0.064   6.769   5.611  0.5868  0.2939  0.1177
 1634poe    c23 6640  -0.135   6.905   5.604  0.4301  0.2392  0.6233
 1634poe     o2 6641  -0.050   7.017   5.614  0.1327  0.5537 -0.2545
 1634poe    c23 6642  -0.086   7.112   5.712  0.3550 -0.4450  0.8241
 1634poe    c23 6643  -0.006   7.242   5.688 -0.2073 -0.2905 -0.2945
 1634poe     o2 6644  -0.020   7.269   5.550  0.5614  0.3385 -0.2563
 1634poe    c23 6645   0.028   7.392   5.500  0.0089  0.7515  0.2058
 1634poe    c23 6646   0.026   7.391   5.346  0.5737  0.6610  0.1963
 1634poe     o2 6647   0.085   7.270   5.304 -0.0698  0.4085  0.0059
 1634poe    c31 6648   0.117   7.277   5.167 -0.1265 -0.9331 -0.0976
 1635poe    c31 6649   3.618   1.665   4.457 -0.0965 -0.1839 -0.2960
 1635poe     o2 6650   3.730   1.602   4.400  0.3821  0.3672  0.0148
 1635poe    c23 6651   3.708   1.464   4.379  0.3400  0.4102 -0.2279
 1635poe    c23 6652   3.672   1.445   4.230  0.1619 -0.0373 -0.1294
 1635poe     o2 6653   3.775   1.489   4.145 -0.0327 -0.2268 -0.4645
 1635poe    c23 6654   3.866   1.385   4.114 -0.0959 -0.3739 -0.1599
 1635poe    c23 6655   3.912   1.402   3.968 -0.3797 -0.3294 -0.2465
 1635poe     o2 6656   3.918   1.541   3.946  0.0819 -0.2486  0.3396
 1635poe    c23 6657   3.965   1.566   3.815  0.1422 -0.2436  0.3619
 1635poe    c23 6658   3.983   1.715   3.781  0.3694 -0.2919  0.2724
 1635poe     o2 6659   3.865   1.787   3.805  0.5384  0.3569 -0.7891
 1635poe    c31 6660   3.882   1.924   3.774 -0.4373  0.6862  0.0475
 1636poe    c31 6661   4.956   0.046   5.489  0.2144  0.7390  0.3632
 1636poe     o2 6662   5.069   0.007   5.564  0.2129  0.3395  0.1625
 1636poe    c23 6663   5.031  -0.043   5.690 -0.7825  0.3824 -0.1101
 1636poe    c23 6664   5.151  -0.005   5.779 -0.3945 -0.0191 -0.4566
 1636poe     o2 6665   5.265  -0.058   5.715  0.0040  0.3854 -0.0815
 1636poe    c23 6666   5.394  -0.025   5.762  0.1617 -0.1379 -0.1475
 1636poe    c23 6667   5.487  -0.104   5.668  0.0412  0.0109 -0.3899
 1636poe     o2 6668   5.464  -0.065   5.534 -0.2173  0.3455 -0.2509
 1636poe    c23 6669   5.559  -0.127   5.451 -0.1929  0.1309 -0.0652
 1636poe    c23 6670   5.561  -0.062   5.311 -0.2937  0.0203 -0.1185
 1636poe     o2 6671   5.555   0.079   5.306  0.6644  0.0932  0.4488
 1636poe    c31 6672   5.583   0.131   5.178 -0.4630 -0.0158  0.1451
 1637poe    c31 6673   4.831   4.461   0.077 -0.2442 -0.5453  0.0566
 1637poe     o2 6674   4.703   4.401   0.077 -0.4743 -0.0611 -0.2292
 1637poe    c23 6675   4.694   4.294   0.168 -0.2848  0.0212 -0.1131
 1637poe    c23 6676   4.589   4.190   0.126 -0.4283  0.0831  0.0941
 1637poe     o2 6677   4.462   4.248   0.106 -0.5275 -0.1876 -0.0636
 1637poe    c23 6678   4.354   4.164   0.141 -0.6906  0.2384  0.4596
 1637poe    c23 6679   4.243   4.200   0.040 -0.3002  0.1109 -0.0216
 1637poe     o2 6680   4.231   4.340   0.046 -0.0900  0.1473 -0.4434
 1637poe    c23 6681   4.122   4.377  -0.034 -0.1321  0.2468 -0.3398
 1637poe    c23 6682   4.123   4.531  -0.030  0.1147  0.2360  0.0479
 1637poe     o2 6683   4.234   4.586  -0.098  0.1823  0.2075  0.1347
 1637poe    c31 6684   4.234   4.727  -0.099 -0.3586  0.2095  0.0099
 1638poe    c31 6685   5.160   5.200   2.107 -0.8099  0.3136 -0.0867
 1638poe     o2 6686   5.162   5.217   2.247 -0.3065  0.3616 -0.0968
 1638poe    c23 6687   5.039   5.273   2.286 -0.1778  0.6968 -0.1730
 1638poe    c23 6688   5.063   5.317   2.432  0.2085 -0.3100  0.0695
 1638poe     o2 6689   5.125   5.213   2.506  0.1308 -0.4366 -0.0434
 1638poe    c23 6690   5.157   5.255   2.636  0.3916 -0.2607 -0.1619
 1638poe    c23 6691   5.206   5.120   2.691  0.2459 -0.2275  0.0521
 1638poe     o2 6692   5.307   5.074   2.604  0.2343 -0.1146 -0.0207
 1638poe    c23 6693   5.366   4.953   2.647 -0.1890 -0.3286 -0.0308
 1638poe    c23 6694   5.485   4.914   2.558  0.1691  0.1047  0.2544
 1638poe     o2 6695   5.587   5.011   2.550  0.7990 -0.5369  0.4058
 1638poe    c31 6696   5.663   5.004   2.431 -0.0267  0.6483 -0.2009
 1639poe    c31 6697   2.742   6.496   1.450 -0.5809  0.2128  0.1795
 1639poe     o2 6698   2.797   6.619   1.408  0.2532 -0.1864  0.0851
 1639poe    c23 6699   2.720   6.679   1.307  0.1001 -0.0736  0.2665
 1639poe    c23 6700   2.764   6.825   1.286  0.1245 -0.0411  0.5414
 1639poe     o2 6701   2.882   6.840   1.210 -0.4054  0.1806 -0.2537
 1639poe    c23 6702   2.932   6.971   1.227 -0.3217  0.1028  0.1188
 1639poe    c23 6703   3.071   6.965   1.162 -0.1908  0.1573  0.3928
 1639poe     o2 6704   3.157   6.870   1.220 -0.3250 -0.4102 -0.3170
 1639poe    c23 6705   3.282   6.867   1.156 -0.1978 -0.1922 -0.0811
 1639poe    c23 6706   3.367   6.758   1.224 -0.1727  0.3730  0.8104
 1639poe     o2 6707   3.277   6.650   1.225  0.1010  0.1347  0.1962
 1639poe    c31 6708   3.316   6.546   1.311  0.5565  0.5301  0.4693
 1640poe    c31 6709   2.224   5.771   3.654 -0.3383  0.2959 -0.0834
 1640poe     o2 6710   2.181   5.731   3.526  0.4032  0.0930 -0.2777
 1640poe    c23 6711   2.234   5.821   3.431  0.0289  0.1461 -0.4390
 1640poe    c23 6712   2.209   5.772   3.287  0.2850 -0.1715 -0.3766
 1640poe     o2 6713   2.245   5.636   3.284 -0.3176 -0.3375 -0.1735
 1640poe    c23 6714   2.238   5.581   3.155  0.3490 -0.4135 -0.1791
 1640poe    c23 6715   2.270   5.430   3.153  0.7224 -0.3390 -0.0046
 1640poe     o2 6716   2.177   5.370   3.239  0.1263  0.0721 -0.3527
 1640poe    c23 6717   2.193   5.230   3.244 -0.0767  0.0502 -0.3013
 1640poe    c23 6718   2.086   5.175   3.341 -0.0248 -0.1021 -0.3287
 1640poe     o2 6719   2.106   5.198   3.478  0.3034  0.2294 -0.4302
 1640poe    c31 6720   2.004   5.131   3.548  0.5308  0.3362  0.0118
 1641poe    c31 6721   1.120   2.056   6.393  0.0181 -0.0674  0.2339
 1641poe     o2 6722   1.255   2.069   6.355  0.0047 -0.0941  0.1778
 1641poe    c23 6723   1.276   2.154   6.244 -0.2251 -0.4767 -0.1650
 1641poe    c23 6724   1.417   2.127   6.187 -0.0188 -0.0036  0.1080
 1641poe     o2 6725   1.507   2.157   6.291  0.3511  0.4705 -0.3505
 1641poe    c23 6726   1.630   2.096   6.259  0.3304  0.6682 -0.8126
 1641poe    c23 6727   1.720   2.101   6.384 -0.7687  0.0868  0.0102
 1641poe     o2 6728   1.646   2.065   6.499 -0.1789 -0.2434  0.2887
 1641poe    c23 6729   1.744   2.038   6.597 -0.0444  0.1808  0.2720
 1641poe    c23 6730   1.677   2.016   6.734 -0.2392 -0.3264  0.0998
 1641poe     o2 6731   1.595   2.126   6.764 -0.1261 -0.2660  0.1918
 1641poe    c31 6732   1.565   2.141   6.901 -0.9153  0.5415 -0.0607
 1642poe    c31 6733   1.351   0.921   1.364  0.1824 -0.0975 -0.2283
 1642poe     o2 6734   1.355   0.997   1.245 -0.1175  0.2900  0.0077
 1642poe    c23 6735   1.241   0.979   1.165  0.0135 -0.4491 -0.0239
 1642poe    c23 6736   1.259   1.086   1.055 -0.1314 -0.0709  0.3156
 1642poe     o2 6737   1.386   1.078   0.994 -0.4718  0.0777 -0.4289
 1642poe    c23 6738   1.406   1.002   0.877  0.2318 -0.6304  0.1329
 1642poe    c23 6739   1.556   0.987   0.846  0.3688 -0.0099  0.4723
 1642poe     o2 6740   1.605   1.115   0.882  0.4728  0.1216 -0.1143
 1642poe    c23 6741   1.742   1.125   0.852  0.4403  0.4214 -0.1597
 1642poe    c23 6742   1.792   1.260   0.908 -0.0131  0.5751 -0.1160
 1642poe     o2 6743   1.714   1.309   1.014 -0.5224  0.1537 -0.2920
 1642poe    c31 6744   1.754   1.437   1.057 -0.1716 -0.2549  0.6373
 1643poe    c31 6745   3.704   6.162   4.088  0.0595  0.3279  0.3523
 1643poe     o2 6746   3.795   6.141   3.983 -0.4802  0.0545 -0.0668
 1643poe    c23 6747   3.927   6.158   4.031 -0.3691  0.2185 -0.4246
 1643poe    c23 6748   4.034   6.184   3.923  0.3781  0.3504  0.3418
 1643poe     o2 6749   4.040   6.312   3.864  0.4075  0.0189 -0.3854
 1643poe    c23 6750   3.937   6.339   3.772  0.3295 -0.4076 -0.4250
 1643poe    c23 6751   3.976   6.472   3.705 -0.7496  0.0607 -0.1402
 1643poe     o2 6752   3.957   6.577   3.797 -0.1396  0.0220  0.0357
 1643poe    c23 6753   3.948   6.702   3.732  1.2717  0.0449 -0.1502
 1643poe    c23 6754   3.923   6.812   3.837 -0.9653 -0.4234 -0.1499
 1643poe     o2 6755   3.840   6.786   3.948  0.2480 -0.0258  0.8701
 1643poe    c31 6756   3.778   6.907   3.984 -0.3768 -0.1800  0.3327
 1644poe    c31 6757   5.625   2.174   4.077 -0.2497 -0.1554 -0.1688
 1644poe     o2 6758   5.551   2.275   4.011 -0.5215  0.0750  0.4835
 1644poe    c23 6759   5.629   2.390   4.031 -0.0594  0.0225 -0.9373
 1644poe    c23 6760   5.571   2.512   3.956 -0.6217  0.2648 -0.1204
 1644poe     o2 6761   5.568   2.490   3.817 -0.2483 -0.1351 -0.0681
 1644poe    c23 6762   5.498   2.590   3.747 -0.1177  0.0889  0.1230
 1644poe    c23 6763   5.504   2.578   3.594  0.2727 -0.0708  0.1500
 1644poe     o2 6764   5.470   2.448   3.552  0.0189  0.1160 -0.2255
 1644poe    c23 6765   5.456   2.424   3.413  0.1006  0.0077 -0.2145
 1644poe    c23 6766   5.392   2.286   3.391  0.0181  0.0187 -0.0543
 1644poe     o2 6767   5.462   2.194   3.472  0.1168 -0.0903 -0.2597
 1644poe    c31 6768   5.401   2.067   3.467 -0.3087  0.1305 -0.7154
 1645poe    c31 6769   1.745   5.365   6.622  0.0535 -0.0122 -0.3955
 1645poe     o2 6770   1.738   5.235   6.675 -0.9274 -0.0394 -0.5573
 1645poe    c23 6771   1.825   5.152   6.602  0.0718  0.4161  0.0875
 1645poe    c23 6772   1.799   5.002   6.628  0.0858  0.4139  0.0899
 1645poe     o2 6773   1.666   4.959   6.608  0.3945 -0.5644  0.0770
 1645poe    c23 6774   1.642   4.927   6.473  0.1065  0.0779 -0.0282
 1645poe    c23 6775   1.493   4.897   6.447 -0.0724 -0.0147  1.0497
 1645poe     o2 6776   1.435   4.773   6.481  0.4368 -0.4515  0.3492
 1645poe    c23 6777   1.297   4.798   6.463  0.4207 -0.4760  0.4380
 1645poe    c23 6778   1.214   4.674   6.502 -0.5223  0.1002  0.2747
 1645poe     o2 6779   1.199   4.651   6.640 -0.7394  0.3349  0.2924
 1645poe    c31 6780   1.099   4.557   6.672 -0.3712 -0.1141  0.1340
 1646poe    c31 6781   3.500   6.513   5.682 -0.2402 -0.3630  0.4264
 1646poe     o2 6782   3.441   6.405   5.612 -0.1125 -0.0418 -0.1798
 1646poe    c23 6783   3.449   6.434   5.475 -0.0140 -0.0048 -0.1671
 1646poe    c23 6784   3.469   6.297   5.408  0.4734 -0.3357  0.6537
 1646poe     o2 6785   3.383   6.213   5.481 -0.0143 -0.1049  0.3459
 1646poe    c23 6786   3.378   6.089   5.412 -0.4375 -0.1551  0.4638
 1646poe    c23 6787   3.275   6.005   5.489 -0.7252 -0.3446 -0.1220
 1646poe     o2 6788   3.305   5.989   5.626  0.3816  0.0341 -0.3048
 1646poe    c23 6789   3.268   5.863   5.680 -0.0119  0.4517  0.4137
 1646poe    c23 6790   3.325   5.811   5.813  0.2253 -0.1754  0.0671
 1646poe     o2 6791   3.457   5.760   5.809  0.3214  0.0739  0.0170
 1646poe    c31 6792   3.484   5.655   5.899 -0.4534 -0.2480 -0.1127
 1647poe    c31 6793   1.402   3.641   1.361  0.1054  0.1671 -0.1641
 1647poe     o2 6794   1.360   3.769   1.321  0.0970  0.2368  0.0634
 1647poe    c23 6795   1.418   3.798   1.196 -0.4458 -0.6185 -0.3949
 1647poe    c23 6796   1.336   3.902   1.117 -0.0464  0.1793  0.2272
 1647poe     o2 6797   1.315   4.022   1.187 -0.6908 -0.0328  0.4012
 1647poe    c23 6798   1.387   4.123   1.120 -0.9106 -0.0031  0.2087
 1647poe    c23 6799   1.409   4.246   1.211  0.3767 -0.3051  0.3179
 1647poe     o2 6800   1.294   4.252   1.292  0.2386  0.0402  0.0979
 1647poe    c23 6801   1.251   4.376   1.341 -0.0429 -0.1091  0.2300
 1647poe    c23 6802   1.175   4.345   1.471 -0.3766 -0.0343  0.0536
 1647poe     o2 6803   1.076   4.244   1.462 -0.1175 -0.3168  0.3376
 1647poe    c31 6804   0.990   4.245   1.573 -0.5717 -0.5209 -0.0111
 1648poe    c31 6805   0.813   2.702   1.385  0.1828  0.0716 -0.0200
 1648poe     o2 6806   0.701   2.787   1.376  0.0601 -0.0125  0.6262
 1648poe    c23 6807   0.583   2.726   1.329  0.2005  0.1110  0.0996
 1648poe    c23 6808   0.461   2.817   1.354  0.1460  0.0737 -0.0322
 1648poe     o2 6809   0.445   2.849   1.490 -0.2631 -0.1019 -0.0378
 1648poe    c23 6810   0.368   2.966   1.479  0.2153  0.2052 -0.1774
 1648poe    c23 6811   0.334   3.015   1.621 -0.0435  0.0748 -0.1935
 1648poe     o2 6812   0.430   2.975   1.716 -0.3072 -0.4525 -0.1410
 1648poe    c23 6813   0.410   3.035   1.842 -0.1897 -0.4176 -0.1383
 1648poe    c23 6814   0.493   2.967   1.953 -0.0384 -0.3778 -0.2265
 1648poe     o2 6815   0.473   2.828   1.966  0.4343 -0.4098  0.1924
 1648poe    c31 6816   0.548   2.792   2.080  0.3148 -0.4244  0.2670
 1649poe    c31 6817   5.411   0.566   4.116 -0.0825 -0.2077 -0.3654
 1649poe     o2 6818   5.490   0.567   4.233  0.4470 -0.1716 -0.7214
 1649poe    c23 6819   5.471   0.455   4.316 -0.4778  0.5621  0.0834
 1649poe    c23 6820   5.581   0.436   4.422 -0.4380  0.8467  0.0946
 1649poe     o2 6821   5.587   0.531   4.526  0.6644  0.6544  0.2206
 1649poe    c23 6822   5.669   0.643   4.502  0.1694  1.0343  0.2795
 1649poe    c23 6823   5.749   0.681   4.628  0.3665 -0.3327  0.5822
 1649poe     o2 6824   5.666   0.723   4.734 -0.2543  0.1570 -0.0861
 1649poe    c23 6825   5.754   0.786   4.824 -0.0469 -0.2641  0.0075
 1649poe    c23 6826   5.670   0.845   4.939 -0.1601 -0.2180 -0.0990
 1649poe     o2 6827   5.593   0.747   5.004 -0.4821  0.0140 -0.1289
 1649poe    c31 6828   5.626   0.763   5.140 -0.2307 -0.9606 -0.0664
 1650poe    c31 6829   2.960   1.333   0.102  0.0463  0.0850 -0.4202
 1650poe     o2 6830   3.099   1.329   0.077  0.1685  0.1489  0.2188
 1650poe    c23 6831   3.148   1.216   0.008  0.1738  0.3078 -0.0381
 1650poe    c23 6832   3.299   1.233  -0.019  0.0589  0.6330 -0.4822
 1650poe     o2 6833   3.388   1.221   0.089 -0.1520 -0.3746 -0.4098
 1650poe    c23 6834   3.515   1.226   0.028  0.1289  0.3651  0.2210
 1650poe    c23 6835   3.612   1.156   0.125 -0.3386 -0.5279  0.0567
 1650poe     o2 6836   3.598   1.215   0.252  0.1923  0.4258 -0.3176
 1650poe    c23 6837   3.709   1.181   0.332  0.0280  0.1271 -0.2155
 1650poe    c23 6838   3.678   1.257   0.462  0.2426 -0.6038  0.2683
 1650poe     o2 6839   3.542   1.245   0.500  0.3642 -0.0480  0.8759
 1650poe    c31 6840   3.528   1.296   0.631 -0.4425  0.6135  0.5432
 1651poe    c31 6841   6.946   3.843   4.854  0.0070  0.1374  0.4013
 1651poe     o2 6842   6.823   3.779   4.830  0.2128 -0.0283 -0.2190
 1651poe    c23 6843   6.812   3.642   4.864  0.1466  0.0462  0.0642
 1651poe    c23 6844   6.679   3.597   4.802  0.0943  0.1795  0.0775
 1651poe     o2 6845   6.583   3.697   4.830 -0.4106 -0.2682 -0.0298
 1651poe    c23 6846   6.457   3.649   4.788 -0.4460 -0.1414 -0.0652
 1651poe    c23 6847   6.362   3.738   4.871  0.0469  0.0837  0.2609
 1651poe     o2 6848   6.382   3.873   4.835  0.4074 -0.0283  0.0404
 1651poe    c23 6849   6.284   3.955   4.894 -0.2728 -0.2004 -0.8244
 1651poe    c23 6850   6.327   4.102   4.914 -0.4998 -0.2075 -0.2568
 1651poe     o2 6851   6.343   4.187   4.803 -0.2922  0.4293  0.2556
 1651poe    c31 6852   6.322   4.324   4.828  0.3578  0.6443 -0.3429
 1652poe    c31 6853   6.672   4.183   2.870 -0.0240 -0.0295  0.2334
 1652poe     o2 6854   6.734   4.292   2.936  0.3975 -0.0989 -0.0458
 1652poe    c23 6855   6.829   4.260   3.035  0.2508 -0.6085 -0.0661
 1652poe    c23 6856   6.901   4.388   3.081 -0.4830 -0.1718 -0.1057
 1652poe     o2 6857   6.811   4.482   3.133 -0.6673 -0.2813 -0.2264
 1652poe    c23 6858   6.840   4.523   3.265  0.2498 -0.8177 -0.2532
 1652poe    c23 6859   6.703   4.585   3.302  0.2878 -0.6878 -0.3304
 1652poe     o2 6860   6.662   4.680   3.207  0.2557  0.5270  0.8735
 1652poe    c23 6861   6.529   4.726   3.226  0.1170  0.6220 -0.2498
 1652poe    c23 6862   6.526   4.839   3.122 -0.5691  0.5378 -0.3262
 1652poe     o2 6863   6.565   4.781   3.000  0.1034 -0.1371  0.1948
 1652poe    c31 6864   6.564   4.893   2.914 -0.4620 -0.1376  0.1947
 1653poe    c31 6865   0.305   0.631   1.307  0.1755  0.2275 -0.9542
 1653poe     o2 6866   0.440   0.628   1.268  0.3626 -0.2953 -0.2782
 1653poe    c23 6867   0.526   0.640   1.379  0.4828 -0.0282 -0.3982
 1653poe    c23 6868   0.675   0.620   1.349  0.3989 -0.0985 -0.7656
 1653poe     o2 6869   0.697   0.499   1.280  0.6367 -0.3032 -0.3287
 1653poe    c23 6870   0.782   0.408   1.347 -0.0817 -0.1072  0.8714
 1653poe    c23 6871   0.761   0.268   1.286  0.7179  0.0468  0.2361
 1653poe     o2 6872   0.763   0.286   1.146 -0.0769 -0.3660  0.1682
 1653poe    c23 6873   0.760   0.165   1.073 -0.5099 -0.3628  0.1738
 1653poe    c23 6874   0.765   0.208   0.926  0.3427 -0.4429  0.1716
 1653poe     o2 6875   0.667   0.307   0.905  0.3588 -0.5636 -0.4933
 1653poe    c31 6876   0.686   0.355   0.773  0.7189  0.5704 -0.0393
 1654poe    c31 6877   6.092   3.481   3.337  0.2369 -0.9963 -0.8912
 1654poe     o2 6878   5.976   3.434   3.272 -0.1484 -1.0462 -0.1860
 1654poe    c23 6879   5.982   3.474   3.137 -0.0947 -0.2387  0.0514
 1654poe    c23 6880   5.874   3.438   3.033  0.2646  0.2852 -0.5119
 1654poe     o2 6881   5.748   3.494   3.063  0.2878  0.0061  0.1253
 1654poe    c23 6882   5.659   3.441   2.967  0.2162  0.3923 -0.0211
 1654poe    c23 6883   5.522   3.504   2.998 -0.1578 -0.3800 -0.0784
 1654poe     o2 6884   5.507   3.492   3.138  0.2894  0.4865  0.0542
 1654poe    c23 6885   5.375   3.524   3.177  0.1790 -0.5712  0.5732
 1654poe    c23 6886   5.364   3.477   3.323 -0.5482  0.0134  0.7090
 1654poe     o2 6887   5.478   3.526   3.389 -0.2185  0.3989 -0.1365
 1654poe    c31 6888   5.452   3.508   3.527  0.0569  0.0685 -0.1269
 1655poe    c31 6889   3.868   6.788   0.564  0.0807 -0.0097 -0.0734
 1655poe     o2 6890   3.968   6.856   0.637 -0.2005  0.3448 -0.0175
 1655poe    c23 6891   3.991   6.976   0.566  0.4336  0.1570 -0.1369
 1655poe    c23 6892   4.140   7.000   0.599  0.3710 -0.0080  0.2748
 1655poe     o2 6893   4.164   6.958   0.731  0.0007  0.3437  0.4562
 1655poe    c23 6894   4.286   7.006   0.784  0.4851 -0.2619 -0.0924
 1655poe    c23 6895   4.260   6.984   0.934 -0.6594 -0.1546 -0.2619
 1655poe     o2 6896   4.179   6.873   0.963 -0.0620 -0.5261  0.0116
 1655poe    c23 6897   4.208   6.829   1.094  0.5105 -0.1392  0.0181
 1655poe    c23 6898   4.104   6.729   1.149 -0.0550  0.3827 -0.0838
 1655poe     o2 6899   4.121   6.597   1.101  0.2276  0.2245  0.4401
 1655poe    c31 6900   4.010   6.521   1.144 -0.5011  1.0534  0.0613
 1656poe    c31 6901   1.750   5.470   6.035 -0.2027  0.6364 -0.0229
 1656poe     o2 6902   1.633   5.415   6.091  0.3570 -0.1126  0.4287
 1656poe    c23 6903   1.670   5.369   6.219  0.4153 -0.1709  0.3913
 1656poe    c23 6904   1.549   5.322   6.302  0.2240  0.0631  0.2466
 1656poe     o2 6905   1.459   5.424   6.338 -0.0972 -0.1553  0.0646
 1656poe    c23 6906   1.346   5.368   6.401  0.0994 -0.4160  0.1844
 1656poe    c23 6907   1.251   5.481   6.444  0.6791  0.1953 -0.1333
 1656poe     o2 6908   1.245   5.565   6.331  0.1727 -0.4814 -0.6146
 1656poe    c23 6909   1.168   5.683   6.347  0.0407 -0.6326 -0.1294
 1656poe    c23 6910   1.153   5.743   6.206  0.7214  0.8346  0.3988
 1656poe     o2 6911   1.280   5.740   6.145  0.1439 -0.5316 -0.8055
 1656poe    c31 6912   1.288   5.831   6.038 -0.4299  0.2184 -0.2286
 1657poe    c31 6913   0.213   6.787   1.828  0.6452 -0.4656 -0.0050
 1657poe     o2 6914   0.175   6.841   1.953  0.5793 -0.2020 -0.1378
 1657poe    c23 6915   0.289   6.892   2.017  0.5436  0.0163 -0.2459
 1657poe    c23 6916   0.223   6.956   2.141 -0.6890 -0.6911 -0.5188
 1657poe     o2 6917   0.121   7.035   2.086 -0.4340 -0.0397 -0.0630
 1657poe    c23 6918   0.081   7.134   2.178  0.1290  0.0678  0.0718
 1657poe    c23 6919  -0.041   7.210   2.122  0.0093 -0.2695 -0.1287
 1657poe     o2 6920  -0.151   7.131   2.084 -0.1921 -0.2462  0.3949
 1657poe    c23 6921  -0.257   7.209   2.033 -0.2029 -0.2372  0.4318
 1657poe    c23 6922  -0.373   7.117   1.991 -0.1744 -0.2584  0.3994
 1657poe     o2 6923  -0.354   7.060   1.864  0.0750  0.1863  0.2385
 1657poe    c31 6924  -0.478   7.038   1.802  0.1687  0.2669  0.0197
 1658poe    c31 6925   4.367   3.260   6.209 -0.5915  0.0265  0.5277
 1658poe     o2 6926   4.405   3.167   6.110  0.4557  0.2226  0.7343
 1658poe    c23 6927   4.542   3.184   6.079  0.2662  0.3669 -0.0429
 1658poe    c23 6928   4.555   3.047   6.009  0.0182  0.2971  0.0464
 1658poe     o2 6929   4.448   3.031   5.919 -0.0688 -0.1973  0.2322
 1658poe    c23 6930   4.429   2.900   5.870 -0.0960 -0.1809  0.1985
 1658poe    c23 6931   4.308   2.910   5.775 -0.2024 -0.0769  0.3431
 1658poe     o2 6932   4.206   2.988   5.832 -0.5513 -0.3284  0.0673
 1658poe    c23 6933   4.115   3.009   5.726 -0.2155 -0.0809 -0.1744
 1658poe    c23 6934   3.980   3.076   5.758 -0.1987 -0.0928 -0.0778
 1658poe     o2 6935   3.996   3.211   5.794  0.0441 -0.2338  0.3434
 1658poe    c31 6936   3.873   3.266   5.834  0.0004 -0.1483  0.0890
 1659poe    c31 6937   6.347   5.904   0.559 -0.1651  0.5417 -0.2835
 1659poe     o2 6938   6.429   6.014   0.591  0.1089  0.1122  0.5099
 1659poe    c23 6939   6.353   6.084   0.687 -0.0775 -0.0878  0.5072
 1659poe    c23 6940   6.449   6.179   0.760  0.4965 -0.4880  0.2782
 1659poe     o2 6941   6.567   6.126   0.817  0.5585 -0.2821  0.3391
 1659poe    c23 6942   6.661   6.227   0.847 -0.3416  0.5028  0.5890
 1659poe    c23 6943   6.805   6.173   0.840 -0.7731 -0.6228  0.2602
 1659poe     o2 6944   6.816   6.093   0.724  0.1585  0.4082 -0.3748
 1659poe    c23 6945   6.938   6.022   0.725  0.1487  0.3967  0.0165
 1659poe    c23 6946   6.944   5.941   0.594  0.4088  0.0986  0.2118
 1659poe     o2 6947   6.821   5.872   0.598  0.5199 -0.0876  0.4425
 1659poe    c31 6948   6.818   5.773   0.497  0.3374 -0.1139  0.4731
 1660poe    c31 6949   2.691   4.470   4.953 -0.2481  0.3734  0.6459
 1660poe     o2 6950   2.655   4.605   4.968  0.0689  0.5154  0.1718
 1660poe    c23 6951   2.540   4.615   5.049 -0.4528 -0.5767 -0.4159
 1660poe    c23 6952   2.539   4.760   5.101  0.6948 -0.5479 -0.4456
 1660poe     o2 6953   2.533   4.840   4.986 -0.0415 -0.2751 -0.2210
 1660poe    c23 6954   2.443   4.943   5.024 -0.2793 -0.3802 -0.4974
 1660poe    c23 6955   2.442   5.028   4.896 -0.1722  0.6917  0.2061
 1660poe     o2 6956   2.396   4.964   4.779  0.0467  0.5788  0.1808
 1660poe    c23 6957   2.413   5.045   4.664  0.0634 -0.2294 -0.3904
 1660poe    c23 6958   2.363   4.966   4.541 -0.8144 -0.3190  0.0127
 1660poe     o2 6959   2.434   4.845   4.532 -0.3995 -0.0894  0.1608
 1660poe    c31 6960   2.412   4.776   4.411 -0.5555 -0.4137  0.3716
 1661poe    c31 6961   2.358   3.673   3.871  0.7592 -0.4325 -1.1178
 1661poe     o2 6962   2.468   3.731   3.937 -0.0008 -0.0708 -0.1465
 1661poe    c23 6963   2.465   3.710   4.076  0.5923  0.1726 -0.0952
 1661poe    c23 6964   2.596   3.757   4.142  0.2726 -0.0664  0.7323
 1661poe     o2 6965   2.633   3.875   4.074 -0.2090  0.1078  0.7719
 1661poe    c23 6966   2.750   3.918   4.139  0.3827 -0.1962 -0.0651
 1661poe    c23 6967   2.807   4.043   4.070 -0.9283  0.0791 -0.6874
 1661poe     o2 6968   2.849   4.011   3.939 -0.0764  0.2254 -0.4579
 1661poe    c23 6969   2.955   4.080   3.876  0.0645  0.2638 -0.1811
 1661poe    c23 6970   2.995   4.035   3.734  0.1119 -0.6778  0.1286
 1661poe     o2 6971   2.902   4.053   3.631  0.3545 -0.2387 -0.0141
 1661poe    c31 6972   2.916   3.972   3.517  0.4047 -0.2415 -0.0058
 1662poe    c31 6973   5.793   3.856   5.731  0.3510  0.0373  0.2294
 1662poe     o2 6974   5.696   3.782   5.801  0.0184  0.4386  0.1956
 1662poe    c23 6975   5.690   3.808   5.939  0.7594  0.1322  0.2867
 1662poe    c23 6976   5.790   3.714   6.010  0.4319 -0.1901  0.3214
 1662poe     o2 6977   5.764   3.577   6.029  0.0817 -0.1856 -0.1035
 1662poe    c23 6978   5.644   3.521   6.077  0.0891  0.3235  0.5093
 1662poe    c23 6979   5.600   3.562   6.219 -0.1711 -0.2799  0.6025
 1662poe     o2 6980   5.546   3.692   6.209  0.0167 -0.2331  0.1980
 1662poe    c23 6981   5.461   3.735   6.312 -0.3330 -0.2395 -0.0861
 1662poe    c23 6982   5.467   3.889   6.315  0.2862 -0.2634  0.1190
 1662poe     o2 6983   5.579   3.936   6.386  0.4896 -0.2549 -0.2028
 1662poe    c31 6984   5.610   4.069   6.352 -0.0149 -0.1647 -0.3249
 1663poe    c31 6985   2.512   5.333   5.186 -0.5114  0.1119 -0.8186
 1663poe     o2 6986   2.477   5.330   5.323  0.3908 -0.0056 -0.5841
 1663poe    c23 6987   2.364   5.247   5.341  0.1719  0.3776 -0.1753
 1663poe    c23 6988   2.354   5.241   5.495 -1.0234  0.5345 -0.2421
 1663poe     o2 6989   2.363   5.374   5.542  1.2080  0.0682  0.7553
 1663poe    c23 6990   2.304   5.377   5.670  0.3485 -0.0579  0.3670
 1663poe    c23 6991   2.318   5.520   5.727 -0.5220  0.3592 -0.4311
 1663poe     o2 6992   2.456   5.546   5.732 -0.4815  0.1998 -0.7479
 1663poe    c23 6993   2.465   5.675   5.787 -0.3309 -0.1471  0.0442
 1663poe    c23 6994   2.610   5.723   5.765 -0.3051 -0.1818  0.1390
 1663poe     o2 6995   2.668   5.722   5.637 -0.2004 -0.2571  0.1859
 1663poe    c31 6996   2.777   5.810   5.619 -0.0582 -0.5840 -0.6137
 1664poe    c31 6997   5.125   5.689   0.068 -0.1399 -0.3987 -0.4015
 1664poe     o2 6998   5.100   5.712   0.204  0.0184 -0.3567 -0.3805
 1664poe    c23 6999   4.997   5.631   0.256 -0.2804 -0.1015 -0.5736
 1664poe    c23 7000   4.931   5.713   0.369 -0.0042  0.0038 -0.4869
 1664poe     o2 7001   5.026   5.750   0.466 -0.5167 -0.1651  0.0831
 1664poe    c23 7002   4.979   5.859   0.543 -0.4827 -0.2835  0.2731
 1664poe    c23 7003   5.098   5.916   0.621 -0.3688 -0.0341 -0.0814
 1664poe     o2 7004   5.189   5.989   0.541 -0.2904 -0.1335 -0.0838
 1664poe    c23 7005   5.277   6.071   0.614 -0.2226 -0.3645  0.0928
 1664poe    c23 7006   5.412   6.008   0.653  0.0994 -0.1382 -0.6407
 1664poe     o2 7007   5.477   5.971   0.534  0.3011 -0.5309 -0.4100
 1664poe    c31 7008   5.608   5.927   0.566  0.5092  0.2726 -0.1340
 1665poe    c31 7009   0.766   2.064   0.043  0.4698 -0.6065 -0.0815
 1665poe     o2 7010   0.776   2.081  -0.097 -0.5306  0.0777 -0.0735
 1665poe    c23 7011   0.777   2.215  -0.140 -0.5826 -0.0280 -0.4052
 1665poe    c23 7012   0.779   2.238  -0.293  0.0695  0.3372 -0.3484
 1665poe     o2 7013   0.689   2.140  -0.340  0.1789 -0.0036  0.1483
 1665poe    c23 7014   0.694   2.133  -0.481 -0.0505  0.0725  0.1360
 1665poe    c23 7015   0.589   2.032  -0.529 -0.1333  0.1196  0.2163
 1665poe     o2 7016   0.627   1.909  -0.471 -0.2472 -0.0314 -0.0274
 1665poe    c23 7017   0.568   1.801  -0.539 -0.2009  0.2082 -0.4550
 1665poe    c23 7018   0.545   1.688  -0.437  0.2227  0.3454 -0.2057
 1665poe     o2 7019   0.435   1.708  -0.351 -0.0525 -0.1923 -0.4261
 1665poe    c31 7020   0.434   1.600  -0.261 -0.0703  0.0699 -0.1129
 1666poe    c31 7021   1.487   3.152   3.480  0.3938 -0.5345  0.2164
 1666poe     o2 7022   1.409   3.042   3.438  0.1506 -0.2636 -0.0489
 1666poe    c23 7023   1.480   2.930   3.391  0.2715 -0.1735 -0.0802
 1666poe    c23 7024   1.563   2.845   3.488  0.3196  0.0335  0.0620
 1666poe     o2 7025   1.691   2.898   3.513  0.0550  0.6435  0.1299
 1666poe    c23 7026   1.762   2.803   3.590 -0.2157  1.0075  0.8408
 1666poe    c23 7027   1.912   2.837   3.591  0.0846 -0.2499  0.1798
 1666poe     o2 7028   1.936   2.952   3.669 -0.0794 -0.2604  0.2475
 1666poe    c23 7029   2.070   2.990   3.642 -0.1753  0.0380  0.1902
 1666poe    c23 7030   2.076   3.143   3.646  0.1554  0.0417 -0.3695
 1666poe     o2 7031   1.997   3.191   3.539 -0.1507  0.2156 -0.0676
 1666poe    c31 7032   2.022   3.323   3.495 -0.1195  0.2976  0.1903
 1667poe    c31 7033   0.642   1.949   3.673  0.5644 -0.3028  0.1379
 1667poe     o2 7034   0.572   1.863   3.586  0.0173  0.1055  0.1740
 1667poe    c23 7035   0.631   1.736   3.588 -0.1513  0.0238  0.0412
 1667poe    c23 7036   0.600   1.639   3.472  0.4376  0.0805 -0.1671
 1667poe     o2 7037   0.653   1.703   3.358  0.4340  0.3201 -0.0353
 1667poe    c23 7038   0.587   1.640   3.251 -0.0975  0.5183  0.1756
 1667poe    c23 7039   0.625   1.702   3.116  0.0187 -0.0610 -0.0581
 1667poe     o2 7040   0.611   1.841   3.133  0.5352  0.0062 -0.1493
 1667poe    c23 7041   0.603   1.921   3.017 -0.0547  0.0317 -0.0921
 1667poe    c23 7042   0.599   2.071   3.050 -0.2972  0.0096 -0.0144
 1667poe     o2 7043   0.712   2.108   3.127  0.0908 -0.0624 -0.5417
 1667poe    c31 7044   0.736   2.246   3.136 -0.3492 -0.0207  0.0597
 1668poe    c31 7045   1.119   2.937   5.831 -0.3548 -0.2756  0.1724
 1668poe     o2 7046   0.995   2.948   5.897 -0.4797 -0.4619 -0.0311
 1668poe    c23 7047   0.936   3.072   5.866 -0.3897 -0.4213 -0.0403
 1668poe    c23 7048   0.811   3.082   5.956 -0.1895  0.1689  0.1737
 1668poe     o2 7049   0.720   2.975   5.946  0.0151 -0.0476  0.5780
 1668poe    c23 7050   0.594   2.997   6.003 -0.0735 -0.4175  0.5243
 1668poe    c23 7051   0.540   2.856   6.035 -0.4755 -0.4861 -0.4180
 1668poe     o2 7052   0.569   2.775   5.923 -0.0543 -0.5991 -0.2319
 1668poe    c23 7053   0.523   2.643   5.939 -0.6922 -0.3492  0.0271
 1668poe    c23 7054   0.587   2.555   5.830  0.5205  0.5622 -0.0104
 1668poe     o2 7055   0.720   2.597   5.807  0.6889  0.0866  0.0903
 1668poe    c31 7056   0.769   2.535   5.691 -0.3474 -0.2381 -0.1856
 1669poe    c31 7057   1.826   3.543   1.668 -0.4806 -0.0036  0.0066
 1669poe     o2 7058   1.842   3.683   1.664  0.2722 -0.0856 -0.0671
 1669poe    c23 7059   1.977   3.694   1.703  0.1850  0.1001  0.1853
 1669poe    c23 7060   2.023   3.840   1.716 -0.2105  0.2471 -0.0582
 1669poe     o2 7061   1.997   3.892   1.588  0.2334 -0.1637 -0.3165
 1669poe    c23 7062   2.041   4.025   1.567  0.1333 -0.0592  0.1380
 1669poe    c23 7063   1.968   4.105   1.458  0.0848 -0.4710 -0.1334
 1669poe     o2 7064   1.985   4.043   1.332 -0.4566 -0.5269 -0.1832
 1669poe    c23 7065   1.912   4.115   1.236 -0.2222 -0.0518 -0.0091
 1669poe    c23 7066   1.927   4.024   1.113  0.4908  0.1148 -0.0473
 1669poe     o2 7067   1.898   3.893   1.154  0.1772  0.2650  0.2123
 1669poe    c31 7068   1.868   3.821   1.036  0.3666  0.2578  0.1695
 1670poe    c31 7069   2.244   4.343   2.233 -0.3182  0.3405 -0.0744
 1670poe     o2 7070   2.224   4.482   2.245  0.4735  0.4130  0.5725
 1670poe    c23 7071   2.155   4.540   2.136  0.0436 -0.4661  0.3733
 1670poe    c23 7072   2.079   4.665   2.182  0.1290 -0.1759 -0.2672
 1670poe     o2 7073   2.176   4.734   2.258 -0.4515 -0.3741  0.6768
 1670poe    c23 7074   2.131   4.860   2.303 -0.3156 -0.1329  0.1495
 1670poe    c23 7075   2.230   4.946   2.383 -0.2935 -0.2107  0.2052
 1670poe     o2 7076   2.360   4.931   2.331 -0.3724 -0.5648  0.1074
 1670poe    c23 7077   2.460   4.993   2.408 -0.2461 -0.5292 -0.0841
 1670poe    c23 7078   2.597   4.965   2.343 -0.1415  0.0409 -0.1100
 1670poe     o2 7079   2.645   4.834   2.360 -0.2266 -0.0383 -0.4773
 1670poe    c31 7080   2.766   4.814   2.292 -0.2889  0.0881 -0.6235
 1671poe    c31 7081   4.225   4.629   4.531  0.5179  0.6242 -0.3721
 1671poe     o2 7082   4.191   4.549   4.642  0.3787  0.4934 -0.5087
 1671poe    c23 7083   4.071   4.586   4.705  0.1721 -0.6748 -0.1858
 1671poe    c23 7084   4.038   4.494   4.824  0.6487 -0.6925 -0.0680
 1671poe     o2 7085   4.106   4.552   4.933 -0.0302  0.1999 -0.1153
 1671poe    c23 7086   4.082   4.487   5.056 -0.3577  0.2632 -0.1440
 1671poe    c23 7087   4.191   4.549   5.145 -0.0239  0.4389 -0.6684
 1671poe     o2 7088   4.322   4.549   5.093  0.1764  0.0131 -0.1834
 1671poe    c23 7089   4.408   4.600   5.192  0.2004  0.2258 -0.3146
 1671poe    c23 7090   4.556   4.609   5.150  0.2647 -0.0271 -0.1414
 1671poe     o2 7091   4.578   4.716   5.061  0.3314  0.0488 -0.0349
 1671poe    c31 7092   4.693   4.697   4.983  0.1181  0.1609 -0.3809
 1672poe    c31 7093   4.362   5.093   0.008 -0.3535  0.0985  0.0595
 1672poe     o2 7094   4.285   5.131  -0.105  0.1718  0.4710 -0.1787
 1672poe    c23 7095   4.379   5.175  -0.200 -0.0021  0.0483 -0.5470
 1672poe    c23 7096   4.346   5.094  -0.327 -0.4138 -0.9369  0.1755
 1672poe     o2 7097   4.208   5.118  -0.344 -0.1559  0.3006 -0.2844
 1672poe    c23 7098   4.149   5.018  -0.423  0.6561 -0.2095 -0.2531
 1672poe    c23 7099   4.002   5.029  -0.381  0.7914  0.7132 -0.0100
 1672poe     o2 7100   4.003   5.014  -0.241 -0.0066  0.0841 -0.0682
 1672poe    c23 7101   3.870   5.017  -0.193 -0.1780  0.7524 -0.5670
 1672poe    c23 7102   3.905   5.015  -0.043 -0.5021  0.2476 -0.4946
 1672poe     o2 7103   3.992   5.124  -0.025  0.2191 -0.2970 -0.6201
 1672poe    c31 7104   4.008   5.165   0.109  0.4103 -0.1709 -0.6801
 1673poe    c31 7105   0.283   4.098   6.262  0.3844  0.1072  0.5101
 1673poe     o2 7106   0.416   4.053   6.242  0.1600 -0.1723 -0.4235
 1673poe    c23 7107   0.502   4.096   6.346 -0.2902 -1.1147  0.3589
 1673poe    c23 7108   0.636   4.031   6.306  0.1524 -0.3582  0.6037
 1673poe     o2 7109   0.641   4.010   6.167  0.4772  0.8949  0.4193
 1673poe    c23 7110   0.758   3.944   6.123 -0.3975 -0.3742 -0.0188
 1673poe    c23 7111   0.761   3.943   5.969 -0.2836  0.1556 -0.0191
 1673poe     o2 7112   0.637   3.903   5.915 -0.2156  0.0246 -0.0765
 1673poe    c23 7113   0.655   3.884   5.776  0.7176  0.4358 -0.0173
 1673poe    c23 7114   0.520   3.880   5.703  0.2308 -0.0372  0.8952
 1673poe     o2 7115   0.449   4.001   5.689 -0.0039 -0.2954 -0.2398
 1673poe    c31 7116   0.326   3.987   5.621 -0.2850 -0.2589  0.2552
 1674poe    c31 7117   4.928   3.278   4.486 -0.1503 -0.4028 -0.0200
 1674poe     o2 7118   4.985   3.183   4.399 -0.2309 -0.1634 -0.3349
 1674poe    c23 7119   4.931   3.056   4.425 -0.0129 -0.0132  0.9164
 1674poe    c23 7120   4.991   2.956   4.324  0.2315  0.5797  0.4652
 1674poe     o2 7121   4.987   3.012   4.195 -0.2383 -0.6203 -0.0577
 1674poe    c23 7122   4.985   2.908   4.100 -0.3764 -0.9002  0.2532
 1674poe    c23 7123   4.951   2.965   3.962  0.3302 -0.1764  0.3734
 1674poe     o2 7124   5.035   3.061   3.902 -0.3508 -0.1095 -0.4995
 1674poe    c23 7125   5.151   3.006   3.843  0.1181 -0.4663  0.7233
 1674poe    c23 7126   5.248   3.124   3.829 -0.3858 -0.0302  0.8921
 1674poe     o2 7127   5.275   3.195   3.948 -0.2133  0.6787  0.4385
 1674poe    c31 7128   5.404   3.250   3.961  0.4198 -0.4656 -0.7372
 1675poe    c31 7129   6.027   4.872   3.869  0.4820 -0.3823 -0.1838
 1675poe     o2 7130   5.991   4.881   4.004 -0.2706  0.4730 -0.4369
 1675poe    c23 7131   6.024   5.008   4.057  0.2966  0.3233 -0.4274
 1675poe    c23 7132   5.980   5.041   4.201  0.2710  0.0288 -0.3670
 1675poe     o2 7133   6.040   4.964   4.303 -0.3603 -0.1173 -0.1008
 1675poe    c23 7134   6.044   5.016   4.434  0.6595  0.2166 -0.2545
 1675poe    c23 7135   6.150   4.937   4.512  0.2714 -0.3403 -0.2874
 1675poe     o2 7136   6.121   4.802   4.484 -0.1324 -0.3778  0.2981
 1675poe    c23 7137   6.163   4.734   4.600 -0.1114 -0.1699  0.4128
 1675poe    c23 7138   6.163   4.581   4.580 -0.5256 -0.1263  0.0414
 1675poe     o2 7139   6.264   4.562   4.483 -0.2788 -0.4971  0.3681
 1675poe    c31 7140   6.287   4.429   4.441  0.4663 -0.1655 -0.2849
 1676poe    c31 7141   2.975   0.771   5.447  0.1205 -0.1715  0.0613
 1676poe     o2 7142   3.024   0.901   5.422 -0.1167 -0.0848  0.0494
 1676poe    c23 7143   3.162   0.896   5.393 -0.1621  0.2384 -0.2377
 1676poe    c23 7144   3.213   0.985   5.279  0.5378  0.2910  0.1076
 1676poe     o2 7145   3.209   1.121   5.316 -0.5662  0.2605  0.1457
 1676poe    c23 7146   3.240   1.207   5.208  0.4120 -0.4521 -0.1578
 1676poe    c23 7147   3.220   1.355   5.245  0.1424 -0.3772 -0.5921
 1676poe     o2 7148   3.086   1.391   5.270  0.2972 -0.1392 -0.0836
 1676poe    c23 7149   3.064   1.506   5.348  0.3881 -0.1898  0.0183
 1676poe    c23 7150   2.913   1.537   5.360  0.3095 -0.5423 -0.0373
 1676poe     o2 7151   2.845   1.559   5.239  0.2527 -0.2242  0.0505
 1676poe    c31 7152   2.745   1.658   5.244  0.5511  0.1004 -0.2783
 1677poe    c31 7153   2.517   1.560   1.297  0.1056  0.0034 -0.5383
 1677poe     o2 7154   2.631   1.553   1.214  0.3511  0.1600 -0.2187
 1677poe    c23 7155   2.619   1.437   1.134  0.4145  0.5554 -0.8068
 1677poe    c23 7156   2.743   1.392   1.054  0.5162 -0.0439 -0.3238
 1677poe     o2 7157   2.773   1.480   0.947  0.1902  0.1715 -0.2404
 1677poe    c23 7158   2.909   1.487   0.913  0.0158 -0.7508 -1.1983
 1677poe    c23 7159   2.971   1.628   0.906 -0.9175 -0.2707 -0.1434
 1677poe     o2 7160   2.977   1.692   1.031 -0.0185 -0.0439 -0.2978
 1677poe    c23 7161   2.962   1.832   1.030 -0.0892 -0.0486 -0.0108
 1677poe    c23 7162   3.004   1.897   1.163  0.6694 -0.9742  0.2146
 1677poe     o2 7163   2.906   1.862   1.259 -0.2027  0.4154 -0.1359
 1677poe    c31 7164   2.926   1.939   1.375  0.1232 -0.0071  0.0943
 1678poe    c31 7165   1.973   1.779   4.112 -0.7622 -0.3566 -0.0549
 1678poe     o2 7166   1.916   1.792   4.241  0.4812  0.2554  0.4449
 1678poe    c23 7167   1.844   1.911   4.263 -0.5220 -0.1678 -0.4694
 1678poe    c23 7168   1.757   1.899   4.389  0.2768  0.4073  0.1530
 1678poe     o2 7169   1.835   1.832   4.485 -0.2489  0.0209  0.3165
 1678poe    c23 7170   1.776   1.837   4.613 -0.0810  0.3028  0.3829
 1678poe    c23 7171   1.848   1.759   4.725 -0.9682 -0.3582  0.5068
 1678poe     o2 7172   1.873   1.628   4.679  0.3881  0.0275  0.0797
 1678poe    c23 7173   1.814   1.526   4.757 -1.0237  0.5319 -0.2976
 1678poe    c23 7174   1.822   1.387   4.693  0.1052  0.3978  0.1160
 1678poe     o2 7175   1.750   1.382   4.571 -0.1324 -0.0537  0.2713
 1678poe    c31 7176   1.768   1.259   4.505 -0.0653  0.0698  0.0599
 1679poe    c31 7177   3.067   0.195   3.670 -0.4506 -0.5512 -0.1483
 1679poe     o2 7178   2.938   0.193   3.613 -0.2652 -0.4386 -0.5727
 1679poe    c23 7179   2.911   0.061   3.571  0.6999 -0.7296 -0.3174
 1679poe    c23 7180   2.800   0.067   3.465  0.0941  0.4241  0.3627
 1679poe     o2 7181   2.689   0.118   3.536  0.2662  0.4131  0.6402
 1679poe    c23 7182   2.576   0.130   3.453  0.2852 -0.2734  0.5041
 1679poe    c23 7183   2.452   0.182   3.528 -0.0502 -0.7172  0.2619
 1679poe     o2 7184   2.475   0.297   3.607 -0.2461 -0.1154 -0.5558
 1679poe    c23 7185   2.363   0.331   3.686 -0.1413 -0.2383 -0.3542
 1679poe    c23 7186   2.413   0.424   3.797  0.0734 -0.3269 -0.3761
 1679poe     o2 7187   2.515   0.500   3.737  0.4616 -0.2178  0.4042
 1679poe    c31 7188   2.561   0.603   3.822  0.4363 -0.1097  0.2878
 1680poe    c31 7189   1.449   1.000   6.405  0.1031 -0.0778 -0.0396
 1680poe     o2 7190   1.330   1.049   6.347 -0.0173  0.2909  0.5097
 1680poe    c23 7191   1.360   1.103   6.221 -0.3102 -0.1529  0.2480
 1680poe    c23 7192   1.255   1.199   6.162 -0.4690 -0.2990  0.2909
 1680poe     o2 7193   1.229   1.325   6.222  0.0326 -0.2674  0.4476
 1680poe    c23 7194   1.147   1.406   6.141 -0.0282 -0.3580  0.4174
 1680poe    c23 7195   1.038   1.474   6.226  0.0775  0.2959  0.0365
 1680poe     o2 7196   1.112   1.514   6.339  0.1265 -0.0116  0.1144
 1680poe    c23 7197   1.062   1.604   6.436 -0.4384  0.1013 -0.2778
 1680poe    c23 7198   1.183   1.629   6.527 -0.3052 -0.3853 -0.3198
 1680poe     o2 7199   1.262   1.518   6.562 -0.5581 -0.4731 -0.0295
 1680poe    c31 7200   1.337   1.559   6.674  0.0040 -0.0525 -0.5546
 1681poe    c31 7201   1.338   2.871   3.871 -0.0596  0.5962 -0.3080
 1681poe     o2 7202   1.268   2.894   3.991  0.4017 -0.1999  0.1151
 1681poe    c23 7203   1.290   3.026   4.035 -0.3573  0.0752 -0.3256
 1681poe    c23 7204   1.248   3.035   4.183  0.3633 -0.1467 -0.1066
 1681poe     o2 7205   1.345   2.963   4.256  0.5147  0.0072 -0.1550
 1681poe    c23 7206   1.326   2.992   4.393  0.3310  0.0125 -0.1809
 1681poe    c23 7207   1.208   2.912   4.450 -0.0649  0.3543 -0.5118
 1681poe     o2 7208   1.236   2.778   4.417  0.1760  0.2908 -0.0559
 1681poe    c23 7209   1.126   2.695   4.447  0.6789 -0.0838  0.7785
 1681poe    c23 7210   1.186   2.556   4.474 -0.1660 -0.4432  0.8446
 1681poe     o2 7211   1.277   2.538   4.368 -0.6504 -0.1367  0.3717
 1681poe    c31 7212   1.285   2.398   4.353 -0.4321 -0.0963  0.0954
 1682poe    c31 7213   1.077   1.489   0.238 -0.5440  0.1142 -0.5352
 1682poe     o2 7214   1.038   1.561   0.353  0.6567 -0.4425  0.2402
 1682poe    c23 7215   0.899   1.584   0.343  0.7745  0.0334 -0.3792
 1682poe    c23 7216   0.866   1.701   0.438  0.1914 -0.3999 -0.0409
 1682poe     o2 7217   0.913   1.820   0.379  0.1624 -0.1670  0.3995
 1682poe    c23 7218   0.867   1.928   0.456  0.0714  0.0228  0.0802
 1682poe    c23 7219   0.882   2.069   0.395 -0.1870  0.1929  0.4035
 1682poe     o2 7220   1.012   2.057   0.341 -0.2621  0.2947  0.1988
 1682poe    c23 7221   1.077   2.178   0.310 -0.0754  0.2537  0.4236
 1682poe    c23 7222   1.209   2.147   0.236 -0.0655  0.0855  0.5108
 1682poe     o2 7223   1.286   2.051   0.305  0.2357 -0.2986 -0.3399
 1682poe    c31 7224   1.416   2.040   0.253 -0.0421  0.1960 -1.1644
 1683poe    c31 7225   1.599   4.727   3.674  0.3673  0.0654 -0.1371
 1683poe     o2 7226   1.514   4.644   3.750  0.2013  0.1546 -0.2250
 1683poe    c23 7227   1.390   4.710   3.757  0.2016  0.1630 -0.2988
 1683poe    c23 7228   1.299   4.624   3.847  0.0503  0.4743 -0.1515
 1683poe     o2 7229   1.372   4.569   3.954  0.1357 -0.2541 -0.5709
 1683poe    c23 7230   1.296   4.483   4.035  0.3664  0.0123 -0.0577
 1683poe    c23 7231   1.380   4.397   4.131 -0.0681 -0.1434  0.1868
 1683poe     o2 7232   1.463   4.321   4.046 -0.3885  0.0500 -0.3078
 1683poe    c23 7233   1.517   4.207   4.110 -0.3450  0.3144  0.1282
 1683poe    c23 7234   1.575   4.111   4.005  0.5726 -0.0914  0.9887
 1683poe     o2 7235   1.663   4.161   3.908 -0.1388 -0.0313  0.3629
 1683poe    c31 7236   1.699   4.060   3.817  0.0263 -0.1989  0.6121
 1684poe    c31 7237   6.889   4.389   6.656 -0.0683 -0.2840 -0.2618
 1684poe     o2 7238   6.969   4.276   6.682  0.2253 -0.0428 -0.0987
 1684poe    c23 7239   6.928   4.198   6.792  0.1440  0.3196  0.1277
 1684poe    c23 7240   7.059   4.167   6.866  0.0340  0.2473  0.2928
 1684poe     o2 7241   7.146   4.106   6.773 -0.5364 -0.1153 -0.0070
 1684poe    c23 7242   7.253   4.044   6.841 -0.1615  0.1493 -0.3596
 1684poe    c23 7243   7.349   3.955   6.759 -0.1307 -0.5316  0.4107
 1684poe     o2 7244   7.302   3.828   6.720 -0.2485 -0.1420 -0.7384
 1684poe    c23 7245   7.401   3.768   6.639  0.3585 -0.4155  0.1995
 1684poe    c23 7246   7.349   3.630   6.596 -0.7427 -0.1293  0.5696
 1684poe     o2 7247   7.211   3.642   6.570 -0.5795  0.3353 -0.1212
 1684poe    c31 7248   7.156   3.515   6.540  0.2828 -0.1427  0.2562
 1685poe    c31 7249   2.590   4.836   6.057  0.2760 -0.4479  0.0875
 1685poe     o2 7250   2.586   4.882   6.191  0.9286  0.3113 -0.1458
 1685poe    c23 7251   2.604   4.767   6.271  0.1664  0.4342  0.2086
 1685poe    c23 7252   2.654   4.814   6.409  0.5627  0.7368 -0.0342
 1685poe     o2 7253   2.560   4.898   6.471 -0.4977 -0.3066 -0.1972
 1685poe    c23 7254   2.475   4.833   6.563 -0.3153 -0.1984  0.0490
 1685poe    c23 7255   2.342   4.910   6.574 -0.1560  0.0088  0.5794
 1685poe     o2 7256   2.392   5.039   6.602  0.2433 -0.0307  0.0816
 1685poe    c23 7257   2.293   5.139   6.595  0.4379  0.1819  0.3625
 1685poe    c23 7258   2.368   5.273   6.609  0.0039  0.5219 -0.4932
 1685poe     o2 7259   2.474   5.279   6.516 -0.2764 -0.0233 -0.8484
 1685poe    c31 7260   2.537   5.403   6.537 -0.3713 -0.0139 -0.6136
 1686poe    c31 7261   2.262   1.755   0.348  0.0959  0.4086  0.2842
 1686poe     o2 7262   2.384   1.785   0.285  0.0211 -0.0087 -0.0640
 1686poe    c23 7263   2.490   1.697   0.314 -0.2694 -0.3319  0.0229
 1686poe    c23 7264   2.632   1.718   0.258 -0.3756 -0.2287 -0.2099
 1686poe     o2 7265   2.639   1.718   0.117 -0.3296  0.1924 -0.2081
 1686poe    c23 7266   2.769   1.740   0.066 -0.3340 -0.1643 -0.3743
 1686poe    c23 7267   2.826   1.882   0.082 -0.5338 -0.0475 -0.6771
 1686poe     o2 7268   2.740   1.981   0.032 -0.5185  0.5450  0.4432
 1686poe    c23 7269   2.798   2.052  -0.075  0.1753 -0.0177  0.4433
 1686poe    c23 7270   2.706   2.165  -0.123  0.0978 -0.1224  0.3451
 1686poe     o2 7271   2.593   2.100  -0.176 -0.5464  0.8334  0.5280
 1686poe    c31 7272   2.524   2.201  -0.247 -0.1196  0.5986 -0.2252
 1687poe    c31 7273   6.062   1.875   3.747  0.1193 -0.3936  0.4876
 1687poe     o2 7274   6.054   2.016   3.751  0.0155 -0.3802 -0.0198
 1687poe    c23 7275   6.009   2.063   3.876  0.0877 -0.0824 -0.1053
 1687poe    c23 7276   6.020   2.216   3.885 -0.0750 -0.0546 -0.3689
 1687poe     o2 7277   5.934   2.282   3.796 -0.5211  0.4940  0.4509
 1687poe    c23 7278   5.984   2.414   3.788  0.2310  0.1748 -0.3324
 1687poe    c23 7279   5.886   2.513   3.723  0.1049  0.4534  0.2773
 1687poe     o2 7280   5.903   2.529   3.584  0.3174  0.3151  0.2879
 1687poe    c23 7281   5.869   2.658   3.538 -0.6937 -0.1767 -0.3709
 1687poe    c23 7282   5.836   2.648   3.388 -0.3166  0.2674 -0.4856
 1687poe     o2 7283   5.948   2.614   3.309  0.2222 -0.2821  0.4998
 1687poe    c31 7284   5.896   2.564   3.188  0.6818 -0.7076  0.4766
 1688poe    c31 7285   4.922   5.802   4.152  0.2353 -0.0119 -0.2518
 1688poe     o2 7286   4.825   5.878   4.083  0.1444  0.2538  0.1612
 1688poe    c23 7287   4.729   5.795   4.022  0.4689  0.3680 -0.5218
 1688poe    c23 7288   4.603   5.864   3.967  0.1610 -0.0993 -0.4137
 1688poe     o2 7289   4.629   5.942   3.852 -0.3599  0.2508 -0.2920
 1688poe    c23 7290   4.517   5.966   3.769 -0.4691  0.5240 -0.0695
 1688poe    c23 7291   4.459   5.851   3.685  0.3242 -0.0230  0.1133
 1688poe     o2 7292   4.531   5.798   3.576  0.9504 -0.2636  0.6402
 1688poe    c23 7293   4.488   5.831   3.446 -0.4165 -0.5233  1.0110
 1688poe    c23 7294   4.586   5.782   3.338 -0.1689  0.3001  0.8598
 1688poe     o2 7295   4.717   5.830   3.319  0.1464 -0.7793  0.2507
 1688poe    c31 7296   4.763   5.760   3.205  0.5221 -0.6214  0.3019
 1689poe    c31 7297   4.444   3.933   4.425  0.0546 -0.0903  0.1386
 1689poe     o2 7298   4.482   4.068   4.440  0.6313 -0.2474  0.1217
 1689poe    c23 7299   4.482   4.127   4.567  0.9511  0.5079 -0.2228
 1689poe    c23 7300   4.518   4.276   4.550  0.9178  0.5917  0.4117
 1689poe     o2 7301   4.636   4.301   4.476  0.7338 -0.3242 -0.2144
 1689poe    c23 7302   4.675   4.436   4.488 -0.6335  0.1238 -0.5706
 1689poe    c23 7303   4.826   4.429   4.459 -0.4470  0.1878  0.3336
 1689poe     o2 7304   4.851   4.377   4.330  0.0809  0.2250  0.4201
 1689poe    c23 7305   4.955   4.432   4.251 -0.1027 -0.0226  0.0046
 1689poe    c23 7306   4.999   4.322   4.153  0.3013  0.1918 -0.0545
 1689poe     o2 7307   4.894   4.259   4.083  0.2802 -0.0072  0.1567
 1689poe    c31 7308   4.926   4.158   3.990  0.6740 -0.1382  0.4301
 1690poe    c31 7309   1.432   1.860   3.916  0.1630 -0.0609 -0.3676
 1690poe     o2 7310   1.326   1.948   3.944  0.0433 -0.5322  0.6939
 1690poe    c23 7311   1.371   2.078   3.977 -0.1179 -0.0853 -0.7693
 1690poe    c23 7312   1.247   2.165   4.007  0.1767  0.0556  0.0707
 1690poe     o2 7313   1.152   2.084   4.073  0.0469 -0.1380 -0.3473
 1690poe    c23 7314   1.038   2.154   4.118 -0.0864  0.0708 -1.0025
 1690poe    c23 7315   0.926   2.054   4.153  0.0393  0.1635 -0.3227
 1690poe     o2 7316   0.907   1.963   4.048  0.2433 -0.2877  0.0265
 1690poe    c23 7317   0.818   1.863   4.090  0.1369  0.0446  0.5896
 1690poe    c23 7318   0.795   1.758   3.980 -0.0746  0.6268  0.0733
 1690poe     o2 7319   0.914   1.701   3.931 -0.1236  0.4729  0.1334
 1690poe    c31 7320   0.879   1.600   3.839  0.8811  0.3299 -0.1011
 1691poe    c31 7321   6.496   1.674   1.039  0.2909 -0.2835 -0.1046
 1691poe     o2 7322   6.510   1.652   1.177  0.3001 -0.0242 -0.0630
 1691poe    c23 7323   6.396   1.672   1.258 -0.0489  0.3643 -0.6430
 1691poe    c23 7324   6.435   1.616   1.396  0.1531  0.0685 -0.8198
 1691poe     o2 7325   6.516   1.501   1.382 -0.4385 -0.3903 -0.5681
 1691poe    c23 7326   6.550   1.464   1.513 -0.5026 -0.0202 -0.4442
 1691poe    c23 7327   6.628   1.331   1.518 -0.2244  0.1647  0.3594
 1691poe     o2 7328   6.756   1.340   1.460 -0.1643 -0.1456  0.4401
 1691poe    c23 7329   6.809   1.212   1.438 -0.0867 -0.1889  0.8696
 1691poe    c23 7330   6.938   1.213   1.353 -0.7259 -0.2984 -0.1227
 1691poe     o2 7331   7.043   1.289   1.408 -0.3553 -0.7328 -0.2265
 1691poe    c31 7332   7.165   1.279   1.338  0.1666 -0.2455  0.5938
 1692poe    c31 7333   0.493   1.660   1.152 -0.2868  0.5848 -0.5932
 1692poe     o2 7334   0.622   1.688   1.100 -0.0356  0.1172 -0.2277
 1692poe    c23 7335   0.630   1.815   1.041 -0.2804  0.1144 -0.2698
 1692poe    c23 7336   0.773   1.863   1.009 -0.1898 -0.0192 -0.0686
 1692poe     o2 7337   0.849   1.768   0.936  0.1651 -0.0607  0.3543
 1692poe    c23 7338   0.967   1.831   0.892  0.1457 -0.1009  0.2440
 1692poe    c23 7339   1.053   1.739   0.803 -0.0373 -0.2486  0.2208
 1692poe     o2 7340   1.069   1.612   0.862 -0.3893 -0.4240 -0.0547
 1692poe    c23 7341   1.136   1.527   0.772 -0.1582  0.4121 -0.6850
 1692poe    c23 7342   1.115   1.390   0.840  0.0726  0.5517 -0.3315
 1692poe     o2 7343   0.978   1.377   0.872  0.1282 -0.1600 -0.3721
 1692poe    c31 7344   0.950   1.241   0.897  0.5171 -0.1380  0.1982
 1693poe    c31 7345   1.470   5.677   4.194  0.5373 -0.2874 -0.0313
 1693poe     o2 7346   1.589   5.719   4.256  0.3126 -0.0446  0.2371
 1693poe    c23 7347   1.710   5.675   4.198  0.3777  0.9287 -0.3791
 1693poe    c23 7348   1.833   5.736   4.267  0.5390  0.0255  0.1460
 1693poe     o2 7349   1.849   5.708   4.404  0.1715 -0.0175  0.1823
 1693poe    c23 7350   1.894   5.579   4.441 -0.4880 -0.0419  0.9304
 1693poe    c23 7351   1.944   5.584   4.587  0.8034 -0.0012  0.5023
 1693poe     o2 7352   1.838   5.632   4.667  0.1140  0.1662 -0.4902
 1693poe    c23 7353   1.871   5.650   4.803 -0.0653 -0.1557 -0.4035
 1693poe    c23 7354   1.776   5.748   4.876  0.4395 -0.0249  0.0858
 1693poe     o2 7355   1.755   5.871   4.810 -0.4925 -0.3220 -0.1849
 1693poe    c31 7356   1.652   5.955   4.859 -0.0166 -0.3714  0.9309
 1694poe    c31 7357   4.691   1.258   6.253 -0.1040 -1.0557 -0.1190
 1694poe     o2 7358   4.577   1.339   6.262  0.2268 -0.5841 -0.1151
 1694poe    c23 7359   4.598   1.438   6.360 -0.0026 -0.3515 -0.2955
 1694poe    c23 7360   4.468   1.512   6.397 -0.0540 -0.5418 -0.0861
 1694poe     o2 7361   4.375   1.421   6.450 -0.4835 -0.1012 -0.0806
 1694poe    c23 7362   4.245   1.466   6.419 -0.3899  0.1414 -0.1239
 1694poe    c23 7363   4.136   1.420   6.518 -0.2786  0.2397  0.0430
 1694poe     o2 7364   4.170   1.454   6.651 -0.2759  0.0505  0.0907
 1694poe    c23 7365   4.061   1.425   6.735 -0.2004  0.5225  0.3570
 1694poe    c23 7366   4.107   1.455   6.878  0.1833 -0.0732  0.3648
 1694poe     o2 7367   4.118   1.583   6.937  0.3447  0.1186 -0.0813
 1694poe    c31 7368   3.990   1.642   6.953  0.1683 -0.3754  0.3458
 1695poe    c31 7369   3.547   0.531   2.309 -0.1024  0.6921 -0.1367
 1695poe     o2 7370   3.542   0.564   2.172  0.2175  0.0243 -0.3186
 1695poe    c23 7371   3.411   0.599   2.131 -0.0627 -0.8333 -0.1681
 1695poe    c23 7372   3.419   0.679   2.000 -0.2738  0.0386  0.3500
 1695poe     o2 7373   3.483   0.613   1.893  0.0040 -0.0588  0.5761
 1695poe    c23 7374   3.406   0.520   1.821  0.2514  0.3860 -0.2682
 1695poe    c23 7375   3.324   0.582   1.706 -0.1802  0.0560 -0.1433
 1695poe     o2 7376   3.296   0.483   1.610  0.2308 -0.1222 -0.0845
 1695poe    c23 7377   3.264   0.535   1.483 -0.1487 -0.0625  0.0314
 1695poe    c23 7378   3.290   0.427   1.375 -0.1516 -0.2057  0.1739
 1695poe     o2 7379   3.205   0.315   1.364  0.1440 -0.3438 -0.7094
 1695poe    c31 7380   3.239   0.211   1.453 -0.2627  0.4364  0.3768
 1696poe    c31 7381   1.522   5.742   2.045 -0.1558 -0.3717  0.5498
 1696poe     o2 7382   1.653   5.703   2.081  0.1420 -0.0142 -0.1284
 1696poe    c23 7383   1.694   5.582   2.022  0.3315  0.0732 -0.1788
 1696poe    c23 7384   1.823   5.521   2.078  0.2516 -0.2112 -0.3030
 1696poe     o2 7385   1.902   5.635   2.103 -0.1936  0.0394 -0.0503
 1696poe    c23 7386   2.034   5.601   2.138 -0.2311 -0.1900 -0.1294
 1696poe    c23 7387   2.106   5.737   2.146 -0.3757 -0.1033 -0.2892
 1696poe     o2 7388   2.033   5.819   2.234 -0.1248 -0.7449  0.5317
 1696poe    c23 7389   2.113   5.914   2.301 -0.2949 -0.1785 -0.0515
 1696poe    c23 7390   2.098   5.892   2.453  0.0230  0.4394  0.0713
 1696poe     o2 7391   1.960   5.901   2.483 -0.0088 -0.2944  0.1494
 1696poe    c31 7392   1.946   5.891   2.623 -0.1559 -0.0334  0.1534
 1697poe    c31 7393   6.478   3.651   0.412  0.8736  0.1754  0.1233
 1697poe     o2 7394   6.374   3.703   0.492  0.4937 -0.0430 -0.2314
 1697poe    c23 7395   6.256   3.692   0.415  0.0365 -0.1433  0.4704
 1697poe    c23 7396   6.123   3.726   0.484 -0.1616  0.2196 -0.0855
 1697poe     o2 7397   6.097   3.678   0.613  0.4983  0.3862  0.1130
 1697poe    c23 7398   5.956   3.674   0.623  0.4904  0.0180 -0.1185
 1697poe    c23 7399   5.923   3.646   0.771 -0.0537  0.2804 -0.1856
 1697poe     o2 7400   6.003   3.722   0.859 -0.4575  0.3659  0.1093
 1697poe    c23 7401   5.979   3.682   0.992  0.7146 -0.0509  0.2111
 1697poe    c23 7402   6.059   3.784   1.074  0.3427  0.3158  0.1215
 1697poe     o2 7403   6.182   3.806   1.007 -0.0068  0.4705 -0.4821
 1697poe    c31 7404   6.258   3.899   1.081  0.1421 -0.2597  0.3000
 1698poe    c31 7405   4.433   3.870   0.390  0.3447 -0.0998 -0.1668
 1698poe     o2 7406   4.572   3.892   0.373  0.2567  0.6762  0.0762
 1698poe    c23 7407   4.658   3.781   0.370  0.2156  0.6490 -0.0730
 1698poe    c23 7408   4.811   3.798   0.366  0.2501  0.3875  0.0772
 1698poe     o2 7409   4.892   3.842   0.473 -0.1020  0.1439  0.4468
 1698poe    c23 7410   5.031   3.855   0.452 -0.2057  0.9203  0.2168
 1698poe    c23 7411   5.094   3.912   0.580 -0.2681  0.5422  0.4157
 1698poe     o2 7412   5.234   3.911   0.602 -0.2348  0.3815  0.2006
 1698poe    c23 7413   5.294   3.795   0.655 -0.1175  0.1703 -0.3788
 1698poe    c23 7414   5.268   3.763   0.804 -0.3672  0.3111 -0.3905
 1698poe     o2 7415   5.134   3.731   0.834 -0.2493 -0.3623 -0.5632
 1698poe    c31 7416   5.118   3.696   0.969 -0.8392 -0.3050 -0.6155
 1699poe    c31 7417   4.524   7.009   4.863 -0.5800 -0.0551  0.5282
 1699poe     o2 7418   4.560   7.139   4.819 -0.2629 -0.2033  0.3454
 1699poe    c23 7419   4.470   7.234   4.872  0.0116  0.2807 -0.0622
 1699poe    c23 7420   4.497   7.373   4.810 -0.0241  0.1358 -0.4078
 1699poe     o2 7421   4.435   7.396   4.686 -0.4236 -0.0877 -0.2521
 1699poe    c23 7422   4.440   7.528   4.637  0.2248 -0.0157  0.0044
 1699poe    c23 7423   4.331   7.528   4.528 -0.0212  0.4025  0.2469
 1699poe     o2 7424   4.343   7.424   4.433  0.4155  0.2406  0.4743
 1699poe    c23 7425   4.241   7.430   4.336  0.1500 -0.1477  0.7242
 1699poe    c23 7426   4.260   7.325   4.226  0.2318  0.4039  0.2045
 1699poe     o2 7427   4.226   7.198   4.278 -0.1087  0.4515  0.1005
 1699poe    c31 7428   4.244   7.096   4.183 -0.3002  0.1847  0.3491
 1700poe    c31 7429   4.758   0.573   6.724  0.0623 -0.2987 -0.1377
 1700poe     o2 7430   4.774   0.466   6.634 -0.3183 -0.3971 -0.0875
 1700poe    c23 7431   4.904   0.480   6.582 -0.3622  0.0592 -0.0806
 1700poe    c23 7432   4.959   0.338   6.554  0.3284  0.2888  0.0928
 1700poe     o2 7433   4.964   0.266   6.675 -0.0973 -0.1844 -0.1689
 1700poe    c23 7434   5.034   0.147   6.644  0.6075  0.1760  0.0121
 1700poe    c23 7435   5.006   0.063   6.770 -0.3185  0.3178 -0.0919
 1700poe     o2 7436   5.055   0.124   6.887  0.0285  0.1848 -0.1657
 1700poe    c23 7437   5.032   0.041   6.999  0.7287  0.2564  0.0344
 1700poe    c23 7438   5.075   0.108   7.130 -0.2583  0.3921  0.2994
 1700poe     o2 7439   5.214   0.130   7.142 -0.1557 -0.1384  0.0736
 1700poe    c31 7440   5.250   0.052   7.255 -0.1723 -0.2888 -0.0242
 1701poe    c31 7441   1.980   5.725   0.441 -0.1534  0.0425 -0.1339
 1701poe     o2 7442   1.923   5.638   0.536  0.1938  0.0486  0.0832
 1701poe    c23 7443   2.008   5.530   0.566 -0.2245 -0.3751 -0.2368
 1701poe    c23 7444   2.001   5.477   0.711  0.5047  0.0512 -0.0374
 1701poe     o2 7445   2.055   5.565   0.807  0.2101  0.2045 -0.0107
 1701poe    c23 7446   2.148   5.497   0.890  0.3407  0.2602 -0.1115
 1701poe    c23 7447   2.191   5.566   1.020 -0.5723  0.1175  0.2767
 1701poe     o2 7448   2.247   5.689   0.980  0.3840 -0.3961 -0.0059
 1701poe    c23 7449   2.206   5.793   1.067 -0.0167 -0.1768 -0.4533
 1701poe    c23 7450   2.266   5.791   1.209 -0.1296 -0.2911 -0.4070
 1701poe     o2 7451   2.400   5.834   1.200 -0.0300 -0.4018  0.4607
 1701poe    c31 7452   2.439   5.886   1.324  0.6221 -0.3120  0.2226
 1702poe    c31 7453   6.103   3.863   2.889 -0.2552  0.0125 -0.2001
 1702poe     o2 7454   6.076   3.987   2.827  0.2456  0.0088 -0.4357
 1702poe    c23 7455   6.143   4.098   2.882  0.1436 -0.1616  0.0386
 1702poe    c23 7456   6.089   4.229   2.823 -0.1733 -0.1119  0.4305
 1702poe     o2 7457   6.103   4.195   2.687  0.1206  0.6019  0.2727
 1702poe    c23 7458   6.066   4.307   2.609  0.4136  0.4531 -0.0837
 1702poe    c23 7459   6.102   4.268   2.465 -0.2456  0.4386 -0.2466
 1702poe     o2 7460   6.039   4.143   2.449 -0.7799  0.6724  0.0301
 1702poe    c23 7461   6.022   4.127   2.310  0.3614  0.5475 -0.1001
 1702poe    c23 7462   6.037   3.988   2.245  0.2000  0.3958  0.1856
 1702poe     o2 7463   6.146   3.908   2.282 -0.0464  0.0581  0.1869
 1702poe    c31 7464   6.157   3.790   2.206 -0.1941  0.4708 -0.4822
 1703poe    c31 7465   3.940   5.110   4.032  0.1437  0.1120 -0.3043
 1703poe     o2 7466   3.992   5.103   4.163 -0.2334  0.2430 -0.1468
 1703poe    c23 7467   4.089   5.006   4.194 -0.4319  0.1343  0.1392
 1703poe    c23 7468   4.138   5.039   4.336  0.4175  0.5274 -0.2339
 1703poe     o2 7469   4.024   5.048   4.419  0.0339 -0.3001 -0.6614
 1703poe    c23 7470   4.029   5.006   4.554 -0.0294  0.0959 -0.5341
 1703poe    c23 7471   3.886   4.995   4.609  0.1351  0.1836 -0.0843
 1703poe     o2 7472   3.812   5.115   4.623  0.2108  0.1418  0.7115
 1703poe    c23 7473   3.680   5.074   4.653  0.0845  0.0591  0.0730
 1703poe    c23 7474   3.579   5.187   4.629  0.2341  0.2359  0.2569
 1703poe     o2 7475   3.573   5.201   4.488  0.2679  0.4402  0.2763
 1703poe    c31 7476   3.515   5.324   4.451  0.7167  0.4201 -0.5130
 1704poe    c31 7477   5.238   0.245   1.465 -0.1282  0.0757  0.0104
 1704poe     o2 7478   5.194   0.139   1.382  0.3570  0.1078 -0.2934
 1704poe    c23 7479   5.122   0.056   1.470  0.8647 -0.6470 -0.5834
 1704poe    c23 7480   5.074  -0.056   1.375 -0.0831 -0.1794 -0.6597
 1704poe     o2 7481   5.181  -0.093   1.291  0.2219 -0.2668 -0.2361
 1704poe    c23 7482   5.141  -0.169   1.179  0.1231  0.0874 -0.4431
 1704poe    c23 7483   5.263  -0.228   1.107  0.0356 -0.2825 -0.2906
 1704poe     o2 7484   5.348  -0.130   1.052  0.1188  0.1008  0.4993
 1704poe    c23 7485   5.329  -0.118   0.912  0.0069  0.1842  0.5215
 1704poe    c23 7486   5.405  -0.006   0.838 -0.5135 -0.1349 -0.5115
 1704poe     o2 7487   5.372   0.123   0.885 -0.4414 -0.1482 -0.4227
 1704poe    c31 7488   5.415   0.219   0.792 -0.2730  0.1762 -0.0075
 1705poe    c31 7489   4.228   2.184   0.807 -0.1626  0.1491 -0.0557
 1705poe     o2 7490   4.122   2.094   0.790  0.0478  0.0487 -0.8890
 1705poe    c23 7491   4.033   2.159   0.702 -0.4486  0.8054  0.1417
 1705poe    c23 7492   3.912   2.080   0.649  0.1228  0.0497 -0.0596
 1705poe     o2 7493   3.830   2.057   0.762  0.1548 -0.4338 -0.1316
 1705poe    c23 7494   3.772   1.929   0.768 -0.6628 -0.0796 -0.4030
 1705poe    c23 7495   3.861   1.805   0.754 -0.7338 -0.1973  0.1740
 1705poe     o2 7496   3.896   1.769   0.622  0.2137  0.1199  0.3255
 1705poe    c23 7497   3.804   1.674   0.572  0.6028 -0.0476 -0.0679
 1705poe    c23 7498   3.798   1.648   0.420  0.3215 -0.4140  0.0064
 1705poe     o2 7499   3.700   1.553   0.383  0.1227 -0.2092  0.0094
 1705poe    c31 7500   3.584   1.617   0.333  0.5036  0.2523 -0.2886
 1706poe    c31 7501   1.376   0.799   4.022 -0.2170 -0.9125  0.3110
 1706poe     o2 7502   1.264   0.745   3.956 -0.2758  0.0709 -0.4153
 1706poe    c23 7503   1.275   0.606   3.933 -0.1206 -0.0185  0.1763
 1706poe    c23 7504   1.145   0.524   3.929 -0.2423  0.1572  0.5214
 1706poe     o2 7505   1.060   0.542   3.818  0.2200  0.4850  0.2192
 1706poe    c23 7506   0.953   0.452   3.834  0.4690  0.1042 -0.1924
 1706poe    c23 7507   0.843   0.483   3.730  0.6160  0.1946 -0.3204
 1706poe     o2 7508   0.842   0.624   3.730  0.5724  0.1941 -0.2957
 1706poe    c23 7509   0.750   0.679   3.638 -0.3242 -0.2833  0.2981
 1706poe    c23 7510   0.771   0.829   3.611  0.5982 -0.3779  0.4540
 1706poe     o2 7511   0.902   0.840   3.558  0.4551 -0.1079  0.1496
 1706poe    c31 7512   0.915   0.966   3.497 -1.0136  0.0914  0.2027
 1707poe    c31 7513   6.240   5.254   0.221  0.2924  0.4320  0.4108
 1707poe     o2 7514   6.348   5.167   0.198 -0.1621  0.0362 -0.2653
 1707poe    c23 7515   6.425   5.200   0.084  0.1132 -0.0850 -0.1147
 1707poe    c23 7516   6.536   5.300   0.119 -0.1455  0.1193  0.1295
 1707poe     o2 7517   6.631   5.239   0.203 -0.1244  0.1750  0.1454
 1707poe    c23 7518   6.747   5.320   0.203  0.2668 -0.3836  0.5343
 1707poe    c23 7519   6.839   5.295   0.325 -0.2781  0.4303  1.1254
 1707poe     o2 7520   6.840   5.156   0.351  0.2751  0.1374 -0.3330
 1707poe    c23 7521   6.950   5.120   0.432 -0.3084 -0.2644  0.2904
 1707poe    c23 7522   6.948   4.966   0.446  0.1278 -0.3472 -0.4962
 1707poe     o2 7523   6.813   4.931   0.468  0.2100 -0.3037  0.0750
 1707poe    c31 7524   6.796   4.838   0.573 -0.2396 -0.7512 -0.3903
 1708poe    c31 7525   4.434   4.430   6.150 -0.6033 -0.5613 -0.1174
 1708poe     o2 7526   4.560   4.492   6.149 -0.7500 -0.2556  0.1427
 1708poe    c23 7527   4.593   4.551   6.025  0.1803 -0.5719  0.2296
 1708poe    c23 7528   4.717   4.642   6.033 -0.0955 -0.2261  0.5788
 1708poe     o2 7529   4.824   4.554   6.062 -0.0772 -0.2551  0.4205
 1708poe    c23 7530   4.939   4.634   6.077 -0.1510 -0.1300  0.3185
 1708poe    c23 7531   5.067   4.555   6.109 -0.1714 -0.2248  0.1720
 1708poe     o2 7532   5.061   4.495   6.236  0.2175 -0.0132  0.2928
 1708poe    c23 7533   5.176   4.420   6.270  0.3612  0.2746  0.4508
 1708poe    c23 7534   5.189   4.360   6.411  0.0646 -0.1246  0.3104
 1708poe     o2 7535   5.133   4.234   6.439 -0.2027 -0.0188  0.2537
 1708poe    c31 7536   5.119   4.214   6.578 -0.0257 -0.2517  0.2390
 1709poe    c31 7537   1.249   6.007   3.221  0.1740  0.5384 -0.0056
 1709poe     o2 7538   1.208   6.136   3.260 -0.2530  0.3284  0.2473
 1709poe    c23 7539   1.187   6.148   3.399 -0.1620  0.4358  0.2516
 1709poe    c23 7540   1.065   6.232   3.441 -0.0409  0.4785  0.5255
 1709poe     o2 7541   1.065   6.372   3.422 -0.7717  0.3616 -0.4055
 1709poe    c23 7542   0.939   6.415   3.470 -0.8520  0.1470 -0.4192
 1709poe    c23 7543   0.891   6.546   3.404 -0.0671  0.5898 -0.1272
 1709poe     o2 7544   0.960   6.662   3.443  0.0778  0.4103  0.1511
 1709poe    c23 7545   0.922   6.718   3.567 -0.0880  0.4440  0.0858
 1709poe    c23 7546   1.036   6.772   3.656  0.1085  0.5892 -0.2544
 1709poe     o2 7547   1.106   6.677   3.733  0.3302  0.3106 -0.7882
 1709poe    c31 7548   1.203   6.746   3.808 -0.1304 -0.3005  0.4047
 1710poe    c31 7549   3.412   3.382   1.896  0.4894  0.3584  0.9440
 1710poe     o2 7550   3.472   3.274   1.829  0.4861  0.7854  0.2420
 1710poe    c23 7551   3.439   3.263   1.692  0.0870  0.3993  0.3647
 1710poe    c23 7552   3.456   3.116   1.650  0.0473  0.5689 -0.2544
 1710poe     o2 7553   3.583   3.055   1.637  0.0169  0.4060  0.1951
 1710poe    c23 7554   3.579   2.916   1.614  0.5593  0.3787  0.2512
 1710poe    c23 7555   3.593   2.829   1.740  0.5116 -0.2538 -0.1745
 1710poe     o2 7556   3.577   2.695   1.702  0.0550 -0.0742 -0.6381
 1710poe    c23 7557   3.564   2.618   1.820 -0.3048  0.0341 -0.6081
 1710poe    c23 7558   3.574   2.468   1.789  0.3394 -0.2203  0.7448
 1710poe     o2 7559   3.699   2.441   1.730  0.2064 -0.4303  0.5560
 1710poe    c31 7560   3.671   2.345   1.630 -0.1688  0.0052  0.2428
 1711poe    c31 7561   3.219   3.015   2.154  0.0881 -0.3691 -0.1052
 1711poe     o2 7562   3.185   2.965   2.027 -0.0990  0.2130 -0.2842
 1711poe    c23 7563   3.165   3.072   1.937  0.2194 -0.0774 -0.7046
 1711poe    c23 7564   3.051   3.036   1.840 -0.2476 -0.6643  0.0462
 1711poe     o2 7565   3.072   2.935   1.744 -0.0715 -0.1801 -0.4267
 1711poe    c23 7566   3.041   2.979   1.613 -0.1507 -0.0152 -0.3521
 1711poe    c23 7567   3.072   2.869   1.510 -0.2180 -0.2117 -0.1635
 1711poe     o2 7568   3.027   2.749   1.568 -0.2480 -0.0499  0.1491
 1711poe    c23 7569   3.061   2.639   1.488  0.0695  0.0508  0.1472
 1711poe    c23 7570   3.027   2.500   1.546 -0.1173 -0.0137 -0.1179
 1711poe     o2 7571   2.888   2.494   1.567 -0.1590 -0.1716 -0.4260
 1711poe    c31 7572   2.845   2.362   1.592 -0.2356 -0.0840 -0.0897
 1712poe    c31 7573   4.055   1.666   2.950  0.0492 -0.0385  0.1452
 1712poe     o2 7574   4.111   1.567   2.867  0.5928  0.4550 -0.0823
 1712poe    c23 7575   4.035   1.573   2.748 -0.8939 -0.1311  0.8128
 1712poe    c23 7576   4.027   1.436   2.680  0.1402  0.1159  0.1816
 1712poe     o2 7577   3.980   1.329   2.759 -0.1763  0.2668  0.1971
 1712poe    c23 7578   3.983   1.222   2.667 -0.2619  0.1496  0.3308
 1712poe    c23 7579   3.975   1.079   2.725  0.1281  0.0599  0.1668
 1712poe     o2 7580   4.072   1.057   2.825 -0.1382 -0.1002  0.3902
 1712poe    c23 7581   4.075   0.919   2.852 -0.1798 -0.1708  0.0389
 1712poe    c23 7582   4.204   0.869   2.919 -0.1241  0.4721  0.4245
 1712poe     o2 7583   4.210   0.915   3.052  0.2104  0.4886  0.4061
 1712poe    c31 7584   4.303   0.845   3.132  0.0989  0.4437  0.4977
 1713poe    c31 7585   2.505   6.338   2.171 -0.0445 -0.1470  0.5032
 1713poe     o2 7586   2.587   6.234   2.126 -0.1475 -0.0510  0.0824
 1713poe    c23 7587   2.507   6.125   2.085  0.0379  0.0151 -0.4675
 1713poe    c23 7588   2.591   5.997   2.098 -0.1493 -0.0544  0.0862
 1713poe     o2 7589   2.725   6.032   2.073 -0.2190 -0.0341 -0.2653
 1713poe    c23 7590   2.811   5.920   2.080 -0.0455  0.0586 -0.9220
 1713poe    c23 7591   2.944   5.971   2.020  0.1899  0.2675 -0.2331
 1713poe     o2 7592   2.979   6.094   2.079 -0.5004  0.4696 -0.2300
 1713poe    c23 7593   3.086   6.150   2.005  0.3085 -0.3579  0.2967
 1713poe    c23 7594   3.144   6.267   2.086  0.0505 -0.0864  0.0896
 1713poe     o2 7595   3.071   6.387   2.083  0.2158  0.0233  0.3956
 1713poe    c31 7596   3.150   6.498   2.121  1.0113 -0.2289 -0.4989
 1714poe    c31 7597   1.794   0.078   1.668 -0.9155  0.1775 -0.3062
 1714poe     o2 7598   1.868   0.164   1.585  0.5825 -0.0799  0.7302
 1714poe    c23 7599   1.939   0.095   1.484  0.1395  0.1293  0.2720
 1714poe    c23 7600   1.993   0.177   1.365  0.2103  0.2906  0.4133
 1714poe     o2 7601   1.894   0.160   1.265  0.7023  0.3339 -0.0886
 1714poe    c23 7602   1.900   0.265   1.172 -0.2386  0.0496 -0.4834
 1714poe    c23 7603   1.760   0.315   1.133 -0.3155  0.2298  0.0224
 1714poe     o2 7604   1.672   0.219   1.078  0.2656 -0.4069  0.2020
 1714poe    c23 7605   1.541   0.266   1.058  0.4853  0.0579 -0.1578
 1714poe    c23 7606   1.440   0.152   1.037  0.0126  0.3263  0.6029
 1714poe     o2 7607   1.500   0.026   1.056 -0.2750  0.1355  0.2556
 1714poe    c31 7608   1.420  -0.086   1.022  0.1186 -0.1456  0.2461
 1715poe    c31 7609   5.542   0.005   6.795 -0.0709  0.1367  0.1170
 1715poe     o2 7610   5.452   0.104   6.750 -0.5347 -0.2366  0.2151
 1715poe    c23 7611   5.481   0.146   6.618 -0.4137 -0.2950  0.2226
 1715poe    c23 7612   5.392   0.267   6.585 -0.0235 -0.1304 -0.2427
 1715poe     o2 7613   5.420   0.394   6.642 -0.1848 -0.1149 -0.1964
 1715poe    c23 7614   5.320   0.491   6.622  0.1566  0.1786 -0.5011
 1715poe    c23 7615   5.366   0.609   6.708  0.0463  0.1825 -0.4478
 1715poe     o2 7616   5.363   0.570   6.844  0.5255 -0.1834 -0.5429
 1715poe    c23 7617   5.426   0.674   6.915  1.2078 -0.8944 -0.0764
 1715poe    c23 7618   5.411   0.661   7.067  0.3354  0.4421 -0.0281
 1715poe     o2 7619   5.416   0.521   7.087  0.2378  0.3546 -0.6129
 1715poe    c31 7620   5.410   0.500   7.226  0.0692  0.2666 -0.6336
 1716poe    c31 7621   4.832   1.786   3.635  0.1243  0.0846 -0.0059
 1716poe     o2 7622   4.958   1.779   3.697 -0.0252  0.2741  0.3198
 1716poe    c23 7623   5.062   1.779   3.602  0.2303  0.8623  0.5989
 1716poe    c23 7624   5.187   1.835   3.673  0.3970  0.9534  0.2341
 1716poe     o2 7625   5.208   1.779   3.801  0.2165  0.2175 -0.0580
 1716poe    c23 7626   5.303   1.835   3.888 -0.0632  0.0366  0.3666
 1716poe    c23 7627   5.314   1.754   4.019  0.0120  0.1231  0.4139
 1716poe     o2 7628   5.187   1.745   4.079 -0.2481  0.1805 -0.1246
 1716poe    c23 7629   5.186   1.672   4.200 -0.3367  0.0437 -0.2067
 1716poe    c23 7630   5.228   1.524   4.201 -0.1397  0.1004 -0.0131
 1716poe     o2 7631   5.165   1.437   4.109  0.0098 -0.1616  0.1328
 1716poe    c31 7632   5.218   1.307   4.099 -0.4648 -0.3130 -0.4905
 1717poe    c31 7633   3.988   5.696   5.336 -0.3242 -0.1272  0.1018
 1717poe     o2 7634   4.103   5.620   5.309  0.0793  0.6964 -0.5460
 1717poe    c23 7635   4.197   5.587   5.409 -0.0570  0.2563 -0.5590
 1717poe    c23 7636   4.325   5.527   5.348  0.0388  0.1013 -0.2052
 1717poe     o2 7637   4.379   5.622   5.259  0.0057  0.2368 -0.0813
 1717poe    c23 7638   4.494   5.594   5.182  0.1057 -0.2173  0.2294
 1717poe    c23 7639   4.518   5.719   5.095 -0.1873 -0.0421  0.3968
 1717poe     o2 7640   4.428   5.731   4.987  0.4276 -0.2812 -0.1506
 1717poe    c23 7641   4.470   5.849   4.922  0.2080 -0.3859 -0.4860
 1717poe    c23 7642   4.424   5.855   4.775  0.2592  0.0676 -0.4867
 1717poe     o2 7643   4.291   5.817   4.749  0.2234 -0.3665  0.2859
 1717poe    c31 7644   4.267   5.850   4.614  0.7090  0.4526  0.3929
 1718poe    c31 7645   2.725   2.998   2.466  0.1868 -0.1487  0.0338
 1718poe     o2 7646   2.650   3.070   2.560 -0.1565 -0.2659 -0.1484
 1718poe    c23 7647   2.719   3.055   2.682  0.0920  0.6197 -0.1767
 1718poe    c23 7648   2.639   3.062   2.814 -0.1666  0.1805 -0.3081
 1718poe     o2 7649   2.714   3.058   2.934 -0.5612  0.5039 -0.0491
 1718poe    c23 7650   2.642   3.083   3.052  0.1875 -0.1238  0.5437
 1718poe    c23 7651   2.624   2.955   3.136 -0.1222 -0.4524 -0.0187
 1718poe     o2 7652   2.750   2.898   3.166 -0.0545 -0.1299  0.3106
 1718poe    c23 7653   2.733   2.766   3.211 -0.2554 -0.2407 -0.0886
 1718poe    c23 7654   2.872   2.702   3.231  0.0280  0.3158 -0.2505
 1718poe     o2 7655   2.946   2.802   3.296  0.3055  0.2362 -0.4420
 1718poe    c31 7656   3.029   2.760   3.402  0.2837  0.2009 -0.4390
 1719poe    c31 7657   2.711   1.001   2.524 -0.2382 -0.2772  0.2228
 1719poe     o2 7658   2.643   1.116   2.479 -0.2420 -0.3493  0.0426
 1719poe    c23 7659   2.690   1.161   2.354  0.2798 -0.3232  0.2463
 1719poe    c23 7660   2.633   1.296   2.307 -0.0039 -0.5876 -0.1807
 1719poe     o2 7661   2.497   1.332   2.311  0.1087 -0.0746 -0.8041
 1719poe    c23 7662   2.414   1.241   2.243 -0.0155  0.0587 -0.8315
 1719poe    c23 7663   2.271   1.297   2.253  0.1770  0.3920  0.1398
 1719poe     o2 7664   2.229   1.313   2.387 -0.3370 -0.3569  0.0703
 1719poe    c23 7665   2.091   1.335   2.407 -0.2288  0.4049 -0.0229
 1719poe    c23 7666   2.053   1.343   2.556 -0.6731  0.1504 -0.1224
 1719poe     o2 7667   2.143   1.262   2.628 -0.5240 -0.3309 -0.8348
 1719poe    c31 7668   2.087   1.256   2.758 -0.1418 -0.0996 -0.6585
 1720poe    c31 7669   1.598   3.114   5.023  0.5400 -0.1084  0.3692
 1720poe     o2 7670   1.719   3.156   5.081  0.4214  0.2185  0.3859
 1720poe    c23 7671   1.824   3.067   5.048  0.1660  0.0140  0.1164
 1720poe    c23 7672   1.952   3.129   5.108  0.1679 -0.0811  0.2091
 1720poe     o2 7673   1.909   3.158   5.238  0.1391  0.0644  0.1670
 1720poe    c23 7674   2.014   3.204   5.321  0.2174  0.4818 -0.1570
 1720poe    c23 7675   1.969   3.221   5.468  0.3168 -0.3377 -0.0276
 1720poe     o2 7676   1.855   3.301   5.451  0.1922 -0.6184 -0.5650
 1720poe    c23 7677   1.803   3.349   5.574  0.3546 -0.7255 -0.4545
 1720poe    c23 7678   1.721   3.260   5.669  0.9338 -0.0983  0.6478
 1720poe     o2 7679   1.640   3.173   5.593  0.8600  0.1267  0.4654
 1720poe    c31 7680   1.647   3.037   5.630  0.2460 -0.0146  0.0812
 1721poe    c31 7681   4.547   2.635   3.816 -0.6843 -0.0707  0.5298
 1721poe     o2 7682   4.556   2.520   3.897 -0.3672 -0.5382 -0.1577
 1721poe    c23 7683   4.688   2.479   3.926  0.0147  0.7738  0.0623
 1721poe    c23 7684   4.697   2.349   4.009  0.0542  0.5391 -0.3072
 1721poe     o2 7685   4.637   2.237   3.948  0.0737  0.1570  0.3729
 1721poe    c23 7686   4.616   2.134   4.042  0.1858 -0.0770  0.1443
 1721poe    c23 7687   4.549   2.010   3.981 -0.4187  0.2556  0.1222
 1721poe     o2 7688   4.432   2.059   3.918  0.0892  0.3108 -0.7896
 1721poe    c23 7689   4.348   1.958   3.867  0.1668 -0.1060 -0.1059
 1721poe    c23 7690   4.228   2.033   3.807  0.2745 -0.1870 -0.4226
 1721poe     o2 7691   4.275   2.151   3.745  0.0485  0.1503  0.0457
 1721poe    c31 7692   4.185   2.219   3.661  0.6257 -0.0450 -0.7448
 1722poe    c31 7693   0.549   1.044   1.665 -0.1005 -0.1379  0.0367
 1722poe     o2 7694   0.423   1.002   1.713 -0.2264 -0.1072 -0.2684
 1722poe    c23 7695   0.454   0.915   1.820 -0.0514  0.1281 -0.1274
 1722poe    c23 7696   0.336   0.915   1.918  0.3196 -0.4206  0.3224
 1722poe     o2 7697   0.230   0.830   1.877  0.3048 -0.1406 -0.2279
 1722poe    c23 7698   0.132   0.808   1.976  0.5767 -0.1069  0.0508
 1722poe    c23 7699   0.045   0.685   1.944 -0.2314  0.4298  0.1566
 1722poe     o2 7700  -0.043   0.701   1.836 -0.2088  0.3268  0.1228
 1722poe    c23 7701  -0.071   0.583   1.764 -0.0922  0.2356  0.2272
 1722poe    c23 7702  -0.122   0.616   1.622 -0.3027  0.3669  0.3343
 1722poe     o2 7703  -0.036   0.694   1.542  0.1243 -0.6289 -0.1872
 1722poe    c31 7704  -0.103   0.691   1.418 -0.3658 -0.2913  0.0651
 1723poe    c31 7705   3.606   4.586   5.564 -0.1869 -0.0093 -0.2616
 1723poe     o2 7706   3.635   4.668   5.675  0.2831  0.0794 -0.4461
 1723poe    c23 7707   3.742   4.609   5.743 -0.3830 -0.3748  0.2257
 1723poe    c23 7708   3.724   4.656   5.889  0.4387  0.0737  0.1873
 1723poe     o2 7709   3.744   4.796   5.885 -0.2768  0.1709 -0.0568
 1723poe    c23 7710   3.736   4.869   6.005 -0.0653  0.4301 -0.1992
 1723poe    c23 7711   3.779   5.015   5.983  0.6239  0.1974 -0.4267
 1723poe     o2 7712   3.698   5.059   5.876 -0.1805 -0.1338  0.0445
 1723poe    c23 7713   3.720   5.194   5.846  0.2924 -0.2582 -0.1720
 1723poe    c23 7714   3.844   5.230   5.762  0.5245  0.0370  0.2968
 1723poe     o2 7715   3.831   5.204   5.625 -0.0303 -0.2545  0.4057
 1723poe    c31 7716   3.920   5.276   5.544 -0.6114  0.3053  0.2557
 1724poe    c31 7717   1.020   6.490   4.257  0.4585  0.0179 -0.0506
 1724poe     o2 7718   0.893   6.503   4.198  0.3998 -0.0657  0.0585
 1724poe    c23 7719   0.803   6.396   4.214  0.1868  0.0992 -0.0304
 1724poe    c23 7720   0.661   6.422   4.160  0.0234 -0.0733  0.3047
 1724poe     o2 7721   0.681   6.512   4.053 -0.0644 -0.2626  0.1291
 1724poe    c23 7722   0.554   6.570   4.031  0.1891  0.0772 -0.4595
 1724poe    c23 7723   0.564   6.662   3.907  0.1030 -0.2677 -0.7226
 1724poe     o2 7724   0.659   6.762   3.936 -0.3999 -0.0173  0.1004
 1724poe    c23 7725   0.661   6.853   3.827  0.1157 -0.4057 -0.2213
 1724poe    c23 7726   0.754   6.972   3.858  0.2035 -0.5522  0.0878
 1724poe     o2 7727   0.889   6.935   3.872  0.3049 -0.2476 -0.0704
 1724poe    c31 7728   0.971   7.049   3.882 -0.0851 -0.0438  0.8817
 1725poe    c31 7729   4.175   6.587   2.958  0.1596  0.4958  0.1328
 1725poe     o2 7730   4.062   6.503   2.967  0.5979 -0.1067  0.0822
 1725poe    c23 7731   3.968   6.541   3.065 -0.1366  0.5544 -0.8593
 1725poe    c23 7732   3.869   6.427   3.096 -0.2750  0.7658 -0.5176
 1725poe     o2 7733   3.811   6.362   2.985  1.0122 -0.4926 -0.4839
 1725poe    c23 7734   3.733   6.252   3.026  0.4516 -0.0487 -0.3547
 1725poe    c23 7735   3.666   6.187   2.903  0.2983  0.5862 -0.6128
 1725poe     o2 7736   3.760   6.132   2.813  0.0124 -0.2095 -0.4335
 1725poe    c23 7737   3.706   6.040   2.722 -0.3095 -0.0241 -0.4335
 1725poe    c23 7738   3.829   6.005   2.636  0.0151 -0.3150  0.1386
 1725poe     o2 7739   3.894   6.127   2.606 -0.2128 -0.1364  0.3689
 1725poe    c31 7740   4.021   6.106   2.549 -0.7131 -0.3885 -0.6791
 1726poe    c31 7741   3.707   5.671   3.968  0.0331 -0.5261 -0.0514
 1726poe     o2 7742   3.651   5.712   3.845 -0.0784  0.3296  0.2788
 1726poe    c23 7743   3.608   5.597   3.775  0.4129  0.5594 -0.4064
 1726poe    c23 7744   3.521   5.636   3.654  0.4159 -0.0792 -0.6178
 1726poe     o2 7745   3.592   5.749   3.610  0.3098  0.0804 -0.3821
 1726poe    c23 7746   3.531   5.801   3.494  0.3210  0.2697 -0.3048
 1726poe    c23 7747   3.602   5.930   3.450  0.1950  0.3808 -0.1811
 1726poe     o2 7748   3.741   5.912   3.433  0.0973 -0.2541 -0.3165
 1726poe    c23 7749   3.808   6.030   3.394 -0.2945 -0.2508 -0.9852
 1726poe    c23 7750   3.960   6.007   3.406 -0.2899  0.1822 -0.2056
 1726poe     o2 7751   3.996   5.964   3.535 -0.0298  0.0236 -0.3320
 1726poe    c31 7752   4.123   6.001   3.586 -0.3889  0.1899  0.4572
 1727poe    c31 7753   1.265   6.372   6.772 -0.3660  0.2285  0.1549
 1727poe     o2 7754   1.277   6.408   6.908  1.1705  0.0296  0.0862
 1727poe    c23 7755   1.235   6.314   7.005  0.3470  0.4226  0.1210
 1727poe    c23 7756   1.224   6.379   7.144 -0.4445  0.2176  0.1599
 1727poe     o2 7757   1.103   6.450   7.153 -0.4276  0.3224 -0.3737
 1727poe    c23 7758   1.106   6.538   7.263  0.8216  0.0443 -0.1695
 1727poe    c23 7759   0.979   6.626   7.259  0.2329 -0.7992 -0.3701
 1727poe     o2 7760   0.991   6.733   7.168 -0.3036 -0.0244  0.4503
 1727poe    c23 7761   0.877   6.815   7.162 -0.1557  0.1297 -0.5224
 1727poe    c23 7762   0.891   6.899   7.034  0.7851  0.3054 -0.3082
 1727poe     o2 7763   0.825   6.849   6.921  0.2623  0.2834  0.0057
 1727poe    c31 7764   0.751   6.951   6.856  0.1317  0.1955  0.0154
 1728poe    c31 7765   2.773   1.313   6.745  0.3782  0.9718 -0.2374
 1728poe     o2 7766   2.637   1.326   6.778  0.3739  0.4443 -0.0439
 1728poe    c23 7767   2.625   1.272   6.908  0.1481 -0.0583 -0.2660
 1728poe    c23 7768   2.484   1.306   6.959  0.3911  0.4564  0.0754
 1728poe     o2 7769   2.452   1.444   6.966  0.5501  0.4988 -0.0378
 1728poe    c23 7770   2.350   1.455   7.062  0.0418  0.1049 -0.5245
 1728poe    c23 7771   2.288   1.594   7.041 -0.4236 -0.0489 -0.1758
 1728poe     o2 7772   2.238   1.598   6.909  0.2694  0.0806 -0.4333
 1728poe    c23 7773   2.147   1.700   6.877  0.2817  0.1320 -0.3066
 1728poe    c23 7774   2.102   1.669   6.733  0.0778  0.0843 -0.2332
 1728poe     o2 7775   2.197   1.669   6.628  0.1928 -0.3035 -0.1317
 1728poe    c31 7776   2.231   1.801   6.591  0.1117 -0.3851 -0.4934
 1729poe    c31 7777   5.790   6.988   4.891  0.1497 -0.6521  0.8090
 1729poe     o2 7778   5.889   7.059   4.963  0.0513  0.1617  0.1613
 1729poe    c23 7779   5.879   7.196   4.932 -0.5364  0.1437  0.2575
 1729poe    c23 7780   5.941   7.296   5.032  0.2219 -0.2791  0.2221
 1729poe     o2 7781   5.862   7.298   5.148 -0.1188 -0.0269 -0.0111
 1729poe    c23 7782   5.835   7.431   5.187 -0.2201 -0.0239 -0.0924
 1729poe    c23 7783   5.742   7.448   5.308  0.2691  0.3789  0.2249
 1729poe     o2 7784   5.802   7.432   5.435  0.4939 -0.5121  0.0105
 1729poe    c23 7785   5.882   7.541   5.477  0.1418 -0.1365 -0.2828
 1729poe    c23 7786   5.925   7.547   5.624  0.0402 -0.6049 -0.2322
 1729poe     o2 7787   6.022   7.451   5.662  0.6023  0.0959  0.1154
 1729poe    c31 7788   6.079   7.508   5.778 -0.6544  0.3689  0.6153
 1730poe    c31 7789   3.188   0.008   5.855  0.1822 -0.0119 -0.4851
 1730poe     o2 7790   3.063   0.073   5.862  0.1632 -0.1563  0.7204
 1730poe    c23 7791   3.091   0.197   5.924  0.5291  0.2407 -0.2273
 1730poe    c23 7792   2.980   0.295   5.882  0.0390 -0.1507  0.1317
 1730poe     o2 7793   2.996   0.342   5.750 -0.1203  0.0040  0.1666
 1730poe    c23 7794   2.875   0.403   5.712  0.0864  0.3712  0.0989
 1730poe    c23 7795   2.838   0.414   5.563  0.0978 -0.1750  0.0540
 1730poe     o2 7796   2.761   0.299   5.538  0.3746 -0.2386 -0.5286
 1730poe    c23 7797   2.715   0.289   5.405 -0.0087  0.7953 -0.4835
 1730poe    c23 7798   2.614   0.176   5.378  0.3599  0.3155  0.1100
 1730poe     o2 7799   2.661   0.053   5.428  0.0044  0.0470 -0.2077
 1730poe    c31 7800   2.572  -0.054   5.408 -0.1729  0.1667 -0.0639
 1731poe    c31 7801   6.976   1.320   4.525  0.4425  0.7124 -0.1726
 1731poe     o2 7802   7.073   1.361   4.619  0.4872 -0.4441  0.2970
 1731poe    c23 7803   7.200   1.323   4.572  0.3385 -0.7831  0.1617
 1731poe    c23 7804   7.307   1.397   4.655 -0.0027  0.0645 -0.1425
 1731poe     o2 7805   7.300   1.357   4.790 -0.4240 -0.2430 -0.2529
 1731poe    c23 7806   7.424   1.386   4.852 -0.2239 -0.2335 -0.6531
 1731poe    c23 7807   7.399   1.452   4.989  0.1722 -0.6744 -0.3640
 1731poe     o2 7808   7.290   1.377   5.036  0.0034 -0.3027 -0.1539
 1731poe    c23 7809   7.253   1.407   5.168 -0.1623  0.0355 -0.2766
 1731poe    c23 7810   7.149   1.304   5.215  0.2806 -0.3777 -0.1992
 1731poe     o2 7811   7.056   1.272   5.114  0.0375 -0.2944 -0.0025
 1731poe    c31 7812   6.963   1.176   5.159 -0.0481 -0.1217  0.1896
 1732poe    c31 7813   5.494   1.985   6.047  0.1238  0.4806  0.4150
 1732poe     o2 7814   5.530   1.876   6.129 -0.1449  0.0001 -0.1035
 1732poe    c23 7815   5.420   1.828   6.203 -0.2267 -0.1639 -0.3285
 1732poe    c23 7816   5.461   1.698   6.275 -0.1046  0.0257 -0.0500
 1732poe     o2 7817   5.497   1.583   6.200 -0.3824  0.1505 -0.3794
 1732poe    c23 7818   5.491   1.474   6.289  0.1146  0.3604 -0.0870
 1732poe    c23 7819   5.548   1.341   6.237 -0.1031  0.0161  0.5405
 1732poe     o2 7820   5.672   1.355   6.172 -0.2244 -0.5104  0.1941
 1732poe    c23 7821   5.717   1.229   6.126 -0.3798 -0.2802 -0.6134
 1732poe    c23 7822   5.871   1.224   6.115 -0.3297  0.0283 -0.0771
 1732poe     o2 7823   5.917   1.283   5.995  0.2074 -0.2911 -0.0278
 1732poe    c31 7824   6.050   1.235   6.002  0.4360  0.4084  0.5180
 1733poe    c31 7825   1.239   6.201   3.747  0.0502  0.5840 -0.0372
 1733poe     o2 7826   1.376   6.227   3.725  0.0991  0.3426 -0.0172
 1733poe    c23 7827   1.413   6.346   3.791  0.2434  0.2132  0.1370
 1733poe    c23 7828   1.561   6.350   3.834  0.3356 -0.0055 -0.1534
 1733poe     o2 7829   1.646   6.338   3.722  0.2914  0.4799 -0.2447
 1733poe    c23 7830   1.783   6.361   3.741  0.3084 -0.2904  0.6475
 1733poe    c23 7831   1.874   6.263   3.664  0.3010 -0.1269  0.4311
 1733poe     o2 7832   1.844   6.265   3.526  0.7118 -0.8366  0.3304
 1733poe    c23 7833   1.932   6.189   3.446  0.7177 -0.2919 -0.1853
 1733poe    c23 7834   1.869   6.175   3.306 -0.1743  0.4711  0.1300
 1733poe     o2 7835   1.732   6.148   3.320 -0.1027  0.1241  0.1635
 1733poe    c31 7836   1.679   6.101   3.198 -0.8568  0.1524  0.4698
 1734poe    c31 7837   2.871   6.147   6.464 -0.2186 -0.4045  0.7950
 1734poe     o2 7838   2.844   6.284   6.441 -0.1035 -0.4858  0.1630
 1734poe    c23 7839   2.836   6.350   6.565 -0.0575  0.1948 -0.1921
 1734poe    c23 7840   2.786   6.491   6.529 -0.0381  0.3045  0.2072
 1734poe     o2 7841   2.901   6.564   6.493  0.0565  0.2212  0.3372
 1734poe    c23 7842   2.866   6.665   6.401  0.4883 -0.1412 -0.2326
 1734poe    c23 7843   3.008   6.706   6.356  0.1749  0.7650 -0.4169
 1734poe     o2 7844   3.085   6.724   6.472  0.4235 -0.3359 -0.4021
 1734poe    c23 7845   3.197   6.805   6.445 -0.0021  0.4673  0.2041
 1734poe    c23 7846   3.311   6.767   6.542 -0.3830  0.4896  0.6613
 1734poe     o2 7847   3.306   6.627   6.559  0.3206  0.3459 -0.2316
 1734poe    c31 7848   3.430   6.572   6.598 -0.2786 -0.4380  0.6204
 1735poe    c31 7849   5.977   4.688   5.872  0.7570 -0.7375 -0.1255
 1735poe     o2 7850   5.895   4.614   5.785 -0.3095  0.1716  0.0822
 1735poe    c23 7851   5.972   4.582   5.672  0.0017  0.0292  0.3356
 1735poe    c23 7852   5.883   4.551   5.550  0.3315 -0.3378  0.1849
 1735poe     o2 7853   5.790   4.651   5.515  0.3359 -0.3616  0.1044
 1735poe    c23 7854   5.712   4.605   5.407  0.9199  0.3511 -0.6319
 1735poe    c23 7855   5.586   4.689   5.377  0.2595 -0.2083  0.5055
 1735poe     o2 7856   5.503   4.703   5.490 -0.6476 -0.1573 -0.1625
 1735poe    c23 7857   5.377   4.755   5.452 -0.5103  0.0226 -0.3737
 1735poe    c23 7858   5.287   4.748   5.577  0.0480 -0.1217  0.0258
 1735poe     o2 7859   5.375   4.750   5.687  0.0278 -0.7477  0.0551
 1735poe    c31 7860   5.311   4.778   5.810 -0.0395  0.1191 -0.1689
 1736poe    c31 7861   5.054   5.350   1.627 -0.1159 -0.0608 -0.3413
 1736poe     o2 7862   5.040   5.214   1.590  0.5687 -0.2458  0.0593
 1736poe    c23 7863   5.032   5.136   1.707 -0.1954  0.0888  0.2390
 1736poe    c23 7864   5.167   5.070   1.743 -0.3588  0.0342  0.7528
 1736poe     o2 7865   5.263   5.167   1.778 -0.3355  0.4873 -0.5079
 1736poe    c23 7866   5.379   5.149   1.699  0.0942  0.0927  0.1979
 1736poe    c23 7867   5.501   5.237   1.733 -0.0139  0.1672  0.3994
 1736poe     o2 7868   5.583   5.200   1.841  0.0578 -0.1638  0.2339
 1736poe    c23 7869   5.523   5.238   1.963  0.0283 -0.9489  0.4680
 1736poe    c23 7870   5.623   5.297   2.064  0.0097  0.3525 -0.2496
 1736poe     o2 7871   5.743   5.225   2.051 -0.2323 -0.0975 -0.0252
 1736poe    c31 7872   5.836   5.285   2.138 -0.4100  0.0965  0.0307
 1737poe    c31 7873   1.992   3.332   4.456 -0.2237  0.4764 -0.3677
 1737poe     o2 7874   1.891   3.247   4.407 -0.1752  0.2220 -0.0276
 1737poe    c23 7875   1.899   3.129   4.483 -0.5214  0.4222  0.3262
 1737poe    c23 7876   1.794   3.026   4.438 -0.0631  0.2382 -0.3303
 1737poe     o2 7877   1.807   3.031   4.297  0.9319 -0.4435 -0.2791
 1737poe    c23 7878   1.719   2.937   4.239 -0.0586  0.5092 -0.3639
 1737poe    c23 7879   1.730   2.933   4.085 -0.6941  0.0992 -0.3967
 1737poe     o2 7880   1.717   3.069   4.052  0.4964  0.2411 -0.2961
 1737poe    c23 7881   1.713   3.068   3.911 -0.6915  0.5542 -0.2704
 1737poe    c23 7882   1.721   3.210   3.851 -0.1084  0.3879 -0.5903
 1737poe     o2 7883   1.837   3.282   3.884 -0.1699  0.2263 -0.0066
 1737poe    c31 7884   1.830   3.414   3.835  0.0802  0.1585 -0.2269
 1738poe    c31 7885   6.745   1.685   5.726 -0.1233 -0.2765  0.1563
 1738poe     o2 7886   6.745   1.826   5.720  0.2301 -0.2583  0.5802
 1738poe    c23 7887   6.695   1.873   5.844 -0.3637  0.2692  0.1493
 1738poe    c23 7888   6.704   2.027   5.845  0.2634  0.2474 -0.4936
 1738poe     o2 7889   6.643   2.071   5.726 -0.5694 -0.3087 -0.2881
 1738poe    c23 7890   6.618   2.210   5.727  0.0225 -0.1970 -0.0659
 1738poe    c23 7891   6.577   2.236   5.580 -0.1197 -0.1432 -0.0173
 1738poe     o2 7892   6.679   2.204   5.488 -0.1794 -0.1142 -0.0926
 1738poe    c23 7893   6.799   2.276   5.503 -0.2370 -0.1360  0.4831
 1738poe    c23 7894   6.901   2.250   5.390  0.2252 -0.0397  0.8761
 1738poe     o2 7895   6.962   2.123   5.383 -0.6094 -0.4074  0.1306
 1738poe    c31 7896   7.045   2.131   5.269 -0.1969  0.4954  0.4845
 1739poe    c31 7897   4.106   1.866   1.032  0.0868 -0.4542 -0.0946
 1739poe     o2 7898   3.995   1.917   1.103  0.2153  0.4163 -0.5040
 1739poe    c23 7899   3.989   2.056   1.081  0.1641  0.6021  0.6019
 1739poe    c23 7900   3.853   2.113   1.127 -0.0815  0.4193  0.1208
 1739poe     o2 7901   3.837   2.059   1.257  0.3492 -0.3608 -0.1409
 1739poe    c23 7902   3.706   2.085   1.301  0.2946 -0.3296 -0.3190
 1739poe    c23 7903   3.671   2.029   1.441 -0.2938  0.1990 -0.2465
 1739poe     o2 7904   3.702   1.893   1.456 -0.0262  0.1998 -0.7483
 1739poe    c23 7905   3.593   1.819   1.506  0.3140  0.3741  0.2944
 1739poe    c23 7906   3.624   1.668   1.506 -0.0801  0.2904  0.0936
 1739poe     o2 7907   3.636   1.633   1.370  0.4817 -0.0731  0.2343
 1739poe    c31 7908   3.602   1.496   1.362  0.1446  0.0301 -0.1326
 1740poe    c31 7909   3.150   6.766   4.477  0.0613  0.4736 -0.2823
 1740poe     o2 7910   3.033   6.838   4.509  0.2507  0.5727  0.1962
 1740poe    c23 7911   2.959   6.769   4.607  0.1835  0.1139 -0.1790
 1740poe    c23 7912   2.862   6.871   4.669 -0.5119 -0.3059 -0.5480
 1740poe     o2 7913   2.827   6.947   4.555  0.6290  0.9343 -0.0982
 1740poe    c23 7914   2.709   7.024   4.559 -0.2871 -0.4009 -0.7756
 1740poe    c23 7915   2.692   7.132   4.451 -0.7170  0.1996 -0.1142
 1740poe     o2 7916   2.804   7.217   4.464 -0.5126 -0.1090  0.1403
 1740poe    c23 7917   2.808   7.321   4.369  0.2586  0.1889  0.4913
 1740poe    c23 7918   2.910   7.428   4.412  0.4118  0.5186 -0.6537
 1740poe     o2 7919   3.029   7.369   4.460  0.1606  0.5081 -0.0257
 1740poe    c31 7920   3.143   7.452   4.454  0.0375  0.6695 -0.1898
 1741poe    c31 7921   2.550   2.370   2.480 -0.1866  0.5234  0.1575
 1741poe     o2 7922   2.677   2.329   2.434 -0.3564 -0.2340  0.3599
 1741poe    c23 7923   2.780   2.419   2.466 -0.2391 -0.2232 -0.0332
 1741poe    c23 7924   2.905   2.330   2.465  0.4282  0.6969 -0.0176
 1741poe     o2 7925   2.925   2.264   2.342 -0.2940  0.0704  0.1965
 1741poe    c23 7926   3.046   2.193   2.332 -0.5701 -0.3284 -0.3602
 1741poe    c23 7927   3.063   2.165   2.181  0.5924 -0.4727 -0.2072
 1741poe     o2 7928   2.955   2.088   2.134  0.0305  0.2594 -0.1180
 1741poe    c23 7929   2.932   2.084   1.995  0.0997 -0.4676 -0.1100
 1741poe    c23 7930   2.805   2.003   1.961 -0.2871  0.1118 -0.0543
 1741poe     o2 7931   2.691   2.064   2.017 -0.1760 -0.4114  0.7688
 1741poe    c31 7932   2.573   1.997   1.980 -0.1314 -0.3614  0.5344
 1742poe    c31 7933   0.535   5.960   4.514 -0.0217  0.0421 -0.2995
 1742poe     o2 7934   0.396   5.982   4.515 -0.0276  0.0011  0.0361
 1742poe    c23 7935   0.347   5.950   4.643 -0.3155  0.0337 -0.0654
 1742poe    c23 7936   0.197   5.913   4.643 -0.3057 -0.0241  0.6924
 1742poe     o2 7937   0.116   6.019   4.596 -0.2315 -0.2480  0.0416
 1742poe    c23 7938  -0.020   5.987   4.583 -0.2683 -0.0146 -0.1410
 1742poe    c23 7939  -0.080   6.103   4.501 -0.2575 -0.2200 -0.4434
 1742poe     o2 7940  -0.061   6.220   4.578 -0.4450  0.0525 -0.8035
 1742poe    c23 7941  -0.129   6.332   4.526 -0.6020  0.3656  0.0556
 1742poe    c23 7942  -0.062   6.454   4.592  0.0799  0.0534 -0.0460
 1742poe     o2 7943   0.073   6.425   4.620 -0.1606 -0.5394  0.5369
 1742poe    c31 7944   0.157   6.538   4.621 -0.7920 -0.0574 -0.2213
 1743poe    c31 7945   6.978   4.564   6.353  0.2861 -0.4523  0.2410
 1743poe     o2 7946   7.048   4.654   6.436 -0.3608 -0.0309  0.3339
 1743poe    c23 7947   6.977   4.769   6.478 -0.1382  0.0671  0.4409
 1743poe    c23 7948   7.088   4.861   6.532  0.0873 -0.2474  0.5144
 1743poe     o2 7949   7.193   4.788   6.592  0.1648 -0.5710 -0.0086
 1743poe    c23 7950   7.296   4.871   6.640 -0.1633 -0.4541  0.5099
 1743poe    c23 7951   7.395   4.767   6.695  0.6731  0.2581  0.3868
 1743poe     o2 7952   7.425   4.664   6.603 -0.4151 -0.9431  1.3311
 1743poe    c23 7953   7.564   4.657   6.579 -0.4980  0.0644  0.4927
 1743poe    c23 7954   7.610   4.520   6.527 -0.0308  0.2259  0.4818
 1743poe     o2 7955   7.569   4.488   6.396  0.2157 -0.0400  0.4686
 1743poe    c31 7956   7.676   4.451   6.312 -0.0095 -0.2765  0.2850
 1744poe    c31 7957   5.101   2.128   5.139  0.3972 -0.2033  0.6320
 1744poe     o2 7958   5.197   2.025   5.131 -0.2569 -0.7966  0.2719
 1744poe    c23 7959   5.323   2.075   5.169 -0.1424 -0.6305 -0.3102
 1744poe    c23 7960   5.417   2.086   5.047 -0.1496  0.0450 -0.2598
 1744poe     o2 7961   5.461   1.966   4.988 -0.4235 -0.2170  0.0610
 1744poe    c23 7962   5.519   1.985   4.861 -0.1732  0.2565  0.2444
 1744poe    c23 7963   5.606   1.861   4.836 -0.2521  0.3431 -0.4741
 1744poe     o2 7964   5.536   1.743   4.868  0.6898 -0.0920  0.0304
 1744poe    c23 7965   5.607   1.623   4.846 -0.1495 -0.5022 -0.5410
 1744poe    c23 7966   5.501   1.513   4.859 -0.2288 -0.3955 -0.2763
 1744poe     o2 7967   5.402   1.574   4.939  0.1331 -0.2219  0.0393
 1744poe    c31 7968   5.314   1.474   4.984  0.0119  0.0226  0.3473
 1745poe    c31 7969   6.663   3.092   2.853  0.1205 -0.2088  0.0541
 1745poe     o2 7970   6.760   2.997   2.815 -0.1984 -0.5326  0.0389
 1745poe    c23 7971   6.798   3.025   2.682  0.1199  0.1384  0.2668
 1745poe    c23 7972   6.858   2.896   2.624  0.1291  0.3909 -0.2862
 1745poe     o2 7973   6.970   2.855   2.699  0.1633  0.2716 -0.4009
 1745poe    c23 7974   7.011   2.735   2.637 -0.1759 -0.3187  0.4895
 1745poe    c23 7975   7.091   2.645   2.733  0.1698 -0.3991  0.1289
 1745poe     o2 7976   7.182   2.717   2.813 -0.0598  0.1163 -0.0709
 1745poe    c23 7977   7.236   2.637   2.916  0.0572 -0.4850 -0.5959
 1745poe    c23 7978   7.316   2.734   3.004 -0.7535  0.3116 -0.7190
 1745poe     o2 7979   7.251   2.859   3.016 -0.1698  0.5760 -0.2540
 1745poe    c31 7980   7.329   2.937   3.104  0.6624 -0.3239 -0.1731
 1746poe    c31 7981   3.495   5.146   0.486  0.2303 -0.1218 -0.2366
 1746poe     o2 7982   3.546   5.186   0.611 -0.2825 -0.4969  0.0957
 1746poe    c23 7983   3.445   5.246   0.689 -0.1880 -0.1065 -0.0813
 1746poe    c23 7984   3.510   5.305   0.815  0.2452 -0.3396 -0.1907
 1746poe     o2 7985   3.581   5.206   0.886  0.1065 -0.0370  0.3785
 1746poe    c23 7986   3.625   5.252   1.012 -0.1998  0.5561  0.2734
 1746poe    c23 7987   3.688   5.123   1.068 -0.5992 -0.0265 -0.5892
 1746poe     o2 7988   3.755   5.052   0.967  0.0429  0.0241 -0.2041
 1746poe    c23 7989   3.792   4.932   1.030 -0.1874  0.1751  0.2176
 1746poe    c23 7990   3.839   4.818   0.938  0.1638  0.7658 -0.3354
 1746poe     o2 7991   3.745   4.766   0.846  0.0640  0.0263  0.1848
 1746poe    c31 7992   3.805   4.659   0.777  0.4436  0.5262 -0.2695
 1747poe    c31 7993   3.169   1.625   1.825 -0.1576 -0.1548  0.2848
 1747poe     o2 7994   3.212   1.562   1.706  0.1107  0.1634  0.2121
 1747poe    c23 7995   3.196   1.423   1.718 -0.0792  0.1323 -0.4158
 1747poe    c23 7996   3.237   1.335   1.598  0.0409 -0.2756 -0.0755
 1747poe     o2 7997   3.203   1.375   1.468  0.2702 -0.0694 -0.0735
 1747poe    c23 7998   3.281   1.298   1.379 -0.3495 -0.3953 -0.3404
 1747poe    c23 7999   3.259   1.325   1.229  0.0867  0.1190 -0.3119
 1747poe     o2 8000   3.298   1.458   1.204  0.3674  0.1144  0.0865
 1747poe    c23 8001   3.290   1.479   1.064  0.3651 -0.5650 -0.0160
 1747poe    c23 8002   3.380   1.604   1.067 -0.3926 -0.0115 -0.2431
 1747poe     o2 8003   3.318   1.697   1.153 -0.4575 -0.3478  0.0786
 1747poe    c31 8004   3.375   1.826   1.148 -0.2481 -0.4488 -0.2063
 1748poe    c31 8005   1.146   5.777   3.954  0.0456 -0.2094  0.0820
 1748poe     o2 8006   1.109   5.672   4.040  0.1771 -0.0820  0.2966
 1748poe    c23 8007   0.993   5.603   3.998 -0.0428  0.2391  0.3735
 1748poe    c23 8008   0.948   5.478   4.075  0.1113 -0.1226 -0.1247
 1748poe     o2 8009   0.945   5.498   4.215 -0.1730 -0.7765 -0.0314
 1748poe    c23 8010   0.844   5.581   4.266  0.2099 -0.5785  0.4117
 1748poe    c23 8011   0.845   5.591   4.420  0.0511 -0.0241  0.3772
 1748poe     o2 8012   0.951   5.675   4.462  0.1521 -0.1741  0.4243
 1748poe    c23 8013   0.932   5.726   4.592  0.3383  0.6078  0.1506
 1748poe    c23 8014   1.052   5.804   4.649  0.1887  0.2909  0.9192
 1748poe     o2 8015   1.173   5.753   4.598 -0.4915 -0.1846 -0.2749
 1748poe    c31 8016   1.285   5.792   4.676 -0.3253  0.1280 -0.6689
 1749poe    c31 8017   1.500   4.993   5.219  0.1595 -0.0413 -0.2227
 1749poe     o2 8018   1.396   4.958   5.130 -0.1558  0.2430  0.0331
 1749poe    c23 8019   1.414   5.019   5.005 -0.2811 -0.1322 -0.1694
 1749poe    c23 8020   1.284   4.980   4.932 -0.4129  0.4953 -0.2710
 1749poe     o2 8021   1.267   4.844   4.962  0.4701  0.3921 -0.2021
 1749poe    c23 8022   1.158   4.791   4.889  0.1310  0.5731  0.1647
 1749poe    c23 8023   1.118   4.655   4.950 -0.4092  0.3581 -0.6466
 1749poe     o2 8024   1.113   4.668   5.090 -0.1260 -0.3270 -0.5705
 1749poe    c23 8025   1.025   4.566   5.131 -0.4549  0.0516 -0.3264
 1749poe    c23 8026   1.056   4.511   5.272 -0.0892  0.3282 -0.2995
 1749poe     o2 8027   1.013   4.592   5.379 -0.1418 -0.4633  0.2837
 1749poe    c31 8028   1.059   4.529   5.497 -0.2590 -0.1123  0.5180
 1750poe    c31 8029   4.035   4.127   0.355 -0.1228 -0.1874 -0.2071
 1750poe     o2 8030   4.068   4.232   0.443  0.2591 -0.4127 -0.0796
 1750poe    c23 8031   4.020   4.355   0.393  0.1036 -0.3063  0.3261
 1750poe    c23 8032   4.090   4.467   0.470  0.0237 -0.2409  0.3032
 1750poe     o2 8033   4.228   4.481   0.447  0.0147 -0.5465  0.0682
 1750poe    c23 8034   4.291   4.561   0.544  0.0610 -0.4286 -0.0577
 1750poe    c23 8035   4.442   4.590   0.532  0.0312 -0.4984 -0.6121
 1750poe     o2 8036   4.493   4.652   0.416  0.3874  0.2297 -0.0730
 1750poe    c23 8037   4.631   4.650   0.388  0.4184  0.2777  0.0742
 1750poe    c23 8038   4.668   4.741   0.269  0.4883 -0.0266 -0.1361
 1750poe     o2 8039   4.605   4.725   0.144 -0.4179  0.2684  0.2725
 1750poe    c31 8040   4.660   4.822   0.057 -0.1719 -0.6028 -0.5612
 1751poe    c31 8041   3.168   2.975   0.505 -0.0222  0.0069 -0.4877
 1751poe     o2 8042   3.099   2.863   0.557  0.3293 -0.1116 -0.2675
 1751poe    c23 8043   3.040   2.895   0.681 -0.2599 -0.1402 -0.5333
 1751poe    c23 8044   2.992   2.765   0.749  0.3254  0.1292  0.4169
 1751poe     o2 8045   3.099   2.686   0.795  0.1672 -0.2800  0.0957
 1751poe    c23 8046   3.063   2.586   0.887 -0.0930 -0.1504  0.1355
 1751poe    c23 8047   3.027   2.448   0.830  0.0938 -0.2845  0.3359
 1751poe     o2 8048   3.150   2.384   0.806  0.1560  0.0265 -0.1969
 1751poe    c23 8049   3.127   2.245   0.808  0.0673  0.0426 -0.1123
 1751poe    c23 8050   3.256   2.167   0.778  0.0168 -0.0873  0.0026
 1751poe     o2 8051   3.310   2.202   0.652 -0.0340 -0.1578 -0.0385
 1751poe    c31 8052   3.440   2.151   0.635 -0.0143 -0.2147  0.2728
 1752poe    c31 8053   5.208   5.641   3.253  0.5723 -0.2818  0.7289
 1752poe     o2 8054   5.138   5.716   3.349 -0.9197 -0.1267 -0.4502
 1752poe    c23 8055   5.094   5.636   3.456  0.3763  0.1454  0.3137
 1752poe    c23 8056   4.990   5.712   3.540 -0.2916  0.3640 -0.6924
 1752poe     o2 8057   5.031   5.834   3.598 -0.2808  0.3253 -0.6178
 1752poe    c23 8058   4.933   5.894   3.680  0.0973  0.0389  0.0496
 1752poe    c23 8059   4.981   6.035   3.717  0.8082 -0.0615 -0.4705
 1752poe     o2 8060   4.967   6.118   3.604  0.2975 -0.3283 -0.6041
 1752poe    c23 8061   4.996   6.250   3.645  0.3261 -0.5903  0.2394
 1752poe    c23 8062   4.976   6.333   3.517  0.1135 -0.5468  0.3001
 1752poe     o2 8063   5.036   6.257   3.414  0.4499  0.0998  0.0173
 1752poe    c31 8064   5.115   6.330   3.322 -0.0761 -0.0333 -0.5410
 1753poe    c31 8065   6.960   6.755   1.249 -0.0030 -0.0359 -0.1685
 1753poe     o2 8066   6.919   6.882   1.296  0.0867  0.0563 -0.3388
 1753poe    c23 8067   6.923   6.891   1.437  0.7549  0.7024 -0.3932
 1753poe    c23 8068   6.851   7.020   1.482  0.1783  0.3025 -0.1619
 1753poe     o2 8069   6.892   7.126   1.399  0.5896  0.1736 -0.1245
 1753poe    c23 8070   6.834   7.246   1.443 -0.1143 -0.3418  0.3715
 1753poe    c23 8071   6.867   7.356   1.341  0.2349 -0.8297 -0.0435
 1753poe     o2 8072   6.812   7.336   1.213  0.0298  0.1175 -0.1104
 1753poe    c23 8073   6.708   7.422   1.171  0.4428  0.5469 -0.2663
 1753poe    c23 8074   6.654   7.380   1.032  0.2037 -0.0273 -0.0059
 1753poe     o2 8075   6.614   7.245   1.026 -0.0607  0.0628 -0.2279
 1753poe    c31 8076   6.513   7.216   0.931  0.2451  0.2089 -0.5991
 1754poe    c31 8077   1.821   6.257   2.380  0.2949  0.3863  0.4345
 1754poe     o2 8078   1.855   6.393   2.362  0.4181  0.2943 -0.0388
 1754poe    c23 8079   1.823   6.464   2.479 -0.8082 -0.2304 -0.0377
 1754poe    c23 8080   1.777   6.608   2.446  0.0301  0.0410 -0.0396
 1754poe     o2 8081   1.653   6.627   2.383 -0.0862 -0.0054  0.1746
 1754poe    c23 8082   1.656   6.587   2.248 -0.2015  0.1031  0.1386
 1754poe    c23 8083   1.515   6.546   2.202 -0.0140 -0.2858 -0.0973
 1754poe     o2 8084   1.429   6.636   2.269  0.2363  0.0128 -0.1748
 1754poe    c23 8085   1.293   6.623   2.233  0.0993 -0.2254  0.4172
 1754poe    c23 8086   1.202   6.723   2.307 -0.1602  0.0899 -0.3131
 1754poe     o2 8087   1.260   6.733   2.436  0.2356 -0.1174 -0.4720
 1754poe    c31 8088   1.166   6.803   2.514  0.4018 -0.1706 -0.2237
 1755poe    c31 8089   4.277   1.241   0.491 -0.1184 -0.2685 -0.0404
 1755poe     o2 8090   4.171   1.327   0.456 -0.0535 -0.0776  0.2252
 1755poe    c23 8091   4.122   1.304   0.326 -0.0280  0.0754  0.1893
 1755poe    c23 8092   4.061   1.439   0.283 -0.0539  0.0746  0.2235
 1755poe     o2 8093   4.140   1.556   0.293 -0.3556  0.2864  0.1335
 1755poe    c23 8094   4.232   1.570   0.187 -0.4094 -0.0695  0.0388
 1755poe    c23 8095   4.308   1.703   0.200 -0.3225 -0.1080 -0.0795
 1755poe     o2 8096   4.376   1.704   0.323  0.4631 -0.3116 -0.5030
 1755poe    c23 8097   4.450   1.821   0.352  0.0644 -0.1448 -0.1540
 1755poe    c23 8098   4.467   1.809   0.505 -0.1902  0.2457 -0.0931
 1755poe     o2 8099   4.340   1.799   0.566 -0.2069  0.5191 -0.0798
 1755poe    c31 8100   4.349   1.840   0.700  0.2317 -0.0697  0.0760
 1756poe    c31 8101   4.341   5.154   5.474 -0.6269 -0.0254 -0.1604
 1756poe     o2 8102   4.385   5.026   5.433  0.2571 -0.0246  0.7577
 1756poe    c23 8103   4.310   4.972   5.327  0.0153  0.4860  0.6648
 1756poe    c23 8104   4.189   4.897   5.385 -0.0333  0.4075  0.4630
 1756poe     o2 8105   4.235   4.781   5.452 -0.1319 -0.1706 -0.4553
 1756poe    c23 8106   4.141   4.715   5.533 -0.0143 -0.2475 -0.3806
 1756poe    c23 8107   4.090   4.783   5.661 -0.1042 -0.6315 -0.2118
 1756poe     o2 8108   4.193   4.802   5.755  0.1066 -0.3510 -0.4966
 1756poe    c23 8109   4.146   4.810   5.887  0.5026 -0.6099 -0.3383
 1756poe    c23 8110   4.255   4.881   5.970 -0.0690 -0.1400  0.0168
 1756poe     o2 8111   4.378   4.814   5.959 -0.0201 -0.0303 -0.1042
 1756poe    c31 8112   4.481   4.908   5.982 -0.1100  0.0038  0.1570
 1757poe    c31 8113   4.523   1.678   6.912  0.9976 -0.2217 -0.5171
 1757poe     o2 8114   4.558   1.559   6.846 -0.0578 -0.1260 -1.2596
 1757poe    c23 8115   4.483   1.448   6.892  0.0433  0.2145 -0.2685
 1757poe    c23 8116   4.486   1.333   6.790 -0.3696 -0.0842  0.0550
 1757poe     o2 8117   4.618   1.333   6.741 -0.3184 -0.0050  0.1898
 1757poe    c23 8118   4.663   1.229   6.657  0.0425  0.5782 -0.3482
 1757poe    c23 8119   4.816   1.237   6.643  0.0758 -0.4133 -0.6213
 1757poe     o2 8120   4.843   1.373   6.617 -0.4262 -0.0828  0.5463
 1757poe    c23 8121   4.973   1.376   6.563 -0.4476  0.2979  0.5145
 1757poe    c23 8122   4.999   1.528   6.558  0.2283  0.1789  0.2900
 1757poe     o2 8123   4.935   1.580   6.444  0.3056 -0.1654  0.0882
 1757poe    c31 8124   4.932   1.721   6.445  0.0629 -0.1667 -0.4044
 1758poe    c31 8125   5.148   3.919   5.245  0.1819 -0.3810  0.6265
 1758poe     o2 8126   5.036   3.965   5.317  0.0580  0.1581  0.0957
 1758poe    c23 8127   5.064   4.103   5.335  0.8129 -0.0614  0.6603
 1758poe    c23 8128   4.965   4.165   5.435  0.1964  0.5247 -0.2936
 1758poe     o2 8129   4.834   4.117   5.415  0.1537  0.3131  0.4556
 1758poe    c23 8130   4.729   4.178   5.486 -0.2362  0.1525  0.0182
 1758poe    c23 8131   4.594   4.113   5.450 -0.2092  0.0262  0.1445
 1758poe     o2 8132   4.593   3.978   5.492 -0.0410  0.1221  0.4642
 1758poe    c23 8133   4.494   3.905   5.422  0.3222 -0.0015  0.0777
 1758poe    c23 8134   4.504   3.762   5.480 -0.2720 -0.1623 -0.2114
 1758poe     o2 8135   4.637   3.716   5.467 -0.2383 -0.2237  0.3189
 1758poe    c31 8136   4.623   3.580   5.499  0.2840 -0.3067  0.1965
 1759poe    c31 8137   3.444   2.058   3.820  0.3710 -0.2003  0.0714
 1759poe     o2 8138   3.424   1.984   3.702  0.1293  0.1109 -0.0838
 1759poe    c23 8139   3.422   1.848   3.739  0.5750  0.1641  0.1410
 1759poe    c23 8140   3.505   1.754   3.650 -0.4058 -0.1139 -0.5020
 1759poe     o2 8141   3.472   1.735   3.515  0.3468  0.2361 -0.7371
 1759poe    c23 8142   3.347   1.684   3.474 -0.1240  0.7495  0.0483
 1759poe    c23 8143   3.316   1.719   3.328 -0.4125 -0.1891 -0.1198
 1759poe     o2 8144   3.272   1.852   3.311  0.2599  0.0348 -0.1168
 1759poe    c23 8145   3.228   1.878   3.180  0.1737 -0.2252 -0.1395
 1759poe    c23 8146   3.275   2.008   3.112 -0.3176 -0.0725 -0.1929
 1759poe     o2 8147   3.172   2.047   3.025 -0.2515  0.5954  0.0209
 1759poe    c31 8148   3.219   2.119   2.914  0.0923  0.6203  0.1832
 1760poe    c31 8149   4.696   0.661   0.260 -0.4219  0.2026 -0.0599
 1760poe     o2 8150   4.659   0.632   0.127 -0.1515 -0.1814 -0.0537
 1760poe    c23 8151   4.577   0.735   0.076 -0.6033 -0.6120 -0.2108
 1760poe    c23 8152   4.517   0.701  -0.061 -0.0786 -0.0928 -0.5726
 1760poe     o2 8153   4.425   0.595  -0.052 -0.2779  0.1477  0.3380
 1760poe    c23 8154   4.365   0.576  -0.179 -0.2463  0.2630  0.3053
 1760poe    c23 8155   4.278   0.451  -0.203  0.0477  0.1380 -0.0977
 1760poe     o2 8156   4.362   0.338  -0.187  0.1224  0.1917 -0.1085
 1760poe    c23 8157   4.319   0.237  -0.276 -0.1114  0.1100  0.0947
 1760poe    c23 8158   4.408   0.111  -0.270  0.3260  0.4280  0.4184
 1760poe     o2 8159   4.523   0.114  -0.351  0.1333 -0.2900  0.1110
 1760poe    c31 8160   4.554  -0.019  -0.387  0.4197 -0.1416 -0.1889
 1761poe    c31 8161   3.835   0.061   1.368 -0.2929 -0.0675 -0.8053
 1761poe     o2 8162   3.915   0.017   1.475  0.0230  0.5335 -0.7923
 1761poe    c23 8163   3.994   0.116   1.537 -0.0281  0.0721  0.0236
 1761poe    c23 8164   4.014   0.083   1.686  0.1869 -0.3645 -0.1033
 1761poe     o2 8165   4.087  -0.034   1.717  0.5373 -0.0584  0.2418
 1761poe    c23 8166   4.049  -0.103   1.834 -0.3584 -0.4345 -0.2667
 1761poe    c23 8167   4.121  -0.230   1.880  0.1084 -0.0458  0.0826
 1761poe     o2 8168   4.127  -0.321   1.772 -0.6344  0.5302 -0.4516
 1761poe    c23 8169   4.154  -0.450   1.821 -0.4843  0.6180 -0.3033
 1761poe    c23 8170   4.142  -0.547   1.701 -0.5288  0.0214  0.1758
 1761poe     o2 8171   4.192  -0.479   1.588  0.3156 -0.3866  0.2961
 1761poe    c31 8172   4.186  -0.561   1.474 -0.2088 -0.3019  0.2583
 1762poe    c31 8173   0.455   4.678   1.361  0.6117  0.2811 -0.2014
 1762poe     o2 8174   0.522   4.578   1.288 -0.5495 -0.2798 -0.5119
 1762poe    c23 8175   0.477   4.451   1.330 -0.2483 -0.1036  0.3580
 1762poe    c23 8176   0.555   4.349   1.244 -0.2961  0.1512  0.0082
 1762poe     o2 8177   0.687   4.401   1.245 -0.2678  0.0780  0.1630
 1762poe    c23 8178   0.786   4.314   1.195  0.2648  0.7235  0.0780
 1762poe    c23 8179   0.924   4.379   1.177  0.5408  0.1104 -0.0639
 1762poe     o2 8180   0.919   4.490   1.091  0.0568  0.5532  0.5206
 1762poe    c23 8181   1.048   4.548   1.083  0.2874 -0.0294 -0.0484
 1762poe    c23 8182   1.059   4.677   1.000 -0.0025 -0.1125 -0.2193
 1762poe     o2 8183   0.992   4.781   1.069  0.1915 -0.2497  0.1773
 1762poe    c31 8184   0.991   4.901   0.996 -1.2418 -0.4767 -0.2032
 1763poe    c31 8185   4.505   3.461   6.924  0.0337 -0.3555  0.2810
 1763poe     o2 8186   4.604   3.457   6.823 -0.0920 -0.6745  0.1704
 1763poe    c23 8187   4.732   3.459   6.881  0.1208  0.2342 -0.3051
 1763poe    c23 8188   4.845   3.483   6.779  0.4526  0.0348  0.0108
 1763poe     o2 8189   4.793   3.452   6.651  0.0463 -0.0756  0.2024
 1763poe    c23 8190   4.851   3.536   6.554  0.4501 -0.9245 -0.3017
 1763poe    c23 8191   4.761   3.527   6.429 -0.4264 -0.4679  0.2883
 1763poe     o2 8192   4.635   3.552   6.487 -0.3757  0.2758  0.0864
 1763poe    c23 8193   4.533   3.562   6.389 -0.6780 -0.2812  0.3381
 1763poe    c23 8194   4.426   3.650   6.457 -1.0034  0.0001 -0.5307
 1763poe     o2 8195   4.425   3.594   6.587  0.0944  0.9049 -0.1203
 1763poe    c31 8196   4.303   3.626   6.651 -0.0001  0.1074  0.1050
 1764poe    c31 8197   1.672   5.477   5.377 -0.1003 -0.7331 -0.8235
 1764poe     o2 8198   1.631   5.421   5.500 -0.0792  0.1552 -0.4023
 1764poe    c23 8199   1.492   5.441   5.514 -0.0616  0.0791 -0.1234
 1764poe    c23 8200   1.416   5.307   5.515  0.3880 -0.1759  0.5568
 1764poe     o2 8201   1.483   5.210   5.592  0.4162 -0.5522  0.0644
 1764poe    c23 8202   1.471   5.238   5.730  0.2783 -0.1663 -0.0247
 1764poe    c23 8203   1.536   5.127   5.815 -0.1618 -0.5281 -0.1548
 1764poe     o2 8204   1.667   5.111   5.766  0.0292  0.2316  0.0927
 1764poe    c23 8205   1.736   5.009   5.833  0.2845  0.4778  0.2064
 1764poe    c23 8206   1.890   5.011   5.826  0.2695  0.7319 -0.0683
 1764poe     o2 8207   1.917   5.037   5.690  0.2196 -0.1535 -0.2515
 1764poe    c31 8208   2.046   5.000   5.648  0.5542  0.7244 -0.0209
 1765poe    c31 8209   1.810   4.637   5.118  0.5988 -0.0906 -0.1232
 1765poe     o2 8210   1.915   4.547   5.091  0.1407 -0.6627 -0.0216
 1765poe    c23 8211   2.009   4.575   5.193 -0.0981 -0.4426  0.1386
 1765poe    c23 8212   2.144   4.502   5.179  0.1745 -0.0239  0.5607
 1765poe     o2 8213   2.110   4.365   5.170 -0.8713  0.2243  0.5302
 1765poe    c23 8214   2.222   4.283   5.196 -0.6221  0.3081 -0.2391
 1765poe    c23 8215   2.181   4.136   5.173 -0.2733  0.2319 -0.3830
 1765poe     o2 8216   2.155   4.107   5.038  0.1639 -0.0380 -0.4094
 1765poe    c23 8217   2.100   3.977   5.034  0.1704 -0.0318 -0.8061
 1765poe    c23 8218   1.992   3.958   4.927 -0.3667 -0.4392 -0.1967
 1765poe     o2 8219   1.876   4.036   4.948 -0.1830 -0.2303  0.0427
 1765poe    c31 8220   1.793   4.036   4.834  0.4693 -0.2279 -0.4394
 1766poe    c31 8221   2.330   2.579   6.648  0.4544  0.2594 -0.3448
 1766poe     o2 8222   2.392   2.698   6.605  0.4868  0.4589  0.2437
 1766poe    c23 8223   2.343   2.727   6.475  0.4349 -0.6847  0.0004
 1766poe    c23 8224   2.440   2.832   6.419  0.0023 -0.3044 -0.0403
 1766poe     o2 8225   2.449   2.933   6.518  0.1286  0.0121 -0.3711
 1766poe    c23 8226   2.547   3.033   6.505  0.3339 -0.1186  0.1606
 1766poe    c23 8227   2.547   3.132   6.623  0.3393  0.1266 -0.0440
 1766poe     o2 8228   2.555   3.061   6.745  0.1421  0.6329  0.2652
 1766poe    c23 8229   2.569   3.161   6.844 -0.0502  0.2205  0.7158
 1766poe    c23 8230   2.615   3.098   6.976  0.1582 -0.1724  0.4579
 1766poe     o2 8231   2.541   2.986   7.020 -0.4382  0.1592  0.3175
 1766poe    c31 8232   2.610   2.930   7.130  0.0555  0.0056 -0.0625
 1767poe    c31 8233   3.787   0.356   2.056  0.0388 -0.6380  0.1369
 1767poe     o2 8234   3.869   0.427   1.966 -0.1844 -0.0633  0.3845
 1767poe    c23 8235   3.997   0.368   1.963  0.1404  0.6344  0.2204
 1767poe    c23 8236   4.100   0.477   1.930 -0.0671  0.6629 -0.3384
 1767poe     o2 8237   4.098   0.594   2.008  0.1700  0.1409  0.4531
 1767poe    c23 8238   4.168   0.703   1.952  0.2503 -0.1133  0.0580
 1767poe    c23 8239   4.176   0.812   2.061  0.3041  0.2699 -0.3267
 1767poe     o2 8240   4.046   0.855   2.095  0.4248  0.4028 -0.0354
 1767poe    c23 8241   4.048   0.977   2.167  0.4157  0.2644  0.2001
 1767poe    c23 8242   3.912   1.048   2.178  0.3966  0.2342  0.1603
 1767poe     o2 8243   3.818   0.975   2.253 -0.0390  0.5186 -0.1034
 1767poe    c31 8244   3.687   1.024   2.236  0.0139  0.7531  0.1584
 1768poe    c31 8245   0.834   5.504   6.385  0.0950 -0.0529 -0.1642
 1768poe     o2 8246   0.713   5.480   6.453  0.0115  0.2866 -0.1908
 1768poe    c23 8247   0.663   5.598   6.511 -0.0211  0.0051  0.3637
 1768poe    c23 8248   0.550   5.552   6.605  0.1916  0.0672  0.6496
 1768poe     o2 8249   0.484   5.444   6.544  0.3492  0.3543 -0.0372
 1768poe    c23 8250   0.371   5.391   6.609  0.5333 -0.2320 -0.1910
 1768poe    c23 8251   0.305   5.302   6.502  0.0805 -0.5747  0.3615
 1768poe     o2 8252   0.406   5.221   6.445  0.3924 -0.2047  0.3794
 1768poe    c23 8253   0.353   5.162   6.328  0.0551 -0.0982  0.4779
 1768poe    c23 8254   0.421   5.029   6.290  0.0559 -0.1058  0.5071
 1768poe     o2 8255   0.561   5.031   6.273 -0.0487 -0.1002 -0.4235
 1768poe    c31 8256   0.612   4.936   6.182 -0.5528 -0.4532 -0.3454
 1769poe    c31 8257   6.046   3.047   2.616 -0.5755  0.1523  0.3010
 1769poe     o2 8258   6.028   2.913   2.654  0.4276 -0.0031  0.2547
 1769poe    c23 8259   5.910   2.903   2.730  0.1853 -0.0957 -0.1260
 1769poe    c23 8260   5.903   2.755   2.771  0.1584  0.0433  0.3790
 1769poe     o2 8261   6.038   2.728   2.801  0.2884 -0.0985 -0.3176
 1769poe    c23 8262   6.043   2.601   2.860 -0.5630  0.0561  0.1079
 1769poe    c23 8263   6.192   2.564   2.873 -0.5442 -0.0179 -0.3231
 1769poe     o2 8264   6.258   2.604   2.755 -0.0861 -0.4602 -0.2212
 1769poe    c23 8265   6.382   2.537   2.758  0.1908  0.0507 -0.0913
 1769poe    c23 8266   6.463   2.567   2.630  0.1318 -0.0807 -0.1589
 1769poe     o2 8267   6.471   2.705   2.605 -0.0011 -0.0171  0.1445
 1769poe    c31 8268   6.530   2.719   2.477  0.0063 -0.4142  0.1041
 1770poe    c31 8269   0.819   6.499   0.507  0.4363 -0.6492 -0.3114
 1770poe     o2 8270   0.699   6.430   0.535  0.2335 -0.2703 -0.2475
 1770poe    c23 8271   0.711   6.366   0.661 -0.0041  0.7332  0.2975
 1770poe    c23 8272   0.619   6.243   0.670  0.2959  0.4735 -0.1686
 1770poe     o2 8273   0.482   6.275   0.676  0.0473 -0.5588 -0.1269
 1770poe    c23 8274   0.422   6.226   0.558  0.4100 -0.8029 -0.2109
 1770poe    c23 8275   0.271   6.252   0.575  0.5827  0.1135 -0.0520
 1770poe     o2 8276   0.236   6.384   0.537 -0.1656 -0.1960 -0.4530
 1770poe    c23 8277   0.099   6.409   0.558 -0.0777 -0.3367  0.3286
 1770poe    c23 8278   0.043   6.532   0.485  0.2860 -0.2299  0.2280
 1770poe     o2 8279   0.088   6.660   0.524  0.4644 -0.3673  0.4699
 1770poe    c31 8280   0.069   6.747   0.415  0.0810 -0.8208  0.1676
 1771poe    c31 8281   4.904   2.197   2.348 -0.1419 -0.0403 -0.3815
 1771poe     o2 8282   4.990   2.270   2.433 -0.5722 -0.4724  0.4369
 1771poe    c23 8283   5.106   2.195   2.464 -0.0630  0.0944 -0.0517
 1771poe    c23 8284   5.107   2.129   2.603 -0.4366  0.1944  0.0018
 1771poe     o2 8285   5.148   2.208   2.712  0.0956  0.2341 -0.2222
 1771poe    c23 8286   5.179   2.133   2.828 -0.0869  0.4414 -0.0394
 1771poe    c23 8287   5.244   2.231   2.927 -0.1703  0.1935  0.2633
 1771poe     o2 8288   5.149   2.314   2.991  0.0884  0.1964  0.6484
 1771poe    c23 8289   5.199   2.368   3.111 -0.2038  0.2627  0.7389
 1771poe    c23 8290   5.086   2.440   3.188 -0.2102  0.4559  0.5497
 1771poe     o2 8291   5.047   2.561   3.128 -0.0433  0.3044  0.1334
 1771poe    c31 8292   4.926   2.610   3.182 -0.3081  0.1446 -0.3088
 1772poe    c31 8293   5.329   6.324   0.135 -0.2647  0.3094 -0.5439
 1772poe     o2 8294   5.244   6.225   0.189  0.5578  0.0063  0.2226
 1772poe    c23 8295   5.117   6.286   0.199  0.0730 -0.8508 -0.6065
 1772poe    c23 8296   4.994   6.194   0.199 -0.2849 -0.3795  0.2480
 1772poe     o2 8297   4.985   6.152   0.064 -0.2288 -0.2334  0.1993
 1772poe    c23 8298   4.942   6.020   0.044 -0.3890 -0.1183 -0.2176
 1772poe    c23 8299   4.959   5.997  -0.107  0.1966 -0.5118 -0.0950
 1772poe     o2 8300   4.875   6.095  -0.164  0.3751 -0.3578 -0.0952
 1772poe    c23 8301   4.836   6.070  -0.298 -0.0970 -0.2029  0.0099
 1772poe    c23 8302   4.776   6.202  -0.349  0.6050 -0.0255 -0.3625
 1772poe     o2 8303   4.863   6.307  -0.313  0.2883  0.1847 -0.2125
 1772poe    c31 8304   4.807   6.428  -0.358  0.0285  0.0978 -0.1281
 1773poe    c31 8305   0.353   0.962   6.072  0.3616  0.5067  0.4852
 1773poe     o2 8306   0.248   1.028   6.004  0.0314 -0.3728  0.1215
 1773poe    c23 8307   0.297   1.053   5.874  0.2667 -0.3971  0.2059
 1773poe    c23 8308   0.176   1.124   5.812  0.3695 -0.1684  0.2660
 1773poe     o2 8309   0.088   1.188   5.902  0.3375  0.0699  0.0660
 1773poe    c23 8310  -0.028   1.234   5.838  0.4381 -0.2830 -0.3695
 1773poe    c23 8311  -0.119   1.280   5.953  0.2174 -0.8446 -0.3104
 1773poe     o2 8312  -0.122   1.185   6.057  0.5645 -0.1777  0.3260
 1773poe    c23 8313  -0.220   1.216   6.153  0.6697 -0.0840  0.4033
 1773poe    c23 8314  -0.249   1.121   6.271  0.4192 -0.3768  0.1077
 1773poe     o2 8315  -0.134   1.100   6.350  0.4280  0.1509  0.2430
 1773poe    c31 8316  -0.172   1.004   6.446 -0.1874  0.3679  0.2251
 1774poe    c31 8317   1.615   2.736   2.391 -0.3477 -0.1297 -0.3020
 1774poe     o2 8318   1.638   2.680   2.518 -0.1438 -0.3484 -0.4353
 1774poe    c23 8319   1.537   2.591   2.560 -0.1326 -0.0386  0.2540
 1774poe    c23 8320   1.592   2.503   2.674  0.0018  0.3452  0.4887
 1774poe     o2 8321   1.700   2.422   2.633  0.2023  0.6150  0.4835
 1774poe    c23 8322   1.695   2.303   2.708  0.2345  0.3394  0.0480
 1774poe    c23 8323   1.805   2.205   2.662 -0.1382 -0.4431  0.7861
 1774poe     o2 8324   1.902   2.294   2.611 -0.0956 -0.7458  0.3302
 1774poe    c23 8325   2.017   2.230   2.560  0.2778  0.0726  0.1139
 1774poe    c23 8326   2.115   2.335   2.506  0.4495 -0.2853 -0.2794
 1774poe     o2 8327   2.066   2.409   2.397  0.0261 -0.1661 -0.0107
 1774poe    c31 8328   2.167   2.477   2.327 -0.2513  0.3567  0.0872
 1775poe    c31 8329   4.608   1.062   4.270  0.4617  0.1962 -0.2159
 1775poe     o2 8330   4.644   1.156   4.369  0.1602  0.5904 -0.4762
 1775poe    c23 8331   4.751   1.230   4.315  0.3882  0.2034 -0.5617
 1775poe    c23 8332   4.838   1.288   4.429  0.0951 -0.4985  0.0219
 1775poe     o2 8333   4.744   1.341   4.520  0.3583  0.2346 -0.1318
 1775poe    c23 8334   4.806   1.416   4.622  0.2736 -0.3777  0.3720
 1775poe    c23 8335   4.704   1.488   4.712  0.3063 -0.3290  0.3696
 1775poe     o2 8336   4.603   1.395   4.746  0.0783 -0.4262 -0.5408
 1775poe    c23 8337   4.513   1.465   4.829  0.3144 -0.8654  0.1009
 1775poe    c23 8338   4.405   1.364   4.873 -0.2161 -0.2326  0.2648
 1775poe     o2 8339   4.326   1.331   4.761  0.0058  0.0284  0.0279
 1775poe    c31 8340   4.241   1.222   4.788 -0.4919  0.4951  0.3878
 1776poe    c31 8341   5.329   3.107   2.710 -0.9056  0.1127 -0.0847
 1776poe     o2 8342   5.332   3.072   2.573 -0.6382  0.0003 -0.0511
 1776poe    c23 8343   5.403   2.956   2.538  0.2879  0.5947 -0.1905
 1776poe    c23 8344   5.376   2.941   2.387  0.1713  0.1690 -0.1280
 1776poe     o2 8345   5.412   3.063   2.327  0.7634 -0.1228 -0.3730
 1776poe    c23 8346   5.432   3.052   2.188 -0.0308 -0.1241 -0.4926
 1776poe    c23 8347   5.405   3.186   2.116 -0.5704  0.0008 -0.0579
 1776poe     o2 8348   5.499   3.277   2.168 -0.4994 -0.0950 -0.0174
 1776poe    c23 8349   5.484   3.409   2.119 -0.0426  0.0050  0.1055
 1776poe    c23 8350   5.611   3.480   2.167 -0.1511  0.2537  0.0248
 1776poe     o2 8351   5.607   3.501   2.306  0.0359  0.4741 -0.0029
 1776poe    c31 8352   5.711   3.593   2.335 -0.1203  0.6479  0.0059
 1777poe    c31 8353   4.855   5.630   2.509  0.0432 -0.3174  0.2572
 1777poe     o2 8354   4.824   5.767   2.501  0.2814 -0.2696  0.1424
 1777poe    c23 8355   4.732   5.782   2.394  0.1852 -0.1106  0.2459
 1777poe    c23 8356   4.744   5.920   2.328 -0.1866 -0.3883 -0.4063
 1777poe     o2 8357   4.705   6.007   2.432  0.9210  0.1729 -0.4453
 1777poe    c23 8358   4.660   6.132   2.384  0.3936  0.0985 -0.1546
 1777poe    c23 8359   4.591   6.198   2.505 -0.3900 -0.2443 -0.4147
 1777poe     o2 8360   4.684   6.203   2.610 -0.4304 -0.1657 -0.3824
 1777poe    c23 8361   4.647   6.285   2.719 -0.2503 -0.5009 -0.0654
 1777poe    c23 8362   4.755   6.264   2.826  0.2906 -0.2355 -0.5494
 1777poe     o2 8363   4.775   6.134   2.878  0.0138 -0.1005 -0.0959
 1777poe    c31 8364   4.880   6.135   2.972  0.1860  0.3423 -0.2876
 1778poe    c31 8365   0.333   4.421   4.025  0.1974 -0.2092  0.1195
 1778poe     o2 8366   0.281   4.429   4.155 -0.0042 -0.1750  0.0367
 1778poe    c23 8367   0.283   4.561   4.205  0.3893 -0.0305 -0.3570
 1778poe    c23 8368   0.250   4.587   4.353 -0.2922  0.2383 -0.5500
 1778poe     o2 8369   0.125   4.531   4.388 -0.1155 -0.3767 -0.8778
 1778poe    c23 8370   0.092   4.519   4.525  0.0203  0.2406 -0.7884
 1778poe    c23 8371  -0.041   4.442   4.528  0.0525  0.2150  0.2260
 1778poe     o2 8372  -0.035   4.323   4.453 -0.0377  0.1401  0.3377
 1778poe    c23 8373  -0.163   4.264   4.462 -0.0485  0.1073 -0.0304
 1778poe    c23 8374  -0.168   4.138   4.373 -0.0767  0.5244 -0.6301
 1778poe     o2 8375  -0.149   4.166   4.236  1.0338 -0.2093 -0.6485
 1778poe    c31 8376  -0.180   4.039   4.185  0.5329 -0.5076  0.3614
 1779poe    c31 8377   6.909   2.550   6.582  0.3055 -0.3214  0.1032
 1779poe     o2 8378   6.957   2.672   6.531  0.0504 -0.1287  0.3199
 1779poe    c23 8379   7.091   2.695   6.570  0.1362  0.2795 -0.2113
 1779poe    c23 8380   7.151   2.822   6.506  0.2614  0.1221 -0.4080
 1779poe     o2 8381   7.111   2.945   6.563  0.4901  0.0607 -0.1134
 1779poe    c23 8382   7.211   2.999   6.647 -0.0691  0.1621  0.4998
 1779poe    c23 8383   7.143   3.079   6.759 -0.3422  0.1327  0.3550
 1779poe     o2 8384   7.046   3.157   6.691 -0.1980  0.4022  0.4559
 1779poe    c23 8385   6.994   3.254   6.778 -0.4517  0.5242  0.1697
 1779poe    c23 8386   6.863   3.319   6.729 -0.7191 -0.2517 -0.1615
 1779poe     o2 8387   6.872   3.356   6.593 -0.0126 -0.2426 -0.1168
 1779poe    c31 8388   6.771   3.441   6.544  0.1961 -0.2131 -0.4980
 1780poe    c31 8389   0.306   0.237   2.526 -0.4607  0.2604  0.5228
 1780poe     o2 8390   0.360   0.188   2.647  0.4244  0.3707  0.1839
 1780poe    c23 8391   0.446   0.078   2.630  0.0298  0.1450 -0.3932
 1780poe    c23 8392   0.483  -0.002   2.756 -0.0758  0.1507 -0.3584
 1780poe     o2 8393   0.557   0.081   2.842  0.0145 -0.3450  0.0505
 1780poe    c23 8394   0.559   0.026   2.972  0.2979 -0.1251  0.1425
 1780poe    c23 8395   0.625   0.123   3.071 -0.3000  0.1164  0.3083
 1780poe     o2 8396   0.548   0.225   3.132 -0.4589  0.1647  0.0302
 1780poe    c23 8397   0.591   0.278   3.256 -0.3798  0.2446 -0.0310
 1780poe    c23 8398   0.495   0.391   3.296  0.2015  0.4795  0.7151
 1780poe     o2 8399   0.461   0.455   3.175  0.5050  0.2466  0.5055
 1780poe    c31 8400   0.363   0.554   3.198  0.1030 -0.0346  0.0341
 1781poe    c31 8401   5.105   1.411   3.584 -0.3154 -0.2951 -0.0983
 1781poe     o2 8402   5.106   1.346   3.458  0.1472 -0.1710 -0.1598
 1781poe    c23 8403   5.055   1.428   3.356 -0.1559  0.0920  0.1967
 1781poe    c23 8404   4.986   1.344   3.246  0.0563  0.1663  0.0050
 1781poe     o2 8405   5.080   1.258   3.186  0.0412 -0.1028  0.3581
 1781poe    c23 8406   5.021   1.163   3.101  0.3712  0.2234 -0.2470
 1781poe    c23 8407   5.127   1.085   3.021  0.1169  0.2472 -0.6093
 1781poe     o2 8408   5.213   1.020   3.112 -0.1917  0.2237 -0.3337
 1781poe    c23 8409   5.286   0.925   3.038 -0.1264  0.1939 -0.2308
 1781poe    c23 8410   5.419   0.899   3.110 -0.1245 -0.2405 -0.3860
 1781poe     o2 8411   5.409   0.909   3.250 -0.0951  0.6495 -0.4377
 1781poe    c31 8412   5.517   0.985   3.299  0.5156 -0.1744 -0.4906
 1782poe    c31 8413   4.077   3.221   2.700  0.1547 -0.0548  0.0323
 1782poe     o2 8414   3.977   3.198   2.797  0.2093  0.1372  0.1341
 1782poe    c23 8415   3.900   3.314   2.818  0.5005  0.3632 -0.0357
 1782poe    c23 8416   3.861   3.312   2.967  0.0125  0.1401 -0.1640
 1782poe     o2 8417   3.749   3.236   3.005  0.0251  0.4452  0.5023
 1782poe    c23 8418   3.707   3.278   3.133 -0.7693  0.4956  0.2290
 1782poe    c23 8419   3.566   3.223   3.165 -0.7691 -0.0711 -0.6983
 1782poe     o2 8420   3.551   3.084   3.178  0.5100 -0.1594 -0.0646
 1782poe    c23 8421   3.549   3.051   3.315  0.2726 -0.2882 -0.0992
 1782poe    c23 8422   3.506   2.906   3.347 -0.3564 -0.0797  0.0114
 1782poe     o2 8423   3.536   2.828   3.234 -0.5813 -0.2827  0.0923
 1782poe    c31 8424   3.548   2.693   3.275 -0.5233 -0.3366 -0.1019
 1783poe    c31 8425   3.873   0.326   4.613  0.1537  0.3337  0.1592
 1783poe     o2 8426   3.887   0.446   4.686  0.1637  0.5692 -0.2245
 1783poe    c23 8427   3.960   0.538   4.609  0.2862  0.4746 -0.2216
 1783poe    c23 8428   4.001   0.659   4.697  0.3630  0.3039 -0.0212
 1783poe     o2 8429   4.011   0.607   4.827 -0.3501  0.0504 -0.0605
 1783poe    c23 8430   4.083   0.696   4.909 -0.3820  0.3014 -0.3060
 1783poe    c23 8431   4.096   0.658   5.058 -0.4354  0.1722 -0.3341
 1783poe     o2 8432   3.967   0.648   5.111 -0.3080  0.2159 -0.0166
 1783poe    c23 8433   3.966   0.648   5.252 -0.0201  0.8457 -0.0146
 1783poe    c23 8434   3.828   0.617   5.313 -0.1786  0.2431 -0.6766
 1783poe     o2 8435   3.784   0.484   5.300  0.0969  0.0789  0.0270
 1783poe    c31 8436   3.645   0.483   5.325  0.2589 -0.2140  0.9537
 1784poe    c31 8437   1.195   4.112   5.976  0.1032 -0.5976  0.1211
 1784poe     o2 8438   1.327   4.074   5.944  0.1348 -0.2744 -0.1465
 1784poe    c23 8439   1.330   3.992   5.829 -0.2331  0.0445 -0.3852
 1784poe    c23 8440   1.467   3.973   5.762 -0.0114  0.1240  0.0369
 1784poe     o2 8441   1.550   3.898   5.847 -0.1526 -0.8346 -0.6408
 1784poe    c23 8442   1.646   3.819   5.780  0.2165 -0.5686 -0.4357
 1784poe    c23 8443   1.745   3.750   5.876 -0.1235 -0.5552 -0.0698
 1784poe     o2 8444   1.771   3.847   5.974  0.1255 -0.3806 -0.3096
 1784poe    c23 8445   1.862   3.807   6.074  0.0487 -0.1116 -0.1297
 1784poe    c23 8446   1.823   3.710   6.187  0.1202  0.1471  0.1186
 1784poe     o2 8447   1.726   3.759   6.277 -0.1325  0.1011 -0.1278
 1784poe    c31 8448   1.677   3.663   6.368  0.1930  0.2655  0.2229
 1785poe    c31 8449   1.492   5.475   0.731 -0.1494  0.2765  0.2034
 1785poe     o2 8450   1.521   5.532   0.605  0.1447  0.2147  0.2427
 1785poe    c23 8451   1.436   5.481   0.506 -0.0660  0.6369  0.2068
 1785poe    c23 8452   1.449   5.565   0.377 -0.3839  0.2234 -0.0982
 1785poe     o2 8453   1.575   5.547   0.316 -0.3469 -0.4704  0.1732
 1785poe    c23 8454   1.588   5.618   0.195  0.5559 -0.4345  0.2862
 1785poe    c23 8455   1.641   5.761   0.218 -0.5524  0.0118  0.1634
 1785poe     o2 8456   1.551   5.867   0.240 -0.2046  0.2503  0.4455
 1785poe    c23 8457   1.490   5.907   0.120  0.2983 -0.7537 -0.1601
 1785poe    c23 8458   1.354   5.972   0.153  0.5073 -0.4979  0.2058
 1785poe     o2 8459   1.245   5.883   0.167  0.5973 -0.6378  0.0160
 1785poe    c31 8460   1.135   5.937   0.236  0.5489 -0.3682 -0.2684
 1786poe    c31 8461   5.400   6.730   4.293  0.4231 -0.3566  0.0244
 1786poe     o2 8462   5.470   6.731   4.171  0.0945  0.0990 -0.1584
 1786poe    c23 8463   5.388   6.688   4.064 -0.4317 -0.2334  0.3712
 1786poe    c23 8464   5.470   6.702   3.934 -0.1757 -0.2273  0.5333
 1786poe     o2 8465   5.599   6.657   3.970 -0.1096 -0.3667  0.1247
 1786poe    c23 8466   5.681   6.623   3.861 -0.0869 -0.1590  0.0758
 1786poe    c23 8467   5.817   6.567   3.908 -0.0130  0.2992  0.4122
 1786poe     o2 8468   5.888   6.666   3.979 -0.1339  0.6855 -0.0029
 1786poe    c23 8469   6.006   6.614   4.035 -0.4104  0.3588  0.2775
 1786poe    c23 8470   6.087   6.716   4.115  0.1321  0.1921 -0.0560
 1786poe     o2 8471   6.018   6.772   4.225  0.1870 -0.2105  0.1863
 1786poe    c31 8472   6.101   6.872   4.279 -0.1305 -0.1053  0.4827
 1787poe    c31 8473   1.391   3.041   0.121 -0.2630 -0.0701  0.2308
 1787poe     o2 8474   1.256   3.035   0.161 -0.3971 -0.4013 -0.2689
 1787poe    c23 8475   1.179   3.141   0.110 -0.1492 -0.0329  0.1262
 1787poe    c23 8476   1.120   3.126  -0.032 -0.2092  0.1270  0.1334
 1787poe     o2 8477   1.044   3.009  -0.055  0.7729 -0.4169 -0.4094
 1787poe    c23 8478   0.985   2.999  -0.183  0.1087 -0.6780 -0.0853
 1787poe    c23 8479   0.846   2.933  -0.183 -0.3775  0.3260 -0.8605
 1787poe     o2 8480   0.736   3.014  -0.148 -0.1532  0.0080  0.6839
 1787poe    c23 8481   0.613   2.946  -0.161  0.0245 -0.1171 -0.4658
 1787poe    c23 8482   0.523   2.957  -0.037  0.1572  0.3683 -0.4116
 1787poe     o2 8483   0.592   2.921   0.081 -0.4072  0.5164 -0.0350
 1787poe    c31 8484   0.516   2.926   0.200 -0.6123 -0.4902 -0.1148
 1788poe    c31 8485   2.733   5.613   1.197  0.0659  0.0596 -0.1191
 1788poe     o2 8486   2.757   5.714   1.101  0.2169  0.1256 -0.0121
 1788poe    c23 8487   2.861   5.799   1.144  0.0017  0.4423 -0.1163
 1788poe    c23 8488   2.889   5.929   1.067  0.0224  0.3303 -0.2980
 1788poe     o2 8489   2.927   5.893   0.936 -0.3433 -0.2655 -0.2450
 1788poe    c23 8490   2.964   6.014   0.872 -0.3138 -0.2482 -0.1964
 1788poe    c23 8491   3.016   6.001   0.728 -0.1351 -0.1226 -0.1423
 1788poe     o2 8492   2.926   5.935   0.642 -0.3092  0.0244 -0.0726
 1788poe    c23 8493   2.968   5.899   0.513  0.6554  0.6116  0.0691
 1788poe    c23 8494   2.943   6.009   0.408  0.6138  0.3804 -0.1642
 1788poe     o2 8495   2.813   5.985   0.360  0.2408  0.8094  0.6160
 1788poe    c31 8496   2.775   6.101   0.289  0.6506  0.3705 -0.3296
 1789poe    c31 8497   1.219   3.091   4.829  0.2573  0.1712  0.1303
 1789poe     o2 8498   1.094   3.025   4.837  0.1195  0.4398  0.1931
 1789poe    c23 8499   1.107   2.916   4.924 -0.5724 -0.1500 -0.4322
 1789poe    c23 8500   0.976   2.836   4.937 -0.4661 -0.2787 -0.1332
 1789poe     o2 8501   0.873   2.928   4.965 -0.2072 -0.0636  0.1147
 1789poe    c23 8502   0.749   2.867   4.993 -0.3809  0.4345  0.4447
 1789poe    c23 8503   0.684   2.955   5.101 -0.3601  0.5638  0.3526
 1789poe     o2 8504   0.706   3.093   5.087  0.2369  0.4436  0.1103
 1789poe    c23 8505   0.621   3.160   5.177 -0.1779 -0.0582  0.0964
 1789poe    c23 8506   0.636   3.313   5.170  0.4558 -0.1367 -0.3195
 1789poe     o2 8507   0.773   3.346   5.181  0.3822  0.0450  0.0736
 1789poe    c31 8508   0.787   3.475   5.237  0.4737  0.0111  0.1298
 1790poe    c31 8509   1.943   6.807   1.313  0.4896 -0.4203  0.6248
 1790poe     o2 8510   1.808   6.768   1.300  0.4501 -0.0157 -0.2073
 1790poe    c23 8511   1.791   6.630   1.322  0.1557  0.0934  0.2619
 1790poe    c23 8512   1.641   6.600   1.307  0.1897  0.0269  0.0564
 1790poe     o2 8513   1.601   6.633   1.175  0.1376  0.4869  0.1860
 1790poe    c23 8514   1.467   6.598   1.147  0.3166 -0.1804  0.1524
 1790poe    c23 8515   1.446   6.552   1.002  0.1087  0.4905 -0.0330
 1790poe     o2 8516   1.491   6.645   0.906  0.3331 -0.0562 -0.4638
 1790poe    c23 8517   1.467   6.579   0.783  0.4159 -0.0100 -0.5046
 1790poe    c23 8518   1.464   6.690   0.676  0.0543  0.4470 -0.0277
 1790poe     o2 8519   1.574   6.778   0.689  0.5681 -0.2128  0.1357
 1790poe    c31 8520   1.543   6.915   0.680  0.2858 -0.2551  0.4618
 1791poe    c31 8521   4.844   1.321   1.740 -0.8593 -0.3543 -0.5303
 1791poe     o2 8522   4.849   1.281   1.875 -1.1599  0.5994 -0.2258
 1791poe    c23 8523   4.843   1.140   1.879 -0.0917  0.5251 -0.7799
 1791poe    c23 8524   4.917   1.088   2.003 -0.9361  0.2455 -0.3824
 1791poe     o2 8525   4.874   1.181   2.099 -0.3053 -0.5077  0.6640
 1791poe    c23 8526   4.951   1.197   2.216  0.2459  0.1279  0.2223
 1791poe    c23 8527   4.846   1.277   2.295  0.3315  0.3244  0.1364
 1791poe     o2 8528   4.810   1.381   2.206  0.2617  0.2306  0.0557
 1791poe    c23 8529   4.704   1.464   2.248 -0.4050 -0.5569 -0.0270
 1791poe    c23 8530   4.706   1.577   2.143  0.0380 -0.7699 -0.2520
 1791poe     o2 8531   4.728   1.512   2.020  0.0301 -0.5166 -0.3891
 1791poe    c31 8532   4.703   1.601   1.914 -0.2559 -0.0406  0.0711
 1792poe    c31 8533   1.788   3.715   4.116 -0.1111 -0.6411  0.4497
 1792poe     o2 8534   1.689   3.759   4.206  0.2659  0.2912  0.4177
 1792poe    c23 8535   1.724   3.707   4.332  0.0315 -0.0547  0.3395
 1792poe    c23 8536   1.691   3.801   4.450  0.0597 -0.0181  0.3185
 1792poe     o2 8537   1.561   3.853   4.441  0.0922  0.1214  0.6407
 1792poe    c23 8538   1.538   3.964   4.524 -0.1263  0.2385  0.4236
 1792poe    c23 8539   1.448   4.057   4.439 -0.5604 -0.0552  0.5624
 1792poe     o2 8540   1.355   3.969   4.378 -0.0619  0.0727 -0.3850
 1792poe    c23 8541   1.228   4.028   4.367  0.1603  0.6053 -0.1370
 1792poe    c23 8542   1.155   3.950   4.257 -0.0125  0.2931  0.1963
 1792poe     o2 8543   1.184   3.817   4.292 -0.1357  0.2942  0.3018
 1792poe    c31 8544   1.086   3.721   4.255  0.1036  0.0755  0.2332
 1793poe    c31 8545   1.879   0.908   4.142  0.1058 -0.3794  0.1659
 1793poe     o2 8546   2.018   0.883   4.142  0.2171  0.2076 -0.4712
 1793poe    c23 8547   2.085   0.990   4.204  0.4458 -0.2527  0.0848
 1793poe    c23 8548   2.236   0.960   4.193  0.4835 -0.1605  0.3511
 1793poe     o2 8549   2.287   0.849   4.264  0.1221 -0.3801  0.2698
 1793poe    c23 8550   2.428   0.860   4.261  0.1010  0.0568  0.6974
 1793poe    c23 8551   2.502   0.737   4.317  0.3005 -0.0873  0.1245
 1793poe     o2 8552   2.465   0.695   4.447 -0.2194 -0.1448 -0.0390
 1793poe    c23 8553   2.506   0.782   4.549  0.0136 -0.4498  0.1264
 1793poe    c23 8554   2.454   0.735   4.686 -0.6087  0.1356  0.0968
 1793poe     o2 8555   2.354   0.637   4.668 -0.2570 -0.1555 -0.2867
 1793poe    c31 8556   2.259   0.650   4.771  0.2741  0.6140  0.1165
 1794poe    c31 8557   0.549   5.945   2.857  0.4780  0.5326  0.4998
 1794poe     o2 8558   0.492   5.972   2.731  0.0212 -0.2800  0.5216
 1794poe    c23 8559   0.514   6.108   2.698 -0.5877 -0.2853  0.0560
 1794poe    c23 8560   0.488   6.136   2.549  0.0193  0.2761  0.0502
 1794poe     o2 8561   0.370   6.063   2.525 -0.0357  0.1685  0.6440
 1794poe    c23 8562   0.253   6.138   2.502 -0.0167 -0.0496 -0.1741
 1794poe    c23 8563   0.143   6.034   2.473  0.3295 -0.3155 -0.5423
 1794poe     o2 8564   0.179   5.902   2.510  0.1464 -0.3332 -0.4219
 1794poe    c23 8565   0.070   5.823   2.470 -0.1247 -0.1331 -0.0789
 1794poe    c23 8566   0.058   5.689   2.545 -0.3747 -0.1192 -0.0918
 1794poe     o2 8567   0.060   5.715   2.684 -0.6945 -0.5340 -0.0058
 1794poe    c31 8568   0.012   5.610   2.764  0.0168 -0.4273  0.5721
 1795poe    c31 8569   3.245   3.962   4.873 -0.4273  0.3038  0.5048
 1795poe     o2 8570   3.127   3.916   4.811  0.2003  0.1726 -0.6015
 1795poe    c23 8571   3.047   4.027   4.778 -0.5017  0.0747  0.6994
 1795poe    c23 8572   2.946   3.960   4.683  0.1618 -0.2873  0.2410
 1795poe     o2 8573   2.872   3.861   4.750  0.2174 -0.5659 -0.1063
 1795poe    c23 8574   2.738   3.847   4.709 -0.1332 -0.0881  0.8467
 1795poe    c23 8575   2.676   3.724   4.778 -0.0775 -0.3968  0.3511
 1795poe     o2 8576   2.712   3.597   4.730 -0.5647 -0.2611 -0.3884
 1795poe    c23 8577   2.644   3.500   4.807 -0.2947  0.0343  0.2247
 1795poe    c23 8578   2.733   3.376   4.826  0.3569  0.3693 -0.5741
 1795poe     o2 8579   2.854   3.402   4.893  0.0220  0.3383  0.0492
 1795poe    c31 8580   2.923   3.282   4.919 -0.7060 -0.0709  0.0951
 1796poe    c31 8581   5.349   4.413   2.495 -0.5482  0.3095 -0.1295
 1796poe     o2 8582   5.306   4.298   2.563  0.2737  0.0566 -0.0271
 1796poe    c23 8583   5.331   4.303   2.702 -0.4130  0.4447  0.0856
 1796poe    c23 8584   5.290   4.173   2.773  0.4260  0.0320 -0.1811
 1796poe     o2 8585   5.151   4.154   2.768  0.4003  0.1497  0.0535
 1796poe    c23 8586   5.124   4.015   2.769 -0.3671  0.2942 -0.1723
 1796poe    c23 8587   4.990   3.961   2.822  0.0444 -0.4867  0.0779
 1796poe     o2 8588   4.881   4.015   2.751  0.3570 -0.0174 -0.0496
 1796poe    c23 8589   4.764   3.940   2.775 -0.2325  0.8190 -0.2576
 1796poe    c23 8590   4.698   3.939   2.636 -0.3126 -0.0216 -0.2217
 1796poe     o2 8591   4.695   4.076   2.601 -0.2906  0.1024  0.2496
 1796poe    c31 8592   4.612   4.077   2.487 -0.0660  0.2612  0.0863
 1797poe    c31 8593   2.378   4.403   1.265  0.1502 -0.1451  0.0633
 1797poe     o2 8594   2.273   4.481   1.211  0.2533  0.0912  0.2030
 1797poe    c23 8595   2.153   4.453   1.279  0.1086 -0.1211 -0.1377
 1797poe    c23 8596   2.038   4.548   1.241  0.5584  0.2359 -0.6153
 1797poe     o2 8597   2.062   4.673   1.303 -0.3895  0.0693  0.1143
 1797poe    c23 8598   1.939   4.738   1.320 -0.5768 -0.3021  0.2033
 1797poe    c23 8599   1.973   4.889   1.316 -0.0948 -0.4074  0.2383
 1797poe     o2 8600   2.085   4.921   1.395 -0.1584  0.3275  0.0394
 1797poe    c23 8601   2.127   5.049   1.357  0.0194  0.3607  0.3428
 1797poe    c23 8602   2.254   5.067   1.442 -0.0147 -0.2975  0.5363
 1797poe     o2 8603   2.331   4.949   1.439  0.5737  0.0929 -0.2924
 1797poe    c31 8604   2.428   4.944   1.542  0.2203  0.2821  0.0541
 1798poe    c31 8605   5.738   5.308   0.634 -0.0127 -0.0159 -0.3792
 1798poe     o2 8606   5.642   5.411   0.634  0.0282  0.0229 -0.2834
 1798poe    c23 8607   5.532   5.352   0.700  0.2470  0.1804  0.2272
 1798poe    c23 8608   5.417   5.454   0.693 -0.0716 -0.2009 -0.2086
 1798poe     o2 8609   5.419   5.489   0.556 -0.3608 -0.3995 -0.2632
 1798poe    c23 8610   5.336   5.603   0.548  0.6182  0.3581  0.1888
 1798poe    c23 8611   5.359   5.645   0.402 -0.2831  0.4280  0.0623
 1798poe     o2 8612   5.499   5.632   0.385 -0.4100 -0.6435 -0.3008
 1798poe    c23 8613   5.567   5.638   0.262 -0.0372  0.3490 -0.0567
 1798poe    c23 8614   5.717   5.624   0.296 -0.0393 -0.6846 -0.4498
 1798poe     o2 8615   5.745   5.517   0.383 -0.0605 -0.1019  0.2881
 1798poe    c31 8616   5.886   5.516   0.393 -0.0667  0.2676  0.3906
 1799poe    c31 8617   5.388   2.684   2.825  0.0653 -0.2921  0.2819
 1799poe     o2 8618   5.383   2.589   2.721  0.3326  0.3240 -0.3055
 1799poe    c23 8619   5.513   2.545   2.691  0.4532  0.5385 -0.1022
 1799poe    c23 8620   5.502   2.435   2.584  0.2970  0.0508  0.4041
 1799poe     o2 8621   5.446   2.491   2.467 -0.0338 -0.0371  0.5207
 1799poe    c23 8622   5.428   2.381   2.381 -0.2129  0.2434  0.1945
 1799poe    c23 8623   5.364   2.443   2.256  0.0698 -0.1347 -0.1412
 1799poe     o2 8624   5.234   2.487   2.287 -0.0218 -0.5339  0.0393
 1799poe    c23 8625   5.175   2.545   2.173  0.0925 -0.0829  0.2073
 1799poe    c23 8626   5.067   2.456   2.109 -0.0546  0.6446 -0.5765
 1799poe     o2 8627   4.937   2.485   2.155  0.0851  0.3075  0.0530
 1799poe    c31 8628   4.869   2.547   2.047  0.2397 -0.6675 -0.6121
 1800poe    c31 8629   4.525   5.384   4.289  0.0505 -0.5530  0.4394
 1800poe     o2 8630   4.595   5.333   4.178 -0.0080  0.3829 -0.0321
 1800poe    c23 8631   4.534   5.210   4.144  0.4948  0.0863  0.1240
 1800poe    c23 8632   4.629   5.119   4.064  0.4767 -0.0843  0.2974
 1800poe     o2 8633   4.680   5.204   3.964  0.0778  0.1321  0.2755
 1800poe    c23 8634   4.747   5.135   3.860  0.6359 -0.3220  0.9232
 1800poe    c23 8635   4.815   5.254   3.790 -0.0860  0.0204  0.7923
 1800poe     o2 8636   4.901   5.344   3.856  0.2103  0.3825 -0.0721
 1800poe    c23 8637   5.034   5.336   3.810  0.1563 -0.0233 -0.1564
 1800poe    c23 8638   5.122   5.454   3.855  0.1504 -0.0364 -0.1092
 1800poe     o2 8639   5.097   5.470   3.993  0.8493  0.0839  0.0051
 1800poe    c31 8640   5.178   5.574   4.042  0.0763  0.8578 -0.3272
 1801poe    c31 8641   6.214   0.683   3.852 -0.2446  0.1679  0.5359
 1801poe     o2 8642   6.197   0.745   3.977  0.6243  0.6087  0.4413
 1801poe    c23 8643   6.188   0.650   4.080  0.2482 -0.0105 -0.1525
 1801poe    c23 8644   6.185   0.712   4.221 -0.2455 -0.1253 -0.1115
 1801poe     o2 8645   6.073   0.796   4.230 -0.3376 -0.2591 -0.0079
 1801poe    c23 8646   5.946   0.735   4.224 -0.4589 -0.0340  0.1961
 1801poe    c23 8647   5.850   0.849   4.260 -0.0831  0.2475  0.3134
 1801poe     o2 8648   5.809   0.888   4.131 -0.1167 -0.6566  0.0435
 1801poe    c23 8649   5.685   0.955   4.136  0.2410 -0.0019  0.3339
 1801poe    c23 8650   5.623   0.971   3.996  0.6524  0.4775  0.2063
 1801poe     o2 8651   5.658   1.083   3.917  0.0708  0.5358  0.0317
 1801poe    c31 8652   5.572   1.079   3.805 -0.0733 -0.4340  0.1669
 1802poe    c31 8653   1.089   5.128   3.566  0.6359  0.3950 -0.0603
 1802poe     o2 8654   1.065   5.258   3.517 -0.1829  0.3345  0.1691
 1802poe    c23 8655   1.188   5.327   3.510 -0.1188  0.1146 -0.9529
 1802poe    c23 8656   1.186   5.467   3.447 -0.1449  0.5564  0.0263
 1802poe     o2 8657   1.081   5.557   3.476 -0.5294  0.0796  0.1147
 1802poe    c23 8658   1.086   5.605   3.608 -0.2045 -0.6406  0.3728
 1802poe    c23 8659   0.971   5.707   3.620  0.4813  0.2315 -0.3382
 1802poe     o2 8660   0.856   5.634   3.655  0.3594  0.2132 -0.7759
 1802poe    c23 8661   0.749   5.721   3.685  0.0800 -0.4162  0.0997
 1802poe    c23 8662   0.619   5.649   3.723 -0.4723  0.3405 -0.3362
 1802poe     o2 8663   0.600   5.551   3.624 -0.2130  0.0491 -0.0977
 1802poe    c31 8664   0.475   5.490   3.650  0.1347 -0.2586  0.8916
 1803poe    c31 8665   1.738   2.320   1.222 -0.3835 -0.0593  0.1065
 1803poe     o2 8666   1.659   2.207   1.249 -0.5858 -0.0336 -0.3743
 1803poe    c23 8667   1.630   2.127   1.136  0.3181  0.1996 -0.7796
 1803poe    c23 8668   1.727   2.008   1.124 -0.1744 -0.2949  0.0819
 1803poe     o2 8669   1.726   1.920   1.234 -0.3292  0.1556  0.4495
 1803poe    c23 8670   1.795   1.803   1.194 -0.5572  0.0960  0.2195
 1803poe    c23 8671   1.751   1.713   1.311  0.3387 -0.2061  0.3292
 1803poe     o2 8672   1.760   1.767   1.440  0.5929  0.1741  0.1540
 1803poe    c23 8673   1.710   1.680   1.539 -0.4213  0.2403 -0.2851
 1803poe    c23 8674   1.734   1.734   1.681 -0.1403 -0.2680 -0.1352
 1803poe     o2 8675   1.656   1.852   1.683 -0.0702 -0.2176 -0.3484
 1803poe    c31 8676   1.700   1.927   1.794 -0.0966 -0.9200  0.1415
 1804poe    c31 8677   1.893   4.871   0.619 -0.3436  0.4819 -0.2659
 1804poe     o2 8678   1.847   4.975   0.702 -0.0598  0.5104 -0.1437
 1804poe    c23 8679   1.750   4.933   0.795 -0.0203  0.3411 -0.1784
 1804poe    c23 8680   1.691   5.048   0.880 -0.0035 -0.1019  0.4387
 1804poe     o2 8681   1.602   5.024   0.986  0.1442 -0.7795  0.4152
 1804poe    c23 8682   1.580   5.133   1.072 -0.6611 -0.1709 -0.5359
 1804poe    c23 8683   1.465   5.098   1.168 -0.2853  0.0169 -0.0113
 1804poe     o2 8684   1.457   4.998   1.268  0.6945 -0.4530 -0.3899
 1804poe    c23 8685   1.417   4.870   1.225 -0.4137 -0.4698  0.6547
 1804poe    c23 8686   1.474   4.791   1.105 -0.3206  0.4000  0.1169
 1804poe     o2 8687   1.391   4.684   1.070  0.4282 -0.2192  0.2104
 1804poe    c31 8688   1.443   4.623   0.954 -0.1108  0.0800 -0.1959
 1805poe    c31 8689   6.727   2.243   4.788 -0.2315 -0.7726 -0.4961
 1805poe     o2 8690   6.752   2.282   4.655  0.0712 -0.0706 -0.2405
 1805poe    c23 8691   6.644   2.258   4.568  0.2160 -0.4348 -0.3249
 1805poe    c23 8692   6.689   2.271   4.422 -0.2529 -0.1757 -0.4462
 1805poe     o2 8693   6.719   2.406   4.395 -0.2439 -0.0576  0.1567
 1805poe    c23 8694   6.788   2.426   4.274  0.0079 -0.1312  0.2878
 1805poe    c23 8695   6.771   2.579   4.271 -0.3755 -0.1838 -0.2754
 1805poe     o2 8696   6.843   2.633   4.380 -0.3367  0.1388 -0.4606
 1805poe    c23 8697   6.915   2.750   4.349  0.3981 -0.2201 -0.1432
 1805poe    c23 8698   6.971   2.828   4.469 -0.5896 -0.2198  0.3312
 1805poe     o2 8699   7.080   2.761   4.527 -0.1207  0.1033 -0.1623
 1805poe    c31 8700   7.150   2.853   4.608  0.3442 -0.1800 -0.2378
 1806poe    c31 8701   2.839   5.752   3.782 -0.0867 -0.1014 -0.3455
 1806poe     o2 8702   2.842   5.764   3.923  0.3180  0.3510 -0.3933
 1806poe    c23 8703   2.720   5.817   3.969  0.0930 -0.5793  0.0914
 1806poe    c23 8704   2.729   5.859   4.117  0.3595  0.0621 -0.1039
 1806poe     o2 8705   2.761   5.755   4.206  0.0133  0.3142  0.3181
 1806poe    c23 8706   2.841   5.801   4.313 -0.0096  0.0519  0.4473
 1806poe    c23 8707   2.892   5.674   4.384 -0.2499 -0.2607  0.0662
 1806poe     o2 8708   3.001   5.607   4.324 -0.3384  0.0530 -0.4454
 1806poe    c23 8709   3.069   5.534   4.423  0.0008  0.5481 -0.3101
 1806poe    c23 8710   3.183   5.440   4.380 -0.1980  0.2823 -0.2576
 1806poe     o2 8711   3.114   5.339   4.310 -0.1517 -0.0264  0.1413
 1806poe    c31 8712   3.204   5.234   4.281  0.0801  0.2435 -0.1248
 1807poe    c31 8713   4.524   2.890   1.440 -0.2804  0.0568 -0.0979
 1807poe     o2 8714   4.592   2.948   1.549 -0.5222 -0.3236  0.2633
 1807poe    c23 8715   4.612   3.086   1.528 -0.4955 -0.2553  0.7378
 1807poe    c23 8716   4.678   3.161   1.646 -0.1417 -0.3225  0.5835
 1807poe     o2 8717   4.816   3.157   1.675  0.0922  0.0866 -0.4289
 1807poe    c23 8718   4.838   3.216   1.802  0.2762  0.0586 -0.4480
 1807poe    c23 8719   4.985   3.236   1.842 -0.0249 -0.3712  0.8984
 1807poe     o2 8720   5.052   3.112   1.832 -0.0891 -0.3133 -0.3938
 1807poe    c23 8721   5.189   3.143   1.813 -0.0059 -0.0665  0.5379
 1807poe    c23 8722   5.271   3.017   1.778  1.1297  0.7277  0.3235
 1807poe     o2 8723   5.255   2.943   1.897  0.3202  0.5574  0.1125
 1807poe    c31 8724   5.305   2.812   1.880  0.1709  0.4053  0.8211
 1808poe    c31 8725   1.981   2.124   3.885  0.1328  0.1994  0.1329
 1808poe     o2 8726   2.107   2.113   3.822  0.1376 -0.0084  0.1775
 1808poe    c23 8727   2.167   2.237   3.792  0.2006 -0.0441  0.1563
 1808poe    c23 8728   2.311   2.233   3.738  0.2421 -0.1608  0.2737
 1808poe     o2 8729   2.316   2.143   3.629 -0.3774 -0.0099  0.1163
 1808poe    c23 8730   2.441   2.137   3.566 -0.4041  0.3130  0.0317
 1808poe    c23 8731   2.448   2.021   3.465  0.1814  0.0715  0.3450
 1808poe     o2 8732   2.409   1.900   3.525 -0.5542  0.1666  0.0695
 1808poe    c23 8733   2.393   1.808   3.420 -0.2186  0.1259  0.0511
 1808poe    c23 8734   2.372   1.672   3.489 -0.1715  0.2600  0.3309
 1808poe     o2 8735   2.240   1.660   3.537 -0.2780  0.4584  0.0943
 1808poe    c31 8736   2.192   1.528   3.546 -0.0881  0.3045 -1.0523
 1809poe    c31 8737   2.784   3.987   1.764 -0.1565 -0.1961  0.3692
 1809poe     o2 8738   2.917   3.967   1.719 -0.2632 -0.0788 -0.0060
 1809poe    c23 8739   2.912   3.844   1.650 -0.0929 -0.0547 -0.0604
 1809poe    c23 8740   3.049   3.774   1.641  0.0482  0.2490 -0.2711
 1809poe     o2 8741   3.159   3.849   1.594  0.2706  0.0323 -0.1002
 1809poe    c23 8742   3.281   3.781   1.611  0.1996 -0.0894 -0.0760
 1809poe    c23 8743   3.400   3.879   1.606 -0.0295  0.2191  0.4502
 1809poe     o2 8744   3.386   3.981   1.703 -0.0632 -0.0249  0.7036
 1809poe    c23 8745   3.500   4.063   1.696 -0.0946 -0.0527 -0.3890
 1809poe    c23 8746   3.480   4.196   1.770 -0.0753  0.0276 -0.5274
 1809poe     o2 8747   3.364   4.270   1.738  0.0540  0.3260 -0.3176
 1809poe    c31 8748   3.350   4.371   1.834 -0.0961  0.3682 -0.3831
 1810poe    c31 8749   2.942   4.787   3.436  0.1234 -0.1275  0.1102
 1810poe     o2 8750   2.811   4.747   3.401 -0.0400  0.1878  0.3584
 1810poe    c23 8751   2.786   4.794   3.271  0.2648  0.2332  0.3145
 1810poe    c23 8752   2.648   4.762   3.209  0.3436  0.4631  0.0160
 1810poe     o2 8753   2.540   4.800   3.290  0.1369  0.5811 -0.3132
 1810poe    c23 8754   2.466   4.681   3.307  0.4532  0.5289  0.8124
 1810poe    c23 8755   2.328   4.713   3.367 -0.0252 -0.1963  0.1199
 1810poe     o2 8756   2.352   4.779   3.489 -0.1234 -0.4445  0.2744
 1810poe    c23 8757   2.232   4.825   3.547 -0.1900 -0.3310  0.0503
 1810poe    c23 8758   2.277   4.911   3.668  0.6484 -0.3881 -0.2147
 1810poe     o2 8759   2.343   5.025   3.618  0.7776 -0.3266  0.1005
 1810poe    c31 8760   2.383   5.108   3.725  0.0932  1.4509 -0.9649
 1811poe    c31 8761   4.744   1.644   4.225 -0.0495 -0.0262  0.4480
 1811poe     o2 8762   4.692   1.644   4.356 -0.8309 -0.0615  0.1406
 1811poe    c23 8763   4.717   1.757   4.437  0.3584 -0.1682 -0.0629
 1811poe    c23 8764   4.660   1.891   4.388  0.2532 -0.2121 -0.0602
 1811poe     o2 8765   4.519   1.882   4.385  0.2155  0.1764  0.3732
 1811poe    c23 8766   4.455   2.006   4.404 -0.2344 -0.0011  0.0290
 1811poe    c23 8767   4.307   1.981   4.368 -0.2012 -0.0855 -0.0493
 1811poe     o2 8768   4.252   1.877   4.445 -0.1008 -0.3100 -0.2769
 1811poe    c23 8769   4.117   1.856   4.410 -0.2026  0.2894 -0.2533
 1811poe    c23 8770   4.072   1.749   4.512  0.3906  0.1938 -0.0900
 1811poe     o2 8771   4.179   1.659   4.532 -0.1030 -0.4197 -0.2267
 1811poe    c31 8772   4.156   1.582   4.648 -0.1105  0.3585  0.2910
 1812poe    c31 8773   6.935   0.345   2.819  0.4716 -0.1093  0.4406
 1812poe     o2 8774   6.806   0.370   2.869  0.0937  0.2163 -0.6688
 1812poe    c23 8775   6.732   0.467   2.798  0.2265  0.6362 -0.2463
 1812poe    c23 8776   6.589   0.490   2.851  0.1018 -0.2214 -0.1925
 1812poe     o2 8777   6.504   0.378   2.845 -0.2342  0.0423 -0.4045
 1812poe    c23 8778   6.425   0.381   2.962 -0.0113  0.0120 -0.2530
 1812poe    c23 8779   6.364   0.245   3.000  0.0873  0.1286  0.3272
 1812poe     o2 8780   6.448   0.172   3.086  0.0233  0.0144  0.2921
 1812poe    c23 8781   6.369   0.071   3.147  0.1198 -0.1858  0.0895
 1812poe    c23 8782   6.464  -0.046   3.179  0.1176 -0.3205 -0.3917
 1812poe     o2 8783   6.588   0.006   3.223 -0.1183  0.0415 -0.1477
 1812poe    c31 8784   6.676  -0.102   3.243  0.2985  0.3610 -0.2287
 1813poe    c31 8785   2.209   0.145   0.384 -0.3480  0.0317  0.2595
 1813poe     o2 8786   2.199   0.036   0.295  0.5977  0.2060 -0.0678
 1813poe    c23 8787   2.324  -0.023   0.269  0.3869 -0.5049  0.5142
 1813poe    c23 8788   2.321  -0.125   0.153 -0.1910 -0.3151  0.3596
 1813poe     o2 8789   2.206  -0.205   0.150  0.3242 -1.0576  0.2203
 1813poe    c23 8790   2.210  -0.283   0.032 -0.8141 -0.4031 -0.2760
 1813poe    c23 8791   2.100  -0.390   0.039 -0.6235 -0.5720  0.2621
 1813poe     o2 8792   1.985  -0.321   0.084  0.0562  0.5953  0.2307
 1813poe    c23 8793   1.870  -0.398   0.106  0.3295  0.1663  0.1786
 1813poe    c23 8794   1.752  -0.309   0.149  0.0186 -0.2733  0.2448
 1813poe     o2 8795   1.779  -0.245   0.272 -0.4228  0.1298  0.1342
 1813poe    c31 8796   1.656  -0.233   0.340 -0.3231 -0.1000  0.3550
 1814poe    c31 8797   0.484   6.800   0.124 -0.1150  0.5209  1.0023
 1814poe     o2 8798   0.468   6.673   0.065 -0.2403  0.8943  0.2205
 1814poe    c23 8799   0.375   6.603   0.145  0.0748 -0.0864 -0.2490
 1814poe    c23 8800   0.368   6.457   0.096  0.3360 -0.2265  0.1248
 1814poe     o2 8801   0.387   6.474  -0.043  0.0830  0.2901  0.1493
 1814poe    c23 8802   0.356   6.359  -0.119  0.3726  0.0288  0.4194
 1814poe    c23 8803   0.463   6.341  -0.228 -0.3653  0.0594 -0.3271
 1814poe     o2 8804   0.499   6.467  -0.281  0.4157  0.2749  0.6873
 1814poe    c23 8805   0.548   6.473  -0.413  0.0771  1.2826  0.6038
 1814poe    c23 8806   0.452   6.542  -0.512 -0.1248  0.1677  0.0070
 1814poe     o2 8807   0.408   6.666  -0.461 -0.2544  0.2240 -0.2428
 1814poe    c31 8808   0.374   6.751  -0.569 -1.1822  0.1663 -0.0032
 1815poe    c31 8809   3.430   4.307   6.217 -0.1442  0.3262  0.1298
 1815poe     o2 8810   3.525   4.217   6.165  0.0967  0.4149  0.4110
 1815poe    c23 8811   3.660   4.253   6.183  0.3696 -0.1744 -0.4178
 1815poe    c23 8812   3.750   4.129   6.166 -0.3180 -0.8076  0.4512
 1815poe     o2 8813   3.701   4.065   6.049  0.3498 -0.0773 -0.2377
 1815poe    c23 8814   3.786   3.974   5.983  0.4206 -0.2860  0.1403
 1815poe    c23 8815   3.717   3.888   5.875  0.2902  0.0989 -0.0856
 1815poe     o2 8816   3.631   3.977   5.809 -0.0791 -0.2755 -0.1109
 1815poe    c23 8817   3.575   3.912   5.697  0.1101 -0.3284 -0.1747
 1815poe    c23 8818   3.531   4.003   5.580 -0.2590  0.0191  0.2332
 1815poe     o2 8819   3.435   4.088   5.639  0.0549  0.4948  0.0675
 1815poe    c31 8820   3.390   4.181   5.543  0.6802  0.7747  0.0447
 1816poe    c31 8821   4.216   0.891   5.350 -0.3789 -0.6838 -0.6634
 1816poe     o2 8822   4.211   1.008   5.273  0.0488 -0.5095 -0.4285
 1816poe    c23 8823   4.306   1.103   5.315 -0.4081 -0.3730  0.3152
 1816poe    c23 8824   4.279   1.221   5.220  0.2516 -0.3006  0.2136
 1816poe     o2 8825   4.142   1.241   5.244  0.1386 -0.3129 -0.4064
 1816poe    c23 8826   4.092   1.352   5.173 -0.0733 -0.2275 -0.1214
 1816poe    c23 8827   3.941   1.348   5.204 -0.0585 -0.0309 -0.0168
 1816poe     o2 8828   3.903   1.212   5.199 -0.6658  0.1255  0.2904
 1816poe    c23 8829   3.762   1.206   5.186 -0.7510  0.2111  1.1108
 1816poe    c23 8830   3.689   1.089   5.117 -0.3494  0.5054  0.1609
 1816poe     o2 8831   3.714   0.970   5.189  0.2883  0.2913 -0.4065
 1816poe    c31 8832   3.617   0.883   5.135  0.5153 -0.3623  0.2300
 1817poe    c31 8833   3.072   5.485   1.400 -0.6301  0.6455  0.7435
 1817poe     o2 8834   3.171   5.464   1.499 -0.0071 -0.3246 -0.0708
 1817poe    c23 8835   3.113   5.400   1.610 -0.1783  0.3699  0.2479
 1817poe    c23 8836   3.216   5.394   1.725  0.1840  0.4234 -0.0744
 1817poe     o2 8837   3.245   5.526   1.767 -0.3042  0.4834  0.0720
 1817poe    c23 8838   3.319   5.530   1.887  0.0010 -0.2632 -0.0847
 1817poe    c23 8839   3.328   5.681   1.914  0.0800 -0.2185 -0.3692
 1817poe     o2 8840   3.361   5.751   1.796 -0.3502 -0.3200 -0.5509
 1817poe    c23 8841   3.364   5.890   1.821 -0.0265 -0.4563  0.1833
 1817poe    c23 8842   3.410   5.973   1.699  0.2036 -0.9463 -0.0675
 1817poe     o2 8843   3.343   5.945   1.579 -0.3054 -0.5396  0.1215
 1817poe    c31 8844   3.387   6.034   1.479 -0.2603 -0.1719  0.4679
 1818poe    c31 8845   4.819   6.484   5.203  0.3150 -0.5269  1.0920
 1818poe     o2 8846   4.761   6.425   5.089  0.7290  0.0998  0.5495
 1818poe    c23 8847   4.777   6.508   4.976 -0.4940 -0.0564  0.2452
 1818poe    c23 8848   4.738   6.428   4.851  0.2077  0.1085 -0.0863
 1818poe     o2 8849   4.603   6.397   4.879  0.2111 -0.0635 -0.2546
 1818poe    c23 8850   4.533   6.341   4.770 -0.1038 -0.4221  0.1314
 1818poe    c23 8851   4.387   6.318   4.815 -0.2386  0.3419  0.0986
 1818poe     o2 8852   4.380   6.229   4.925  0.7143 -0.2382 -0.2979
 1818poe    c23 8853   4.253   6.201   4.980  0.6901 -0.3475 -0.4078
 1818poe    c23 8854   4.280   6.131   5.115  0.6347 -0.2951 -0.3693
 1818poe     o2 8855   4.367   6.196   5.204 -0.3787  0.4233  0.1113
 1818poe    c31 8856   4.375   6.143   5.335 -0.0532 -0.1929 -0.1544
 1819poe    c31 8857   2.214   2.458   5.669 -0.0824 -0.3270 -0.7332
 1819poe     o2 8858   2.158   2.377   5.771  0.3886  0.2171 -0.0291
 1819poe    c23 8859   2.052   2.304   5.714  0.6186 -0.4304  0.3595
 1819poe    c23 8860   2.004   2.183   5.795 -0.1755  0.1168  0.7271
 1819poe     o2 8861   2.090   2.073   5.817 -0.6647 -0.3954  0.1499
 1819poe    c23 8862   2.023   1.979   5.897 -0.3506 -0.5690  0.2111
 1819poe    c23 8863   2.113   1.854   5.904  0.0122 -0.3392 -0.3257
 1819poe     o2 8864   2.240   1.907   5.933 -0.3060  0.1394  0.2110
 1819poe    c23 8865   2.343   1.812   5.951 -0.2496  0.1090 -0.2768
 1819poe    c23 8866   2.475   1.889   5.966  0.0550 -0.4498 -0.0818
 1819poe     o2 8867   2.498   1.985   5.866  0.0862  0.1791  0.5205
 1819poe    c31 8868   2.618   2.055   5.888  0.3268  0.1745 -0.7256
 1820poe    c31 8869   2.620   3.806   6.946  0.8823  0.1996 -0.4030
 1820poe     o2 8870   2.596   3.706   7.043 -0.2989  0.8569 -0.0063
 1820poe    c23 8871   2.467   3.710   7.101 -0.2162  0.1903  0.2251
 1820poe    c23 8872   2.434   3.578   7.174  0.1781  0.1677  0.3678
 1820poe     o2 8873   2.525   3.555   7.279  0.1359  0.3709  0.4488
 1820poe    c23 8874   2.469   3.446   7.350 -0.2414 -0.0332 -0.4539
 1820poe    c23 8875   2.575   3.334   7.352 -0.2256 -0.0069  0.1723
 1820poe     o2 8876   2.704   3.390   7.364 -0.1458 -0.2185  0.3082
 1820poe    c23 8877   2.798   3.285   7.370 -0.1564 -0.2266  0.3271
 1820poe    c23 8878   2.941   3.342   7.381 -0.0208 -0.4363 -0.2841
 1820poe     o2 8879   2.926   3.465   7.314  0.4935 -0.4058 -0.3418
 1820poe    c31 8880   3.051   3.529   7.301 -0.0807  0.8028 -0.0179
 1821poe    c31 8881   5.910   4.691   2.444  0.7364  0.1113 -0.5293
 1821poe     o2 8882   5.904   4.578   2.359 -0.2713 -0.2633  0.0229
 1821poe    c23 8883   5.794   4.602   2.273 -0.4787 -0.9367  0.0967
 1821poe    c23 8884   5.723   4.491   2.195 -0.5914 -0.3445 -0.6560
 1821poe     o2 8885   5.803   4.456   2.084  0.5333 -0.6981  0.2506
 1821poe    c23 8886   5.769   4.332   2.027 -0.3555 -0.2601 -0.1887
 1821poe    c23 8887   5.844   4.286   1.900  0.1288 -0.1621  0.0598
 1821poe     o2 8888   5.978   4.321   1.925 -0.0821  0.6590  0.0636
 1821poe    c23 8889   6.051   4.320   1.804 -0.0030  0.4075  0.1143
 1821poe    c23 8890   6.196   4.359   1.836  0.1909 -0.0842 -0.1505
 1821poe     o2 8891   6.173   4.486   1.894  0.3052 -0.1289 -0.0066
 1821poe    c31 8892   6.286   4.570   1.892  0.0478  0.2142 -0.2045
 1822poe    c31 8893   3.099   4.949   4.717 -0.1032  0.4512  0.1930
 1822poe     o2 8894   3.157   4.948   4.846 -0.0768  0.1158  0.1783
 1822poe    c23 8895   3.297   4.932   4.852 -0.0834 -0.0889 -0.1244
 1822poe    c23 8896   3.374   4.977   4.978 -0.1341  0.1569 -0.1806
 1822poe     o2 8897   3.321   4.922   5.097 -0.1283  0.3501 -0.0882
 1822poe    c23 8898   3.406   4.926   5.210  0.3531 -0.1840 -0.4231
 1822poe    c23 8899   3.311   4.885   5.324  0.5276 -0.1225 -0.2569
 1822poe     o2 8900   3.202   4.973   5.335  0.6392  0.0135 -0.2321
 1822poe    c23 8901   3.124   4.916   5.437  0.4094  0.7292 -0.0019
 1822poe    c23 8902   3.005   5.011   5.460 -0.5867 -0.5013  0.0224
 1822poe     o2 8903   2.964   5.054   5.332  0.2301  1.0346  0.2613
 1822poe    c31 8904   2.838   5.112   5.359  0.0475  0.6947  0.1442
 1823poe    c31 8905   6.509   1.087   6.526 -1.0471  0.1964 -0.0250
 1823poe     o2 8906   6.455   0.964   6.484  0.1419 -0.3295 -0.0410
 1823poe    c23 8907   6.342   0.972   6.401  0.0102 -0.5134  0.1166
 1823poe    c23 8908   6.377   0.956   6.252  0.1057  0.2100  0.0537
 1823poe     o2 8909   6.411   0.824   6.215  0.0784  0.1147  0.3702
 1823poe    c23 8910   6.509   0.834   6.114 -0.0228 -0.3059  0.2295
 1823poe    c23 8911   6.547   0.697   6.054  0.6610  0.1808 -0.4654
 1823poe     o2 8912   6.583   0.604   6.154  0.7624  0.4471 -0.2521
 1823poe    c23 8913   6.606   0.479   6.094 -0.4611  0.0338  0.1030
 1823poe    c23 8914   6.664   0.370   6.186  0.0730  0.0469 -0.2084
 1823poe     o2 8915   6.595   0.357   6.308 -0.3953  0.5125 -0.4197
 1823poe    c31 8916   6.487   0.266   6.306  0.2675 -0.3096  0.2960
 1824poe    c31 8917   3.495   0.002   6.142 -0.5082 -0.1482 -0.1818
 1824poe     o2 8918   3.569   0.100   6.210  0.1073 -0.3686 -0.5258
 1824poe    c23 8919   3.536   0.225   6.154  0.1965 -0.0632  0.0985
 1824poe    c23 8920   3.620   0.329   6.231  0.1538  0.0601 -0.0193
 1824poe     o2 8921   3.622   0.302   6.370 -0.2642 -0.3048 -0.0803
 1824poe    c23 8922   3.666   0.415   6.442 -0.4637 -0.2460 -0.0502
 1824poe    c23 8923   3.633   0.389   6.591  0.3755  0.3718  0.2490
 1824poe     o2 8924   3.696   0.281   6.655 -0.1778 -0.0851  0.0303
 1824poe    c23 8925   3.652   0.264   6.788  1.0870  0.6025  0.5625
 1824poe    c23 8926   3.688   0.118   6.819  0.5497  0.2761 -0.3132
 1824poe     o2 8927   3.608   0.038   6.734  0.5615 -0.4051  0.2992
 1824poe    c31 8928   3.557  -0.063   6.817 -0.2949 -0.2628 -0.0353
 1825poe    c31 8929   2.912   3.041   3.835  0.4337  0.1208 -0.0040
 1825poe     o2 8930   2.863   3.172   3.856  0.2252  0.1222 -0.5004
 1825poe    c23 8931   2.789   3.208   3.741 -0.7197 -0.0797  0.0382
 1825poe    c23 8932   2.728   3.348   3.760 -0.1708  0.1619  0.0352
 1825poe     o2 8933   2.825   3.435   3.814 -0.7344  0.1697  1.0629
 1825poe    c23 8934   2.780   3.567   3.833 -0.2941  0.4499  0.2120
 1825poe    c23 8935   2.903   3.659   3.849 -0.2107  0.3471  0.1590
 1825poe     o2 8936   3.010   3.595   3.914 -0.3109  0.1728  0.1564
 1825poe    c23 8937   3.114   3.691   3.923 -0.4170  0.2859  0.1904
 1825poe    c23 8938   3.248   3.635   3.974 -0.1651  0.5619 -0.1704
 1825poe     o2 8939   3.291   3.523   3.899 -0.1822  0.4362  0.0095
 1825poe    c31 8940   3.409   3.467   3.952 -0.1290  0.7146  0.1921
 1826poe    c31 8941   3.346   0.579   0.985  0.0400  0.1399  0.2513
 1826poe     o2 8942   3.451   0.647   1.048 -0.0487  0.3165  0.2088
 1826poe    c23 8943   3.408   0.765   1.113 -0.0155  0.2135  0.4181
 1826poe    c23 8944   3.520   0.813   1.207  0.3261  0.2877 -0.0239
 1826poe     o2 8945   3.640   0.846   1.140  0.3142  0.0988 -0.1378
 1826poe    c23 8946   3.750   0.851   1.228  0.1036  0.2312  0.1220
 1826poe    c23 8947   3.863   0.912   1.142 -0.1442  0.4539 -0.0461
 1826poe     o2 8948   3.852   0.868   1.009  0.2844  0.8880 -0.2245
 1826poe    c23 8949   3.968   0.909   0.939  0.5158  0.4765 -0.0841
 1826poe    c23 8950   3.953   0.852   0.797  0.3872  0.4326 -0.0535
 1826poe     o2 8951   3.854   0.930   0.733  0.4333  0.5598  0.0302
 1826poe    c31 8952   3.825   0.870   0.609 -0.3216 -0.2555  0.5976
 1827poe    c31 8953   4.586   6.943   4.048 -0.1919  0.2244 -0.1618
 1827poe     o2 8954   4.656   7.064   4.064 -0.2429  0.2425 -0.0792
 1827poe    c23 8955   4.689   7.124   3.941 -0.3760  0.4868  0.0014
 1827poe    c23 8956   4.713   7.276   3.951 -0.8679  0.5554  0.1971
 1827poe     o2 8957   4.784   7.318   3.836 -0.1355 -0.1067  0.3953
 1827poe    c23 8958   4.830   7.451   3.844 -0.0547 -0.0762 -0.4754
 1827poe    c23 8959   4.953   7.475   3.755 -0.2068  0.7237 -0.4754
 1827poe     o2 8960   4.922   7.436   3.623  0.5363  0.1265 -0.4784
 1827poe    c23 8961   5.032   7.440   3.535  0.6684 -0.3299 -0.3410
 1827poe    c23 8962   5.008   7.387   3.392 -0.2079  0.0880 -0.3565
 1827poe     o2 8963   4.931   7.269   3.404  0.1054 -0.0424  0.4637
 1827poe    c31 8964   4.889   7.202   3.288  0.4525  0.3097  0.1294
 1828poe    c31 8965   6.927   3.387   6.198  0.3320 -0.0625 -0.5624
 1828poe     o2 8966   6.996   3.265   6.211  0.5433  0.1228  0.0946
 1828poe    c23 8967   6.997   3.202   6.085 -0.0143 -0.0662  0.1851
 1828poe    c23 8968   7.073   3.072   6.052  0.3546 -0.0368  0.9133
 1828poe     o2 8969   7.031   2.953   6.115  0.1990 -0.0640  0.7606
 1828poe    c23 8970   7.117   2.847   6.079 -0.1382 -0.1694  0.2686
 1828poe    c23 8971   7.088   2.715   6.152 -0.3105 -0.1285  0.2763
 1828poe     o2 8972   6.959   2.669   6.119 -0.1854 -0.3476  0.0846
 1828poe    c23 8973   6.927   2.554   6.194 -0.0323 -0.2314  0.3303
 1828poe    c23 8974   6.776   2.530   6.212 -0.1211 -0.3975 -0.5963
 1828poe     o2 8975   6.716   2.566   6.089  0.2019  0.5980 -0.4715
 1828poe    c31 8976   6.597   2.492   6.074  0.4428  0.0782  0.1376
 1829poe    c31 8977   0.720   0.113   5.119 -0.3781  0.1444  0.4638
 1829poe     o2 8978   0.857   0.102   5.086 -0.4408  0.3227  0.1426
 1829poe    c23 8979   0.860   0.017   4.973 -0.0369  0.2075  0.2409
 1829poe    c23 8980   0.985   0.048   4.888 -0.0659 -0.1434  0.0702
 1829poe     o2 8981   1.103  -0.008   4.940 -0.0220  0.1560  0.2978
 1829poe    c23 8982   1.212  -0.001   4.851 -0.1154  0.0708  0.1756
 1829poe    c23 8983   1.309  -0.103   4.913  0.0610  0.0612 -0.1087
 1829poe     o2 8984   1.327  -0.062   5.047  0.0333  0.2406 -0.1602
 1829poe    c23 8985   1.430  -0.111   5.131  0.1910  0.4086 -0.2538
 1829poe    c23 8986   1.419  -0.011   5.247 -0.4674  0.1054 -0.0485
 1829poe     o2 8987   1.307  -0.023   5.332 -0.0321  0.2205  0.5455
 1829poe    c31 8988   1.322   0.044   5.455 -0.0657  0.8398  0.2157
 1830poe    c31 8989   4.322   5.630   1.118  0.2717 -0.2052  0.0045
 1830poe     o2 8990   4.416   5.701   1.041  0.0282  0.0431 -0.0646
 1830poe    c23 8991   4.474   5.616   0.945 -0.0973  0.1365 -0.2233
 1830poe    c23 8992   4.595   5.693   0.890 -0.0193 -0.0565 -0.3236
 1830poe     o2 8993   4.569   5.805   0.808  0.0776  0.1055 -0.1322
 1830poe    c23 8994   4.683   5.884   0.786  0.5545 -0.4290  0.3652
 1830poe    c23 8995   4.645   6.034   0.787 -0.6276 -0.7199  0.2581
 1830poe     o2 8996   4.589   6.077   0.909 -0.1886 -0.2865  0.3089
 1830poe    c23 8997   4.685   6.148   0.984 -0.1551  0.0716 -0.0713
 1830poe    c23 8998   4.631   6.185   1.123 -1.2148 -0.9455 -0.1946
 1830poe     o2 8999   4.510   6.258   1.123 -0.5254  0.2236 -0.6827
 1830poe    c31 9000   4.500   6.324   1.248  0.4582 -0.0988 -0.4200
 1831poe    c31 9001   0.729   1.274   4.596 -0.4904 -0.1673  0.2419
 1831poe     o2 9002   0.740   1.414   4.606 -0.4775 -0.1596  0.1181
 1831poe    c23 9003   0.651   1.480   4.519 -0.2947 -0.0431  0.0194
 1831poe    c23 9004   0.629   1.628   4.558  1.0837  0.0837  0.4013
 1831poe     o2 9005   0.537   1.639   4.664 -0.2372 -0.1552 -0.6919
 1831poe    c23 9006   0.481   1.769   4.662  0.1765  0.0425  0.3851
 1831poe    c23 9007   0.363   1.786   4.759 -0.1650 -0.2285  0.0167
 1831poe     o2 9008   0.403   1.790   4.894  0.4813 -0.2996 -0.1694
 1831poe    c23 9009   0.309   1.865   4.968  0.2435 -0.8289  0.0737
 1831poe    c23 9010   0.316   1.838   5.120 -0.1252  0.1815  0.2812
 1831poe     o2 9011   0.441   1.873   5.174 -0.0453 -0.5677  0.5921
 1831poe    c31 9012   0.434   1.881   5.315 -0.1188 -0.4504  0.5819
 1832poe    c31 9013   0.067   6.307   5.674  0.1055 -0.2033  0.4436
 1832poe     o2 9014  -0.067   6.270   5.697 -0.0203  0.0595  0.1529
 1832poe    c23 9015  -0.072   6.136   5.654 -0.3679  0.2772 -0.4963
 1832poe    c23 9016  -0.183   6.067   5.735  0.0347 -0.0298 -0.2004
 1832poe     o2 9017  -0.293   6.155   5.751  0.0862 -0.0941  0.5535
 1832poe    c23 9018  -0.399   6.102   5.827 -0.0750 -0.2248  0.2400
 1832poe    c23 9019  -0.516   6.197   5.797 -0.1542 -0.3993 -0.0123
 1832poe     o2 9020  -0.476   6.332   5.806  0.4688 -0.6009  0.2916
 1832poe    c23 9021  -0.584   6.421   5.818  0.9090 -0.0157 -0.0290
 1832poe    c23 9022  -0.540   6.550   5.745  0.4837  0.0289 -0.2099
 1832poe     o2 9023  -0.414   6.608   5.772  0.2061  0.2651  0.6232
 1832poe    c31 9024  -0.403   6.663   5.901 -0.2654  1.0814  0.3306
 1833poe    c31 9025   0.549   2.692   3.288 -0.0658 -0.2794 -1.0438
 1833poe     o2 9026   0.683   2.719   3.252 -0.1304  1.1354 -0.2527
 1833poe    c23 9027   0.713   2.701   3.116 -0.5020  0.4173 -0.2422
 1833poe    c23 9028   0.866   2.693   3.101 -0.5229 -0.8399  0.1034
 1833poe     o2 9029   0.913   2.786   3.196 -0.4222 -0.4728 -0.3054
 1833poe    c23 9030   1.052   2.774   3.215 -0.3453  0.6411 -0.0490
 1833poe    c23 9031   1.107   2.895   3.291  0.4391 -0.1721  0.7064
 1833poe     o2 9032   1.027   2.902   3.407 -0.3199  0.1552  0.1737
 1833poe    c23 9033   1.103   2.933   3.522  0.0499 -0.5028  0.1074
 1833poe    c23 9034   1.017   2.965   3.645 -0.5700 -0.3348 -0.3674
 1833poe     o2 9035   0.944   2.848   3.675  0.1422 -0.6818  0.0256
 1833poe    c31 9036   0.872   2.865   3.795  0.1117  0.2575 -0.1253
 1834poe    c31 9037   2.157   6.738   5.082  0.0694 -0.5201 -0.7087
 1834poe     o2 9038   2.251   6.653   5.142  0.0752  0.0834  0.1626
 1834poe    c23 9039   2.297   6.696   5.268  0.6689 -0.3836  0.1102
 1834poe    c23 9040   2.369   6.570   5.321  0.2381 -0.4712  0.4977
 1834poe     o2 9041   2.451   6.519   5.219 -0.1025 -0.0906  0.0243
 1834poe    c23 9042   2.539   6.419   5.267  0.0858  0.2267  0.3438
 1834poe    c23 9043   2.603   6.347   5.146 -0.3897 -0.1513  0.3157
 1834poe     o2 9044   2.496   6.282   5.081 -0.1444 -0.1429 -0.1018
 1834poe    c23 9045   2.528   6.234   4.953  0.3761 -0.4305  0.1351
 1834poe    c23 9046   2.428   6.125   4.909  0.0149  0.0586 -0.2653
 1834poe     o2 9047   2.308   6.194   4.885 -0.2124 -0.1824  0.1630
 1834poe    c31 9048   2.220   6.094   4.840  0.1940 -0.6528  0.4122
 1835poe    c31 9049   6.285   6.167   1.624 -0.0991  0.0063 -0.2659
 1835poe     o2 9050   6.263   6.049   1.698  0.1940  0.1064 -0.0185
 1835poe    c23 9051   6.160   6.067   1.793  0.0396 -0.1066 -0.1435
 1835poe    c23 9052   6.108   5.936   1.853 -0.3709  0.3550  0.5167
 1835poe     o2 9053   6.221   5.857   1.881 -0.4077  0.0884 -0.0699
 1835poe    c23 9054   6.199   5.732   1.943 -0.0180 -0.4302 -0.9587
 1835poe    c23 9055   6.334   5.676   1.992 -0.0000  0.4559  0.0360
 1835poe     o2 9056   6.407   5.658   1.873 -0.3642 -0.2413 -0.0896
 1835poe    c23 9057   6.531   5.611   1.921 -0.4728 -0.4604 -0.0241
 1835poe    c23 9058   6.623   5.575   1.803  0.3368  0.1381  0.4138
 1835poe     o2 9059   6.675   5.687   1.735 -0.4550  0.0457 -0.3701
 1835poe    c31 9060   6.739   5.654   1.614 -0.0168 -0.7341  0.0604
 1836poe    c31 9061   2.005   2.841   6.066  0.4985 -0.0213  0.5912
 1836poe     o2 9062   2.067   2.884   5.947 -0.2026 -0.1876  0.1604
 1836poe    c23 9063   2.014   2.807   5.841 -0.2311  0.6725 -0.4615
 1836poe    c23 9064   2.113   2.817   5.724  0.0944 -0.1524 -0.2641
 1836poe     o2 9065   2.245   2.804   5.773 -0.0221 -0.1554  0.0454
 1836poe    c23 9066   2.350   2.822   5.681 -0.1248 -0.1778 -0.0775
 1836poe    c23 9067   2.480   2.769   5.745  0.1697  0.2432 -0.3298
 1836poe     o2 9068   2.488   2.818   5.877  0.3136 -0.2749 -0.1448
 1836poe    c23 9069   2.619   2.795   5.921  0.1355 -0.4339  0.3090
 1836poe    c23 9070   2.622   2.801   6.075 -0.1212  0.6700  0.2824
 1836poe     o2 9071   2.566   2.687   6.138 -0.2267  0.3012 -0.4671
 1836poe    c31 9072   2.650   2.574   6.149 -0.7453  0.0221  0.7665
 1837poe    c31 9073   3.717   3.369   2.257  0.1520  0.0967 -0.2624
 1837poe     o2 9074   3.790   3.428   2.151 -0.0253  0.1584 -0.3497
 1837poe    c23 9075   3.910   3.478   2.204 -0.3115  0.3799  0.0931
 1837poe    c23 9076   4.002   3.551   2.104  0.3431 -0.1268  0.3196
 1837poe     o2 9077   4.060   3.469   2.005  0.2222  0.1208  0.0434
 1837poe    c23 9078   4.148   3.557   1.937  0.2403  0.1083  0.0510
 1837poe    c23 9079   4.280   3.481   1.917  0.3319  0.3958 -0.4493
 1837poe     o2 9080   4.353   3.461   2.036 -0.3787  0.1586 -0.0497
 1837poe    c23 9081   4.420   3.337   2.039  0.0373  0.3805 -0.0773
 1837poe    c23 9082   4.341   3.218   2.097  1.0639 -0.3761 -0.1999
 1837poe     o2 9083   4.333   3.223   2.237  0.7165 -0.6596 -0.2093
 1837poe    c31 9084   4.247   3.119   2.281  0.1126 -0.1181 -0.0923
 1838poe    c31 9085   3.552   0.149   3.872 -0.4416 -0.1053  0.2211
 1838poe     o2 9086   3.497   0.140   3.743 -0.3069  0.0264  0.1532
 1838poe    c23 9087   3.502   0.257   3.665 -0.0235 -0.0178  0.1021
 1838poe    c23 9088   3.403   0.262   3.547 -0.0536  0.0057  0.1281
 1838poe     o2 9089   3.409   0.135   3.485  0.3258  0.0524  0.0660
 1838poe    c23 9090   3.326   0.137   3.371  0.0536 -0.1849  0.2606
 1838poe    c23 9091   3.319  -0.003   3.307  0.8292 -0.2625  0.3446
 1838poe     o2 9092   3.216  -0.066   3.379  0.5719  0.0954  0.2905
 1838poe    c23 9093   3.229  -0.206   3.368 -0.2903  0.0052  0.3057
 1838poe    c23 9094   3.113  -0.276   3.441 -0.2714 -0.1228  0.2118
 1838poe     o2 9095   3.134  -0.254   3.579  0.2836 -0.0484  0.1188
 1838poe    c31 9096   3.037  -0.328   3.649  0.0423 -0.4523 -0.6247
 1839poe    c31 9097   2.937   2.856   1.158 -0.1035  0.6186  0.1909
 1839poe     o2 9098   2.809   2.796   1.151  0.3696 -0.3957  0.0409
 1839poe    c23 9099   2.723   2.842   1.048 -0.3042 -0.0843  0.7358
 1839poe    c23 9100   2.590   2.764   1.059 -0.4926  0.0327 -0.5608
 1839poe     o2 9101   2.525   2.781   1.183 -0.0347  0.1341 -0.3309
 1839poe    c23 9102   2.410   2.699   1.186 -0.1996  0.3662 -0.2797
 1839poe    c23 9103   2.338   2.722   1.320 -0.0684 -0.2269 -0.1029
 1839poe     o2 9104   2.430   2.705   1.426 -0.0834  0.6103  0.0543
 1839poe    c23 9105   2.364   2.719   1.549 -0.2917 -0.0758  0.0247
 1839poe    c23 9106   2.481   2.698   1.648  0.4875 -0.4228 -0.9509
 1839poe     o2 9107   2.583   2.765   1.579  0.7244  0.1911 -0.0248
 1839poe    c31 9108   2.694   2.768   1.666  0.5387 -0.0699  0.2218
 1840poe    c31 9109   3.591   0.694   4.591 -0.2531 -0.2280 -0.5329
 1840poe     o2 9110   3.592   0.729   4.455  0.7499  0.0597 -0.4566
 1840poe    c23 9111   3.492   0.823   4.425  0.4288 -0.0323  0.3253
 1840poe    c23 9112   3.426   0.794   4.289  0.6208  0.0400  0.2168
 1840poe     o2 9113   3.523   0.749   4.197  0.1575  0.2047 -0.3618
 1840poe    c23 9114   3.464   0.697   4.080 -0.2723 -0.2306  0.0458
 1840poe    c23 9115   3.570   0.686   3.969 -0.1009  0.2918  0.1507
 1840poe     o2 9116   3.689   0.619   4.005 -0.2801 -0.0296  0.1571
 1840poe    c23 9117   3.797   0.639   3.917 -0.3046 -0.5745  0.0062
 1840poe    c23 9118   3.933   0.603   3.980 -0.2600  0.2443  0.3811
 1840poe     o2 9119   3.968   0.658   4.105  0.5441  0.2564  0.1530
 1840poe    c31 9120   4.102   0.703   4.108  0.5066  0.3473  0.4835
 1841poe    c31 9121   6.158   1.960   4.705 -0.1656 -0.0688  0.2680
 1841poe     o2 9122   6.243   2.057   4.648 -0.4642  0.2563  0.3656
 1841poe    c23 9123   6.203   2.088   4.516  0.1410 -0.1784  0.0713
 1841poe    c23 9124   6.247   2.230   4.474  0.0717 -0.1153  0.2114
 1841poe     o2 9125   6.225   2.329   4.572 -0.0531 -0.3066  0.3764
 1841poe    c23 9126   6.266   2.454   4.523  0.0812 -0.4624  0.0855
 1841poe    c23 9127   6.258   2.546   4.647 -0.1321 -0.0329 -0.2458
 1841poe     o2 9128   6.357   2.517   4.742 -0.1990 -0.3014 -0.2590
 1841poe    c23 9129   6.354   2.626   4.832 -0.3522 -0.2345 -0.3439
 1841poe    c23 9130   6.487   2.621   4.910 -0.2478 -0.5955 -0.5410
 1841poe     o2 9131   6.599   2.657   4.832  0.0999 -0.1746  0.1396
 1841poe    c31 9132   6.720   2.632   4.899  0.2210  0.2611  0.0845
 1842poe    c31 9133   2.490   4.057   3.300 -0.3811  0.1223 -0.0473
 1842poe     o2 9134   2.376   4.072   3.218 -0.1646 -0.4418 -0.4601
 1842poe    c23 9135   2.329   4.200   3.255  0.5805 -0.1722 -0.4278
 1842poe    c23 9136   2.196   4.209   3.178  0.7190 -0.2289 -0.6757
 1842poe     o2 9137   2.128   4.087   3.194 -0.0380  0.3272  0.5277
 1842poe    c23 9138   1.999   4.098   3.138  0.1091 -0.1435  0.0906
 1842poe    c23 9139   1.912   3.976   3.174  0.2694 -0.2301  0.1826
 1842poe     o2 9140   1.884   3.984   3.312  0.3359 -0.3545  0.2038
 1842poe    c23 9141   1.887   3.857   3.375  0.0138 -0.6335 -0.3420
 1842poe    c23 9142   1.922   3.860   3.524  0.2711  0.3246 -0.4128
 1842poe     o2 9143   2.056   3.897   3.547  0.3002 -0.0220 -0.0090
 1842poe    c31 9144   2.079   3.932   3.682 -0.0634  0.1476  0.0086
 1843poe    c31 9145   4.161   2.652   2.780 -0.0637  0.3108  0.9684
 1843poe     o2 9146   4.179   2.791   2.770  0.1260  0.2226 -0.0276
 1843poe    c23 9147   4.242   2.839   2.653  0.3504  0.5854  0.2380
 1843poe    c23 9148   4.385   2.797   2.612  0.3554  0.8231  0.0147
 1843poe     o2 9149   4.496   2.828   2.693  0.5255  0.5471 -0.1123
 1843poe    c23 9150   4.586   2.720   2.702  0.6991  0.6882 -0.1402
 1843poe    c23 9151   4.655   2.757   2.835  0.3611 -0.0556  0.2537
 1843poe     o2 9152   4.728   2.878   2.826 -0.1847  0.2868  0.3791
 1843poe    c23 9153   4.788   2.922   2.946  0.4083 -0.0522  0.2103
 1843poe    c23 9154   4.809   3.074   2.926 -0.2083  0.1156  0.8014
 1843poe     o2 9155   4.686   3.142   2.940 -0.3846  0.0860 -0.5527
 1843poe    c31 9156   4.719   3.279   2.938  0.5908 -0.1254  0.1824
 1844poe    c31 9157   1.867   4.238   2.312 -0.3023 -0.2950  1.5573
 1844poe     o2 9158   1.740   4.194   2.270  0.0628  0.1605 -0.0542
 1844poe    c23 9159   1.732   4.058   2.306  0.0380  0.1858  0.0348
 1844poe    c23 9160   1.596   3.990   2.286  0.0105  0.1938  0.1962
 1844poe     o2 9161   1.589   3.850   2.304 -0.1858  0.1884  0.0872
 1844poe    c23 9162   1.453   3.812   2.301 -0.2173  0.3112 -0.0432
 1844poe    c23 9163   1.452   3.670   2.243 -0.2735  0.0488  0.5985
 1844poe     o2 9164   1.553   3.585   2.292 -0.1596 -0.0452  0.2038
 1844poe    c23 9165   1.561   3.467   2.215 -0.1538  0.2038 -0.1768
 1844poe    c23 9166   1.667   3.374   2.277 -0.3598  0.4494  0.5480
 1844poe     o2 9167   1.773   3.455   2.323  0.1650  0.2099 -0.2210
 1844poe    c31 9168   1.865   3.364   2.380 -0.1611  0.1004  0.1358
 1845poe    c31 9169   0.020   6.555   6.334 -0.1702  0.0805 -0.0491
 1845poe     o2 9170  -0.053   6.675   6.338 -0.4555 -0.0936 -0.0136
 1845poe    c23 9171  -0.026   6.754   6.224  0.1186 -0.0540  0.1449
 1845poe    c23 9172  -0.115   6.878   6.202  0.2479 -0.0594 -0.4027
 1845poe     o2 9173  -0.065   6.979   6.286  0.2525  0.2660 -0.7927
 1845poe    c23 9174  -0.142   7.096   6.267  0.0874  0.2326 -0.3480
 1845poe    c23 9175  -0.166   7.158   6.406 -0.2769 -0.1034 -0.2609
 1845poe     o2 9176  -0.043   7.156   6.475 -0.5255  0.2376  0.2035
 1845poe    c23 9177  -0.023   7.227   6.595  0.1944  0.2413  0.0871
 1845poe    c23 9178   0.115   7.197   6.657  0.3812  0.6831 -0.1074
 1845poe     o2 9179   0.126   7.057   6.673  0.0696  0.6449 -0.2043
 1845poe    c31 9180   0.237   7.028   6.755  0.5218  0.0052 -1.0275
 1846poe    c31 9181   3.125   5.611   3.132  0.4170  0.1756  0.0794
 1846poe     o2 9182   3.075   5.643   3.005  0.4626  0.1315  0.0506
 1846poe    c23 9183   2.963   5.721   3.041  0.2522  0.0571 -0.4212
 1846poe    c23 9184   2.928   5.811   2.921 -0.2732 -0.1089 -0.3943
 1846poe     o2 9185   2.931   5.729   2.806 -0.2864 -0.0863 -0.4107
 1846poe    c23 9186   2.962   5.797   2.686 -0.5481 -0.0726 -0.4712
 1846poe    c23 9187   3.110   5.773   2.648 -0.4946 -0.0786 -0.2610
 1846poe     o2 9188   3.137   5.639   2.683 -0.3092 -0.0575 -0.3238
 1846poe    c23 9189   3.276   5.622   2.668 -0.2564 -0.2803  0.4136
 1846poe    c23 9190   3.296   5.476   2.715  1.2391 -0.1614  0.1880
 1846poe     o2 9191   3.202   5.447   2.816  0.2422  0.5823 -0.5076
 1846poe    c31 9192   3.226   5.319   2.869  0.0696  0.5826 -0.4261
 1847poe    c31 9193   5.354   4.161   0.135  0.2515  0.7134 -0.2798
 1847poe     o2 9194   5.378   4.053   0.222 -0.2258  0.1641 -0.8206
 1847poe    c23 9195   5.491   3.981   0.177  0.2345  0.2308  0.1854
 1847poe    c23 9196   5.486   3.829   0.196 -0.2416  0.1723 -0.3557
 1847poe     o2 9197   5.404   3.775   0.096 -0.3932 -0.2816  0.0075
 1847poe    c23 9198   5.408   3.634   0.102 -0.6161 -0.2847  0.0859
 1847poe    c23 9199   5.315   3.557   0.006  0.1374 -0.6004 -0.3929
 1847poe     o2 9200   5.357   3.564  -0.129  0.0035 -0.3937 -0.4233
 1847poe    c23 9201   5.252   3.532  -0.217  0.1235 -0.3024 -0.5997
 1847poe    c23 9202   5.303   3.546  -0.362  0.3022 -0.0195 -0.5115
 1847poe     o2 9203   5.327   3.677  -0.407 -0.0443  0.1248 -0.2853
 1847poe    c31 9204   5.220   3.738  -0.476 -0.3451  0.5473  0.5356
 1848poe    c31 9205   1.096   4.318   6.314 -0.2440  0.6847  0.1806
 1848poe     o2 9206   1.227   4.320   6.367 -0.0260 -0.0251 -0.3254
 1848poe    c23 9207   1.261   4.197   6.428  0.0418  0.1261 -0.0612
 1848poe    c23 9208   1.411   4.187   6.462  0.0257 -0.2981 -0.1179
 1848poe     o2 9209   1.497   4.244   6.367 -0.3742  0.4108 -0.0645
 1848poe    c23 9210   1.631   4.202   6.385 -0.4691  0.0240 -0.2372
 1848poe    c23 9211   1.717   4.259   6.270  0.1179 -0.2867  0.0426
 1848poe     o2 9212   1.710   4.400   6.259 -0.0604 -0.3161 -0.2438
 1848poe    c23 9213   1.760   4.427   6.130  0.7626 -0.0158  0.1331
 1848poe    c23 9214   1.726   4.576   6.111 -0.1074 -0.2411 -0.1309
 1848poe     o2 9215   1.596   4.609   6.153 -0.2511  0.0124 -0.7707
 1848poe    c31 9216   1.586   4.748   6.139 -0.9319  0.0303 -0.1880
 1849poe    c31 9217   4.744   1.969   6.752 -0.1276 -0.6101  0.4058
 1849poe     o2 9218   4.819   1.850   6.761  0.4212 -0.3289 -0.3189
 1849poe    c23 9219   4.869   1.847   6.893  0.3424 -0.3944 -0.2901
 1849poe    c23 9220   5.008   1.785   6.918  0.5550  0.2087  0.0502
 1849poe     o2 9221   5.024   1.645   6.923  0.6959  0.1942 -0.6775
 1849poe    c23 9222   5.163   1.621   6.930  0.7133  0.4818  0.1408
 1849poe    c23 9223   5.212   1.480   6.890  0.1414  0.3444 -0.0792
 1849poe     o2 9224   5.209   1.387   6.997  0.4700 -0.2146 -0.5529
 1849poe    c23 9225   5.241   1.255   6.959 -0.5363 -0.6555  0.0885
 1849poe    c23 9226   5.385   1.211   6.929 -0.2867  0.2316 -0.0680
 1849poe     o2 9227   5.457   1.190   7.049 -0.3492  0.5049  0.0167
 1849poe    c31 9228   5.595   1.203   7.024 -0.3293 -0.3111 -0.3220
 1850poe    c31 9229   1.036   4.869   4.107 -0.6346  0.1161  0.2056
 1850poe     o2 9230   1.031   4.816   3.976 -0.4117  0.4290  0.0678
 1850poe    c23 9231   0.929   4.879   3.903 -0.3747  0.3512 -0.0514
 1850poe    c23 9232   0.922   4.842   3.753  0.1117  0.0997 -0.0119
 1850poe     o2 9233   0.881   4.707   3.743  0.3527  0.0512 -0.3556
 1850poe    c23 9234   0.817   4.682   3.620 -0.7149  0.2605  0.1449
 1850poe    c23 9235   0.757   4.541   3.616  0.0818 -0.0896  0.2892
 1850poe     o2 9236   0.744   4.492   3.747 -0.1872  0.1572  0.3568
 1850poe    c23 9237   0.733   4.351   3.747  0.0246  0.1400 -0.1323
 1850poe    c23 9238   0.704   4.298   3.888 -0.2094  0.5583 -0.0231
 1850poe     o2 9239   0.824   4.290   3.962 -0.2240 -0.2093 -0.0748
 1850poe    c31 9240   0.789   4.247   4.091  0.3826 -0.1370  0.1150
 1851poe    c31 9241   6.597   0.695   3.783 -0.5422  0.6374  0.2981
 1851poe     o2 9242   6.654   0.789   3.695  0.4151 -0.2071 -0.0079
 1851poe    c23 9243   6.636   0.920   3.743  0.2648 -0.0668 -0.4395
 1851poe    c23 9244   6.714   1.022   3.658 -0.0679  0.5013 -0.0747
 1851poe     o2 9245   6.824   0.952   3.604 -0.3257  0.5243 -0.6482
 1851poe    c23 9246   6.906   1.033   3.523  0.1412  0.7150  0.0072
 1851poe    c23 9247   7.007   0.954   3.438 -0.7837 -0.3175 -0.1541
 1851poe     o2 9248   6.949   0.846   3.369 -0.1006 -0.2415 -0.8538
 1851poe    c23 9249   7.040   0.762   3.301  0.4355 -0.0106 -0.4269
 1851poe    c23 9250   6.960   0.673   3.204 -0.4306  0.3592 -0.0634
 1851poe     o2 9251   6.856   0.606   3.270  0.2180 -0.3769  0.2265
 1851poe    c31 9252   6.819   0.485   3.208  0.0667 -0.4704  0.4966
 1852poe    c31 9253   4.637   6.830   3.492  0.3516 -0.0904  0.3427
 1852poe     o2 9254   4.533   6.899   3.426  0.5010  0.0040  0.2050
 1852poe    c23 9255   4.446   6.963   3.516 -0.2661 -0.2607 -0.3388
 1852poe    c23 9256   4.335   7.044   3.446 -0.4089 -0.2843 -0.1401
 1852poe     o2 9257   4.370   7.148   3.359 -0.4815 -0.1809 -0.0458
 1852poe    c23 9258   4.275   7.252   3.353 -0.1217  0.1745  0.3189
 1852poe    c23 9259   4.347   7.370   3.287  0.1628 -0.1881 -0.0177
 1852poe     o2 9260   4.372   7.337   3.152 -0.4252  0.0604 -0.1879
 1852poe    c23 9261   4.478   7.418   3.107  0.0564 -0.5858 -0.2206
 1852poe    c23 9262   4.563   7.365   2.989  0.2630 -0.1302 -0.2796
 1852poe     o2 9263   4.643   7.250   3.003  0.1107 -0.2585 -0.4662
 1852poe    c31 9264   4.713   7.238   2.882  0.1376  0.2430 -0.5013
 1853poe    c31 9265   0.252   4.876   2.471 -0.6165  0.6410  0.5075
 1853poe     o2 9266   0.135   4.839   2.402 -0.2572 -0.1067  0.2922
 1853poe    c23 9267   0.024   4.830   2.487 -0.2985  0.6966  0.3349
 1853poe    c23 9268  -0.085   4.766   2.399  0.5410 -0.4110  0.0772
 1853poe     o2 9269  -0.081   4.837   2.278 -0.0156 -0.2488  0.1511
 1853poe    c23 9270  -0.174   4.791   2.182 -0.1313 -0.2906  0.2836
 1853poe    c23 9271  -0.120   4.790   2.038  0.0329  0.5617  0.3312
 1853poe     o2 9272   0.002   4.861   2.034 -0.0271  0.6412 -0.1518
 1853poe    c23 9273   0.024   4.894   1.899  0.0361  0.2229 -0.2449
 1853poe    c23 9274   0.167   4.936   1.860  0.2298 -0.5024 -0.3491
 1853poe     o2 9275   0.198   5.049   1.940 -0.0722 -0.2155 -0.6348
 1853poe    c31 9276   0.291   5.128   1.870 -0.0828  0.1510 -0.2351
 1854poe    c31 9277   5.897   1.855   1.079 -0.1428 -0.2186  0.0966
 1854poe     o2 9278   5.997   1.953   1.062 -0.2060 -0.1317  0.2198
 1854poe    c23 9279   6.107   1.907   0.988 -0.4646 -0.0150 -0.2446
 1854poe    c23 9280   6.213   2.013   0.951 -0.2679  0.0117  0.3994
 1854poe     o2 9281   6.154   2.126   0.892  0.3556 -0.3581 -0.9690
 1854poe    c23 9282   6.250   2.227   0.869 -0.1737  0.3304 -0.2015
 1854poe    c23 9283   6.174   2.342   0.800 -0.7964  0.0391 -0.0145
 1854poe     o2 9284   6.077   2.404   0.882 -0.8208 -0.5013  0.3741
 1854poe    c23 9285   6.001   2.490   0.799 -0.1589  0.0179  0.2927
 1854poe    c23 9286   5.900   2.570   0.884 -0.1994 -0.1191  0.3750
 1854poe     o2 9287   5.860   2.477   0.982 -0.2650 -0.2701  0.2051
 1854poe    c31 9288   5.769   2.529   1.077  0.3132  0.2117  0.5005
 1855poe    c31 9289   1.346   6.934   5.976  0.2531  0.1233  0.3141
 1855poe     o2 9290   1.271   6.983   6.085  0.6445  0.4377  0.4450
 1855poe    c23 9291   1.173   7.079   6.049  0.5749  0.3969  0.5266
 1855poe    c23 9292   1.106   7.143   6.172 -0.3022 -0.0480  0.2863
 1855poe     o2 9293   1.028   7.053   6.248 -0.1088 -0.0519  0.4810
 1855poe    c23 9294   0.976   7.117   6.362  0.5462  0.3455  0.5630
 1855poe    c23 9295   0.960   7.000   6.460 -0.5093 -0.4620 -0.5491
 1855poe     o2 9296   0.888   6.899   6.392 -0.0891 -0.6304 -0.7472
 1855poe    c23 9297   0.883   6.777   6.463  0.8559 -0.4909 -0.4304
 1855poe    c23 9298   0.770   6.700   6.392  0.1702  0.2981 -0.2066
 1855poe     o2 9299   0.795   6.710   6.254  0.0124  0.2301 -0.2407
 1855poe    c31 9300   0.722   6.614   6.183 -0.0217 -0.2364  0.4205
 1856poe    c31 9301   3.905   2.795   0.105 -0.1258  0.3964  0.8801
 1856poe     o2 9302   3.862   2.780  -0.028  0.4123 -0.1073  0.7620
 1856poe    c23 9303   3.947   2.696  -0.104 -0.8594 -0.7184 -0.0115
 1856poe    c23 9304   3.929   2.725  -0.255 -0.1008 -0.1353  0.0038
 1856poe     o2 9305   3.976   2.857  -0.272  0.1451 -0.1758  0.3381
 1856poe    c23 9306   3.924   2.908  -0.393  0.5310 -0.4169  0.0674
 1856poe    c23 9307   3.991   3.042  -0.427  0.6481 -0.3266  0.6513
 1856poe     o2 9308   3.964   3.136  -0.325  0.0790  0.0187  0.1864
 1856poe    c23 9309   4.070   3.229  -0.327  0.2961 -0.2348 -0.3520
 1856poe    c23 9310   4.102   3.310  -0.200  1.1868 -0.3856 -0.4745
 1856poe     o2 9311   4.156   3.230  -0.097 -0.2966 -0.7240  0.0574
 1856poe    c31 9312   4.166   3.315   0.015 -0.1510 -0.0830 -0.4368
 1857poe    c31 9313   5.009   2.536   1.095 -0.1678 -0.1160 -0.4023
 1857poe     o2 9314   4.939   2.648   1.145 -0.1499 -0.0986 -0.4155
 1857poe    c23 9315   4.803   2.664   1.112 -0.1379  0.1923 -0.3281
 1857poe    c23 9316   4.740   2.779   1.192 -0.0172  0.0641 -0.0460
 1857poe     o2 9317   4.837   2.881   1.203 -0.2668  0.2629  0.3439
 1857poe    c23 9318   4.791   3.014   1.204 -0.2634  0.2635  0.5002
 1857poe    c23 9319   4.907   3.111   1.237 -0.0319 -0.0738  0.6723
 1857poe     o2 9320   4.998   3.042   1.320 -0.1136 -0.2676  0.6035
 1857poe    c23 9321   5.105   3.125   1.361  0.0928 -0.1319 -0.1943
 1857poe    c23 9322   5.245   3.063   1.349 -0.1853 -0.6355 -0.8944
 1857poe     o2 9323   5.274   2.961   1.442 -0.5724 -0.0177 -0.0849
 1857poe    c31 9324   5.414   2.946   1.441 -0.5482  0.2077 -0.3390
 1858poe    c31 9325   1.871   4.358   4.276 -0.8603  0.5371 -0.3878
 1858poe     o2 9326   1.924   4.439   4.379 -0.3306 -0.3605  0.0710
 1858poe    c23 9327   1.880   4.565   4.333 -0.6525 -0.5151 -0.0469
 1858poe    c23 9328   1.887   4.660   4.454 -0.2315 -0.1490 -0.3519
 1858poe     o2 9329   2.008   4.638   4.523 -0.3497  0.2982  0.0003
 1858poe    c23 9330   2.003   4.688   4.655 -0.0507 -0.0331  0.1405
 1858poe    c23 9331   2.140   4.662   4.718 -0.3062 -0.7877  0.3982
 1858poe     o2 9332   2.174   4.527   4.695  0.6827 -0.3510 -0.8172
 1858poe    c23 9333   2.313   4.523   4.718  0.4895  0.5893  0.6171
 1858poe    c23 9334   2.364   4.378   4.721 -0.0930  0.3561 -0.3536
 1858poe     o2 9335   2.335   4.302   4.836  0.2950 -0.1915 -0.6127
 1858poe    c31 9336   2.390   4.175   4.815  0.4358 -0.2425  0.0370
 1859poe    c31 9337   1.573   0.456   1.811  0.2214  0.5234  0.4116
 1859poe     o2 9338   1.592   0.464   1.672  0.1488  0.3419  0.3912
 1859poe    c23 9339   1.478   0.514   1.605  0.3224  0.4301  0.1584
 1859poe    c23 9340   1.483   0.539   1.453 -0.0184  0.1065  0.0933
 1859poe     o2 9341   1.576   0.635   1.411  0.1875  0.0405  0.3883
 1859poe    c23 9342   1.598   0.646   1.272 -0.0031  0.2951  0.3761
 1859poe    c23 9343   1.652   0.788   1.251 -0.3075  0.3875  0.1994
 1859poe     o2 9344   1.792   0.788   1.272 -0.2924  0.1298  0.0996
 1859poe    c23 9345   1.832   0.921   1.293 -0.2550  0.1135  0.1318
 1859poe    c23 9346   1.985   0.929   1.278 -0.2938 -0.0401 -0.3421
 1859poe     o2 9347   2.050   0.841   1.367 -0.4141 -0.0071 -0.2212
 1859poe    c31 9348   2.183   0.869   1.403 -0.5549  0.6348 -0.1951
 1860poe    c31 9349   0.793   0.692   4.681  0.0815 -0.0853  0.4108
 1860poe     o2 9350   0.864   0.652   4.565  0.3513 -0.5770  0.7440
 1860poe    c23 9351   1.001   0.682   4.572  0.3293 -0.3300  0.1372
 1860poe    c23 9352   1.054   0.627   4.438  0.3087 -0.0224  0.0041
 1860poe     o2 9353   0.964   0.691   4.350  0.3611 -0.1517 -0.1445
 1860poe    c23 9354   0.997   0.668   4.215  0.1289  0.0207 -0.2317
 1860poe    c23 9355   0.904   0.755   4.129  0.1769  0.3557  0.0563
 1860poe     o2 9356   0.773   0.712   4.160  0.1262  0.3386 -0.1825
 1860poe    c23 9357   0.701   0.692   4.041 -0.2267 -0.0675  0.0959
 1860poe    c23 9358   0.550   0.662   4.051 -0.3456  0.4132 -0.2282
 1860poe     o2 9359   0.526   0.560   4.144 -0.1639  0.7556  0.1964
 1860poe    c31 9360   0.386   0.548   4.158 -0.0966 -0.5727 -0.1261
 1861poe    c31 9361   3.775   4.244   4.848  0.1488 -0.1244  0.4525
 1861poe     o2 9362   3.669   4.226   4.757  0.2021 -0.4434  0.4510
 1861poe    c23 9363   3.553   4.266   4.827 -0.1028 -0.2727 -0.1474
 1861poe    c23 9364   3.440   4.278   4.722 -0.0577  0.0054 -0.1640
 1861poe     o2 9365   3.461   4.159   4.649  0.2834  0.1373 -0.2822
 1861poe    c23 9366   3.366   4.178   4.547 -0.4650 -0.2800  0.3358
 1861poe    c23 9367   3.363   4.035   4.489 -0.1380 -0.0930 -0.1503
 1861poe     o2 9368   3.494   4.011   4.444  0.1347  0.0713  0.5381
 1861poe    c23 9369   3.502   3.888   4.376 -0.2143 -0.0222  0.6678
 1861poe    c23 9370   3.633   3.818   4.417  0.0559  0.0567 -0.0495
 1861poe     o2 9371   3.637   3.750   4.540  0.2135 -0.0929 -0.1366
 1861poe    c31 9372   3.583   3.620   4.536  0.1076 -0.0548  0.0212
 1862poe    c31 9373   5.961   3.002   6.193 -0.3630 -0.1017  0.2739
 1862poe     o2 9374   6.031   2.888   6.148 -0.3513 -0.2023  0.5472
 1862poe    c23 9375   5.944   2.810   6.069  0.0011  0.0764 -0.1252
 1862poe    c23 9376   6.006   2.674   6.034 -0.1621 -0.0550  0.0938
 1862poe     o2 9377   6.107   2.650   6.129  0.1214  0.0298 -0.1851
 1862poe    c23 9378   6.172   2.529   6.093  0.1237  0.1058 -0.4387
 1862poe    c23 9379   6.237   2.468   6.218  0.3696  0.2892 -0.4759
 1862poe     o2 9380   6.341   2.549   6.268  0.4322 -0.1165  0.0607
 1862poe    c23 9381   6.393   2.506   6.392  0.0100 -0.1546  0.2273
 1862poe    c23 9382   6.463   2.614   6.477 -0.0093 -0.5444  0.7471
 1862poe     o2 9383   6.370   2.713   6.516  0.5729  0.2173  0.2287
 1862poe    c31 9384   6.432   2.809   6.599 -0.1380  0.3576  0.6049
 1863poe    c31 9385   0.793   6.140   3.155 -0.4220 -0.2259  0.4659
 1863poe     o2 9386   0.836   6.028   3.080  0.0803  0.7004 -0.6604
 1863poe    c23 9387   0.839   5.917   3.167 -0.4201  0.7027 -0.6339
 1863poe    c23 9388   0.865   5.787   3.090  0.2296  0.5387 -0.1459
 1863poe     o2 9389   1.004   5.771   3.073  0.1522 -0.1170 -0.1845
 1863poe    c23 9390   1.033   5.644   3.017  0.2124 -0.0940 -0.2052
 1863poe    c23 9391   1.185   5.621   3.028  0.2442  0.2175  0.0367
 1863poe     o2 9392   1.267   5.701   2.946  0.0539  0.3098 -0.0661
 1863poe    c23 9393   1.395   5.644   2.927 -0.1724 -0.0963 -0.3972
 1863poe    c23 9394   1.487   5.723   2.833  0.3692 -0.0176  0.1891
 1863poe     o2 9395   1.463   5.700   2.696 -0.2804 -0.1591  0.3227
 1863poe    c31 9396   1.542   5.789   2.619 -0.0063 -0.7123 -0.0392
 1864poe    c31 9397   0.445   4.885   2.796 -0.1948 -0.4038  0.5265
 1864poe     o2 9398   0.574   4.856   2.748 -0.3378 -0.2045  0.0227
 1864poe    c23 9399   0.561   4.769   2.638 -0.0850  0.4316 -0.5207
 1864poe    c23 9400   0.704   4.735   2.590  0.0702  0.5554 -0.1510
 1864poe     o2 9401   0.778   4.855   2.584  0.4307  0.3617  0.3553
 1864poe    c23 9402   0.911   4.813   2.567  0.4653  0.5414  0.1671
 1864poe    c23 9403   0.990   4.944   2.578  0.8403  0.2976  0.4312
 1864poe     o2 9404   0.956   4.994   2.705  0.0509  0.6738  0.0803
 1864poe    c23 9405   1.052   5.075   2.768 -0.0533  0.5691  0.3779
 1864poe    c23 9406   1.117   5.009   2.891  0.3176  0.1437 -0.0441
 1864poe     o2 9407   1.042   5.008   3.010  0.0849 -0.6177 -0.1893
 1864poe    c31 9408   1.109   4.941   3.115  0.3629  0.1877  0.1565
 1865poe    c31 9409   3.959   3.653   6.490  0.1555 -0.2633  0.2852
 1865poe     o2 9410   3.912   3.534   6.548 -0.1454 -0.1303  0.3177
 1865poe    c23 9411   3.822   3.477   6.456  0.4966 -0.3266 -0.2024
 1865poe    c23 9412   3.742   3.366   6.528  0.2050  0.0202  0.0107
 1865poe     o2 9413   3.664   3.392   6.643 -0.3138  0.1836 -0.3755
 1865poe    c23 9414   3.536   3.444   6.619 -0.5721 -0.3949 -0.2616
 1865poe    c23 9415   3.456   3.437   6.750  0.1961 -0.0925  0.2258
 1865poe     o2 9416   3.554   3.461   6.849  0.2385 -0.3310  0.2442
 1865poe    c23 9417   3.498   3.470   6.978 -0.2976 -0.0634 -0.0025
 1865poe    c23 9418   3.616   3.486   7.076 -0.4020 -0.3130  0.1649
 1865poe     o2 9419   3.728   3.415   7.030  0.0522  0.0567  0.6954
 1865poe    c31 9420   3.819   3.395   7.136  0.6671  0.1904  0.2008
 1866poe    c31 9421   4.420   3.576   3.633 -0.7573 -0.6956  0.3244
 1866poe     o2 9422   4.380   3.651   3.746  0.8752 -0.2567  0.6350
 1866poe    c23 9423   4.341   3.565   3.850 -0.1457 -0.4723  0.0884
 1866poe    c23 9424   4.348   3.637   3.986 -0.2309 -0.4037  0.0567
 1866poe     o2 9425   4.269   3.754   3.982  0.6412  0.1944  0.1029
 1866poe    c23 9426   4.220   3.789   4.110  0.5366  0.3226  0.0275
 1866poe    c23 9427   4.122   3.907   4.094  0.0342 -0.0493  0.3404
 1866poe     o2 9428   4.177   4.012   4.017  0.2560 -0.0675  0.4728
 1866poe    c23 9429   4.077   4.104   3.980  0.9654  0.2799 -0.6411
 1866poe    c23 9430   4.060   4.209   4.091  0.1353 -0.4548 -0.0537
 1866poe     o2 9431   4.186   4.266   4.118 -0.0826  0.1780 -0.3631
 1866poe    c31 9432   4.182   4.369   4.215  0.6686  0.3132 -0.4657
 1867poe    c31 9433   4.582   5.776   1.526 -0.5893  0.7602  0.8381
 1867poe     o2 9434   4.518   5.662   1.579 -0.0292  0.0184 -0.0516
 1867poe    c23 9435   4.498   5.560   1.483  0.1746 -0.2690  0.2100
 1867poe    c23 9436   4.358   5.501   1.512 -0.0009  0.0635  0.0504
 1867poe     o2 9437   4.361   5.485   1.652 -0.0108 -0.3033  0.0083
 1867poe    c23 9438   4.269   5.384   1.686 -0.2357 -0.0949  0.0170
 1867poe    c23 9439   4.273   5.353   1.837  0.0511  0.0797  0.0449
 1867poe     o2 9440   4.228   5.470   1.902  0.1496 -0.1875  0.6001
 1867poe    c23 9441   4.261   5.462   2.039  0.3197 -0.3620  0.5491
 1867poe    c23 9442   4.263   5.590   2.125 -0.5971  0.1207 -0.1371
 1867poe     o2 9443   4.135   5.626   2.171 -0.5198 -0.2158  0.3516
 1867poe    c31 9444   4.116   5.638   2.310 -0.2158  0.7133  0.3231
 1868poe    c31 9445   5.724   6.943   0.674  0.1878  0.3888  0.3195
 1868poe     o2 9446   5.836   6.926   0.758  0.0657  0.2937  0.4638
 1868poe    c23 9447   5.954   6.973   0.697  0.2797 -0.8407 -0.0244
 1868poe    c23 9448   6.066   6.965   0.803 -0.1204 -0.0786  0.4667
 1868poe     o2 9449   6.056   6.846   0.877  0.5636 -0.1949  0.3813
 1868poe    c23 9450   6.165   6.835   0.966  0.6777 -0.6895  0.1876
 1868poe    c23 9451   6.115   6.716   1.050 -0.2007 -0.5800 -0.1641
 1868poe     o2 9452   5.978   6.733   1.074 -0.0757  0.1078  0.0811
 1868poe    c23 9453   5.940   6.638   1.172 -0.1036  0.1264  0.0888
 1868poe    c23 9454   5.792   6.627   1.210 -0.0724 -0.1354  0.1333
 1868poe     o2 9455   5.743   6.742   1.274 -0.2946 -0.3780  0.4072
 1868poe    c31 9456   5.608   6.755   1.310 -0.3941 -0.0497 -0.0693
 1869poe    c31 9457   5.915   0.706   1.073 -0.1511  0.4626 -0.0503
 1869poe     o2 9458   5.813   0.803   1.070  0.1180  0.7593  0.2568
 1869poe    c23 9459   5.881   0.921   1.035  0.7932  0.4347  0.4517
 1869poe    c23 9460   5.798   1.033   1.102  0.0585 -0.2580  0.7161
 1869poe     o2 9461   5.783   0.997   1.237 -0.8192 -0.4113  0.5856
 1869poe    c23 9462   5.711   1.091   1.314  0.1435  0.5197  0.3724
 1869poe    c23 9463   5.658   1.028   1.444  0.3174 -0.5799 -0.0791
 1869poe     o2 9464   5.596   0.909   1.400 -0.1949 -0.2695 -0.1967
 1869poe    c23 9465   5.503   0.865   1.497 -0.1685  0.5920  0.2323
 1869poe    c23 9466   5.440   0.733   1.449  0.1500  0.5941 -0.1998
 1869poe     o2 9467   5.339   0.744   1.351  0.3198  0.2805 -0.4108
 1869poe    c31 9468   5.285   0.618   1.317 -0.4088  0.4416  0.1348
 1870poe    c31 9469   5.725   3.422   5.712  0.0979 -0.1325  0.6378
 1870poe     o2 9470   5.636   3.411   5.604  0.5730  0.6846  0.1488
 1870poe    c23 9471   5.709   3.382   5.487 -0.2350  0.1338 -0.2316
 1870poe    c23 9472   5.620   3.379   5.362  0.1285  0.2149 -0.4928
 1870poe     o2 9473   5.517   3.472   5.389  0.3356  0.4016 -0.3448
 1870poe    c23 9474   5.413   3.451   5.297  0.0953 -0.4424  0.1092
 1870poe    c23 9475   5.289   3.525   5.350  0.1272 -0.2446 -0.0916
 1870poe     o2 9476   5.280   3.512   5.490 -0.0158  0.2720 -0.0519
 1870poe    c23 9477   5.156   3.549   5.547 -0.2312 -0.2921 -0.1497
 1870poe    c23 9478   5.166   3.579   5.697  0.9209 -0.2475 -0.2219
 1870poe     o2 9479   5.204   3.462   5.767 -0.3619 -0.6563 -0.1834
 1870poe    c31 9480   5.228   3.498   5.901 -0.5234 -0.2914 -0.2520
 1871poe    c31 9481   5.952   0.983   2.329  0.1092 -0.4207 -0.0575
 1871poe     o2 9482   5.886   1.026   2.446  0.0898 -0.0094 -0.2186
 1871poe    c23 9483   5.784   0.933   2.474  0.3011 -0.2525 -0.2492
 1871poe    c23 9484   5.761   0.951   2.625 -0.1743 -0.0419 -0.3448
 1871poe     o2 9485   5.802   1.079   2.665 -0.1071 -0.2704  0.3258
 1871poe    c23 9486   5.798   1.085   2.806  0.2525 -0.2056  0.3350
 1871poe    c23 9487   5.841   1.229   2.841 -0.3340  0.1183 -0.2406
 1871poe     o2 9488   5.954   1.239   2.757 -0.1308 -0.1240  0.0013
 1871poe    c23 9489   5.976   1.372   2.716 -0.4994 -0.0589  0.0134
 1871poe    c23 9490   5.886   1.412   2.598 -0.2977  0.0656 -0.0980
 1871poe     o2 9491   5.870   1.303   2.510  0.5051 -0.0322 -0.1261
 1871poe    c31 9492   5.803   1.343   2.393 -0.5523  0.0587  0.4997
 1872poe    c31 9493   6.723   3.875   0.273  0.1002 -0.9051 -0.3610
 1872poe     o2 9494   6.845   3.945   0.265 -0.0901 -0.4795  0.3427
 1872poe    c23 9495   6.943   3.865   0.202 -0.2470 -0.2143 -0.2537
 1872poe    c23 9496   7.066   3.950   0.163 -0.1835 -0.2764 -0.1892
 1872poe     o2 9497   7.137   3.990   0.278 -0.2005 -0.4759 -0.1084
 1872poe    c23 9498   7.228   4.093   0.246 -0.5222  0.0122  0.5229
 1872poe    c23 9499   7.299   4.148   0.371  0.2716  0.4854 -0.1288
 1872poe     o2 9500   7.212   4.201   0.468  0.2049  0.6211 -0.2627
 1872poe    c23 9501   7.287   4.214   0.587 -0.2196 -0.6811  0.1683
 1872poe    c23 9502   7.196   4.274   0.696 -0.2866 -0.0755 -0.2154
 1872poe     o2 9503   7.068   4.217   0.685 -0.4175  0.2789 -0.5322
 1872poe    c31 9504   6.970   4.277   0.768 -0.3845 -0.6894  0.2239
 1873poe    c31 9505   4.493   3.164   5.497 -0.1362 -0.1564 -0.2271
 1873poe     o2 9506   4.634   3.169   5.490 -0.1114 -0.3291  0.1497
 1873poe    c23 9507   4.678   3.188   5.623 -0.1013  0.2725  0.0648
 1873poe    c23 9508   4.830   3.211   5.607 -0.0387 -0.1241  0.0696
 1873poe     o2 9509   4.889   3.125   5.512  0.1559  0.0585  0.0256
 1873poe    c23 9510   5.015   3.094   5.566  0.0923 -0.0701  0.1017
 1873poe    c23 9511   5.067   2.963   5.506  0.0865  0.2262 -0.5519
 1873poe     o2 9512   4.979   2.856   5.533  0.7612 -0.1426  0.2218
 1873poe    c23 9513   5.030   2.744   5.463 -0.1498  0.1470 -0.9292
 1873poe    c23 9514   4.955   2.615   5.499  0.1531  0.3184  0.3690
 1873poe     o2 9515   4.830   2.612   5.434  0.0694 -0.4279  0.5562
 1873poe    c31 9516   4.761   2.490   5.454 -0.2225 -0.2807  0.4522
 1874poe    c31 9517   6.970   5.935   2.898 -0.0876  0.2115  0.4364
 1874poe     o2 9518   6.885   5.941   3.010 -0.3279 -0.2931  0.2849
 1874poe    c23 9519   6.748   5.929   2.979 -0.3061  0.4299 -0.1111
 1874poe    c23 9520   6.664   5.862   3.090 -0.6308  0.0799 -0.5669
 1874poe     o2 9521   6.651   5.939   3.207  0.4918 -0.4254 -0.1015
 1874poe    c23 9522   6.550   5.890   3.293  0.2910 -0.0415 -0.1193
 1874poe    c23 9523   6.567   5.942   3.436  0.0394 -0.4747  0.0695
 1874poe     o2 9524   6.698   5.923   3.484 -0.0520 -0.3097  0.3967
 1874poe    c23 9525   6.725   5.932   3.622 -0.0879  0.0078  0.3826
 1874poe    c23 9526   6.878   5.932   3.643 -0.0169 -0.0918 -0.1073
 1874poe     o2 9527   6.941   6.006   3.541  0.8860 -0.9178 -0.1585
 1874poe    c31 9528   7.048   6.082   3.590  0.1773 -0.2075  0.3099
 1875poe    c31 9529   6.324   6.702   2.411  0.0781  0.1243  0.3200
 1875poe     o2 9530   6.274   6.574   2.442  0.3534  0.0525  0.4682
 1875poe    c23 9531   6.330   6.485   2.349  0.3518 -0.4401  0.9367
 1875poe    c23 9532   6.284   6.341   2.378  0.5211 -0.7658 -0.3755
 1875poe     o2 9533   6.343   6.296   2.497  0.0191 -0.1060  0.1268
 1875poe    c23 9534   6.269   6.178   2.515 -0.3761  0.0957 -0.1853
 1875poe    c23 9535   6.298   6.123   2.655  1.1435  0.4400 -0.3502
 1875poe     o2 9536   6.266   6.220   2.753 -0.7170 -0.8932  0.4203
 1875poe    c23 9537   6.335   6.181   2.869  0.3729 -0.3159 -0.0243
 1875poe    c23 9538   6.319   6.287   2.980  0.0349 -0.2641 -0.1242
 1875poe     o2 9539   6.332   6.410   2.911 -0.4040 -0.1423  0.0057
 1875poe    c31 9540   6.368   6.502   3.012  0.3785 -0.5801  0.1308
 1876poe    c31 9541   6.034   3.608   3.730  0.5763  0.4945 -0.2885
 1876poe     o2 9542   6.074   3.496   3.806 -0.3750  0.2870 -0.0725
 1876poe    c23 9543   6.151   3.407   3.727 -0.0459 -0.1069  0.6811
 1876poe    c23 9544   6.299   3.444   3.748 -0.0090  0.2866 -0.2223
 1876poe     o2 9545   6.339   3.424   3.882  0.0224 -0.1248 -0.2908
 1876poe    c23 9546   6.385   3.292   3.902 -0.3043 -0.1471  0.3084
 1876poe    c23 9547   6.446   3.260   4.040 -0.2798 -0.4181  0.2340
 1876poe     o2 9548   6.348   3.268   4.140 -0.1498 -0.0620  0.3325
 1876poe    c23 9549   6.401   3.258   4.270  0.2447  0.5099  0.2204
 1876poe    c23 9550   6.302   3.328   4.365 -0.0096 -0.1747  0.4699
 1876poe     o2 9551   6.170   3.307   4.320  0.1750 -0.3548  0.0146
 1876poe    c31 9552   6.088   3.331   4.431  0.3812  0.1009  0.0726
 1877poe    c31 9553   6.957   3.970   2.197 -0.1388 -0.5521  0.0694
 1877poe     o2 9554   7.056   3.874   2.167 -0.0424 -0.4165 -0.0488
 1877poe    c23 9555   7.138   3.848   2.279 -0.4182  0.0649  0.3434
 1877poe    c23 9556   7.264   3.935   2.295 -0.0860 -0.2497 -0.5312
 1877poe     o2 9557   7.354   3.913   2.188 -0.5532  0.2360 -1.0341
 1877poe    c23 9558   7.445   4.020   2.197 -0.0954 -0.2045 -0.2943
 1877poe    c23 9559   7.551   3.988   2.090 -0.1442 -0.3480 -0.3000
 1877poe     o2 9560   7.630   3.874   2.117  0.5628  0.1246 -0.3498
 1877poe    c23 9561   7.726   3.845   2.018  0.3128  0.0660 -0.5738
 1877poe    c23 9562   7.750   3.693   2.012  0.0810  0.0045  0.0355
 1877poe     o2 9563   7.661   3.608   1.943 -0.0579  0.3738 -0.2405
 1877poe    c31 9564   7.710   3.476   1.945 -0.0169  0.3963  0.4183
 1878poe    c31 9565   4.084   4.982   3.271 -0.1143  0.0572  0.5766
 1878poe     o2 9566   4.116   4.845   3.268  0.2808  0.1640 -0.1551
 1878poe    c23 9567   4.146   4.824   3.131 -0.1845 -0.1347 -0.2142
 1878poe    c23 9568   4.188   4.682   3.092  0.2021 -0.0998  0.0651
 1878poe     o2 9569   4.306   4.634   3.153  0.1847 -0.4619 -0.1822
 1878poe    c23 9570   4.338   4.505   3.106  0.2927 -0.5124  0.0327
 1878poe    c23 9571   4.438   4.441   3.204  0.1507 -0.3024  0.3163
 1878poe     o2 9572   4.378   4.441   3.332 -0.2401 -0.3346  0.1340
 1878poe    c23 9573   4.462   4.364   3.414  0.2966 -0.1116 -0.1972
 1878poe    c23 9574   4.409   4.384   3.557 -0.3406 -0.1564 -0.4253
 1878poe     o2 9575   4.401   4.525   3.570 -0.4474 -0.2270  0.3461
 1878poe    c31 9576   4.387   4.564   3.704 -0.4304  0.3059  0.1926
 1879poe    c31 9577   6.187   2.058   0.332  0.4455 -0.2254  0.3050
 1879poe     o2 9578   6.133   1.963   0.420 -0.0332  0.2253  0.5064
 1879poe    c23 9579   6.219   1.926   0.526  0.7518  0.3656 -0.0802
 1879poe    c23 9580   6.208   1.781   0.574 -0.1278  0.5949  0.4207
 1879poe     o2 9581   6.073   1.752   0.604 -0.1520 -0.1855 -0.4067
 1879poe    c23 9582   6.067   1.627   0.670 -0.5211 -0.1311 -0.3348
 1879poe    c23 9583   5.924   1.572   0.687 -0.2528 -0.6782  0.1712
 1879poe     o2 9584   5.853   1.581   0.566  0.0353 -0.1751  0.0371
 1879poe    c23 9585   5.721   1.534   0.580 -0.3010  0.9002  0.5498
 1879poe    c23 9586   5.643   1.551   0.449 -0.3369 -0.0237  0.4459
 1879poe     o2 9587   5.695   1.665   0.383 -0.0739 -0.2881  0.1961
 1879poe    c31 9588   5.649   1.669   0.250 -0.2354  0.8597  0.2833
 1880poe    c31 9589   0.455   5.760   5.733  0.2780 -0.3252 -0.4978
 1880poe     o2 9590   0.494   5.720   5.604  0.1896  0.0506 -0.6428
 1880poe    c23 9591   0.626   5.764   5.578  0.3564 -0.1378 -0.1439
 1880poe    c23 9592   0.667   5.689   5.450  0.3928 -0.2607 -0.0600
 1880poe     o2 9593   0.561   5.636   5.374  0.1965  0.0463 -0.0037
 1880poe    c23 9594   0.608   5.537   5.286  0.0543 -0.1162  0.1030
 1880poe    c23 9595   0.493   5.510   5.187  0.2875 -0.3959 -0.0933
 1880poe     o2 9596   0.390   5.465   5.272  0.1831 -0.2820 -0.1594
 1880poe    c23 9597   0.272   5.436   5.202 -0.0917 -0.0908  0.2182
 1880poe    c23 9598   0.166   5.367   5.290 -0.1484 -0.1936  0.0720
 1880poe     o2 9599   0.123   5.434   5.407  0.3449  0.2029  0.0291
 1880poe    c31 9600   0.018   5.364   5.470  0.2699 -0.1985 -0.5344
 1881poe    c31 9601   1.828   3.299   6.586 -0.1195  0.3776  0.9281
 1881poe     o2 9602   1.715   3.216   6.600 -0.1363  0.0456 -0.8260
 1881poe    c23 9603   1.733   3.151   6.724  0.2479  0.7136 -0.5227
 1881poe    c23 9604   1.605   3.075   6.764  0.7912  0.1062  0.0920
 1881poe     o2 9605   1.553   2.998   6.657  0.3371 -0.4575  0.7042
 1881poe    c23 9606   1.418   2.962   6.671 -0.1021  0.7532 -0.2195
 1881poe    c23 9607   1.364   2.887   6.547  0.3693  0.4915 -0.2681
 1881poe     o2 9608   1.376   2.958   6.426  0.3742 -0.2448 -0.7007
 1881poe    c23 9609   1.257   2.969   6.351 -0.0142 -0.1531 -0.0779
 1881poe    c23 9610   1.298   3.034   6.217  0.4367 -0.7698 -0.2402
 1881poe     o2 9611   1.324   3.172   6.227 -0.3087 -0.6583  0.2919
 1881poe    c31 9612   1.210   3.255   6.227  0.3925  0.3200 -0.0109
 1882poe    c31 9613   6.130   5.782   4.858 -0.7103  0.0836 -0.3819
 1882poe     o2 9614   6.204   5.665   4.833 -0.3591  0.2363 -0.0624
 1882poe    c23 9615   6.313   5.696   4.749  0.2736  0.0097  0.6649
 1882poe    c23 9616   6.423   5.590   4.723  0.1594  0.0153  0.1438
 1882poe     o2 9617   6.502   5.576   4.839 -0.4382  0.1687  0.5789
 1882poe    c23 9618   6.567   5.451   4.840 -0.1716  0.3064  0.4698
 1882poe    c23 9619   6.600   5.390   4.978  0.0938 -0.1740  0.1980
 1882poe     o2 9620   6.493   5.419   5.064 -0.0533  0.2616 -0.1248
 1882poe    c23 9621   6.496   5.342   5.182 -0.0967 -0.5429 -0.6429
 1882poe    c23 9622   6.359   5.280   5.216 -0.1437 -0.0591  0.0906
 1882poe     o2 9623   6.257   5.376   5.206  0.0218  0.0920 -0.1691
 1882poe    c31 9624   6.121   5.348   5.233  0.1296 -0.4536 -0.1945
 1883poe    c31 9625   3.535   1.366   3.037 -0.5538 -0.3719  0.0726
 1883poe     o2 9626   3.598   1.246   2.997 -0.3621 -0.0839 -0.5047
 1883poe    c23 9627   3.495   1.174   2.933 -0.2589 -0.4990 -0.2040
 1883poe    c23 9628   3.542   1.040   2.872  0.0811 -0.2576 -0.4792
 1883poe     o2 9629   3.590   0.957   2.975 -0.3964  0.1738  0.1055
 1883poe    c23 9630   3.509   0.848   3.013 -0.2220  0.0492  0.1234
 1883poe    c23 9631   3.465   0.741   2.912 -0.3978  0.1522  0.0897
 1883poe     o2 9632   3.401   0.799   2.800 -0.1530 -0.1576 -0.2152
 1883poe    c23 9633   3.436   0.741   2.677  0.3676  0.1586 -0.2175
 1883poe    c23 9634   3.363   0.818   2.565  0.0651 -0.0853 -0.1897
 1883poe     o2 9635   3.411   0.950   2.553  0.3241 -0.1710 -0.0971
 1883poe    c31 9636   3.359   1.028   2.448 -0.8889 -0.1108  0.5263
 1884poe    c31 9637   1.138   0.607   2.316 -0.0024  0.0065  0.4648
 1884poe     o2 9638   1.134   0.621   2.176 -0.1680 -0.0317  0.4655
 1884poe    c23 9639   1.103   0.494   2.122  0.1782  0.2486 -0.4238
 1884poe    c23 9640   1.112   0.503   1.969  0.5643 -0.7096 -0.4664
 1884poe     o2 9641   1.112   0.637   1.925  0.0217 -0.5109  0.1200
 1884poe    c23 9642   1.174   0.641   1.798  0.3364 -0.0399  0.2861
 1884poe    c23 9643   1.116   0.767   1.731 -0.7730 -0.6232  0.1188
 1884poe     o2 9644   1.120   0.873   1.824  0.1796 -0.3690 -0.1993
 1884poe    c23 9645   1.117   1.006   1.777  0.8421 -0.4702 -0.5379
 1884poe    c23 9646   1.103   1.102   1.897  0.2381 -0.6530 -0.4586
 1884poe     o2 9647   1.220   1.098   1.976  0.0095 -0.5802 -0.1153
 1884poe    c31 9648   1.225   1.213   2.057  0.1149 -0.7308  0.0936
 1885poe    c31 9649   1.422   1.248   3.242  0.1666 -0.2693 -0.2381
 1885poe     o2 9650   1.448   1.231   3.379 -0.2374  0.5065 -0.0622
 1885poe    c23 9651   1.365   1.130   3.430  0.4676  0.0089  0.1147
 1885poe    c23 9652   1.395   1.095   3.577 -0.1243  0.3515  0.3188
 1885poe     o2 9653   1.517   1.026   3.584 -0.4273 -0.2163  0.0780
 1885poe    c23 9654   1.566   0.992   3.712  0.5583  0.4155 -0.1206
 1885poe    c23 9655   1.701   0.923   3.687  0.2463 -0.3136  0.1771
 1885poe     o2 9656   1.785   1.020   3.628  0.2827 -0.4838 -0.0542
 1885poe    c23 9657   1.923   1.005   3.654  0.1798 -0.3730  0.5908
 1885poe    c23 9658   1.998   1.083   3.544 -0.4641 -0.0829  0.3548
 1885poe     o2 9659   1.937   1.066   3.417 -0.8140  0.4507  0.4450
 1885poe    c31 9660   2.022   1.130   3.325 -0.3082 -0.4022  0.2978
 1886poe    c31 9661   6.139   0.117   1.473  0.6667  0.1646  0.1387
 1886poe     o2 9662   6.034   0.053   1.541  0.6130  0.0249 -0.0768
 1886poe    c23 9663   5.934   0.006   1.453  0.4863 -0.5624  0.3715
 1886poe    c23 9664   5.816  -0.054   1.531  0.1895 -0.6471 -0.1359
 1886poe     o2 9665   5.857  -0.146   1.630  0.0091  0.4348  0.9755
 1886poe    c23 9666   5.742  -0.161   1.711 -0.1344 -0.1415  0.6700
 1886poe    c23 9667   5.761  -0.278   1.808  0.2514 -0.9339 -0.3401
 1886poe     o2 9668   5.879  -0.251   1.881  0.1483 -0.5736 -0.3064
 1886poe    c23 9669   5.910  -0.371   1.949 -0.1366 -0.3443  0.2315
 1886poe    c23 9670   6.011  -0.333   2.059 -0.4997  0.1808  0.3916
 1886poe     o2 9671   6.131  -0.290   1.998 -0.2641 -0.5201  0.3505
 1886poe    c31 9672   6.238  -0.254   2.082  0.5022 -0.2956 -0.7038
 1887poe    c31 9673   0.421   3.690   5.198 -1.1481 -0.2893 -0.2014
 1887poe     o2 9674   0.345   3.613   5.288 -0.1311 -0.4981  0.4911
 1887poe    c23 9675   0.237   3.700   5.313  0.1122 -0.1530  0.3476
 1887poe    c23 9676   0.133   3.623   5.396 -0.1173  0.2022  0.3887
 1887poe     o2 9677   0.208   3.568   5.502  0.1081  0.0245  0.1384
 1887poe    c23 9678   0.140   3.473   5.581  0.0657  0.0130  0.0879
 1887poe    c23 9679   0.249   3.429   5.680 -0.3861 -0.3301  0.4376
 1887poe     o2 9680   0.358   3.382   5.605 -0.5038  0.3374 -0.1661
 1887poe    c23 9681   0.431   3.300   5.694 -0.0141  0.5436 -0.3725
 1887poe    c23 9682   0.568   3.247   5.648 -0.2305  0.0264 -0.4306
 1887poe     o2 9683   0.640   3.364   5.616  0.2162 -0.1527 -0.0917
 1887poe    c31 9684   0.776   3.336   5.592  0.0227 -0.5239 -0.7963
 1888poe    c31 9685   4.909   4.503   1.779 -0.1429  0.8351  0.8802
 1888poe     o2 9686   4.984   4.456   1.889 -0.3346 -0.4389  0.4852
 1888poe    c23 9687   4.914   4.479   2.009  0.0357  0.0838  0.6054
 1888poe    c23 9688   5.009   4.439   2.123  0.6029  0.6799  0.3495
 1888poe     o2 9689   5.028   4.299   2.116 -0.4248  0.5459  0.0565
 1888poe    c23 9690   5.105   4.264   2.229 -0.1288  0.1684 -0.2623
 1888poe    c23 9691   5.130   4.112   2.221  0.1916  0.2054  0.0405
 1888poe     o2 9692   5.146   4.077   2.086  0.1559  0.7570 -0.1099
 1888poe    c23 9693   5.208   3.951   2.074 -0.1726  0.5724  0.1374
 1888poe    c23 9694   5.224   3.911   1.926  0.0427  0.4336  0.1974
 1888poe     o2 9695   5.307   4.001   1.857  0.6479  0.0556  0.4242
 1888poe    c31 9696   5.306   3.978   1.718  0.0755 -0.1065  0.4537
 1889poe    c31 9697   3.769   6.244   6.424  0.1728 -0.1737  0.3126
 1889poe     o2 9698   3.744   6.378   6.462 -0.7693 -0.3872  0.4555
 1889poe    c23 9699   3.836   6.413   6.564 -0.0134 -0.0300 -0.3409
 1889poe    c23 9700   3.971   6.481   6.533  0.1787 -0.0640  0.4146
 1889poe     o2 9701   4.037   6.429   6.420 -0.0347 -0.1115  0.3107
 1889poe    c23 9702   4.176   6.450   6.423 -0.1245  0.4761  0.4239
 1889poe    c23 9703   4.233   6.377   6.300  0.0716  0.8547  0.2856
 1889poe     o2 9704   4.174   6.437   6.187 -0.1312 -0.4914 -0.3405
 1889poe    c23 9705   4.243   6.442   6.064  0.3775  0.5168 -0.0225
 1889poe    c23 9706   4.185   6.545   5.966  0.2857  0.1067 -0.4025
 1889poe     o2 9707   4.052   6.518   5.928  0.0479  0.5075  0.1253
 1889poe    c31 9708   4.017   6.603   5.821  0.0826 -0.5764 -0.7664
 1890poe    c31 9709   1.390   0.754   3.195  0.7002  0.0797  0.1025
 1890poe     o2 9710   1.472   0.645   3.160  0.7703  0.2647 -0.3108
 1890poe    c23 9711   1.398   0.544   3.096  0.5569  0.3103 -0.1359
 1890poe    c23 9712   1.494   0.468   3.004 -0.0006 -0.0496 -0.4282
 1890poe     o2 9713   1.611   0.445   3.080 -0.1135 -0.1654 -0.2903
 1890poe    c23 9714   1.700   0.361   3.010  0.1653 -0.2619  0.1770
 1890poe    c23 9715   1.829   0.375   3.094  0.3391 -0.3435 -0.0756
 1890poe     o2 9716   1.883   0.501   3.061 -0.4074  0.0531  0.1941
 1890poe    c23 9717   2.002   0.527   3.131 -0.2109 -0.2094 -0.0388
 1890poe    c23 9718   2.085   0.647   3.081 -0.4664 -0.1673 -0.3651
 1890poe     o2 9719   2.012   0.768   3.081 -0.4134 -0.1347 -0.1497
 1890poe    c31 9720   2.088   0.883   3.051 -1.1111  0.1724 -0.7609
 1891poe    c31 9721   6.433   1.586   4.752 -0.0079  0.0505 -0.0393
 1891poe     o2 9722   6.338   1.502   4.815  0.0348 -0.1907 -0.2954
 1891poe    c23 9723   6.226   1.496   4.729 -0.0684 -0.9326 -0.1105
 1891poe    c23 9724   6.116   1.441   4.822 -0.0511  0.1149  0.5405
 1891poe     o2 9725   6.133   1.320   4.891  0.1824  0.1545  0.5525
 1891poe    c23 9726   6.022   1.296   4.975 -0.1160 -0.3279  0.0294
 1891poe    c23 9727   6.042   1.178   5.071  0.1556 -0.6074 -0.3700
 1891poe     o2 9728   6.148   1.218   5.155  0.0574 -0.4724 -0.3108
 1891poe    c23 9729   6.165   1.120   5.255 -0.0381  0.3534  0.5290
 1891poe    c23 9730   6.284   1.151   5.348  0.6362 -0.1387 -0.1622
 1891poe     o2 9731   6.388   1.223   5.286  0.5956 -0.3187 -0.4404
 1891poe    c31 9732   6.491   1.255   5.376  0.2161  0.0025 -0.1217
 1892poe    c31 9733   1.058   4.320   0.440  0.1259 -0.0644 -0.2609
 1892poe     o2 9734   1.004   4.230   0.346 -0.2293  0.0260 -0.1454
 1892poe    c23 9735   0.881   4.278   0.295 -0.4685  0.1224  0.5040
 1892poe    c23 9736   0.812   4.158   0.226 -0.3747  0.5008 -0.2653
 1892poe     o2 9737   0.917   4.089   0.162 -0.5293 -0.1897  0.2085
 1892poe    c23 9738   0.889   3.979   0.078  0.5289  0.3355 -0.8739
 1892poe    c23 9739   1.021   3.920   0.025  0.4979  0.1413 -0.7386
 1892poe     o2 9740   1.101   3.928   0.141 -0.2735  0.7747 -0.2397
 1892poe    c23 9741   1.231   3.942   0.089 -0.1931  0.3713 -0.1513
 1892poe    c23 9742   1.318   3.961   0.214 -0.0909  0.2148 -0.1987
 1892poe     o2 9743   1.259   4.060   0.296 -0.2086 -0.1358  0.1442
 1892poe    c31 9744   1.338   4.091   0.408  0.2319  0.3965 -0.3100
 1893poe    c31 9745   5.652   4.003   1.665  0.0686  0.3462  0.0354
 1893poe     o2 9746   5.567   4.062   1.570 -0.1831 -0.5614 -0.3178
 1893poe    c23 9747   5.576   4.202   1.586  0.2164 -0.6335  0.1244
 1893poe    c23 9748   5.469   4.256   1.489 -0.0482  0.0360  0.7762
 1893poe     o2 9749   5.487   4.185   1.369 -0.5284 -0.1244  0.7937
 1893poe    c23 9750   5.404   4.211   1.259 -0.0565 -0.8547  0.2479
 1893poe    c23 9751   5.458   4.134   1.137 -0.7671 -0.5509 -0.2732
 1893poe     o2 9752   5.476   4.005   1.192 -0.1363 -0.5090 -0.3738
 1893poe    c23 9753   5.517   3.921   1.086 -0.2446 -0.5476 -0.3848
 1893poe    c23 9754   5.533   3.772   1.123  0.0108 -0.2883  0.5674
 1893poe     o2 9755   5.651   3.743   1.195  0.4224 -0.4428 -0.1630
 1893poe    c31 9756   5.634   3.610   1.240 -0.3487 -0.3110 -0.0462
 1894poe    c31 9757   1.002   4.624   2.231  0.2312  0.4440  0.1233
 1894poe     o2 9758   1.037   4.488   2.244 -0.2597  0.3401  0.3772
 1894poe    c23 9759   1.117   4.478   2.360 -0.4360 -0.3866  0.4364
 1894poe    c23 9760   1.150   4.327   2.359  0.2248 -0.2456  0.2042
 1894poe     o2 9761   1.243   4.285   2.262 -0.5120  0.2035 -0.7145
 1894poe    c23 9762   1.219   4.152   2.225  0.0512 -0.1071  0.0057
 1894poe    c23 9763   1.321   4.116   2.115  0.1016  0.7145 -0.2215
 1894poe     o2 9764   1.284   4.194   2.003 -0.5107  0.3917 -0.2539
 1894poe    c23 9765   1.374   4.179   1.896  0.0037 -0.1647  0.2455
 1894poe    c23 9766   1.382   4.308   1.812  0.3729 -0.5756 -0.3588
 1894poe     o2 9767   1.410   4.423   1.888  0.1294 -0.4341 -0.4809
 1894poe    c31 9768   1.333   4.530   1.838 -0.1342 -0.2205  0.3696
 1895poe    c31 9769   2.952   1.262   4.189  0.1994 -0.6718 -0.3760
 1895poe     o2 9770   2.946   1.358   4.087  0.0979  0.1826  0.4206
 1895poe    c23 9771   3.056   1.343   4.000 -0.3098 -0.1333 -0.0446
 1895poe    c23 9772   3.026   1.452   3.896  0.3135  0.0104 -0.0782
 1895poe     o2 9773   2.888   1.462   3.868  0.2808  0.3160  0.1872
 1895poe    c23 9774   2.859   1.573   3.786 -0.1310 -0.0361 -0.1486
 1895poe    c23 9775   2.707   1.578   3.759 -0.2310 -0.5165  0.3047
 1895poe     o2 9776   2.639   1.602   3.880 -0.0563  0.0739  0.2890
 1895poe    c23 9777   2.501   1.629   3.867  0.0602  0.7985  0.5101
 1895poe    c23 9778   2.417   1.634   3.996 -0.4628 -0.1071  0.2167
 1895poe     o2 9779   2.452   1.521   4.073  0.2442  0.1688  0.3056
 1895poe    c31 9780   2.407   1.520   4.207 -0.5328  0.2320  0.0485
 1896poe    c31 9781   6.460   4.813   5.703 -0.2961  0.4622 -0.2957
 1896poe     o2 9782   6.360   4.848   5.611 -0.4634  0.3690 -0.1491
 1896poe    c23 9783   6.314   4.730   5.550 -0.5932  0.3291  0.0256
 1896poe    c23 9784   6.226   4.777   5.433  0.0340  0.0492 -0.5638
 1896poe     o2 9785   6.159   4.882   5.498 -0.0134  0.1217 -0.7288
 1896poe    c23 9786   6.096   4.966   5.405  0.6414  1.1455 -0.2592
 1896poe    c23 9787   5.991   5.065   5.459 -0.2348  0.0426  0.0875
 1896poe     o2 9788   6.060   5.167   5.526 -0.0128 -0.0927  0.0659
 1896poe    c23 9789   5.971   5.232   5.613  0.0230 -0.0617  0.0798
 1896poe    c23 9790   6.044   5.347   5.686 -0.3338  0.2038  0.0254
 1896poe     o2 9791   6.144   5.293   5.769 -0.3490  0.0921 -0.0288
 1896poe    c31 9792   6.195   5.389   5.859  0.1658  0.1883 -0.4179
 1897poe    c31 9793   6.622   1.124   3.211  0.2519  0.1793 -0.1581
 1897poe     o2 9794   6.762   1.115   3.223  0.2625  1.1933  0.5883
 1897poe    c23 9795   6.816   1.153   3.099 -0.2519  0.0535 -0.0020
 1897poe    c23 9796   6.960   1.106   3.068 -0.2961  0.0556 -0.2152
 1897poe     o2 9797   7.049   1.165   3.160  0.0959 -0.4059 -0.2946
 1897poe    c23 9798   7.179   1.116   3.136  0.0464 -0.4193 -0.5349
 1897poe    c23 9799   7.287   1.185   3.220 -0.0667 -0.8331 -0.0439
 1897poe     o2 9800   7.286   1.134   3.351 -0.0442  0.0073  0.2928
 1897poe    c23 9801   7.372   1.201   3.441  0.1485  0.3339 -0.1322
 1897poe    c23 9802   7.305   1.197   3.580  0.0467 -0.0374 -0.1893
 1897poe     o2 9803   7.180   1.263   3.590 -0.0288 -0.2001 -0.0661
 1897poe    c31 9804   7.148   1.279   3.726  0.3899  0.8222 -0.0828
 1898poe    c31 9805   2.244   1.647   0.708 -0.0580  0.4514  0.0008
 1898poe     o2 9806   2.302   1.536   0.643 -0.0109  0.4712  0.0083
 1898poe    c23 9807   2.207   1.433   0.657  0.2975  0.2189  0.2373
 1898poe    c23 9808   2.263   1.292   0.629  0.1107  0.2420 -0.2596
 1898poe     o2 9809   2.362   1.248   0.720  0.0214  0.3042 -0.1310
 1898poe    c23 9810   2.354   1.109   0.741 -0.4815  0.2785 -0.4563
 1898poe    c23 9811   2.478   1.065   0.821 -0.5246 -0.1766 -0.6368
 1898poe     o2 9812   2.585   1.110   0.741 -0.0063 -0.0347  0.1202
 1898poe    c23 9813   2.710   1.113   0.806 -0.0385  0.0339  0.1791
 1898poe    c23 9814   2.812   1.167   0.704 -0.0205  0.5407  0.4646
 1898poe     o2 9815   2.747   1.278   0.646 -0.3091  0.1456  0.0258
 1898poe    c31 9816   2.835   1.366   0.580  0.0767 -0.1444  0.1499
 1899poe    c31 9817   5.356   0.252   2.384 -0.3170 -0.8377 -0.1022
 1899poe     o2 9818   5.215   0.260   2.382 -0.2792 -0.2181 -0.8647
 1899poe    c23 9819   5.174   0.197   2.501  0.6238  0.2795 -0.2762
 1899poe    c23 9820   5.021   0.207   2.515  0.7120  0.2904  0.7709
 1899poe     o2 9821   4.988   0.344   2.513 -0.1223  0.0931  0.3703
 1899poe    c23 9822   5.031   0.410   2.630  0.6944  0.0208  0.1154
 1899poe    c23 9823   5.011   0.560   2.599  0.4401  0.1287  0.7984
 1899poe     o2 9824   5.079   0.603   2.483 -0.4490  0.4495  0.3902
 1899poe    c23 9825   5.118   0.736   2.509 -0.3261  0.4208  0.3498
 1899poe    c23 9826   5.205   0.793   2.395 -0.4578  0.0806  0.0782
 1899poe     o2 9827   5.156   0.741   2.273 -0.1523 -0.0776  0.0216
 1899poe    c31 9828   5.224   0.800   2.165 -0.3238 -0.2407 -0.1747
 1900poe    c31 9829   0.783   3.660   0.497  0.5374 -0.1333  0.1561
 1900poe     o2 9830   0.709   3.584   0.589 -0.6273  0.9109  0.1034
 1900poe    c23 9831   0.574   3.571   0.550 -0.3708  0.1277 -0.5535
 1900poe    c23 9832   0.503   3.484   0.654  0.6815 -0.5059 -0.3501
 1900poe     o2 9833   0.529   3.524   0.786 -0.4715 -0.2988 -0.1746
 1900poe    c23 9834   0.478   3.440   0.887  0.0189 -0.1386  0.2103
 1900poe    c23 9835   0.546   3.480   1.019  0.1674  0.2918  0.0024
 1900poe     o2 9836   0.686   3.474   1.005  0.1461 -0.4837  0.0892
 1900poe    c23 9837   0.743   3.480   1.134 -0.1309 -0.6444  0.2208
 1900poe    c23 9838   0.892   3.519   1.137 -0.2671 -0.0818 -0.2471
 1900poe     o2 9839   0.897   3.637   1.060 -0.5564  0.0679 -0.0380
 1900poe    c31 9840   1.020   3.699   1.091 -0.2059 -0.5437 -0.2004
 1901poe    c31 9841   1.612   1.225   1.532 -0.2459  0.2071 -0.4683
 1901poe     o2 9842   1.537   1.273   1.423 -0.2811  0.4825 -0.3231
 1901poe    c23 9843   1.402   1.280   1.464 -0.1874 -0.3995  0.1578
 1901poe    c23 9844   1.313   1.348   1.358  0.1809 -0.0335  0.0790
 1901poe     o2 9845   1.324   1.487   1.337 -0.0322 -0.1119 -0.5739
 1901poe    c23 9846   1.248   1.547   1.235  0.0351  0.6224 -0.1985
 1901poe    c23 9847   1.303   1.682   1.186  0.3090  0.5475 -0.0977
 1901poe     o2 9848   1.404   1.656   1.091  0.2230 -0.3253  0.0468
 1901poe    c23 9849   1.451   1.775   1.033  0.7792 -0.6331 -0.1406
 1901poe    c23 9850   1.488   1.765   0.884  0.0020 -0.2362 -0.3658
 1901poe     o2 9851   1.597   1.676   0.871 -0.1869 -0.4512 -0.4761
 1901poe    c31 9852   1.636   1.688   0.736 -0.3624 -0.1361 -0.4997
 1902poe    c31 9853   6.490   5.336   6.578  0.2091  0.5859  0.4493
 1902poe     o2 9854   6.400   5.444   6.565 -0.1977  0.2641  0.5727
 1902poe    c23 9855   6.410   5.502   6.437  0.0701  0.0691  0.5047
 1902poe    c23 9856   6.336   5.636   6.452 -0.2933 -0.0202 -0.3770
 1902poe     o2 9857   6.362   5.674   6.586  0.4836  0.0059 -0.5298
 1902poe    c23 9858   6.291   5.792   6.615  0.4034 -0.1131 -0.2331
 1902poe    c23 9859   6.319   5.828   6.762 -0.2349 -0.1148 -0.1056
 1902poe     o2 9860   6.285   5.707   6.826  0.0091 -0.2257 -0.1817
 1902poe    c23 9861   6.205   5.741   6.938  0.1542 -0.1032 -0.1152
 1902poe    c23 9862   6.148   5.621   7.016  0.3038  0.0079  0.1632
 1902poe     o2 9863   6.054   5.564   6.928  0.2892  0.1842  0.0625
 1902poe    c31 9864   5.924   5.555   6.980  0.4179  0.0007  0.3555
 1903poe    c31 9865   1.564   5.346   4.390 -0.5303  0.6818  0.0491
 1903poe     o2 9866   1.515   5.324   4.521 -0.8771  0.0515 -0.1826
 1903poe    c23 9867   1.543   5.429   4.611 -0.0500 -0.1108 -0.2345
 1903poe    c23 9868   1.461   5.413   4.740  0.5609  0.3100  0.2094
 1903poe     o2 9869   1.321   5.417   4.721  0.5722 -0.3550 -0.0403
 1903poe    c23 9870   1.260   5.399   4.847 -0.4269 -0.7651 -0.5735
 1903poe    c23 9871   1.106   5.408   4.847 -0.3917  0.0075  0.1000
 1903poe     o2 9872   1.055   5.281   4.812  0.3713 -0.3800  0.3698
 1903poe    c23 9873   0.915   5.282   4.805  0.4144  0.0993 -0.7403
 1903poe    c23 9874   0.851   5.143   4.786  0.7466 -0.2163  0.3840
 1903poe     o2 9875   0.867   5.088   4.657 -0.6037  0.4682 -0.0830
 1903poe    c31 9876   0.762   4.999   4.626 -0.2258  0.1912 -0.5714
 1904poe    c31 9877   6.012   2.290   2.657  0.0181  0.9577 -0.5371
 1904poe     o2 9878   6.022   2.202   2.548  0.0920  0.2545  0.0291
 1904poe    c23 9879   6.155   2.174   2.513  0.1087 -0.0186  0.3063
 1904poe    c23 9880   6.188   2.061   2.413  0.2049  0.4856 -0.2333
 1904poe     o2 9881   6.133   2.093   2.287 -0.0951  0.5753 -0.0790
 1904poe    c23 9882   6.153   1.986   2.198 -0.0959  0.2469  0.3129
 1904poe    c23 9883   6.114   2.030   2.056  0.1466 -0.4540  0.0245
 1904poe     o2 9884   5.990   2.091   2.082  0.3214  0.1168 -0.4580
 1904poe    c23 9885   5.903   2.104   1.971 -0.0301  0.0037 -0.1995
 1904poe    c23 9886   5.757   2.120   2.016 -0.1036  0.2686 -0.5290
 1904poe     o2 9887   5.742   2.244   2.082 -0.0103 -0.0602  0.1158
 1904poe    c31 9888   5.615   2.298   2.057  0.0087 -0.0822 -0.0282
 1905poe    c31 9889   6.215   4.890   6.559  0.4234 -0.3365 -0.1273
 1905poe     o2 9890   6.136   4.780   6.517 -0.0737  0.1615 -0.5024
 1905poe    c23 9891   6.161   4.725   6.390 -0.0168 -0.1455 -0.3593
 1905poe    c23 9892   6.063   4.616   6.345 -0.1962 -0.1975  0.1509
 1905poe     o2 9893   5.930   4.658   6.328 -0.0639  0.2014  0.1036
 1905poe    c23 9894   5.843   4.550   6.303 -0.3508  0.3251  0.5467
 1905poe    c23 9895   5.701   4.609   6.291 -0.4853 -0.1282 -0.1768
 1905poe     o2 9896   5.657   4.678   6.406  0.1114 -0.2293  0.1126
 1905poe    c23 9897   5.517   4.669   6.406  0.0792  0.2946 -0.0961
 1905poe    c23 9898   5.473   4.727   6.542  0.2245 -0.7401  0.4018
 1905poe     o2 9899   5.576   4.812   6.587 -0.3054  0.0052  0.2312
 1905poe    c31 9900   5.531   4.894   6.692 -0.2791 -0.0808  0.3095
 1906poe    c31 9901   0.958   2.416   4.810  0.4905  0.6274  0.1465
 1906poe     o2 9902   1.020   2.305   4.870  0.1812  0.3251 -0.0942
 1906poe    c23 9903   1.070   2.209   4.779 -1.0352 -0.6749  0.2666
 1906poe    c23 9904   1.112   2.076   4.844 -0.1180 -0.3627  0.3307
 1906poe     o2 9905   1.157   2.110   4.973  0.1820  0.0096  0.1298
 1906poe    c23 9906   1.221   2.003   5.039 -0.6308 -0.2843  0.4593
 1906poe    c23 9907   1.314   2.056   5.149 -0.1239  0.2250 -0.2024
 1906poe     o2 9908   1.244   2.124   5.251  0.2454 -0.0867  0.2626
 1906poe    c23 9909   1.324   2.187   5.349  0.2085  0.1871  0.1185
 1906poe    c23 9910   1.229   2.224   5.464  0.2643  0.1192  0.1870
 1906poe     o2 9911   1.120   2.297   5.411 -0.0830 -0.3210  0.2907
 1906poe    c31 9912   1.035   2.318   5.521  0.3098 -0.1691  0.5688
 1907poe    c31 9913   1.758   2.099   5.313  0.0717  0.1065  0.0088
 1907poe     o2 9914   1.883   2.163   5.329  0.3137 -0.3433 -0.0714
 1907poe    c23 9915   1.996   2.080   5.335  0.2340 -0.4628 -0.2267
 1907poe    c23 9916   2.110   2.180   5.361  0.1018 -0.3376 -0.1332
 1907poe     o2 9917   2.081   2.286   5.273 -0.1446 -0.1431  0.1786
 1907poe    c23 9918   2.167   2.397   5.284  0.1505 -0.3355 -0.1865
 1907poe    c23 9919   2.116   2.505   5.187  0.2225 -0.4259 -0.3258
 1907poe     o2 9920   1.980   2.540   5.201  0.2088 -0.2297 -0.8953
 1907poe    c23 9921   1.959   2.646   5.110 -0.0283  0.2228 -0.3206
 1907poe    c23 9922   1.814   2.696   5.120 -0.0887 -0.0112  0.0186
 1907poe     o2 9923   1.800   2.754   5.248  0.3606  1.0969 -0.4166
 1907poe    c31 9924   1.664   2.792   5.260  0.0046 -0.2648  0.1018
 1908poe    c31 9925   2.302   2.135   0.435 -0.6246  0.0836 -0.2477
 1908poe     o2 9926   2.441   2.112   0.421 -0.5232  0.3337  0.3252
 1908poe    c23 9927   2.475   2.044   0.540 -0.4734  0.7478  0.5500
 1908poe    c23 9928   2.628   2.028   0.547 -0.5250 -0.1180 -0.0861
 1908poe     o2 9929   2.679   2.156   0.517 -0.3514 -0.0328  0.5619
 1908poe    c23 9930   2.817   2.161   0.545 -0.2808  0.0034  0.2073
 1908poe    c23 9931   2.873   2.287   0.475 -0.3600  0.0236  0.1803
 1908poe     o2 9932   2.838   2.277   0.339 -0.3217  0.0445  0.1690
 1908poe    c23 9933   2.866   2.404   0.284  0.2448 -0.1204  0.0648
 1908poe    c23 9934   2.771   2.452   0.173  0.2956  0.5124  0.2878
 1908poe     o2 9935   2.636   2.478   0.206  0.1554 -0.1478  0.2534
 1908poe    c31 9936   2.568   2.514   0.089 -0.3032  0.2304  0.6322
 1909poe    c31 9937   5.698   5.737   4.352 -0.0706 -0.1618 -0.2645
 1909poe     o2 9938   5.651   5.768   4.481  0.3271  0.0772 -0.1736
 1909poe    c23 9939   5.723   5.861   4.559  0.0390 -0.0484  0.2453
 1909poe    c23 9940   5.648   5.901   4.688 -0.2435  0.1540  0.0171
 1909poe     o2 9941   5.649   5.809   4.795  0.0983 -0.0338 -0.1456
 1909poe    c23 9942   5.579   5.851   4.910 -0.5879 -0.4442 -0.4042
 1909poe    c23 9943   5.598   5.742   5.017 -0.5480  0.2421  0.2979
 1909poe     o2 9944   5.581   5.614   4.960  0.0108  0.0425  0.5721
 1909poe    c23 9945   5.583   5.520   5.065  0.0754 -0.0684  0.4715
 1909poe    c23 9946   5.621   5.378   5.019  0.2456  0.1666 -0.1259
 1909poe     o2 9947   5.700   5.386   4.903  0.4535  0.2283  0.0202
 1909poe    c31 9948   5.716   5.254   4.855  0.1884  0.0064  0.5370
 1910poe    c31 9949   6.471   2.799   1.449  0.2860 -0.5386 -0.1865
 1910poe     o2 9950   6.393   2.747   1.554  0.3187  0.4280  0.3248
 1910poe    c23 9951   6.417   2.611   1.581 -0.0438  0.3341  0.1725
 1910poe    c23 9952   6.329   2.580   1.704  0.2274 -0.3490  0.1995
 1910poe     o2 9953   6.194   2.603   1.674  0.3663  0.8339  0.4095
 1910poe    c23 9954   6.108   2.567   1.780  0.2166 -1.0082 -0.2994
 1910poe    c23 9955   5.959   2.552   1.747  0.0880  0.1329 -0.2582
 1910poe     o2 9956   5.928   2.670   1.676 -0.0089  0.2832  0.0329
 1910poe    c23 9957   5.794   2.672   1.632 -0.0126 -0.0824  0.0254
 1910poe    c23 9958   5.762   2.809   1.569 -0.3006 -0.1792 -0.0441
 1910poe     o2 9959   5.880   2.825   1.494 -0.2107  0.1481  0.1665
 1910poe    c31 9960   5.884   2.944   1.418 -0.6396 -0.1800 -0.3745
 1911poe    c31 9961   0.573   3.306   6.531 -0.4730  0.4541  0.7941
 1911poe     o2 9962   0.694   3.374   6.557 -0.0709 -0.1496  0.5189
 1911poe    c23 9963   0.757   3.426   6.443 -0.2873 -0.5402  0.2145
 1911poe    c23 9964   0.907   3.413   6.477 -0.0743  0.3586 -0.3348
 1911poe     o2 9965   0.920   3.482   6.599  0.1161  0.0996 -0.2101
 1911poe    c23 9966   1.050   3.459   6.649  0.1985  0.6174 -0.1851
 1911poe    c23 9967   1.063   3.547   6.775  0.1541 -0.1120  0.3350
 1911poe     o2 9968   0.965   3.478   6.849 -0.4331  0.3227 -0.0301
 1911poe    c23 9969   0.991   3.497   6.987  0.1001 -0.1290 -0.0664
 1911poe    c23 9970   0.874   3.468   7.082  0.7412 -0.2312  0.6982
 1911poe     o2 9971   0.862   3.327   7.074  0.4243 -0.1541 -0.2529
 1911poe    c31 9972   0.755   3.283   7.155 -0.1338  0.2984 -0.7310
 1912poe    c31 9973   0.381   0.092   0.822 -0.8727 -0.0179 -0.1610
 1912poe     o2 9974   0.354   0.040   0.694  0.1995  0.1055 -0.4486
 1912poe    c23 9975   0.224   0.082   0.658  0.0063 -0.3903 -0.3337
 1912poe    c23 9976   0.191   0.054   0.510 -0.7060  0.6411 -0.3869
 1912poe     o2 9977   0.279   0.106   0.413  0.2114  0.2461  0.2162
 1912poe    c23 9978   0.242   0.066   0.283  0.2876  0.3214  0.1714
 1912poe    c23 9979   0.271   0.164   0.168 -0.0267 -0.3312 -0.4727
 1912poe     o2 9980   0.406   0.184   0.131 -0.0466  0.3002 -0.2223
 1912poe    c23 9981   0.414   0.296   0.045  0.5849 -0.1414 -0.7515
 1912poe    c23 9982   0.558   0.319  -0.004  0.6702  0.7888 -0.0865
 1912poe     o2 9983   0.640   0.342   0.107  0.1235  0.5057  0.3809
 1912poe    c31 9984   0.776   0.348   0.068 -0.0307  0.1679 -0.2133
 1913poe    c31 9985   4.320   2.806   6.705  0.0149 -0.2418  0.5547
 1913poe     o2 9986   4.260   2.703   6.780 -0.3231 -0.3547  0.1339
 1913poe    c23 9987   4.286   2.588   6.703 -0.2036 -0.1152 -0.1863
 1913poe    c23 9988   4.167   2.538   6.618 -0.0560 -0.0062 -0.4594
 1913poe     o2 9989   4.074   2.464   6.694  0.3169  0.0971  0.1056
 1913poe    c23 9990   4.025   2.365   6.607 -0.0178 -0.2079  0.6349
 1913poe    c23 9991   3.898   2.302   6.668 -0.2137  0.5062  0.9675
 1913poe     o2 9992   3.915   2.214   6.777  0.2287 -0.5152  0.0898
 1913poe    c23 9993   3.936   2.271   6.904 -0.7581 -0.1052  0.0812
 1913poe    c23 9994   4.016   2.172   6.992  0.1018  0.0636 -0.4986
 1913poe     o2 9995   3.957   2.045   6.982  0.3782 -0.1181  0.1412
 1913poe    c31 9996   4.018   1.958   7.075  0.2861  0.0341  0.3444
 1914poe    c31 9997   5.776   5.211   3.099  0.1023 -0.0808  0.1971
 1914poe     o2 9998   5.769   5.185   2.960  0.2437  0.5234  0.0740
 1914poe    c23 9999   5.874   5.099   2.922 -0.3409 -0.1394 -0.0618
 1914poe    c2310000   5.970   5.159   2.818  0.2393 -0.5627  0.2220
 1914poe     o210001   5.906   5.179   2.693  0.2270 -0.2467  0.2775
 1914poe    c2310002   5.998   5.218   2.594 -0.4423 -0.3626 -0.3975
 1914poe    c2310003   5.927   5.247   2.460 -0.0867  0.1948 -0.4686
 1914poe     o210004   5.818   5.332   2.489 -0.1102 -0.1929  0.6464
 1914poe    c2310005   5.848   5.468   2.469 -0.5140 -0.1634  0.2455
 1914poe    c2310006   5.721   5.553   2.492 -0.3660  0.0618  0.2284
 1914poe     o210007   5.709   5.577   2.630 -0.2047 -0.0716  0.2666
 1914poe    c3110008   5.593   5.655   2.652  0.1910  0.6480 -0.1557
 1915poe    c3110009   2.226   5.954   0.574 -0.2110  0.4282 -0.1620
 1915poe     o210010   2.329   5.857   0.569 -0.3157  0.3357 -0.5356
 1915poe    c2310011   2.293   5.741   0.640  0.5970  0.2697 -0.1702
 1915poe    c2310012   2.402   5.634   0.658  0.2037 -0.1383 -0.1826
 1915poe     o210013   2.446   5.605   0.528 -0.3784 -0.5680 -0.2871
 1915poe    c2310014   2.556   5.516   0.526 -0.4862 -0.7146  0.1588
 1915poe    c2310015   2.593   5.511   0.376 -0.0747 -0.2616  0.2427
 1915poe     o210016   2.614   5.644   0.333  0.1859 -0.3883 -0.0186
 1915poe    c2310017   2.636   5.635   0.194  0.2940  0.4740 -0.0645
 1915poe    c2310018   2.647   5.772   0.124  0.1447  0.2039 -0.6273
 1915poe     o210019   2.519   5.829   0.136  0.0337 -0.0351 -0.6690
 1915poe    c3110020   2.509   5.947   0.060  0.2998  0.0493 -0.5731
 1916poe    c3110021   5.607   5.247   4.234 -0.4736 -0.0026  0.7713
 1916poe     o210022   5.609   5.142   4.139 -0.1839  0.4208  0.3065
 1916poe    c2310023   5.578   5.193   4.011 -0.2562  0.4536  0.3367
 1916poe    c2310024   5.514   5.093   3.913  0.2271  0.2456  0.2297
 1916poe     o210025   5.399   5.032   3.967  0.0539  0.2473 -0.1369
 1916poe    c2310026   5.372   4.917   3.890 -0.2192 -0.0585  0.4110
 1916poe    c2310027   5.245   4.841   3.931 -0.5278 -0.1070 -0.6143
 1916poe     o210028   5.221   4.879   4.064 -0.0113 -0.0517 -0.5347
 1916poe    c2310029   5.095   4.827   4.102  0.0335 -0.0885 -0.4330
 1916poe    c2310030   5.034   4.906   4.219  0.2919 -0.0884 -0.2997
 1916poe     o210031   5.014   5.043   4.195 -0.1584 -0.1877 -0.4936
 1916poe    c3110032   4.901   5.082   4.270  0.1040 -0.0704 -0.1540
 1917poe    c3110033   0.593   2.574   2.619 -0.0295  0.1125 -0.0575
 1917poe     o210034   0.719   2.637   2.607 -0.0612  0.1504 -0.1890
 1917poe    c2310035   0.809   2.571   2.521  0.1386  0.4489 -0.2097
 1917poe    c2310036   0.957   2.607   2.543  0.1664  0.3394 -0.2167
 1917poe     o210037   0.997   2.738   2.511  0.0145  0.2952 -0.5856
 1917poe    c2310038   1.138   2.741   2.512  0.0090  0.4416  0.1893
 1917poe    c2310039   1.189   2.824   2.393 -0.0292  0.1408 -0.0400
 1917poe     o210040   1.134   2.954   2.384 -0.1744  0.1023  0.2859
 1917poe    c2310041   1.159   3.017   2.261 -0.3267  0.0028  0.2025
 1917poe    c2310042   1.088   3.154   2.252  0.2098  0.2429 -0.4971
 1917poe     o210043   0.950   3.131   2.232  0.0732  0.4656  0.1552
 1917poe    c3110044   0.873   3.249   2.240 -0.2652  0.2852 -0.3985
 1918poe    c3110045   1.214   1.794   5.512  0.1612  0.6181 -0.1349
 1918poe     o210046   1.085   1.738   5.501  0.2373  0.4135  0.0023
 1918poe    c2310047   0.983   1.832   5.472  0.2457  0.4336  0.0377
 1918poe    c2310048   0.957   1.867   5.324 -0.7092 -0.3646  0.0081
 1918poe     o210049   0.911   1.765   5.239 -0.1381 -0.3844 -0.2776
 1918poe    c2310050   1.010   1.671   5.202  0.1992 -0.3103  0.4256
 1918poe    c2310051   0.992   1.646   5.051  0.5721 -0.6160  0.4296
 1918poe     o210052   0.870   1.580   5.027  0.0285  0.2336  0.7892
 1918poe    c2310053   0.910   1.488   4.928 -0.7351  0.2901  0.4203
 1918poe    c2310054   0.810   1.372   4.936 -0.2143 -0.1847  0.0758
 1918poe     o210055   0.809   1.308   5.061 -0.3740  0.4968  0.4241
 1918poe    c3110056   0.701   1.217   5.068 -0.1106  0.0875 -0.6401
 1919poe    c3110057   0.548   0.871   5.411  0.1445  0.0184 -0.2457
 1919poe     o210058   0.534   0.762   5.500 -0.4330  0.4829  0.2408
 1919poe    c2310059   0.401   0.748   5.545 -0.4588  0.1404  0.0540
 1919poe    c2310060   0.388   0.612   5.616  0.2315  0.1486  0.2105
 1919poe     o210061   0.476   0.596   5.724  0.0827 -0.3862  0.2550
 1919poe    c2310062   0.422   0.661   5.837 -1.1377 -0.6306 -0.1748
 1919poe    c2310063   0.491   0.612   5.966 -0.4871  0.4204 -0.1078
 1919poe     o210064   0.628   0.634   5.943 -0.3854 -0.1188 -0.0406
 1919poe    c2310065   0.717   0.600   6.047 -0.3266  0.0275 -0.0434
 1919poe    c2310066   0.850   0.613   5.970 -0.4155 -0.5998 -0.3070
 1919poe     o210067   0.839   0.559   5.840 -0.1788 -0.1352 -0.5201
 1919poe    c3110068   0.967   0.526   5.790  0.0465 -0.9589  0.5526
 1920poe    c3110069   2.213   6.112   1.755 -0.6231 -0.5605  0.8678
 1920poe     o210070   2.171   6.246   1.754  0.4091 -0.2223  0.0165
 1920poe    c2310071   2.030   6.260   1.754  0.4293 -0.0159 -0.2077
 1920poe    c2310072   1.975   6.399   1.792 -0.3502 -0.2181 -0.5925
 1920poe     o210073   1.973   6.505   1.699  0.0438  0.1987 -0.1257
 1920poe    c2310074   1.937   6.634   1.743  0.5677  0.3345 -0.0774
 1920poe    c2310075   2.038   6.723   1.818  0.3313  0.1044  0.5270
 1920poe     o210076   2.063   6.677   1.948 -0.1898 -0.1118  0.5527
 1920poe    c2310077   2.176   6.741   2.003  0.1461 -0.3783  0.1795
 1920poe    c2310078   2.315   6.676   1.990  0.2437 -0.1127 -0.1070
 1920poe     o210079   2.380   6.654   1.867  0.6191  0.1433  0.0448
 1920poe    c3110080   2.500   6.580   1.871  0.4411 -0.1864 -0.5448
 1921poe    c3110081   3.466   6.342   2.480  0.2036 -0.0298 -0.0744
 1921poe     o210082   3.481   6.481   2.469 -0.3476  0.0232 -0.1891
 1921poe    c2310083   3.509   6.504   2.333  0.3853 -0.2482 -0.0853
 1921poe    c2310084   3.561   6.647   2.310  0.1553 -0.0978  0.3409
 1921poe     o210085   3.695   6.662   2.350  0.3764 -0.4707 -0.2497
 1921poe    c2310086   3.740   6.790   2.313 -0.1281 -0.0468  0.5722
 1921poe    c2310087   3.874   6.833   2.376  0.0414  0.5795 -0.1996
 1921poe     o210088   3.857   6.867   2.512  0.0827 -0.2910  0.0263
 1921poe    c2310089   3.971   6.936   2.561 -0.0715 -0.1578  0.1981
 1921poe    c2310090   3.936   6.964   2.708 -0.4098  0.8327 -0.0652
 1921poe     o210091   3.808   7.022   2.716 -0.8430 -0.1450  0.2763
 1921poe    c3110092   3.796   7.070   2.848 -0.2020  0.1105  0.2477
 1922poe    c3110093   2.740   1.359   5.621  0.3156 -0.1434 -0.1754
 1922poe     o210094   2.873   1.361   5.666  0.2562 -0.3557  0.0141
 1922poe    c2310095   2.855   1.426   5.790  0.0994 -0.4362  0.0336
 1922poe    c2310096   2.983   1.495   5.841 -0.0126  0.0533 -0.3438
 1922poe     o210097   3.093   1.407   5.848 -0.2137 -0.1631  0.1184
 1922poe    c2310098   3.183   1.443   5.951 -0.2721 -0.2501  0.1999
 1922poe    c2310099   3.300   1.344   5.961  0.0956  0.2220  0.5994
 1922poe     o210100   3.261   1.209   5.971 -0.2962  0.2964  0.0840
 1922poe    c2310101   3.361   1.119   5.929 -0.1120  0.4712  0.1451
 1922poe    c2310102   3.316   0.971   5.931 -0.1620  0.4868  0.1814
 1922poe     o210103   3.199   0.957   5.855 -0.0237 -0.0041  0.0557
 1922poe    c3110104   3.166   0.823   5.825  0.1856 -0.0408 -0.0088
 1923poe    c3110105   5.349   0.822   4.466 -0.5015  0.2830 -0.2349
 1923poe     o210106   5.341   0.805   4.605  0.5420  0.0290 -0.1977
 1923poe    c2310107   5.321   0.926   4.675  0.4791 -0.2162  0.2101
 1923poe    c2310108   5.177   0.965   4.713  0.2553 -0.5527 -0.2889
 1923poe     o210109   5.119   0.871   4.799 -0.3811 -0.0881 -0.1999
 1923poe    c2310110   4.990   0.899   4.849 -0.0757  0.2170  0.4370
 1923poe    c2310111   4.904   0.772   4.834  0.1862  0.1035 -0.1318
 1923poe     o210112   4.958   0.659   4.898  0.0818 -0.3144 -0.7680
 1923poe    c2310113   4.883   0.600   5.002  0.2986  0.1315 -0.3521
 1923poe    c2310114   4.961   0.488   5.073 -0.2928  0.0928  0.2458
 1923poe     o210115   4.972   0.362   5.009 -0.2046  0.0889  0.2674
 1923poe    c3110116   4.864   0.275   5.036  0.2156 -0.7921 -0.8094
 1924poe    c3110117   5.613   3.842   2.901 -0.4453 -0.2520  0.0824
 1924poe     o210118   5.664   3.915   2.791 -0.0238 -0.4819  0.1194
 1924poe    c2310119   5.562   3.926   2.694  0.1733  0.0656 -0.0264
 1924poe    c2310120   5.561   4.067   2.632 -0.0154 -0.2963 -0.8649
 1924poe     o210121   5.670   4.083   2.545  0.6498 -0.1212 -0.0205
 1924poe    c2310122   5.647   4.182   2.448 -0.1378 -0.2743  0.0077
 1924poe    c2310123   5.562   4.126   2.332 -0.2479 -0.5649  0.2276
 1924poe     o210124   5.646   4.046   2.251 -0.1841 -0.1750 -0.0944
 1924poe    c2310125   5.576   3.966   2.158 -0.4841 -0.3572  0.2891
 1924poe    c2310126   5.677   3.867   2.098 -0.2080  0.1047 -0.0075
 1924poe     o210127   5.781   3.922   2.021  0.0935 -0.3847  0.0429
 1924poe    c3110128   5.855   3.822   1.955 -0.1282 -0.5584  0.0588
 1925poe    c3110129   6.093   4.739   2.750 -0.0634  0.2630 -0.2197
 1925poe     o210130   6.121   4.683   2.876  0.4438  0.6138 -0.1734
 1925poe    c2310131   6.258   4.681   2.910  0.5057  0.4126 -0.4295
 1925poe    c2310132   6.296   4.554   2.988  0.3665  0.6700  0.0620
 1925poe     o210133   6.252   4.562   3.122 -0.2452  0.0312 -0.0914
 1925poe    c2310134   6.299   4.452   3.196  0.7627  0.5926  0.1328
 1925poe    c2310135   6.254   4.458   3.344  0.5577 -0.0058  0.0999
 1925poe     o210136   6.118   4.494   3.332  0.5706  0.0657  0.1668
 1925poe    c2310137   6.039   4.449   3.440  0.1353 -0.0793 -0.2120
 1925poe    c2310138   5.903   4.513   3.406 -0.0839 -0.1284  0.5571
 1925poe     o210139   5.936   4.649   3.386 -0.8220 -0.0302 -0.0250
 1925poe    c3110140   5.835   4.731   3.440 -0.1758  0.4312  0.4925
 1926poe    c3110141   2.889   2.583   1.898  0.4466  0.0413 -0.0917
 1926poe     o210142   2.985   2.581   2.001  0.1059 -0.5003  0.2210
 1926poe    c2310143   2.920   2.575   2.126  0.0816  0.0082  0.2351
 1926poe    c2310144   2.965   2.681   2.227 -0.0339  0.3402 -0.0607
 1926poe     o210145   3.098   2.664   2.273 -0.3337  0.1941  0.7693
 1926poe    c2310146   3.106   2.691   2.411 -0.3221  0.2753  0.7523
 1926poe    c2310147   3.239   2.640   2.469  0.2536  0.2467 -0.5589
 1926poe     o210148   3.269   2.504   2.449  0.3255  0.1487  0.1851
 1926poe    c2310149   3.406   2.479   2.470  0.4245  0.3822 -0.1730
 1926poe    c2310150   3.449   2.356   2.388  0.1638  0.0629  0.1705
 1926poe     o210151   3.439   2.369   2.248  0.2857 -0.2445  0.1329
 1926poe    c3110152   3.492   2.251   2.191 -0.2489 -0.5010  0.1634
 1927poe    c3110153   3.080   5.469   3.653  0.2139 -0.3124 -0.5565
 1927poe     o210154   3.135   5.599   3.641 -0.4244  0.0242  0.1058
 1927poe    c2310155   3.099   5.642   3.512  0.3229  0.2920 -0.0162
 1927poe    c2310156   3.156   5.783   3.490  0.1569  0.3904  0.1786
 1927poe     o210157   3.111   5.886   3.575 -0.0203  0.8202 -0.4260
 1927poe    c2310158   3.179   6.009   3.571  0.4536  0.5660 -0.3228
 1927poe    c2310159   3.158   6.075   3.709  0.2638  0.3269 -0.2359
 1927poe     o210160   3.206   5.998   3.817  0.0900 -0.0347 -0.4153
 1927poe    c2310161   3.224   6.081   3.929  0.3706 -0.1371 -0.3845
 1927poe    c2310162   3.309   6.011   4.036 -0.2280  0.1762  0.3027
 1927poe     o210163   3.244   5.901   4.097  0.1041 -0.1532  0.0737
 1927poe    c3110164   3.185   5.936   4.221  0.5179 -0.0671  0.2474
 1928poe    c3110165   3.715   5.821   1.870  0.5873  0.0751 -0.5665
 1928poe     o210166   3.750   5.703   1.803  0.8078 -0.0773 -0.1828
 1928poe    c2310167   3.703   5.699   1.671  0.2121  0.1852  0.0197
 1928poe    c2310168   3.808   5.626   1.584  0.1092  0.1770 -0.0998
 1928poe     o210169   3.820   5.506   1.657  0.4103  0.2844  0.0274
 1928poe    c2310170   3.903   5.415   1.589  0.5023  0.2059  0.2436
 1928poe    c2310171   3.913   5.290   1.679 -0.1713 -0.1496 -0.1674
 1928poe     o210172   3.961   5.298   1.811  0.0499  0.0202 -0.2580
 1928poe    c2310173   3.925   5.188   1.891  0.2928  0.2527  0.1767
 1928poe    c2310174   3.959   5.207   2.040 -0.1188 -0.4495  0.3649
 1928poe     o210175   3.905   5.322   2.102  0.6214 -0.0807  0.3339
 1928poe    c3110176   3.865   5.292   2.234 -0.6749  0.3741  0.0606
 1929poe    c3110177   2.869   2.752   5.255  0.2119  0.0206 -0.0172
 1929poe     o210178   2.927   2.787   5.379  0.4802 -0.6853  0.0589
 1929poe    c2310179   3.048   2.853   5.351  0.0547  0.0423 -0.1032
 1929poe    c2310180   3.133   2.861   5.479 -0.2780  0.2939  0.1023
 1929poe     o210181   3.048   2.879   5.590  0.0788 -0.5360  0.5205
 1929poe    c2310182   3.129   2.912   5.701  0.0791  0.9567  0.0976
 1929poe    c2310183   3.058   2.880   5.834 -0.0318 -0.2042 -0.2303
 1929poe     o210184   3.027   2.743   5.849  0.2503 -0.1783  0.6345
 1929poe    c2310185   2.996   2.714   5.984  0.0522  0.1290  0.6583
 1929poe    c2310186   2.967   2.562   5.986 -0.5153  0.2272  0.2466
 1929poe     o210187   2.867   2.535   5.891  0.1702 -0.1718 -0.3725
 1929poe    c3110188   2.814   2.405   5.878  0.1187 -0.2328  0.3834
 1930poe    c3110189   3.604   2.033   0.073  0.4900  0.4932 -0.3602
 1930poe     o210190   3.627   1.923  -0.013 -0.0085  0.4661 -0.4628
 1930poe    c2310191   3.515   1.837  -0.021  0.0001  0.4638 -0.5516
 1930poe    c2310192   3.538   1.704  -0.096 -0.2283 -0.0169  0.2287
 1930poe     o210193   3.561   1.745  -0.229  0.3304 -0.8139  0.0755
 1930poe    c2310194   3.451   1.748  -0.317  0.0919  0.1201  0.3936
 1930poe    c2310195   3.463   1.846  -0.435  0.1607 -0.1622  0.1639
 1930poe     o210196   3.453   1.983  -0.403 -0.4281  0.1140 -1.1236
 1930poe    c2310197   3.505   2.064  -0.507  0.4075  0.7147 -0.2585
 1930poe    c2310198   3.465   2.211  -0.484  0.5423  0.7297 -0.1166
 1930poe     o210199   3.327   2.236  -0.500  0.3838 -0.2242 -0.3325
 1930poe    c3110200   3.306   2.367  -0.451  0.4411 -0.2617 -0.2057
 1931poe    c3110201   4.658   6.599   3.232  0.0527 -0.3290  0.6002
 1931poe     o210202   4.637   6.731   3.187  0.3553 -0.2656  0.6423
 1931poe    c2310203   4.724   6.759   3.080  0.3568 -0.4549  0.5948
 1931poe    c2310204   4.655   6.772   2.943  0.4724 -0.2325  0.5581
 1931poe     o210205   4.573   6.886   2.950  0.4416 -0.2191  0.0495
 1931poe    c2310206   4.476   6.876   2.848 -0.0938 -0.9017  0.6076
 1931poe    c2310207   4.357   6.968   2.881  0.5504 -0.0798  0.6922
 1931poe     o210208   4.282   6.941   2.998  0.3693  0.0623  0.6080
 1931poe    c2310209   4.184   7.040   3.022  0.1535 -0.1073  0.4263
 1931poe    c2310210   4.083   7.021   3.137 -0.3918 -0.0968 -0.0450
 1931poe     o210211   3.988   6.930   3.087 -0.0330 -0.3010 -0.3666
 1931poe    c3110212   3.908   6.875   3.189 -0.3819  0.4962 -0.2005
 1932poe    c3110213   1.435   6.537   4.182  0.3132 -0.0892 -0.1519
 1932poe     o210214   1.524   6.645   4.167  0.3846  0.0066  0.8823
 1932poe    c2310215   1.639   6.626   4.247  0.6770  0.1560  0.5021
 1932poe    c2310216   1.673   6.746   4.338 -0.2185  0.4425  0.4706
 1932poe     o210217   1.686   6.867   4.267  0.3280 -0.0724 -0.3287
 1932poe    c2310218   1.620   6.976   4.328 -0.0055 -0.3053 -0.2687
 1932poe    c2310219   1.648   7.109   4.256  0.1677 -0.0369  0.2837
 1932poe     o210220   1.593   7.156   4.135  0.1024  0.0709  0.3558
 1932poe    c2310221   1.469   7.223   4.145  0.3520  0.5811  0.1190
 1932poe    c2310222   1.417   7.243   4.002 -0.2284 -0.0678  0.2321
 1932poe     o210223   1.445   7.124   3.933 -0.2683  0.1237 -0.1158
 1932poe    c3110224   1.366   7.092   3.821  0.2854 -0.0211 -0.4722
 1933poe    c3110225   1.307   3.235   0.794 -0.0425 -0.3619  0.8573
 1933poe     o210226   1.408   3.171   0.720 -0.4000  0.2226 -0.1431
 1933poe    c2310227   1.398   3.212   0.585 -0.0390  0.1858 -0.1816
 1933poe    c2310228   1.514   3.139   0.515 -0.2546 -0.3693  0.0403
 1933poe     o210229   1.507   3.004   0.555  0.2696 -0.3504  0.2022
 1933poe    c2310230   1.622   2.930   0.519 -0.1219 -0.7519 -0.2384
 1933poe    c2310231   1.587   2.780   0.511 -0.2498 -0.7427  0.1265
 1933poe     o210232   1.519   2.738   0.628  0.0327 -0.2629  0.4666
 1933poe    c2310233   1.528   2.599   0.646  0.1605 -0.4078 -0.6357
 1933poe    c2310234   1.434   2.563   0.763  0.5754 -0.4630 -0.3168
 1933poe     o210235   1.482   2.602   0.889 -0.5887 -0.3626  0.1018
 1933poe    c3110236   1.449   2.523   1.002 -0.5133 -0.3646  0.1221
 1934poe    c3110237   6.994   0.454   4.276 -0.0138  0.2468 -0.1660
 1934poe     o210238   7.094   0.353   4.277  0.2383  0.4944  0.1208
 1934poe    c2310239   7.136   0.328   4.145  0.0603  0.2817  0.1035
 1934poe    c2310240   7.227   0.204   4.151 -0.6070 -0.2101  0.1968
 1934poe     o210241   7.353   0.230   4.209 -0.7913 -0.7488  0.8521
 1934poe    c2310242   7.425   0.109   4.199  0.8599  0.2486  0.2454
 1934poe    c2310243   7.576   0.130   4.221  1.0505 -0.3934 -0.4258
 1934poe     o210244   7.587   0.146   4.361 -0.0696 -0.2518 -0.3476
 1934poe    c2310245   7.719   0.151   4.410 -0.2117 -0.1080  0.0243
 1934poe    c2310246   7.712   0.218   4.548  0.4574  0.0657 -0.0236
 1934poe     o210247   7.610   0.147   4.615  0.6234 -0.7331 -0.6078
 1934poe    c3110248   7.627   0.147   4.755  0.1864 -0.3807 -0.5517
 1935poe    c3110249   0.461   4.194   2.855 -0.5562 -0.4915  0.1383
 1935poe     o210250   0.478   4.241   2.987 -0.0640 -0.0836 -0.0697
 1935poe    c2310251   0.557   4.158   3.069 -0.4799 -0.6871 -0.2730
 1935poe    c2310252   0.508   4.178   3.213 -0.4088 -0.3278 -0.2982
 1935poe     o210253   0.469   4.314   3.209 -0.0818 -0.2325 -0.2499
 1935poe    c2310254   0.448   4.354   3.343 -0.1344 -0.0419 -0.3153
 1935poe    c2310255   0.447   4.508   3.345 -0.0457 -0.0499  0.8844
 1935poe     o210256   0.357   4.547   3.244  0.2946 -0.6693  0.3316
 1935poe    c2310257   0.320   4.682   3.264  0.7354 -0.4558 -0.2621
 1935poe    c2310258   0.202   4.740   3.184  0.6769  0.1221  0.2387
 1935poe     o210259   0.227   4.795   3.056 -0.6293  0.6156  0.1865
 1935poe    c3110260   0.107   4.837   2.994 -0.9572 -0.3127  0.1698
 1936poe    c3110261   6.236   5.247   1.188 -0.2130  0.2654  0.0947
 1936poe     o210262   6.321   5.330   1.264  0.4869 -0.2911 -0.0677
 1936poe    c2310263   6.253   5.408   1.360  0.1107 -0.1543 -0.4422
 1936poe    c2310264   6.178   5.528   1.299 -0.0685  0.4576  0.9593
 1936poe     o210265   6.265   5.626   1.249  0.2645 -0.2266  0.1795
 1936poe    c2310266   6.215   5.691   1.133  0.3669 -0.3085  0.0889
 1936poe    c2310267   6.319   5.759   1.043  0.1068 -0.4097 -0.2889
 1936poe     o210268   6.402   5.673   0.968  0.2419 -0.1689 -0.4152
 1936poe    c2310269   6.332   5.644   0.849 -0.2605 -0.0218 -0.1550
 1936poe    c2310270   6.406   5.540   0.764  0.1570 -0.1490  0.3573
 1936poe     o210271   6.520   5.598   0.705 -0.4976  0.1587 -0.6398
 1936poe    c3110272   6.581   5.504   0.619  0.2957  0.1384 -0.0719
 1937poe    c3110273   3.548   2.817   5.644  0.0289  0.5275 -0.3284
 1937poe     o210274   3.531   2.694   5.712  0.4509  0.4040 -0.4423
 1937poe    c2310275   3.634   2.605   5.675  0.2872 -0.0406  0.1570
 1937poe    c2310276   3.665   2.491   5.773  0.0155 -0.3712 -0.1388
 1937poe     o210277   3.534   2.450   5.805 -0.1543 -0.2148 -0.6269
 1937poe    c2310278   3.530   2.345   5.899 -0.3051  0.2859 -0.0692
 1937poe    c2310279   3.385   2.326   5.949 -0.2219 -0.2230 -0.0156
 1937poe     o210280   3.327   2.436   6.015 -0.0658 -0.2472  0.1614
 1937poe    c2310281   3.364   2.429   6.151  0.1356 -0.1691  0.1113
 1937poe    c2310282   3.296   2.547   6.222  0.1451 -0.3240  0.3794
 1937poe     o210283   3.361   2.670   6.200 -0.3193 -0.0125  0.7300
 1937poe    c3110284   3.287   2.765   6.274 -0.5249  0.7232 -0.3942
 1938poe    c3110285   4.952   3.104   6.034 -0.4073  0.2508 -0.1200
 1938poe     o210286   4.881   2.987   6.001 -0.2469  0.2143 -0.3381
 1938poe    c2310287   4.937   2.914   5.895  0.8014  0.1048  0.2717
 1938poe    c2310288   4.860   2.799   5.827  0.1868  0.4817  0.3285
 1938poe     o210289   4.813   2.702   5.918  0.1543 -0.2872 -0.4943
 1938poe    c2310290   4.764   2.595   5.840  0.0916 -0.2632 -0.4883
 1938poe    c2310291   4.703   2.485   5.930 -0.2875  0.0578 -0.3506
 1938poe     o210292   4.581   2.521   5.990 -0.2386  0.0172 -0.2252
 1938poe    c2310293   4.591   2.556   6.126  0.2268  0.1252 -0.2863
 1938poe    c2310294   4.464   2.624   6.180  0.1540 -0.0146 -0.2822
 1938poe     o210295   4.356   2.534   6.194  0.1572  0.0730  0.3496
 1938poe    c3110296   4.245   2.604   6.247  0.3321  0.4172  0.2645
 1939poe    c3110297   4.191   5.520   6.591  0.5464  0.2374  0.0908
 1939poe     o210298   4.229   5.495   6.724  0.1464 -0.3306  0.1010
 1939poe    c2310299   4.341   5.568   6.768  0.3071 -0.3133 -0.3384
 1939poe    c2310300   4.347   5.566   6.922 -0.1222  0.2775 -0.3113
 1939poe     o210301   4.240   5.646   6.968 -0.1957 -0.3436  0.6057
 1939poe    c2310302   4.226   5.638   7.108  0.4957 -0.0782  0.6929
 1939poe    c2310303   4.100   5.716   7.151  0.0520 -0.2247 -0.3247
 1939poe     o210304   3.987   5.635   7.128  0.0994 -0.3285 -0.1926
 1939poe    c2310305   3.871   5.667   7.202  0.2312 -0.1188 -0.0753
 1939poe    c2310306   3.788   5.542   7.236 -0.0977  0.0758 -0.1555
 1939poe     o210307   3.724   5.494   7.120 -0.1502 -0.2589  0.0095
 1939poe    c3110308   3.659   5.374   7.155 -0.2207 -0.1797  0.1530
 1940poe    c3110309   6.502   6.122   4.135  0.6382  0.9133  0.3392
 1940poe     o210310   6.401   6.151   4.041  0.6214  0.2341  0.1394
 1940poe    c2310311   6.437   6.079   3.925  0.0544  0.3722 -0.1213
 1940poe    c2310312   6.321   5.979   3.910  0.1801  0.3527 -0.9964
 1940poe     o210313   6.204   6.055   3.928  0.1986  0.1592 -0.0115
 1940poe    c2310314   6.089   5.974   3.915  0.5202 -0.3257  0.1645
 1940poe    c2310315   5.977   6.074   3.946  0.5371 -0.3047  0.1583
 1940poe     o210316   6.011   6.141   4.065 -0.4486  0.3634  0.0796
 1940poe    c2310317   5.891   6.169   4.134 -0.3452  0.7352  0.1093
 1940poe    c2310318   5.926   6.219   4.275 -0.5551  0.4925  0.2468
 1940poe     o210319   6.008   6.333   4.271  0.2347 -0.0643  0.2366
 1940poe    c3110320   6.026   6.387   4.400 -0.0850  0.8812 -0.1023
 1941poe    c3110321   2.416   4.849   0.426 -0.1535  0.8371  0.3677
 1941poe     o210322   2.330   4.809   0.321 -0.1685  0.2299  0.6116
 1941poe    c2310323   2.200   4.791   0.372 -0.3869  0.1708  0.0301
 1941poe    c2310324   2.106   4.746   0.258  0.6159 -0.2469 -0.6467
 1941poe     o210325   2.060   4.851   0.177 -0.3390 -0.0005  0.1865
 1941poe    c2310326   1.988   4.799   0.068  0.0908 -0.4643  0.1181
 1941poe    c2310327   1.937   4.911  -0.026  0.8921  0.1981  0.4629
 1941poe     o210328   1.874   5.021   0.035 -0.1720 -0.2337  0.1588
 1941poe    c2310329   1.805   5.106  -0.054 -0.3612 -0.2797  0.2602
 1941poe    c2310330   1.719   5.213   0.014 -0.7167  0.0972 -0.7563
 1941poe     o210331   1.616   5.144   0.082 -0.4183  0.1812 -0.2086
 1941poe    c3110332   1.533   5.244   0.136 -0.4768  0.4146 -0.7266
 1942poe    c3110333   1.876   4.480   3.466  0.1751 -0.0743 -0.0551
 1942poe     o210334   1.810   4.512   3.346 -0.4067  0.0357  0.2869
 1942poe    c2310335   1.734   4.399   3.308 -0.5544  0.3041 -0.2317
 1942poe    c2310336   1.681   4.406   3.164 -0.1597  0.0294 -0.3914
 1942poe     o210337   1.602   4.518   3.133 -0.7164 -0.2905 -0.1486
 1942poe    c2310338   1.511   4.502   3.027 -0.1129 -0.1054 -0.7047
 1942poe    c2310339   1.472   4.646   2.989 -0.2563  0.1214  0.2636
 1942poe     o210340   1.585   4.727   2.968 -0.0479 -0.2163  0.0809
 1942poe    c2310341   1.553   4.837   2.886  0.0526 -0.4591 -0.2836
 1942poe    c2310342   1.694   4.887   2.849 -0.2111  0.7692  0.3344
 1942poe     o210343   1.754   4.880   2.976  0.2737 -0.3680  0.0558
 1942poe    c3110344   1.845   4.983   3.008  0.2673 -0.3542  0.0284
 1943poe    c3110345   2.297   1.579   1.914  0.2168 -0.4283  0.2802
 1943poe     o210346   2.269   1.442   1.899 -0.0828 -0.2667 -0.6801
 1943poe    c2310347   2.143   1.403   1.849 -0.2854 -0.0155 -0.3698
 1943poe    c2310348   2.118   1.252   1.870  0.4832  0.0255  0.9309
 1943poe     o210349   2.222   1.166   1.830  0.3969  0.0402  0.6797
 1943poe    c2310350   2.193   1.030   1.854  0.0822  0.0569  0.4206
 1943poe    c2310351   2.275   0.933   1.767 -0.5737  0.0115 -0.1484
 1943poe     o210352   2.415   0.939   1.783 -0.5104  0.3103 -0.7683
 1943poe    c2310353   2.465   0.824   1.718 -0.1855  0.1709 -0.2766
 1943poe    c2310354   2.614   0.800   1.748 -0.4237 -0.6673  0.2756
 1943poe     o210355   2.626   0.753   1.881  0.0636 -0.2764  0.3731
 1943poe    c3110356   2.761   0.732   1.913  0.0657  0.0412  0.5780
 1944poe    c3110357   5.605   3.068   0.610 -0.0999 -0.1345 -0.2389
 1944poe     o210358   5.742   3.058   0.578 -0.2018 -0.3314 -0.6220
 1944poe    c2310359   5.795   2.956   0.659 -0.1044 -0.0014 -0.2653
 1944poe    c2310360   5.944   2.934   0.625 -0.0922  0.5427 -0.5833
 1944poe     o210361   6.003   3.060   0.604 -0.2393  0.6532 -0.3493
 1944poe    c2310362   6.137   3.052   0.561 -0.1085  0.2282  0.1276
 1944poe    c2310363   6.215   3.182   0.588  0.1577  0.0482  0.2206
 1944poe     o210364   6.232   3.204   0.727  0.1820 -0.2380  0.2636
 1944poe    c2310365   6.289   3.329   0.757 -0.1969 -0.0168  0.0686
 1944poe    c2310366   6.331   3.365   0.901  0.4202  0.3220 -0.1922
 1944poe     o210367   6.350   3.504   0.909  1.3093  0.2049 -0.1338
 1944poe    c3110368   6.400   3.535   1.037  0.6673 -0.4408  0.2834
 1945poe    c3110369   6.758   1.846   3.262 -0.1560 -0.2433 -0.0312
 1945poe     o210370   6.821   1.728   3.217  0.1160 -0.0578 -0.1358
 1945poe    c2310371   6.932   1.752   3.132  0.0369 -0.1936 -0.2784
 1945poe    c2310372   7.022   1.628   3.124 -0.6602 -0.7049 -0.3346
 1945poe     o210373   7.069   1.584   3.249 -0.3995  0.8243  0.1194
 1945poe    c2310374   7.176   1.656   3.308  0.3568 -0.1509 -0.0338
 1945poe    c2310375   7.188   1.608   3.454  0.1785 -0.0526  0.0136
 1945poe     o210376   7.051   1.602   3.486  0.2382 -0.4806  0.1896
 1945poe    c2310377   7.014   1.679   3.598  0.1211 -0.0175 -0.1656
 1945poe    c2310378   6.861   1.702   3.595  0.0960 -0.1694 -0.0212
 1945poe     o210379   6.797   1.580   3.564  0.5233 -0.3669 -0.1411
 1945poe    c3110380   6.658   1.596   3.551  0.6132 -0.0563 -0.7486
 1946poe    c3110381   6.241   4.219   0.461  0.1207  0.0028 -0.0807
 1946poe     o210382   6.287   4.228   0.328 -0.1055  0.2598 -0.1442
 1946poe    c2310383   6.411   4.161   0.318 -0.1092  0.2227  0.0466
 1946poe    c2310384   6.472   4.147   0.177 -0.2425  0.0725  0.0043
 1946poe     o210385   6.520   4.273   0.138 -0.6255  0.0383 -0.5872
 1946poe    c2310386   6.593   4.255   0.018  0.7899 -0.1950  0.2931
 1946poe    c2310387   6.612   4.387  -0.058 -0.2377 -0.5132 -0.5413
 1946poe     o210388   6.493   4.460  -0.079 -0.0894 -0.1185 -0.0415
 1946poe    c2310389   6.515   4.572  -0.162 -0.6418 -0.4288 -0.6137
 1946poe    c2310390   6.392   4.663  -0.177 -0.3733  0.1466  0.5912
 1946poe     o210391   6.273   4.611  -0.232 -0.1290  0.1870  0.0110
 1946poe    c3110392   6.150   4.671  -0.197 -0.3476 -0.1367 -0.1863
 1947poe    c3110393   3.515   5.512   1.331  0.1229 -0.1684 -0.1931
 1947poe     o210394   3.505   5.647   1.370  0.0522 -0.1989 -0.1060
 1947poe    c2310395   3.586   5.723   1.284  0.0543  0.2420  0.2815
 1947poe    c2310396   3.528   5.782   1.154 -0.1553  0.3769  0.4351
 1947poe     o210397   3.471   5.907   1.188 -0.1429  0.2692  0.8478
 1947poe    c2310398   3.374   5.942   1.092 -0.1768  0.2796  0.8857
 1947poe    c2310399   3.303   6.072   1.132 -0.0857  0.5837  0.0688
 1947poe     o210400   3.233   6.124   1.021 -0.5667  0.7587  0.4470
 1947poe    c2310401   3.181   6.251   1.052 -0.1605  0.8911  0.5845
 1947poe    c2310402   3.201   6.348   0.934  0.9546  0.6136  0.5324
 1947poe     o210403   3.123   6.465   0.937 -0.1856 -0.1083 -0.2553
 1947poe    c3110404   3.114   6.519   0.807  0.3687 -0.0843 -0.2854
 1948poe    c3110405   3.722   0.441   1.375  0.1323 -0.0410 -0.1919
 1948poe     o210406   3.861   0.421   1.392  0.1643  0.1973 -0.1710
 1948poe    c2310407   3.917   0.408   1.263  0.4051 -0.5491  0.0061
 1948poe    c2310408   4.065   0.374   1.287  0.4485 -0.5614 -0.2800
 1948poe     o210409   4.162   0.469   1.327 -0.0198 -0.2734  0.1734
 1948poe    c2310410   4.290   0.413   1.313 -0.0556 -0.2561 -0.2284
 1948poe    c2310411   4.396   0.523   1.293  0.2398 -0.4336  0.3417
 1948poe     o210412   4.381   0.632   1.382  0.0761 -0.0757 -0.1212
 1948poe    c2310413   4.429   0.748   1.316  0.2389  0.0119  0.1520
 1948poe    c2310414   4.389   0.883   1.379  0.2077  0.4587 -0.8186
 1948poe     o210415   4.253   0.911   1.351 -0.1375 -0.3631 -0.0275
 1948poe    c3110416   4.224   1.047   1.377  0.3849 -0.2034 -0.2616
 1949poe    c3110417   1.019   5.237   0.621 -0.0313 -0.0150  0.3281
 1949poe     o210418   1.074   5.160   0.516 -0.2834 -0.1127  0.2668
 1949poe    c2310419   1.025   5.028   0.507  0.0470 -0.2336  0.2397
 1949poe    c2310420   1.095   4.940   0.402 -0.5733 -0.3233 -0.1006
 1949poe     o210421   1.072   4.982   0.269  0.3955 -0.5552 -0.3477
 1949poe    c2310422   1.188   4.955   0.194  0.4562 -0.0833 -0.4220
 1949poe    c2310423   1.180   4.991   0.044 -0.2342  0.6038 -0.2248
 1949poe     o210424   1.230   5.121   0.020  0.1415  0.5055  0.0242
 1949poe    c2310425   1.209   5.158  -0.114 -0.3461 -0.3715 -0.1511
 1949poe    c2310426   1.264   5.297  -0.151 -0.4114 -0.2316  0.2750
 1949poe     o210427   1.404   5.318  -0.154 -0.4755  0.1903  0.1577
 1949poe    c3110428   1.448   5.451  -0.161  0.0664  0.0095  0.0773
 1950poe    c3110429   4.077   6.816   4.978 -0.1090 -0.3786 -0.4253
 1950poe     o210430   3.996   6.898   4.896 -0.0406  0.2486  0.1230
 1950poe    c2310431   3.891   6.829   4.831 -0.3587  0.0899  0.7892
 1950poe    c2310432   3.788   6.937   4.794 -0.6065 -0.6580 -0.7805
 1950poe     o210433   3.710   6.974   4.906  0.0866  0.0732 -0.5291
 1950poe    c2310434   3.655   7.099   4.869 -0.5872 -0.0195  0.1542
 1950poe    c2310435   3.533   7.126   4.960 -0.7259 -0.2178  0.0266
 1950poe     o210436   3.561   7.107   5.097  0.3134 -0.2140 -0.1720
 1950poe    c2310437   3.450   7.164   5.163 -0.0120 -0.7956 -0.2147
 1950poe    c2310438   3.457   7.147   5.316  0.0994 -0.2230 -0.1569
 1950poe     o210439   3.440   7.016   5.364 -0.3405 -0.1130 -0.0142
 1950poe    c3110440   3.535   6.996   5.466  0.1329  0.3681 -0.3576
 1951poe    c3110441   0.582   5.399   0.958 -0.2464  0.1357 -0.6047
 1951poe     o210442   0.590   5.308   0.850 -0.2515 -0.0550 -0.4452
 1951poe    c2310443   0.618   5.185   0.914 -0.1450  0.4115  0.4302
 1951poe    c2310444   0.742   5.117   0.854 -0.0904  0.8337  0.0577
 1951poe     o210445   0.723   5.067   0.723 -0.2857 -0.0288  0.4109
 1951poe    c2310446   0.654   4.946   0.701 -0.0439 -0.0986  0.0259
 1951poe    c2310447   0.726   4.812   0.726 -0.1598 -0.0944  0.3912
 1951poe     o210448   0.829   4.783   0.634  0.1345  0.6174  0.4885
 1951poe    c2310449   0.885   4.654   0.644 -0.6967  0.1414 -0.7401
 1951poe    c2310450   1.031   4.647   0.597 -0.2685  0.6541  0.4768
 1951poe     o210451   1.116   4.691   0.701  0.3878  0.0884  0.1890
 1951poe    c3110452   1.252   4.685   0.664  0.3322 -0.7831  0.1120
 1952poe    c3110453   0.565   4.563   5.632  0.0724  0.2106 -0.2636
 1952poe     o210454   0.565   4.491   5.511 -0.2788 -0.9537  0.4143
 1952poe    c2310455   0.653   4.384   5.537  0.6345 -0.2641  0.1711
 1952poe    c2310456   0.634   4.297   5.411 -0.4946  0.2748 -0.0359
 1952poe     o210457   0.630   4.391   5.306 -0.2050 -0.0232 -0.3146
 1952poe    c2310458   0.612   4.340   5.176  0.0751 -0.4290 -0.1953
 1952poe    c2310459   0.623   4.467   5.089  0.1978 -0.1916  0.1635
 1952poe     o210460   0.555   4.573   5.154  0.0021  0.3108 -0.8488
 1952poe    c2310461   0.567   4.696   5.085 -0.2664  0.8883  0.1264
 1952poe    c2310462   0.482   4.718   4.958  0.1933 -0.2075 -0.3858
 1952poe     o210463   0.504   4.632   4.849 -0.3996 -0.9472  0.0710
 1952poe    c3110464   0.415   4.659   4.744 -0.3277  0.0914  0.2708
 1953poe    c3110465   4.014   4.000   4.721 -0.1485 -0.2269 -0.8047
 1953poe     o210466   3.950   3.925   4.822 -0.0094  0.5788 -0.0995
 1953poe    c2310467   3.944   3.791   4.776  0.1746  0.4060  0.3794
 1953poe    c2310468   3.965   3.694   4.894 -0.1861 -0.6346 -0.4051
 1953poe     o210469   3.856   3.702   4.983  0.1588 -0.3320 -0.0060
 1953poe    c2310470   3.873   3.607   5.086  0.4883 -0.3317 -0.0583
 1953poe    c2310471   3.972   3.651   5.195 -0.0716  0.0467  0.3048
 1953poe     o210472   3.928   3.757   5.277 -0.5942 -0.0234  0.1211
 1953poe    c2310473   4.025   3.777   5.378  0.1526  0.6345 -0.6986
 1953poe    c2310474   3.973   3.898   5.458 -0.6903  0.1983 -0.5652
 1953poe     o210475   3.941   4.004   5.370 -0.1118  0.0865 -0.9232
 1953poe    c3110476   3.877   4.107   5.442 -0.2672 -0.3446 -0.4386
 1954poe    c3110477   1.511   6.395   6.104 -0.2864  0.2577  0.4496
 1954poe     o210478   1.419   6.295   6.067  0.4019 -0.3538  0.3580
 1954poe    c2310479   1.296   6.328   6.129  0.4852 -0.3010  0.4958
 1954poe    c2310480   1.202   6.206   6.124  0.2013 -0.0464 -0.5285
 1954poe     o210481   1.206   6.170   5.987  0.3425  0.0792 -0.5580
 1954poe    c2310482   1.094   6.098   5.942  0.2849 -0.4919  0.4710
 1954poe    c2310483   1.112   6.092   5.789 -0.3590 -0.0046  0.3727
 1954poe     o210484   1.219   6.002   5.776 -0.1248  0.3808 -0.3833
 1954poe    c2310485   1.236   5.962   5.642  0.0946 -0.4301 -0.1159
 1954poe    c2310486   1.355   5.865   5.625 -0.0812 -0.5770 -0.5352
 1954poe     o210487   1.458   5.898   5.716 -0.1926 -0.3392 -0.4943
 1954poe    c3110488   1.560   5.802   5.707  0.3445  0.1885 -0.1363
 1955poe    c3110489   1.416   5.882   1.708  0.7065  0.5413 -0.1929
 1955poe     o210490   1.354   5.904   1.583 -0.3659 -0.4073  0.1584
 1955poe    c2310491   1.237   5.981   1.598 -0.1808 -0.1351  0.2111
 1955poe    c2310492   1.195   6.006   1.452 -0.2289 -0.3519  0.1882
 1955poe     o210493   1.302   6.038   1.365 -0.4754  0.2204  0.0935
 1955poe    c2310494   1.264   6.056   1.230  0.5773 -0.5189 -0.3091
 1955poe    c2310495   1.394   6.094   1.157  0.8605  0.3670  0.6307
 1955poe     o210496   1.493   5.994   1.153  0.5981  0.1201  0.3052
 1955poe    c2310497   1.600   6.027   1.067  0.1078  0.0556 -0.3365
 1955poe    c2310498   1.707   5.916   1.071  0.1894  0.1686  1.0581
 1955poe     o210499   1.636   5.795   1.065  0.1912  0.1997  0.2248
 1955poe    c3110500   1.723   5.684   1.076 -0.4895 -0.3615  0.0686
 1956poe    c3110501   4.385   6.406   0.539 -0.0024 -0.7811  0.4693
 1956poe     o210502   4.263   6.431   0.474  0.2967  0.3995  0.3423
 1956poe    c2310503   4.149   6.416   0.555  0.1386  0.1378  0.0730
 1956poe    c2310504   4.026   6.423   0.463 -0.0129  0.4273  0.2945
 1956poe     o210505   4.048   6.506   0.352 -0.0483  0.0983  0.0410
 1956poe    c2310506   3.943   6.517   0.258 -0.1045  0.0488  0.0977
 1956poe    c2310507   4.008   6.602   0.147 -0.4387 -0.4468 -0.4854
 1956poe     o210508   4.117   6.539   0.085  0.4904  0.1125  0.5450
 1956poe    c2310509   4.133   6.600  -0.041  0.4564  0.1710  0.5688
 1956poe    c2310510   4.247   6.537  -0.124 -0.1267  0.0813 -0.1656
 1956poe     o210511   4.222   6.404  -0.164  0.2027 -0.0627  0.1115
 1956poe    c3110512   4.347   6.342  -0.183  0.1766  0.0995 -0.6008
 1957poe    c3110513   4.307   4.980   2.448  0.5484  0.2508 -0.7994
 1957poe     o210514   4.289   4.848   2.400 -0.4686 -0.0425  0.3430
 1957poe    c2310515   4.391   4.834   2.305  0.1187  0.0098  0.9574
 1957poe    c2310516   4.415   4.685   2.277 -0.1265  0.0915  0.3045
 1957poe     o210517   4.295   4.615   2.253  0.3512 -0.4681 -0.5221
 1957poe    c2310518   4.306   4.475   2.259  0.1183 -0.4713 -0.1289
 1957poe    c2310519   4.163   4.434   2.219 -0.1976  0.0670  0.4326
 1957poe     o210520   4.065   4.501   2.295 -0.0598  0.5145  0.2168
 1957poe    c2310521   3.944   4.461   2.235  0.3350 -0.1945 -0.1191
 1957poe    c2310522   3.824   4.555   2.260  0.6638  0.2547 -0.2085
 1957poe     o210523   3.849   4.677   2.194 -0.5132  0.2595 -0.6717
 1957poe    c3110524   3.741   4.766   2.208 -0.3317  0.3877 -0.0639
 1958poe    c3110525   2.021   0.276   5.171  0.0770 -0.0025 -0.8372
 1958poe     o210526   1.960   0.151   5.148  0.1594 -0.1527 -0.2770
 1958poe    c2310527   2.032   0.052   5.078  1.0036 -0.1217  0.5329
 1958poe    c2310528   2.050   0.070   4.926 -0.3378 -0.0347  0.3677
 1958poe     o210529   1.922   0.080   4.867 -0.2143  0.0418  0.1096
 1958poe    c2310530   1.923   0.087   4.727  0.4747 -0.5842  0.0743
 1958poe    c2310531   1.775   0.090   4.683  0.5250  0.2335 -0.0539
 1958poe     o210532   1.711   0.197   4.750  0.3311  0.0782  0.0081
 1958poe    c2310533   1.580   0.202   4.697  0.3304 -0.2105 -0.0214
 1958poe    c2310534   1.499   0.302   4.782 -0.6298 -0.4791 -0.6080
 1958poe     o210535   1.478   0.256   4.914  0.0182  0.2250 -0.2511
 1958poe    c3110536   1.415   0.361   4.983  0.4036 -0.3551  1.0088
 1959poe    c3110537   1.718   1.032   4.800  0.5551  0.2712  0.4022
 1959poe     o210538   1.694   0.922   4.886 -0.1631 -0.0700 -0.2235
 1959poe    c2310539   1.710   0.800   4.819 -0.2881  0.0580 -0.4876
 1959poe    c2310540   1.754   0.694   4.922  0.0946  0.8769  0.2025
 1959poe     o210541   1.658   0.691   5.026  0.1863 -0.1225  0.2718
 1959poe    c2310542   1.709   0.611   5.129 -0.0074 -0.1509  0.3456
 1959poe    c2310543   1.607   0.629   5.243 -0.0683  0.2215  0.2322
 1959poe     o210544   1.603   0.770   5.253  0.1083  0.2451 -0.0176
 1959poe    c2310545   1.477   0.819   5.292  0.1413  0.4412 -0.1586
 1959poe    c2310546   1.386   0.844   5.170  0.0748 -0.1601 -0.2349
 1959poe     o210547   1.449   0.929   5.076 -0.2397  0.1180 -0.1952
 1959poe    c3110548   1.349   1.007   5.016 -0.6021 -0.5175 -0.4245
 1960poe    c3110549   1.738   1.833   0.085  0.0822 -0.1120  0.7396
 1960poe     o210550   1.665   1.718   0.045  0.7662 -0.4116  0.3255
 1960poe    c2310551   1.529   1.734   0.079  0.4675 -0.2464 -0.8977
 1960poe    c2310552   1.452   1.607   0.036  0.1738 -0.2741 -0.2983
 1960poe     o210553   1.539   1.497   0.049  0.0548 -0.3830 -0.4369
 1960poe    c2310554   1.482   1.368   0.043 -0.3515 -0.2756  0.8247
 1960poe    c2310555   1.579   1.273  -0.030  0.2271  0.7191  0.2853
 1960poe     o210556   1.715   1.298  -0.002  0.4877  0.2380 -0.5074
 1960poe    c2310557   1.785   1.183  -0.045  0.4183  0.0354 -0.0854
 1960poe    c2310558   1.937   1.199  -0.026  0.3791  0.3451 -0.0233
 1960poe     o210559   1.955   1.310  -0.112 -0.5539  0.3616 -0.2105
 1960poe    c3110560   2.081   1.303  -0.173 -0.6161  0.7911 -0.3896
 1961poe    c3110561   0.101   5.089   4.206  0.0864  0.0202 -0.0264
 1961poe     o210562  -0.023   5.145   4.167  0.2972  0.2909 -0.3170
 1961poe    c2310563  -0.075   5.246   4.250 -0.0927 -0.3854  0.2796
 1961poe    c2310564  -0.183   5.339   4.193  0.0342 -0.4039  0.0077
 1961poe     o210565  -0.306   5.285   4.149 -0.0824 -0.0006 -0.1723
 1961poe    c2310566  -0.404   5.257   4.246 -0.5215  0.7280 -0.3987
 1961poe    c2310567  -0.532   5.205   4.178 -0.2730  0.3260 -0.5664
 1961poe     o210568  -0.507   5.095   4.093  0.1200 -0.2187  0.2419
 1961poe    c2310569  -0.623   5.034   4.043 -0.0368  0.7406 -0.5936
 1961poe    c2310570  -0.578   4.911   3.962  0.1986  0.1447  0.4339
 1961poe     o210571  -0.470   4.953   3.882  0.0483 -0.1611  0.0638
 1961poe    c3110572  -0.425   4.861   3.785  0.2598  0.1643 -0.1486
 1962poe    c3110573   5.352   5.357   6.678  0.1944  0.1395  0.1640
 1962poe     o210574   5.317   5.279   6.789 -0.1699  0.3494  0.1988
 1962poe    c2310575   5.372   5.331   6.908  0.2694  0.5487 -0.0894
 1962poe    c2310576   5.282   5.307   7.031  0.2615 -0.0118 -0.2039
 1962poe     o210577   5.314   5.178   7.078 -0.6376 -0.0047  0.4495
 1962poe    c2310578   5.270   5.167   7.212 -0.1423 -0.2656  0.5946
 1962poe    c2310579   5.235   5.022   7.252  0.1734 -0.6390 -0.4296
 1962poe     o210580   5.164   4.968   7.143  0.1888  0.0190 -0.7736
 1962poe    c2310581   5.102   4.845   7.175  0.0685  0.2375 -0.1516
 1962poe    c2310582   5.132   4.737   7.070  0.3964  0.3333 -0.1580
 1962poe     o210583   5.124   4.813   6.952 -0.8188  0.2126 -0.1704
 1962poe    c3110584   5.153   4.738   6.835 -0.1622 -0.1038  0.1884
 1963poe    c3110585   3.003   6.444   4.793  0.1055  0.5498  0.1045
 1963poe     o210586   3.083   6.330   4.774 -0.4903  0.1318  0.0903
 1963poe    c2310587   3.055   6.269   4.650 -0.1107 -0.0642  0.0984
 1963poe    c2310588   3.118   6.129   4.653 -0.0357 -0.0357 -0.1545
 1963poe     o210589   3.057   6.032   4.735 -0.1493 -0.0506 -0.2563
 1963poe    c2310590   3.096   5.898   4.710  0.2831  0.0292 -0.0223
 1963poe    c2310591   3.003   5.797   4.780  0.4232 -0.2088 -0.1818
 1963poe     o210592   3.005   5.807   4.921  0.3032 -0.2382 -0.1785
 1963poe    c2310593   2.894   5.732   4.964  0.4595 -0.3466  0.0374
 1963poe    c2310594   2.854   5.777   5.106  0.5283 -0.0091 -0.0504
 1963poe     o210595   2.831   5.915   5.124 -0.3171 -0.1642  0.0636
 1963poe    c3110596   2.770   5.939   5.249  0.3669 -0.1759  0.4010
 1964poe    c3110597   5.672   6.411   0.234 -0.0593 -0.2101  0.0890
 1964poe     o210598   5.790   6.447   0.302 -0.2151  0.4823  0.0002
 1964poe    c2310599   5.841   6.567   0.249 -0.1326  0.2806 -0.3792
 1964poe    c2310600   5.876   6.648   0.375  0.4944  0.2859 -0.5529
 1964poe     o210601   5.957   6.568   0.458  0.1574  0.2208 -0.2820
 1964poe    c2310602   6.030   6.649   0.547 -0.0969  0.1827 -0.0389
 1964poe    c2310603   6.111   6.578   0.658  0.0232 -0.0978 -0.3027
 1964poe     o210604   6.028   6.499   0.741 -0.0917  0.0188 -0.3049
 1964poe    c2310605   6.112   6.430   0.831 -0.1309 -0.3669 -0.5618
 1964poe    c2310606   6.017   6.341   0.913 -0.3677  0.1916 -0.2191
 1964poe     o210607   5.953   6.243   0.833 -0.7412  0.2367  0.0232
 1964poe    c3110608   5.863   6.170   0.914  0.3861 -0.8196  0.3564
 1965poe    c3110609   3.118   6.889   6.897  0.2351 -0.2925 -0.7247
 1965poe     o210610   3.117   6.826   7.024  0.1224  0.4274 -0.3616
 1965poe    c2310611   3.015   6.880   7.105  0.4623  0.2677  0.1711
 1965poe    c2310612   3.026   6.798   7.235 -0.1385 -0.1557 -0.0395
 1965poe     o210613   3.024   6.659   7.211  0.0314 -0.1566 -0.0508
 1965poe    c2310614   2.999   6.601   7.338 -0.0664  1.0181  0.4765
 1965poe    c2310615   3.127   6.529   7.382 -0.3018  0.0278 -0.4132
 1965poe     o210616   3.164   6.440   7.280 -0.2861 -0.2426 -0.1724
 1965poe    c2310617   3.262   6.349   7.326 -0.0545  0.1590  0.1318
 1965poe    c2310618   3.323   6.293   7.196 -0.6815 -0.5359  0.1268
 1965poe     o210619   3.215   6.272   7.108 -0.4807  0.3201 -0.3370
 1965poe    c3110620   3.247   6.182   7.004  0.0580 -0.1875  0.2573
 1966poe    c3110621   2.748   2.274   4.997  0.3954  0.2224 -0.1425
 1966poe     o210622   2.793   2.166   4.917 -0.3471 -0.0485 -0.2026
 1966poe    c2310623   2.820   2.206   4.784  0.6514  0.0385  0.0216
 1966poe    c2310624   2.889   2.097   4.699  0.4766 -0.3881  0.4220
 1966poe     o210625   2.825   1.972   4.690 -0.4899  0.1002  0.4259
 1966poe    c2310626   2.905   1.866   4.641  0.1202  0.7517 -0.0084
 1966poe    c2310627   2.829   1.734   4.621  0.2064  0.6561  0.2907
 1966poe     o210628   2.734   1.711   4.723 -0.0433  0.2920 -0.0176
 1966poe    c2310629   2.664   1.590   4.707 -0.3528  0.5649 -0.7514
 1966poe    c2310630   2.533   1.600   4.786  0.2555  0.3072  0.3061
 1966poe     o210631   2.496   1.735   4.768 -0.1102  0.1320 -0.2774
 1966poe    c3110632   2.360   1.773   4.770  0.0049  0.5439  0.0624
 1967poe    c3110633   0.193   5.300   2.414 -0.1335 -0.3145  0.0490
 1967poe     o210634   0.090   5.308   2.318 -0.2296 -0.0513  0.1724
 1967poe    c2310635   0.104   5.413   2.223 -0.4093 -0.0835  0.1100
 1967poe    c2310636   0.026   5.375   2.096 -0.4764 -0.3201  0.2206
 1967poe     o210637  -0.104   5.326   2.120 -0.3460 -0.5676  0.4347
 1967poe    c2310638  -0.165   5.321   1.993  0.4993 -0.4023  0.0114
 1967poe    c2310639  -0.247   5.192   2.014 -0.3603  0.0487 -0.5069
 1967poe     o210640  -0.323   5.206   2.132  0.3832 -0.6070  0.0590
 1967poe    c2310641  -0.414   5.098   2.143  0.2936 -0.5033  0.3455
 1967poe    c2310642  -0.521   5.151   2.240  0.0090  0.7178 -0.6045
 1967poe     o210643  -0.457   5.232   2.337  0.2014 -0.0814 -0.0513
 1967poe    c3110644  -0.539   5.204   2.449 -0.3738  0.6202 -0.2866
 1968poe    c3110645   1.964   3.284   0.618  0.3246 -0.1566 -0.0438
 1968poe     o210646   1.983   3.155   0.672  1.2611  0.1245  0.3245
 1968poe    c2310647   1.959   3.152   0.811  0.0262 -0.4113  0.1091
 1968poe    c2310648   1.977   3.008   0.862 -0.7961 -0.4105  0.4136
 1968poe     o210649   2.087   2.941   0.805 -0.8080 -0.0841  0.0116
 1968poe    c2310650   2.108   2.812   0.856 -0.3018 -0.2368 -0.5595
 1968poe    c2310651   2.151   2.717   0.743  0.1997 -0.4574 -0.1875
 1968poe     o210652   2.051   2.718   0.644 -0.2124  0.3125  0.2276
 1968poe    c2310653   2.054   2.599   0.568 -0.0225  0.3397  0.1909
 1968poe    c2310654   1.927   2.589   0.481  0.3343  0.1003 -0.3071
 1968poe     o210655   1.931   2.698   0.393  0.1307  0.0320 -0.4017
 1968poe    c3110656   1.865   2.668   0.272  0.4339  0.6966 -0.7383
 1969poe    c3110657   3.075   6.571   2.521  0.5658  0.1171  0.2506
 1969poe     o210658   2.946   6.557   2.574  0.6251 -0.0902  0.3422
 1969poe    c2310659   2.936   6.578   2.714  0.4401 -0.7861  0.4353
 1969poe    c2310660   2.948   6.722   2.767  0.2729 -0.5638 -0.1192
 1969poe     o210661   3.079   6.771   2.753  0.2317 -0.4889 -0.2457
 1969poe    c2310662   3.077   6.903   2.801  0.1279 -0.4958 -0.2315
 1969poe    c2310663   3.221   6.956   2.814  0.1075 -0.4469 -0.2066
 1969poe     o210664   3.307   6.894   2.907 -0.1264 -0.1428  0.2166
 1969poe    c2310665   3.428   6.959   2.937 -0.2679 -0.0139  0.5191
 1969poe    c2310666   3.544   6.869   2.985 -0.3374 -0.0815  0.5587
 1969poe     o210667   3.590   6.761   2.906 -0.1438  0.2636  0.1976
 1969poe    c3110668   3.669   6.678   2.988  0.9164  0.5675 -0.4891
 1970poe    c3110669   3.950   2.227   2.116 -0.3748 -0.2413 -0.2441
 1970poe     o210670   4.051   2.226   2.018  0.4277 -0.3427  0.5746
 1970poe    c2310671   4.169   2.272   2.079  0.0971  0.6008  0.5095
 1970poe    c2310672   4.281   2.285   1.973 -0.3680  0.0382 -0.0584
 1970poe     o210673   4.249   2.383   1.878 -0.2185  0.1267 -0.0172
 1970poe    c2310674   4.363   2.420   1.804  0.0422  0.1137  0.3762
 1970poe    c2310675   4.432   2.549   1.851  0.2709  0.2831 -0.3995
 1970poe     o210676   4.327   2.643   1.849 -0.0833 -0.1074 -0.2291
 1970poe    c2310677   4.359   2.771   1.799 -0.4439 -0.0396 -0.2936
 1970poe    c2310678   4.242   2.866   1.829 -0.1542  0.2529 -0.0797
 1970poe     o210679   4.129   2.825   1.755 -0.4215 -0.2616  0.6009
 1970poe    c3110680   4.040   2.934   1.747 -0.2701 -0.1790  0.0409
 1971poe    c3110681   1.496   0.398   5.856  0.2271 -0.7541 -0.2719
 1971poe     o210682   1.559   0.357   5.976  0.3631  0.1464 -0.0248
 1971poe    c2310683   1.473   0.358   6.087  0.4849  0.0856  0.0703
 1971poe    c2310684   1.526   0.254   6.187 -0.2971 -0.1872  0.2135
 1971poe     o210685   1.663   0.282   6.208 -0.3543  0.1254  0.1631
 1971poe    c2310686   1.712   0.191   6.304  0.2429 -0.6079 -0.8222
 1971poe    c2310687   1.865   0.172   6.313  0.2399 -0.2108  0.2468
 1971poe     o210688   1.902   0.088   6.206  0.2883  0.4189 -0.2386
 1971poe    c2310689   2.029   0.034   6.238 -0.0070 -0.3233 -0.2905
 1971poe    c2310690   2.120  -0.006   6.121  0.3937 -0.5906  0.1094
 1971poe     o210691   2.185   0.105   6.064 -0.2799 -0.0571  0.3734
 1971poe    c3110692   2.259   0.060   5.953 -0.8440 -0.4465  0.1487
 1972poe    c3110693   1.902   1.273   5.459 -0.3677 -0.1465  0.2079
 1972poe     o210694   1.872   1.273   5.597  0.3321 -0.2617  0.3619
 1972poe    c2310695   1.735   1.298   5.619  0.2175 -0.8445  0.3090
 1972poe    c2310696   1.703   1.263   5.766 -0.0607 -0.4272  0.3513
 1972poe     o210697   1.811   1.308   5.846 -0.0475  0.5215 -0.1864
 1972poe    c2310698   1.785   1.280   5.981  0.3634 -0.3048 -0.2733
 1972poe    c2310699   1.883   1.357   6.072 -0.1193 -0.3335  0.2762
 1972poe     o210700   2.015   1.321   6.040 -0.0454  0.3454 -0.1921
 1972poe    c2310701   2.095   1.397   6.128 -0.0886 -0.3178  0.4198
 1972poe    c2310702   2.246   1.393   6.100 -0.1905 -0.4644 -0.1110
 1972poe     o210703   2.286   1.462   5.983  0.2586  0.0457  0.3419
 1972poe    c3110704   2.426   1.444   5.977  0.3418  0.1974  1.5053
 1973poe    c3110705   4.057   1.100   5.935  0.4636  0.0401 -0.2885
 1973poe     o210706   4.094   1.110   6.071 -0.1034 -0.0796 -0.1220
 1973poe    c2310707   3.982   1.123   6.156 -0.0605  0.2775 -0.1179
 1973poe    c2310708   4.044   1.121   6.297 -0.0817 -0.0140 -0.1119
 1973poe     o210709   4.149   1.026   6.303 -0.3673 -0.2936  0.5046
 1973poe    c2310710   4.204   1.027   6.432 -0.0070 -0.3503  0.3529
 1973poe    c2310711   4.306   0.913   6.451 -0.1705 -0.6133 -0.3517
 1973poe     o210712   4.408   0.917   6.353 -0.7326 -0.8557 -0.9604
 1973poe    c2310713   4.514   0.831   6.387 -0.2415 -0.0548 -0.4161
 1973poe    c2310714   4.596   0.791   6.263  0.5557 -0.1333  0.1330
 1973poe     o210715   4.515   0.709   6.183  0.2796  0.4435 -0.1883
 1973poe    c3110716   4.590   0.693   6.064  0.3215  0.2800 -0.1411
 1974poe    c3110717   5.489   1.686   1.329  0.4622  0.3781  0.0040
 1974poe     o210718   5.601   1.651   1.407 -0.1662 -1.0027  0.3101
 1974poe    c2310719   5.714   1.733   1.388 -0.4810 -0.6066  0.1241
 1974poe    c2310720   5.836   1.695   1.475  0.3444  0.5897 -0.4777
 1974poe     o210721   5.818   1.720   1.612  0.2183  0.0925 -0.4025
 1974poe    c2310722   5.929   1.676   1.687  0.1037 -0.0601 -0.3188
 1974poe    c2310723   5.881   1.683   1.832 -0.0716 -0.2445 -0.3689
 1974poe     o210724   5.772   1.593   1.842 -0.3395  0.1394  0.3023
 1974poe    c2310725   5.724   1.577   1.973 -0.0969  0.1636  0.3944
 1974poe    c2310726   5.578   1.532   1.958  0.1205 -0.2306 -0.5717
 1974poe     o210727   5.504   1.611   1.868 -0.4684 -0.2662 -0.1276
 1974poe    c3110728   5.367   1.580   1.864 -0.4885 -0.2257  0.1963
 1975poe    c3110729   2.243   3.728   6.393 -0.4866 -0.2992 -0.1133
 1975poe     o210730   2.198   3.730   6.526 -0.1285  0.6064  0.0031
 1975poe    c2310731   2.161   3.595   6.546  0.2796  0.5344  0.2832
 1975poe    c2310732   2.071   3.600   6.671 -0.2410  0.7494 -0.0971
 1975poe     o210733   2.122   3.695   6.762  0.0014  0.5162  0.0118
 1975poe    c2310734   2.026   3.734   6.858 -0.1625 -0.3360  0.2056
 1975poe    c2310735   2.101   3.830   6.952 -0.3260  0.1466 -0.1562
 1975poe     o210736   2.162   3.928   6.871 -0.0519  0.3111  0.2474
 1975poe    c2310737   2.194   4.047   6.941  0.6696  0.1711  0.1663
 1975poe    c2310738   2.276   4.141   6.851  0.5043  0.2884  0.1382
 1975poe     o210739   2.219   4.189   6.731 -0.1930  0.0957  0.3865
 1975poe    c3110740   2.302   4.292   6.682 -0.2283  0.0031  0.1325
 1976poe    c3110741   2.937   0.880   6.143  0.3042  0.0168 -0.1179
 1976poe     o210742   2.893   1.006   6.188 -0.5387 -0.3400  0.0653
 1976poe    c2310743   2.846   1.073   6.073 -0.2150 -0.1999  0.0146
 1976poe    c2310744   2.782   1.209   6.106  0.3179 -0.0207  0.3155
 1976poe     o210745   2.888   1.287   6.157  0.3739 -0.1861  0.4575
 1976poe    c2310746   2.857   1.418   6.199 -0.1627 -0.2436  0.2428
 1976poe    c2310747   2.982   1.499   6.236  0.0100 -0.4664  0.1468
 1976poe     o210748   3.047   1.407   6.321 -0.2364 -0.1043  0.7322
 1976poe    c2310749   3.170   1.463   6.363  0.0501 -0.4426  0.3575
 1976poe    c2310750   3.237   1.385   6.478  0.6287 -0.3122  0.1105
 1976poe     o210751   3.259   1.250   6.444 -0.3699 -0.3339 -0.4999
 1976poe    c3110752   3.291   1.181   6.563 -0.6338  0.2030 -0.1153
 1977poe    c3110753   6.772   0.839   2.914  0.4225  0.4766  0.0890
 1977poe     o210754   6.719   0.957   2.858  0.3052  0.5194  0.2893
 1977poe    c2310755   6.579   0.962   2.847  0.3437 -0.1961 -0.6810
 1977poe    c2310756   6.534   1.094   2.782 -0.2680  0.2420  0.6007
 1977poe     o210757   6.580   1.115   2.651 -0.1688  0.1748  0.6253
 1977poe    c2310758   6.497   1.210   2.589  0.3532  0.2699  0.0568
 1977poe    c2310759   6.540   1.211   2.441  0.2825  0.7858  0.0348
 1977poe     o210760   6.681   1.224   2.446  0.3611 -0.0877  0.3254
 1977poe    c2310761   6.738   1.240   2.319 -0.5790 -0.0662 -0.1014
 1977poe    c2310762   6.889   1.257   2.342 -0.5508 -0.3006 -0.1176
 1977poe     o210763   6.918   1.190   2.462 -0.0382 -0.3251 -0.2513
 1977poe    c3110764   7.054   1.153   2.472 -0.1072 -0.5167 -0.0080
 1978poe    c3110765   3.823   1.745   1.861 -0.0821  0.1374 -0.1229
 1978poe     o210766   3.918   1.844   1.893 -0.0345  0.1143 -0.1905
 1978poe    c2310767   4.034   1.788   1.951 -0.2132  0.1034  0.1591
 1978poe    c2310768   4.149   1.738   1.863  0.2003  0.4786  0.4819
 1978poe     o210769   4.169   1.838   1.766  0.0714  0.1435  0.1040
 1978poe    c2310770   4.280   1.813   1.683 -0.3323 -0.5337 -0.2394
 1978poe    c2310771   4.328   1.944   1.617  0.2151 -0.5956  0.0255
 1978poe     o210772   4.243   1.987   1.513  0.7915  0.0346 -0.1868
 1978poe    c2310773   4.301   2.111   1.478  0.2814  0.1781 -0.5456
 1978poe    c2310774   4.218   2.212   1.398  0.5809  0.9937  0.1546
 1978poe     o210775   4.109   2.253   1.477  0.0237  0.2734 -0.2246
 1978poe    c3110776   4.008   2.304   1.392 -0.1790  0.3171  0.0395
 1979poe    c3110777   0.001   0.331   0.945  0.3621 -0.2816  0.1670
 1979poe     o210778  -0.002   0.190   0.950 -0.1310 -0.2770  0.0612
 1979poe    c2310779  -0.068   0.135   0.838 -0.2763 -0.4282  0.2216
 1979poe    c2310780  -0.109  -0.013   0.846 -0.8044 -0.3172 -0.3973
 1979poe     o210781  -0.010  -0.099   0.794 -0.3408  0.1641 -0.3119
 1979poe    c2310782  -0.054  -0.233   0.789 -0.1231  0.0766  0.0676
 1979poe    c2310783  -0.017  -0.326   0.906  0.4126  0.1550 -0.0344
 1979poe     o210784   0.120  -0.357   0.907  0.3295 -0.2154 -0.2845
 1979poe    c2310785   0.156  -0.427   1.024  0.4151 -0.4090 -0.4259
 1979poe    c2310786   0.103  -0.569   1.055  0.2984 -0.2868 -0.0637
 1979poe     o210787  -0.031  -0.561   1.096  0.2734  0.2684 -0.2331
 1979poe    c3110788  -0.080  -0.686   1.141 -0.1961  0.7274  0.5572
 1980poe    c3110789   3.630   2.687   6.562 -0.5228  0.1898  0.0527
 1980poe     o210790   3.538   2.788   6.598 -0.2590  0.3598  0.2468
 1980poe    c2310791   3.441   2.748   6.692 -0.3818  0.1069  0.0133
 1980poe    c2310792   3.296   2.792   6.669 -0.6835 -0.9077 -0.0752
 1980poe     o210793   3.300   2.932   6.652  0.0218 -0.8512  0.5039
 1980poe    c2310794   3.181   2.987   6.600  0.5787 -0.2144 -0.1143
 1980poe    c2310795   3.177   3.140   6.584 -0.0624 -0.2879 -0.7075
 1980poe     o210796   3.280   3.175   6.495  0.4202  0.7977  0.2546
 1980poe    c2310797   3.217   3.228   6.380  0.1833 -0.2518 -0.1077
 1980poe    c2310798   3.300   3.243   6.251 -0.0621 -0.2105 -0.2610
 1980poe     o210799   3.354   3.117   6.220  0.1376 -0.0966 -0.3800
 1980poe    c3110800   3.377   3.087   6.084  0.4311  0.2031 -0.3953
 1981poe    c3110801   5.326   0.409   3.095 -0.1711 -0.5470 -0.1758
 1981poe     o210802   5.419   0.305   3.116  0.1498 -0.1861  0.2099
 1981poe    c2310803   5.378   0.184   3.056 -0.4574  0.1946 -0.1524
 1981poe    c2310804   5.473   0.077   3.112 -0.2304  0.5756  0.1937
 1981poe     o210805   5.604   0.129   3.119 -0.0784  0.2625 -0.2916
 1981poe    c2310806   5.702   0.032   3.148 -0.1023  0.3569  0.1188
 1981poe    c2310807   5.825   0.123   3.164  0.4227 -0.2877 -0.2158
 1981poe     o210808   5.801   0.243   3.233  0.2199 -0.1264 -0.5617
 1981poe    c2310809   5.916   0.323   3.251 -0.1038  0.1722  0.2621
 1981poe    c2310810   5.910   0.381   3.393 -0.0155 -0.3269  0.4726
 1981poe     o210811   5.815   0.484   3.401  0.1050 -0.1277 -0.5598
 1981poe    c3110812   5.876   0.611   3.391  0.2043 -0.0726  0.5635
 1982poe    c3110813   2.932   0.664   4.780 -0.2349 -0.1263 -0.3089
 1982poe     o210814   2.817   0.657   4.861  0.1794 -0.2138  0.2834
 1982poe    c2310815   2.797   0.524   4.903  0.2849 -0.2714  0.1547
 1982poe    c2310816   2.689   0.519   5.013 -0.2050  1.0457 -0.2518
 1982poe     o210817   2.726   0.622   5.102  0.9600 -0.0372  0.5459
 1982poe    c2310818   2.631   0.616   5.206 -0.2484  0.2407 -0.5167
 1982poe    c2310819   2.652   0.734   5.303  0.5344 -0.3450  0.0393
 1982poe     o210820   2.674   0.846   5.220  0.2948  0.1332  0.6170
 1982poe    c2310821   2.712   0.967   5.283  0.6255  0.1365  0.4111
 1982poe    c2310822   2.770   1.068   5.183 -0.2000  0.3034  0.0928
 1982poe     o210823   2.681   1.146   5.107  0.3415  0.3104 -0.5391
 1982poe    c3110824   2.762   1.245   5.046  0.5671  0.5994  0.2248
 1983poe    c3110825   6.961   4.885   6.113 -0.0077 -0.0483  0.0038
 1983poe     o210826   6.828   4.924   6.084  0.0418  0.0798 -0.0521
 1983poe    c2310827   6.727   4.871   6.167  0.0184  0.2045  0.0006
 1983poe    c2310828   6.593   4.940   6.137  0.0199  0.2646  0.1341
 1983poe     o210829   6.626   5.077   6.142  0.3541  0.1702  0.5993
 1983poe    c2310830   6.524   5.157   6.087 -0.4099 -0.1940  1.4622
 1983poe    c2310831   6.545   5.303   6.131  0.2723  0.1404  0.0996
 1983poe     o210832   6.666   5.343   6.070  0.2798 -0.4427 -0.2676
 1983poe    c2310833   6.710   5.472   6.104 -0.4621 -0.1853 -0.2577
 1983poe    c2310834   6.652   5.604   6.051  0.3540  0.4121  0.3043
 1983poe     o210835   6.523   5.620   6.106  0.1922 -0.3871  0.1624
 1983poe    c3110836   6.480   5.748   6.065 -0.2525 -0.3826  0.6391
 1984poe    c3110837   0.861   3.934   3.700 -0.3649 -0.1085 -0.3378
 1984poe     o210838   0.827   3.797   3.694 -0.7153 -0.0558  0.3112
 1984poe    c2310839   0.907   3.736   3.793 -0.7828  0.3935  0.6466
 1984poe    c2310840   0.884   3.584   3.789  0.0997  0.2673 -0.1849
 1984poe     o210841   0.908   3.524   3.664 -0.3967 -0.2379 -0.0417
 1984poe    c2310842   0.950   3.389   3.668 -0.4477 -0.2544 -0.0644
 1984poe    c2310843   1.015   3.347   3.535  0.4710  0.2705  0.2092
 1984poe     o210844   0.951   3.382   3.415  0.1483  0.0807  0.3229
 1984poe    c2310845   0.824   3.325   3.391  0.2566  0.0938 -0.3025
 1984poe    c2310846   0.769   3.377   3.257 -0.0182  0.1927 -0.1524
 1984poe     o210847   0.783   3.517   3.247  0.7583  0.1230 -0.0963
 1984poe    c3110848   0.705   3.559   3.138  0.0580  0.2998  0.4688
 1985poe    c3110849   5.810   0.380   1.641 -0.5525 -0.6899 -0.0839
 1985poe     o210850   5.686   0.438   1.607 -0.3149 -0.3190 -0.3337
 1985poe    c2310851   5.609   0.497   1.709  0.2285 -0.5272  0.2070
 1985poe    c2310852   5.472   0.432   1.737 -0.1067  0.3545  0.6715
 1985poe     o210853   5.480   0.294   1.765  0.4798  0.2482  0.0221
 1985poe    c2310854   5.414   0.249   1.882  0.0074 -0.0856 -0.3651
 1985poe    c2310855   5.501   0.264   2.008  0.2970 -0.0292 -0.5702
 1985poe     o210856   5.613   0.181   2.031  0.2854  0.0476 -0.2341
 1985poe    c2310857   5.716   0.203   1.938  0.0037  0.1222 -0.5316
 1985poe    c2310858   5.837   0.108   1.955 -0.0137  0.1340 -0.3379
 1985poe     o210859   5.889   0.125   2.085  0.0993 -0.5017 -0.2983
 1985poe    c3110860   5.933   0.005   2.144  0.2790 -0.2918 -0.0074
 1986poe    c3110861   1.131   6.801   6.786 -0.5248 -0.1323  0.1224
 1986poe     o210862   1.261   6.848   6.813 -0.4634 -0.1488 -0.1356
 1986poe    c2310863   1.279   6.963   6.734  0.1445  0.2176  0.5252
 1986poe    c2310864   1.398   6.952   6.637 -0.4820  0.4624 -0.2824
 1986poe     o210865   1.382   6.829   6.569  0.0546  0.3345 -0.1808
 1986poe    c2310866   1.420   6.843   6.434 -0.0000 -0.4066 -0.2782
 1986poe    c2310867   1.397   6.709   6.361 -0.0140 -0.6365  0.1449
 1986poe     o210868   1.265   6.660   6.363 -0.1092 -0.3798  0.2777
 1986poe    c2310869   1.260   6.545   6.444 -0.1022 -0.5294  0.0671
 1986poe    c2310870   1.124   6.478   6.473 -0.1853 -0.3695  0.0496
 1986poe     o210871   1.046   6.545   6.569  0.1411 -0.6635  0.5245
 1986poe    c3110872   0.952   6.459   6.628  0.2193 -0.6300  0.6971
 1987poe    c3110873   4.851   3.493   0.652 -0.6806 -0.8467  0.2551
 1987poe     o210874   4.736   3.572   0.674 -0.1351  0.2519 -0.7564
 1987poe    c2310875   4.623   3.506   0.727 -0.1018  0.6454 -0.1838
 1987poe    c2310876   4.504   3.601   0.746 -0.2488  0.5581 -0.6569
 1987poe     o210877   4.533   3.712   0.827 -0.1213  0.5969 -0.7558
 1987poe    c2310878   4.421   3.790   0.864 -0.4630 -0.2488  0.0235
 1987poe    c2310879   4.460   3.886   0.978 -0.1321  0.4545 -0.6693
 1987poe     o210880   4.578   3.956   0.945  0.2890  0.1074  0.0774
 1987poe    c2310881   4.638   4.022   1.054 -0.4623  0.9664 -0.0141
 1987poe    c2310882   4.774   4.074   1.004 -0.2172  0.4123  0.0671
 1987poe     o210883   4.853   3.972   0.947  0.1118  0.6012  0.1779
 1987poe    c3110884   4.982   4.015   0.910  0.2155 -0.1687 -0.3900
 1988poe    c3110885   0.431   1.171   2.457  0.2088 -0.2877 -0.2617
 1988poe     o210886   0.519   1.064   2.432  0.6095  0.0083 -0.1264
 1988poe    c2310887   0.455   0.954   2.372  0.0856  0.1142  0.2381
 1988poe    c2310888   0.553   0.837   2.353 -0.0570 -0.0080  0.2519
 1988poe     o210889   0.634   0.846   2.468 -0.0569 -0.0222  0.2530
 1988poe    c2310890   0.711   0.729   2.490  0.2150 -0.0270 -0.6980
 1988poe    c2310891   0.831   0.757   2.581  0.4441 -1.0013 -0.6953
 1988poe     o210892   0.900   0.870   2.532 -0.0004 -0.3370  0.1918
 1988poe    c2310893   1.013   0.897   2.611  0.2344  0.2711 -0.3463
 1988poe    c2310894   1.113   0.987   2.536 -0.0243  0.1663 -0.8174
 1988poe     o210895   1.046   1.107   2.504 -0.1199  0.4159  0.3068
 1988poe    c3110896   1.138   1.191   2.439  0.1992  0.0552  0.2838
 1989poe    c3110897   4.712   5.904   4.463  0.1199 -0.2409  0.1953
 1989poe     o210898   4.657   5.961   4.346 -0.2028  0.4724  0.6898
 1989poe    c2310899   4.526   6.008   4.365 -0.3085  0.2939  0.3960
 1989poe    c2310900   4.461   6.058   4.235  0.3730 -0.2716 -0.1688
 1989poe     o210901   4.515   6.173   4.174  0.4404 -0.2243 -0.0189
 1989poe    c2310902   4.456   6.213   4.052  0.4088  0.1083  0.1051
 1989poe    c2310903   4.508   6.354   4.016  0.0135  0.2940  0.2668
 1989poe     o210904   4.648   6.351   4.031  0.0993  0.4014 -0.4779
 1989poe    c2310905   4.700   6.463   3.964  0.2263  0.3086 -0.5340
 1989poe    c2310906   4.854   6.454   3.962  0.2565  0.6972 -0.0402
 1989poe     o210907   4.891   6.401   4.087 -0.1913 -0.0116 -0.2076
 1989poe    c3110908   5.029   6.417   4.107 -0.2754  0.2354  0.1823
 1990poe    c3110909   5.947   2.968   4.529  0.0438  0.1513  0.0216
 1990poe     o210910   5.887   2.934   4.652 -0.1335 -0.3898 -0.2136
 1990poe    c2310911   5.919   2.801   4.686  0.1316 -0.3111 -0.1545
 1990poe    c2310912   5.896   2.787   4.837 -0.3516  0.3458 -0.1638
 1990poe     o210913   5.777   2.853   4.875 -0.2423  0.2512  0.3512
 1990poe    c2310914   5.775   2.848   5.016 -0.0275  0.1960  0.3533
 1990poe    c2310915   5.663   2.931   5.081 -0.3627  0.2597 -0.2952
 1990poe     o210916   5.646   3.041   4.995 -0.2806  0.1269 -0.4832
 1990poe    c2310917   5.513   3.089   5.007 -0.3180  0.0256 -0.4954
 1990poe    c2310918   5.496   3.213   4.918  0.7395 -0.0211 -0.7810
 1990poe     o210919   5.524   3.340   4.972  0.1616 -0.3323  0.2888
 1990poe    c3110920   5.559   3.439   4.878 -0.3835 -0.4452 -0.0393
 1991poe    c3110921   0.692   2.370   1.530  0.3456 -0.1274 -0.4279
 1991poe     o210922   0.565   2.429   1.520  0.4750  0.1425 -0.4924
 1991poe    c2310923   0.478   2.371   1.425 -0.5066 -0.4613  0.7390
 1991poe    c2310924   0.336   2.420   1.459 -0.7045 -0.0696 -0.5995
 1991poe     o210925   0.302   2.383   1.591 -0.5375  0.0164 -0.5325
 1991poe    c2310926   0.167   2.408   1.621 -0.1846  0.7979  0.4789
 1991poe    c2310927   0.119   2.331   1.745 -0.0779  0.0111  0.0361
 1991poe     o210928   0.189   2.386   1.855 -0.1309 -0.3037  0.2290
 1991poe    c2310929   0.110   2.342   1.963  0.1305 -0.6212  0.2899
 1991poe    c2310930   0.169   2.389   2.097 -0.0435 -0.3734  0.2801
 1991poe     o210931   0.306   2.424   2.089 -0.0940 -0.2703 -0.1401
 1991poe    c3110932   0.348   2.503   2.198 -0.3084 -0.3852  0.0261
 1992poe    c3110933   2.799   0.228   1.401 -0.0762 -0.1647 -0.1542
 1992poe     o210934   2.840   0.334   1.318 -0.1821  0.0121  0.0189
 1992poe    c2310935   2.818   0.452   1.391 -0.0259 -0.2427  0.4836
 1992poe    c2310936   2.766   0.545   1.280  0.0419 -0.6228  0.1322
 1992poe     o210937   2.850   0.536   1.167  0.2584 -0.4362  0.2752
 1992poe    c2310938   2.817   0.623   1.061  0.1757 -0.9142 -0.0972
 1992poe    c2310939   2.936   0.622   0.963  0.0463  0.1041 -0.2812
 1992poe     o210940   2.961   0.486   0.936  0.6213  0.1265  0.1230
 1992poe    c2310941   3.041   0.463   0.823  0.3806  0.4777 -0.1188
 1992poe    c2310942   3.063   0.313   0.793  0.2932  0.3119  0.6401
 1992poe     o210943   3.073   0.225   0.903 -0.4241 -0.4104  0.1345
 1992poe    c3110944   3.073   0.093   0.854 -0.1348 -0.5012  0.3790
 1993poe    c3110945   6.233   6.683   6.100 -0.5702 -0.3200  0.6245
 1993poe     o210946   6.303   6.695   6.222 -0.0669  0.0327  0.3058
 1993poe    c2310947   6.425   6.761   6.196 -0.6102  0.5552 -0.9855
 1993poe    c2310948   6.456   6.883   6.284 -1.2050  0.0429 -0.0503
 1993poe     o210949   6.515   6.852   6.408 -0.1642  0.5975 -0.3964
 1993poe    c2310950   6.505   6.963   6.495 -0.1264  0.0882  0.2698
 1993poe    c2310951   6.585   6.942   6.624  0.2265 -0.1103  0.0214
 1993poe     o210952   6.533   6.836   6.701  0.3193 -0.3114 -0.1932
 1993poe    c2310953   6.608   6.799   6.815  0.1640 -0.8396 -0.2611
 1993poe    c2310954   6.551   6.829   6.955 -0.3614  0.2719 -0.7012
 1993poe     o210955   6.441   6.744   6.980  0.1388 -0.0584  0.4059
 1993poe    c3110956   6.477   6.643   7.072 -0.6006 -0.4355  0.2918
 1994poe    c3110957   3.601   1.851   3.102  0.8055 -0.1993  0.1311
 1994poe     o210958   3.690   1.961   3.107  0.1396  0.3544  0.0645
 1994poe    c2310959   3.808   1.934   3.035 -0.1559 -0.1511 -0.2367
 1994poe    c2310960   3.886   2.066   3.035  0.3207 -0.4288 -0.1527
 1994poe     o210961   3.894   2.111   3.168  0.0744 -0.0822 -0.2529
 1994poe    c2310962   3.950   2.240   3.159  0.0023 -0.0214  0.1281
 1994poe    c2310963   4.001   2.285   3.297 -0.1106  0.0634  0.1427
 1994poe     o210964   3.886   2.295   3.377 -0.4362  0.4799 -0.3762
 1994poe    c2310965   3.906   2.327   3.513  0.1096 -0.7082 -0.1661
 1994poe    c2310966   3.783   2.390   3.581  0.4832 -0.2527  0.0910
 1994poe     o210967   3.667   2.310   3.582 -0.0649  0.5412  0.0787
 1994poe    c3110968   3.570   2.389   3.649  0.2716  0.7287  0.3453
 1995poe    c3110969   4.573   3.381   4.666 -0.5116 -0.2087 -0.3460
 1995poe     o210970   4.504   3.302   4.761 -0.0796 -0.2939 -0.1010
 1995poe    c2310971   4.541   3.332   4.893 -0.2002  0.1814 -0.1760
 1995poe    c2310972   4.441   3.266   4.989  0.3223 -0.1841  0.1217
 1995poe     o210973   4.450   3.129   4.955  0.5108 -0.0469 -0.3858
 1995poe    c2310974   4.384   3.030   5.031 -0.1438  0.3070 -0.4803
 1995poe    c2310975   4.458   2.902   4.988 -0.0463  0.1941  0.0225
 1995poe     o210976   4.595   2.888   5.020 -0.0520  0.1771  0.0395
 1995poe    c2310977   4.644   2.757   5.000  0.0223  0.3151 -0.7049
 1995poe    c2310978   4.793   2.747   5.037 -0.0816  0.2058 -0.3052
 1995poe     o210979   4.889   2.775   4.937  0.2310  0.2640  0.0118
 1995poe    c3110980   5.010   2.726   4.991  0.0622 -0.3343 -0.1507
 1996poe    c3110981   5.777   4.476   4.892  0.4003 -0.3116  0.0903
 1996poe     o210982   5.660   4.432   4.957 -0.2591  0.9520 -0.2034
 1996poe    c2310983   5.690   4.372   5.081 -0.6729  0.5853 -0.2816
 1996poe    c2310984   5.558   4.312   5.135  0.0005  0.0873  0.8482
 1996poe     o210985   5.446   4.397   5.123  0.5172  0.7714  0.7937
 1996poe    c2310986   5.347   4.369   5.219  0.4396 -0.2970  0.4231
 1996poe    c2310987   5.219   4.445   5.179  0.2801 -0.5958  0.3675
 1996poe     o210988   5.212   4.585   5.194  0.2721 -0.5165 -0.3491
 1996poe    c2310989   5.136   4.650   5.094  0.4124 -0.0378 -0.1454
 1996poe    c2310990   5.169   4.801   5.095  0.2671 -0.0085  0.4980
 1996poe     o210991   5.308   4.822   5.081  0.2239 -0.2196 -0.2696
 1996poe    c3110992   5.329   4.961   5.062 -0.2794 -0.0165  0.6166
 1997poe    c3110993   6.191   6.770   2.818  0.1084 -0.5249 -0.6271
 1997poe     o210994   6.181   6.909   2.797  0.0818 -0.2964  0.8093
 1997poe    c2310995   6.076   6.971   2.868  0.1732  0.0845  0.6182
 1997poe    c2310996   6.022   7.108   2.823 -0.0685 -0.4494 -0.7615
 1997poe     o210997   6.112   7.215   2.834 -0.3695 -0.2411 -0.2546
 1997poe    c2310998   6.073   7.319   2.746  0.4156  0.0195 -0.3049
 1997poe    c2310999   6.188   7.398   2.681  0.0100  0.7348 -0.1624
 1997poe     o211000   6.255   7.331   2.576 -0.3577  0.2237 -0.0746
 1997poe    c2311001   6.369   7.393   2.523 -0.5829  0.6289 -0.0916
 1997poe    c2311002   6.427   7.315   2.403 -0.9444  0.2689 -0.0316
 1997poe     o211003   6.376   7.184   2.398 -0.5355  0.1102 -0.0279
 1997poe    c3111004   6.435   7.110   2.293 -0.4750  0.3025 -0.1290
 1998poe    c3111005   1.753   0.100   3.303 -0.1237 -0.4118  0.1103
 1998poe     o211006   1.831   0.034   3.205 -0.3357  0.1591 -0.4532
 1998poe    c2311007   1.877  -0.091   3.251 -0.2009  0.4231  0.1468
 1998poe    c2311008   1.972  -0.171   3.160 -0.3189 -0.1761  0.5413
 1998poe     o211009   2.061  -0.265   3.215  0.2610  0.1243  0.1328
 1998poe    c2311010   2.010  -0.395   3.193  0.3862  0.1058 -0.0518
 1998poe    c2311011   2.100  -0.491   3.273  0.2342  0.3805  0.4488
 1998poe     o211012   2.235  -0.467   3.241  0.0815  0.6339 -0.0156
 1998poe    c2311013   2.310  -0.555   3.323 -0.1764 -0.0497 -0.4999
 1998poe    c2311014   2.453  -0.522   3.274 -0.1079 -0.0114 -0.2743
 1998poe     o211015   2.471  -0.383   3.277  0.1565 -0.0503  0.0024
 1998poe    c3111016   2.599  -0.337   3.239  0.0909  0.0773 -0.0665
 1999poe    c3111017   5.774   0.241   5.891 -0.0194 -0.0085 -0.0013
 1999poe     o211018   5.700   0.362   5.883 -0.7978 -0.4622  0.1885
 1999poe    c2311019   5.632   0.356   5.760 -0.3357 -0.2582 -0.0794
 1999poe    c2311020   5.536   0.475   5.748  0.1896  0.1870  0.0987
 1999poe     o211021   5.473   0.464   5.874  0.1297 -0.2389  0.0323
 1999poe    c2311022   5.342   0.514   5.858 -0.0241 -0.6614 -0.0403
 1999poe    c2311023   5.258   0.528   5.987  0.8359 -0.7057  0.5363
 1999poe     o211024   5.310   0.628   6.072 -0.1198  0.2264  0.0621
 1999poe    c2311025   5.311   0.595   6.209 -0.2858  0.4005  0.1037
 1999poe    c2311026   5.405   0.687   6.289  0.3569  0.6279 -0.8912
 1999poe     o211027   5.543   0.657   6.288  0.2095 -0.2068  0.4558
 1999poe    c3111028   5.605   0.689   6.410 -0.5724 -0.1981  0.8595
 2000poe    c3111029   2.753   4.019   6.189  0.5117 -0.9530  1.0001
 2000poe     o211030   2.639   4.082   6.243  0.0234 -0.3886 -0.6190
 2000poe    c2311031   2.553   3.997   6.315 -0.1439  0.3326  0.0463
 2000poe    c2311032   2.421   4.051   6.373 -0.1866  0.2530  0.0233
 2000poe     o211033   2.331   4.071   6.266 -0.1083 -0.1716 -0.1214
 2000poe    c2311034   2.203   4.115   6.306 -0.1913 -0.3777 -0.1587
 2000poe    c2311035   2.097   4.101   6.195  0.0517  0.1550 -0.4638
 2000poe     o211036   2.123   4.197   6.096  0.0882  0.3260 -0.2908
 2000poe    c2311037   2.046   4.191   5.978  0.0995  0.4573 -0.3050
 2000poe    c2311038   2.076   4.317   5.894  0.1059  0.5184 -0.2109
 2000poe     o211039   2.017   4.437   5.938  0.1949  0.3127  0.4779
 2000poe    c3111040   2.029   4.536   5.839  0.7631 -0.2190  0.0079
 2001poe    c3111041   5.480   2.534   0.786 -0.6924 -0.2983  0.0032
 2001poe     o211042   5.481   2.553   0.646 -0.4345 -0.1630  0.0215
 2001poe    c2311043   5.482   2.692   0.625 -0.7700 -0.1514  0.0757
 2001poe    c2311044   5.481   2.723   0.474  0.2137  0.0983  0.1163
 2001poe     o211045   5.604   2.685   0.416 -0.1313 -0.6000 -0.1731
 2001poe    c2311046   5.606   2.685   0.275  0.4191 -0.1871 -0.1718
 2001poe    c2311047   5.514   2.596   0.190  0.1695  0.1101 -0.2156
 2001poe     o211048   5.518   2.461   0.231 -0.5134  0.2609  0.3766
 2001poe    c2311049   5.502   2.371   0.123 -0.4917  1.0284 -0.2710
 2001poe    c2311050   5.361   2.325   0.081 -0.1263  0.1155 -0.5161
 2001poe     o211051   5.293   2.262   0.187 -0.1124  0.3557 -0.3644
 2001poe    c3111052   5.153   2.260   0.174 -0.1471  0.2183  0.0024
 2002poe    c3111053   0.806   2.976   4.586 -0.3025  0.0926 -0.8269
 2002poe     o211054   0.679   3.003   4.531 -0.5358  1.0022  0.1252
 2002poe    c2311055   0.620   2.875   4.532  0.4960  0.5119 -0.6400
 2002poe    c2311056   0.473   2.877   4.488  0.3603 -0.0911 -0.2271
 2002poe     o211057   0.435   2.934   4.365  0.5660 -0.3902 -0.4315
 2002poe    c2311058   0.353   2.852   4.285  0.0114 -0.1052 -0.1571
 2002poe    c2311059   0.319   2.922   4.152  0.3817  0.1090 -0.1408
 2002poe     o211060   0.277   3.053   4.182  0.2792 -0.0362  0.3659
 2002poe    c2311061   0.255   3.133   4.068 -0.1590  0.2771  0.6645
 2002poe    c2311062   0.260   3.280   4.114 -0.2451  0.3327  0.4985
 2002poe     o211063   0.369   3.281   4.203  0.1628  0.2934  0.0064
 2002poe    c3111064   0.409   3.414   4.228 -0.0484  0.3667 -0.0451
 2003poe    c3111065   0.095   6.474   5.054  0.7064 -0.2188 -0.1574
 2003poe     o211066   0.012   6.393   4.972  0.2203  0.0358  0.0765
 2003poe    c2311067  -0.126   6.409   4.991  0.2714  0.0431  0.4549
 2003poe    c2311068  -0.217   6.310   4.915  0.0888  0.2623  0.3853
 2003poe     o211069  -0.205   6.183   4.976 -0.3696  0.1955  0.3368
 2003poe    c2311070  -0.262   6.082   4.896 -0.0037  0.3740 -0.1544
 2003poe    c2311071  -0.376   6.002   4.961  0.1881  0.3888  0.2014
 2003poe     o211072  -0.328   5.907   5.054  0.6019  0.0415 -0.3616
 2003poe    c2311073  -0.267   5.797   4.991  0.7429  0.0820 -0.2979
 2003poe    c2311074  -0.214   5.707   5.104  0.5017  0.2334 -0.0636
 2003poe     o211075  -0.175   5.786   5.214 -0.3871  0.3836  0.1553
 2003poe    c3111076  -0.107   5.705   5.307  0.4404  0.1227 -0.6677
 2004poe    c3111077   4.645   3.908   3.692  0.5293 -0.2197 -0.3323
 2004poe     o211078   4.520   3.864   3.642  0.3867 -0.4071  0.1857
 2004poe    c2311079   4.470   3.963   3.555 -0.2504 -0.7240  0.1825
 2004poe    c2311080   4.326   3.929   3.515 -0.2557 -0.5866  0.0832
 2004poe     o211081   4.245   3.920   3.630  0.1479 -0.3834  0.3828
 2004poe    c2311082   4.112   3.900   3.590  0.1943 -0.0011  0.0333
 2004poe    c2311083   4.007   3.876   3.700 -0.4075  0.2281 -0.4853
 2004poe     o211084   4.017   3.742   3.743 -0.1676  0.3953 -0.0054
 2004poe    c2311085   3.918   3.712   3.839  0.1385 -0.1734  0.1379
 2004poe    c2311086   3.874   3.565   3.854  0.7966 -0.3901 -0.0265
 2004poe     o211087   3.786   3.527   3.750 -0.0749  0.0956  0.5234
 2004poe    c3111088   3.757   3.390   3.769 -0.7721  0.0363 -0.8964
 2005poe    c3111089   2.569   6.770   3.646  1.0299 -1.0058 -0.0253
 2005poe     o211090   2.632   6.812   3.766  0.4107  0.1688 -0.0912
 2005poe    c2311091   2.604   6.949   3.779 -0.3209  0.0262 -0.1023
 2005poe    c2311092   2.652   6.990   3.920  0.0133 -0.0266 -0.1999
 2005poe     o211093   2.791   7.007   3.932  0.0278 -0.1579 -0.1805
 2005poe    c2311094   2.816   7.114   4.020 -0.2067 -0.0431 -0.2541
 2005poe    c2311095   2.969   7.131   4.024 -0.2118  0.0067 -0.2522
 2005poe     o211096   3.046   7.025   4.076  0.2871  0.3992 -0.1852
 2005poe    c2311097   3.093   6.958   3.961 -0.1266 -0.5842  0.2078
 2005poe    c2311098   3.194   6.850   4.006  0.1702 -0.5615 -0.3976
 2005poe     o211099   3.279   6.824   3.897  0.6842 -0.3157 -0.0633
 2005poe    c3111100   3.308   6.686   3.890 -0.4060 -0.5546 -0.1038
 2006poe    c3111101   5.877   6.610   6.303 -0.2329  0.3084  0.0827
 2006poe     o211102   5.760   6.541   6.268  0.2006 -0.3877 -0.0038
 2006poe    c2311103   5.676   6.647   6.230  0.3425 -0.2208  0.1461
 2006poe    c2311104   5.552   6.566   6.186  0.1782 -0.0240  0.2467
 2006poe     o211105   5.531   6.479   6.295 -0.2900  0.0489  0.2180
 2006poe    c2311106   5.418   6.404   6.257 -0.2225 -0.0679  0.2487
 2006poe    c2311107   5.409   6.292   6.362 -0.3791 -0.2574  0.0335
 2006poe     o211108   5.536   6.232   6.374 -0.3274 -0.1505  0.0205
 2006poe    c2311109   5.523   6.115   6.452 -0.1822 -0.2746 -0.1431
 2006poe    c2311110   5.661   6.047   6.447 -0.1468 -0.2257  0.1584
 2006poe     o211111   5.752   6.142   6.496 -0.4253 -0.0071  0.2563
 2006poe    c3111112   5.879   6.080   6.501 -0.2276  0.3197 -0.4818
 2007poe    c3111113   0.101   2.067   0.286 -0.3917 -0.0417  0.4148
 2007poe     o211114   0.093   1.945   0.217 -0.2009  0.1575  0.0360
 2007poe    c2311115   0.224   1.917   0.174 -0.4347  0.3000 -0.7951
 2007poe    c2311116   0.225   1.796   0.078  0.1801  0.2852 -0.7753
 2007poe     o211117   0.124   1.705   0.114 -0.0175  0.7811 -0.0390
 2007poe    c2311118   0.112   1.594   0.027 -0.0473  0.6394  0.1460
 2007poe    c2311119   0.047   1.487   0.117  0.2706  0.1142 -0.2458
 2007poe     o211120  -0.058   1.556   0.180  0.1306 -1.0484  0.8488
 2007poe    c2311121  -0.139   1.468   0.255 -0.7038 -0.2775  0.8760
 2007poe    c2311122  -0.269   1.429   0.183 -0.3454  0.4464 -0.1914
 2007poe     o211123  -0.249   1.351   0.067  0.2127  0.3633 -0.0417
 2007poe    c3111124  -0.375   1.311   0.017  0.3269 -0.0245 -0.0218
 2008poe    c3111125   2.156   0.368   6.579  0.6264  0.1465  0.8347
 2008poe     o211126   2.184   0.482   6.501  0.3239 -0.6020 -0.3895
 2008poe    c2311127   2.091   0.501   6.396  0.1842 -0.8608 -0.3138
 2008poe    c2311128   2.142   0.627   6.325 -0.0219 -0.4488  0.2624
 2008poe     o211129   2.277   0.604   6.289 -0.1863  0.1503 -0.7759
 2008poe    c2311130   2.350   0.722   6.260  0.0065  0.2155 -0.0633
 2008poe    c2311131   2.475   0.680   6.180 -0.0000  0.1799 -0.0551
 2008poe     o211132   2.536   0.583   6.262 -0.3012  0.1538  0.1441
 2008poe    c2311133   2.661   0.550   6.203 -0.2228  0.3637  0.1945
 2008poe    c2311134   2.664   0.468   6.073 -0.3510  0.2938  0.2346
 2008poe     o211135   2.599   0.345   6.096  0.2874 -0.1751 -0.4278
 2008poe    c3111136   2.588   0.264   5.981 -0.7715 -0.3967 -0.1771
 2009poe    c3111137   0.916   6.747   1.341  0.4780  0.3820 -0.0576
 2009poe     o211138   0.923   6.679   1.464 -0.1055 -0.1090 -0.2927
 2009poe    c2311139   1.051   6.639   1.506  0.1299  0.3307 -0.5853
 2009poe    c2311140   1.103   6.508   1.443  0.0054 -0.1349  0.2679
 2009poe     o211141   1.008   6.406   1.463 -0.4871  0.3813  0.5677
 2009poe    c2311142   1.033   6.293   1.384 -0.3824  0.9334 -0.1965
 2009poe    c2311143   0.913   6.198   1.401  0.2967  0.0442 -0.3144
 2009poe     o211144   0.881   6.184   1.537  0.4437 -0.1452 -0.2980
 2009poe    c2311145   0.773   6.096   1.557  0.5273 -0.0883  0.4335
 2009poe    c2311146   0.722   6.127   1.699 -0.2037 -0.2284  0.2055
 2009poe     o211147   0.726   6.268   1.703  0.5045 -0.2307 -0.2240
 2009poe    c3111148   0.653   6.308   1.817  0.6379 -0.4259 -0.0693
 2010poe    c3111149   6.639   0.877   5.499  0.2028  0.2076 -0.4454
 2010poe     o211150   6.548   0.790   5.435  0.2585 -0.3150  0.1767
 2010poe    c2311151   6.489   0.718   5.541 -0.4198 -0.3151 -0.1988
 2010poe    c2311152   6.381   0.628   5.477 -0.1764 -0.8353  0.1230
 2010poe     o211153   6.442   0.549   5.377  0.2758 -0.1492 -0.1532
 2010poe    c2311154   6.361   0.442   5.333 -0.2908 -0.1395  0.8345
 2010poe    c2311155   6.454   0.350   5.253 -0.4228 -0.1243  0.6621
 2010poe     o211156   6.540   0.425   5.171 -0.6227 -0.2271  0.3601
 2010poe    c2311157   6.583   0.346   5.062  0.0223  0.3388  0.1921
 2010poe    c2311158   6.696   0.419   4.987  0.1876 -0.2465 -0.1379
 2010poe     o211159   6.810   0.444   5.065 -0.1056  0.2717  0.1326
 2010poe    c3111160   6.913   0.474   4.973 -0.1188 -0.0501  0.0139
 2011poe    c3111161   3.930   5.334   3.638 -0.3203 -0.3676 -0.1859
 2011poe     o211162   3.953   5.204   3.688 -0.3893 -0.4870 -0.4612
 2011poe    c2311163   4.060   5.143   3.619 -0.4917 -0.8723 -0.2819
 2011poe    c2311164   4.108   5.015   3.690 -0.3401 -0.2999  0.6561
 2011poe     o211165   4.010   4.916   3.668  0.1244 -0.5080 -0.4928
 2011poe    c2311166   4.026   4.810   3.760 -0.0371 -0.0515  0.0611
 2011poe    c2311167   3.922   4.699   3.741  0.0946 -0.2300  0.3771
 2011poe     o211168   3.802   4.773   3.751 -0.0421 -0.4190  0.1515
 2011poe    c2311169   3.702   4.674   3.751 -0.0992 -0.3616  0.2620
 2011poe    c2311170   3.566   4.746   3.747  0.1563  0.0923 -0.2499
 2011poe     o211171   3.581   4.842   3.644  0.0868 -0.6728 -0.9850
 2011poe    c3111172   3.469   4.887   3.572  0.1812  0.7774 -0.2692
 2012poe    c3111173   3.210   5.037   3.289  0.0628  0.7002  0.4648
 2012poe     o211174   3.134   4.974   3.187  0.2666  0.4617  0.4598
 2012poe    c2311175   3.203   4.854   3.158  0.0074  0.4570 -0.1538
 2012poe    c2311176   3.271   4.852   3.020  0.1369  0.1055 -0.0856
 2012poe     o211177   3.172   4.848   2.920 -0.2543  0.2507  0.2906
 2012poe    c2311178   3.223   4.899   2.799 -0.6999 -0.4424 -0.1974
 2012poe    c2311179   3.131   4.869   2.679 -0.4231  0.0793 -0.5452
 2012poe     o211180   3.008   4.930   2.711 -0.4967 -0.6937  0.7118
 2012poe    c2311181   2.909   4.887   2.620  0.1982 -0.5028 -0.1465
 2012poe    c2311182   2.784   4.962   2.668  0.4219 -0.0410 -0.2852
 2012poe     o211183   2.777   4.965   2.809  0.2973  0.3885 -0.2982
 2012poe    c3111184   2.660   5.032   2.851  0.3496  0.2209  0.1206
 2013poe    c3111185   5.869   5.763   5.896  0.4105  0.1865  0.6814
 2013poe     o211186   5.774   5.747   5.999 -0.1457 -0.0611  0.1411
 2013poe    c2311187   5.669   5.837   5.972 -0.2654 -0.3350 -0.3232
 2013poe    c2311188   5.584   5.852   6.100 -0.0887 -0.3152 -0.2078
 2013poe     o211189   5.576   5.717   6.139  0.1186 -0.3023 -0.1195
 2013poe    c2311190   5.517   5.689   6.264 -0.3499 -0.1755 -0.3098
 2013poe    c2311191   5.571   5.549   6.300  0.0440 -0.0892 -0.5681
 2013poe     o211192   5.709   5.573   6.316 -0.0978  0.2557  0.1620
 2013poe    c2311193   5.757   5.516   6.436 -0.1163  0.3397  0.2094
 2013poe    c2311194   5.909   5.524   6.460  0.0366  0.2065 -0.6717
 2013poe     o211195   5.961   5.655   6.469 -0.3123  0.3072  0.0150
 2013poe    c3111196   5.959   5.715   6.596 -0.2546 -0.8803  0.5927
 2014poe    c3111197   0.515   5.000   3.169  0.0599 -0.2674  0.0826
 2014poe     o211198   0.430   5.102   3.216  0.1411 -0.1673  0.0125
 2014poe    c2311199   0.306   5.113   3.150  0.1423 -0.3311 -0.0173
 2014poe    c2311200   0.194   5.193   3.220  0.7007  0.1285  0.3663
 2014poe     o211201   0.133   5.120   3.324  0.2170 -0.3854 -0.2645
 2014poe    c2311202   0.002   5.171   3.343  0.1899 -0.4715 -0.2175
 2014poe    c2311203  -0.062   5.093   3.458 -0.4138 -0.2553 -0.4053
 2014poe     o211204  -0.015   5.140   3.582 -0.4495 -0.7044 -0.2171
 2014poe    c2311205  -0.061   5.074   3.698 -1.0014 -0.3428 -0.2251
 2014poe    c2311206   0.044   5.086   3.810 -0.7987  0.3859 -0.4882
 2014poe     o211207   0.125   5.200   3.790 -0.3160  0.1603  0.1553
 2014poe    c3111208   0.173   5.259   3.909  0.0470  0.5951 -0.2038
 2015poe    c3111209   3.602   0.245   1.705  0.1333  0.0669 -0.0997
 2015poe     o211210   3.574   0.142   1.612 -0.7664  0.3578 -0.1576
 2015poe    c2311211   3.571   0.021   1.684 -0.2810  0.5777  0.2430
 2015poe    c2311212   3.468  -0.079   1.627  0.2376  0.2851 -0.1924
 2015poe     o211213   3.336  -0.044   1.661 -0.0306 -0.4655 -0.4417
 2015poe    c2311214   3.238  -0.145   1.656  0.0721 -0.5870 -0.0144
 2015poe    c2311215   3.106  -0.080   1.700  0.0979 -0.6285  0.1248
 2015poe     o211216   3.105  -0.057   1.839  0.7739 -0.4028  0.0965
 2015poe    c2311217   3.173   0.061   1.876  0.2944 -0.0457 -0.1514
 2015poe    c2311218   3.118   0.202   1.847  0.3769  0.0081 -0.0452
 2015poe     o211219   2.996   0.227   1.914  0.6454  0.4091  0.2999
 2015poe    c3111220   2.936   0.338   1.850  0.1950  0.0517  0.1018
 2016poe    c3111221   4.495   3.076   0.659 -0.2152  0.1780  0.3841
 2016poe     o211222   4.604   3.003   0.712  0.0081  0.1952 -0.0445
 2016poe    c2311223   4.595   2.862   0.705  0.2128  0.1684  0.2183
 2016poe    c2311224   4.716   2.788   0.764  0.1262 -0.0929  0.0681
 2016poe     o211225   4.825   2.867   0.720 -0.0339  0.0679 -0.0435
 2016poe    c2311226   4.937   2.787   0.753 -0.1107 -0.0226 -0.0025
 2016poe    c2311227   5.058   2.878   0.726 -0.4247  0.4017  0.0041
 2016poe     o211228   5.088   2.958   0.837 -0.2337  0.2186  0.0854
 2016poe    c2311229   5.162   3.072   0.799  0.5187 -0.1928  0.2921
 2016poe    c2311230   5.178   3.176   0.912 -0.3699  0.0745  0.1747
 2016poe     o211231   5.051   3.236   0.929 -0.6031 -0.2566 -0.3346
 2016poe    c3111232   5.074   3.358   0.997  0.5058 -0.6146 -0.0373
 2017poe    c3111233   3.336   4.437   3.724  0.0389  0.4218 -0.0042
 2017poe     o211234   3.209   4.490   3.757 -0.2013  0.2081 -0.5707
 2017poe    c2311235   3.106   4.429   3.682 -0.4648 -0.6254  0.4376
 2017poe    c2311236   2.991   4.529   3.704  0.1769  0.2633 -0.1441
 2017poe     o211237   2.991   4.577   3.837 -0.3147  0.1366 -0.0969
 2017poe    c2311238   2.865   4.633   3.868 -0.2317  0.4359 -0.2989
 2017poe    c2311239   2.853   4.660   4.019  0.5332 -0.1981 -0.1160
 2017poe     o211240   2.973   4.709   4.074  0.4325 -0.0264 -0.0476
 2017poe    c2311241   2.982   4.690   4.213 -0.2461  0.4924  0.0736
 2017poe    c2311242   3.076   4.802   4.262 -0.4276  0.7624 -0.1944
 2017poe     o211243   3.211   4.802   4.220 -0.4319  0.2268 -0.2172
 2017poe    c3111244   3.308   4.854   4.308 -0.2199 -0.3337 -0.1130
 2018poe    c3111245   1.015   3.871   2.373 -0.1477  0.4409 -0.1347
 2018poe     o211246   0.940   3.986   2.407 -0.2804  0.2509  0.2134
 2018poe    c2311247   0.888   3.981   2.538 -0.8301  0.0530 -0.0103
 2018poe    c2311248   0.843   4.123   2.578 -0.0399  0.2687  0.1352
 2018poe     o211249   0.725   4.158   2.508 -0.2165 -0.0575  0.2657
 2018poe    c2311250   0.701   4.296   2.525  0.2917  0.1367 -0.4927
 2018poe    c2311251   0.624   4.355   2.406 -0.0867 -0.3519 -0.4974
 2018poe     o211252   0.698   4.326   2.289  0.4092  0.0038 -0.2774
 2018poe    c2311253   0.605   4.364   2.189  0.3425  1.0665  0.1769
 2018poe    c2311254   0.683   4.410   2.065  0.0096  0.3419 -0.3068
 2018poe     o211255   0.756   4.317   1.988 -0.1621  0.2072 -0.3063
 2018poe    c3111256   0.749   4.354   1.853 -0.3645 -0.2810 -0.4297
 2019poe    c3111257   4.269   3.231   3.733 -0.3991 -0.0471  0.6747
 2019poe     o211258   4.376   3.165   3.671 -0.7120  0.3565 -0.3067
 2019poe    c2311259   4.359   3.025   3.676  0.0069  0.2484 -0.7705
 2019poe    c2311260   4.459   2.959   3.579  0.2799 -0.1324 -0.2389
 2019poe     o211261   4.591   2.974   3.626  0.1877 -0.2093  0.0404
 2019poe    c2311262   4.682   2.925   3.531 -0.0295  0.0364 -0.2957
 2019poe    c2311263   4.822   2.982   3.558 -0.0494 -0.0582  0.0105
 2019poe     o211264   4.803   3.119   3.534  0.2908  0.0546  0.3630
 2019poe    c2311265   4.929   3.182   3.525  0.5693 -0.5799 -0.3263
 2019poe    c2311266   4.907   3.332   3.498  0.3401 -0.5431  0.0482
 2019poe     o211267   4.811   3.376   3.592  0.1139 -0.4128 -0.2419
 2019poe    c3111268   4.794   3.514   3.567  0.1341 -0.3655  0.0056
 2020poe    c3111269   2.919   4.521   0.069 -0.0879 -0.7181 -0.7157
 2020poe     o211270   3.058   4.502   0.070  0.0971  0.5411  0.2342
 2020poe    c2311271   3.115   4.591   0.163 -0.1093  0.6693  0.2378
 2020poe    c2311272   3.261   4.618   0.121 -0.3841  0.2981 -0.9992
 2020poe     o211273   3.313   4.496   0.072 -0.3615 -0.0394 -0.1568
 2020poe    c2311274   3.451   4.516   0.048 -0.4128  0.0752 -0.3573
 2020poe    c2311275   3.490   4.395  -0.040  0.2184 -0.3024  0.4374
 2020poe     o211276   3.412   4.389  -0.157  0.2082  0.2186  0.4164
 2020poe    c2311277   3.468   4.290  -0.240  0.0697  0.2634  0.2679
 2020poe    c2311278   3.392   4.271  -0.372  0.2927  0.3687  0.1248
 2020poe     o211279   3.251   4.280  -0.365  0.2346 -0.3925  0.0547
 2020poe    c3111280   3.184   4.226  -0.476 -0.3117  0.3774  0.0035
 2021poe    c3111281   6.658   7.005   0.233  0.0106 -0.3423  0.6476
 2021poe     o211282   6.546   7.078   0.279  0.3007  0.2890  0.3650
 2021poe    c2311283   6.423   7.023   0.237  0.2115  0.7619 -0.0003
 2021poe    c2311284   6.326   7.142   0.232 -0.5107  0.1865  0.1947
 2021poe     o211285   6.345   7.213   0.352  0.0938 -0.0026  0.2148
 2021poe    c2311286   6.235   7.296   0.382  0.0952  0.3525 -0.7540
 2021poe    c2311287   6.255   7.340   0.528 -0.4214  0.0984 -0.6070
 2021poe     o211288   6.371   7.417   0.548 -0.3805 -0.1315  0.0825
 2021poe    c2311289   6.380   7.471   0.678 -0.1243  0.1452 -0.0483
 2021poe    c2311290   6.503   7.563   0.685  0.1360 -0.2336  0.4646
 2021poe     o211291   6.620   7.489   0.711  0.3863 -0.0784 -0.2039
 2021poe    c3111292   6.721   7.582   0.744  0.0325  0.4098 -0.4936
 2022poe    c3111293   6.032   0.563   6.207 -0.0892  0.0848 -0.3373
 2022poe     o211294   6.011   0.559   6.346 -0.3799 -0.5097 -0.3939
 2022poe    c2311295   5.914   0.461   6.378 -0.2725 -0.5820 -0.2899
 2022poe    c2311296   5.917   0.418   6.525  0.4523 -0.1210 -0.1613
 2022poe     o211297   5.879   0.522   6.613 -0.5969 -0.5152 -0.1330
 2022poe    c2311298   5.857   0.469   6.742  0.5384  0.2281  0.3762
 2022poe    c2311299   5.829   0.579   6.847  0.3809  0.1724  0.3922
 2022poe     o211300   5.919   0.687   6.847  0.6868 -0.0780  0.0837
 2022poe    c2311301   5.872   0.796   6.923  0.2993 -0.1290 -0.0826
 2022poe    c2311302   5.783   0.892   6.842 -0.1268 -0.3294  0.1465
 2022poe     o211303   5.651   0.843   6.825 -0.1374 -0.0355 -0.6727
 2022poe    c3111304   5.577   0.929   6.742 -0.2898  0.2558 -0.2426
 2023poe    c3111305   2.834   4.221   1.319  0.3671  0.2009  0.2054
 2023poe     o211306   2.916   4.107   1.307 -0.2997 -0.3037  0.4023
 2023poe    c2311307   2.880   4.028   1.196 -0.0751 -0.0328  0.1333
 2023poe    c2311308   2.922   3.880   1.201  0.1466  0.0164 -0.2345
 2023poe     o211309   3.059   3.849   1.197  0.0762 -0.3184 -0.1254
 2023poe    c2311310   3.089   3.720   1.244  0.2506 -0.1645  0.1892
 2023poe    c2311311   3.197   3.632   1.178  0.0539 -0.3576  0.1250
 2023poe     o211312   3.163   3.635   1.041  0.0218  0.0911  0.1429
 2023poe    c2311313   3.245   3.553   0.961  0.3091 -0.0873  0.6152
 2023poe    c2311314   3.176   3.512   0.829  0.2603  0.4234  0.4791
 2023poe     o211315   3.123   3.632   0.779 -0.0390  0.3270  0.5596
 2023poe    c3111316   3.126   3.645   0.638  0.1748 -0.2705  0.5051
 2024poe    c3111317   3.884   6.958   5.835  0.1786 -0.5805 -0.0341
 2024poe     o211318   3.986   7.041   5.885  0.0210 -0.2162 -0.3118
 2024poe    c2311319   3.949   7.156   5.958  0.7612 -0.1213 -0.0746
 2024poe    c2311320   4.086   7.210   6.002  0.4244  0.3920  0.3583
 2024poe     o211321   4.167   7.212   5.886  0.0473  0.2741  0.0902
 2024poe    c2311322   4.293   7.245   5.942  0.0518  0.2322  0.1048
 2024poe    c2311323   4.416   7.222   5.852  0.0636 -0.5094  0.3088
 2024poe     o211324   4.420   7.082   5.833  0.3137 -0.5260  0.4819
 2024poe    c2311325   4.539   7.046   5.767  0.2621  0.1031  0.0410
 2024poe    c2311326   4.545   6.894   5.743  0.4926  0.2162 -0.6492
 2024poe     o211327   4.419   6.849   5.698  0.1615  0.4544  0.0320
 2024poe    c3111328   4.431   6.715   5.655 -0.1100  0.2775  0.4922
 2025poe    c3111329   6.515   2.438   0.031 -0.8093 -0.0606  0.0842
 2025poe     o211330   6.512   2.326  -0.055  0.1342  0.0865 -0.1521
 2025poe    c2311331   6.450   2.357  -0.177  0.1078 -0.2179 -0.2184
 2025poe    c2311332   6.483   2.249  -0.282  0.4744 -0.3238  0.0061
 2025poe     o211333   6.434   2.122  -0.247  0.3248 -0.0008  1.0070
 2025poe    c2311334   6.471   2.034  -0.351 -0.1076  0.3492  0.5471
 2025poe    c2311335   6.461   1.884  -0.319  1.2509  0.1667  0.1831
 2025poe     o211336   6.496   1.872  -0.183 -0.0016  0.0936  0.5124
 2025poe    c2311337   6.468   1.743  -0.134  0.1713 -0.1534 -0.0300
 2025poe    c2311338   6.512   1.727   0.012  0.1378 -0.5497 -0.0641
 2025poe     o211339   6.429   1.814   0.085  0.2920 -0.2265 -0.2705
 2025poe    c3111340   6.435   1.809   0.226  0.2488  0.3899 -0.2459
 2026poe    c3111341   3.283   5.797   0.425  0.0061  0.1301 -0.1457
 2026poe     o211342   3.264   5.815   0.286  0.1144 -0.3213 -0.2215
 2026poe    c2311343   3.387   5.861   0.233  0.1330 -0.1785 -0.0585
 2026poe    c2311344   3.385   5.819   0.084 -0.3155  0.1952 -0.1603
 2026poe     o211345   3.350   5.684   0.071  0.5266 -0.0213 -0.2291
 2026poe    c2311346   3.390   5.626  -0.051  0.0252 -0.1109 -0.3574
 2026poe    c2311347   3.313   5.495  -0.072 -0.2341 -0.1367  0.7287
 2026poe     o211348   3.332   5.409   0.039  0.2396  0.0245  0.7726
 2026poe    c2311349   3.282   5.280   0.013 -0.1646  0.3356 -0.0563
 2026poe    c2311350   3.248   5.176   0.122 -0.2295  0.3185 -0.0933
 2026poe     o211351   3.144   5.216   0.208  0.2840  0.4580  0.4676
 2026poe    c3111352   3.108   5.117   0.303 -1.3213  0.0042 -0.5766
 2027poe    c3111353   3.921   1.737   5.475 -0.0401  0.0594  0.7065
 2027poe     o211354   3.827   1.825   5.417  0.2082 -0.0399  0.1512
 2027poe    c2311355   3.869   1.957   5.444 -0.5465  0.1454  0.4280
 2027poe    c2311356   3.783   2.046   5.351  0.0153  0.3890  0.1383
 2027poe     o211357   3.660   2.068   5.416 -0.1125 -0.4308  0.1777
 2027poe    c2311358   3.587   2.166   5.345  0.2404 -0.2728  0.0285
 2027poe    c2311359   3.449   2.190   5.411  0.0395 -0.2123 -0.4136
 2027poe     o211360   3.401   2.058   5.423 -0.0784 -0.0900  0.4646
 2027poe    c2311361   3.264   2.051   5.457 -0.1186  0.1398  0.3495
 2027poe    c2311362   3.246   1.898   5.458  0.2014  0.0952 -0.3549
 2027poe     o211363   3.340   1.846   5.549 -0.4724 -0.4249  0.0595
 2027poe    c3111364   3.291   1.733   5.616 -0.6865 -0.1688  0.3344
 2028poe    c3111365   5.939   4.207   5.822  0.7333 -0.5834  0.2905
 2028poe     o211366   5.976   4.163   5.950  0.5004 -0.2671  0.4708
 2028poe    c2311367   5.948   4.255   6.052  0.0337  0.2353 -0.1073
 2028poe    c2311368   5.988   4.207   6.193 -0.1811 -0.3416 -0.2425
 2028poe     o211369   5.943   4.077   6.225 -0.8219 -0.0708 -0.0320
 2028poe    c2311370   6.015   4.022   6.333  0.0543 -0.2176 -0.6819
 2028poe    c2311371   6.020   3.868   6.323  0.0309 -0.3009  0.4820
 2028poe     o211372   6.125   3.829   6.237 -0.5301  0.0818 -0.3950
 2028poe    c2311373   6.157   3.695   6.266  0.2354  0.3284 -0.0789
 2028poe    c2311374   6.241   3.656   6.389 -0.0719  0.6921  0.2470
 2028poe     o211375   6.186   3.678   6.517 -0.5119 -0.2739  0.2284
 2028poe    c3111376   6.274   3.680   6.627 -0.1391 -0.6714 -0.0583
 2029poe    c3111377   2.960   4.005   3.096  0.0800  0.1481  0.2152
 2029poe     o211378   2.846   3.984   3.016  0.3459 -0.0976 -0.1041
 2029poe    c2311379   2.779   4.108   3.007  0.3439 -0.0905  0.0097
 2029poe    c2311380   2.631   4.088   2.970  0.3663 -0.0636 -0.0949
 2029poe     o211381   2.608   4.039   2.840 -0.1710 -0.4970  0.1605
 2029poe    c2311382   2.471   4.016   2.816 -0.3405  0.5847  0.0303
 2029poe    c2311383   2.451   3.942   2.682  0.1036 -0.0201  0.2925
 2029poe     o211384   2.520   3.820   2.696  0.3422  0.0877  0.0584
 2029poe    c2311385   2.562   3.762   2.574  0.4868  0.0173  0.1414
 2029poe    c2311386   2.598   3.614   2.598  1.2352  0.0939 -0.4907
 2029poe     o211387   2.635   3.600   2.733 -0.0178  0.3778 -0.1031
 2029poe    c3111388   2.686   3.470   2.757 -0.2532  0.2322 -0.3974
 2030poe    c3111389   2.762   0.428   2.215 -0.2667 -0.2005 -0.0516
 2030poe     o211390   2.681   0.321   2.172  0.1902 -0.4488 -0.2895
 2030poe    c2311391   2.544   0.336   2.202  0.4162  0.1301  0.4887
 2030poe    c2311392   2.494   0.296   2.342 -0.2906 -0.1969  0.1468
 2030poe     o211393   2.488   0.156   2.354  0.4319 -0.2474 -0.0133
 2030poe    c2311394   2.515   0.126   2.489  0.4252  0.3905  0.1312
 2030poe    c2311395   2.495  -0.018   2.539 -0.4256  0.3091 -0.4132
 2030poe     o211396   2.573  -0.105   2.460 -0.2230  0.1236 -0.0162
 2030poe    c2311397   2.565  -0.238   2.506 -0.3468  0.0860 -0.1446
 2030poe    c2311398   2.670  -0.332   2.442 -0.5079  0.1155 -0.4559
 2030poe     o211399   2.661  -0.330   2.302  0.1060 -0.2241 -0.5001
 2030poe    c3111400   2.750  -0.426   2.248  0.2142 -0.0439 -0.6418
 2031poe    c3111401   3.575   4.147   0.255 -0.1136  0.4828  0.0550
 2031poe     o211402   3.523   4.188   0.380 -0.1576 -0.4268  0.3470
 2031poe    c2311403   3.588   4.307   0.418  0.1638 -0.3748 -0.3414
 2031poe    c2311404   3.524   4.379   0.538  0.1611  0.0995 -0.6247
 2031poe     o211405   3.517   4.305   0.658  0.0863  0.0778 -0.6426
 2031poe    c2311406   3.453   4.393   0.747  0.3345 -0.1016 -0.2825
 2031poe    c2311407   3.437   4.347   0.893 -0.2007  0.6137 -0.1121
 2031poe     o211408   3.560   4.349   0.962 -0.4599 -0.3788  0.4049
 2031poe    c2311409   3.540   4.310   1.096 -0.2079 -0.5541  0.3915
 2031poe    c2311410   3.664   4.301   1.186  0.1054 -0.3367 -0.0148
 2031poe     o211411   3.739   4.182   1.199 -0.3267 -0.5105  0.9822
 2031poe    c3111412   3.841   4.223   1.288  0.2363 -0.0790  0.1567
 2032poe    c3111413   0.180   5.739   3.756 -0.4633  0.3318 -0.3201
 2032poe     o211414   0.148   5.725   3.893  0.1000  0.0759 -0.2114
 2032poe    c2311415   0.259   5.781   3.960  0.0037  0.0280 -0.0101
 2032poe    c2311416   0.303   5.684   4.070  0.0710 -0.0477 -0.1040
 2032poe     o211417   0.208   5.675   4.174  0.2206 -0.1090  0.0291
 2032poe    c2311418   0.230   5.552   4.239 -0.1385 -0.1946 -0.0095
 2032poe    c2311419   0.148   5.554   4.370 -0.0958  0.0155  0.0137
 2032poe     o211420   0.020   5.606   4.343 -0.0209 -0.0651 -0.4963
 2032poe    c2311421  -0.052   5.634   4.460 -0.0635 -0.0593 -0.5239
 2032poe    c2311422  -0.192   5.657   4.401 -0.2225 -0.0409 -0.1473
 2032poe     o211423  -0.203   5.733   4.282  0.2314 -0.3251 -0.3730
 2032poe    c3111424  -0.338   5.765   4.257  0.0272 -0.7360  0.1871
 2033poe    c3111425   2.858   5.065   1.797  0.2741 -0.0562 -0.3310
 2033poe     o211426   2.955   4.983   1.860 -0.0835 -0.0220  0.2679
 2033poe    c2311427   2.943   4.856   1.801 -0.0949  0.3243 -0.4826
 2033poe    c2311428   3.030   4.755   1.878 -0.0205  0.6802 -0.0960
 2033poe     o211429   3.152   4.823   1.897  0.0502  0.4294  0.3699
 2033poe    c2311430   3.266   4.744   1.922  0.0282  0.3395  0.1919
 2033poe    c2311431   3.399   4.820   1.913 -0.0155  0.3303 -0.5707
 2033poe     o211432   3.416   4.916   2.015  0.0998  0.0890 -0.3633
 2033poe    c2311433   3.540   4.984   2.013  0.1132  0.0739 -0.1166
 2033poe    c2311434   3.546   5.089   2.125 -0.1228  0.1171 -0.1426
 2033poe     o211435   3.458   5.190   2.085 -0.3494 -0.0369 -0.0338
 2033poe    c3111436   3.461   5.299   2.175  0.9258 -0.0635 -0.0308
 2034poe    c3111437   5.992   0.048   6.654  0.6049 -0.1776  0.0902
 2034poe     o211438   5.926  -0.075   6.640 -0.6055  0.4214  0.4470
 2034poe    c2311439   5.930  -0.155   6.756 -0.0903 -0.0103  0.1329
 2034poe    c2311440   5.867  -0.296   6.749 -0.0969 -0.0076  0.1350
 2034poe     o211441   5.968  -0.376   6.694  0.1017  0.0833  0.3664
 2034poe    c2311442   5.944  -0.508   6.738 -0.3454  0.0120 -0.0920
 2034poe    c2311443   6.038  -0.617   6.682 -0.4030  0.0142 -0.1955
 2034poe     o211444   6.165  -0.605   6.743 -0.3566  0.1892 -0.3268
 2034poe    c2311445   6.257  -0.695   6.686 -0.3308 -0.0632  0.1100
 2034poe    c2311446   6.401  -0.681   6.740  0.0061 -0.7978 -0.5754
 2034poe     o211447   6.492  -0.600   6.669 -0.1451 -0.1977 -0.0919
 2034poe    c3111448   6.624  -0.641   6.701 -0.2656 -0.1697  0.4536
 2035poe    c3111449   2.193   2.975   4.650 -0.3373  0.7730  0.3001
 2035poe     o211450   2.280   2.899   4.569 -0.5725  0.1278  0.6539
 2035poe    c2311451   2.361   2.827   4.659  0.3206 -0.0859 -0.3071
 2035poe    c2311452   2.362   2.674   4.642 -0.0531 -0.1623  0.3216
 2035poe     o211453   2.408   2.630   4.516  0.2324 -0.6738  0.5994
 2035poe    c2311454   2.354   2.502   4.493  0.4457 -0.6353 -0.1438
 2035poe    c2311455   2.375   2.471   4.344 -0.3509 -0.5603 -0.2740
 2035poe     o211456   2.320   2.564   4.252 -0.0979 -0.2572 -0.1195
 2035poe    c2311457   2.264   2.497   4.142 -0.3241  0.0750 -0.2071
 2035poe    c2311458   2.210   2.600   4.040 -0.0897  0.1645 -0.2421
 2035poe     o211459   2.138   2.701   4.107  1.1891  0.5185  0.6371
 2035poe    c3111460   2.084   2.793   4.016  0.0844 -0.7448 -0.0219
 2036poe    c3111461   2.686   3.294   5.465  0.0169  0.5800  0.2189
 2036poe     o211462   2.666   3.427   5.423  0.7707  0.4583 -0.5730
 2036poe    c2311463   2.642   3.522   5.525 -0.6934 -0.0684 -0.3989
 2036poe    c2311464   2.634   3.654   5.447  0.4308  0.0305 -0.3624
 2036poe     o211465   2.582   3.619   5.321 -0.1794 -0.2904 -0.0199
 2036poe    c2311466   2.536   3.736   5.258  0.1280 -0.3609 -0.3724
 2036poe    c2311467   2.406   3.696   5.186 -0.2231 -0.5342  0.3570
 2036poe     o211468   2.417   3.639   5.058  0.1431  0.0544  0.1237
 2036poe    c2311469   2.286   3.627   5.006 -0.2674 -0.2528  1.1939
 2036poe    c2311470   2.270   3.504   4.915  0.2802 -0.1174  0.9068
 2036poe     o211471   2.275   3.386   4.992  0.4976 -0.5629  0.2211
 2036poe    c3111472   2.238   3.276   4.912  0.0413 -0.0028 -0.3457
 2037poe    c3111473   6.372   2.411   3.888  0.1188  0.0875  0.2771
 2037poe     o211474   6.384   2.407   3.747  0.2004 -0.6782  0.3032
 2037poe    c2311475   6.490   2.490   3.708 -0.2825 -0.3367 -0.2934
 2037poe    c2311476   6.516   2.504   3.557 -0.0928 -0.7728 -0.3040
 2037poe     o211477   6.545   2.383   3.492 -0.2607 -0.5512 -0.8031
 2037poe    c2311478   6.570   2.407   3.355  0.5686 -0.3070 -0.6136
 2037poe    c2311479   6.584   2.272   3.282 -0.1416 -0.4895 -0.4190
 2037poe     o211480   6.470   2.204   3.332  0.0214 -0.2849  0.2424
 2037poe    c2311481   6.446   2.082   3.264 -0.3279  0.0516 -0.2461
 2037poe    c2311482   6.381   1.978   3.356 -0.1546  0.1864  0.0323
 2037poe     o211483   6.464   1.976   3.470 -0.2309 -0.0728  0.0848
 2037poe    c3111484   6.420   1.898   3.580  0.2468 -0.6350 -0.1200
 2038poe    c3111485   5.527   5.889   1.713  0.6960 -0.0546 -0.2595
 2038poe     o211486   5.497   5.793   1.614  0.2100  0.3264 -0.4865
 2038poe    c2311487   5.376   5.836   1.555  0.1801  0.4433 -0.3420
 2038poe    c2311488   5.374   5.773   1.414  0.0814 -0.3156 -0.0039
 2038poe     o211489   5.414   5.640   1.439  0.5390 -0.2006 -0.1233
 2038poe    c2311490   5.410   5.559   1.324  0.2840  0.1257 -0.3451
 2038poe    c2311491   5.478   5.425   1.357  0.3912  0.3326  0.2825
 2038poe     o211492   5.614   5.447   1.387  0.4892  0.1201 -0.0035
 2038poe    c2311493   5.694   5.330   1.389  0.2413 -0.0420  0.6107
 2038poe    c2311494   5.837   5.366   1.434  0.4233 -0.1411  0.1103
 2038poe     o211495   5.835   5.392   1.572  0.1948  0.1577  0.0499
 2038poe    c3111496   5.961   5.384   1.634  0.1567 -0.3630  0.0575
 2039poe    c3111497   2.326   3.184   1.293 -0.0875 -0.3576  0.3409
 2039poe     o211498   2.315   3.156   1.431  0.3584 -0.2078  0.4080
 2039poe    c2311499   2.225   3.053   1.463  0.0827 -0.1206 -0.0814
 2039poe    c2311500   2.169   3.073   1.605  0.1206 -0.1129 -0.0677
 2039poe     o211501   2.282   3.118   1.675 -0.1601  0.0944  0.2565
 2039poe    c2311502   2.255   3.162   1.806  0.0566 -0.4706  0.4939
 2039poe    c2311503   2.387   3.234   1.841 -0.0226 -0.2465  0.3323
 2039poe     o211504   2.438   3.290   1.722  0.1370 -0.6404  0.2139
 2039poe    c2311505   2.579   3.285   1.723  0.1754  0.2482  0.6465
 2039poe    c2311506   2.626   3.382   1.613 -0.0827  0.0125  0.3286
 2039poe     o211507   2.551   3.339   1.501 -0.1785  0.3943  0.2473
 2039poe    c3111508   2.569   3.435   1.398  0.3541  0.7371  0.6505
 2040poe    c3111509   6.592   6.773   2.134  0.1678 -0.0264 -0.5236
 2040poe     o211510   6.556   6.676   2.038  0.2072 -0.4463 -0.1180
 2040poe    c2311511   6.626   6.708   1.919 -0.0977  0.4008 -0.0766
 2040poe    c2311512   6.601   6.598   1.815  0.8776  0.3219 -0.2353
 2040poe     o211513   6.663   6.475   1.846 -0.1262 -0.2168 -0.3229
 2040poe    c2311514   6.652   6.370   1.752 -0.3704 -0.0402 -0.4920
 2040poe    c2311515   6.725   6.245   1.805  0.2339  0.3572 -0.3794
 2040poe     o211516   6.666   6.193   1.922  0.1968  0.3965 -0.3805
 2040poe    c2311517   6.715   6.070   1.970  0.2141  0.7759  0.5980
 2040poe    c2311518   6.627   6.016   2.083  0.4142  0.2553  0.5092
 2040poe     o211519   6.608   6.134   2.159  0.0908  0.3590  0.2696
 2040poe    c3111520   6.509   6.114   2.257  0.3228  0.9709  0.6346
 2041poe    c3111521   2.852   2.611   4.827  0.0169  0.1711 -0.4884
 2041poe     o211522   2.915   2.696   4.734  0.6664  0.1008 -0.1185
 2041poe    c2311523   2.872   2.824   4.775 -0.1811 -0.3500  0.4254
 2041poe    c2311524   2.883   2.928   4.662  0.0056 -0.6958  0.1226
 2041poe     o211525   2.802   2.909   4.549 -0.3749 -0.3097  0.3304
 2041poe    c2311526   2.821   3.009   4.451 -0.4440 -0.5459  0.0737
 2041poe    c2311527   2.923   2.966   4.344  0.0323  0.0085  0.2965
 2041poe     o211528   2.868   2.861   4.267  0.0192 -0.0554  0.3924
 2041poe    c2311529   2.974   2.779   4.223 -0.2192 -0.3685  0.3999
 2041poe    c2311530   2.919   2.675   4.124 -0.1266  0.1142 -0.1592
 2041poe     o211531   2.805   2.622   4.186 -0.4520  0.3360 -0.5641
 2041poe    c3111532   2.807   2.482   4.168  0.1737  0.3128 -0.3030
 2042poe    c3111533   2.568   4.255   2.080  0.0276  0.6185  0.2741
 2042poe     o211534   2.610   4.187   2.196  0.2189 -0.7090 -0.5395
 2042poe    c2311535   2.658   4.283   2.289  0.0080 -0.5047 -0.6391
 2042poe    c2311536   2.662   4.224   2.431  0.6217 -0.0983 -0.4833
 2042poe     o211537   2.761   4.125   2.443  0.4222 -0.2418 -0.0043
 2042poe    c2311538   2.779   4.103   2.581 -0.2382  0.2660  0.1689
 2042poe    c2311539   2.914   4.040   2.621 -0.3649 -0.2490 -0.2114
 2042poe     o211540   2.946   3.913   2.568  0.3118 -0.2330  0.1457
 2042poe    c2311541   2.961   3.820   2.673  0.1502  0.1195  0.4846
 2042poe    c2311542   3.101   3.820   2.738  0.2570  0.1297  0.2578
 2042poe     o211543   3.203   3.786   2.647  0.0198 -0.1183  0.0830
 2042poe    c3111544   3.216   3.646   2.648 -0.4702 -0.1676  0.0208
 2043poe    c3111545   6.890   4.022   2.572  0.2941 -0.1993 -0.1973
 2043poe     o211546   6.973   3.925   2.632  0.2870 -0.2033 -0.1941
 2043poe    c2311547   7.104   3.973   2.652  0.0084  0.0626  1.0393
 2043poe    c2311548   7.200   3.854   2.673 -0.4110 -0.4398  0.1708
 2043poe     o211549   7.197   3.761   2.567 -0.0350 -0.5897  0.2899
 2043poe    c2311550   7.291   3.657   2.576  0.4757 -0.1652 -0.0520
 2043poe    c2311551   7.277   3.552   2.464  0.0446  0.0195 -0.1709
 2043poe     o211552   7.176   3.463   2.507  0.3453 -0.2438 -0.0068
 2043poe    c2311553   7.174   3.366   2.404 -0.1818 -0.3475  0.0984
 2043poe    c2311554   7.043   3.286   2.415 -0.2954 -0.1435  0.2353
 2043poe     o211555   6.931   3.369   2.395 -0.0633  0.0131 -0.4359
 2043poe    c3111556   6.902   3.395   2.260 -0.5952  0.2616 -0.2770
 2044poe    c3111557   7.035   3.360   3.184 -0.0375  0.4587  0.1116
 2044poe     o211558   6.928   3.412   3.108  0.2874 -0.1151 -0.7570
 2044poe    c2311559   6.968   3.537   3.056  0.4408  0.0987 -0.1404
 2044poe    c2311560   6.865   3.612   2.970  0.0629  0.0685  0.2833
 2044poe     o211561   6.794   3.541   2.871  0.4567  0.2151 -0.1088
 2044poe    c2311562   6.656   3.538   2.900  0.2881 -0.9030 -0.9203
 2044poe    c2311563   6.584   3.651   2.824  0.6408  0.0517  0.1331
 2044poe     o211564   6.603   3.648   2.684  0.4607  0.5794  0.0947
 2044poe    c2311565   6.515   3.735   2.616 -0.1779  0.1728  0.3919
 2044poe    c2311566   6.526   3.717   2.464 -0.6195  0.5981  0.3097
 2044poe     o211567   6.651   3.766   2.420 -0.6602  0.5782  0.1712
 2044poe    c3111568   6.670   3.774   2.281  0.5684 -0.6078  0.2475
 2045poe    c3111569   5.954   1.054   3.611 -0.5733 -0.3688  0.6100
 2045poe     o211570   6.019   1.148   3.693 -0.6840  0.1629  0.0906
 2045poe    c2311571   6.121   1.209   3.616 -0.6546  0.1521  0.1215
 2045poe    c2311572   6.213   1.311   3.686 -0.2980  0.0297 -0.1630
 2045poe     o211573   6.315   1.242   3.755 -0.3147  0.0050 -0.1628
 2045poe    c2311574   6.395   1.315   3.846 -0.1882 -0.4273  0.0724
 2045poe    c2311575   6.335   1.389   3.967 -0.5149 -0.3271 -0.1504
 2045poe     o211576   6.312   1.309   4.081 -0.1326 -0.0787  0.1028
 2045poe    c2311577   6.310   1.389   4.197 -0.1229 -0.2051  0.1917
 2045poe    c2311578   6.271   1.328   4.333 -0.4638  0.0137  0.1935
 2045poe     o211579   6.145   1.266   4.317 -0.5438  0.2145  0.0403
 2045poe    c3111580   6.153   1.126   4.333 -0.1098  0.2041 -0.2304
 2046poe    c3111581   6.487   2.787   0.665  0.5574 -0.2440  0.6315
 2046poe     o211582   6.602   2.859   0.626  0.0325  0.2939  0.0325
 2046poe    c2311583   6.670   2.909   0.739  0.0147 -0.0043  0.1789
 2046poe    c2311584   6.808   2.962   0.695  0.0718 -0.1417  0.1937
 2046poe     o211585   6.788   3.047   0.585  0.1982 -0.1494  0.1641
 2046poe    c2311586   6.910   3.097   0.535 -0.0597  0.5108  0.1808
 2046poe    c2311587   6.888   3.205   0.427  0.2831 -0.2736 -0.6891
 2046poe     o211588   6.784   3.170   0.338 -0.1065 -0.5663 -0.1292
 2046poe    c2311589   6.749   3.273   0.248  0.2921  0.0235  0.3898
 2046poe    c2311590   6.630   3.226   0.163  0.1428  0.1667  0.5171
 2046poe     o211591   6.519   3.202   0.246  0.1320  0.2091  0.5148
 2046poe    c3111592   6.398   3.246   0.186  0.3417 -0.1519 -0.1931
 2047poe    c3111593   2.147   6.345   6.264  0.2637 -0.1858 -0.8249
 2047poe     o211594   2.223   6.301   6.375 -0.3946 -0.4752 -0.4820
 2047poe    c2311595   2.318   6.202   6.341  0.1261 -0.0820 -0.1938
 2047poe    c2311596   2.396   6.156   6.465 -0.0960  0.1331  0.0288
 2047poe     o211597   2.312   6.088   6.555 -0.2573 -0.4158 -0.5250
 2047poe    c2311598   2.383   5.990   6.629  0.2233 -0.1589 -0.6445
 2047poe    c2311599   2.278   5.936   6.727  0.8541  0.1968  0.2357
 2047poe     o211600   2.201   6.045   6.772  0.2076 -0.3038  0.3663
 2047poe    c2311601   2.098   6.011   6.862  0.0270 -0.0471  0.2575
 2047poe    c2311602   1.990   6.121   6.872  0.0540  0.0042 -0.0093
 2047poe     o211603   1.926   6.132   6.747  0.3821  0.0489 -0.1746
 2047poe    c3111604   1.797   6.186   6.765  0.3647 -0.0128 -0.1163
 2048poe    c3111605   2.376   6.302   1.369 -0.1077  0.1121  0.1943
 2048poe     o211606   2.305   6.421   1.348 -0.4439 -0.1601 -0.2163
 2048poe    c2311607   2.313   6.453   1.211 -0.1643  0.5971 -0.0288
 2048poe    c2311608   2.231   6.578   1.172 -0.3405  0.5337  0.1391
 2048poe     o211609   2.250   6.679   1.268 -0.0325  0.0604  0.5823
 2048poe    c2311610   2.340   6.778   1.224 -0.2445 -0.0040  0.0021
 2048poe    c2311611   2.335   6.903   1.314 -0.2586 -0.0923  0.1241
 2048poe     o211612   2.415   6.880   1.427 -0.3506 -0.4659  0.1138
 2048poe    c2311613   2.462   6.998   1.488 -0.1465 -0.3405 -0.2881
 2048poe    c2311614   2.523   6.982   1.628  0.4484 -0.0431 -0.5111
 2048poe     o211615   2.657   6.937   1.638  0.3084 -0.2760  0.3861
 2048poe    c3111616   2.709   6.898   1.763  0.7171 -0.1791  0.2459
 2049poe    c3111617   5.983   3.482   5.117  0.3448 -0.6060  0.7216
 2049poe     o211618   6.051   3.488   5.240  0.1279  0.3891  0.7958
 2049poe    c2311619   6.186   3.523   5.221  0.1581 -0.2654 -0.2451
 2049poe    c2311620   6.223   3.647   5.304 -0.5079 -0.0624 -0.2532
 2049poe     o211621   6.195   3.633   5.442 -0.6314 -0.4803 -0.3218
 2049poe    c2311622   6.204   3.751   5.518 -0.2826 -0.3038 -0.6347
 2049poe    c2311623   6.133   3.727   5.652 -0.2558  0.3114 -0.5080
 2049poe     o211624   6.181   3.598   5.683 -0.4549  0.3619  0.0215
 2049poe    c2311625   6.100   3.535   5.780  0.6756  0.3308  0.9648
 2049poe    c2311626   6.171   3.408   5.830  0.0177 -0.3485  0.1984
 2049poe     o211627   6.221   3.325   5.728  0.8165 -0.2596  0.5080
 2049poe    c3111628   6.205   3.188   5.757 -0.1649 -0.2359  0.1257
 2050poe    c3111629   3.931   1.867   2.363  0.3318  0.9710 -0.5039
 2050poe     o211630   3.851   1.771   2.297  0.8457 -0.1098  0.4000
 2050poe    c2311631   3.905   1.641   2.305  0.6302 -0.2179  0.1294
 2050poe    c2311632   3.825   1.541   2.220  0.1022 -0.1191  0.5018
 2050poe     o211633   3.688   1.530   2.250 -0.0422 -0.0795 -0.1393
 2050poe    c2311634   3.618   1.439   2.167  0.1117  0.2255 -0.6082
 2050poe    c2311635   3.467   1.426   2.192  0.2221 -0.0115 -0.0427
 2050poe     o211636   3.403   1.551   2.192 -0.2981 -0.2746  0.0864
 2050poe    c2311637   3.264   1.544   2.219 -0.2928 -0.2393  0.1227
 2050poe    c2311638   3.214   1.689   2.215  0.2133 -0.0628  0.0593
 2050poe     o211639   3.290   1.738   2.322 -0.4347 -0.0717  0.5261
 2050poe    c3111640   3.240   1.862   2.370 -0.3635  0.1998 -0.1003
 2051poe    c3111641   1.078   0.542   0.587  0.6023 -0.1198  0.1751
 2051poe     o211642   1.181   0.553   0.491  0.2327  0.1063 -0.1990
 2051poe    c2311643   1.126   0.538   0.362  0.0388 -0.0457 -0.0995
 2051poe    c2311644   1.244   0.533   0.263  0.2928 -0.2300  0.2097
 2051poe     o211645   1.351   0.601   0.325 -0.0088  0.3108  0.1469
 2051poe    c2311646   1.434   0.650   0.222  0.3199  0.3421  0.4263
 2051poe    c2311647   1.507   0.772   0.281  0.1827  0.5511  0.1646
 2051poe     o211648   1.579   0.728   0.394  0.1268 -0.0935 -0.0517
 2051poe    c2311649   1.641   0.833   0.464 -0.2683  0.0130  0.1424
 2051poe    c2311650   1.736   0.784   0.574 -0.0930  0.0538  0.0096
 2051poe     o211651   1.668   0.712   0.675  0.0172 -0.1560 -0.0638
 2051poe    c3111652   1.752   0.661   0.776 -0.0322  0.0445  0.0799
 2052poe    c3111653   4.702   2.871   0.188 -0.2546 -0.2828  0.3667
 2052poe     o211654   4.723   2.743   0.133  0.1662 -0.2436  0.4311
 2052poe    c2311655   4.668   2.651   0.224  0.3366 -0.3337  0.4438
 2052poe    c2311656   4.646   2.521   0.146  0.1526  0.3860 -0.7337
 2052poe     o211657   4.754   2.508   0.056  0.0330  0.4492 -0.8851
 2052poe    c2311658   4.754   2.388  -0.018 -0.5490 -0.1291  0.0436
 2052poe    c2311659   4.845   2.392  -0.142 -0.1500  0.0355  0.3388
 2052poe     o211660   4.978   2.415  -0.103 -0.0731  0.2807 -0.0643
 2052poe    c2311661   5.051   2.454  -0.217  0.2316 -0.3461 -0.0871
 2052poe    c2311662   5.182   2.529  -0.183  0.2285 -0.1153 -0.5810
 2052poe     o211663   5.138   2.653  -0.134 -0.1282 -0.5024  0.0903
 2052poe    c3111664   5.245   2.732  -0.089  0.1531 -0.2435 -0.9943
 2053poe    c3111665   6.070   6.184   5.609  0.0789  0.3514 -0.4941
 2053poe     o211666   5.930   6.191   5.624  0.1037  0.1398 -0.1429
 2053poe    c2311667   5.887   6.058   5.636 -0.2470  0.2769  0.1489
 2053poe    c2311668   5.737   6.031   5.658 -0.1750 -0.5915 -0.3480
 2053poe     o211669   5.671   6.069   5.539 -0.0530  0.7988  0.0065
 2053poe    c2311670   5.539   6.020   5.535  0.2278  0.0231 -0.0128
 2053poe    c2311671   5.484   6.022   5.391  0.0069 -0.2041  0.0691
 2053poe     o211672   5.527   6.142   5.332  0.0688 -0.2578  0.0047
 2053poe    c2311673   5.465   6.163   5.207  0.5366 -0.2285 -0.2244
 2053poe    c2311674   5.529   6.279   5.130 -0.1571 -0.0727 -0.5811
 2053poe     o211675   5.661   6.276   5.179 -0.1218  0.5983 -0.6166
 2053poe    c3111676   5.744   6.385   5.146  0.0572  0.8367  0.5758
 2054poe    c3111677   7.032   1.727   4.549 -0.2112  0.1113 -0.1579
 2054poe     o211678   7.108   1.833   4.495  0.1548 -0.1727 -0.2079
 2054poe    c2311679   7.007   1.901   4.423 -0.0628 -0.2476  0.0251
 2054poe    c2311680   7.046   2.040   4.371 -0.1587 -0.6243 -1.0872
 2054poe     o211681   7.151   2.044   4.277  0.3632 -0.0431 -0.4938
 2054poe    c2311682   7.106   2.090   4.152  0.3142  0.0686 -0.4359
 2054poe    c2311683   7.230   2.099   4.061  0.4576 -0.0080 -0.2470
 2054poe     o211684   7.334   2.143   4.146  0.5089 -0.6758  0.0357
 2054poe    c2311685   7.452   2.159   4.070  0.1489  0.6721 -0.2497
 2054poe    c2311686   7.569   2.162   4.169 -0.1611  0.2834  0.1306
 2054poe     o211687   7.547   2.067   4.272  0.5611  0.0464  0.0740
 2054poe    c3111688   7.653   2.022   4.352  0.6646 -0.1284 -0.1605
 2055poe    c3111689   4.761   6.018   5.723  0.2325 -0.2032 -0.0159
 2055poe     o211690   4.727   6.153   5.698  0.2154 -0.0790  0.6456
 2055poe    c2311691   4.688   6.174   5.564 -0.0978  0.1175  0.7679
 2055poe    c2311692   4.644   6.321   5.548 -0.2111  0.0079  0.0456
 2055poe     o211693   4.759   6.391   5.590 -0.1260  0.1574 -0.4320
 2055poe    c2311694   4.749   6.530   5.572  0.2031  0.2123 -0.1921
 2055poe    c2311695   4.862   6.617   5.632 -0.0535  0.4555 -0.0593
 2055poe     o211696   4.838   6.606   5.771 -0.4131 -0.0112 -0.1510
 2055poe    c2311697   4.944   6.652   5.852 -0.3846  0.3119 -0.3673
 2055poe    c2311698   4.902   6.659   6.000 -0.0949  0.0577 -0.2717
 2055poe     o211699   4.886   6.525   6.040 -1.2952  0.3550  0.3000
 2055poe    c3111700   4.827   6.523   6.168 -0.2060  0.3391  0.8116
 2056poe    c3111701   3.879   5.916   4.740  0.0844 -0.5160 -0.4521
 2056poe     o211702   3.839   6.022   4.656 -0.4698 -0.2465  0.1498
 2056poe    c2311703   3.934   6.046   4.555 -0.7604 -0.0054 -0.0682
 2056poe    c2311704   3.897   6.160   4.459  0.0624 -0.3127 -0.7605
 2056poe     o211705   3.901   6.289   4.515 -0.3378 -0.3573 -0.6323
 2056poe    c2311706   3.824   6.373   4.432 -0.3318  0.6146  0.3244
 2056poe    c2311707   3.764   6.494   4.506 -0.5814  0.3291  0.5911
 2056poe     o211708   3.644   6.474   4.579 -0.8208 -0.4924 -0.0112
 2056poe    c2311709   3.631   6.580   4.670 -0.0335  0.0930 -0.5599
 2056poe    c2311710   3.499   6.563   4.748  0.3117 -0.0376  0.0076
 2056poe     o211711   3.482   6.440   4.815  0.6018 -0.1510 -0.1258
 2056poe    c3111712   3.493   6.462   4.953 -0.6486  0.2193 -0.0704
 2057poe    c3111713   1.788   0.168   0.705  0.8234  1.0029 -0.2306
 2057poe     o211714   1.875   0.088   0.782 -0.1184  0.4838  0.3134
 2057poe    c2311715   2.003   0.146   0.786  0.0517  0.1289  0.1122
 2057poe    c2311716   2.094   0.044   0.857  0.0627 -0.0236 -0.1209
 2057poe     o211717   2.122  -0.073   0.784 -0.0566 -0.1623  0.0549
 2057poe    c2311718   2.208  -0.159   0.856  0.0317 -0.1788 -0.0698
 2057poe    c2311719   2.273  -0.278   0.783  0.0429  0.1371 -0.5886
 2057poe     o211720   2.195  -0.392   0.757  0.1541 -0.0071 -0.3017
 2057poe    c2311721   2.265  -0.482   0.673  0.2587 -0.3018  0.0972
 2057poe    c2311722   2.158  -0.575   0.612  0.1886  0.0818 -0.3767
 2057poe     o211723   2.065  -0.485   0.558  0.1671  0.1771 -0.1800
 2057poe    c3111724   2.064  -0.468   0.418 -0.0498  0.1238 -0.1853
 2058poe    c3111725   4.299   2.424   2.500  0.4437 -0.5635  0.3691
 2058poe     o211726   4.423   2.423   2.566  0.4351  0.5407  0.4162
 2058poe    c2311727   4.518   2.358   2.484 -0.1573 -0.3993  0.4686
 2058poe    c2311728   4.649   2.341   2.561 -0.0494  0.4036  0.4646
 2058poe     o211729   4.639   2.291   2.693  0.0462  0.1289  0.3677
 2058poe    c2311730   4.767   2.277   2.750 -0.0642  0.0238  0.5913
 2058poe    c2311731   4.762   2.286   2.904  0.1277  0.1331  0.5919
 2058poe     o211732   4.637   2.237   2.948  0.0041  0.4841  0.6311
 2058poe    c2311733   4.639   2.233   3.089  0.1067  0.2146  0.6220
 2058poe    c2311734   4.527   2.131   3.118  0.2006  0.0563  0.4375
 2058poe     o211735   4.415   2.149   3.033  0.0314 -0.4564  0.5497
 2058poe    c3111736   4.300   2.080   3.076 -0.5030 -0.0753 -0.2531
 2059poe    c3111737   3.271   3.971   0.404  0.1445  0.1070  0.5878
 2059poe     o211738   3.148   4.031   0.439 -0.0342 -0.0054  0.1518
 2059poe    c2311739   3.164   4.170   0.453  0.2201 -0.0402  0.2011
 2059poe    c2311740   3.026   4.236   0.435  0.1787 -0.3003 -0.4432
 2059poe     o211741   2.983   4.226   0.301  0.4694 -0.2595 -0.5394
 2059poe    c2311742   2.850   4.181   0.291  0.2205  0.4055 -0.2545
 2059poe    c2311743   2.835   4.129   0.147  0.7877  0.5889 -0.3836
 2059poe     o211744   2.915   4.015   0.127  0.0660 -0.0818  0.4516
 2059poe    c2311745   2.959   4.004  -0.007  0.5767 -0.0815  0.6188
 2059poe    c2311746   3.096   3.934  -0.013  0.6644  0.1566 -0.3366
 2059poe     o211747   3.203   4.026  -0.003  0.4705  0.4111 -0.5983
 2059poe    c3111748   3.307   3.948  -0.058  0.4987  0.1830 -0.2272
 2060poe    c3111749   5.107   1.624   0.525 -0.0869 -0.5324  0.3006
 2060poe     o211750   5.050   1.627   0.654  0.1731  0.2540  0.4056
 2060poe    c2311751   4.984   1.746   0.690 -0.3139  0.1221 -0.0391
 2060poe    c2311752   4.901   1.739   0.819 -0.1208  0.3472  0.0979
 2060poe     o211753   4.983   1.676   0.915 -0.5370  0.3349  0.4494
 2060poe    c2311754   4.928   1.653   1.043 -0.6200  0.8138  0.5032
 2060poe    c2311755   5.039   1.613   1.142 -0.5580 -0.1946  0.0381
 2060poe     o211756   5.126   1.518   1.085  0.0808  0.3959  0.0193
 2060poe    c2311757   5.240   1.506   1.167 -0.0840 -0.1430  0.1735
 2060poe    c2311758   5.323   1.384   1.124  0.5362  0.3632 -0.0830
 2060poe     o211759   5.369   1.397   0.991  0.0294  0.2640 -0.2712
 2060poe    c3111760   5.463   1.295   0.965  0.2615  0.4282 -0.0895
 2061poe    c3111761   3.766   2.479   0.811  0.3588  0.0906 -0.3770
 2061poe     o211762   3.717   2.578   0.722 -0.0168  0.3108  0.0675
 2061poe    c2311763   3.816   2.631   0.636  0.0362  0.1025 -0.0027
 2061poe    c2311764   3.762   2.691   0.505  0.1277 -0.4272 -0.2850
 2061poe     o211765   3.708   2.819   0.533  0.5344 -0.1960 -0.5536
 2061poe    c2311766   3.621   2.856   0.429 -0.1473 -0.6164 -0.1415
 2061poe    c2311767   3.601   3.008   0.414 -0.1648 -0.5870  0.1816
 2061poe     o211768   3.533   3.063   0.525 -0.5172 -0.2765 -0.1873
 2061poe    c2311769   3.578   3.195   0.546 -0.7748 -0.2758  0.3555
 2061poe    c2311770   3.537   3.245   0.686 -0.1175  0.1060  0.4128
 2061poe     o211771   3.586   3.168   0.795 -0.1510 -0.2248  0.1957
 2061poe    c3111772   3.528   3.213   0.915  0.8662 -0.1240  0.6543
 2062poe    c3111773   1.481   2.672   3.136 -0.2655  0.3252  0.5007
 2062poe     o211774   1.529   2.606   3.251 -0.3975  0.2365  0.5045
 2062poe    c2311775   1.658   2.562   3.214 -0.4806  0.3353  0.0936
 2062poe    c2311776   1.721   2.496   3.338 -0.5656  0.4657  0.2067
 2062poe     o211777   1.651   2.375   3.353 -0.2116  0.2569  0.1796
 2062poe    c2311778   1.675   2.305   3.473 -0.3910  0.2341  0.2030
 2062poe    c2311779   1.605   2.168   3.469 -0.2938  0.1679  0.7538
 2062poe     o211780   1.469   2.175   3.432  0.0322  0.0999 -0.4888
 2062poe    c2311781   1.384   2.075   3.485  0.2183  0.2003  0.0058
 2062poe    c2311782   1.250   2.087   3.410  0.2698  0.4284 -0.0493
 2062poe     o211783   1.278   2.132   3.279  0.3103 -0.0427 -0.2059
 2062poe    c3111784   1.155   2.154   3.212  0.4669  0.2415 -0.4022
 2063poe    c3111785   5.126   1.016   1.068  0.3421 -0.0430 -0.2642
 2063poe     o211786   5.033   1.111   1.022  0.1070 -0.0999  0.0835
 2063poe    c2311787   4.936   1.145   1.119  0.3250  0.1566  0.2103
 2063poe    c2311788   4.813   1.207   1.051  0.0941 -0.3589  0.1523
 2063poe     o211789   4.756   1.123   0.953  0.1016 -0.1042 -0.0757
 2063poe    c2311790   4.630   1.166   0.909  0.0845 -0.0448  0.0314
 2063poe    c2311791   4.579   1.058   0.811 -1.1132  0.4966  0.0371
 2063poe     o211792   4.672   1.056   0.705 -0.3985  0.7332  0.6479
 2063poe    c2311793   4.633   0.963   0.606  0.3466  0.5510  0.5224
 2063poe    c2311794   4.755   0.930   0.518 -0.3933 -0.2717 -0.2037
 2063poe     o211795   4.862   0.916   0.609  0.1828  0.2981 -0.7832
 2063poe    c3111796   4.957   0.823   0.561 -0.3102 -0.4456 -0.3353
 2064poe    c3111797   5.888   3.019   1.916  0.2230 -0.5012 -0.5604
 2064poe     o211798   6.002   3.093   1.879  0.2047 -0.4203 -0.4543
 2064poe    c2311799   6.000   3.135   1.744 -0.0165 -0.3469 -0.4286
 2064poe    c2311800   6.127   3.211   1.704 -0.0556  0.1998  0.4502
 2064poe     o211801   6.233   3.118   1.702 -0.4228 -0.2306  0.7623
 2064poe    c2311802   6.351   3.182   1.656 -0.7271  0.0744  0.3991
 2064poe    c2311803   6.465   3.083   1.683 -0.2387  0.4756 -0.1729
 2064poe     o211804   6.496   3.078   1.821 -0.0260 -0.3983 -0.2415
 2064poe    c2311805   6.616   3.007   1.844  0.2663  0.1928  0.0846
 2064poe    c2311806   6.637   2.987   1.995 -0.1939  0.1907  0.1511
 2064poe     o211807   6.597   3.101   2.069  0.4075  0.2798  0.3502
 2064poe    c3111808   6.653   3.097   2.198 -0.4054 -0.8004  0.6913
 2065poe    c3111809   6.379   1.945   5.037 -0.4111 -0.1945 -0.4687
 2065poe     o211810   6.427   2.078   5.039  0.3696 -0.4774  0.7507
 2065poe    c2311811   6.517   2.085   5.147  0.7432  0.0905  0.4084
 2065poe    c2311812   6.615   2.204   5.152  0.3068  0.4514  0.3838
 2065poe     o211813   6.543   2.319   5.193  0.0219  0.4772 -0.1791
 2065poe    c2311814   6.619   2.436   5.213 -0.0689  0.5552 -0.2908
 2065poe    c2311815   6.544   2.544   5.293 -0.5200 -0.0299  0.0786
 2065poe     o211816   6.418   2.558   5.230 -0.2174  0.8159 -0.3383
 2065poe    c2311817   6.310   2.599   5.310  0.1032  0.7011  0.1602
 2065poe    c2311818   6.192   2.633   5.218 -0.0001  0.3266  0.1510
 2065poe     o211819   6.174   2.522   5.133  0.4410  0.5150 -0.1932
 2065poe    c3111820   6.045   2.532   5.075  0.1005  0.0202  0.4608
 2066poe    c3111821   1.208   1.677   2.455  0.0386 -0.1064 -0.3794
 2066poe     o211822   1.232   1.741   2.332 -0.4770  0.2744 -0.2842
 2066poe    c2311823   1.344   1.827   2.334 -0.5403  0.3499  0.0488
 2066poe    c2311824   1.302   1.962   2.274  0.2040  0.4371 -0.2894
 2066poe     o211825   1.273   1.946   2.137 -0.2962  0.0512 -0.1415
 2066poe    c2311826   1.215   2.062   2.081 -0.3569 -0.1250 -0.4455
 2066poe    c2311827   1.255   2.053   1.933  0.1093  0.1339 -0.3384
 2066poe     o211828   1.239   1.923   1.881 -0.1560  0.2302 -0.5023
 2066poe    c2311829   1.291   1.922   1.750 -0.0169  0.3399 -0.4476
 2066poe    c2311830   1.278   1.783   1.686 -0.1977  0.3589 -0.4521
 2066poe     o211831   1.333   1.690   1.776 -0.3684  0.6347 -0.0654
 2066poe    c3111832   1.332   1.556   1.732  0.2643  0.5708  0.0951
 2067poe    c3111833   1.945   5.035   1.950  0.1286  0.5917 -0.4687
 2067poe     o211834   2.086   5.039   1.955  0.1406 -0.4874  0.2715
 2067poe    c2311835   2.148   4.957   1.859  0.1311  0.7267 -0.8058
 2067poe    c2311836   2.294   4.960   1.908  0.0032  0.7333 -0.4224
 2067poe     o211837   2.338   5.091   1.937  0.5719  0.4064  0.2300
 2067poe    c2311838   2.478   5.099   1.953  0.7130 -0.2680 -0.5893
 2067poe    c2311839   2.502   5.244   1.999 -0.4003 -0.1618 -0.3035
 2067poe     o211840   2.446   5.259   2.127 -0.1249 -0.2380 -0.1737
 2067poe    c2311841   2.428   5.398   2.144 -0.3757 -0.2702 -0.1672
 2067poe    c2311842   2.390   5.404   2.294  0.5902 -0.4649  0.0935
 2067poe     o211843   2.273   5.335   2.329  0.4636 -0.4482 -0.2890
 2067poe    c3111844   2.223   5.363   2.458 -0.1243  0.2398 -0.6553
 2068poe    c3111845   1.635   0.667   2.713  0.0282 -0.2283  0.8278
 2068poe     o211846   1.763   0.638   2.661 -0.2034  0.2019 -0.0086
 2068poe    c2311847   1.866   0.608   2.752 -0.1088  0.5031 -0.0124
 2068poe    c2311848   2.010   0.582   2.704 -0.3273 -0.3402 -0.2413
 2068poe     o211849   2.034   0.454   2.650  0.3183 -0.3754  0.1216
 2068poe    c2311850   1.996   0.450   2.515  0.0492  0.7719  0.1517
 2068poe    c2311851   2.081   0.346   2.439 -1.0505 -0.2372  0.2654
 2068poe     o211852   2.058   0.230   2.515  0.1722 -0.2875  0.5707
 2068poe    c2311853   2.123   0.117   2.459  0.3132  0.1215 -0.1030
 2068poe    c2311854   2.107  -0.017   2.533  0.0447 -0.2269 -0.7854
 2068poe     o211855   2.153   0.012   2.663 -0.2622 -0.0213 -0.7230
 2068poe    c3111856   2.116  -0.097   2.746  0.2608  0.0743 -0.3619
 2069poe    c3111857   4.774   5.146   6.118 -0.4470 -0.3555  0.8689
 2069poe     o211858   4.713   5.268   6.154 -0.2871 -0.1342  0.4032
 2069poe    c2311859   4.701   5.360   6.048  0.2064  0.3912  0.7977
 2069poe    c2311860   4.617   5.474   6.109 -0.4647  0.3075  0.0575
 2069poe     o211861   4.669   5.502   6.237  0.1935  0.6372 -0.2723
 2069poe    c2311862   4.590   5.603   6.297 -0.2145  0.2596 -0.1696
 2069poe    c2311863   4.650   5.622   6.437 -0.6004 -0.4046  0.0917
 2069poe     o211864   4.654   5.504   6.514 -0.3663 -0.0679  0.6059
 2069poe    c2311865   4.704   5.534   6.643  1.1585 -0.1801  0.0650
 2069poe    c2311866   4.721   5.405   6.725  0.5581 -0.3250 -0.0270
 2069poe     o211867   4.837   5.338   6.681  0.5284 -0.0225 -0.5689
 2069poe    c3111868   4.851   5.217   6.752  0.9433  0.4319  0.1323
 2070poe    c3111869   4.773   4.611   1.063 -0.3217  0.7211 -0.2456
 2070poe     o211870   4.882   4.649   1.144 -0.0743  0.4497 -0.4464
 2070poe    c2311871   4.843   4.756   1.227  0.2001  0.1471  0.0821
 2070poe    c2311872   4.938   4.760   1.348  0.1083 -0.5273  0.1780
 2070poe     o211873   5.063   4.800   1.296  0.0098 -0.5057 -0.0456
 2070poe    c2311874   5.155   4.842   1.394  0.3734 -0.6253 -0.3349
 2070poe    c2311875   5.297   4.858   1.337  0.4742  0.4017  0.1829
 2070poe     o211876   5.349   4.735   1.292  0.2204  0.1765  0.5054
 2070poe    c2311877   5.481   4.756   1.248  0.2073 -0.3411  0.2088
 2070poe    c2311878   5.517   4.659   1.134 -0.4245 -0.2187 -0.0954
 2070poe     o211879   5.503   4.523   1.170  0.1381 -0.3171 -0.2484
 2070poe    c3111880   5.636   4.476   1.160  0.3341  0.0942  0.3168
 2071poe    c3111881   5.953   4.278   4.106 -0.2483 -0.4103  0.2416
 2071poe     o211882   5.889   4.225   3.993 -0.1878  0.1947 -0.0847
 2071poe    c2311883   5.973   4.122   3.946 -0.6368 -0.1094 -0.2291
 2071poe    c2311884   5.931   4.063   3.810 -0.3230  0.4356 -0.5651
 2071poe     o211885   5.813   3.986   3.823  0.1422 -0.2241 -0.1948
 2071poe    c2311886   5.790   3.919   3.701  0.1766  0.0594 -0.3580
 2071poe    c2311887   5.670   3.826   3.726 -0.2148  0.7166  0.2232
 2071poe     o211888   5.562   3.905   3.773 -0.2619  0.7311  0.0895
 2071poe    c2311889   5.459   3.821   3.820  0.3395 -0.0318  0.0796
 2071poe    c2311890   5.344   3.920   3.848  0.1111 -0.4049  0.4800
 2071poe     o211891   5.401   4.034   3.907 -0.1279  0.1925 -0.4136
 2071poe    c3111892   5.305   4.136   3.923 -0.2272  0.0589 -0.1591
 2072poe    c3111893   4.062   1.017   3.499  0.0278 -0.0596  0.1536
 2072poe     o211894   4.153   1.027   3.607  0.0288 -0.2135  0.1680
 2072poe    c2311895   4.090   0.985   3.725 -0.0813  0.0725  0.2126
 2072poe    c2311896   4.181   1.024   3.843  0.2740  0.4865 -0.1958
 2072poe     o211897   4.306   0.959   3.834  0.0375 -0.0361  0.2405
 2072poe    c2311898   4.352   0.939   3.966 -0.2695 -0.3871  0.2957
 2072poe    c2311899   4.466   0.837   3.958 -0.3805 -0.5087  0.2704
 2072poe     o211900   4.552   0.871   3.852  0.0101 -0.1477  0.6957
 2072poe    c2311901   4.626   0.765   3.796  0.0500  0.1323  0.2065
 2072poe    c2311902   4.718   0.843   3.701 -0.4901  0.6763  0.1250
 2072poe     o211903   4.636   0.937   3.634 -0.5829  0.5418  0.0505
 2072poe    c3111904   4.710   1.003   3.534 -0.3031 -0.4956 -0.4450
 2073poe    c3111905   0.347   1.972   1.978 -0.1800  0.3828  0.2730
 2073poe     o211906   0.367   1.967   1.838 -0.3751  0.3539  0.2451
 2073poe    c2311907   0.416   2.087   1.783 -0.3971  0.1395 -0.2438
 2073poe    c2311908   0.468   2.066   1.640 -0.7740 -0.2266 -0.3289
 2073poe     o211909   0.548   1.950   1.649 -0.7735 -0.1772  0.3315
 2073poe    c2311910   0.602   1.927   1.521  0.4975  0.7272  0.6892
 2073poe    c2311911   0.696   1.805   1.512 -0.2331  0.1795  0.3028
 2073poe     o211912   0.617   1.689   1.504 -0.2451  0.1971  0.1670
 2073poe    c2311913   0.685   1.566   1.493 -0.0075  0.2687  0.7667
 2073poe    c2311914   0.580   1.453   1.492 -0.1795  0.4287 -0.1404
 2073poe     o211915   0.492   1.479   1.598 -0.0528  0.6079 -0.0786
 2073poe    c3111916   0.390   1.383   1.613 -0.1219  0.6398 -0.3399
 2074poe    c3111917   1.826   3.674   2.085  0.5587  0.3060 -0.0423
 2074poe     o211918   1.813   3.688   2.224 -0.1786  0.3434 -0.1134
 2074poe    c2311919   1.930   3.747   2.274 -0.0371 -0.1162  0.1077
 2074poe    c2311920   1.949   3.710   2.423 -0.3754 -1.0748 -0.0807
 2074poe     o211921   1.821   3.724   2.479 -0.1235  0.5649  0.1496
 2074poe    c2311922   1.803   3.681   2.612 -0.2266 -0.6498 -0.2426
 2074poe    c2311923   1.659   3.703   2.661 -0.1617  0.0690 -0.3580
 2074poe     o211924   1.567   3.629   2.583 -0.1231  0.0255 -0.3623
 2074poe    c2311925   1.453   3.626   2.665 -0.0673  0.1543 -0.2780
 2074poe    c2311926   1.352   3.530   2.599 -0.2266  0.2384 -0.1561
 2074poe     o211927   1.262   3.589   2.507  0.0002  0.0194 -0.5216
 2074poe    c3111928   1.175   3.486   2.467  0.2169 -0.2768 -0.2365
 2075poe    c3111929   3.210   3.976   0.966 -0.0518 -0.6466  0.6126
 2075poe     o211930   3.118   3.904   0.887 -0.2974  0.3750 -0.0481
 2075poe    c2311931   3.088   3.982   0.774  0.0272  0.3893 -0.1245
 2075poe    c2311932   2.937   3.969   0.748  0.0698 -0.0409 -0.1581
 2075poe     o211933   2.900   3.835   0.725 -0.0697  0.0955 -0.7539
 2075poe    c2311934   2.760   3.824   0.708 -0.1833  0.3098  0.0225
 2075poe    c2311935   2.721   3.687   0.649  0.2634  0.0960  0.2119
 2075poe     o211936   2.750   3.585   0.742  0.5028  0.0976  0.1397
 2075poe    c2311937   2.701   3.462   0.692  0.6999  0.0743  0.0014
 2075poe    c2311938   2.764   3.340   0.761 -0.2245 -0.1245  0.5105
 2075poe     o211939   2.902   3.330   0.783 -0.0525 -0.1347 -0.5270
 2075poe    c3111940   2.928   3.204   0.841  0.2649  0.1635 -0.0109
 2076poe    c3111941   4.658   4.781   3.106 -0.0682  0.5240 -0.0974
 2076poe     o211942   4.742   4.796   3.218  0.1318  0.0133 -0.1762
 2076poe    c2311943   4.796   4.926   3.221  0.2529 -0.0348 -0.3124
 2076poe    c2311944   4.881   4.962   3.344 -0.1828 -0.4620  0.1149
 2076poe     o211945   5.002   4.891   3.361 -0.0481 -0.1882  0.3090
 2076poe    c2311946   5.044   4.894   3.496 -0.2790  0.0120  0.3772
 2076poe    c2311947   5.131   4.769   3.516 -0.0946  0.0555 -0.1153
 2076poe     o211948   5.044   4.663   3.551  0.0632 -0.2340 -0.5982
 2076poe    c2311949   5.125   4.551   3.581 -0.0524 -0.0738  0.3369
 2076poe    c2311950   5.028   4.457   3.655 -0.1018  0.0756  0.4622
 2076poe     o211951   4.918   4.416   3.576  0.2731 -0.0988  0.0223
 2076poe    c3111952   4.843   4.332   3.660 -0.0507  0.0824 -0.0835
 2077poe    c3111953   3.872   4.862   1.608 -0.3477  0.2095 -0.0287
 2077poe     o211954   3.896   4.757   1.699  0.5904  0.0173 -0.4863
 2077poe    c2311955   3.864   4.626   1.658 -0.4899 -0.1018  0.6743
 2077poe    c2311956   3.940   4.526   1.747  0.2333 -0.1952 -0.0324
 2077poe     o211957   4.079   4.517   1.724  0.2055 -0.1595 -0.2110
 2077poe    c2311958   4.148   4.447   1.824 -0.4649  0.2527  0.5552
 2077poe    c2311959   4.285   4.517   1.832  0.0453 -0.6612  0.0909
 2077poe     o211960   4.324   4.533   1.697  0.1873  0.2232  0.2261
 2077poe    c2311961   4.458   4.565   1.666  0.3026  0.1990  0.6809
 2077poe    c2311962   4.490   4.583   1.516 -0.2784  0.4807  0.5863
 2077poe     o211963   4.439   4.471   1.448  0.3089  0.4216  0.2370
 2077poe    c3111964   4.477   4.447   1.314  0.5396  0.3481  0.3152
 2078poe    c3111965   5.109   1.339   6.104  0.0747  0.3652 -0.0243
 2078poe     o211966   5.126   1.236   6.010  0.0701  0.0598  0.3075
 2078poe    c2311967   5.260   1.193   5.996  0.1869  0.5939 -0.2538
 2078poe    c2311968   5.280   1.063   5.916  0.3620  0.2138  0.3939
 2078poe     o211969   5.170   1.061   5.827  0.5473  0.1935  0.1646
 2078poe    c2311970   5.192   0.957   5.734 -0.3735  0.3243 -0.2087
 2078poe    c2311971   5.089   0.970   5.621  0.0227 -0.1143 -0.6259
 2078poe     o211972   4.974   1.009   5.692 -0.0349 -0.4106 -0.5553
 2078poe    c2311973   4.867   0.984   5.604 -0.4182  0.7945 -0.4559
 2078poe    c2311974   4.739   0.954   5.685  0.0967 -0.0632  0.0516
 2078poe     o211975   4.738   0.819   5.726  0.3501 -0.0214  0.2059
 2078poe    c3111976   4.708   0.726   5.624 -0.4629 -0.0456  0.4587
 2079poe    c3111977   6.032   2.257   6.727 -1.0324  0.3602  0.5549
 2079poe     o211978   6.063   2.129   6.776 -0.6506  0.2889  0.1313
 2079poe    c2311979   5.994   2.117   6.898 -0.6054  0.0290  0.1323
 2079poe    c2311980   5.979   1.966   6.924  0.0748 -0.1784 -0.6323
 2079poe     o211981   6.096   1.898   6.965 -0.0974 -0.0933  0.0161
 2079poe    c2311982   6.075   1.770   7.021 -0.2659 -0.1253 -0.1217
 2079poe    c2311983   6.050   1.667   6.909  0.1986 -0.2884 -0.0761
 2079poe     o211984   6.154   1.659   6.814  0.1277 -0.1387 -0.1665
 2079poe    c2311985   6.103   1.592   6.701 -0.1496 -0.0574 -0.0917
 2079poe    c2311986   6.213   1.605   6.594  0.3990  0.0979  0.4906
 2079poe     o211987   6.218   1.742   6.560  0.6651 -0.0167  0.0625
 2079poe    c3111988   6.297   1.769   6.446 -0.1933  0.0837 -0.5145
 2080poe    c3111989   3.368   2.105   4.612 -0.1327 -0.7024 -0.4167
 2080poe     o211990   3.289   2.060   4.720 -0.1072  0.3059  0.0338
 2080poe    c2311991   3.329   2.122   4.840  0.0577 -0.2388  0.2611
 2080poe    c2311992   3.218   2.115   4.948 -0.1789 -0.1026  0.0270
 2080poe     o211993   3.183   1.981   4.974 -0.0801 -0.1490 -0.0752
 2080poe    c2311994   3.075   1.975   5.064 -0.0316  0.1755  0.0065
 2080poe    c2311995   2.996   1.850   5.021  0.0928  0.0944  0.0156
 2080poe     o211996   3.079   1.740   4.990 -0.0425 -0.0457  0.1476
 2080poe    c2311997   2.992   1.630   4.976  0.0872 -0.1128 -0.1342
 2080poe    c2311998   3.097   1.517   4.975 -0.1701 -0.3617  0.5900
 2080poe     o211999   3.217   1.557   4.912 -0.0798 -0.2961  0.8015
 2080poe    c3112000   3.276   1.441   4.858 -0.4364  0.0220 -0.2994
 2081poe    c3112001   4.165   5.093   0.823  0.2861  0.5642  0.3717
 2081poe     o212002   4.302   5.063   0.836  0.1309 -0.2268  0.2209
 2081poe    c2312003   4.356   5.037   0.708  0.7799  0.8574  0.2599
 2081poe    c2312004   4.477   4.943   0.715 -0.1097 -0.2998  0.5746
 2081poe     o212005   4.590   4.990   0.785  0.3263 -0.0405 -0.2839
 2081poe    c2312006   4.684   4.885   0.785  0.2794 -0.0829 -0.4894
 2081poe    c2312007   4.817   4.934   0.844 -0.0322 -0.0892  0.2267
 2081poe     o212008   4.786   5.004   0.963  0.5701 -0.2629  0.4942
 2081poe    c2312009   4.897   5.082   1.002  0.5357 -0.1596  0.3862
 2081poe    c2312010   4.845   5.176   1.112 -0.4125  0.0932 -0.2634
 2081poe     o212011   4.730   5.242   1.063 -0.4457 -0.2615 -0.6674
 2081poe    c3112012   4.676   5.322   1.165 -0.0334 -0.5472 -0.2176
 2082poe    c3112013   5.792   6.743   5.845  0.3997 -0.3515  0.1838
 2082poe     o212014   5.866   6.747   5.725 -0.1429 -0.3170 -0.1536
 2082poe    c2312015   5.950   6.633   5.718  0.5266  0.1191  0.5655
 2082poe    c2312016   6.007   6.611   5.577 -0.1667  0.5296  0.2114
 2082poe     o212017   6.096   6.703   5.518  0.4147 -0.0817  0.1168
 2082poe    c2312018   6.163   6.655   5.403 -0.6941 -0.1465 -0.5147
 2082poe    c2312019   6.224   6.783   5.344 -0.4276 -0.0844 -0.1100
 2082poe     o212020   6.148   6.861   5.255  0.0240  0.3822 -0.0906
 2082poe    c2312021   6.234   6.970   5.230 -0.4117  0.8688  0.4954
 2082poe    c2312022   6.199   7.037   5.095  0.7045  0.2741 -0.1022
 2082poe     o212023   6.229   6.949   4.990  0.0245 -0.1716  0.0750
 2082poe    c3112024   6.202   7.019   4.871 -0.3703 -0.0921  0.2113
 2083poe    c3112025   5.655   2.812   4.158  0.3016  0.5969  0.4978
 2083poe     o212026   5.544   2.846   4.237 -0.3010 -0.0733 -0.0425
 2083poe    c2312027   5.429   2.889   4.166 -0.2148  0.3841  0.0913
 2083poe    c2312028   5.349   2.772   4.107  0.1635  0.2325 -0.1252
 2083poe     o212029   5.278   2.704   4.208  0.3037  0.1611 -0.0738
 2083poe    c2312030   5.223   2.580   4.171 -0.4362  0.4933 -0.1008
 2083poe    c2312031   5.144   2.521   4.290 -0.0044  0.6748  0.2769
 2083poe     o212032   5.233   2.522   4.399  0.2939  0.0680  0.0478
 2083poe    c2312033   5.184   2.438   4.502  0.2092 -0.1207 -0.1456
 2083poe    c2312034   5.286   2.456   4.615 -0.6517 -0.1289  0.6453
 2083poe     o212035   5.317   2.592   4.636 -0.0949 -0.1404 -0.0684
 2083poe    c3112036   5.359   2.630   4.765 -0.3418 -0.1149  0.0054
 2084poe    c3112037   3.273   2.382   4.135 -1.0191  0.2280  0.2454
 2084poe     o212038   3.313   2.470   4.238 -0.3306  0.0850  0.1053
 2084poe    c2312039   3.327   2.403   4.361  0.0948 -0.1919 -0.0900
 2084poe    c2312040   3.350   2.499   4.479  0.5139 -0.1832 -0.1759
 2084poe     o212041   3.416   2.609   4.422  0.3518 -0.2488 -0.4895
 2084poe    c2312042   3.482   2.676   4.527  0.0664  0.1729 -0.5739
 2084poe    c2312043   3.576   2.774   4.454  0.1623  0.3083 -0.2654
 2084poe     o212044   3.497   2.839   4.358  0.4504  0.0661 -0.6689
 2084poe    c2312045   3.539   2.971   4.330  0.1922  0.3417  0.2250
 2084poe    c2312046   3.471   3.035   4.208 -0.4281 -0.4821  0.1343
 2084poe     o212047   3.330   3.036   4.208 -0.4338 -0.8114 -0.3945
 2084poe    c3112048   3.280   3.096   4.090  0.7962  0.0659 -0.4889
 2085poe    c3112049   1.202   4.170   3.097  0.3746  0.1985  0.3026
 2085poe     o212050   1.328   4.109   3.082  0.5237  0.5053  0.2980
 2085poe    c2312051   1.340   4.063   2.949 -0.3031  0.2558  0.3046
 2085poe    c2312052   1.464   3.979   2.914 -0.5383  0.1206 -0.2056
 2085poe     o212053   1.476   3.882   3.015  0.4122  0.2077 -0.2245
 2085poe    c2312054   1.603   3.819   3.010  0.4606  0.2919 -0.0740
 2085poe    c2312055   1.610   3.700   3.107  0.8694  0.0169 -0.4387
 2085poe     o212056   1.512   3.604   3.074  0.4396  0.2613  0.1068
 2085poe    c2312057   1.536   3.477   3.128 -0.1947  0.3766  0.6763
 2085poe    c2312058   1.416   3.381   3.135 -0.0464  0.0952 -0.4169
 2085poe     o212059   1.319   3.434   3.224  0.3507 -0.3748  0.3034
 2085poe    c3112060   1.214   3.344   3.249  0.3903 -0.3980  0.3856
 2086poe    c3112061   4.914   2.598   6.510  0.2272  0.2285 -0.0193
 2086poe     o212062   4.989   2.599   6.391  0.0365  0.0316 -0.1436
 2086poe    c2312063   4.932   2.667   6.282  0.2725  0.4639 -0.0003
 2086poe    c2312064   5.002   2.643   6.147  0.1522  0.2005 -0.0166
 2086poe     o212065   5.138   2.647   6.183  0.0540 -0.3716  0.4193
 2086poe    c2312066   5.229   2.643   6.076 -0.1286  0.7690  0.2092
 2086poe    c2312067   5.324   2.524   6.103 -0.2562  0.6510  0.1466
 2086poe     o212068   5.393   2.535   6.226  0.0302  0.9362 -0.0365
 2086poe    c2312069   5.447   2.421   6.287 -0.2290  0.6139 -0.4019
 2086poe    c2312070   5.362   2.296   6.315  0.3472  0.4037  0.4813
 2086poe     o212071   5.271   2.326   6.418 -0.2957  0.2238 -0.0273
 2086poe    c3112072   5.184   2.216   6.439 -0.0730 -0.0022 -0.2813
 2087poe    c3112073   6.731   0.665   2.100 -0.1919  0.1078  0.0881
 2087poe     o212074   6.724   0.793   2.042 -0.4417 -0.0607 -0.2570
 2087poe    c2312075   6.715   0.877   2.155  0.5491 -0.2759 -0.0066
 2087poe    c2312076   6.572   0.933   2.167  0.7870  0.4158 -0.3610
 2087poe     o212077   6.521   1.009   2.059  0.1308 -0.3695 -0.6151
 2087poe    c2312078   6.417   1.096   2.094  0.3919 -0.1875 -0.2812
 2087poe    c2312079   6.384   1.183   1.971 -0.1924  0.2018  0.1441
 2087poe     o212080   6.350   1.099   1.864 -0.0828  0.0934  0.1944
 2087poe    c2312081   6.316   1.169   1.746  0.2649  0.1078  0.1014
 2087poe    c2312082   6.306   1.072   1.627  0.0780 -0.1847  0.3532
 2087poe     o212083   6.435   1.016   1.619 -0.2565 -0.9253  0.0668
 2087poe    c3112084   6.475   0.955   1.498 -0.2542  0.0043 -0.4120
 2088poe    c3112085   6.960   5.981   0.067  0.5120 -0.1692 -0.3395
 2088poe     o212086   6.948   5.925  -0.062 -0.3151 -0.5688 -0.0971
 2088poe    c2312087   6.885   5.799  -0.053 -0.6782 -0.4000 -0.2745
 2088poe    c2312088   6.911   5.715  -0.180  0.5587 -0.0575 -0.2596
 2088poe     o212089   6.898   5.808  -0.285 -0.1068 -0.3490 -0.4424
 2088poe    c2312090   6.956   5.770  -0.408  0.2364 -0.0472 -0.3773
 2088poe    c2312091   6.936   5.874  -0.520  0.0794 -0.0023 -0.3082
 2088poe     o212092   6.992   5.990  -0.463  0.1442 -0.2677  0.1703
 2088poe    c2312093   7.002   6.091  -0.560  1.1019 -0.3336  0.1974
 2088poe    c2312094   7.018   6.235  -0.509  0.1330 -0.0186 -0.3590
 2088poe     o212095   7.114   6.268  -0.410  0.0713  0.2594 -0.3910
 2088poe    c3112096   7.139   6.406  -0.401 -0.3802  0.3027  0.2425
 2089poe    c3112097   3.605   0.742   0.194 -0.3745 -0.6074  0.0152
 2089poe     o212098   3.531   0.654   0.275 -0.4423 -0.2327  0.3629
 2089poe    c2312099   3.458   0.718   0.377 -0.7260 -0.2413  0.1655
 2089poe    c2312100   3.416   0.607   0.476 -0.6455 -0.0931  0.3679
 2089poe     o212101   3.351   0.503   0.405 -0.4565  0.0687 -0.0446
 2089poe    c2312102   3.325   0.398   0.495  0.5138 -0.2442 -0.1181
 2089poe    c2312103   3.315   0.265   0.417  0.0803 -0.1880 -0.1594
 2089poe     o212104   3.415   0.255   0.318  0.3852 -0.0844  0.1345
 2089poe    c2312105   3.425   0.127   0.260  0.2211 -0.1322  0.2106
 2089poe    c2312106   3.336   0.136   0.134  0.2983 -0.2909  0.1439
 2089poe     o212107   3.398   0.186   0.018  0.1218  0.3321  0.3138
 2089poe    c3112108   3.306   0.184  -0.088  0.2496  0.6642  0.1929
 2090poe    c3112109   5.083   5.979   1.800  0.4558 -0.1641 -0.0712
 2090poe     o212110   5.104   6.063   1.911 -0.2379  0.0940 -0.1263
 2090poe    c2312111   5.203   6.151   1.863 -0.0739 -0.1017 -0.1499
 2090poe    c2312112   5.189   6.285   1.938  0.3532 -0.2919  0.2751
 2090poe     o212113   5.236   6.295   2.071  0.1094 -0.1613  0.3532
 2090poe    c2312114   5.268   6.431   2.088  0.3037 -0.1698  0.0737
 2090poe    c2312115   5.384   6.437   2.189  0.4676 -0.3967 -0.1008
 2090poe     o212116   5.354   6.347   2.293 -0.1160  0.3505  0.3883
 2090poe    c2312117   5.434   6.367   2.407 -0.0396  0.2738  0.3480
 2090poe    c2312118   5.395   6.246   2.493 -0.1776 -0.0737 -0.1951
 2090poe     o212119   5.415   6.127   2.420  0.7106 -0.1167  0.1052
 2090poe    c3112120   5.396   6.010   2.496  0.1779  0.1891  0.4501
 2091poe    c3112121   5.782   2.133   0.763  0.4610 -0.6189  0.2139
 2091poe     o212122   5.780   2.147   0.622 -0.4762 -0.1598  0.2657
 2091poe    c2312123   5.730   2.271   0.580  0.0699 -0.0437 -0.0414
 2091poe    c2312124   5.758   2.282   0.428 -0.1227  0.0708 -0.0689
 2091poe     o212125   5.721   2.170   0.351  0.1504 -0.1086  0.0599
 2091poe    c2312126   5.772   2.172   0.219 -0.0858 -0.1968 -0.0330
 2091poe    c2312127   5.730   2.050   0.135 -0.3996 -0.1692  0.0813
 2091poe     o212128   5.595   2.066   0.099 -0.3169  0.0548 -0.1302
 2091poe    c2312129   5.537   1.954   0.035 -0.6496  0.2875 -0.2386
 2091poe    c2312130   5.392   1.916   0.070 -0.4310 -0.1328  0.2172
 2091poe     o212131   5.381   1.892   0.209 -0.1440 -0.0983  0.2465
 2091poe    c3112132   5.256   1.833   0.236 -0.1537  0.0473  0.5237
 2092poe    c3112133   2.726   4.582   0.403  0.0778  0.3259 -0.0103
 2092poe     o212134   2.704   4.702   0.331 -0.1381  0.4248  0.2173
 2092poe    c2312135   2.812   4.786   0.363 -0.0330  0.1961  0.4758
 2092poe    c2312136   2.764   4.932   0.344 -0.1458  0.1599  0.4824
 2092poe     o212137   2.730   4.966   0.212  0.1467 -0.3270  0.2771
 2092poe    c2312138   2.638   5.073   0.213 -0.0588 -0.4990  0.0867
 2092poe    c2312139   2.553   5.088   0.085 -0.2843 -0.0112  0.2901
 2092poe     o212140   2.453   4.990   0.072  0.2080 -0.5295  0.3392
 2092poe    c2312141   2.394   4.991  -0.056  0.2106  0.0188  0.3374
 2092poe    c2312142   2.321   4.857  -0.079 -0.1540  0.1545  0.6936
 2092poe     o212143   2.403   4.742  -0.073  0.2089  0.3856  0.2139
 2092poe    c3112144   2.327   4.642  -0.136  0.7638 -0.1948  0.4571
 2093poe    c3112145   3.336   4.098   3.260  0.0062  0.1376 -0.7627
 2093poe     o212146   3.473   4.107   3.228  0.3336  0.2821  0.5873
 2093poe    c2312147   3.480   4.186   3.112 -0.0046 -0.3988  0.0907
 2093poe    c2312148   3.628   4.181   3.068  0.0751  0.6643  0.2114
 2093poe     o212149   3.677   4.049   3.072 -0.3260  0.4970 -0.3261
 2093poe    c2312150   3.818   4.052   3.076 -0.2913 -0.7118 -0.2830
 2093poe    c2312151   3.877   3.910   3.086 -0.1908 -0.6452  0.0799
 2093poe     o212152   3.833   3.841   3.200 -0.1481 -0.6243  0.1092
 2093poe    c2312153   3.885   3.712   3.218  0.3237 -0.4008  0.3612
 2093poe    c2312154   3.829   3.648   3.346  0.1494  0.1999  0.5876
 2093poe     o212155   3.689   3.631   3.342  0.1981 -0.0434 -0.0791
 2093poe    c3112156   3.644   3.575   3.463 -0.0825 -0.2794 -0.2930
 2094poe    c3112157   2.138   6.727   6.414 -0.1097  0.0199  0.1681
 2094poe     o212158   2.240   6.804   6.475 -0.0868  0.1028  0.0258
 2094poe    c2312159   2.341   6.828   6.380  0.1460  0.4957  0.3710
 2094poe    c2312160   2.473   6.871   6.446  0.3305  0.6980 -0.1201
 2094poe     o212161   2.462   6.982   6.532  0.0331  0.2979  0.3683
 2094poe    c2312162   2.591   7.034   6.556  0.1290  0.2555 -0.0471
 2094poe    c2312163   2.577   7.161   6.643 -0.0146  0.1370  0.1029
 2094poe     o212164   2.523   7.121   6.767  0.1365 -0.0141  0.1210
 2094poe    c2312165   2.509   7.240   6.841  0.0775 -0.4140  0.7557
 2094poe    c2312166   2.378   7.222   6.921 -0.4424  0.8051  0.2077
 2094poe     o212167   2.280   7.163   6.839  0.1678  0.1776 -0.0866
 2094poe    c3112168   2.155   7.215   6.881  0.0548 -0.0497 -0.1386
 2095poe    c3112169   5.220   1.941   1.544 -0.3008  0.0536  0.2734
 2095poe     o212170   5.131   1.862   1.468 -0.1064  0.0780  0.0189
 2095poe    c2312171   5.036   1.785   1.539  0.3470 -0.2524  0.2783
 2095poe    c2312172   4.929   1.834   1.638  0.0662 -0.3145  0.0060
 2095poe     o212173   4.980   1.892   1.756  0.0169 -0.1116 -0.0726
 2095poe    c2312174   4.879   1.941   1.841  0.2805  0.4969 -0.1058
 2095poe    c2312175   4.933   1.926   1.984 -0.4272  0.1915  0.1354
 2095poe     o212176   4.952   1.800   2.045  0.3597  0.3822  0.3025
 2095poe    c2312177   5.029   1.829   2.159  0.0056  0.5721  0.4970
 2095poe    c2312178   5.074   1.709   2.245 -0.5589  0.1107  0.1555
 2095poe     o212179   5.169   1.642   2.165 -0.4042  0.5335 -0.0158
 2095poe    c3112180   5.263   1.592   2.257 -0.3994 -0.2033 -0.4124
 2096poe    c3112181   2.758   2.137   2.814  0.0434 -0.6662  0.6308
 2096poe     o212182   2.817   2.069   2.705  0.2881  0.0038  0.3448
 2096poe    c2312183   2.855   1.937   2.737 -0.0953 -0.3185 -0.5031
 2096poe    c2312184   2.939   1.866   2.629  0.1589  0.1007 -0.5851
 2096poe     o212185   2.852   1.833   2.523 -0.6911 -0.0426  0.1436
 2096poe    c2312186   2.805   1.702   2.547 -0.3856 -0.1246  0.3107
 2096poe    c2312187   2.700   1.659   2.442  0.3082 -0.2599 -0.3384
 2096poe     o212188   2.576   1.726   2.440  0.1791 -0.5085 -0.7269
 2096poe    c2312189   2.490   1.650   2.359  0.2912 -1.1589 -0.2452
 2096poe    c2312190   2.350   1.701   2.398  0.5446 -0.4907 -0.1989
 2096poe     o212191   2.314   1.668   2.530  0.2933  0.1584 -0.1001
 2096poe    c3112192   2.191   1.730   2.558 -0.0189 -0.6458  0.3670
 2097poe    c3112193   3.370   4.907   1.087  0.3561  0.8133  0.2349
 2097poe     o212194   3.248   4.959   1.135 -0.5224 -0.2668 -0.7491
 2097poe    c2312195   3.249   5.100   1.127 -0.3131 -0.1776  0.6034
 2097poe    c2312196   3.164   5.168   1.236 -0.5435  0.4788  0.0232
 2097poe     o212197   3.060   5.073   1.248  0.0039 -0.1477 -0.1239
 2097poe    c2312198   2.955   5.126   1.326 -0.4327 -0.2956 -0.6010
 2097poe    c2312199   2.883   5.027   1.420 -0.7378  0.3781 -0.1150
 2097poe     o212200   2.841   4.916   1.343  0.0728 -0.1628  0.2081
 2097poe    c2312201   2.759   4.815   1.397 -0.1273 -0.0845  0.0514
 2097poe    c2312202   2.827   4.677   1.413 -0.4027 -0.2708 -0.3497
 2097poe     o212203   2.954   4.685   1.473 -0.7287  0.2995  0.2883
 2097poe    c3112204   2.989   4.559   1.525 -0.0477  0.4835  0.2824
 2098poe    c3112205   4.041   1.553   5.882 -0.3036  0.2177  0.1983
 2098poe     o212206   4.075   1.562   6.018 -0.1642  0.0095  0.1767
 2098poe    c2312207   3.988   1.647   6.089  0.0025 -0.0006  0.3964
 2098poe    c2312208   4.063   1.695   6.215  0.7566 -0.2989  0.0674
 2098poe     o212209   4.176   1.777   6.198  0.6490 -0.2259 -0.3085
 2098poe    c2312210   4.241   1.821   6.315 -0.1815 -0.2872  0.1853
 2098poe    c2312211   4.376   1.884   6.274 -0.3849 -0.2077 -0.3782
 2098poe     o212212   4.450   1.796   6.194  0.0863 -0.1523 -0.0113
 2098poe    c2312213   4.582   1.844   6.177 -0.2259  0.3708 -1.0706
 2098poe    c2312214   4.648   1.751   6.073  0.0450 -0.4943 -0.1433
 2098poe     o212215   4.559   1.744   5.964  0.3314  0.2756 -0.4340
 2098poe    c3112216   4.627   1.725   5.843  0.9098  0.0435 -0.0780
 2099poe    c3112217   0.872   5.838   1.088  0.0782  0.0353  0.3959
 2099poe     o212218   0.732   5.827   1.080  0.1206 -0.0762 -0.1973
 2099poe    c2312219   0.690   5.911   0.975  0.6815  0.2375 -0.1734
 2099poe    c2312220   0.547   5.871   0.935  0.6904 -0.2878  0.3151
 2099poe     o212221   0.459   5.883   1.045  0.5123  0.1181  0.1324
 2099poe    c2312222   0.333   5.828   1.012  0.4056  0.3507  0.1489
 2099poe    c2312223   0.237   5.812   1.131  0.0991 -0.1197 -0.1576
 2099poe     o212224   0.303   5.727   1.223  0.2060 -0.3196 -0.4186
 2099poe    c2312225   0.223   5.694   1.334  0.3607 -0.1583 -0.2585
 2099poe    c2312226   0.300   5.658   1.462  0.1836  0.3309 -0.0120
 2099poe     o212227   0.409   5.747   1.478 -0.0085  0.6035 -0.2151
 2099poe    c3112228   0.446   5.735   1.614 -0.1983 -0.0479 -0.2189
 2100poe    c3112229   0.899   4.095   4.738  0.3035  0.8954 -0.0677
 2100poe     o212230   0.793   4.058   4.652  0.4959 -0.0723  0.0984
 2100poe    c2312231   0.831   4.078   4.518  0.5954 -0.0583  0.1289
 2100poe    c2312232   0.711   4.037   4.430  0.0599 -0.3336  0.9750
 2100poe     o212233   0.593   4.061   4.503 -0.4216  0.4168 -0.0378
 2100poe    c2312234   0.483   4.077   4.416 -0.3065 -0.5667 -0.3864
 2100poe    c2312235   0.371   4.013   4.500 -0.5169  0.4762  0.1572
 2100poe     o212236   0.383   4.059   4.632 -0.3971 -0.3148  0.4304
 2100poe    c2312237   0.333   3.961   4.720 -0.6241  0.1791  0.8623
 2100poe    c2312238   0.416   3.977   4.849 -0.0494 -0.2286  0.5499
 2100poe     o212239   0.555   3.988   4.825 -0.2203  0.3346 -0.2052
 2100poe    c3112240   0.615   3.987   4.952 -0.0799 -0.5217 -0.2777
 2101poe    c3112241   0.871   2.978   1.139  0.0005  0.3870  0.9427
 2101poe     o212242   1.000   2.961   1.192  0.2001 -0.4173  0.2187
 2101poe    c2312243   1.090   2.895   1.105  0.4575  0.1254  0.0659
 2101poe    c2312244   1.220   2.843   1.169  0.7687  0.2821 -0.4323
 2101poe     o212245   1.299   2.941   1.231 -0.1556  0.4462  0.5258
 2101poe    c2312246   1.407   2.867   1.283  0.0612  0.2094 -0.2474
 2101poe    c2312247   1.486   2.972   1.363  0.3099 -0.5202  0.4761
 2101poe     o212248   1.397   3.028   1.458 -0.1489 -0.0859 -0.2012
 2101poe    c2312249   1.470   3.120   1.536 -0.0500 -0.6278  0.3484
 2101poe    c2312250   1.373   3.178   1.640 -0.3973  0.2586 -0.4599
 2101poe     o212251   1.264   3.234   1.570 -0.6493  0.1555 -0.1578
 2101poe    c3112252   1.193   3.334   1.638  0.0415  0.1909  0.5200
 2102poe    c3112253   0.943   6.236   4.669 -0.1633  0.1053  0.8158
 2102poe     o212254   0.900   6.158   4.779  0.1198 -0.2559  0.6718
 2102poe    c2312255   0.764   6.123   4.767  0.1210 -0.0771  0.0935
 2102poe    c2312256   0.670   6.216   4.845 -0.3303 -0.2362 -0.2563
 2102poe     o212257   0.679   6.196   4.984 -0.1885 -0.0269 -0.2342
 2102poe    c2312258   0.585   6.279   5.049 -0.1707 -0.1833 -0.0090
 2102poe    c2312259   0.580   6.249   5.200 -0.3955  0.2758  0.0756
 2102poe     o212260   0.698   6.286   5.269 -0.0535 -0.1627 -0.2670
 2102poe    c2312261   0.727   6.196   5.374 -0.1558 -0.0748 -0.1627
 2102poe    c2312262   0.821   6.250   5.483 -0.2357  0.0537 -0.1557
 2102poe     o212263   0.950   6.289   5.443 -0.2417 -0.4772 -0.7069
 2102poe    c3112264   0.963   6.429   5.441 -0.1611 -0.4619  0.2127
 2103poe    c3112265   5.303   3.617   4.143 -0.2982  0.4721  0.2067
 2103poe     o212266   5.299   3.718   4.242 -0.4141  0.0879  0.5940
 2103poe    c2312267   5.196   3.802   4.194  0.2293  0.5128 -0.0532
 2103poe    c2312268   5.173   3.935   4.268  0.0523  0.3247  0.2349
 2103poe     o212269   5.279   4.027   4.269  0.4523 -0.1342  0.1381
 2103poe    c2312270   5.256   4.145   4.344 -0.4680 -0.0172 -0.3118
 2103poe    c2312271   5.376   4.239   4.323 -0.4041 -0.0336 -0.0263
 2103poe     o212272   5.479   4.205   4.413  0.0022  0.1076 -0.4323
 2103poe    c2312273   5.568   4.314   4.408  0.1097  0.0074 -0.7231
 2103poe    c2312274   5.707   4.319   4.475 -0.4689 -0.2395  0.5363
 2103poe     o212275   5.795   4.226   4.414 -0.1706  0.1026  0.4395
 2103poe    c3112276   5.912   4.224   4.493  0.5486 -0.4937 -0.6239
 2104poe    c3112277   0.155   1.552   1.011  0.0629 -0.0883 -0.0103
 2104poe     o212278   0.185   1.463   0.906 -0.0794  0.3078 -0.3904
 2104poe    c2312279   0.315   1.412   0.926 -0.2316  0.1149  0.1397
 2104poe    c2312280   0.351   1.324   0.805  0.2122  0.3276  0.1135
 2104poe     o212281   0.237   1.250   0.766  0.5941 -0.1931 -0.0254
 2104poe    c2312282   0.266   1.168   0.655  0.3915 -0.5854  0.2128
 2104poe    c2312283   0.143   1.077   0.632 -0.0304 -0.0009  0.1467
 2104poe     o212284   0.024   1.153   0.631 -0.0389 -0.0115  0.2621
 2104poe    c2312285  -0.082   1.061   0.637 -0.0686  0.0296  0.3574
 2104poe    c2312286  -0.212   1.136   0.600 -0.3037 -0.2913  0.5271
 2104poe     o212287  -0.253   1.238   0.688  0.4467  0.1248  0.4031
 2104poe    c3112288  -0.382   1.280   0.649  0.6733  0.0576 -0.4377
 2105poe    c3112289   0.479   1.611   2.327 -0.1466  0.9285 -0.1998
 2105poe     o212290   0.600   1.664   2.377  0.4173 -0.3265 -0.1765
 2105poe    c2312291   0.678   1.715   2.271  0.0478  0.0997 -0.2487
 2105poe    c2312292   0.804   1.762   2.345  0.0265 -0.0322 -0.1289
 2105poe     o212293   0.767   1.815   2.470 -0.3035 -0.2332 -0.1386
 2105poe    c2312294   0.871   1.905   2.504 -0.5341 -0.1178  0.2675
 2105poe    c2312295   0.906   1.893   2.654  0.5413 -0.1221  0.0209
 2105poe     o212296   0.980   1.775   2.675 -0.4012 -0.7242 -0.0008
 2105poe    c2312297   0.992   1.753   2.813 -0.3221 -0.1524  0.0833
 2105poe    c2312298   1.026   1.605   2.836 -0.3927 -0.1601  0.1393
 2105poe     o212299   0.911   1.526   2.816 -0.5778  0.1845 -0.1552
 2105poe    c3112300   0.899   1.411   2.897 -0.1035  0.1279 -0.1659
 2106poe    c3112301   5.628   2.895   5.652 -0.3855  0.1278  0.4900
 2106poe     o212302   5.695   2.772   5.637  0.1650  0.4133  0.5996
 2106poe    c2312303   5.825   2.763   5.692  0.4115  0.2381  0.0028
 2106poe    c2312304   5.894   2.631   5.654  0.4535  0.2792 -0.0634
 2106poe     o212305   5.814   2.524   5.698  0.5400  0.2756  0.0896
 2106poe    c2312306   5.866   2.400   5.655 -0.0813  0.0236  0.0512
 2106poe    c2312307   5.771   2.290   5.708  0.1714 -0.2484 -0.0547
 2106poe     o212308   5.634   2.315   5.684  0.1452 -0.0556  0.2916
 2106poe    c2312309   5.546   2.233   5.758  0.3096  0.1575  0.7296
 2106poe    c2312310   5.405   2.233   5.697  0.4958  0.0715  0.2927
 2106poe     o212311   5.334   2.347   5.740 -0.1136 -0.1470 -0.1121
 2106poe    c3112312   5.196   2.335   5.713 -0.2017  0.3134  0.1217
 2107poe    c3112313   1.085   0.462   2.712  0.4915  0.5088  0.3408
 2107poe     o212314   1.048   0.328   2.735  0.5289  0.3805 -0.3089
 2107poe    c2312315   0.948   0.286   2.644  0.5590  0.0185 -0.1785
 2107poe    c2312316   0.880   0.157   2.691  0.6660 -0.1412 -0.4610
 2107poe     o212317   0.974   0.084   2.766  0.2636  0.3465  0.5364
 2107poe    c2312318   0.925  -0.046   2.791  0.1189  0.1069 -0.9332
 2107poe    c2312319   1.014  -0.132   2.883 -0.5654  0.5322  0.1475
 2107poe     o212320   1.030  -0.094   3.017 -0.2143  0.0118  0.2550
 2107poe    c2312321   1.043  -0.212   3.094 -0.1253 -0.5098 -0.5520
 2107poe    c2312322   1.176  -0.208   3.171 -0.3084 -0.1454 -0.2519
 2107poe     o212323   1.287  -0.216   3.084  0.2399  0.3957  0.3863
 2107poe    c3112324   1.414  -0.211   3.145  0.0610  0.3448  0.7662
 2108poe    c3112325   6.518   4.671   0.310 -0.1005  0.6320  0.0399
 2108poe     o212326   6.390   4.613   0.302 -0.0051  0.4601 -0.2828
 2108poe    c2312327   6.312   4.640   0.416 -0.2235  0.1663 -0.3607
 2108poe    c2312328   6.164   4.624   0.375 -0.2157 -0.1782 -0.2611
 2108poe     o212329   6.121   4.494   0.342  0.0574 -0.3121 -0.0963
 2108poe    c2312330   5.988   4.502   0.297  0.0390  0.0687  0.0165
 2108poe    c2312331   5.936   4.362   0.256 -0.3332  0.2325 -0.0726
 2108poe     o212332   6.038   4.294   0.187 -0.2593  0.7285 -0.4572
 2108poe    c2312333   5.985   4.192   0.104 -0.2302  0.1231  0.2607
 2108poe    c2312334   6.072   4.153  -0.016 -0.4225 -0.2238  0.2329
 2108poe     o212335   6.199   4.111   0.027 -0.1319  0.2795 -0.1169
 2108poe    c3112336   6.263   4.035  -0.074  0.1930  0.2915  0.0799
 2109poe    c3112337   1.333   1.803   3.171  0.4780 -0.4872 -0.0145
 2109poe     o212338   1.440   1.851   3.093  0.3085 -0.3893 -0.1874
 2109poe    c2312339   1.409   1.932   2.981  0.2165  0.0861  0.1808
 2109poe    c2312340   1.540   1.974   2.911 -0.0114  0.4085 -0.0565
 2109poe     o212341   1.624   1.864   2.941 -0.0234  0.4008 -0.0508
 2109poe    c2312342   1.695   1.820   2.827 -0.3136 -0.3293  0.0488
 2109poe    c2312343   1.840   1.801   2.876 -0.0475  0.1590 -0.5349
 2109poe     o212344   1.827   1.719   2.990  0.1896  0.4812 -0.2745
 2109poe    c2312345   1.949   1.654   3.019 -0.1957 -0.1156  0.0373
 2109poe    c2312346   1.967   1.629   3.170 -0.1152  0.3232  0.1023
 2109poe     o212347   1.852   1.577   3.234 -0.2634  0.2583 -0.2124
 2109poe    c3112348   1.875   1.584   3.373 -0.4267  0.7658 -0.2098
 2110poe    c3112349   4.637   4.039   6.163 -0.3618 -0.0397 -0.4402
 2110poe     o212350   4.516   4.016   6.232 -0.0544 -0.2061  0.0453
 2110poe    c2312351   4.408   4.027   6.143 -0.2854 -0.9716  0.2290
 2110poe    c2312352   4.277   4.008   6.221 -0.3177 -0.2435  0.3502
 2110poe     o212353   4.251   4.106   6.319 -0.1014  0.1074  0.0588
 2110poe    c2312354   4.114   4.139   6.315 -0.0579  0.1951 -0.7612
 2110poe    c2312355   4.091   4.274   6.386 -0.7466 -0.2167 -0.1827
 2110poe     o212356   4.147   4.265   6.515  0.3140  0.4313 -0.5852
 2110poe    c2312357   4.190   4.397   6.542  0.5847  0.1723  0.2936
 2110poe    c2312358   4.289   4.384   6.659  0.5096 -0.3542  0.3009
 2110poe     o212359   4.370   4.275   6.624  0.3689 -0.2528 -0.3526
 2110poe    c3112360   4.460   4.260   6.732  0.1986 -0.3530 -0.2243
 2111poe    c3112361   1.690   3.111   3.040  0.6150  0.2230  0.3163
 2111poe     o212362   1.816   3.050   3.058  0.2977 -0.4862  0.1679
 2111poe    c2312363   1.910   3.119   2.980 -0.2842  0.1698  0.0382
 2111poe    c2312364   2.051   3.066   3.011 -0.0932  0.5101 -0.2366
 2111poe     o212365   2.058   3.062   3.152  0.4439 -0.1735 -0.2761
 2111poe    c2312366   2.184   3.076   3.214  0.2613  0.4463 -0.0409
 2111poe    c2312367   2.265   2.946   3.216  0.1481  0.3776  0.0411
 2111poe     o212368   2.199   2.856   3.302  0.1944  0.4714  0.1750
 2111poe    c2312369   2.259   2.728   3.302 -0.6081  0.0827  0.2465
 2111poe    c2312370   2.213   2.658   3.430  0.3995 -0.0889  0.5290
 2111poe     o212371   2.083   2.603   3.418  0.0792  0.5477  0.9819
 2111poe    c3112372   2.080   2.495   3.509 -0.4053 -0.0976  0.2157
 2112poe    c3112373   2.659   0.634   0.472 -0.3465 -0.2342 -0.2276
 2112poe     o212374   2.531   0.656   0.417 -0.2239 -0.0744 -0.4509
 2112poe    c2312375   2.455   0.737   0.504  0.5903 -0.0027  0.2051
 2112poe    c2312376   2.309   0.694   0.481  0.5780  0.1326  0.0216
 2112poe     o212377   2.303   0.694   0.341  0.7257 -0.4706  0.0089
 2112poe    c2312378   2.181   0.644   0.291  0.5960 -0.4854  0.3411
 2112poe    c2312379   2.198   0.629   0.139 -0.1750  0.3801  0.1624
 2112poe     o212380   2.315   0.555   0.111 -0.5041 -0.0463 -0.1001
 2112poe    c2312381   2.357   0.595  -0.017 -0.3623  0.0762 -0.0154
 2112poe    c2312382   2.507   0.559  -0.020 -0.2874  0.3828 -0.0475
 2112poe     o212383   2.559   0.599   0.105  0.3144  0.1542 -0.2253
 2112poe    c3112384   2.700   0.594   0.096  0.3101  0.1385 -0.2826
 2113poe    c3112385   0.138   4.314   1.500  0.0653  0.3188 -0.7446
 2113poe     o212386   0.030   4.363   1.423 -0.1553  0.1539 -0.5391
 2113poe    c2312387  -0.014   4.493   1.456 -0.2216 -0.0501  0.2051
 2113poe    c2312388  -0.154   4.529   1.403 -0.3758 -0.5218  0.2839
 2113poe     o212389  -0.259   4.446   1.447 -0.6189 -0.0385  0.6159
 2113poe    c2312390  -0.314   4.489   1.570 -0.2648 -0.1522  0.8142
 2113poe    c2312391  -0.424   4.389   1.612 -0.9001 -0.0242 -0.4996
 2113poe     o212392  -0.364   4.266   1.642  0.0077  0.3696 -0.6545
 2113poe    c2312393  -0.419   4.213   1.761  0.7090  0.3322 -0.3381
 2113poe    c2312394  -0.374   4.066   1.765  0.0985  0.1589  0.3343
 2113poe     o212395  -0.237   4.037   1.756  0.0685  0.0959  0.0761
 2113poe    c3112396  -0.233   3.900   1.790 -0.0180  0.1703  0.3904
 2114poe    c3112397   1.859   5.836   6.079 -0.5129  0.3944  0.2704
 2114poe     o212398   1.920   5.963   6.090  0.3391 -0.0088  0.3059
 2114poe    c2312399   1.824   6.048   6.149  0.0008 -0.1509 -0.0325
 2114poe    c2312400   1.826   6.180   6.070 -0.3454 -0.0262  0.1670
 2114poe     o212401   1.771   6.151   5.944  0.3055  0.0045 -0.1276
 2114poe    c2312402   1.820   6.244   5.851  0.4236  0.0002 -0.0702
 2114poe    c2312403   1.829   6.195   5.705  0.5953  0.0061 -0.0624
 2114poe     o212404   1.903   6.075   5.696 -0.0904 -0.4354  0.0455
 2114poe    c2312405   1.896   5.997   5.578  0.4569  0.2591 -0.4556
 2114poe    c2312406   1.935   5.850   5.598 -0.3184  0.0581 -0.4168
 2114poe     o212407   1.866   5.770   5.692 -0.3943  0.0018 -0.5203
 2114poe    c3112408   1.930   5.647   5.719  0.0275  0.3324  0.0102
 2115poe    c3112409   6.527   3.675   1.324 -0.1747  0.5299  0.1035
 2115poe     o212410   6.668   3.679   1.330 -0.1689  0.1749  0.2348
 2115poe    c2312411   6.708   3.796   1.399 -0.0273  0.6219 -0.5992
 2115poe    c2312412   6.859   3.822   1.401  0.0301  0.2404  0.3587
 2115poe     o212413   6.933   3.723   1.468 -0.1765 -0.2793 -0.1753
 2115poe    c2312414   7.055   3.776   1.515 -0.0489 -0.2444 -0.5470
 2115poe    c2312415   7.147   3.660   1.558  0.0643  0.0827  0.0967
 2115poe     o212416   7.184   3.582   1.447 -0.2124 -0.1823  0.1898
 2115poe    c2312417   7.280   3.482   1.474 -0.4620 -0.3342  0.5181
 2115poe    c2312418   7.315   3.388   1.357 -0.5164  0.4001 -0.0967
 2115poe     o212419   7.193   3.368   1.289 -0.5469  0.6917 -0.1300
 2115poe    c3112420   7.224   3.296   1.171 -0.2144  0.3679  0.1543
 2116poe    c3112421   4.630   1.278   3.288  0.1670  0.1204  0.0447
 2116poe     o212422   4.535   1.321   3.194  0.0131 -0.2070  0.0497
 2116poe    c2312423   4.495   1.455   3.210  0.7163 -0.0567  0.5752
 2116poe    c2312424   4.410   1.498   3.089  0.6899 -0.9626  0.2654
 2116poe     o212425   4.498   1.507   2.979 -0.1093  0.0659 -0.2999
 2116poe    c2312426   4.424   1.544   2.865  0.0424  0.1424 -0.3733
 2116poe    c2312427   4.512   1.522   2.740  0.3453 -0.0000 -0.1358
 2116poe     o212428   4.527   1.382   2.734  0.5974  0.0219 -0.0505
 2116poe    c2312429   4.625   1.350   2.638  0.0380  0.4505 -0.7779
 2116poe    c2312430   4.670   1.203   2.649  0.6025  0.6516 -0.3769
 2116poe     o212431   4.687   1.159   2.782 -0.6499 -0.3275 -0.5262
 2116poe    c3112432   4.760   1.041   2.759 -0.3341 -0.1841 -0.2551
 2117poe    c3112433   6.803   5.000   1.086  0.5290 -0.8925 -0.2177
 2117poe     o212434   6.943   5.007   1.070  0.5762 -0.4073  0.3661
 2117poe    c2312435   6.980   5.045   0.939 -0.0930 -0.9803 -0.0008
 2117poe    c2312436   7.134   5.034   0.935 -0.0262 -0.0609 -0.0507
 2117poe     o212437   7.200   5.115   1.030  1.0521  0.1409 -0.9543
 2117poe    c2312438   7.262   5.234   0.986  0.3407  0.7765 -0.2853
 2117poe    c2312439   7.289   5.320   1.111 -0.1884 -0.2083  0.5186
 2117poe     o212440   7.358   5.228   1.194 -0.2156 -0.4769  0.2456
 2117poe    c2312441   7.406   5.290   1.311 -0.6280  0.2026  0.0622
 2117poe    c2312442   7.447   5.173   1.401 -0.2933 -0.0766 -0.4480
 2117poe     o212443   7.348   5.073   1.391 -0.0236 -0.3473 -0.4602
 2117poe    c3112444   7.358   4.979   1.496  0.3306  0.1192 -0.0712
 2118poe    c3112445   5.053   4.407   2.962  0.2508  0.3325 -0.5302
 2118poe     o212446   5.135   4.435   3.073  0.3026  0.1172 -0.5153
 2118poe    c2312447   5.236   4.339   3.100  0.1778  0.2001  0.2866
 2118poe    c2312448   5.315   4.403   3.216  1.2946 -0.2840 -0.1972
 2118poe     o212449   5.321   4.543   3.200  0.0893 -0.2061 -0.0846
 2118poe    c2312450   5.417   4.593   3.290 -0.3079  0.1358  0.1485
 2118poe    c2312451   5.493   4.718   3.242  0.0441  0.0061  0.3625
 2118poe     o212452   5.410   4.828   3.214 -0.2988 -0.3382  0.0082
 2118poe    c2312453   5.468   4.915   3.119 -0.1385 -0.3113  0.1314
 2118poe    c2312454   5.366   5.028   3.094  0.4753  0.2331  0.0530
 2118poe     o212455   5.252   4.997   3.017  0.6413  0.5288 -0.3108
 2118poe    c3112456   5.175   5.115   3.020  0.2762  0.2796  0.2653
 2119poe    c3112457   5.945   5.260   3.731 -0.0668 -0.0681 -0.4175
 2119poe     o212458   6.027   5.373   3.755 -0.2612  0.0187 -0.1566
 2119poe    c2312459   5.973   5.463   3.849  0.2897  0.1557  0.0321
 2119poe    c2312460   6.042   5.601   3.850 -0.0032  0.3036  0.0768
 2119poe     o212461   6.019   5.667   3.728 -0.1144 -0.1822 -0.1686
 2119poe    c2312462   6.118   5.632   3.633 -0.4559 -0.5635 -0.3858
 2119poe    c2312463   6.143   5.748   3.535  0.0662  0.1751  0.6034
 2119poe     o212464   6.206   5.866   3.579 -0.1783  0.4786  0.1500
 2119poe    c2312465   6.178   5.971   3.489 -0.3304  0.3056 -0.0062
 2119poe    c2312466   6.237   6.104   3.541  0.0478  0.2482 -0.2871
 2119poe     o212467   6.157   6.157   3.644  0.0232  0.3815 -0.3751
 2119poe    c3112468   6.205   6.278   3.697  0.4698  0.0915 -0.1079
 2120poe    c3112469   0.030   2.087   2.922  0.3429  0.7112  0.4314
 2120poe     o212470  -0.095   2.119   2.865  0.5015  0.0657 -0.2839
 2120poe    c2312471  -0.175   2.207   2.941  0.3476 -0.1571 -0.1863
 2120poe    c2312472  -0.319   2.182   2.891  0.1770 -0.1311  0.2885
 2120poe     o212473  -0.326   2.192   2.751  0.1548 -0.0169  0.2978
 2120poe    c2312474  -0.446   2.156   2.687  0.1460 -0.1260  0.3740
 2120poe    c2312475  -0.404   2.024   2.621  0.3131  0.0575  0.1105
 2120poe     o212476  -0.292   2.034   2.537  0.0163  1.1421 -0.1741
 2120poe    c2312477  -0.282   1.928   2.444  0.1371  0.5829  0.4644
 2120poe    c2312478  -0.163   1.950   2.349 -0.0843 -0.2354 -0.0110
 2120poe     o212479  -0.036   1.923   2.403  0.1292 -0.0262 -0.4041
 2120poe    c3112480   0.063   1.943   2.305  0.1793  0.2501 -0.2983
 2121poe    c3112481   5.179   6.359   4.933 -0.5699 -0.1975  0.1756
 2121poe     o212482   5.188   6.320   4.798 -0.5958 -0.2807  0.1977
 2121poe    c2312483   5.097   6.391   4.717 -0.1983 -0.1872 -0.1767
 2121poe    c2312484   5.122   6.375   4.566 -0.5987  0.0886 -0.2749
 2121poe     o212485   5.095   6.242   4.531 -0.2956 -0.0880  0.1591
 2121poe    c2312486   5.157   6.201   4.411  0.1186  0.2877  0.2432
 2121poe    c2312487   5.129   6.051   4.395 -0.2879  0.3778  0.0949
 2121poe     o212488   5.177   5.979   4.507  0.2370 -0.0118 -0.3782
 2121poe    c2312489   5.190   5.842   4.474  0.2636 -0.1386  0.1511
 2121poe    c2312490   5.282   5.781   4.582  0.0781 -0.6489  0.0212
 2121poe     o212491   5.252   5.824   4.713  0.0533 -0.3403 -0.0843
 2121poe    c3112492   5.259   5.713   4.799  0.9224 -0.2441 -0.0170
 2122poe    c3112493   6.767   4.113   3.447 -0.4565  0.3606  0.1736
 2122poe     o212494   6.797   4.037   3.561  0.0209  0.1021 -0.1214
 2122poe    c2312495   6.923   3.973   3.563  0.0644  0.1974  0.2785
 2122poe    c2312496   6.967   3.930   3.704  0.2123  0.4100  0.2964
 2122poe     o212497   6.899   3.813   3.743 -0.3577  0.5956 -0.1365
 2122poe    c2312498   6.891   3.798   3.883  0.3550 -0.2633 -0.1857
 2122poe    c2312499   6.773   3.706   3.918 -0.1008  0.1406 -0.6529
 2122poe     o212500   6.644   3.737   3.870 -0.2425 -0.4587 -0.6688
 2122poe    c2312501   6.544   3.658   3.930  0.1762 -0.2013  0.3936
 2122poe    c2312502   6.424   3.754   3.937  0.7806  0.6129 -0.2497
 2122poe     o212503   6.391   3.808   3.811  0.2318  0.1371 -0.3117
 2122poe    c3112504   6.293   3.909   3.815  0.0400 -0.0684  0.4475
 2123poe    c3112505   3.967   3.059   4.157  0.3944  0.2825  0.2317
 2123poe     o212506   3.999   2.951   4.241 -0.3833 -0.1298  0.0146
 2123poe    c2312507   4.033   3.011   4.364  0.6282  0.0142 -0.3233
 2123poe    c2312508   4.063   2.923   4.487  0.0261  0.3119  0.0382
 2123poe     o212509   3.946   2.864   4.541  0.2584 -0.1637  0.0233
 2123poe    c2312510   3.946   2.737   4.602  0.2041 -0.1153  0.1247
 2123poe    c2312511   3.926   2.745   4.754 -0.1176  0.4987  0.0536
 2123poe     o212512   3.812   2.811   4.804 -0.1409  0.5092 -0.0143
 2123poe    c2312513   3.795   2.809   4.944 -0.3614 -0.7251 -0.0477
 2123poe    c2312514   3.674   2.897   4.978  0.1866 -0.1215  0.3697
 2123poe     o212515   3.681   3.032   4.936 -0.4418 -0.2776 -0.2631
 2123poe    c3112516   3.569   3.092   4.997 -0.2851 -0.2368 -0.0143
 2124poe    c3112517   6.340   4.851   1.610  0.0178  0.1325  0.1458
 2124poe     o212518   6.377   4.742   1.528  0.5922  0.4897 -0.0770
 2124poe    c2312519   6.484   4.786   1.447  0.5925 -0.1134 -0.4145
 2124poe    c2312520   6.511   4.705   1.319  0.9566  0.2822 -0.5907
 2124poe     o212521   6.516   4.565   1.338  0.1146  0.2914 -0.2761
 2124poe    c2312522   6.532   4.488   1.222  0.5530  0.0793 -0.0738
 2124poe    c2312523   6.498   4.342   1.257 -0.1622  0.3142  0.2282
 2124poe     o212524   6.364   4.331   1.299 -0.2503 -0.0264 -0.1308
 2124poe    c2312525   6.322   4.201   1.266 -0.3774  0.1298 -0.5963
 2124poe    c2312526   6.185   4.178   1.333 -0.0136  0.1673  0.1685
 2124poe     o212527   6.106   4.293   1.317 -0.2257 -0.0939 -0.6701
 2124poe    c3112528   5.989   4.248   1.382  0.1097  0.0568  0.0464
 2125poe    c3112529   4.095   3.619   1.291  0.3336  0.3637 -0.8702
 2125poe     o212530   4.089   3.738   1.366  0.2739 -0.0119 -0.2738
 2125poe    c2312531   4.091   3.843   1.272  1.1193  0.1629 -0.0688
 2125poe    c2312532   4.066   3.972   1.352 -0.0489  0.0870 -0.2973
 2125poe     o212533   4.172   3.992   1.442 -0.5227 -0.3988  0.3775
 2125poe    c2312534   4.159   4.112   1.515  0.3548  0.1127 -0.2858
 2125poe    c2312535   4.291   4.183   1.552  0.3356  0.1389 -0.2678
 2125poe     o212536   4.384   4.097   1.615  0.2928 -0.1493 -0.5940
 2125poe    c2312537   4.499   4.170   1.650 -0.1289  0.2120  0.0753
 2125poe    c2312538   4.613   4.068   1.631 -0.1474  0.1533  0.2852
 2125poe     o212539   4.569   3.942   1.678  0.4461  0.1572  0.8755
 2125poe    c3112540   4.667   3.841   1.679 -0.0181 -0.3461 -0.6948
 2126poe    c3112541   1.943   4.279   0.450 -0.0001  0.1122  0.2715
 2126poe     o212542   1.901   4.208   0.336  0.1421  0.5143 -0.0328
 2126poe    c2312543   1.821   4.296   0.260  0.0625  0.3823 -0.1037
 2126poe    c2312544   1.787   4.221   0.130  0.1771  0.0852  0.0386
 2126poe     o212545   1.743   4.089   0.156  0.9119 -0.1526  0.0983
 2126poe    c2312546   1.738   4.015   0.036  0.9670 -0.1016  0.0640
 2126poe    c2312547   1.704   3.867   0.067  0.2796  0.0063 -0.1439
 2126poe     o212548   1.797   3.820   0.162 -0.0916  0.2340  0.3376
 2126poe    c2312549   1.772   3.696   0.223 -0.0121  0.4295  0.7726
 2126poe    c2312550   1.896   3.678   0.313  0.0955 -0.7604  0.4017
 2126poe     o212551   1.916   3.793   0.392  0.1554 -0.3395 -0.2172
 2126poe    c3112552   1.920   3.764   0.530  0.1674 -0.0915 -0.1651
 2127poe    c3112553   5.835   6.196   3.523  0.2508  0.6179  0.2600
 2127poe     o212554   5.796   6.264   3.406 -0.4515 -0.1038  0.0643
 2127poe    c2312555   5.788   6.403   3.429  0.0571 -0.0726  0.0724
 2127poe    c2312556   5.702   6.488   3.334  0.5257  0.3017 -0.0197
 2127poe     o212557   5.737   6.502   3.198  0.2196 -0.1342 -0.1496
 2127poe    c2312558   5.652   6.593   3.132  0.1529  0.0312  0.1612
 2127poe    c2312559   5.683   6.605   2.982 -0.8472  0.0850 -0.0518
 2127poe     o212560   5.688   6.475   2.929 -0.0622  0.2281 -0.3497
 2127poe    c2312561   5.594   6.453   2.826 -0.3145 -0.2581 -0.0202
 2127poe    c2312562   5.613   6.308   2.776  0.5890 -0.1912  0.0975
 2127poe     o212563   5.636   6.225   2.887  0.2620 -0.3209  0.0703
 2127poe    c3112564   5.648   6.090   2.847 -0.7571 -0.3941 -0.0212
 2128poe    c3112565   2.276   3.865   5.992  0.1331 -0.0135  0.0827
 2128poe     o212566   2.399   3.866   5.923  0.3021  0.1949  0.3853
 2128poe    c2312567   2.455   3.737   5.926  0.3870  0.2294  0.2968
 2128poe    c2312568   2.584   3.714   5.845  0.1189  0.3283 -0.1565
 2128poe     o212569   2.697   3.776   5.902  0.4036 -0.0785 -0.2772
 2128poe    c2312570   2.767   3.837   5.796  0.3915 -0.1315 -0.3156
 2128poe    c2312571   2.901   3.904   5.831  0.2057  0.1672 -0.1794
 2128poe     o212572   3.005   3.809   5.822  0.0361 -0.0610  0.2556
 2128poe    c2312573   3.134   3.866   5.821 -0.4094  0.9769  0.3273
 2128poe    c2312574   3.237   3.765   5.767 -0.7801  0.4749  0.5461
 2128poe     o212575   3.259   3.676   5.875  0.0441  0.3249  0.2588
 2128poe    c3112576   3.303   3.549   5.832 -0.1954  0.5468 -0.6746
 2129poe    c3112577   4.856   3.511   2.289 -0.2933  0.4023 -0.4686
 2129poe     o212578   4.752   3.511   2.384  0.4100 -0.2334  0.3248
 2129poe    c2312579   4.700   3.381   2.384  0.1167 -0.1170  0.1394
 2129poe    c2312580   4.611   3.354   2.507  0.3653  0.5564  0.4662
 2129poe     o212581   4.501   3.435   2.543 -0.2833  0.1284 -0.5271
 2129poe    c2312582   4.443   3.387   2.662  0.6602 -0.0629 -0.1319
 2129poe    c2312583   4.376   3.513   2.720 -0.1337 -0.6414  0.2255
 2129poe     o212584   4.290   3.574   2.627  0.0397  0.0653  0.5194
 2129poe    c2312585   4.230   3.695   2.668  0.2169  0.3153  0.0454
 2129poe    c2312586   4.156   3.741   2.541  0.1664  0.2161  0.0384
 2129poe     o212587   4.252   3.746   2.438 -0.2266 -0.0432 -0.3401
 2129poe    c3112588   4.219   3.848   2.346  0.1706  0.1190 -0.3026
 2130poe    c3112589   4.270   2.194   4.769 -0.6527  0.5730  0.0783
 2130poe     o212590   4.190   2.242   4.874 -0.0563  0.0430  0.7877
 2130poe    c2312591   4.121   2.356   4.828  0.0865  0.0007  0.4657
 2130poe    c2312592   3.991   2.370   4.909 -0.2862 -0.3761 -0.0619
 2130poe     o212593   4.040   2.361   5.041 -0.1336 -0.2249 -0.1089
 2130poe    c2312594   3.945   2.360   5.144 -0.1440  0.2304 -0.1124
 2130poe    c2312595   4.021   2.313   5.270  0.3901  0.4481 -0.3508
 2130poe     o212596   4.113   2.209   5.245 -0.0642  0.0345 -0.3372
 2130poe    c2312597   4.184   2.177   5.363 -0.3303  0.1450 -0.1464
 2130poe    c2312598   4.260   2.044   5.353 -0.3028  0.0951  0.6587
 2130poe     o212599   4.177   1.960   5.277  0.3435 -0.0329  0.0793
 2130poe    c3112600   4.228   1.830   5.259 -0.1006 -0.2225  0.1837
 2131poe    c3112601   0.490   2.455   3.664 -0.1679 -0.1819  0.2035
 2131poe     o212602   0.418   2.563   3.719  0.2072  0.0051  0.3352
 2131poe    c2312603   0.502   2.673   3.747  0.2188  0.0825  0.0089
 2131poe    c2312604   0.416   2.799   3.725  0.2112  0.1138  0.2120
 2131poe     o212605   0.292   2.770   3.786 -0.0365 -0.3214 -0.4808
 2131poe    c2312606   0.200   2.876   3.778  0.1942 -0.0703  0.1114
 2131poe    c2312607   0.082   2.846   3.872  0.1529 -0.5036 -0.0754
 2131poe     o212608   0.023   2.724   3.831  0.2664 -0.7920  0.6016
 2131poe    c2312609  -0.086   2.687   3.911 -0.3515 -0.3912 -0.0468
 2131poe    c2312610  -0.136   2.545   3.877 -0.5093 -0.2107 -0.5793
 2131poe     o212611  -0.044   2.438   3.881  0.0540  0.3058  0.6730
 2131poe    c3112612  -0.114   2.319   3.853 -0.3064  0.6804 -0.0506
 2132poe    c3112613   5.012   5.425   5.029 -1.1834  0.2745 -0.6651
 2132poe     o212614   4.906   5.409   5.120 -0.4580 -0.0965  0.1244
 2132poe    c2312615   4.925   5.278   5.170 -0.2361 -0.1003  0.0337
 2132poe    c2312616   4.802   5.256   5.261 -0.3491  0.1964 -0.0455
 2132poe     o212617   4.801   5.316   5.389 -0.1015  0.8005 -0.3203
 2132poe    c2312618   4.677   5.310   5.457  0.3590 -0.5610  0.4274
 2132poe    c2312619   4.707   5.337   5.605 -1.0524 -0.0065  0.6193
 2132poe     o212620   4.761   5.468   5.600 -0.1661 -0.3818  0.1466
 2132poe    c2312621   4.801   5.514   5.727  0.0868  0.2468 -0.1586
 2132poe    c2312622   4.877   5.647   5.711  0.1700  0.2100 -0.0668
 2132poe     o212623   4.951   5.649   5.591 -0.0791 -0.1119 -0.2276
 2132poe    c3112624   5.042   5.756   5.605 -0.0541 -0.1347 -0.2156
 2133poe    c3112625   6.431   0.797   7.023  0.0786  0.1303 -0.0072
 2133poe     o212626   6.377   0.860   7.137  0.3132 -0.0621  0.2131
 2133poe    c2312627   6.483   0.927   7.200  0.0903  0.6227 -0.1252
 2133poe    c2312628   6.427   1.010   7.318  0.5202  0.0929  0.4593
 2133poe     o212629   6.336   0.936   7.395 -0.0630  0.1433 -0.1705
 2133poe    c2312630   6.282   1.016   7.498 -0.4053  0.1698 -0.3701
 2133poe    c2312631   6.199   0.924   7.589  0.1498 -0.2969 -0.3281
 2133poe     o212632   6.109   0.854   7.506 -0.1604 -0.5640  0.2251
 2133poe    c2312633   6.039   0.761   7.585 -0.5770 -0.1548  0.3429
 2133poe    c2312634   5.931   0.681   7.510 -0.1795 -0.5026  0.1367
 2133poe     o212635   5.993   0.580   7.434  0.3203 -0.5715  0.6338
 2133poe    c3112636   5.893   0.516   7.358 -0.1696  0.0336  0.7643
 2134poe    c3112637   3.282   3.538   2.263  0.1163  0.1928 -0.0189
 2134poe     o212638   3.405   3.608   2.269  0.3531 -0.1976 -0.2714
 2134poe    c2312639   3.446   3.648   2.140 -0.1623  0.3797 -0.2570
 2134poe    c2312640   3.570   3.739   2.144 -0.1916  0.4120 -0.0358
 2134poe     o212641   3.542   3.852   2.224 -0.1197  0.2118  0.2709
 2134poe    c2312642   3.655   3.936   2.217  0.3821 -0.4618  0.1884
 2134poe    c2312643   3.615   4.050   2.312 -0.1994 -0.2559 -0.3024
 2134poe     o212644   3.601   3.995   2.441  0.3423  0.1232 -0.0817
 2134poe    c2312645   3.578   4.094   2.539 -0.2293 -0.0898  0.0001
 2134poe    c2312646   3.493   4.048   2.659  0.2299  0.0049  0.3660
 2134poe     o212647   3.562   3.957   2.741  0.3923  0.1969  0.4427
 2134poe    c3112648   3.472   3.905   2.837 -0.3059 -0.6507 -0.6472
 2135poe    c3112649   6.995   2.718   5.228  0.7896 -0.5022 -0.0374
 2135poe     o212650   6.953   2.852   5.215  0.5863 -0.5955 -0.3617
 2135poe    c2312651   7.029   2.926   5.309 -0.2641  0.0581 -0.1763
 2135poe    c2312652   6.945   3.037   5.374  0.0240 -0.0524  0.3920
 2135poe     o212653   6.901   3.113   5.263 -0.1967 -0.2275  0.3580
 2135poe    c2312654   6.811   3.213   5.304 -0.4231 -0.5030  0.5293
 2135poe    c2312655   6.762   3.276   5.173 -0.2140 -0.4759  0.4647
 2135poe     o212656   6.681   3.194   5.092  0.5604 -0.5923 -0.2084
 2135poe    c2312657   6.682   3.227   4.955  0.2672 -0.1356 -0.1041
 2135poe    c2312658   6.645   3.112   4.860  0.1784 -0.2922  0.1222
 2135poe     o212659   6.739   3.019   4.811  0.2568 -0.0412 -0.2036
 2135poe    c3112660   6.701   2.954   4.691 -0.3608 -0.0747  0.0046
 2136poe    c3112661   6.449   3.371   3.166  0.3010 -0.0551 -0.5882
 2136poe     o212662   6.346   3.275   3.157  0.0736  0.1277  0.0830
 2136poe    c2312663   6.348   3.195   3.042  0.5298  0.2057  0.0353
 2136poe    c2312664   6.218   3.113   3.040  0.4959  0.2606 -0.0170
 2136poe     o212665   6.193   3.005   3.128  0.1876  0.2881 -0.0677
 2136poe    c2312666   6.061   2.957   3.134  0.0576  0.6195 -0.2249
 2136poe    c2312667   5.985   2.989   3.264  0.0234  0.6328 -0.2485
 2136poe     o212668   6.052   2.958   3.385 -0.1879  0.1873 -0.2458
 2136poe    c2312669   5.991   3.023   3.494 -0.3544  0.0053 -0.2299
 2136poe    c2312670   6.066   2.966   3.615  0.5099  0.5024 -0.5263
 2136poe     o212671   6.206   2.972   3.598  0.6121  0.2072  0.1549
 2136poe    c3112672   6.261   2.906   3.709  0.5253  0.6103  0.4428
 2137poe    c3112673   0.667   1.991   5.619 -0.2210  0.1553 -0.6820
 2137poe     o212674   0.596   2.067   5.524 -0.7165  0.2276 -0.2596
 2137poe    c2312675   0.503   2.155   5.584 -0.7698 -0.3033  0.4437
 2137poe    c2312676   0.450   2.279   5.509  0.6889 -0.3447 -0.7090
 2137poe     o212677   0.524   2.399   5.517  0.1820 -0.0911  0.3553
 2137poe    c2312678   0.480   2.477   5.408 -0.0962  0.3274  0.7615
 2137poe    c2312679   0.608   2.510   5.330 -0.5356 -0.3044 -0.2546
 2137poe     o212680   0.657   2.394   5.266  0.1403 -0.1839  0.0339
 2137poe    c2312681   0.648   2.426   5.129  0.6163 -0.2319 -0.0106
 2137poe    c2312682   0.600   2.314   5.036 -0.2942 -0.0584  0.2366
 2137poe     o212683   0.703   2.238   4.977  0.0164  0.3177  0.2941
 2137poe    c3112684   0.644   2.163   4.873  0.3754 -0.0888  0.3795
 2138poe    c3112685   4.063   0.220   2.347  0.1563 -0.0035  0.0704
 2138poe     o212686   4.166   0.200   2.252  0.7010 -0.7085  0.7949
 2138poe    c2312687   4.158   0.076   2.186 -0.3215 -0.2451  0.0080
 2138poe    c2312688   4.285   0.041   2.106 -0.2688 -0.2150  0.0786
 2138poe     o212689   4.298   0.136   2.003  0.1421  0.3484  0.6356
 2138poe    c2312690   4.387   0.092   1.903  0.0153  0.2962  0.5452
 2138poe    c2312691   4.406   0.203   1.799  0.0970 -0.1870  0.0361
 2138poe     o212692   4.452   0.329   1.844  0.3620 -0.1660 -0.2947
 2138poe    c2312693   4.511   0.402   1.739  0.1678  0.3611 -0.0364
 2138poe    c2312694   4.551   0.547   1.772  0.4301  0.2871 -0.0218
 2138poe     o212695   4.446   0.642   1.771  0.0398 -0.1496 -0.5451
 2138poe    c3112696   4.515   0.762   1.747 -0.2102  0.0150 -0.4368
 2139poe    c3112697   6.681   6.993   4.204  0.2359 -0.1539 -0.4424
 2139poe     o212698   6.657   6.892   4.108 -0.5395 -0.0605 -0.3546
 2139poe    c2312699   6.665   6.764   4.167 -0.4050  0.2612  0.3333
 2139poe    c2312700   6.678   6.660   4.055  0.3601  0.7055  0.0089
 2139poe     o212701   6.569   6.657   3.965  0.0603  0.2481  0.3876
 2139poe    c2312702   6.549   6.543   3.885 -0.0902  0.4466  0.1435
 2139poe    c2312703   6.402   6.537   3.839  0.2520  0.2892 -0.9608
 2139poe     o212704   6.377   6.660   3.775 -0.3074  0.7458  0.1138
 2139poe    c2312705   6.241   6.689   3.751 -0.4320  0.4500  0.4547
 2139poe    c2312706   6.233   6.808   3.653  0.2163  0.5172  0.4832
 2139poe     o212707   6.309   6.916   3.701  0.1039  0.6684  0.3201
 2139poe    c3112708   6.310   7.028   3.615  0.4756  0.1929 -0.2999
 2140poe    c3112709   1.126   6.192   2.106  0.4308  0.2443  0.2203
 2140poe     o212710   1.043   6.081   2.131  0.1075  0.4870  0.2205
 2140poe    c2312711   0.915   6.121   2.175 -0.2279 -0.4018  0.0703
 2140poe    c2312712   0.839   5.988   2.192  0.2392 -0.7220 -0.3176
 2140poe     o212713   0.870   5.924   2.314 -0.6216  0.5805  0.6147
 2140poe    c2312714   0.783   5.815   2.332 -0.0053 -0.0199  0.0025
 2140poe    c2312715   0.793   5.694   2.237 -0.1180 -0.5217  0.6242
 2140poe     o212716   0.917   5.626   2.249  0.1290 -0.2242 -0.2025
 2140poe    c2312717   0.906   5.509   2.172 -0.4659 -0.2164 -0.1326
 2140poe    c2312718   1.027   5.417   2.199 -0.1264  0.1663 -0.3590
 2140poe     o212719   1.141   5.501   2.201 -0.1433  0.1931 -0.5202
 2140poe    c3112720   1.252   5.418   2.178  0.2579  0.5546  0.0941
 2141poe    c3112721   1.209   2.781   1.662  0.1182  0.0346 -0.6117
 2141poe     o212722   1.273   2.744   1.783 -0.4152 -0.3979 -0.4585
 2141poe    c2312723   1.176   2.751   1.885  0.0569 -0.0041 -0.0295
 2141poe    c2312724   1.254   2.742   2.017  0.3773  0.1492 -0.2067
 2141poe     o212725   1.326   2.620   2.024 -0.1170 -0.1552 -0.3346
 2141poe    c2312726   1.388   2.605   2.150  0.0852  0.4445 -0.3585
 2141poe    c2312727   1.451   2.465   2.161 -0.5432  0.1693 -0.1850
 2141poe     o212728   1.534   2.444   2.049  0.2172  0.2342  0.3645
 2141poe    c2312729   1.576   2.310   2.031 -0.9717 -0.0448 -0.4177
 2141poe    c2312730   1.644   2.295   1.893 -0.1982  0.3102 -0.0803
 2141poe     o212731   1.548   2.332   1.797 -0.0915  0.0151 -0.3014
 2141poe    c3112732   1.612   2.316   1.672  0.4730  0.5182 -0.0828
 2142poe    c3112733   4.802   1.132   1.431 -0.1607  0.1783  0.5885
 2142poe     o212734   4.796   0.992   1.415 -0.3927  0.1359  1.0399
 2142poe    c2312735   4.926   0.940   1.434 -0.0981  0.3463 -0.2944
 2142poe    c2312736   4.936   0.787   1.444  0.1812  0.3786 -0.0407
 2142poe     o212737   4.918   0.713   1.325  0.0044  0.1123  0.1491
 2142poe    c2312738   4.862   0.586   1.351  0.1715 -0.0069 -0.0703
 2142poe    c2312739   4.870   0.511   1.217  0.2637 -0.1999  0.0427
 2142poe     o212740   4.770   0.547   1.125  0.5354  0.2878 -0.0642
 2142poe    c2312741   4.774   0.457   1.016  0.5320 -0.1434  0.2895
 2142poe    c2312742   4.786   0.526   0.879  0.8472 -0.0487  0.3640
 2142poe     o212743   4.890   0.619   0.861  0.2529  0.6619  0.5786
 2142poe    c3112744   5.019   0.563   0.861 -0.2014 -0.3975  0.3946
 2143poe    c3112745   5.916   3.366   6.368  0.3930  0.2465 -0.0940
 2143poe     o212746   5.942   3.345   6.505 -0.7163 -0.7154 -0.0135
 2143poe    c2312747   6.082   3.331   6.513 -0.6503  0.1447  0.4846
 2143poe    c2312748   6.134   3.314   6.657 -0.0239  0.1630  0.2622
 2143poe     o212749   6.069   3.197   6.701  0.4626 -0.3557 -0.3683
 2143poe    c2312750   6.095   3.184   6.839  0.2418 -0.3306 -0.3249
 2143poe    c2312751   6.021   3.067   6.906 -0.2845  0.3599  0.3118
 2143poe     o212752   5.880   3.077   6.901 -0.3437 -0.7055 -0.4190
 2143poe    c2312753   5.819   2.971   6.970 -0.7042 -0.0964  0.2211
 2143poe    c2312754   5.669   2.981   6.936 -0.6975 -0.4454  0.0783
 2143poe     o212755   5.641   3.029   6.806  0.2871  0.4836  0.1915
 2143poe    c3112756   5.519   3.099   6.808  0.0423  0.0595  0.3603
 2144poe    c3112757   5.405   5.941   1.048  0.0654  0.4502  0.2203
 2144poe     o212758   5.391   6.043   1.144  0.2168  0.3094  0.3932
 2144poe    c2312759   5.509   6.077   1.214  0.1679  0.2080  0.5243
 2144poe    c2312760   5.508   6.230   1.206 -0.6407  0.1665 -0.3122
 2144poe     o212761   5.380   6.271   1.248 -0.7138 -0.1690 -0.2086
 2144poe    c2312762   5.379   6.412   1.254 -0.6503 -0.1630 -0.3448
 2144poe    c2312763   5.263   6.443   1.351 -0.1013 -0.2244  0.3366
 2144poe     o212764   5.154   6.367   1.306 -0.0369 -0.3652  0.4208
 2144poe    c2312765   5.049   6.436   1.370  0.0731  0.3385 -0.1464
 2144poe    c2312766   4.929   6.341   1.360  0.4470 -0.0832 -0.6806
 2144poe     o212767   4.959   6.227   1.438  0.3714  0.2573 -0.1503
 2144poe    c3112768   4.847   6.153   1.481  0.0528  0.8588  0.0634
 2145poe    c3112769   0.195   6.235   3.094 -0.1738  0.2986  0.5284
 2145poe     o212770   0.150   6.366   3.070  0.1100  0.2134 -0.5263
 2145poe    c2312771   0.027   6.382   3.002 -0.0676 -0.0931 -0.2786
 2145poe    c2312772  -0.021   6.528   3.014  0.0904 -0.1215  0.8148
 2145poe     o212773   0.057   6.623   2.945 -0.4038 -0.3712 -0.0997
 2145poe    c2312774   0.018   6.758   2.952  0.1019 -0.2214 -0.0667
 2145poe    c2312775   0.128   6.853   2.902 -0.0613  0.0872  0.1569
 2145poe     o212776   0.161   6.805   2.773  0.1242 -0.1244  0.2835
 2145poe    c2312777   0.086   6.843   2.660  0.1453 -0.5343  0.1316
 2145poe    c2312778   0.062   6.721   2.568 -0.4770 -0.3889  0.1011
 2145poe     o212779   0.170   6.634   2.589 -0.0989 -0.0250 -0.2997
 2145poe    c3112780   0.168   6.532   2.491  0.0549  0.0663 -0.3984
 2146poe    c3112781   2.422   5.718   4.306 -0.1474  0.2998  0.1906
 2146poe     o212782   2.450   5.585   4.268 -0.0685  0.3253  0.1590
 2146poe    c2312783   2.335   5.506   4.288 -0.0767  0.4914  0.7880
 2146poe    c2312784   2.369   5.356   4.273 -0.0687  0.5567  0.1204
 2146poe     o212785   2.415   5.302   4.152  0.2194  0.1849  0.3927
 2146poe    c2312786   2.476   5.178   4.177  0.1850  0.0623 -0.1172
 2146poe    c2312787   2.568   5.137   4.061 -0.4350  0.6691 -0.8350
 2146poe     o212788   2.666   5.227   4.015  0.4042  0.0250 -0.3393
 2146poe    c2312789   2.675   5.228   3.875 -0.2733 -0.6013 -0.3895
 2146poe    c2312790   2.636   5.366   3.818 -0.5984 -0.4524  0.1880
 2146poe     o212791   2.505   5.402   3.855 -0.6426 -0.1105 -0.3012
 2146poe    c3112792   2.469   5.536   3.827 -0.0587  0.2079  0.4435
 2147poe    c3112793   1.209   3.778   4.731  0.0667  0.0264  0.1513
 2147poe     o212794   1.193   3.705   4.850 -0.1741 -0.2173 -0.0292
 2147poe    c2312795   1.189   3.565   4.829  0.0638 -0.1789 -0.3384
 2147poe    c2312796   1.113   3.506   4.950  0.2905  0.5878  0.1842
 2147poe     o212797   1.193   3.517   5.066  0.1322 -0.4298  0.3969
 2147poe    c2312798   1.133   3.455   5.178 -0.3603 -0.9265 -0.1340
 2147poe    c2312799   1.240   3.463   5.288 -0.0430  0.0236 -0.5013
 2147poe     o212800   1.302   3.590   5.286  0.2936 -0.1203  0.3933
 2147poe    c2312801   1.379   3.614   5.402  0.6963 -0.3694  0.1808
 2147poe    c2312802   1.456   3.747   5.384 -0.3479  0.2327  0.1079
 2147poe     o212803   1.557   3.740   5.287 -0.1624 -0.0894  0.3234
 2147poe    c3112804   1.562   3.869   5.230  0.3776 -0.0401  0.4780
 2148poe    c3112805   3.618   0.961   6.208 -0.1695  0.1589  0.8209
 2148poe     o212806   3.542   0.912   6.317 -0.4665 -0.5497  0.3055
 2148poe    c2312807   3.630   0.859   6.413 -0.0247 -0.0227  0.1957
 2148poe    c2312808   3.542   0.817   6.532  0.0792 -0.7402  0.0215
 2148poe     o212809   3.434   0.736   6.489 -0.2894 -0.1454 -0.1922
 2148poe    c2312810   3.341   0.716   6.592 -0.0615  0.0892  0.0630
 2148poe    c2312811   3.232   0.625   6.531 -0.0608  0.3976 -0.3970
 2148poe     o212812   3.163   0.697   6.432 -0.1981  0.5209 -0.2110
 2148poe    c2312813   3.057   0.629   6.367 -0.0945  0.1443  0.0113
 2148poe    c2312814   2.928   0.624   6.451 -0.2398 -0.5145 -0.2494
 2148poe     o212815   2.906   0.746   6.518 -0.1449 -0.4894 -0.2636
 2148poe    c3112816   2.774   0.794   6.521 -0.0308 -0.1608 -0.4369
 2149poe    c3112817   0.252   2.249   6.711  0.0885  0.6545 -0.4175
 2149poe     o212818   0.309   2.212   6.587 -0.0001 -1.0042  0.0142
 2149poe    c2312819   0.276   2.307   6.488  0.5462 -0.0378  0.7385
 2149poe    c2312820   0.336   2.273   6.350 -1.0114 -0.0101  0.0313
 2149poe     o212821   0.318   2.146   6.291 -0.5687 -0.0140 -0.1038
 2149poe    c2312822   0.348   2.152   6.153 -0.1884  0.0728 -0.0164
 2149poe    c2312823   0.384   2.010   6.105  0.8443 -0.0446  1.0269
 2149poe     o212824   0.270   1.929   6.124  0.5293  0.0124 -0.4746
 2149poe    c2312825   0.296   1.797   6.083 -0.4369 -0.1911 -0.4628
 2149poe    c2312826   0.162   1.721   6.093 -0.2998 -0.3593  0.1373
 2149poe     o212827   0.092   1.759   6.209 -0.3722  0.0972 -0.0544
 2149poe    c3112828  -0.041   1.712   6.214 -0.3273  0.0312  0.5540
 2150poe    c3112829   3.129   0.959   3.696 -0.2361  0.1486  0.0397
 2150poe     o212830   3.124   0.848   3.610 -0.0934  0.5002 -0.4234
 2150poe    c2312831   3.002   0.786   3.643  0.1647 -0.0492 -0.4791
 2150poe    c2312832   2.984   0.657   3.561  0.3495 -0.3685 -0.0263
 2150poe     o212833   3.050   0.679   3.438 -0.0083  0.1452 -0.1339
 2150poe    c2312834   3.032   0.570   3.351  0.0812  0.4569 -0.5436
 2150poe    c2312835   2.937   0.568   3.229 -0.1419 -0.1971 -0.3668
 2150poe     o212836   2.808   0.514   3.245  0.0393 -0.4994  0.0763
 2150poe    c2312837   2.738   0.550   3.129  0.1006  0.1564  0.2385
 2150poe    c2312838   2.641   0.669   3.137 -0.2703 -0.0375 -1.0957
 2150poe     o212839   2.706   0.792   3.164 -0.4549 -0.1638 -0.0554
 2150poe    c3112840   2.615   0.898   3.147 -0.4337 -0.1263  0.0630
 2151poe    c3112841   0.591   5.433   0.179 -0.2879  0.2197  0.4166
 2151poe     o212842   0.559   5.306   0.231  0.1526  0.1454  0.5090
 2151poe    c2312843   0.429   5.259   0.204  0.2216  0.3758 -0.2684
 2151poe    c2312844   0.432   5.105   0.213  0.0897  0.3711 -0.3074
 2151poe     o212845   0.511   5.068   0.323 -0.3416  0.4418  0.0305
 2151poe    c2312846   0.510   4.932   0.360 -0.2369  0.5021  0.2574
 2151poe    c2312847   0.525   4.829   0.247 -0.0548  0.3753  0.3962
 2151poe     o212848   0.653   4.846   0.191 -0.1504 -0.2086 -0.0014
 2151poe    c2312849   0.679   4.726   0.121  0.2312 -0.1129 -0.0245
 2151poe    c2312850   0.828   4.702   0.090  0.1970  0.0188 -0.3021
 2151poe     o212851   0.902   4.644   0.196 -0.2585  0.1151  0.0722
 2151poe    c3112852   1.026   4.588   0.159 -0.1369  0.4920 -0.0950
 2152poe    c3112853   2.936   5.021   6.350  0.5175 -0.0879 -0.4121
 2152poe     o212854   2.966   5.159   6.356 -0.7733  0.1923 -0.1049
 2152poe    c2312855   3.065   5.183   6.454 -0.2960  0.6219 -0.6853
 2152poe    c2312856   3.067   5.334   6.484 -0.1522  0.4989 -0.0708
 2152poe     o212857   3.048   5.390   6.357 -0.3046  0.1134 -0.2200
 2152poe    c2312858   3.081   5.527   6.350  0.0203  0.0564  0.1834
 2152poe    c2312859   3.083   5.553   6.198 -0.0678 -0.1401  0.1476
 2152poe     o212860   2.959   5.509   6.147 -0.1349  0.0407  0.1544
 2152poe    c2312861   2.969   5.522   6.007 -0.2658  0.3520  0.1714
 2152poe    c2312862   2.833   5.487   5.944 -0.0624  0.1512 -0.1592
 2152poe     o212863   2.785   5.356   5.968 -0.6936  0.3718 -0.1841
 2152poe    c3112864   2.651   5.350   5.926 -0.7434 -0.5203  0.0878
 2153poe    c3112865   1.846   2.438   6.822 -0.5369 -0.2092 -0.6794
 2153poe     o212866   1.808   2.504   6.703 -0.1600  0.3540 -0.4891
 2153poe    c2312867   1.685   2.456   6.656 -0.3926  0.3468  0.1175
 2153poe    c2312868   1.648   2.501   6.513  0.0482 -0.3576 -0.2234
 2153poe     o212869   1.592   2.629   6.494 -0.0632 -0.2950  0.4970
 2153poe    c2312870   1.573   2.666   6.360  0.1290 -0.2441  0.4840
 2153poe    c2312871   1.480   2.590   6.264  0.2666 -0.2253  0.3359
 2153poe     o212872   1.351   2.624   6.310  0.0579  0.1570 -0.5110
 2153poe    c2312873   1.295   2.547   6.414 -0.0389  0.4854 -0.3186
 2153poe    c2312874   1.150   2.595   6.433 -0.0987  0.2571 -0.1953
 2153poe     o212875   1.055   2.552   6.337 -0.0732  0.0127 -0.1107
 2153poe    c3112876   0.927   2.542   6.393  0.0461  0.8018  0.3155
 2154poe    c3112877   1.293   5.433   1.642  0.5479 -0.1101  0.2998
 2154poe     o212878   1.301   5.295   1.670  0.0650 -0.3772 -0.8085
 2154poe    c2312879   1.338   5.227   1.552  1.1010 -0.5597 -0.3966
 2154poe    c2312880   1.347   5.074   1.571  0.2583 -0.5822 -0.1183
 2154poe     o212881   1.418   5.065   1.693  0.1651 -0.0561 -0.0229
 2154poe    c2312882   1.479   4.939   1.708 -0.1429 -0.1725  0.2750
 2154poe    c2312883   1.530   4.921   1.852  0.4422  0.1437  0.1104
 2154poe     o212884   1.418   4.934   1.937  0.4910 -0.5455  0.2827
 2154poe    c2312885   1.438   4.902   2.073  0.3101  0.0352  0.4473
 2154poe    c2312886   1.409   5.025   2.161  0.0558  0.3599 -0.0822
 2154poe     o212887   1.276   5.070   2.167  0.1758  0.6546  0.4933
 2154poe    c3112888   1.205   5.022   2.279  0.2556  0.0567  0.2921
 2155poe    c3112889   4.340   7.012   2.507  0.3399  0.3909 -0.0028
 2155poe     o212890   4.464   7.069   2.472  0.5821  0.0893  0.3579
 2155poe    c2312891   4.567   6.993   2.532  0.3924 -0.5094 -0.0665
 2155poe    c2312892   4.713   7.031   2.506  0.3714 -0.4366 -0.0783
 2155poe     o212893   4.785   6.989   2.392 -0.2738 -0.8264 -0.3445
 2155poe    c2312894   4.764   7.078   2.285  0.0787 -0.5131 -0.1540
 2155poe    c2312895   4.820   7.032   2.149 -0.2881 -0.0506 -0.4665
 2155poe     o212896   4.728   6.940   2.096  0.0965 -0.6425 -0.1262
 2155poe    c2312897   4.716   6.931   1.955  0.2391  0.1329 -0.1939
 2155poe    c2312898   4.623   6.816   1.913 -0.0658  0.2992  0.0236
 2155poe     o212899   4.649   6.685   1.959  0.0776  0.2255 -0.2619
 2155poe    c3112900   4.601   6.587   1.871  0.0188 -0.1256  0.1561
 2156poe    c3112901   6.898   3.705   5.987  0.1848  0.0782  0.0849
 2156poe     o212902   6.953   3.823   6.040  0.3340  0.1400 -0.2086
 2156poe    c2312903   6.895   3.829   6.168  0.0351 -0.2799 -0.3239
 2156poe    c2312904   6.915   3.974   6.214 -0.7337 -0.2990  0.0857
 2156poe     o212905   6.846   4.067   6.132 -0.7547  0.2115  0.6712
 2156poe    c2312906   6.901   4.197   6.139  0.6252 -0.3008 -0.1593
 2156poe    c2312907   6.884   4.280   6.011 -0.0014 -0.1514  0.0147
 2156poe     o212908   6.919   4.197   5.902  0.1190 -0.3025  0.1675
 2156poe    c2312909   6.838   4.230   5.791  0.1313 -0.0136  0.2414
 2156poe    c2312910   6.839   4.109   5.695  0.0404  0.2896 -0.1399
 2156poe     o212911   6.970   4.064   5.670 -0.1806 -0.2284 -0.3875
 2156poe    c3112912   6.955   3.974   5.563 -0.0785 -0.5253 -0.1529
 2157poe    c3112913   5.821   0.624   3.843 -0.0162 -0.0841 -0.4010
 2157poe     o212914   5.821   0.490   3.799 -0.2496 -0.0898 -0.3889
 2157poe    c2312915   5.946   0.436   3.837 -0.3910  0.0345  0.2632
 2157poe    c2312916   5.954   0.285   3.808  0.2135  0.2005 -0.4652
 2157poe     o212917   5.874   0.205   3.891  0.0662  0.3163 -0.4965
 2157poe    c2312918   5.900   0.067   3.881  0.1042  0.3006 -0.1911
 2157poe    c2312919   5.812  -0.016   3.977  0.1859  0.4558  0.0205
 2157poe     o212920   5.688   0.051   3.962 -0.1549 -0.1437  0.1293
 2157poe    c2312921   5.586   0.021   4.054 -0.4501 -0.5819 -0.3330
 2157poe    c2312922   5.445   0.073   4.024 -0.4064  0.0281  0.4928
 2157poe     o212923   5.449   0.207   3.980  0.0823 -0.0872  0.1861
 2157poe    c3112924   5.315   0.246   3.964 -0.0476 -0.5038  0.2526
 2158poe    c3112925   6.624   6.976   5.090 -0.1152 -0.0944  0.2000
 2158poe     o212926   6.759   7.013   5.105 -0.0603 -0.1224 -0.2216
 2158poe    c2312927   6.834   6.928   5.021  0.3836  0.6696 -0.6425
 2158poe    c2312928   6.954   6.855   5.084 -0.2427  0.2736  0.1130
 2158poe     o212929   7.068   6.934   5.111  0.1361 -0.2092 -0.0549
 2158poe    c2312930   7.145   6.958   4.995 -0.2119  0.1712 -0.2108
 2158poe    c2312931   7.234   6.843   4.945  0.5448  0.6742 -0.0375
 2158poe     o212932   7.348   6.828   5.027  0.5067  0.3278 -0.0463
 2158poe    c2312933   7.428   6.743   4.950  0.3032  0.1696 -0.0840
 2158poe    c2312934   7.565   6.740   5.021  0.4088  0.1022 -0.2881
 2158poe     o212935   7.573   6.688   5.151  0.4991  0.2939 -0.2155
 2158poe    c3112936   7.708   6.666   5.185  0.4260  0.0529 -0.0739
 2159poe    c3112937   0.361   0.555   0.735  0.2545  0.0750 -0.0120
 2159poe     o212938   0.465   0.626   0.799  0.4641  0.0625 -0.3321
 2159poe    c2312939   0.453   0.765   0.814  0.0142 -0.0736  0.6369
 2159poe    c2312940   0.570   0.842   0.751 -0.1061 -0.2523  0.1900
 2159poe     o212941   0.574   0.821   0.612 -0.1907 -0.1289  0.1695
 2159poe    c2312942   0.701   0.850   0.557  0.1062 -0.3999  0.7033
 2159poe    c2312943   0.740   0.731   0.466 -0.4490 -0.2384  0.2467
 2159poe     o212944   0.677   0.737   0.340  0.4552 -0.1943 -0.2124
 2159poe    c2312945   0.749   0.806   0.241  0.3033  0.1535 -0.0836
 2159poe    c2312946   0.644   0.870   0.147 -0.2948 -0.0781  0.4237
 2159poe     o212947   0.543   0.771   0.140  0.0132 -0.3820  0.2304
 2159poe    c3112948   0.479   0.773   0.014  0.2341  0.7357  0.1215
 2160poe    c3112949   1.077   1.119   4.621  0.2895 -1.1454  0.3338
 2160poe     o212950   1.192   1.121   4.540 -0.1294 -0.1927 -0.2495
 2160poe    c2312951   1.277   1.223   4.587 -0.1804 -0.4029  0.2955
 2160poe    c2312952   1.399   1.245   4.496 -0.2446  0.7031  0.4585
 2160poe     o212953   1.355   1.314   4.381  0.0770  0.0356 -0.0739
 2160poe    c2312954   1.359   1.454   4.393 -0.5080  0.0460  0.0270
 2160poe    c2312955   1.273   1.510   4.278 -0.1362  0.1827 -0.1839
 2160poe     o212956   1.281   1.407   4.182 -0.2977  0.0292 -0.0331
 2160poe    c2312957   1.238   1.455   4.056 -0.3459  0.1866  0.0423
 2160poe    c2312958   1.201   1.338   3.962  0.5020  0.4589 -0.6408
 2160poe     o212959   1.305   1.244   3.971  0.2875  0.2501 -0.2962
 2160poe    c3112960   1.247   1.129   3.915  0.1260 -0.1854  0.7498
 2161lim     li12961   5.768   5.091   1.896  0.6744  0.1044  0.1455
 2162lim     li12962   5.006   1.127   5.844 -1.1127  0.1266 -0.0553
 2163lim     li12963   5.969   1.871   2.825 -0.1156 -0.5388  0.2673
 2164lim     li12964   6.995   4.267   4.158  0.5217  0.6394 -0.1804
 2165lim     li12965   4.168   4.717   2.319 -0.3550  0.5619  0.3941
 2166lim     li12966   6.866   2.122   2.686  0.0949 -0.6725  0.7877
 2167lim     li12967   4.228   6.492   0.284  0.0982  0.2620  0.2719
 2168lim     li12968   0.246   6.646   2.752 -0.0035  0.2798  0.7284
 2169lim     li12969   1.804   5.775   2.146  0.2651  0.1310 -1.1740
 2170lim     li12970   6.017   6.834   1.755  0.0223 -0.4912 -0.1021
 2171lim     li12971   6.015   2.209   2.224  0.0207  0.4310 -1.3235
 2172lim     li12972   4.471   3.131   4.742 -0.7659  0.3437  0.5346
 2173lim     li12973   2.651   5.683   0.960 -0.0152  0.4279 -0.0103
 2174lim     li12974   3.741   4.897   3.645 -0.4383 -0.2348  0.0877
 2175lim     li12975   4.319   2.351   6.131 -1.2761 -0.8315  0.0675
 2176lim     li12976   5.039   1.736   3.871 -0.3082  0.5621  0.6139
 2177lim     li12977   2.446   0.582   0.251  0.0408  0.9175  0.5304
 2178lim     li12978   1.096   5.668   2.244 -1.0968 -0.8488 -0.4929
 2179lim     li12979   0.913   6.866   6.228 -0.1635  0.9496 -1.2155
 2180lim     li12980   6.289   2.192   4.961  0.2326 -0.9387 -0.5675
 2181lim     li12981   0.800   2.835   3.333 -0.8156  0.4305  0.5467
 2182lim     li12982   4.045   2.668   1.686 -0.6415 -0.6590 -0.1748
 2183lim     li12983   3.855   6.206   2.063  0.8579  0.9149 -0.2056
 2184lim     li12984   1.926   2.587   1.957  0.0549  0.6661 -0.3747
 2185lim     li12985   0.986   5.077   4.526  0.7882 -0.9857 -0.6850
 2186lim     li12986   1.080   1.564   5.582  0.6327 -0.1707  1.1461
 2187lim     li12987   2.161   5.580   3.433  0.6079  0.8082 -0.6706
 2188lim     li12988   0.645   5.179   0.324  0.2436 -0.3803 -0.4377
 2189lim     li12989   6.361   5.461   3.065  0.0274  0.7563 -0.9138
 2190lim     li12990   2.561   1.267   0.644 -0.3023 -0.1265 -0.3235
 2191lim     li12991   2.993   2.961   3.224  0.6076 -0.4221  0.0139
 2192lim     li12992   0.679   1.903   3.288  0.1453  0.3635  1.0040
 2193lim     li12993   6.930   4.129   1.678 -0.0351  1.2114  0.1851
 2194lim     li12994   2.205   3.834   6.673 -0.1462  0.3866 -0.8096
 2195lim     li12995   1.790   0.120   5.150  0.9449  0.3955  0.2988
 2196lim     li12996   6.014   4.479   1.994  0.4437  0.2080  0.1727
 2197lim     li12997   0.792   0.704   4.389  0.5393  0.6585 -0.6829
 2198lim     li12998   5.758   0.353   2.355 -0.2056  0.6754  1.0793
 2199lim     li12999   3.427   4.952   6.329 -1.1339  0.4944 -0.5165
 2200lim     li13000   6.075   4.650   3.262 -0.5556  0.3541 -0.7338
 2201lim     li13001   5.795   3.136   6.739 -0.1130  0.8087 -0.5288
 2202lim     li13002   2.625   3.471   5.243 -0.1490 -0.2965  0.4166
 2203lim     li13003   3.072   3.728   0.923  0.0907 -0.6427 -0.6085
 2204lim     li13004   5.544   4.737   5.662 -0.5491 -0.0989 -0.2448
 2205lim     li13005   1.107   0.183   2.823  0.4083 -0.0576 -0.4865
 2206lim     li13006   5.487   1.604   2.961 -1.4660 -1.0416  0.5511
 2207lim     li13007   3.056   1.271   2.999  0.9114  2.1036 -0.6208
 2208lim     li13008   3.509   3.820   2.391  0.0888 -0.0112  1.4179
 2209lim     li13009   2.612   6.035   3.146  0.9154 -0.0999 -0.4371
 2210lim     li13010   1.833   3.961   0.271  0.2318 -0.5092  0.6957
 2211lim     li13011   5.733   4.830   6.488  0.2058  0.4683  0.2108
 2212lim     li13012   1.710   1.934   1.446  0.6089  1.0190 -0.1222
 2213lim     li13013   3.885   3.925   5.217 -0.7469  0.2748  0.7637
 2214lim     li13014   3.977   5.872   6.715 -0.0218  0.2607  0.2353
 2215lim     li13015   0.868   3.111   4.977 -0.7452  0.6023 -0.3281
 2216lim     li13016   5.327   2.233   0.372 -0.3237  0.0600 -0.4317
 2217lim     li13017   2.077   6.926   0.209  0.9302  0.1702  1.4751
 2218lim     li13018   4.827   6.304   5.732  1.2579 -0.2750 -0.3466
 2219lim     li13019   3.466   1.690   2.318 -0.3679  0.3231 -0.5157
 2220lim     li13020   1.197   4.091   1.319  0.3202 -0.0101  0.4046
 2221lim     li13021   5.576   4.060   3.844  0.2943  0.5203 -1.0292
 2222lim     li13022   4.694   0.270   0.031  0.4160 -0.4087 -0.2364
 2223lim     li13023   4.889   6.865   0.707 -0.3162  0.1566 -0.2722
 2224lim     li13024   2.786   0.763   4.999 -0.1737  0.4406 -0.8878
 2225lim     li13025   5.641   3.493   3.274  0.2796 -0.1954 -0.3552
 2226lim     li13026   5.455   0.650   4.926  0.1521  0.0713  0.1100
 2227lim     li13027   0.703   4.577   1.218 -0.3372 -0.3759 -0.4136
 2228lim     li13028   6.667   3.853   4.791 -0.0216  0.2857  0.1936
 2229lim     li13029   2.035   0.723   4.074  1.0385 -0.1189  0.4587
 2230lim     li13030   6.223   4.442   1.317 -1.2639  0.3476 -0.8851
 2231lim     li13031   2.934   5.315   6.250  0.2076  0.4051 -0.4458
 2232lim     li13032   0.937   5.081   5.767  1.2919  0.3583 -0.1763
 2233lim     li13033   2.959   3.517   6.046  0.9205 -0.2610  0.2885
 2234lim     li13034   5.254   6.974   5.534  0.1101  0.7489  0.6558
 2235lim     li13035   3.855   3.306   1.764  0.3336  0.2903  1.1219
 2236lim     li13036   1.137   5.658   4.461  0.0107  0.3946 -0.8005
 2237lim     li13037   1.631   3.969   5.986  1.0655 -0.3746 -0.1281
 2238lim     li13038   0.031   4.103   5.816  0.7947 -0.4911 -1.0275
 2239lim     li13039   1.899   2.323   5.261 -0.5588  0.2925  0.3581
 2240lim     li13040   4.949   2.032   1.179  0.9165 -0.1637 -0.4963
 2241lim     li13041   2.434   4.430   6.094  0.2350  0.2984 -0.4774
 2242lim     li13042   4.456   0.950   3.705  0.4269 -0.1364 -1.5283
 2243lim     li13043   0.658   5.392   1.788  0.2700  0.3567  0.2290
 2244lim     li13044   2.558   1.959   6.961 -0.0947  0.6271 -0.1533
 2245lim     li13045   5.773   5.655   6.146  0.3640 -0.6756  0.7372
 2246lim     li13046   1.949   4.359   5.070  0.9853 -0.1461 -0.2618
 2247lim     li13047   2.776   6.181   2.142 -0.3956 -0.0567  0.5649
 2248lim     li13048   1.352   2.696   4.295  0.1858 -0.0593 -0.4467
 2249lim     li13049   6.834   5.980   3.386  0.1238  0.4198 -0.5535
 2250lim     li13050   1.716   1.526   0.035  0.3814  1.3902  0.5633
 2251lim     li13051   4.705   4.249   4.301  0.3467  0.1160  0.3228
 2252lim     li13052   1.684   5.214   5.606  0.1016  0.0079  0.2578
 2253lim     li13053   0.691   0.419   1.049 -0.0351 -0.5843  0.1842
 2254lim     li13054   5.126   5.540   6.132 -0.0156 -0.9322 -0.2160
 2255lim     li13055   0.221   5.057   1.207 -0.8766 -0.4329  0.6071
 2256lim     li13056   0.501   3.992   6.076  0.1935  0.1347  1.4768
 2257lim     li13057   3.059   3.728   4.790 -0.5137 -0.6275  0.1960
 2258lim     li13058   0.785   3.433   6.705 -0.3615 -0.4760  0.3152
 2259lim     li13059   1.352   5.189   1.800 -0.2863 -0.7980 -0.1091
 2260lim     li13060   4.365   4.766   5.773 -0.7734  0.8783  0.1219
 2261lim     li13061   0.573   4.568   5.346 -0.3255  0.0150 -0.0934
 2262lim     li13062   6.317   5.884   1.724  0.4603  0.7371 -0.2006
 2263lim     li13063   4.280   4.612   4.932 -0.7841 -0.4291 -0.0063
 2264lim     li13064   5.301   6.066   0.192 -0.9627  0.5667  0.1710
 2265lim     li13065   4.119   5.145   6.876 -0.2563 -0.2586  1.0279
 2266lim     li13066   0.060   7.002   6.424 -0.2761 -1.1143 -0.5500
 2267lim     li13067   3.851   5.556   1.824 -0.7593  0.2227  0.7880
 2268lim     li13068   1.704   3.627   2.365 -0.5565  0.4440 -0.3576
 2269lim     li13069   1.371   3.799   4.362 -0.0439 -0.9494  0.7145
 2270lim     li13070   5.237   1.301   0.351  1.2432  1.0464  0.5332
 2271lim     li13071   4.644   0.106   4.462 -1.1932  0.7869 -0.4905
 2272lim     li13072   1.074   4.054   0.291  0.6375 -0.8968  0.8923
 2273lim     li13073   1.925   0.571   1.541 -0.4383  1.1419 -0.1031
 2274lim     li13074   6.914   5.985   6.796  0.1121  0.2679  0.5858
 2275lim     li13075   4.309   0.332   2.247 -0.8811  0.6252  0.8669
 2276lim     li13076   5.989   2.362   1.054 -0.5892 -1.4291  0.7235
 2277lim     li13077   7.023   3.096   6.522 -1.1810 -0.3351 -0.3651
 2278lim     li13078   3.171   2.555   1.979  0.7150  0.2565 -0.2058
 2279lim     li13079   6.526   0.203   0.345  0.3359  0.5449 -0.5422
 2280lim     li13080   4.249   1.040   6.144 -0.3773  1.1115  0.6657
 2281lim     li13081   1.452   2.070   6.454 -0.4869 -0.0214 -0.4230
 2282lim     li13082   5.340   0.420   6.959 -0.4196  0.4859 -0.3319
 2283lim     li13083   6.562   3.810   3.716  0.6899 -0.6158  0.2362
 2284lim     li13084   2.097   3.024   0.640  0.1543  0.7342 -0.5988
 2285lim     li13085   3.386   6.236   5.660 -0.8951  0.4534 -0.0030
 2286lim     li13086   4.058   5.550   4.934  0.3213 -0.3904 -0.9346
 2287lim     li13087   4.187   5.482   3.171  0.4164  0.7650 -0.1781
 2288lim     li13088   6.817   2.726   6.031  1.2399  0.2393  0.8672
 2289lim     li13089   0.149   1.929   6.256 -0.5988  0.8394  0.0110
 2290lim     li13090   1.095   0.756   2.051  0.7232 -0.8791 -0.5774
 2291lim     li13091   4.297   4.160   6.505  0.2795  0.1211  0.3837
 2292lim     li13092   2.748   3.534   0.225  0.0697  0.0975 -0.2366
 2293lim     li13093   2.190   2.695   4.284  0.7181 -0.4999 -0.7617
 2294lim     li13094   0.438   0.151   4.497  0.2275 -0.6680  0.5506
 2295lim     li13095   6.298   6.790   6.899  0.1993  0.4320 -0.3028
 2296lim     li13096   6.806   0.777   3.606  0.0490  0.4173 -0.5458
 2297lim     li13097   2.478   6.390   4.092 -0.4123 -0.3457 -0.3167
 2298lim     li13098   0.768   0.128   1.744 -0.4809 -0.8560 -0.3546
 2299lim     li13099   4.532   0.320   6.353 -0.4518 -0.0856  0.4605
 2300lim     li13100   4.142   1.443   1.419  0.2324  0.5351 -0.2331
 2301lim     li13101   0.359   3.484   5.442 -0.1411  0.8577  0.3373
 2302lim     li13102   0.293   2.053   4.304 -0.4811 -0.1184  1.4647
 2303lim     li13103   6.060   4.016   2.635 -0.2583  0.0013 -0.6321
 2304lim     li13104   3.609   3.985   3.226  0.4137 -0.5356 -0.4940
 2305lim     li13105   3.719   3.399   6.850 -1.0280  0.2786 -0.2623
 2306lim     li13106   0.688   1.001   2.517  0.4686 -1.0845  0.2024
 2307lim     li13107   4.340   1.744   4.537  0.7582 -0.3502  0.8386
 2308lim     li13108   2.671   4.762   4.886  0.2352 -0.9593  0.0760
 2309lim     li13109   2.070   4.472   4.499 -0.5289  0.7023  0.0158
 2310lim     li13110   1.672   5.887   0.614 -0.5933 -0.4699 -0.3197
 2311lim     li13111   2.581   2.224   0.379 -0.1295 -0.4778 -0.1098
 2312lim     li13112   6.251   0.126   2.517  1.2117 -1.4050  0.5796
 2313lim     li13113   0.449   6.703   0.666  0.7920 -0.3794  0.7678
 2314lim     li13114   5.657   1.531   5.788  0.1153  0.0739 -0.0243
 2315lim     li13115   4.396   1.739   6.031  0.5394 -0.0518 -0.8132
 2316lim     li13116   3.631   0.129   6.377 -0.7929  0.4841 -0.0431
 2317lim     li13117   5.604   1.888   4.434 -0.7496 -0.5619  0.7867
 2318lim     li13118   4.431   2.229   3.833 -0.6777 -1.1258  1.0736
 2319lim     li13119   4.210   1.687   0.458  0.0690  0.4706 -0.2145
 2320lim     li13120   4.889   2.797   1.722  1.0450 -0.1418 -0.6760
 2321lim     li13121   5.077   0.578   2.306 -0.6182 -0.6031 -0.0257
 2322lim     li13122   6.608   0.173   3.183 -0.1407  0.6747 -1.0205
 2323lim     li13123   3.450   0.015   3.633 -0.1402  0.5189  0.2986
 2324lim     li13124   3.072   0.070   5.520 -0.8438  0.4052 -0.2799
 2325lim     li13125   4.978   6.084   3.432 -0.2414 -0.1218 -0.2529
 2326lim     li13126   2.897   6.447   6.039  0.8469 -0.6126 -0.6789
 2327lim     li13127   0.741   1.017   6.754 -0.9578  0.0228 -1.0791
 2328lim     li13128   4.694   1.493   6.763  1.0885  0.3607  0.0654
 2329lim     li13129   3.670   0.719   4.285  0.5429 -0.9834  0.0374
 2330lim     li13130   2.535   4.679   0.009 -0.3191  0.2512  1.0399
 2331lim     li13131   1.043   5.944   2.689  0.6273 -0.0084  0.3555
 2332lim     li13132   4.179   2.236   5.054  0.2694  0.3395 -0.9689
 2333lim     li13133   2.548   3.896   3.911  1.2225  0.6284 -1.1563
 2334lim     li13134   3.102   6.716   1.254  0.0207 -0.3521 -0.5304
 2335lim     li13135   6.171   2.788   6.227  0.9571 -1.2263 -0.2553
 2336lim     li13136   3.014   1.229   6.278 -0.4805 -0.7064  0.7848
 2337lim     li13137   0.088   1.381   0.786 -0.9866 -0.4517  0.6529
 2338lim     li13138   1.740   3.231   5.240 -0.9383 -0.0810 -0.0082
 2339lim     li13139   5.064   4.611   1.121 -0.7377 -0.4487  0.6825
 2340lim     li13140   5.495   4.479   4.963  0.1640  0.2826 -0.3641
 2341lim     li13141   4.362   4.453   0.063  0.0401 -0.1995 -0.7569
 2342lim     li13142   5.233   4.998   6.988 -0.9182 -0.1592  0.1938
 2343lim     li13143   1.474   6.691   2.441 -0.8440  0.4723 -0.3213
 2344lim     li13144   1.152   0.007   5.110 -0.0963  0.5577  0.3214
 2345lim     li13145   4.818   0.271   3.561  0.1705 -0.7629 -1.1586
 2346lim     li13146   4.880   5.488   5.476 -0.6828  0.7437  0.0994
 2347lim     li13147   2.347   0.589   4.498 -0.8547 -0.2607 -0.4965
 2348lim     li13148   1.502   3.233   6.242 -0.4003 -0.0932 -0.5742
 2349lim     li13149   0.094   2.892   2.889  0.4517 -0.5877 -0.2986
 2350lim     li13150   1.897   3.005   3.209 -0.0062 -0.1312 -0.0442
 2351lim     li13151   0.280   1.022   1.617 -0.0481  0.4180  0.3337
 2352lim     li13152   5.249   6.161   1.207  0.1463 -0.2235  1.1342
 2353lim     li13153   6.277   6.600   6.384  0.5071 -0.9835 -0.6304
 2354lim     li13154   6.785   5.118   6.080 -0.0259 -1.6103  0.9404
 2355lim     li13155   6.164   3.792   0.809  0.4476  1.1110 -0.2400
 2356lim     li13156   6.155   2.784   2.675 -0.0182 -0.8206  0.0916
 2357lim     li13157   4.222   6.101   0.932  1.4965 -0.2332  0.8167
 2358lim     li13158   3.216   5.739   4.015 -0.5823 -1.5903 -0.9528
 2359lim     li13159   0.413   5.595   5.482  0.1355  0.8071 -0.3888
 2360lim     li13160   5.442   5.847   3.530 -0.2463 -0.5262 -0.0430
 2361lim     li13161   1.596   0.017   3.980 -0.1651  0.9794 -1.0971
 2362lim     li13162   0.813   4.611   3.880 -0.0359 -0.7912  0.0456
 2363lim     li13163   4.330   4.595   3.408  0.4695  0.2894  1.0558
 2364lim     li13164   3.981   6.472   6.240  0.2168 -0.0354  0.2253
 2365lim     li13165   0.168   4.633   6.513 -0.5343  0.2955 -0.1040
 2366lim     li13166   6.032   2.732   1.545  0.2801 -0.8068  0.8793
 2367lim     li13167   2.634   1.853   4.771 -0.3049 -0.0752 -0.7629
 2368lim     li13168   6.633   6.300   2.048 -0.1839 -0.0006  0.6526
 2369lim     li13169   6.227   0.838   0.263 -0.2447 -0.4156 -0.9478
 2370lim     li13170   2.505   4.860   3.464  1.0524 -0.0289  0.2434
 2371lim     li13171   0.120   6.252   4.614  0.2264 -0.0935  0.4190
 2372lim     li13172   4.854   3.933   5.354  0.0429  0.2502  0.1859
 2373lim     li13173   5.724   3.020   4.827 -0.1169 -0.0416  1.2227
 2374lim     li13174   5.901   6.398   0.436  0.1213  0.8076  0.5555
 2375lim     li13175   1.302   1.783   1.968  0.7778 -0.1124 -0.7060
 2376lim     li13176   6.690   1.945   5.599 -0.2990 -0.4781  0.2571
 2377lim     li13177   3.908   0.461   4.857  0.1035 -0.0339 -0.5996
 2378lim     li13178   2.724   2.758   4.275  0.7379  0.0678 -0.8130
 2379lim     li13179   4.164   0.006   5.819  0.6066 -0.1693  0.3514
 2380lim     li13180   3.514   1.929   5.501  1.1432  1.2937 -1.1822
 2381lim     li13181   1.799   5.777   4.573  0.7435  0.7519  2.1890
 2382lim     li13182   6.864   3.381   1.381 -0.2434  0.4694 -0.4566
 2383lim     li13183   6.268   5.004   5.591 -0.3806 -1.5530 -0.4140
 2384lim     li13184   3.135   0.834   3.434 -0.2808 -0.3874 -1.6259
 2385lim     li13185   2.970   6.972   4.435 -0.6369 -0.0596  1.2239
 2386lim     li13186   3.540   0.311   2.661 -0.3917  0.0489 -0.3158
 2387lim     li13187   0.906   2.897   2.525 -0.8549  0.1606  0.0188
 2388lim     li13188   2.891   2.815   5.555 -0.4342 -0.4912  0.3513
 2389lim     li13189   0.368   5.910   2.615  0.5252  0.5739 -0.3179
 2390lim     li13190   6.158   3.316   4.138 -0.5030  1.0311  0.1521
 2391lim     li13191   6.402   3.998   5.978  1.1289  0.0162 -0.1665
 2392lim     li13192   6.460   0.939   1.863  0.7092 -0.5674  0.7217
 2393lim     li13193   5.172   5.991   4.676 -0.8674  1.0515  0.5056
 2394lim     li13194   4.610   6.339   5.046  0.4601 -0.0189  0.3511
 2395lim     li13195   6.740   5.026   0.333 -0.8506 -0.2775 -0.1641
 2396lim     li13196   6.693   5.972   0.650  0.6513  1.0973  1.1873
 2397lim     li13197   3.751   2.048   3.263 -0.7050 -0.2951 -0.3622
 2398lim     li13198   0.997   2.784   0.269  1.0472  0.2734 -0.2546
 2399lim     li13199   1.629   0.559   3.203 -0.3863 -0.3698  0.0418
 2400lim     li13200   2.526   5.103   6.481 -0.5196 -0.9805 -0.4021
 2401lim     li13201   1.808   3.184   4.222  0.7639 -0.4307  0.4115
 2402lim     li13202   2.583   1.306   1.665  1.0749  0.6027 -0.4019
 2403lim     li13203   2.593   2.765   1.396  0.2786 -0.1369 -0.1353
 2404lim     li13204   5.857   1.375   4.003 -0.2870  0.3603  0.5169
 2405lim     li13205   4.284   3.101   5.980 -0.2488 -0.3395  0.9250
 2406lim     li13206   3.891   6.243   2.756 -0.9972 -0.9604  0.5035
 2407lim     li13207   5.636   6.653   4.150  0.0014 -0.1620  0.0096
 2408lim     li13208   5.708   0.816   1.248 -1.0483 -0.3528 -0.5018
 2409lim     li13209   3.216   1.606   1.290  0.8575 -1.0737 -0.6002
 2410lim     li13210   0.891   4.218   2.046  0.1563  0.4633  0.2655
 2411lim     li13211   6.063   4.795   4.320  0.8841 -0.3041  0.1097
 2412lim     li13212   1.629   0.865   5.077 -0.9977  0.5905  0.5135
 2413lim     li13213   3.766   3.107   4.800  1.4574 -0.5820  0.6883
 2414lim     li13214   0.746   4.945   2.741  1.0478 -0.0430 -0.4690
 2415lim     li13215   4.716   5.381   4.035 -0.2430 -0.3043 -0.4076
 2416lim     li13216   6.435   3.147   1.974 -0.9038 -0.7265  0.4324
 2417lim     li13217   7.034   1.743   0.224  1.1431 -0.3778  0.0533
 2418lim     li13218   6.214   0.677   6.622 -0.0590 -0.4210  0.6961
 2419lim     li13219   6.736   5.318   2.253 -0.6366  1.0311 -0.2725
 2420lim     li13220   5.881   6.809   0.893  0.4520 -0.0205 -0.4966
 2421lim     li13221   5.579   5.642   1.535  0.3245 -0.0901 -1.1376
 2422lim     li13222   3.670   6.976   5.100  0.8224  0.2377  0.3845
 2423lim     li13223   6.842   3.527   2.700 -1.0177  0.9079  0.9535
 2424lim     li13224   2.252   3.965   3.212  0.4628  0.1534  1.1318
 2425lim     li13225   0.561   4.086   4.669  0.0338  0.7980  1.3350
 2426lim     li13226   1.661   0.029   1.121  0.1221 -0.0687  0.8325
 2427lim     li13227   1.718   0.302   6.027  0.3987 -0.4599  0.0833
 2428lim     li13228   2.947   3.967   2.218 -0.0189 -0.8229  0.1404
 2429lim     li13229   6.211   3.476   5.549 -0.3033 -1.0391 -0.4091
 2430lim     li13230   1.738   4.711   3.044 -0.7842 -0.8438  0.2169
 2431lim     li13231   6.623   4.576   4.879  0.2379  0.3713  0.0244
 2432lim     li13232   7.036   5.712   4.195 -0.9291  0.3052  0.7338
 2433lim     li13233   2.451   2.862   6.686  0.2519  0.1530 -0.7357
 2434lim     li13234   0.435   2.437   0.648  0.1324 -0.6544 -0.8293
 2435lim     li13235   5.913   0.087   5.511  0.1241 -0.5369 -0.0241
 2436lim     li13236   5.581   5.480   0.480 -0.4906  0.1027 -0.3557
 2437lim     li13237   5.065   4.196   1.990  0.5003 -0.1574 -0.6508
 2438lim     li13238   4.649   5.138   0.946  0.1372 -0.2383  0.8905
 2439lim     li13239   0.026   4.106   0.533  0.8255  0.2246 -1.2065
 2440lim     li13240   1.249   3.130   1.432  0.4387 -0.3761  1.5152
 2441lim     li13241   4.833   1.003   0.774  0.0762 -0.1041 -0.5361
 2442lim     li13242   2.608   0.404   3.606  0.0087  0.1852 -0.3382
 2443lim     li13243   1.804   5.206   0.406 -0.3045 -0.4600 -0.0867
 2444lim     li13244   6.223   0.921   3.946 -0.7426  0.6279  0.1032
 2445lim     li13245   3.429   1.242   0.295 -0.4181 -0.4794  0.1410
 2446lim     li13246   2.359   6.521   5.079  0.5663 -0.1840  0.5512
 2447lim     li13247   3.954   3.356   0.769  0.6468 -0.2060 -0.5933
 2448lim     li13248   5.222   5.130   2.385  0.0693  0.8042 -0.4669
 2449lim     li13249   6.808   6.334   5.753 -0.6030 -0.1804 -0.5207
 2450lim     li13250   1.360   1.244   4.205  0.9816 -1.0115  0.0183
 2451lim     li13251   2.181   5.182   2.001  0.0388 -0.3854  1.1320
 2452lim     li13252   2.962   4.921   2.891 -0.1808  0.4132 -0.3120
 2453lim     li13253   2.770   6.971   2.130  0.1744  0.3301 -0.3428
 2454lim     li13254   3.880   2.016   6.825 -0.4818 -0.1768 -0.2915
 2455lim     li13255   0.470   3.666   1.896 -0.2683  0.9415  0.4635
 2456lim     li13256   4.594   1.249   4.547 -0.3366  0.9738 -0.3588
 2457lim     li13257   4.939   4.191   5.862 -0.3927 -0.7590  1.3180
 2458lim     li13258   3.600   4.594   2.809  0.2935 -0.5070  0.1211
 2459lim     li13259   2.413   0.476   6.350 -0.2528  0.9963  0.8479
 2460lim     li13260   0.394   4.396   3.073  0.4868 -0.9179 -0.0573
 2461lim     li13261   5.649   4.575   0.565  0.7168  0.2049 -0.6011
 2462lim     li13262   4.472   2.204   2.870 -0.2570 -0.1464 -0.5121
 2463lim     li13263   3.530   4.082   6.018 -0.7190 -0.4107  1.1144
 2464lim     li13264   4.362   3.828   3.745  0.0554  0.4779  0.0812
 2465lim     li13265   1.002   0.671   3.698 -1.1470 -0.7967  0.2539
 2466lim     li13266   5.281   6.194   2.223  0.0723  0.3311 -0.5340
 2467lim     li13267   1.428   2.512   1.919 -0.4094 -0.4277  0.2835
 2468lim     li13268   4.796   5.982   2.564  0.6466  0.7586 -0.2718
 2469lim     li13269   6.297   1.316   5.142  0.2250  0.2404  0.2771
 2470lim     li13270   4.008   5.960   0.430  0.1539  0.8501  0.1493
 2471lim     li13271   5.628   1.653   1.746 -0.2729  0.0093  0.2775
 2472lim     li13272   1.515   4.863   6.880 -0.6998 -1.2932  0.5784
 2473lim     li13273   4.288   2.915   0.042 -0.1185  0.2105 -0.0928
 2474lim     li13274   6.212   4.342   0.223  0.3822  0.8774  1.0119
 2475lim     li13275   6.575   1.811   1.959  0.2963  0.9505  0.7535
 2476lim     li13276   0.646   1.693   2.539  0.3280  1.1877 -0.3753
 2477lim     li13277   1.418   2.250   3.279 -0.0690 -0.3334  0.4523
 2478lim     li13278   3.166   4.543   3.941 -0.1960 -0.1232  0.8403
 2479lim     li13279   4.371   3.588   2.471  0.4163  0.1384  0.4533
 2480lim     li13280   0.101   3.777   6.677 -0.1022  0.6079  0.2317
 2481lim     li13281   0.732   1.692   5.115 -0.3409 -0.4004  0.4000
 2482lim     li13282   1.360   6.781   6.944  0.6465  1.0370 -0.1771
 2483lim     li13283   1.057   0.891   5.549 -0.8189 -0.0427  0.4949
 2484lim     li13284   3.021   4.110   1.698 -0.4977 -0.2531 -0.5577
 2485lim     li13285   5.730   6.321   3.039  0.0794 -1.1540  0.4230
 2486lim     li13286   5.942   1.156   2.597  0.2202 -0.0747  0.0611
 2487lim     li13287   0.497   0.665   0.287 -0.3383 -0.0134 -0.2544
 2488lim     li13288   0.340   2.473   1.902  0.3802 -0.3516 -0.2975
 2489lim     li13289   2.794   1.461   4.023 -1.3639  0.9532 -0.4884
 2490lim     li13290   1.271   3.809   3.302  0.1443  0.6480  0.4628
 2491lim     li13291   1.360   0.555   0.500  0.0402 -0.9068 -0.9047
 2492lim     li13292   2.157   6.732   4.373 -0.2179 -0.1570 -0.1376
 2493lim     li13293   0.118   0.995   6.766 -0.1060 -0.7950  0.7084
 2494lim     li13294   1.843   2.447   2.547 -0.8755 -0.2059 -0.1321
 2495lim     li13295   1.546   1.224   0.994 -1.1940  0.9568  0.6366
 2496lim     li13296   4.454   5.606   1.746 -1.0010 -0.1813 -0.5022
 2497lim     li13297   1.133   6.273   5.066  1.5788  1.5480 -0.8748
 2498lim     li13298   4.002   2.197   1.862 -0.5624  0.3029 -0.1540
 2499lim     li13299   4.176   4.570   1.596 -0.7977 -0.2739  0.2894
 2500lim     li13300   5.340   5.007   4.128 -0.6809  0.1691  0.3955
 2501lim     li13301   1.773   5.325   3.842 -0.0071  0.3242 -0.1997
 2502lim     li13302   1.966   2.787   6.660  0.4655  0.0578  0.3634
 2503lim     li13303   0.123   3.519   3.632  0.1373  1.3841  0.6113
 2504lim     li13304   1.607   1.794   3.108 -0.6877 -1.2322  0.0399
 2505lim     li13305   1.356   6.449   3.010  0.3161  0.3450 -0.4931
 2506lim     li13306   6.494   2.218   3.521  0.1919  0.9531 -0.3004
 2507lim     li13307   1.761   0.948   2.405 -0.5050 -0.3447 -0.6848
 2508lim     li13308   5.044   0.395   4.660 -0.5594 -0.5013  1.0557
 2509lim     li13309   0.584   5.377   6.399  0.4063  0.0951  0.1078
 2510lim     li13310   5.684   5.566   4.807 -0.5047  1.7376 -0.4812
 2511lim     li13311   5.083   2.588   2.588 -0.0786 -0.5743  0.4795
 2512lim     li13312   0.252   1.020   4.119  0.5259  0.2169 -0.0909
 2513lim     li13313   4.798   3.038   0.714  0.5975 -0.5492  1.4776
 2514lim     li13314   0.098   1.292   4.961  0.8323  0.0164 -0.5352
 2515lim     li13315   2.259   6.740   3.227  0.2993 -1.5503 -0.4729
 2516lim     li13316   4.575   1.275   2.877 -0.9356 -0.3508 -0.9979
 2517lim     li13317   0.684   1.960   6.762  0.0861 -0.4905  0.1941
 2518lim     li13318   0.738   3.558   0.764 -0.0908 -0.8078  0.5685
 2519lim     li13319   0.666   0.563   5.779  0.8215 -0.7224 -0.3180
 2520lim     li13320   5.628   0.237   3.931  0.2265  0.0571  0.4972
 2521lim     li13321   5.880   1.745   0.479 -0.1362  0.4341  0.8317
 2522lim     li13322   2.468   5.758   0.434  0.1594 -0.4071  0.4152
 2523lim     li13323   1.369   6.192   5.931 -1.2346  0.4907  0.1256
 2524lim     li13324   3.958   0.702   2.115 -0.0659  0.5481 -0.6647
 2525lim     li13325   2.229   4.795   1.410  1.1237  0.4249  0.1602
 2526lim     li13326   6.461   2.024   6.948  0.4933  0.4127 -0.0547
 2527lim     li13327   6.580   0.559   5.268  0.1276 -0.8097 -0.5013
 2528lim     li13328   4.012   2.797   4.163 -0.1829 -0.2367 -0.3034
 2529lim     li13329   1.557   4.496   6.281 -0.5393  1.0561 -0.4014
 2530lim     li13330   3.418   2.633   4.251 -0.3153  0.1911 -1.5714
 2531lim     li13331   6.483   6.783   3.849 -0.6635 -0.6629  0.6307
 2532lim     li13332   6.679   2.982   0.462 -0.9361  0.7263  1.1987
 2533lim     li13333   3.820   4.106   0.807 -0.5741  0.3642 -0.3616
 2534lim     li13334   1.199   2.510   5.969  0.5174 -0.5275  0.0037
 2535lim     li13335   3.565   2.940   3.086  0.6027  0.5409  0.1663
 2536lim     li13336   6.343   5.562   6.709 -0.3471  0.5096 -0.7943
 2537lim     li13337   1.437   2.997   0.742  0.0609 -0.4673 -0.3711
 2538lim     li13338   3.733   2.856   2.623 -0.2578  0.2001  0.2213
 2539lim     li13339   2.501   1.183   5.102 -0.2966  0.7167 -0.4928
 2540lim     li13340   3.703   5.828   3.721  1.1643  0.3363 -0.5198
 2541lim     li13341   3.233   1.745   4.898 -0.8171  0.9000  0.1739
 2542lim     li13342   6.258   2.971   3.425  0.4975 -0.0773  1.1137
 2543lim     li13343   6.800   2.518   4.518 -1.2050 -0.0038 -0.0730
 2544lim     li13344   3.501   2.814   0.888 -0.4604 -0.2149  0.0519
 2545lim     li13345   5.236   0.980   3.283  0.6273 -0.4415 -0.0613
 2546lim     li13346   4.716   5.350   6.326 -0.5581  0.6577 -0.0796
 2547lim     li13347   1.444   5.949   1.432  0.7715  0.0896 -0.1924
 2548lim     li13348   1.011   6.033   6.719  0.1849 -0.5867  0.0354
 2549lim     li13349   5.536   2.295   3.625 -0.7339  1.3507  0.4442
 2550lim     li13350   1.261   1.406   6.372  0.3511 -0.0854  1.0021
 2551lim     li13351   4.415   3.072   2.988  0.0827 -0.2515 -0.3073
 2552lim     li13352   5.427   1.736   5.010 -0.6385  0.2319  0.8737
 2553lim     li13353   0.902   1.547   0.909 -0.8818  0.1079  0.1712
 2554lim     li13354   3.424   2.594   5.822  0.4331  0.2378 -0.2549
 2555lim     li13355   3.544   6.306   4.721 -0.3909  0.8771  0.5036
 2556lim     li13356   6.641   0.838   4.714 -0.4913 -0.1897 -0.4721
 2557lim     li13357   3.855   6.643   4.054 -0.7195 -0.4243  0.4252
 2558lim     li13358   2.488   5.468   5.461  0.2203  0.7677  0.5061
 2559lim     li13359   5.490   3.490   5.554  0.2381  0.8701 -0.6331
 2560lim     li13360   2.983   3.394   3.881 -0.8728 -0.4595  0.2810
 2561lim     li13361   4.123   6.727   1.588 -1.1296 -1.1267 -0.2815
 2562lim     li13362   5.305   2.679   4.476  0.1236  0.0283  0.7078
 2563lim     li13363   1.381   5.601   6.227  0.5380 -1.5090 -0.2144
 2564lim     li13364   3.627   4.111   4.625  0.8034  0.6946  0.8275
 2565lim     li13365   1.313   3.644   5.102  0.0684 -0.5246  0.3379
 2566lim     li13366   6.831   2.986   5.162  0.2756 -0.4793  1.1109
 2567lim     li13367   6.109   6.591   4.926  0.7839  0.1162  1.3706
 2568lim     li13368   0.242   2.594   3.748 -0.0509 -0.0960 -0.2661
 2569lim     li13369   0.505   0.375   3.018  0.8905 -0.1178  1.6105
 2570lim     li13370   5.545   3.997   1.364 -0.3042 -0.0790  0.4681
 2571lim     li13371   5.342   3.194   2.442 -0.7194  0.7667  0.9256
 2572lim     li13372   1.948   3.868   1.317 -0.8979 -0.2704 -0.1962
 2573lim     li13373   0.131   5.242   3.615  0.3303  0.7816 -0.3304
 2574lim     li13374   3.916   5.161   4.316  0.4753  0.6216 -0.1353
 2575lim     li13375   2.768   5.341   4.131 -0.8795 -1.4240 -0.0068
 2576lim     li13376   1.539   4.421   2.005 -0.3315  1.5345 -0.0998
 2577lim     li13377   5.186   3.712   4.842  0.1729  1.3097  0.4400
 2578lim     li13378   2.256   6.080   5.949 -0.2674  2.5572 -0.9559
 2579lim     li13379   2.299   1.528   6.614 -0.2797 -0.2495  0.7153
 2580lim     li13380   2.363   4.425   0.807 -0.2347  0.4105  0.4635
 2581lim     li13381   2.365   3.270   1.557  0.2547  0.9292 -0.9907
 2582lim     li13382   4.741   3.076   5.407 -0.7006  0.1192  1.7827
 2583lim     li13383   3.435   3.040   6.568  0.0735  0.0299 -1.8387
 2584lim     li13384   3.186   4.400   7.019 -0.2006 -0.6407  0.1032
 2585lim     li13385   4.737   6.281   4.172  0.4814 -0.0259  0.8945
 2586lim     li13386   0.397   3.113   4.308  0.0186 -0.9030  0.4712
 2587lim     li13387   0.112   6.794   3.798 -0.0359 -0.4989 -1.1221
 2588lim     li13388   1.671   6.240   3.493  0.0478 -1.3320  0.1278
 2589lim     li13389   7.034   6.936   1.988  0.3501  0.2245  0.0338
 2590lim     li13390   4.996   2.801   1.203 -0.3557  0.3140 -0.2039
 2591lim     li13391   6.778   5.939   5.230  0.0374  0.3282  0.2431
 2592lim     li13392   4.059   0.675   1.583  0.3475  0.3498 -0.4207
 2593lim     li13393   2.842   2.129   3.209  0.5073 -0.5768  0.8439
 2594lim     li13394   0.506   6.587   6.922 -1.7979  1.5661  0.1851
 2595lim     li13395   5.659   3.859   4.312 -0.2958  1.2158  0.0956
 2596lim     li13396   2.255   2.858   5.946 -0.5837 -0.1150  0.2475
 2597lim     li13397   1.068   2.258   5.043 -0.1749 -0.2788 -0.4153
 2598lim     li13398   5.585   0.444   6.004  0.4493 -1.2673 -0.3381
 2599lim     li13399   1.153   1.930   3.991  1.0942 -0.2455 -0.5342
 2600lim     li13400   3.882   1.128   3.106 -0.3515  0.6489  0.2152
 2601lim     li13401   0.433   6.782   5.483 -0.0322 -0.0789 -0.3704
 2602lim     li13402   2.296   2.056   5.836 -0.7358 -0.2930  0.4002
 2603lim     li13403   0.089   4.907   4.899 -0.5520 -0.5337 -0.0559
 2604lim     li13404   4.844   1.378   2.034  0.6043 -0.6017 -1.0509
 2605lim     li13405   5.598   0.296   3.191 -0.9152  0.1212 -0.9525
 2606lim     li13406   4.895   6.261   6.933 -0.7261  0.9803  0.4020
 2607lim     li13407   0.099   4.857   2.229 -1.2955  1.1576  0.1618
 2608lim     li13408   2.127   0.260   2.675  1.4357 -1.3551 -0.2170
 2609lim     li13409   4.997   3.189   4.215  0.9466  0.7895  0.6197
 2610lim     li13410   3.643   4.848   5.723 -0.3778  0.4909 -0.8931
 2611lim     li13411   4.839   2.667   0.040 -1.4451 -0.2379 -0.3132
 2612lim     li13412   6.873   2.233   0.962  0.6112 -0.2429 -0.2313
 2613lim     li13413   1.978   6.651   0.681 -0.5006 -0.7979  0.4232
 2614lim     li13414   6.653   5.065   3.983 -1.1000  0.5665 -0.4896
 2615lim     li13415   5.880   3.169   0.518  0.0933 -1.2910  1.0434
 2616lim     li13416   5.164   4.597   3.134 -1.7384  0.0087 -0.6079
 2617lim     li13417   5.670   5.286   2.860  0.5435 -0.4105 -0.1204
 2618lim     li13418   1.167   1.929   0.376 -0.9946  0.5755  0.9448
 2619lim     li13419   4.677   3.224   3.621 -0.1934 -0.0642 -0.6036
 2620lim     li13420   0.751   3.711   3.558  0.8826  0.0061  0.9137
 2621lim     li13421   3.803   1.639   4.039  0.6781 -0.0713  0.7765
 2622lim     li13422   0.091   1.124   6.069  0.1117  0.3562 -0.8811
 2623lim     li13423   2.748   2.187   2.325  0.1663  0.1846 -0.1150
 2624lim     li13424   2.354   3.293   2.307 -0.8710  0.5950  0.2172
 2625lim     li13425   6.604   1.493   1.231 -0.1080  0.2743  0.4891
 2626lim     li13426   2.728   4.271   5.619 -0.5706 -0.2520  0.4349
 2627lim     li13427   3.118   5.003   1.965  0.3049  1.0846 -0.7383
 2628lim     li13428   1.545   4.553   3.915  0.4903  0.8989  0.2421
 2629lim     li13429   5.692   6.395   6.345  0.2221  0.0752 -1.4489
 2630lim     li13430   2.262   6.524   1.512 -1.0985  0.1304  0.0568
 2631lim     li13431   3.218   5.662   1.676  0.2002 -1.3260 -0.7361
 2632lim     li13432   1.920   6.677   5.565 -1.0660 -0.0845  0.3758
 2633lim     li13433   6.495   5.379   1.253 -0.3178 -0.0547 -0.3926
 2634lim     li13434   0.670   5.362   3.416 -0.5190 -1.1919  0.3783
 2635lim     li13435   6.327   6.388   2.733  0.2639 -0.4342 -0.8545
 2636lim     li13436   2.526   0.799   2.011 -0.3487  1.2521  0.2440
 2637lim     li13437   4.532   6.858   3.232 -0.3003 -0.8723 -0.8965
 2638lim     li13438   3.056   5.585   2.822 -1.4474  1.1216  0.7862
 2639lim     li13439   3.653   5.062   0.794  0.0609  1.0822 -0.2836
 2640lim     li13440   6.920   0.025   1.231  1.0943  0.0180  0.1295
 2641lim     li13441   3.091   6.386   0.077 -1.2372  0.3840 -0.1657
 2642lim     li13442   1.102   0.811   6.478  0.1686  0.7450 -0.7137
 2643lim     li13443   3.508   0.470   0.249  0.3324  1.2504  0.8813
 2644lim     li13444   3.116   6.572   6.558  0.1220  1.2723 -0.6128
 2645lim     li13445   6.334   5.511   5.090 -0.9724 -0.2678  1.2029
 2646lim     li13446   0.034   3.838   0.954 -0.3546 -0.4058 -0.7611
 2647lim     li13447   4.717   6.656   2.120 -0.3751  1.2719 -1.0406
 2648lim     li13448   3.310   2.468   0.484  0.6303 -0.2919 -0.4671
 2649lim     li13449   2.384   7.015   6.711 -0.4086  0.2423 -0.3684
 2650lim     li13450   4.797   4.173   2.705  0.2998  0.0765  0.0464
 2651lim     li13451   5.695   6.198   5.379  0.7022  0.3953 -0.1729
 2652lim     li13452   0.851   6.355   1.604 -0.7227  1.0231 -0.5471
 2653lim     li13453   0.491   1.812   1.772 -0.5026  0.1578 -1.9365
 2654lim     li13454   0.553   2.873   1.634 -0.4436  0.2712 -0.7363
 2655lim     li13455   3.877   5.767   5.979  0.1702  0.7360 -0.3923
 2656lim     li13456   6.931   1.511   3.368 -0.0960 -0.1546 -0.4650
 2657lim     li13457   5.160   2.655   6.383  0.8255 -0.8102  0.2911
 2658lim     li13458   5.637   2.532   5.712 -0.0709  0.1940  0.3415
 2659lim     li13459   1.973   1.313   5.738 -0.4926  0.0088 -0.2618
 2660lim     li13460   3.893   1.884   1.254 -0.1742  0.1191  0.1083
 2661lim     li13461   3.508   6.705   2.760 -0.3330  0.9896  0.2967
 2662lim     li13462   2.210   1.995   3.695  1.0171 -0.6199 -0.6615
 2663lim     li13463   1.930   1.710   4.396  0.5880 -0.4990 -0.2663
 2664lim     li13464   0.850   5.752   0.546  0.7614  0.4277 -0.5313
 2665lim     li13465   4.694   4.442   6.297 -0.0273 -0.5977 -0.3647
 2666lim     li13466   3.196   2.121   6.586 -0.4898 -0.3533  0.8909
 2667lim     li13467   4.068   6.839   0.819  0.3587 -0.6524  0.7236
 2668lim     li13468   5.529   3.869   6.819 -0.5742  0.3935  0.8608
 2669lim     li13469   1.278   4.805   5.137  0.1924  0.9971  1.1962
 2670lim     li13470   3.100   6.095   5.082 -0.6462 -0.3432 -0.1117
 2671lim     li13471   3.287   5.524   0.178  0.6705  0.2456  0.0039
 2672lim     li13472   3.092   5.040   5.219 -0.1733  0.0228 -0.3134
 2673lim     li13473   2.315   1.277   2.536 -0.4636 -0.5251 -1.6188
 2674lim     li13474   0.731   2.806   5.854  1.0701 -0.1698 -0.4382
 2675lim     li13475   4.994   1.548   5.320  0.4300  0.5473 -0.5349
 2676lim     li13476   1.753   1.088   3.471 -0.5334 -0.4378 -0.7687
 2677lim     li13477   6.199   6.141   4.090 -0.1288  0.4475  0.6857
 2678lim     li13478   5.306   0.029   1.261  0.0436  0.5155 -0.5692
 2679lim     li13479   4.587   3.462   6.640 -0.1268 -0.0278  0.5409
 2680lim     li13480   2.319   1.841   1.133  0.2646  0.6417 -0.7898
 2681lim     li13481   2.159   6.129   6.618 -0.4325  0.8463 -1.5321
 2682lim     li13482   6.701   4.670   3.039 -0.5788 -1.7492  1.2160
 2683lim     li13483   2.297   4.618   2.348  1.2139 -0.0738  0.6102
 2684lim     li13484   7.025   0.105   5.433 -0.9682 -0.1472  0.8139
 2685lim     li13485   2.989   1.245   5.606  0.3026  0.1874  0.6871
 2686lim     li13486   3.101   4.902   1.211 -0.4902 -0.2532 -0.5519
 2687lim     li13487   3.685   0.818   0.961 -1.1563  0.7231  0.6295
 2688lim     li13488   2.609   3.732   2.834  0.5330  0.5645 -0.9711
 2689lim     li13489   3.429   0.779   6.299  0.7984  0.4236  0.5680
 2690lim     li13490   6.082   1.699   5.834  0.4115  0.9920 -0.5913
 2691lim     li13491   4.041   1.072   5.232  0.7042 -1.3855  0.9864
 2692lim     li13492   5.927   1.926   6.428  0.2549  0.1070 -0.6805
 2693lim     li13493   0.840   6.596   4.043  1.7047 -0.0755 -0.1705
 2694lim     li13494   4.393   3.920   1.655 -0.1186 -0.1795  1.2352
 2695lim     li13495   5.091   1.534   0.819 -0.7872 -0.2160 -0.3016
 2696lim     li13496   4.728   3.864   0.874  0.3206 -1.2083 -0.3658
 2697lim     li13497   4.283   0.481   0.340  0.8673 -0.2557  0.8578
 2698lim     li13498   0.455   5.795   1.307 -0.0092  0.0657 -0.3050
 2699lim     li13499   6.770   1.156   2.578  0.9539 -0.8733  0.6366
 2700lim     li13500   2.883   0.366   1.158  0.1658  0.1806  0.3549
 2701ntf    cn113501   2.315   1.240   4.472  0.4011  0.4279 -0.1198
 2701ntf    sn213502   2.263   1.304   4.634  0.1437  0.0640 -0.0585
 2701ntf    nn313503   2.152   1.202   4.678  0.0686  0.0269 -0.3293
 2701ntf    sn213504   2.159   1.073   4.767 -0.3825  0.1485 -0.1143
 2701ntf    cn113505   2.062   1.138   4.907 -0.5210  0.1924 -0.2308
 2701ntf    fn413506   2.209   1.192   4.408  0.1821  0.1524  0.4407
 2701ntf    fn413507   2.370   1.336   4.399 -0.1173  0.8337  0.0131
 2701ntf    fn413508   2.403   1.142   4.480 -0.0735  0.0286  0.2960
 2701ntf    on513509   2.390   1.289   4.700  0.3742  0.5335 -0.3909
 2701ntf    on513510   2.213   1.436   4.605  0.3126  0.2008  0.2750
 2701ntf    on513511   2.289   1.050   4.827 -0.2855  0.0553 -0.3579
 2701ntf    on513512   2.069   0.968   4.727 -0.0437 -0.0740 -0.3034
 2701ntf    fn413513   2.056   1.044   4.999 -0.0801  0.1854 -0.2073
 2701ntf    fn413514   2.118   1.248   4.955  0.1548 -0.1779 -0.1542
 2701ntf    fn413515   1.934   1.165   4.886 -0.4973  0.4521 -0.0377
 2702ntf    cn113516   4.584   2.231   0.806 -0.1391 -0.1092  0.1754
 2702ntf    sn213517   4.739   2.317   0.765 -0.1673 -0.2304 -0.1897
 2702ntf    nn313518   4.766   2.237   0.633 -0.1726 -0.3627 -0.1112
 2702ntf    sn213519   4.809   2.280   0.488  0.1569  0.0850  0.1204
 2702ntf    cn113520   4.674   2.201   0.397 -0.0161  0.2452  0.2380
 2702ntf    fn413521   4.526   2.251   0.923  0.2002 -0.0643  0.3367
 2702ntf    fn413522   4.487   2.251   0.718  0.0655 -0.7959 -0.2169
 2702ntf    fn413523   4.611   2.102   0.801 -0.0429 -0.1039  0.5556
 2702ntf    on513524   4.715   2.458   0.751  1.2635  0.0391 -0.0553
 2702ntf    on513525   4.820   2.276   0.877 -0.4284 -0.2809 -0.0162
 2702ntf    on513526   4.931   2.217   0.444 -0.0067  0.2785 -0.6164
 2702ntf    on513527   4.802   2.422   0.460  0.1419  0.0757  0.0785
 2702ntf    fn413528   4.567   2.277   0.409  0.1248  0.4496  0.2035
 2702ntf    fn413529   4.702   2.192   0.268 -0.3207 -0.3874  0.2096
 2702ntf    fn413530   4.649   2.076   0.433  0.3921  0.1456  0.1871
 2703ntf    cn113531   5.465   4.607   4.168 -0.4608 -0.6344 -0.2787
 2703ntf    sn213532   5.599   4.530   4.072 -0.0108  0.0104 -0.1790
 2703ntf    nn313533   5.587   4.612   3.939 -0.1488  0.0286 -0.1553
 2703ntf    sn213534   5.540   4.555   3.800 -0.1169  0.1167 -0.2028
 2703ntf    cn113535   5.703   4.534   3.724 -0.2225 -0.4929 -0.2654
 2703ntf    fn413536   5.345   4.601   4.114 -0.3917 -0.1947 -0.4833
 2703ntf    fn413537   5.454   4.550   4.287  0.5311 -0.4306 -0.0810
 2703ntf    fn413538   5.481   4.736   4.191  0.0085 -0.6502 -0.5030
 2703ntf    on513539   5.720   4.567   4.140  0.1778 -0.3057 -0.3368
 2703ntf    on513540   5.570   4.388   4.069  0.0478 -0.0270  0.8294
 2703ntf    on513541   5.469   4.659   3.730 -0.4768  0.3818  0.5362
 2703ntf    on513542   5.475   4.426   3.802  0.2423 -0.0621 -0.0390
 2703ntf    fn413543   5.689   4.491   3.600  0.0280 -0.0768 -0.4391
 2703ntf    fn413544   5.767   4.650   3.716 -0.8516 -0.1426 -0.2384
 2703ntf    fn413545   5.780   4.452   3.794  0.3991 -0.4775 -0.9139
 2704ntf    cn113546   0.170   1.481   4.181  0.0173 -0.1292 -0.0266
 2704ntf    sn213547   0.349   1.514   4.173  0.0395 -0.2423 -0.0009
 2704ntf    nn313548   0.358   1.569   4.027 -0.5326 -0.1478 -0.0044
 2704ntf    sn213549   0.366   1.717   3.975  0.1631 -0.2688 -0.2554
 2704ntf    cn113550   0.228   1.739   3.859  0.2177  0.1169 -0.2493
 2704ntf    fn413551   0.131   1.433   4.298  0.4986  0.3636  0.3437
 2704ntf    fn413552   0.096   1.587   4.155 -0.1477 -0.2015  0.1443
 2704ntf    fn413553   0.125   1.392   4.095 -0.0435  0.0563 -0.1867
 2704ntf    on513554   0.369   1.600   4.288 -0.0205 -0.3164  0.0654
 2704ntf    on513555   0.405   1.382   4.183 -0.3137 -0.3636  0.4517
 2704ntf    on513556   0.484   1.732   3.894  0.2851 -0.6006 -0.1401
 2704ntf    on513557   0.340   1.811   4.082  0.8140  0.0489 -0.3753
 2704ntf    fn413558   0.119   1.677   3.899  0.0970  0.2948 -0.3009
 2704ntf    fn413559   0.198   1.867   3.849  0.4338  0.1635 -0.3205
 2704ntf    fn413560   0.260   1.695   3.738  0.0454 -0.7354  0.0088
 2705ntf    cn113561   1.198   1.230   5.787 -0.1245  0.0340 -0.3312
 2705ntf    sn213562   1.285   1.094   5.703  0.1353  0.0669 -0.1162
 2705ntf    nn313563   1.375   1.038   5.818 -0.1893 -0.1373  0.0414
 2705ntf    sn213564   1.413   0.891   5.858 -0.1112 -0.0835  0.1661
 2705ntf    cn113565   1.587   0.886   5.804 -0.0515  0.3252  0.3190
 2705ntf    fn413566   1.127   1.188   5.891 -0.1487  0.3031 -0.2395
 2705ntf    fn413567   1.285   1.314   5.841  0.1374 -0.0200 -0.6667
 2705ntf    fn413568   1.118   1.308   5.716  0.0517  0.6507  0.1468
 2705ntf    on513569   1.183   0.996   5.672  0.6480 -0.5168  0.0212
 2705ntf    on513570   1.363   1.153   5.597  0.0113 -0.5293 -0.5431
 2705ntf    on513571   1.349   0.785   5.783 -0.1768 -0.1070  0.2556
 2705ntf    on513572   1.420   0.874   6.001 -0.0313 -0.1055  0.1599
 2705ntf    fn413573   1.663   0.970   5.872 -0.2832  0.4473  0.4270
 2705ntf    fn413574   1.641   0.766   5.812  0.2194  0.4246  0.0023
 2705ntf    fn413575   1.596   0.922   5.677  0.3057 -0.7286  0.0333
 2706ntf    cn113576   0.361   2.810   5.327  0.4523 -0.3306 -0.1991
 2706ntf    sn213577   0.369   2.950   5.443 -0.3780 -0.3336 -0.1333
 2706ntf    nn313578   0.230   2.936   5.515 -0.2056 -0.3270  0.2076
 2706ntf    sn213579   0.200   2.952   5.668 -0.2278  0.1329  0.1547
 2706ntf    cn113580   0.193   2.777   5.715  0.0727  0.0279 -0.1836
 2706ntf    fn413581   0.478   2.770   5.281  0.4334 -0.1565 -0.3969
 2706ntf    fn413582   0.303   2.705   5.383  0.5512 -0.3586 -0.1491
 2706ntf    fn413583   0.288   2.846   5.223  0.0033  0.2814  0.3150
 2706ntf    on513584   0.487   2.918   5.519 -0.1160 -0.3248 -0.5351
 2706ntf    on513585   0.372   3.069   5.362  0.2004 -0.1183  0.2021
 2706ntf    on513586   0.066   2.993   5.700 -0.1118  0.4014  0.3027
 2706ntf    on513587   0.309   2.999   5.751  0.0363  0.3711 -0.3213
 2706ntf    fn413588   0.179   2.762   5.846 -0.1022 -0.5470 -0.2640
 2706ntf    fn413589   0.092   2.711   5.661  0.2755 -0.6345  0.2281
 2706ntf    fn413590   0.305   2.715   5.684  0.3115  0.0925  0.5277
 2707ntf    cn113591   6.919   2.166   6.751  0.2493  0.1536 -0.2997
 2707ntf    sn213592   6.880   2.037   6.630  0.2889  0.0739 -0.2274
 2707ntf    nn313593   6.751   2.096   6.564 -0.1140 -0.2818  0.2384
 2707ntf    sn213594   6.743   2.183   6.433  0.0034 -0.3122  0.2115
 2707ntf    cn113595   6.676   2.062   6.314 -0.1647 -0.0293  0.0186
 2707ntf    fn413596   7.003   2.137   6.850  0.0556 -0.0881 -0.2073
 2707ntf    fn413597   6.968   2.279   6.702  0.1831  0.3056 -0.0180
 2707ntf    fn413598   6.807   2.196   6.815  0.3563  0.0407 -0.0563
 2707ntf    on513599   6.998   2.030   6.546  0.2943  0.0948 -0.2213
 2707ntf    on513600   6.852   1.929   6.721 -0.1289  0.5600  0.2249
 2707ntf    on513601   6.869   2.218   6.371  0.0456 -0.7446  0.0474
 2707ntf    on513602   6.641   2.284   6.442 -0.0353 -0.3238 -0.0837
 2707ntf    fn413603   6.664   2.107   6.190  0.5353 -0.3629 -0.1742
 2707ntf    fn413604   6.758   1.959   6.311 -0.1504 -0.0375  0.5131
 2707ntf    fn413605   6.554   2.022   6.344 -0.4173  1.0715  0.5265
 2708ntf    cn113606   2.622   0.717   5.676  0.0256 -0.1061 -0.6607
 2708ntf    sn213607   2.686   0.829   5.804 -0.1230 -0.5039 -0.2376
 2708ntf    nn313608   2.543   0.867   5.856  0.0432  0.0191 -0.1585
 2708ntf    sn213609   2.468   1.005   5.845 -0.1758 -0.0857 -0.0051
 2708ntf    cn113610   2.321   0.968   5.945 -0.1952  0.2515  0.0912
 2708ntf    fn413611   2.710   0.662   5.593  0.1397 -0.9586  0.0111
 2708ntf    fn413612   2.550   0.620   5.730 -0.3120  0.4417 -0.1244
 2708ntf    fn413613   2.535   0.786   5.604  0.2574  0.6951 -0.1890
 2708ntf    on513614   2.754   0.737   5.892 -0.1244 -0.1575  0.1261
 2708ntf    on513615   2.759   0.930   5.731 -0.1738 -0.0523  0.3293
 2708ntf    on513616   2.414   1.040   5.716  0.0646  0.5462  0.0636
 2708ntf    on513617   2.523   1.105   5.933  0.0313 -0.7437  0.6183
 2708ntf    fn413618   2.237   1.069   5.961 -0.2419  0.2493 -0.1317
 2708ntf    fn413619   2.251   0.870   5.890 -0.2136  0.2950  0.0373
 2708ntf    fn413620   2.347   0.925   6.067 -0.1148 -0.5988 -0.2148
 2709ntf    cn113621   4.923   0.418   5.446 -0.3607  0.6848  0.0966
 2709ntf    sn213622   5.081   0.466   5.523 -0.2444 -0.0508  0.3237
 2709ntf    nn313623   5.161   0.502   5.393 -0.3158 -0.3748  0.1900
 2709ntf    sn213624   5.311   0.486   5.349 -0.3594  0.0692 -0.1320
 2709ntf    cn113625   5.363   0.659   5.367 -0.0136 -0.0118 -0.3539
 2709ntf    fn413626   4.868   0.325   5.522 -0.4049  0.3986 -0.2871
 2709ntf    fn413627   4.838   0.519   5.435 -0.7766  0.3215 -0.0129
 2709ntf    fn413628   4.948   0.369   5.326 -0.3793  0.3292  0.2395
 2709ntf    on513629   5.040   0.583   5.598  0.6558  0.3539  0.1915
 2709ntf    on513630   5.135   0.352   5.593  0.2908  0.2316  0.3690
 2709ntf    on513631   5.331   0.458   5.209 -0.4946 -0.0591 -0.1263
 2709ntf    on513632   5.397   0.411   5.438 -0.1929 -0.2886 -0.5898
 2709ntf    fn413633   5.326   0.736   5.266  0.0026  0.2176 -0.1838
 2709ntf    fn413634   5.330   0.714   5.483  0.0973 -0.3094 -0.1799
 2709ntf    fn413635   5.496   0.656   5.365 -0.0183 -0.3615 -0.2278
 2710ntf    cn113636   5.368   6.531   0.466  0.3527  0.3746 -0.3586
 2710ntf    sn213637   5.437   6.630   0.603 -0.1024 -0.0157  0.1563
 2710ntf    nn313638   5.382   6.551   0.727  0.2576  0.4969  0.6495
 2710ntf    sn213639   5.451   6.428   0.796  0.0512  0.2203  0.3685
 2710ntf    cn113640   5.518   6.532   0.929  0.0104 -0.0103  0.5707
 2710ntf    fn413641   5.414   6.407   0.467 -0.6197  0.0094  0.2425
 2710ntf    fn413642   5.236   6.523   0.470  0.3748  0.1733 -0.0766
 2710ntf    fn413643   5.396   6.587   0.349  0.6598  0.6503 -0.1550
 2710ntf    on513644   5.579   6.626   0.579 -0.1509  0.0604 -0.1479
 2710ntf    on513645   5.364   6.754   0.604 -0.4823 -0.2397  0.1997
 2710ntf    on513646   5.570   6.368   0.739 -0.2318 -0.6975  0.7228
 2710ntf    on513647   5.356   6.341   0.859  0.2636 -0.3075 -0.0314
 2710ntf    fn413648   5.426   6.579   1.011  0.1448  0.2881  0.5528
 2710ntf    fn413649   5.603   6.462   1.001  0.4176 -0.2734 -0.1603
 2710ntf    fn413650   5.581   6.636   0.875  0.0036 -0.3781 -0.1667
 2711ntf    cn113651   3.863   6.022   1.490  0.2012 -0.3468  0.7249
 2711ntf    sn213652   4.010   6.125   1.518  0.0268  0.0417  0.2170
 2711ntf    nn313653   4.120   6.013   1.524  0.0523  0.0602  0.1010
 2711ntf    sn213654   4.194   5.934   1.411 -0.3245 -0.1253 -0.0182
 2711ntf    cn113655   4.359   6.011   1.411 -0.5121  0.2752 -0.0023
 2711ntf    fn413656   3.886   5.929   1.398 -0.3553 -0.2433  0.4776
 2711ntf    fn413657   3.831   5.953   1.598 -0.5535 -0.0057  0.7236
 2711ntf    fn413658   3.754   6.087   1.453  0.2803 -0.6039  0.0260
 2711ntf    on513659   4.012   6.210   1.401 -0.1584  0.1824  0.3148
 2711ntf    on513660   3.993   6.194   1.644  0.3460  0.3292  0.1060
 2711ntf    on513661   4.155   5.952   1.273  0.0054 -0.2504 -0.1302
 2711ntf    on513662   4.227   5.800   1.453  0.5101  0.2540  0.5642
 2711ntf    fn413663   4.435   5.958   1.317  0.2316  0.2029  0.6323
 2711ntf    fn413664   4.350   6.142   1.389  0.1117  0.2764 -0.2714
 2711ntf    fn413665   4.432   6.004   1.521  0.2436  0.7221 -0.4704
 2712ntf    cn113666   4.545   3.037   6.474  0.2389 -0.3245 -0.1352
 2712ntf    sn213667   4.616   3.116   6.621  0.0336 -0.3493 -0.0225
 2712ntf    nn313668   4.767   3.105   6.577  0.0194  0.0058 -0.1688
 2712ntf    sn213669   4.874   3.004   6.631  0.2665  0.3279 -0.0543
 2712ntf    cn113670   4.957   3.095   6.764  0.2007  0.2773  0.0216
 2712ntf    fn413671   4.581   3.096   6.361 -0.1978 -0.2432 -0.2338
 2712ntf    fn413672   4.567   2.908   6.460 -0.5457 -0.4468 -0.3067
 2712ntf    fn413673   4.413   3.048   6.469  0.2746  0.3352  0.1966
 2712ntf    on513674   4.572   3.253   6.614  0.2772 -0.2302  0.6646
 2712ntf    on513675   4.568   3.043   6.735  0.1171 -0.2752  0.0612
 2712ntf    on513676   4.979   2.992   6.533 -0.1387 -0.2215 -0.4263
 2712ntf    on513677   4.828   2.879   6.687  0.7078  0.0321 -0.3414
 2712ntf    fn413678   5.015   3.010   6.848  0.3776  0.0793 -0.2997
 2712ntf    fn413679   5.044   3.187   6.725  0.3735  0.0284 -0.1786
 2712ntf    fn413680   4.869   3.154   6.843 -0.3458 -0.1114 -0.2947
 2713ntf    cn113681   6.456   6.490   3.450 -0.0114  0.2900  0.0127
 2713ntf    sn213682   6.599   6.463   3.340 -0.0044 -0.0409  0.1021
 2713ntf    nn313683   6.708   6.460   3.453 -0.2030  0.0084  0.2972
 2713ntf    sn213684   6.797   6.574   3.514  0.1570 -0.2500  0.2551
 2713ntf    cn113685   6.939   6.553   3.402  0.4290  0.2116  0.5123
 2713ntf    fn413686   6.450   6.615   3.492  0.5337  0.2143  0.3155
 2713ntf    fn413687   6.337   6.460   3.400  0.1330  0.1532 -0.2531
 2713ntf    fn413688   6.469   6.420   3.561  0.1060 -0.3424 -0.3922
 2713ntf    on513689   6.568   6.338   3.276 -0.0390  0.1517 -0.2593
 2713ntf    on513690   6.597   6.575   3.250 -0.0588 -0.4306 -0.3853
 2713ntf    on513691   6.844   6.547   3.647  0.0040  0.3186  0.4277
 2713ntf    on513692   6.758   6.711   3.494  0.7597  0.0136  0.8506
 2713ntf    fn413693   6.999   6.438   3.428  0.0279  0.0450  0.6987
 2713ntf    fn413694   6.909   6.548   3.274  0.0545  0.4112  0.5917
 2713ntf    fn413695   7.033   6.645   3.419  0.2018  0.3436  1.0882
 2714ntf    cn113696   1.986   0.231   4.137 -0.0926  0.1695  0.2419
 2714ntf    sn213697   2.072   0.207   4.295  0.2418  0.1743  0.0606
 2714ntf    nn313698   2.214   0.162   4.244 -0.0299 -0.1853 -0.3779
 2714ntf    sn213699   2.345   0.245   4.223 -0.0397 -0.1445 -0.2790
 2714ntf    cn113700   2.438   0.151   4.098  0.3101 -0.1083 -0.0470
 2714ntf    fn413701   2.046   0.321   4.061 -0.1547 -0.2079 -0.2593
 2714ntf    fn413702   1.991   0.125   4.058 -0.5544  0.2548  0.0936
 2714ntf    fn413703   1.860   0.269   4.151 -0.1879  0.1942 -0.6439
 2714ntf    on513704   2.069   0.329   4.371  0.7548  0.5470 -0.5065
 2714ntf    on513705   2.002   0.094   4.351  0.7212 -0.0389  0.2385
 2714ntf    on513706   2.437   0.238   4.333 -0.2337  0.2795 -0.0864
 2714ntf    on513707   2.325   0.374   4.160  0.2397  0.0547  0.0372
 2714ntf    fn413708   2.353   0.116   4.002 -0.0767 -0.1893  0.3243
 2714ntf    fn413709   2.534   0.221   4.040  0.0894  0.1510 -0.1029
 2714ntf    fn413710   2.486   0.036   4.140  0.5336 -0.1578 -0.4351
 2715ntf    cn113711   4.466   1.077   1.900 -0.0155  0.1628 -0.3564
 2715ntf    sn213712   4.319   1.139   1.813 -0.1752  0.1780 -0.0769
 2715ntf    nn313713   4.247   1.213   1.932 -0.1677  0.0104  0.0329
 2715ntf    sn213714   4.199   1.361   1.948  0.1722  0.1341 -0.0695
 2715ntf    cn113715   4.347   1.442   2.014  0.0703 -0.0800  0.4278
 2715ntf    fn413716   4.541   1.174   1.951 -0.3659  0.3365 -0.1662
 2715ntf    fn413717   4.444   0.994   2.001  0.1046 -0.2144 -0.6397
 2715ntf    fn413718   4.556   1.013   1.827 -0.2172 -0.2960 -0.2000
 2715ntf    on513719   4.373   1.231   1.717 -0.2671  0.0136 -0.2872
 2715ntf    on513720   4.257   1.015   1.772 -0.5694  0.3393  0.0282
 2715ntf    on513721   4.102   1.373   2.054  0.1569 -0.8173  0.0291
 2715ntf    on513722   4.167   1.428   1.824  0.2305 -0.5874 -0.4818
 2715ntf    fn413723   4.414   1.376   2.108 -0.2419  0.2350  0.8738
 2715ntf    fn413724   4.435   1.464   1.917  0.1975 -1.0602  0.3170
 2715ntf    fn413725   4.313   1.560   2.063 -0.0821  0.1944 -0.3155
 2716ntf    cn113726   3.498   4.518   5.128  0.0040  0.0048 -0.0980
 2716ntf    sn213727   3.630   4.609   5.042  0.0541  0.0677  0.0465
 2716ntf    nn313728   3.641   4.727   5.145 -0.0722  0.0262  0.1077
 2716ntf    sn213729   3.759   4.768   5.240 -0.1741 -0.0200  0.2542
 2716ntf    cn113730   3.837   4.883   5.123  0.0762  0.0182  0.4606
 2716ntf    fn413731   3.383   4.568   5.086 -0.0044  0.1299  0.0733
 2716ntf    fn413732   3.505   4.389   5.100  0.6681  0.0589 -0.2032
 2716ntf    fn413733   3.499   4.529   5.259  0.1108 -0.5386 -0.0534
 2716ntf    on513734   3.742   4.520   5.023 -0.2721 -0.3750  0.1998
 2716ntf    on513735   3.563   4.648   4.920  0.3642  0.3180 -0.0444
 2716ntf    on513736   3.862   4.674   5.277 -0.5032 -0.2649  0.5611
 2716ntf    on513737   3.717   4.867   5.337 -0.6058  0.0201  0.0286
 2716ntf    fn413738   3.773   4.991   5.082  0.3426 -0.2160 -0.5874
 2716ntf    fn413739   3.948   4.928   5.180  0.4194  0.4155 -0.5023
 2716ntf    fn413740   3.879   4.825   5.012 -0.3798 -0.0048  0.3017
 2717ntf    cn113741   2.749   6.265   5.530 -0.0239 -0.3974  0.1221
 2717ntf    sn213742   2.897   6.192   5.607  0.4039  0.1728 -0.1561
 2717ntf    nn313743   2.835   6.112   5.728  0.0763  0.3883 -0.1800
 2717ntf    sn213744   2.823   6.160   5.877  0.0280  0.2195 -0.1299
 2717ntf    cn113745   2.949   6.048   5.944 -0.0944  0.0949 -0.1056
 2717ntf    fn413746   2.676   6.178   5.461 -0.1027  0.3377 -0.7328
 2717ntf    fn413747   2.668   6.328   5.614  0.0064 -0.3942  0.1491
 2717ntf    fn413748   2.790   6.353   5.441 -0.0559 -0.4194  0.0856
 2717ntf    on513749   2.951   6.104   5.507  0.0985  0.1337 -0.2890
 2717ntf    on513750   2.987   6.298   5.644  0.3747 -0.1610  0.9033
 2717ntf    on513751   2.707   6.104   5.942 -0.2252  0.4100 -0.4161
 2717ntf    on513752   2.868   6.291   5.916  0.3035  0.0570  0.1005
 2717ntf    fn413753   3.070   6.076   5.897 -0.3096  0.2625 -0.5693
 2717ntf    fn413754   2.949   6.050   6.076  0.1239 -0.4532 -0.0923
 2717ntf    fn413755   2.921   5.923   5.911  0.0733  0.0646 -0.1352
 2718ntf    cn113756   1.873   2.130   0.476 -0.0245  0.1257  0.4488
 2718ntf    sn213757   1.884   2.014   0.616 -0.2065 -0.0462  0.3218
 2718ntf    nn313758   2.020   2.070   0.672 -0.1188 -0.2693  0.3302
 2718ntf    sn213759   2.057   2.101   0.821  0.1595 -0.1928  0.2454
 2718ntf    cn113760   2.008   2.276   0.832  0.5537 -0.0718  0.0907
 2718ntf    fn413761   1.990   2.148   0.416 -0.2624 -0.1765 -0.1174
 2718ntf    fn413762   1.788   2.088   0.384  0.4380  0.1530  0.0044
 2718ntf    fn413763   1.841   2.255   0.506  0.2313  0.1501  0.6271
 2718ntf    on513764   1.762   2.043   0.687 -0.3656  0.3277 -0.0972
 2718ntf    on513765   1.898   1.886   0.552 -0.0156 -0.0845  0.4394
 2718ntf    on513766   2.200   2.103   0.839  0.1260  0.5274  0.4966
 2718ntf    on513767   1.974   2.036   0.919 -0.3307 -0.3663 -0.2810
 2718ntf    fn413768   1.880   2.298   0.811  0.4588 -0.5857  0.1302
 2718ntf    fn413769   2.036   2.318   0.954  0.5476  0.5471 -0.1181
 2718ntf    fn413770   2.078   2.353   0.750  0.3998  0.2760  0.2812
 2719ntf    cn113771   2.701   5.592   3.497  0.4834 -0.0965 -0.1453
 2719ntf    sn213772   2.593   5.539   3.360 -0.1932  0.0784  0.3164
 2719ntf    nn313773   2.704   5.470   3.273 -0.7201  0.1923 -0.4588
 2719ntf    sn213774   2.730   5.317   3.248  0.1834  0.2678 -0.0474
 2719ntf    cn113775   2.843   5.277   3.385 -0.0479 -0.0961  0.0391
 2719ntf    fn413776   2.775   5.489   3.536  0.3510 -0.2159 -0.2093
 2719ntf    fn413777   2.791   5.685   3.469  0.4513 -0.1439 -0.4125
 2719ntf    fn413778   2.634   5.638   3.601 -0.1772  0.1622 -0.6773
 2719ntf    on513779   2.501   5.451   3.427 -0.2813  0.2670  0.4433
 2719ntf    on513780   2.539   5.660   3.303  0.1085  0.1930  0.2698
 2719ntf    on513781   2.809   5.294   3.130  0.3046  0.4448 -0.0016
 2719ntf    on513782   2.622   5.224   3.270  0.1582  0.3554  0.2007
 2719ntf    fn413783   2.787   5.270   3.504 -0.3803  0.5278 -0.0733
 2719ntf    fn413784   2.892   5.155   3.373  0.3254  0.0392  0.1794
 2719ntf    fn413785   2.949   5.356   3.387  0.0648 -0.2443 -0.0592
 2720ntf    cn113786   1.075   2.231   0.957  0.8820 -0.0048 -0.4021
 2720ntf    sn213787   1.056   2.214   0.777 -0.4094 -0.0646 -0.2695
 2720ntf    nn313788   1.046   2.363   0.727  0.2419  0.2361  0.4831
 2720ntf    sn213789   0.927   2.462   0.698 -0.0903 -0.3509 -0.1806
 2720ntf    cn113790   0.975   2.611   0.790 -0.1554 -0.3131 -0.2087
 2720ntf    fn413791   0.960   2.279   1.003  0.7616 -0.4638 -0.2220
 2720ntf    fn413792   1.093   2.112   1.010  0.0932  0.2212  0.4006
 2720ntf    fn413793   1.176   2.308   0.995  0.3854  0.2118  0.4951
 2720ntf    on513794   1.170   2.137   0.735  0.1000  0.5523 -0.0353
 2720ntf    on513795   0.935   2.139   0.754 -0.4064 -0.1224 -0.0976
 2720ntf    on513796   0.803   2.421   0.760 -0.0349  0.4348  0.4682
 2720ntf    on513797   0.922   2.509   0.562  0.5667 -0.7177 -0.3403
 2720ntf    fn413798   0.877   2.700   0.783 -0.0312 -0.2206 -0.7965
 2720ntf    fn413799   1.009   2.591   0.916  0.6128 -0.0720 -0.3743
 2720ntf    fn413800   1.079   2.670   0.733  0.4263 -0.7507  0.3967
 2721ntf    cn113801   1.026   5.587   1.386  0.2764 -0.3346  0.0254
 2721ntf    sn213802   0.898   5.556   1.511 -0.2379 -0.0236 -0.4179
 2721ntf    nn313803   0.965   5.632   1.631 -0.3426 -0.3408 -0.1563
 2721ntf    sn213804   0.904   5.644   1.775  0.5106 -0.1881  0.1973
 2721ntf    cn113805   0.823   5.806   1.760  0.4809 -0.2404 -0.2120
 2721ntf    fn413806   0.981   5.562   1.264 -0.2230 -0.0590  0.1522
 2721ntf    fn413807   1.073   5.710   1.385 -0.4826 -0.0406 -0.3433
 2721ntf    fn413808   1.132   5.509   1.400  0.7420  0.1882 -0.5753
 2721ntf    on513809   0.782   5.623   1.459 -0.4914 -0.2915 -0.2007
 2721ntf    on513810   0.895   5.412   1.526  0.4969  0.0148  0.1923
 2721ntf    on513811   0.986   5.666   1.892  0.0869  0.2472  0.4191
 2721ntf    on513812   0.796   5.553   1.806  0.1678 -0.0399 -0.5435
 2721ntf    fn413813   0.711   5.811   1.689  0.4995 -0.1357 -0.2347
 2721ntf    fn413814   0.791   5.860   1.877 -0.3177 -0.2606 -0.4106
 2721ntf    fn413815   0.913   5.880   1.697  0.3739  0.2855  0.2429
 2722ntf    cn113816   4.784   0.258   5.958  0.2702  0.1238  0.0225
 2722ntf    sn213817   4.846   0.104   6.033 -0.2284 -0.1780 -0.1762
 2722ntf    nn313818   5.000   0.135   6.040 -0.2089 -0.1934 -0.5166
 2722ntf    sn213819   5.093   0.187   6.155 -0.1361 -0.1274 -0.6044
 2722ntf    cn113820   5.122   0.041   6.259 -0.2571  0.2963  0.0323
 2722ntf    fn413821   4.662   0.290   5.999 -0.1189 -0.5804 -0.5622
 2722ntf    fn413822   4.871   0.355   5.982  0.6849 -0.3653  0.5275
 2722ntf    fn413823   4.780   0.246   5.827 -0.0121 -0.2475  0.0622
 2722ntf    on513824   4.776   0.103   6.159 -0.2510 -0.4362 -0.1910
 2722ntf    on513825   4.811  -0.001   5.940 -0.4965 -0.3218  0.0868
 2722ntf    on513826   5.030   0.292   6.232  0.4746  0.2201 -0.5747
 2722ntf    on513827   5.221   0.231   6.106  0.1306  0.2667  0.4191
 2722ntf    fn413828   5.238   0.052   6.322 -0.2960  0.0095  0.1548
 2722ntf    fn413829   5.025   0.019   6.346 -0.5287 -0.5598 -0.4771
 2722ntf    fn413830   5.126  -0.066   6.182 -0.5992 -0.1185  0.5796
 2723ntf    cn113831   0.513   0.967   4.761  0.1009  0.3565 -0.3483
 2723ntf    sn213832   0.406   0.911   4.626 -0.0768 -0.2621  0.0456
 2723ntf    nn313833   0.421   0.756   4.647  0.7453 -0.1149  0.5982
 2723ntf    sn213834   0.369   0.632   4.566 -0.1952  0.3686  0.4436
 2723ntf    cn113835   0.234   0.564   4.667 -0.1417 -0.3750  0.0269
 2723ntf    fn413836   0.456   0.950   4.879  0.2477  0.0358 -0.3208
 2723ntf    fn413837   0.634   0.912   4.768  0.2507  0.7890  0.7000
 2723ntf    fn413838   0.529   1.098   4.758 -0.2740  0.3997 -0.4585
 2723ntf    on513839   0.281   0.970   4.667 -0.2123 -0.2375 -0.4034
 2723ntf    on513840   0.482   0.967   4.517 -0.1860  0.2661  0.2354
 2723ntf    on513841   0.475   0.534   4.569 -0.5596 -0.0290  0.4071
 2723ntf    on513842   0.311   0.671   4.440  0.2917 -0.4743 -0.0527
 2723ntf    fn413843   0.164   0.474   4.601 -0.1425 -0.3959  0.0559
 2723ntf    fn413844   0.275   0.512   4.782  0.5890 -0.3933 -0.2373
 2723ntf    fn413845   0.145   0.658   4.694 -0.4615 -0.4732 -0.6708
 2724ntf    cn113846   2.837   4.478   6.613  0.0607  0.0928 -0.1046
 2724ntf    sn213847   2.671   4.405   6.611 -0.0060  0.2372  0.1406
 2724ntf    nn313848   2.712   4.254   6.626  0.0534  0.2416  0.0204
 2724ntf    sn213849   2.678   4.145   6.733 -0.0175  0.1894 -0.0551
 2724ntf    cn113850   2.814   4.035   6.682  0.1309  0.2568  0.1971
 2724ntf    fn413851   2.827   4.609   6.599 -0.2848  0.1345  0.5163
 2724ntf    fn413852   2.902   4.452   6.725  0.3225  0.3611 -0.1904
 2724ntf    fn413853   2.914   4.428   6.518 -0.5953 -0.3100 -0.4308
 2724ntf    on513854   2.608   4.466   6.726  0.5445 -0.2138  0.6860
 2724ntf    on513855   2.614   4.445   6.485  0.5905 -0.2577 -0.2895
 2724ntf    on513856   2.564   4.066   6.692 -0.1766  0.5715 -0.3584
 2724ntf    on513857   2.715   4.176   6.868  0.2574  0.0568 -0.0984
 2724ntf    fn413858   2.816   3.923   6.751  0.3014  0.1270 -0.0167
 2724ntf    fn413859   2.807   4.004   6.554  0.1550 -0.1542  0.2955
 2724ntf    fn413860   2.930   4.096   6.697  0.4234 -0.2130 -0.1435
 2725ntf    cn113861   4.240   4.654   0.944  0.1818 -0.2246  0.5643
 2725ntf    sn213862   4.125   4.525   0.999 -0.1540 -0.4224 -0.5740
 2725ntf    nn313863   4.201   4.409   1.072 -0.0532 -0.1169 -0.1890
 2725ntf    sn213864   4.280   4.290   1.006 -0.1406 -0.1234 -0.2824
 2725ntf    cn113865   4.162   4.155   0.977 -0.1555 -0.1805  0.0378
 2725ntf    fn413866   4.328   4.617   0.852 -0.0015  0.1143  0.2508
 2725ntf    fn413867   4.177   4.760   0.896  0.3856 -0.1952  0.3596
 2725ntf    fn413868   4.311   4.696   1.048  0.3807  0.3840  0.1927
 2725ntf    on513869   4.050   4.606   1.091 -0.0163 -0.4206 -0.4628
 2725ntf    on513870   4.051   4.488   0.881  0.0527 -0.4932 -0.6845
 2725ntf    on513871   4.371   4.237   1.106 -0.2656 -0.3983 -0.3137
 2725ntf    on513872   4.339   4.321   0.879  0.3280  0.1870  0.0060
 2725ntf    fn413873   4.058   4.186   0.901 -0.4193 -0.0934  0.4274
 2725ntf    fn413874   4.219   4.048   0.924  0.5427 -0.1107  0.6328
 2725ntf    fn413875   4.108   4.117   1.092  0.3945 -0.3937  0.2315
 2726ntf    cn113876   1.268   4.702   5.878 -0.0918  0.0326  0.2238
 2726ntf    sn213877   1.164   4.707   6.028 -0.3136 -0.2855  0.0817
 2726ntf    nn313878   1.074   4.587   5.982 -0.2095 -0.0393 -0.8016
 2726ntf    sn213879   0.929   4.601   5.924 -0.4870  0.0680 -0.1036
 2726ntf    cn113880   0.920   4.439   5.840  0.0525  0.1167 -0.2623
 2726ntf    fn413881   1.318   4.584   5.848  0.3572  0.1613  0.4581
 2726ntf    fn413882   1.204   4.749   5.772  0.6752  0.2883 -0.1298
 2726ntf    fn413883   1.374   4.780   5.892 -0.2576  0.2607  0.2178
 2726ntf    on513884   1.265   4.675   6.126 -0.2501 -0.0438  0.0957
 2726ntf    on513885   1.110   4.840   6.023  0.0454 -0.1386  0.0041
 2726ntf    on513886   0.911   4.701   5.821 -0.2452  0.0652 -0.1513
 2726ntf    on513887   0.826   4.600   6.024 -0.2967  0.1223  0.0932
 2726ntf    fn413888   0.799   4.400   5.804  0.0284  0.0350 -0.0947
 2726ntf    fn413889   0.999   4.413   5.737  0.1960  0.1655 -0.1660
 2726ntf    fn413890   0.948   4.347   5.931  0.3279  0.0091 -0.4544
 2727ntf    cn113891   1.774   6.821   6.003 -0.4277 -0.2941  0.0318
 2727ntf    sn213892   1.837   6.652   5.978 -0.0639 -0.1427 -0.0978
 2727ntf    nn313893   1.989   6.668   5.945 -0.1505 -0.2362 -0.5429
 2727ntf    sn213894   2.084   6.587   5.850  0.1350 -0.0484 -0.4193
 2727ntf    cn113895   2.235   6.688   5.860 -0.0575  0.1630  0.3837
 2727ntf    fn413896   1.808   6.907   5.908 -0.4962 -0.1809  0.1110
 2727ntf    fn413897   1.642   6.825   6.002 -0.4139  0.0809 -0.3440
 2727ntf    fn413898   1.805   6.875   6.120 -0.6964  0.4749 -0.2445
 2727ntf    on513899   1.812   6.587   6.104  0.0569  0.0377  0.0199
 2727ntf    on513900   1.766   6.599   5.864 -0.3095  0.5121 -0.2564
 2727ntf    on513901   2.045   6.601   5.712  0.4015  0.3160 -0.4580
 2727ntf    on513902   2.114   6.452   5.891  0.4893  0.3267  0.5877
 2727ntf    fn413903   2.318   6.656   5.763 -0.0137  0.3772  0.3503
 2727ntf    fn413904   2.212   6.817   5.843  0.2347  0.1323 -0.2514
 2727ntf    fn413905   2.294   6.669   5.977  0.0823  0.0194  0.2909
 2728ntf    cn113906   4.984   0.444   0.505  0.1295  0.0037  0.1030
 2728ntf    sn213907   4.933   0.277   0.553 -0.1331  0.0958  0.1444
 2728ntf    nn313908   4.779   0.312   0.554 -0.0731  0.3711 -0.0425
 2728ntf    sn213909   4.660   0.238   0.483  0.0008  0.2027  0.0064
 2728ntf    cn113910   4.554   0.175   0.616  0.0626 -0.1633 -0.1183
 2728ntf    fn413911   4.965   0.469   0.376 -0.2956 -0.7295  0.0181
 2728ntf    fn413912   4.915   0.535   0.572 -0.3131 -0.3051  0.0676
 2728ntf    fn413913   5.112   0.464   0.531  0.1787 -0.4205  0.1849
 2728ntf    on513914   4.980   0.194   0.445 -0.7796 -0.1657  0.0550
 2728ntf    on513915   4.991   0.259   0.684  0.3840 -0.1537 -0.1163
 2728ntf    on513916   4.694   0.119   0.409  0.6070  0.1185  0.4127
 2728ntf    on513917   4.575   0.336   0.421 -0.0458  0.3014  0.2276
 2728ntf    fn413918   4.462   0.095   0.562  0.0120 -0.1596 -0.0366
 2728ntf    fn413919   4.615   0.113   0.716  0.5695  0.1633 -0.2232
 2728ntf    fn413920   4.482   0.268   0.676  0.1833 -0.1375 -0.0140
 2729ntf    cn113921   6.545   6.797   0.873  0.2013 -0.0835 -0.2114
 2729ntf    sn213922   6.480   6.841   0.709  0.0261  0.2281 -0.0597
 2729ntf    nn313923   6.578   6.748   0.628  0.0322  0.0534  0.1502
 2729ntf    sn213924   6.558   6.613   0.550 -0.2328  0.0733  0.1814
 2729ntf    cn113925   6.725   6.541   0.564 -0.1968  0.1201 -0.0116
 2729ntf    fn413926   6.672   6.834   0.880  0.2258 -0.1220 -0.4400
 2729ntf    fn413927   6.476   6.863   0.965 -0.1728 -0.7365 -0.0224
 2729ntf    fn413928   6.551   6.667   0.893 -0.0485 -0.0880 -0.1686
 2729ntf    on513929   6.342   6.801   0.720  0.0549  0.1285 -0.0632
 2729ntf    on513930   6.505   6.983   0.697 -0.2221  0.3452  0.7937
 2729ntf    on513931   6.535   6.637   0.410  0.5523  0.9377  0.1849
 2729ntf    on513932   6.476   6.510   0.609  0.3728 -0.1617  0.6312
 2729ntf    fn413933   6.818   6.624   0.520 -0.0706  0.0937  0.2085
 2729ntf    fn413934   6.763   6.512   0.687 -0.1420 -0.0994 -0.0798
 2729ntf    fn413935   6.742   6.431   0.492 -0.0677  0.1943 -0.0946
 2730ntf    cn113936   3.428   3.648   0.304 -0.2675 -0.3630 -0.0231
 2730ntf    sn213937   3.478   3.566   0.458 -0.0368 -0.0342  0.0775
 2730ntf    nn313938   3.493   3.698   0.542 -0.0359 -0.0261  0.0646
 2730ntf    sn213939   3.606   3.735   0.645  0.1312  0.1750 -0.1887
 2730ntf    cn113940   3.498   3.814   0.768  0.0820 -0.2446  0.0425
 2730ntf    fn413941   3.308   3.703   0.309  0.1733  0.7065 -0.8321
 2730ntf    fn413942   3.512   3.745   0.272 -0.4637 -0.3389 -0.4692
 2730ntf    fn413943   3.425   3.559   0.205 -0.8115 -0.2704 -0.0923
 2730ntf    on513944   3.359   3.493   0.495 -0.4238  0.4352 -0.2247
 2730ntf    on513945   3.597   3.498   0.414  0.0325 -0.3938  0.8059
 2730ntf    on513946   3.684   3.843   0.591  0.0570  0.1511 -0.3447
 2730ntf    on513947   3.662   3.628   0.725 -0.2393 -0.0810 -0.2666
 2730ntf    fn413948   3.437   3.918   0.713 -0.3066 -0.4122  0.1502
 2730ntf    fn413949   3.399   3.733   0.803 -0.3350  0.4512  0.5105
 2730ntf    fn413950   3.567   3.867   0.867  0.2195 -0.0949 -0.1316
 2731ntf    cn113951   2.476   6.036   2.489  0.2101  0.5380  0.2393
 2731ntf    sn213952   2.627   5.943   2.526  0.0174  0.1287  0.0015
 2731ntf    nn313953   2.563   5.804   2.564 -0.3180  0.4699  0.6960
 2731ntf    sn213954   2.558   5.718   2.695  0.3474 -0.0241  0.4051
 2731ntf    cn113955   2.377   5.701   2.702  0.3377 -0.0728  0.0330
 2731ntf    fn413956   2.490   6.161   2.449  0.2412  0.3792 -0.2624
 2731ntf    fn413957   2.409   5.974   2.393  0.4956  0.3429  0.1638
 2731ntf    fn413958   2.396   6.039   2.594 -0.1268  0.4149 -0.0109
 2731ntf    on513959   2.691   5.948   2.397  0.5475 -0.4214  0.2331
 2731ntf    on513960   2.689   6.017   2.633 -0.1720 -0.3043  0.4147
 2731ntf    on513961   2.592   5.776   2.823  0.2049  0.4131  0.2481
 2731ntf    on513962   2.596   5.581   2.674 -0.5595 -0.2012 -0.1094
 2731ntf    fn413963   2.331   5.623   2.798 -0.4880  0.5656  0.1674
 2731ntf    fn413964   2.324   5.820   2.724  0.3833 -0.0356 -0.0552
 2731ntf    fn413965   2.321   5.662   2.589  0.5762 -0.4153  0.0325
 2732ntf    cn113966   3.008   0.882   1.339 -0.0663 -0.3274  0.1439
 2732ntf    sn213967   2.849   0.895   1.426 -0.1951 -0.0043 -0.1358
 2732ntf    nn313968   2.759   0.897   1.298  0.2626  0.1752 -0.4587
 2732ntf    sn213969   2.632   0.983   1.266  0.0450  0.0073 -0.0501
 2732ntf    cn113970   2.523   0.859   1.188  0.0674 -0.0075 -0.0582
 2732ntf    fn413971   3.102   0.830   1.416 -0.1539 -0.4464  0.1691
 2732ntf    fn413972   3.004   0.808   1.230  0.2499 -0.2504  0.0769
 2732ntf    fn413973   3.061   0.998   1.302 -0.0375 -0.4382 -0.1670
 2732ntf    on513974   2.831   0.775   1.504 -0.7737  0.0768 -0.1414
 2732ntf    on513975   2.857   1.022   1.495  0.8531 -0.0277 -0.1919
 2732ntf    on513976   2.661   1.081   1.165  0.0388  0.0235 -0.0362
 2732ntf    on513977   2.556   1.026   1.380 -0.0197 -0.3012  0.0254
 2732ntf    fn413978   2.571   0.796   1.083  0.3978  0.1672 -0.0125
 2732ntf    fn413979   2.492   0.767   1.278 -0.3006  0.1866  0.0173
 2732ntf    fn413980   2.408   0.921   1.165  0.1674  0.1866 -0.0421
 2733ntf    cn113981   0.195   5.618   3.151 -0.0219 -0.2266 -0.0571
 2733ntf    sn213982   0.231   5.604   3.328 -0.2209 -0.0722 -0.0037
 2733ntf    nn313983   0.339   5.716   3.341 -0.3097  0.0594 -0.3884
 2733ntf    sn213984   0.334   5.865   3.291 -0.3534  0.0938 -0.2822
 2733ntf    cn113985   0.438   5.936   3.423 -0.2256 -0.2139 -0.2160
 2733ntf    fn413986   0.305   5.622   3.077  0.1120 -0.0477  0.1530
 2733ntf    fn413987   0.124   5.511   3.117 -0.3538 -0.2076  0.5587
 2733ntf    fn413988   0.124   5.724   3.115  0.1004 -0.1641 -0.1104
 2733ntf    on513989   0.106   5.630   3.395 -0.0492  0.4909  0.1022
 2733ntf    on513990   0.283   5.470   3.335 -0.5723 -0.2002  0.2157
 2733ntf    on513991   0.206   5.929   3.304 -0.1750  0.3510  0.2499
 2733ntf    on513992   0.414   5.880   3.172 -0.4155  0.5053 -0.2719
 2733ntf    fn413993   0.566   5.905   3.408 -0.0327  0.5419 -0.1761
 2733ntf    fn413994   0.442   6.068   3.430 -0.4642 -0.2380  0.3709
 2733ntf    fn413995   0.401   5.894   3.542  0.1049  0.7750  0.2456
 2734ntf    cn113996   0.316   2.306   3.134  0.1088  0.2000 -0.0455
 2734ntf    sn213997   0.228   2.335   3.290  0.2263  0.0385  0.0511
 2734ntf    nn313998   0.261   2.204   3.371  0.2502 -0.4588 -0.7543
 2734ntf    sn213999   0.167   2.102   3.445  0.0281  0.0322 -0.3548
 2734ntf    cn114000   0.158   2.194   3.601 -0.2802 -0.2012 -0.2355
 2734ntf    fn414001   0.302   2.179   3.099  0.3649  0.1169  0.1477
 2734ntf    fn414002   0.261   2.369   3.031 -0.5160 -0.1644  0.0600
 2734ntf    fn414003   0.445   2.334   3.137  0.2806 -0.5685  0.0896
 2734ntf    on514004   0.294   2.454   3.337  0.1916 -0.0183  0.2479
 2734ntf    on514005   0.091   2.344   3.245  0.4318 -0.4114 -0.6791
 2734ntf    on514006   0.246   1.988   3.481  0.2226  0.1878 -0.2893
 2734ntf    on514007   0.034   2.080   3.392 -0.1994 -0.0321  0.2432
 2734ntf    fn414008   0.278   2.191   3.656 -0.5616  0.1225  0.4037
 2734ntf    fn414009   0.114   2.318   3.587 -0.6860 -0.2981  0.1324
 2734ntf    fn414010   0.066   2.146   3.685 -0.4491 -0.3116 -0.4819
 2735ntf    cn114011   6.099   6.061   1.311 -0.2547  0.4610 -0.1704
 2735ntf    sn214012   5.948   6.016   1.403 -0.0280 -0.1589 -0.0932
 2735ntf    nn314013   5.947   6.116   1.524  0.0694 -0.1865 -0.0693
 2735ntf    sn214014   5.872   6.254   1.531  0.0090 -0.2114 -0.2051
 2735ntf    cn114015   5.719   6.200   1.613 -0.0363  0.2424  0.0120
 2735ntf    fn414016   6.085   6.002   1.194 -0.1799 -0.2102  0.1526
 2735ntf    fn414017   6.106   6.192   1.292  0.3195  0.5055  0.3187
 2735ntf    fn414018   6.209   6.022   1.373 -0.5115 -0.7007 -0.4271
 2735ntf    on514019   5.839   6.025   1.308  0.1147  0.0315 -0.2416
 2735ntf    on514020   5.983   5.883   1.446  0.4537  0.0317  0.1110
 2735ntf    on514021   5.829   6.323   1.413  0.0318 -0.0643 -0.1275
 2735ntf    on514022   5.934   6.339   1.629 -0.2822  0.0151 -0.2164
 2735ntf    fn414023   5.749   6.112   1.707 -0.1843 -0.0933 -0.2535
 2735ntf    fn414024   5.647   6.302   1.656 -0.1629  0.0430  0.2786
 2735ntf    fn414025   5.639   6.133   1.532  0.0549  0.2034 -0.0452
 2736ntf    cn114026   1.618   4.605   1.527 -0.1978  0.0396  0.2712
 2736ntf    sn214027   1.735   4.470   1.560 -0.1474 -0.0045 -0.0882
 2736ntf    nn314028   1.861   4.557   1.596  0.2150 -0.6175  0.1476
 2736ntf    sn214029   1.922   4.573   1.740  0.1979  0.4421  0.0456
 2736ntf    cn114030   1.962   4.408   1.805 -0.2578  0.3595  0.1196
 2736ntf    fn414031   1.584   4.674   1.635  0.5271 -0.3422  0.7506
 2736ntf    fn414032   1.675   4.687   1.441 -0.3199 -0.0926  0.0628
 2736ntf    fn414033   1.503   4.568   1.473  0.1861 -0.3046 -0.3157
 2736ntf    on514034   1.678   4.401   1.673 -0.0962 -0.4766 -0.3449
 2736ntf    on514035   1.746   4.395   1.437 -0.7199  0.2320 -0.2845
 2736ntf    on514036   1.828   4.628   1.834  0.0232  0.2159  0.0048
 2736ntf    on514037   2.051   4.639   1.740  0.1332  0.5719  0.7139
 2736ntf    fn414038   2.064   4.419   1.890  0.4457 -0.0407 -0.6600
 2736ntf    fn414039   1.864   4.342   1.865 -0.0367  0.0663  0.1617
 2736ntf    fn414040   2.008   4.322   1.715 -0.2282  0.1710  0.3127
 2737ntf    cn114041   3.442   0.270   4.197 -0.1979 -0.1592 -0.7633
 2737ntf    sn214042   3.505   0.219   4.359  0.0396 -0.0184 -0.8104
 2737ntf    nn314043   3.605   0.102   4.330  0.7309  0.3361  0.0789
 2737ntf    sn214044   3.611  -0.034   4.409 -0.2809  0.1992 -0.0600
 2737ntf    cn114045   3.477  -0.122   4.323 -0.0707 -0.1630 -0.0202
 2737ntf    fn414046   3.382   0.170   4.135 -0.7350 -0.1250 -0.3019
 2737ntf    fn414047   3.351   0.366   4.204  0.1299  0.0938  0.1602
 2737ntf    fn414048   3.532   0.320   4.113  0.3801  0.7969  0.4001
 2737ntf    on514049   3.576   0.333   4.412  0.2463 -0.3323 -0.4028
 2737ntf    on514050   3.383   0.180   4.426  0.2142  0.1591 -0.3819
 2737ntf    on514051   3.566  -0.039   4.546 -0.0401 -0.4120 -0.0023
 2737ntf    on514052   3.730  -0.107   4.370  0.4304  0.8863  0.7696
 2737ntf    fn414053   3.499  -0.119   4.193 -0.6212 -0.1507 -0.1138
 2737ntf    fn414054   3.463  -0.251   4.348  0.2752 -0.2011 -0.0054
 2737ntf    fn414055   3.354  -0.078   4.345  0.0293  0.2152 -0.2063
 2738ntf    cn114056   4.786   6.831   4.444 -0.4162 -0.1030  0.0351
 2738ntf    sn214057   4.925   6.718   4.415 -0.1702  0.2807 -0.2868
 2738ntf    nn314058   4.984   6.723   4.560  0.1689  0.4255 -0.4295
 2738ntf    sn214059   5.075   6.829   4.632  0.2501  0.1902 -0.1843
 2738ntf    cn114060   5.156   6.726   4.757  0.1667  0.1974 -0.1239
 2738ntf    fn414061   4.719   6.801   4.554 -0.0608  0.2284  0.3457
 2738ntf    fn414062   4.835   6.953   4.462 -0.3084 -0.1688  0.1990
 2738ntf    fn414063   4.694   6.825   4.349 -0.7196  0.0164  0.3175
 2738ntf    on514064   4.850   6.598   4.389  0.1829  0.0206 -0.1186
 2738ntf    on514065   4.994   6.788   4.310  0.5185  0.3375  0.1985
 2738ntf    on514066   5.005   6.931   4.707  0.3751  0.1549 -0.0179
 2738ntf    on514067   5.180   6.868   4.541  0.1244 -0.1517 -0.4775
 2738ntf    fn414068   5.246   6.799   4.822  0.1746 -0.2384  0.3651
 2738ntf    fn414069   5.078   6.668   4.847 -0.0122  0.3188 -0.2027
 2738ntf    fn414070   5.230   6.633   4.698  0.7436  0.2398  0.5200
 2739ntf    cn114071   5.542   6.682   4.736  0.2310 -0.0941  0.1189
 2739ntf    sn214072   5.682   6.567   4.722  0.2393 -0.1454  0.5967
 2739ntf    nn314073   5.599   6.441   4.682  0.1730  0.1754 -0.2988
 2739ntf    sn214074   5.621   6.340   4.563 -0.1182 -0.1591 -0.0715
 2739ntf    cn114075   5.767   6.250   4.623 -0.3080 -0.1500  0.4073
 2739ntf    fn414076   5.444   6.621   4.801  0.4138  0.1253  0.6018
 2739ntf    fn414077   5.571   6.792   4.804 -0.5049  0.0142  0.2631
 2739ntf    fn414078   5.497   6.718   4.617 -0.0125 -0.3179  0.1412
 2739ntf    on514079   5.772   6.616   4.620 -0.0017 -0.6570  0.1354
 2739ntf    on514080   5.732   6.566   4.857  0.2790 -0.7894  0.5785
 2739ntf    on514081   5.652   6.401   4.436 -0.0678  0.0553  0.0422
 2739ntf    on514082   5.521   6.236   4.574  0.0187 -0.2693  0.1377
 2739ntf    fn414083   5.813   6.158   4.540 -0.0029  0.4395 -0.0848
 2739ntf    fn414084   5.870   6.331   4.641  0.1327 -0.6317  0.0768
 2739ntf    fn414085   5.740   6.186   4.736  0.5044 -0.2338  0.5637
 2740ntf    cn114086   1.482   2.273   4.832 -0.1230 -0.1630 -0.2354
 2740ntf    sn214087   1.447   2.391   4.966  0.3259 -0.3136  0.0147
 2740ntf    nn314088   1.504   2.516   4.890 -0.0462 -0.0023  0.2425
 2740ntf    sn214089   1.435   2.641   4.824  0.0047 -0.0519  0.0930
 2740ntf    cn114090   1.464   2.776   4.942  0.1944  0.0950 -0.1225
 2740ntf    fn414091   1.422   2.159   4.862  0.1184 -0.2393 -0.0483
 2740ntf    fn414092   1.431   2.322   4.719 -0.0902  0.4048 -0.0100
 2740ntf    fn414093   1.612   2.262   4.810 -0.0113  0.4689  0.0765
 2740ntf    on514094   1.309   2.394   5.007  0.2650 -0.2371 -0.1914
 2740ntf    on514095   1.541   2.349   5.066  0.2543 -0.4099  0.0417
 2740ntf    on514096   1.291   2.635   4.815 -0.0108 -0.1558  0.3905
 2740ntf    on514097   1.502   2.683   4.704 -0.1464  0.2577  0.1147
 2740ntf    fn414098   1.589   2.792   4.984  0.0885 -0.0825  0.2649
 2740ntf    fn414099   1.434   2.895   4.894  0.1832  0.0377 -0.2576
 2740ntf    fn414100   1.394   2.768   5.054 -0.0210 -0.4276 -0.2909
 2741ntf    cn114101   4.696   1.778   3.218 -0.1407  0.1994  0.0267
 2741ntf    sn214102   4.836   1.768   3.102 -0.0949  0.0237  0.0977
 2741ntf    nn314103   4.954   1.761   3.205 -0.2964  0.4237  0.3578
 2741ntf    sn214104   5.099   1.818   3.184 -0.0119 -0.3389  0.2316
 2741ntf    cn114105   5.073   1.983   3.255  0.0864 -0.3115  0.2043
 2741ntf    fn414106   4.701   1.684   3.310  0.0371  0.1274 -0.0565
 2741ntf    fn414107   4.693   1.889   3.290  0.3079  0.2747 -0.0662
 2741ntf    fn414108   4.577   1.778   3.160 -0.1245 -0.1948 -0.0045
 2741ntf    on514109   4.808   1.644   3.036  0.0980 -0.2415  0.5077
 2741ntf    on514110   4.815   1.891   3.029 -0.1728 -0.2449 -0.3347
 2741ntf    on514111   5.124   1.842   3.044 -0.8636 -0.4637  0.0546
 2741ntf    on514112   5.204   1.767   3.269  0.2978  0.2518  0.2089
 2741ntf    fn414113   4.957   2.030   3.213  0.0976 -0.5050 -0.0428
 2741ntf    fn414114   5.079   1.992   3.387  0.0333 -0.8011  0.2417
 2741ntf    fn414115   5.159   2.074   3.212 -0.3070 -0.0767 -0.0956
 2742ntf    cn114116   3.424   5.724   6.477 -0.1586  0.4311  0.0101
 2742ntf    sn214117   3.580   5.640   6.437 -0.0858  0.4008  0.3598
 2742ntf    nn314118   3.545   5.489   6.463 -0.4278  0.4115 -0.0450
 2742ntf    sn214119   3.568   5.404   6.593 -0.0710  0.1555 -0.2712
 2742ntf    cn114120   3.738   5.344   6.569 -0.1491 -0.0696 -0.2639
 2742ntf    fn414121   3.321   5.709   6.395 -0.0357  0.0152 -0.0713
 2742ntf    fn414122   3.382   5.687   6.597  0.1777 -0.3649 -0.1126
 2742ntf    fn414123   3.439   5.855   6.484 -0.9144  0.5363 -0.2046
 2742ntf    on514124   3.586   5.677   6.298 -0.0616  0.3765  0.3542
 2742ntf    on514125   3.680   5.700   6.523  0.3999 -0.1906  0.2149
 2742ntf    on514126   3.500   5.277   6.598 -0.1048  0.1818 -0.0563
 2742ntf    on514127   3.567   5.483   6.714 -0.4306  0.0235 -0.1873
 2742ntf    fn414128   3.824   5.438   6.534 -0.0089 -0.1853 -0.2275
 2742ntf    fn414129   3.782   5.274   6.672 -0.3576  0.1491 -0.0220
 2742ntf    fn414130   3.730   5.254   6.473 -0.7428 -0.1329 -0.1625
 2743ntf    cn114131   1.786   6.191   4.122 -0.0943 -0.3196  0.0557
 2743ntf    sn214132   1.906   6.182   4.258 -0.0727 -0.0863  0.0533
 2743ntf    nn314133   2.011   6.076   4.208  0.0081 -0.2860  0.6367
 2743ntf    sn214134   2.159   6.093   4.158 -0.2560 -0.0890 -0.0844
 2743ntf    cn114135   2.175   5.946   4.052 -0.2803 -0.1012 -0.0701
 2743ntf    fn414136   1.846   6.224   4.008  0.2809 -0.3484  0.2449
 2743ntf    fn414137   1.719   6.081   4.093 -0.0513 -0.2761 -0.2199
 2743ntf    fn414138   1.696   6.287   4.138 -0.7519 -0.9694  0.3150
 2743ntf    on514139   1.958   6.315   4.270  0.4881 -0.2814 -0.2035
 2743ntf    on514140   1.828   6.137   4.370 -0.3032  0.6726  0.2016
 2743ntf    on514141   2.256   6.067   4.261  0.2363  1.0307 -0.2582
 2743ntf    on514142   2.175   6.202   4.065 -0.4895  0.1184  0.1168
 2743ntf    fn414143   2.299   5.910   4.024 -0.0997  0.1619  0.3799
 2743ntf    fn414144   2.109   5.849   4.113 -0.0663 -0.0265  0.2797
 2743ntf    fn414145   2.107   5.973   3.942  0.2895 -0.2475 -0.4618
 2744ntf    cn114146   2.509   6.576   6.230  0.3517 -0.1426 -0.3041
 2744ntf    sn214147   2.579   6.553   6.064  0.2787 -0.0986 -0.3409
 2744ntf    nn314148   2.565   6.702   6.016 -0.1833 -0.1420 -0.3510
 2744ntf    sn214149   2.665   6.821   6.040 -0.1878 -0.1920 -0.0886
 2744ntf    cn114150   2.684   6.889   5.873 -0.1521  0.0860  0.0279
 2744ntf    fn414151   2.392   6.638   6.221  0.3645  0.0550  0.7211
 2744ntf    fn414152   2.486   6.464   6.296  0.3684  0.2211  0.3293
 2744ntf    fn414153   2.588   6.655   6.302  0.3471 -0.0412 -0.4089
 2744ntf    on514154   2.712   6.504   6.089  0.0354 -0.4123  0.3804
 2744ntf    on514155   2.476   6.471   6.003  0.3122  0.1585 -0.7472
 2744ntf    on514156   2.799   6.778   6.071 -0.0514  0.1031 -0.2665
 2744ntf    on514157   2.614   6.924   6.127 -0.0763 -0.6700  0.5527
 2744ntf    fn414158   2.754   6.803   5.800 -0.2467  0.3165 -0.3361
 2744ntf    fn414159   2.569   6.899   5.808  0.0912 -0.4381 -0.4959
 2744ntf    fn414160   2.747   7.005   5.873  0.5660 -0.2971  0.4307
 2745ntf    cn114161   5.325   4.601   1.705  0.0512 -0.0652 -0.1415
 2745ntf    sn214162   5.406   4.591   1.867  0.1150  0.0421 -0.1669
 2745ntf    nn314163   5.309   4.670   1.962  0.3887 -0.4755  0.5570
 2745ntf    sn214164   5.337   4.780   2.070  0.2178  0.2894 -0.1705
 2745ntf    cn114165   5.355   4.677   2.218 -0.2945 -0.0018 -0.3090
 2745ntf    fn414166   5.203   4.550   1.704  0.1694 -0.3548 -0.0563
 2745ntf    fn414167   5.309   4.726   1.666 -0.0581 -0.0701 -0.1108
 2745ntf    fn414168   5.401   4.541   1.614 -0.3564 -0.2113 -0.3914
 2745ntf    on514169   5.399   4.449   1.890  0.0887  0.0400 -0.1849
 2745ntf    on514170   5.538   4.647   1.851  0.0962  0.0656 -0.2407
 2745ntf    on514171   5.222   4.863   2.097 -0.3437 -0.8302  0.9715
 2745ntf    on514172   5.460   4.854   2.060 -0.0140  0.7823  0.5140
 2745ntf    fn414173   5.323   4.749   2.325  0.1781  0.2697 -0.3505
 2745ntf    fn414174   5.275   4.572   2.224 -0.3107  0.0207 -0.1275
 2745ntf    fn414175   5.473   4.625   2.246 -0.0198  0.8023  0.0450
 2746ntf    cn114176   6.014   3.441   2.680 -0.0523  0.3086 -0.2358
 2746ntf    sn214177   6.195   3.451   2.670 -0.0082 -0.2693 -0.0814
 2746ntf    nn314178   6.223   3.320   2.589 -0.5247 -0.3116 -0.1944
 2746ntf    sn214179   6.361   3.275   2.530 -0.1253  0.0337  0.4721
 2746ntf    cn114180   6.331   3.329   2.359  0.2584 -0.1983  0.3319
 2746ntf    fn414181   5.960   3.557   2.714 -0.0644  0.1828  0.1810
 2746ntf    fn414182   5.960   3.401   2.566  0.3462 -0.1935 -0.2518
 2746ntf    fn414183   5.972   3.357   2.774 -0.3427  0.0826 -0.5632
 2746ntf    on514184   6.218   3.579   2.607 -0.0337 -0.1988  0.0493
 2746ntf    on514185   6.234   3.446   2.809  0.0123 -0.3920 -0.0921
 2746ntf    on514186   6.363   3.132   2.520  1.1698  0.0501  0.3211
 2746ntf    on514187   6.480   3.341   2.580  0.0570 -0.0690  0.1794
 2746ntf    fn414188   6.216   3.284   2.313  0.4946 -0.3297 -0.1428
 2746ntf    fn414189   6.317   3.460   2.360 -0.4426 -0.2694  0.0385
 2746ntf    fn414190   6.421   3.299   2.266 -0.0167  0.7098 -0.2351
 2747ntf    cn114191   5.264   5.295   3.372 -0.0147 -0.2506  0.3693
 2747ntf    sn214192   5.443   5.327   3.357 -0.0157 -0.2469  0.3625
 2747ntf    nn314193   5.457   5.472   3.414  0.4449  0.0011 -0.3717
 2747ntf    sn214194   5.485   5.512   3.564  0.1170 -0.0871 -0.2869
 2747ntf    cn114195   5.666   5.494   3.564  0.1869  0.5702 -0.3724
 2747ntf    fn414196   5.207   5.327   3.257 -0.2860 -0.3792  0.4688
 2747ntf    fn414197   5.245   5.168   3.404 -0.1000 -0.2432  0.3484
 2747ntf    fn414198   5.203   5.364   3.466 -0.4603 -0.0852 -0.0361
 2747ntf    on514199   5.497   5.222   3.441 -0.0083  0.0078  0.6786
 2747ntf    on514200   5.473   5.327   3.216 -0.4435 -0.0534  0.2679
 2747ntf    on514201   5.425   5.423   3.660 -0.0127  0.7360  0.4035
 2747ntf    on514202   5.471   5.654   3.590  0.0733 -0.1081 -0.1952
 2747ntf    fn414203   5.706   5.373   3.527 -0.2163  0.3266 -0.0240
 2747ntf    fn414204   5.733   5.578   3.487  0.3015  0.3419 -0.5226
 2747ntf    fn414205   5.713   5.521   3.685 -0.0115  0.1479 -0.1995
 2748ntf    cn114206   6.841   0.130   4.539  0.5763 -0.1007 -0.2141
 2748ntf    sn214207   6.994   0.033   4.558  0.5421 -0.2459 -0.6794
 2748ntf    nn314208   7.002  -0.039   4.419 -0.1141 -0.0632 -0.8171
 2748ntf    sn214209   7.108  -0.147   4.376  0.2864 -0.0730  0.1691
 2748ntf    cn114210   7.001  -0.289   4.410 -0.3497  0.3785  0.0676
 2748ntf    fn414211   6.796   0.177   4.655 -0.4208  0.0772 -0.6640
 2748ntf    fn414212   6.855   0.234   4.458  0.1220  0.2827  0.1987
 2748ntf    fn414213   6.736   0.061   4.501  0.4761 -0.1651  0.1802
 2748ntf    on514214   7.094   0.134   4.583  0.1709 -0.0320 -0.0478
 2748ntf    on514215   6.963  -0.060   4.664 -0.5089  0.6255 -0.1993
 2748ntf    on514216   7.226  -0.165   4.457  0.1466  0.1729  0.4294
 2748ntf    on514217   7.137  -0.152   4.234 -0.4625  0.8404 -0.0268
 2748ntf    fn414218   6.889  -0.289   4.339 -0.1345  0.0248 -0.2740
 2748ntf    fn414219   7.058  -0.405   4.381  0.0384  0.5297  0.2332
 2748ntf    fn414220   6.974  -0.298   4.539 -0.2551 -0.4565  0.0387
 2749ntf    cn114221   7.001   6.820   7.013 -0.7015  0.2091  0.0517
 2749ntf    sn214222   7.032   6.682   6.898 -0.0056  0.2135  0.2292
 2749ntf    nn314223   6.923   6.585   6.956 -0.0864  0.1552 -0.0176
 2749ntf    sn214224   6.960   6.469   7.055 -0.1446  0.1456 -0.0075
 2749ntf    cn114225   6.795   6.432   7.122 -0.1099  0.2466  0.1338
 2749ntf    fn414226   6.877   6.866   7.016 -0.7327  0.1565 -0.3782
 2749ntf    fn414227   7.039   6.794   7.137 -0.0692 -0.3063 -0.2428
 2749ntf    fn414228   7.073   6.925   6.979 -0.4104  0.1355  0.4328
 2749ntf    on514229   6.991   6.735   6.770  0.2597  0.3591  0.2041
 2749ntf    on514230   7.168   6.644   6.924  0.0328 -0.3441 -0.7503
 2749ntf    on514231   7.035   6.509   7.171  0.1960 -1.1448  0.2337
 2749ntf    on514232   6.993   6.347   6.987 -0.2980  0.0362  0.1107
 2749ntf    fn414233   6.705   6.407   7.029  0.0219  0.6339 -0.1003
 2749ntf    fn414234   6.794   6.337   7.214  0.0625  0.0260 -0.0937
 2749ntf    fn414235   6.742   6.536   7.186 -0.7116  0.1102 -0.1361
 2750ntf    cn114236   2.173   0.858   2.417  0.3922  0.4949  0.1221
 2750ntf    sn214237   2.317   0.747   2.413 -0.0876 -0.1362  0.1459
 2750ntf    nn314238   2.307   0.681   2.556  0.0691 -0.0502  0.1969
 2750ntf    sn214239   2.402   0.673   2.680  0.0071  0.1087  0.2550
 2750ntf    cn114240   2.365   0.820   2.781 -0.3698  0.1426  0.0677
 2750ntf    fn414241   2.191   0.958   2.502  0.7853  0.9298 -0.4695
 2750ntf    fn414242   2.141   0.917   2.303 -0.4218  0.1865  0.1797
 2750ntf    fn414243   2.068   0.788   2.456  0.1439  0.3914 -0.7086
 2750ntf    on514244   2.280   0.651   2.313 -0.6382 -0.2654  0.4653
 2750ntf    on514245   2.424   0.842   2.392 -0.2728  0.1165  0.3236
 2750ntf    on514246   2.543   0.699   2.660  0.0993 -0.5398  0.0400
 2750ntf    on514247   2.365   0.566   2.770  0.5125 -0.3667 -0.0963
 2750ntf    fn414248   2.440   0.817   2.890  0.0723 -0.0160 -0.2373
 2750ntf    fn414249   2.381   0.930   2.710 -0.5271  0.2294  0.1637
 2750ntf    fn414250   2.241   0.831   2.826 -0.3978  0.3731 -0.0677
 2751ntf    cn114251   7.018   4.426   2.011  0.0269  0.1602  0.0288
 2751ntf    sn214252   7.105   4.332   1.881 -0.1371  0.3492 -0.2196
 2751ntf    nn314253   7.192   4.446   1.818  0.0605  0.5393  0.3858
 2751ntf    sn214254   7.340   4.487   1.849  0.3308 -0.1831  0.0521
 2751ntf    cn114255   7.374   4.589   1.703  0.0144 -0.4448 -0.2081
 2751ntf    fn414256   7.100   4.493   2.091  0.1765 -0.0359  0.0417
 2751ntf    fn414257   6.934   4.516   1.963 -0.0082  0.2596  0.2782
 2751ntf    fn414258   6.952   4.343   2.090  0.5070 -0.0261  0.2382
 2751ntf    on514259   7.181   4.229   1.948 -0.5861 -0.2294 -0.5885
 2751ntf    on514260   7.001   4.289   1.791 -0.4070 -0.1123  0.3015
 2751ntf    on514261   7.437   4.380   1.847 -0.1122 -0.5913  0.2655
 2751ntf    on514262   7.342   4.582   1.957  1.0893  0.2107 -0.3037
 2751ntf    fn414263   7.480   4.665   1.730  0.3238 -0.6490 -0.8362
 2751ntf    fn414264   7.402   4.512   1.599  0.0819 -0.3408 -0.2691
 2751ntf    fn414265   7.276   4.674   1.677 -0.0774 -0.2659  0.6991
 2752ntf    cn114266   2.310   0.134   4.619  0.0300 -0.3421 -0.2366
 2752ntf    sn214267   2.409   0.171   4.767 -0.2810  0.1679 -0.1562
 2752ntf    nn314268   2.481   0.036   4.802  0.6275  0.6519 -0.1193
 2752ntf    sn214269   2.474  -0.047   4.936  0.0403 -0.0011 -0.5454
 2752ntf    cn114270   2.642  -0.008   4.994 -0.2128  0.0318  0.1655
 2752ntf    fn414271   2.218   0.043   4.651  0.0293 -0.4221 -0.4683
 2752ntf    fn414272   2.240   0.239   4.580  0.1715 -0.3302 -0.4551
 2752ntf    fn414273   2.379   0.074   4.524  0.3258 -0.5060  0.0794
 2752ntf    on514274   2.508   0.261   4.713 -0.1847 -0.1100 -0.4393
 2752ntf    on514275   2.311   0.221   4.861  0.0474 -0.1699  0.3703
 2752ntf    on514276   2.479  -0.189   4.914  0.4002 -0.0219 -0.3241
 2752ntf    on514277   2.383   0.001   5.036  0.6863 -0.2137  0.1552
 2752ntf    fn414278   2.676  -0.039   5.118  0.0200 -0.0176  0.0907
 2752ntf    fn414279   2.731  -0.071   4.920 -0.3912 -0.2338  0.1766
 2752ntf    fn414280   2.668   0.121   4.983  0.0642 -0.0086  0.3340
 2753ntf    cn114281   0.138   1.611   2.555 -0.0909  0.3713 -0.0932
 2753ntf    sn214282   0.101   1.588   2.731  0.1178  0.1982 -0.0715
 2753ntf    nn314283   0.249   1.578   2.784 -0.0017  0.4647  0.3226
 2753ntf    sn214284   0.316   1.466   2.871 -0.0078  0.0907 -0.1508
 2753ntf    cn114285   0.275   1.305   2.797  0.3456 -0.0476 -0.0492
 2753ntf    fn414286   0.168   1.499   2.491 -0.1179  0.4671 -0.2746
 2753ntf    fn414287   0.035   1.657   2.485 -0.3651 -0.3556 -0.1672
 2753ntf    fn414288   0.243   1.692   2.553  0.4105 -0.2777 -0.2375
 2753ntf    on514289   0.035   1.708   2.775 -0.1801  0.0832 -0.2070
 2753ntf    on514290   0.025   1.466   2.737 -0.3387  0.4826 -0.0832
 2753ntf    on514291   0.276   1.472   3.009 -0.4205  0.2779 -0.2741
 2753ntf    on514292   0.460   1.468   2.858  0.0821 -0.8801  0.5491
 2753ntf    fn414293   0.270   1.305   2.665  0.2125 -0.3615 -0.0453
 2753ntf    fn414294   0.362   1.215   2.839  0.0690 -0.2349  0.1351
 2753ntf    fn414295   0.158   1.258   2.838  0.1495  0.1409 -0.3878
 2754ntf    cn114296   0.597   0.891   3.135  0.0256 -0.3753 -0.2519
 2754ntf    sn214297   0.746   0.858   3.036  0.1221  0.1097 -0.2701
 2754ntf    nn314298   0.848   0.815   3.148 -0.5427  0.4734  0.4859
 2754ntf    sn214299   0.892   0.665   3.168 -0.2083  0.5303  0.1766
 2754ntf    cn114300   1.023   0.668   3.042 -0.3511 -0.0528  0.0148
 2754ntf    fn414301   0.626   0.973   3.234 -0.4081 -0.5420  0.0148
 2754ntf    fn414302   0.502   0.952   3.067 -0.1240 -0.2210  0.0930
 2754ntf    fn414303   0.545   0.778   3.182 -0.4665  0.0215  0.1653
 2754ntf    on514304   0.697   0.760   2.942 -0.1131  0.1230 -0.1612
 2754ntf    on514305   0.781   0.985   2.979 -0.7470  0.3333 -0.3127
 2754ntf    on514306   0.796   0.563   3.135  0.5068 -0.0288 -0.2091
 2754ntf    on514307   0.964   0.654   3.293 -0.2130 -0.0639  0.1251
 2754ntf    fn414308   1.118   0.756   3.068  0.0114 -0.3773 -0.2111
 2754ntf    fn414309   1.082   0.550   3.035 -0.4321 -0.1116  0.3144
 2754ntf    fn414310   0.976   0.694   2.921 -0.4589 -0.6332 -0.0689
 2755ntf    cn114311   6.621   0.376   4.176  0.2188  0.0005 -0.1953
 2755ntf    sn214312   6.522   0.336   4.028  0.0409  0.1343 -0.1131
 2755ntf    nn314313   6.437   0.213   4.076  0.2112 -0.0858 -0.3662
 2755ntf    sn214314   6.286   0.202   4.119  0.3564 -0.0785  0.1576
 2755ntf    cn114315   6.298   0.170   4.298  0.0069 -0.1704  0.1647
 2755ntf    fn414316   6.687   0.490   4.165 -0.0144  0.1942  0.4177
 2755ntf    fn414317   6.550   0.390   4.286  0.5280 -0.2685  0.0399
 2755ntf    fn414318   6.712   0.282   4.193 -0.0924 -0.1371  0.7782
 2755ntf    on514319   6.452   0.455   3.987  0.2367  0.2909  0.0040
 2755ntf    on514320   6.615   0.279   3.933 -0.0644 -0.1705 -0.0350
 2755ntf    on514321   6.235   0.075   4.075  0.1234  0.2445 -0.5150
 2755ntf    on514322   6.207   0.323   4.117 -0.6394 -0.7157  0.4740
 2755ntf    fn414323   6.190   0.132   4.363 -0.1494  0.5977  0.3710
 2755ntf    fn414324   6.383   0.076   4.332  0.1538 -0.0264  0.1963
 2755ntf    fn414325   6.341   0.282   4.353 -0.0791  0.0422 -0.1899
 2756ntf    cn114326   0.667   5.863   6.919 -0.2864  0.0586 -0.0687
 2756ntf    sn214327   0.770   5.847   7.068 -0.2751  0.2620 -0.0543
 2756ntf    nn314328   0.686   5.941   7.162 -0.2738  0.0160  0.1947
 2756ntf    sn214329   0.723   6.077   7.232 -0.0676 -0.0492  0.2165
 2756ntf    cn114330   0.578   6.182   7.199 -0.0674 -0.2392 -0.4016
 2756ntf    fn414331   0.540   5.836   6.946 -0.2080 -0.1836  0.0635
 2756ntf    fn414332   0.668   5.983   6.864 -0.4955  0.1374  0.0997
 2756ntf    fn414333   0.702   5.770   6.831 -0.1258  0.4824 -0.4567
 2756ntf    on514334   0.769   5.707   7.102  0.0727  0.3043  0.1328
 2756ntf    on514335   0.887   5.905   7.008  0.2270 -0.0061  0.6503
 2756ntf    on514336   0.831   6.147   7.166  0.0801  0.2073  0.7272
 2756ntf    on514337   0.727   6.070   7.376  0.6667  0.4433  0.2267
 2756ntf    fn414338   0.578   6.289   7.277  0.2892  0.0242 -0.7562
 2756ntf    fn414339   0.567   6.229   7.076  0.0734 -0.1075 -0.3650
 2756ntf    fn414340   0.468   6.118   7.232 -0.2405  0.0926 -0.3276
 2757ntf    cn114341   5.717   0.831   2.105  0.5569 -0.2872  0.4797
 2757ntf    sn214342   5.827   0.719   2.013 -0.0804 -0.2702 -0.3078
 2757ntf    nn314343   5.810   0.769   1.865 -0.2982 -0.1836 -0.2545
 2757ntf    sn214344   5.912   0.833   1.764  0.2047 -0.0211  0.3496
 2757ntf    cn114345   5.859   1.007   1.763  0.2053 -0.0239 -0.4028
 2757ntf    fn414346   5.708   0.801   2.233  0.3746 -0.0744  0.5167
 2757ntf    fn414347   5.761   0.956   2.094  0.1153 -0.1835 -0.1146
 2757ntf    fn414348   5.595   0.831   2.055  0.3551 -0.8974  0.9587
 2757ntf    on514349   5.956   0.726   2.076 -0.2235  0.1301 -0.0566
 2757ntf    on514350   5.754   0.596   2.034  0.1378 -0.3342  0.0743
 2757ntf    on514351   5.890   0.780   1.632 -0.3856 -0.3610  0.5787
 2757ntf    on514352   6.048   0.837   1.810  0.1982 -0.1986  0.3851
 2757ntf    fn414353   5.739   1.026   1.711 -0.0868  0.7595  0.5266
 2757ntf    fn414354   5.845   1.059   1.884 -0.0494  0.3659 -0.5962
 2757ntf    fn414355   5.936   1.086   1.688 -0.2184  0.5175 -0.2772
 2758ntf    cn114356   3.929   4.153   2.424 -0.0542  0.0827  0.3471
 2758ntf    sn214357   3.951   4.176   2.603  0.2348  0.2928  0.2860
 2758ntf    nn314358   4.106   4.187   2.625  0.2748 -0.1046  0.2177
 2758ntf    sn214359   4.178   4.264   2.742  0.2299  0.3600 -0.0576
 2758ntf    cn114360   4.218   4.424   2.666  0.2208  0.3766 -0.0267
 2758ntf    fn414361   4.041   4.195   2.367 -0.0134 -0.4778  0.0114
 2758ntf    fn414362   3.910   4.025   2.399 -0.0282  0.0651  0.4168
 2758ntf    fn414363   3.828   4.223   2.377  0.0996  0.1649  0.1355
 2758ntf    on514364   3.873   4.294   2.627 -0.0991  0.0846  0.2222
 2758ntf    on514365   3.896   4.056   2.661  0.0034  0.2408 -0.0407
 2758ntf    on514366   4.310   4.213   2.772  0.2931  0.6935  0.2390
 2758ntf    on514367   4.100   4.310   2.854 -0.6413 -0.0544 -0.4829
 2758ntf    fn414368   4.235   4.417   2.535  0.5368  0.6148 -0.0008
 2758ntf    fn414369   4.124   4.515   2.684  0.0548  0.0978  0.5458
 2758ntf    fn414370   4.328   4.483   2.713  0.6545 -0.4805  0.0468
 2759ntf    cn114371   3.210   1.011   4.648 -0.1982 -0.0864 -0.3319
 2759ntf    sn214372   3.080   1.043   4.772  0.0826  0.0288 -0.0647
 2759ntf    nn314373   2.956   0.995   4.688  0.3987 -0.2926 -0.3497
 2759ntf    sn214374   2.825   1.072   4.651  0.2971 -0.2753  0.0387
 2759ntf    cn114375   2.790   1.034   4.476  0.2439  0.2849 -0.0747
 2759ntf    fn414376   3.222   0.882   4.625 -0.4464 -0.2013  0.1596
 2759ntf    fn414377   3.191   1.068   4.530  0.0705  0.1091 -0.2812
 2759ntf    fn414378   3.332   1.044   4.686 -0.2861 -0.1627  0.0245
 2759ntf    on514379   3.105   0.950   4.879 -0.1378 -0.1786 -0.1931
 2759ntf    on514380   3.090   1.184   4.798 -0.6382  0.1566 -0.4394
 2759ntf    on514381   2.830   1.216   4.650  0.7103 -0.2878  0.1126
 2759ntf    on514382   2.706   1.019   4.712 -0.0431  0.3770 -0.0548
 2759ntf    fn414383   2.789   0.903   4.455 -0.0715  0.3369 -0.3828
 2759ntf    fn414384   2.676   1.074   4.423  0.2495 -0.1643 -0.4363
 2759ntf    fn414385   2.889   1.081   4.403 -0.0695  0.6476 -0.2695
 2760ntf    cn114386   6.648   3.994   1.083 -0.2888  0.1179  0.0852
 2760ntf    sn214387   6.717   4.117   0.969  0.0826 -0.1019  0.0711
 2760ntf    nn314388   6.590   4.201   0.932  0.0750 -0.1751 -0.0728
 2760ntf    sn214389   6.518   4.218   0.794 -0.1967  0.1903  0.1102
 2760ntf    cn114390   6.435   4.379   0.809 -0.0826  0.2261  0.3519
 2760ntf    fn414391   6.574   4.046   1.180 -0.2046 -0.0989  0.2666
 2760ntf    fn414392   6.580   3.895   1.028 -0.5432  0.2914  0.0871
 2760ntf    fn414393   6.749   3.940   1.150 -0.0493 -0.1105 -0.4575
 2760ntf    on514394   6.808   4.197   1.048 -0.2863  0.3974  0.0004
 2760ntf    on514395   6.771   4.035   0.864  0.8125  0.5014 -0.0337
 2760ntf    on514396   6.419   4.114   0.774 -0.5100  0.4955  0.0589
 2760ntf    on514397   6.616   4.230   0.689 -0.2748  0.5654  0.0798
 2760ntf    fn414398   6.526   4.474   0.818  0.3086 -0.1245  0.1227
 2760ntf    fn414399   6.357   4.396   0.704  0.0196 -0.4280  0.1650
 2760ntf    fn414400   6.351   4.384   0.912 -0.1349 -0.2408  0.3340
 2761ntf    cn114401   3.959   6.463   5.060  0.0127 -0.1790 -0.1142
 2761ntf    sn214402   3.877   6.481   5.221 -0.2554  0.0047 -0.2707
 2761ntf    nn314403   3.976   6.587   5.282 -0.0975 -0.0336 -0.4641
 2761ntf    sn214404   4.080   6.570   5.398 -0.4016 -0.3503 -0.2366
 2761ntf    cn114405   4.058   6.728   5.485 -0.1001 -0.2811 -0.2844
 2761ntf    fn414406   3.916   6.546   4.967 -0.0115 -0.3520 -0.2575
 2761ntf    fn414407   4.088   6.493   5.061 -0.0632  0.1502  0.0686
 2761ntf    fn414408   3.950   6.342   5.008 -0.3960 -0.0930 -0.2503
 2761ntf    on514409   3.749   6.544   5.194 -0.5320 -0.5079 -0.1646
 2761ntf    on514410   3.876   6.350   5.282 -0.3299  0.0157 -0.2485
 2761ntf    on514411   4.220   6.572   5.362 -0.3032  0.0882  0.1576
 2761ntf    on514412   4.044   6.472   5.498 -0.2443  0.0746  0.2391
 2761ntf    fn414413   4.109   6.831   5.420 -0.0366 -0.0517  0.1231
 2761ntf    fn414414   3.930   6.762   5.492 -0.1375 -0.4142 -0.3212
 2761ntf    fn414415   4.103   6.729   5.610  0.2772  0.4675 -0.4195
 2762ntf    cn114416   4.691   6.730   6.902 -0.6764 -0.0366 -0.1300
 2762ntf    sn214417   4.623   6.809   7.051 -0.0807 -0.0375  0.1434
 2762ntf    nn314418   4.749   6.794   7.144  0.0966 -0.1928 -0.1198
 2762ntf    sn214419   4.789   6.677   7.240  0.4852  0.0572  0.0266
 2762ntf    cn114420   4.970   6.675   7.242  0.4837  0.2169  0.3011
 2762ntf    fn414421   4.769   6.812   6.832 -0.1667 -0.2807  0.1483
 2762ntf    fn414422   4.768   6.627   6.930  0.0729  0.5575  0.0103
 2762ntf    fn414423   4.596   6.685   6.821 -0.5527  0.2843 -0.4621
 2762ntf    on514424   4.613   6.950   7.022  0.5952 -0.0171  0.0033
 2762ntf    on514425   4.504   6.735   7.083  0.0520 -0.3984 -0.1875
 2762ntf    on514426   4.748   6.552   7.180  0.0740  0.0553  0.3051
 2762ntf    on514427   4.748   6.700   7.376 -0.1631 -0.0409 -0.1474
 2762ntf    fn414428   5.021   6.785   7.296  0.2680  0.1624  0.6138
 2762ntf    fn414429   5.019   6.576   7.315  0.0117 -0.4428 -0.2683
 2762ntf    fn414430   5.026   6.667   7.122  0.6115  0.3581  0.3500
 2763ntf    cn114431   4.754   4.279   0.621  0.0092  0.0952 -0.2421
 2763ntf    sn214432   4.894   4.389   0.657  0.0544 -0.0145 -0.0798
 2763ntf    nn314433   4.921   4.438   0.510  0.3677  0.2932  0.0782
 2763ntf    sn214434   5.058   4.481   0.447  0.1945  0.1692 -0.3830
 2763ntf    cn114435   5.120   4.323   0.382 -0.2222 -0.0958 -0.1473
 2763ntf    fn414436   4.698   4.234   0.732  0.2452 -0.2916 -0.2751
 2763ntf    fn414437   4.656   4.335   0.553 -0.3694  0.1455  0.3432
 2763ntf    fn414438   4.794   4.169   0.558  0.7864 -0.0409  0.4660
 2763ntf    on514439   4.830   4.490   0.737  0.3082  0.2373 -0.1921
 2763ntf    on514440   5.002   4.313   0.716  0.0647  0.4149  0.4694
 2763ntf    on514441   5.157   4.531   0.538  0.1134  0.0346 -0.2204
 2763ntf    on514442   5.045   4.554   0.323 -0.0942 -0.1440 -0.5396
 2763ntf    fn414443   5.228   4.340   0.307 -0.1195  0.2981  0.0859
 2763ntf    fn414444   5.144   4.235   0.478 -0.0214 -0.0064 -0.1137
 2763ntf    fn414445   5.027   4.265   0.308  0.0458 -0.6110 -0.0875
 2764ntf    cn114446   0.378   4.805   3.860 -0.2354 -0.2833  0.1340
 2764ntf    sn214447   0.331   4.762   3.690  0.1793  0.0280 -0.0624
 2764ntf    nn314448   0.203   4.676   3.721  0.1333  0.2530  0.3683
 2764ntf    sn214449   0.060   4.683   3.657  0.1726 -0.5696  0.1817
 2764ntf    cn114450   0.024   4.510   3.613 -0.2215 -0.4765  0.1345
 2764ntf    fn414451   0.288   4.880   3.921 -0.1231 -0.0235 -0.0200
 2764ntf    fn414452   0.390   4.699   3.938  0.0854 -0.3769 -0.0421
 2764ntf    fn414453   0.491   4.873   3.850 -0.1312 -0.4669  0.0540
 2764ntf    on514454   0.314   4.892   3.630 -0.0025  0.0289 -0.0110
 2764ntf    on514455   0.447   4.689   3.644  0.4902  0.5117 -0.0483
 2764ntf    on514456   0.052   4.750   3.529 -0.7969 -0.2488  0.3972
 2764ntf    on514457  -0.045   4.709   3.752  0.1260  0.3836 -0.1166
 2764ntf    fn414458   0.128   4.452   3.557  0.2788  0.2359  0.3166
 2764ntf    fn414459   0.000   4.430   3.716  0.2264 -0.7802  0.0016
 2764ntf    fn414460  -0.076   4.496   3.528 -0.2501  0.2571  0.0380
 2765ntf    cn114461   4.592   5.012   4.629 -0.0959 -0.4730 -0.0520
 2765ntf    sn214462   4.420   5.052   4.673 -0.0663 -0.3532 -0.0429
 2765ntf    nn314463   4.429   5.092   4.824  0.4088 -0.0298 -0.1546
 2765ntf    sn214464   4.417   5.235   4.888 -0.1097 -0.1798  0.0902
 2765ntf    cn114465   4.585   5.251   4.955 -0.2382  0.2536  0.3137
 2765ntf    fn414466   4.674   5.106   4.673 -0.2589 -0.5392  0.3960
 2765ntf    fn414467   4.633   4.893   4.671  0.4121 -0.1882  0.2749
 2765ntf    fn414468   4.609   5.010   4.498 -0.3992  0.1564 -0.1053
 2765ntf    on514469   4.382   5.156   4.580  0.2070  0.1385  0.3928
 2765ntf    on514470   4.354   4.925   4.657 -0.1164 -0.3637  0.2525
 2765ntf    on514471   4.333   5.239   5.005 -0.2690  0.6430 -0.0470
 2765ntf    on514472   4.396   5.354   4.809  0.0897 -0.0100  0.2915
 2765ntf    fn414473   4.610   5.366   5.016 -0.0498  0.3004  0.1498
 2765ntf    fn414474   4.605   5.151   5.039 -0.2966 -0.0776 -0.0639
 2765ntf    fn414475   4.675   5.231   4.860 -0.3550  0.5591  0.1365
 2766ntf    cn114476   0.082   3.651   4.356 -0.1326  0.1285  0.3196
 2766ntf    sn214477  -0.095   3.625   4.384 -0.1245 -0.2370  0.0290
 2766ntf    nn314478  -0.080   3.480   4.442 -0.0111 -0.1763  0.1521
 2766ntf    sn214479  -0.108   3.336   4.384 -0.3782 -0.0105 -0.0879
 2766ntf    cn114480  -0.244   3.285   4.493 -0.3839 -0.0692 -0.1235
 2766ntf    fn414481   0.143   3.641   4.474  0.4160  0.3488  0.0607
 2766ntf    fn414482   0.136   3.566   4.271  0.2470  0.2507  0.4346
 2766ntf    fn414483   0.111   3.767   4.299  0.0427 -0.1982 -0.2647
 2766ntf    on514484  -0.117   3.728   4.482  0.1458 -0.1228 -0.0295
 2766ntf    on514485  -0.148   3.638   4.250  0.0473 -0.0308 -0.0198
 2766ntf    on514486  -0.007   3.239   4.418 -0.3631  0.1623  0.3706
 2766ntf    on514487  -0.171   3.324   4.255 -0.4875  0.7425 -0.1072
 2766ntf    fn414488  -0.333   3.380   4.519  0.1542  0.3399  0.2413
 2766ntf    fn414489  -0.296   3.173   4.445  0.2558 -0.3098 -0.2617
 2766ntf    fn414490  -0.211   3.249   4.616  0.4233  0.3872 -0.2041
 2767ntf    cn114491   6.675   6.769   2.806 -0.0098  0.1728  0.7384
 2767ntf    sn214492   6.695   6.945   2.765  0.0016 -0.0149 -0.0968
 2767ntf    nn314493   6.797   6.935   2.647 -0.5093 -0.0825 -0.5342
 2767ntf    sn214494   6.766   6.953   2.494 -0.2139  0.2246 -0.5595
 2767ntf    cn114495   6.783   7.131   2.466  0.2401  0.2530 -0.1262
 2767ntf    fn414496   6.628   6.699   2.703  0.4123 -0.2592  0.8352
 2767ntf    fn414497   6.796   6.725   2.836  0.1178 -0.2295 -0.3021
 2767ntf    fn414498   6.595   6.736   2.905 -0.5525 -0.3286  0.1443
 2767ntf    on514499   6.562   6.993   2.737  0.1608  0.5510  0.1059
 2767ntf    on514500   6.759   7.008   2.878  0.3593 -0.1782 -0.2070
 2767ntf    on514501   6.633   6.914   2.456 -0.5220  0.5466  0.1748
 2767ntf    on514502   6.870   6.905   2.405  0.4873  0.0233  0.3464
 2767ntf    fn414503   6.716   7.213   2.547  0.2245  0.0641  0.0515
 2767ntf    fn414504   6.910   7.162   2.482  0.3915 -0.3093 -0.2370
 2767ntf    fn414505   6.753   7.166   2.342 -0.1312  0.2313 -0.0438
 2768ntf    cn114506   0.839   5.910   5.212 -0.1787  0.3130  0.0026
 2768ntf    sn214507   0.937   5.797   5.109  0.1997  0.4262  0.2353
 2768ntf    nn314508   1.077   5.867   5.119  0.4272 -0.0472  0.4015
 2768ntf    sn214509   1.212   5.790   5.096  0.2700 -0.1501 -0.2014
 2768ntf    cn114510   1.281   5.786   5.264  0.0811 -0.1409 -0.1233
 2768ntf    fn414511   0.856   5.900   5.343 -0.4171 -0.1477 -0.0003
 2768ntf    fn414512   0.859   6.037   5.180  0.3118  0.1539 -0.3282
 2768ntf    fn414513   0.712   5.880   5.190 -0.1215  0.2383 -0.2247
 2768ntf    on514514   0.916   5.677   5.187 -0.6326  0.4048 -0.0071
 2768ntf    on514515   0.866   5.807   4.984 -0.2400 -0.3927  0.4085
 2768ntf    on514516   1.304   5.873   5.023  0.2914 -0.5451 -0.6312
 2768ntf    on514517   1.210   5.654   5.047 -0.2908 -0.3224  0.2881
 2768ntf    fn414518   1.196   5.732   5.350 -0.0166 -0.0279 -0.1495
 2768ntf    fn414519   1.395   5.718   5.264 -0.0296 -0.3289 -0.0325
 2768ntf    fn414520   1.304   5.909   5.307  0.3472 -0.3026  0.2028
 2769ntf    cn114521   0.103   5.881   1.875 -0.2372 -0.1409  0.4604
 2769ntf    sn214522   0.116   5.747   1.996 -0.0200 -0.5554 -0.0178
 2769ntf    nn314523   0.225   5.808   2.091 -0.1931 -0.1917 -0.0543
 2769ntf    sn214524   0.381   5.790   2.095 -0.2086 -0.3397 -0.1123
 2769ntf    cn114525   0.419   5.967   2.074 -0.0046 -0.3116  0.4732
 2769ntf    fn414526   0.213   5.883   1.800 -0.3049 -0.6154  0.3484
 2769ntf    fn414527   0.008   5.870   1.784  0.0711 -0.0923  0.1267
 2769ntf    fn414528   0.100   6.002   1.928 -0.5398 -0.0164  0.1652
 2769ntf    on514529  -0.015   5.748   2.057 -0.1959 -0.5119 -0.3978
 2769ntf    on514530   0.157   5.635   1.915  0.3416 -0.2292 -0.2826
 2769ntf    on514531   0.447   5.736   1.979 -0.1983  0.4259 -0.4736
 2769ntf    on514532   0.431   5.765   2.228  0.3011  0.0776 -0.2243
 2769ntf    fn414533   0.331   6.041   2.139  0.3725  0.4702  0.0995
 2769ntf    fn414534   0.537   6.011   2.115  0.3206 -0.1772 -0.5883
 2769ntf    fn414535   0.411   6.003   1.947  0.5475  0.4150  0.6420
 2770ntf    cn114536   6.372   6.374   5.335 -0.2027  0.3919  0.0231
 2770ntf    sn214537   6.551   6.347   5.320 -0.2456  0.1817 -0.1087
 2770ntf    nn314538   6.606   6.481   5.378 -0.3013 -0.1482  0.7152
 2770ntf    sn214539   6.640   6.610   5.295 -0.0116 -0.5168  0.2559
 2770ntf    cn114540   6.600   6.739   5.416 -0.3832 -0.2698 -0.1282
 2770ntf    fn414541   6.334   6.480   5.267 -0.0177  0.3863 -0.0890
 2770ntf    fn414542   6.288   6.279   5.295 -0.4155  0.3336  0.5993
 2770ntf    fn414543   6.339   6.396   5.461 -0.2023  0.5461 -0.0043
 2770ntf    on514544   6.573   6.240   5.414  0.2107 -0.0377 -0.4588
 2770ntf    on514545   6.568   6.316   5.180 -0.4316 -0.2664 -0.0364
 2770ntf    on514546   6.546   6.636   5.189 -0.0712  0.5470  0.5589
 2770ntf    on514547   6.781   6.624   5.270 -0.1003  0.2523  0.1556
 2770ntf    fn414548   6.473   6.750   5.455 -0.2452 -0.1217  0.2932
 2770ntf    fn414549   6.670   6.713   5.526  0.1298  0.1121 -0.3615
 2770ntf    fn414550   6.645   6.858   5.379  0.1810 -0.4351  0.0209
 2771ntf    cn114551   4.169   4.236   5.949  0.2676 -0.0618 -0.4020
 2771ntf    sn214552   4.073   4.306   5.811 -0.0518  0.2996  0.0021
 2771ntf    nn314553   4.175   4.377   5.715  0.0525  0.1880  0.0306
 2771ntf    sn214554   4.261   4.302   5.607 -0.0966 -0.1813  0.1667
 2771ntf    cn114555   4.187   4.347   5.447  0.4335  0.1331  0.0069
 2771ntf    fn414556   4.107   4.142   6.019  0.4540  0.1572  0.0592
 2771ntf    fn414557   4.275   4.171   5.903  0.0674 -0.3618 -0.4452
 2771ntf    fn414558   4.203   4.331   6.033  0.6214 -0.3210 -0.2493
 2771ntf    on514559   4.007   4.190   5.758 -0.2333  0.5351 -0.2869
 2771ntf    on514560   3.986   4.406   5.867  0.1047  0.2136  0.4045
 2771ntf    on514561   4.262   4.157   5.610  0.2745 -0.2020 -0.7032
 2771ntf    on514562   4.395   4.355   5.610  0.0431 -0.5369  0.3375
 2771ntf    fn414563   4.215   4.471   5.412 -0.2876  0.3225  0.0818
 2771ntf    fn414564   4.221   4.265   5.349 -0.4910 -0.4541  0.1639
 2771ntf    fn414565   4.055   4.339   5.449  0.4225  0.2539 -0.3794
 2772ntf    cn114566   3.779   0.637   3.468  0.0959 -0.1276  0.5611
 2772ntf    sn214567   3.680   0.608   3.318  0.3589 -0.0440  0.3686
 2772ntf    nn314568   3.713   0.455   3.311  0.0760 -0.1114  0.4547
 2772ntf    sn214569   3.705   0.363   3.184  0.1784  0.2397  0.1938
 2772ntf    cn114570   3.879   0.336   3.140  0.1146 -0.3007  0.2648
 2772ntf    fn414571   3.752   0.543   3.556 -0.2310 -0.7519 -0.1922
 2772ntf    fn414572   3.909   0.649   3.448  0.0335 -0.3926 -0.0497
 2772ntf    fn414573   3.748   0.749   3.532 -0.4721 -0.0291  0.1268
 2772ntf    on514574   3.543   0.644   3.348  0.3186  0.1647 -0.0709
 2772ntf    on514575   3.754   0.678   3.217 -0.1509 -0.3369 -0.2172
 2772ntf    on514576   3.639   0.421   3.069  0.3237 -0.4411 -0.2368
 2772ntf    on514577   3.664   0.231   3.226 -0.1239  0.1356 -0.4138
 2772ntf    fn414578   3.947   0.446   3.111  0.1146 -0.4207 -0.1977
 2772ntf    fn414579   3.950   0.269   3.229 -0.1602 -0.2078  0.5550
 2772ntf    fn414580   3.892   0.257   3.035 -0.1013 -0.1125  0.0950
 2773ntf    cn114581   2.901   2.120   5.590 -0.1299 -0.0976 -0.1051
 2773ntf    sn214582   2.899   2.167   5.414  0.2344 -0.1538 -0.1267
 2773ntf    nn314583   2.749   2.213   5.402  0.3994  0.4290  0.0245
 2773ntf    sn214584   2.662   2.328   5.463 -0.1141  0.1499 -0.1792
 2773ntf    cn114585   2.621   2.416   5.310  0.3413  0.2564 -0.2409
 2773ntf    fn414586   2.805   2.036   5.625  0.1653 -0.1891  0.4979
 2773ntf    fn414587   3.015   2.061   5.625  0.4011  0.6283 -0.5799
 2773ntf    fn414588   2.899   2.228   5.666  0.2648 -0.3375  0.2509
 2773ntf    on514589   2.992   2.276   5.405 -0.0648  0.1419  0.3122
 2773ntf    on514590   2.912   2.040   5.347 -0.0186 -0.4721  0.4179
 2773ntf    on514591   2.744   2.417   5.541  0.2293  0.1675 -0.5555
 2773ntf    on514592   2.536   2.283   5.518 -0.0961 -0.4830 -0.6486
 2773ntf    fn414593   2.538   2.342   5.238  0.1300 -0.0374  0.3036
 2773ntf    fn414594   2.567   2.536   5.329  0.2572  0.3420 -0.9743
 2773ntf    fn414595   2.726   2.435   5.231  0.4261  0.0834 -0.1691
 2774ntf    cn114596   1.739   2.275   4.305 -0.5936  0.0530  0.0222
 2774ntf    sn214597   1.811   2.401   4.195  0.1199 -0.1802  0.2107
 2774ntf    nn314598   1.681   2.429   4.111  0.4374 -0.2603 -0.3088
 2774ntf    sn214599   1.651   2.525   3.990 -0.2673  0.0364  0.0924
 2774ntf    cn114600   1.646   2.409   3.850  0.3364  0.0450  0.0580
 2774ntf    fn414601   1.822   2.206   4.382 -0.8289 -0.1173  0.1251
 2774ntf    fn414602   1.644   2.317   4.388 -0.1657  0.4096  0.3434
 2774ntf    fn414603   1.681   2.184   4.229  0.5017 -0.5916 -0.0697
 2774ntf    on514604   1.842   2.513   4.280 -0.4131  0.0315  0.1359
 2774ntf    on514605   1.914   2.329   4.125  0.4323  0.1898  0.2918
 2774ntf    on514606   1.749   2.629   3.971 -0.6509  0.3886  0.0433
 2774ntf    on514607   1.512   2.562   3.986 -0.1144  0.5867 -0.2951
 2774ntf    fn414608   1.598   2.472   3.744  0.4498  0.0654  0.0190
 2774ntf    fn414609   1.766   2.363   3.818  0.4055  0.0765  0.2757
 2774ntf    fn414610   1.576   2.298   3.869  0.4335 -0.0454 -0.1119
 2775ntf    cn114611   0.321   2.385   0.036 -0.2082 -0.2779  0.0112
 2775ntf    sn214612   0.440   2.290   0.134  0.2428  0.2855  0.0116
 2775ntf    nn314613   0.576   2.358   0.093  0.0380  0.4413 -0.4107
 2775ntf    sn214614   0.663   2.466   0.166 -0.1254 -0.1510  0.6843
 2775ntf    cn114615   0.679   2.580   0.025 -0.0222 -0.3988  0.4946
 2775ntf    fn414616   0.198   2.336   0.044 -0.3413  0.1002  0.3230
 2775ntf    fn414617   0.299   2.504   0.090  0.1871 -0.5342  0.7377
 2775ntf    fn414618   0.346   2.404  -0.093  0.1444  0.2735  0.1596
 2775ntf    on514619   0.380   2.303   0.265 -0.0796  0.1854 -0.1273
 2775ntf    on514620   0.432   2.162   0.070  0.7440  0.3916 -0.2666
 2775ntf    on514621   0.799   2.422   0.185  0.0585 -0.0562 -0.3539
 2775ntf    on514622   0.607   2.543   0.274  0.1224  0.0324  0.6843
 2775ntf    fn414623   0.705   2.507  -0.082 -0.5859 -0.2196  0.2297
 2775ntf    fn414624   0.567   2.644  -0.003  0.2692 -0.1613 -0.1399
 2775ntf    fn414625   0.773   2.670   0.049 -0.0381 -0.1937 -0.2068
 2776ntf    cn114626   0.630   3.529   6.015  0.3010 -0.0585 -0.0066
 2776ntf    sn214627   0.507   3.507   6.147  0.1522 -0.0477 -0.1429
 2776ntf    nn314628   0.382   3.556   6.066  0.1019  0.6191  0.3288
 2776ntf    sn214629   0.318   3.697   6.040 -0.3242  0.3318 -0.1998
 2776ntf    cn114630   0.206   3.688   6.183 -0.0144  0.0961  0.0280
 2776ntf    fn414631   0.612   3.444   5.915  0.1968 -0.2213  0.1489
 2776ntf    fn414632   0.618   3.649   5.961  0.0827 -0.2077 -0.2908
 2776ntf    fn414633   0.753   3.502   6.054  0.4049 -0.0303 -0.3133
 2776ntf    on514634   0.501   3.364   6.169 -0.5567 -0.0079 -0.0625
 2776ntf    on514635   0.562   3.585   6.255 -0.3711  0.2890 -0.1160
 2776ntf    on514636   0.226   3.695   5.928 -0.6073  0.3279  0.0315
 2776ntf    on514637   0.395   3.816   6.064 -0.0087  0.1490 -0.2937
 2776ntf    fn414638   0.266   3.656   6.297  0.4576  0.3721 -0.1371
 2776ntf    fn414639   0.153   3.808   6.195  0.1442  0.1978 -0.2712
 2776ntf    fn414640   0.113   3.597   6.162  0.4841 -0.5709  0.6253
 2777ntf    cn114641   2.727   5.236   6.805  0.2253  0.3463 -0.1203
 2777ntf    sn214642   2.749   5.070   6.733 -0.0710  0.2383  0.0398
 2777ntf    nn314643   2.905   5.059   6.743 -0.0576  0.2348 -0.1797
 2777ntf    sn214644   2.990   4.998   6.860 -0.2906 -0.2521 -0.2610
 2777ntf    cn114645   2.982   4.822   6.813  0.3147 -0.2925 -0.2205
 2777ntf    fn414646   2.602   5.279   6.801  0.1526  0.1685  0.1608
 2777ntf    fn414647   2.762   5.245   6.933 -0.2444  0.0050  0.0357
 2777ntf    fn414648   2.794   5.326   6.735  0.0797 -0.0507 -0.7737
 2777ntf    on514649   2.669   4.977   6.809  0.2737  0.0672  0.1916
 2777ntf    on514650   2.703   5.104   6.601 -0.1965  0.2537  0.0869
 2777ntf    on514651   2.939   5.006   6.994  0.3270 -0.5474 -0.0034
 2777ntf    on514652   3.129   5.029   6.839 -0.1832 -0.3245  0.3233
 2777ntf    fn414653   3.024   4.797   6.690 -0.4615  0.5067 -0.6602
 2777ntf    fn414654   3.046   4.746   6.901  0.1375 -0.0843  0.0888
 2777ntf    fn414655   2.855   4.787   6.818  0.3120 -0.2474  0.0468
 2778ntf    cn114656   2.624   5.825   6.334 -0.0800  0.0058  0.0662
 2778ntf    sn214657   2.537   5.702   6.233  0.1631 -0.3020  0.2283
 2778ntf    nn314658   2.406   5.690   6.320 -0.1390 -0.2054 -0.2113
 2778ntf    sn214659   2.255   5.681   6.278 -0.1911  0.1710 -0.1059
 2778ntf    cn114660   2.213   5.522   6.356  0.3074  0.1988  0.2280
 2778ntf    fn414661   2.599   5.951   6.305 -0.3292 -0.1715 -0.4913
 2778ntf    fn414662   2.600   5.806   6.463 -0.2682  0.2624  0.0695
 2778ntf    fn414663   2.755   5.820   6.316 -0.0512 -0.1206  0.3089
 2778ntf    on514664   2.523   5.776   6.110 -0.3157 -0.3826  0.2317
 2778ntf    on514665   2.614   5.580   6.236  0.0318 -0.3835  0.2881
 2778ntf    on514666   2.231   5.659   6.138  0.0464 -0.5551 -0.0351
 2778ntf    on514667   2.171   5.776   6.346 -0.4250  0.3750 -0.6748
 2778ntf    fn414668   2.083   5.497   6.362  0.3554 -0.3643 -0.7811
 2778ntf    fn414669   2.265   5.420   6.290  0.2074  0.2931  0.0009
 2778ntf    fn414670   2.255   5.512   6.481  0.0113  0.2140  0.3298
 2779ntf    cn114671   0.441   6.881   6.063 -0.2434  0.0646 -0.0718
 2779ntf    sn214672   0.279   6.883   5.978 -0.2189 -0.1030 -0.1223
 2779ntf    nn314673   0.244   6.730   5.990  0.3618 -0.2236  0.0907
 2779ntf    sn214674   0.237   6.609   5.891  0.4818  0.0935 -0.3133
 2779ntf    cn114675   0.289   6.477   6.005 -0.2210  0.0331 -0.0543
 2779ntf    fn414676   0.427   6.836   6.186 -0.5792 -0.0483 -0.1491
 2779ntf    fn414677   0.523   6.798   6.001  0.3888  0.5005  0.1762
 2779ntf    fn414678   0.505   6.996   6.063 -0.1090 -0.0100 -0.2767
 2779ntf    on514679   0.210   6.971   6.069 -0.1642 -0.2017  0.0160
 2779ntf    on514680   0.318   6.926   5.846 -0.3386  0.0706 -0.0999
 2779ntf    on514681   0.325   6.609   5.777 -0.1076  0.1033 -0.7720
 2779ntf    on514682   0.103   6.559   5.870  0.5213 -0.3017  0.3159
 2779ntf    fn414683   0.208   6.462   6.109  0.2183 -0.1903  0.2591
 2779ntf    fn414684   0.300   6.358   5.947 -0.4506  0.0410 -0.1174
 2779ntf    fn414685   0.408   6.504   6.055 -0.0987 -0.3087 -0.1574
 2780ntf    cn114686   2.539   3.720   1.001  0.0130  0.2902  0.0923
 2780ntf    sn214687   2.417   3.711   1.136  0.0922 -0.1816  0.1326
 2780ntf    nn314688   2.507   3.769   1.250  0.5654  0.1136 -0.3850
 2780ntf    sn214689   2.483   3.897   1.338 -0.2554 -0.0916 -0.3042
 2780ntf    cn114690   2.410   3.825   1.488  0.1197  0.4083  0.1235
 2780ntf    fn414691   2.640   3.637   1.015 -0.2609 -0.1363 -0.4468
 2780ntf    fn414692   2.485   3.706   0.881 -0.5013  0.1299  0.3420
 2780ntf    fn414693   2.593   3.841   1.005  0.4332  0.1215 -0.4395
 2780ntf    on514694   2.307   3.791   1.089  0.2824  0.1279  0.2123
 2780ntf    on514695   2.390   3.571   1.155  0.2182 -0.2117  0.0941
 2780ntf    on514696   2.388   3.995   1.291 -0.1726  0.3802  0.4892
 2780ntf    on514697   2.605   3.957   1.386 -0.3097  0.0184 -0.3018
 2780ntf    fn414698   2.295   3.764   1.464  0.0574  0.5793 -0.0194
 2780ntf    fn414699   2.490   3.734   1.540  0.1262  0.0063 -0.5746
 2780ntf    fn414700   2.382   3.907   1.588  0.1946  0.2525  0.2728
 2781ntf    cn114701   6.305   6.945   5.725 -0.3471  0.3477  0.0821
 2781ntf    sn214702   6.411   7.061   5.817  0.0566 -0.0643  0.1441
 2781ntf    nn314703   6.518   7.096   5.708 -0.2538  0.0680 -0.1191
 2781ntf    sn214704   6.509   7.208   5.598 -0.0825  0.0215 -0.1795
 2781ntf    cn114705   6.573   7.354   5.686 -0.2049  0.0875 -0.2009
 2781ntf    fn414706   6.373   6.846   5.670 -1.2574 -0.2068 -0.0575
 2781ntf    fn414707   6.209   6.889   5.796 -0.1557 -0.4062 -0.2414
 2781ntf    fn414708   6.249   7.012   5.626  0.8379  0.0474 -0.8160
 2781ntf    on514709   6.324   7.172   5.852  0.1460  0.0131  0.1221
 2781ntf    on514710   6.468   6.974   5.917 -0.2111 -0.8088 -0.3456
 2781ntf    on514711   6.379   7.246   5.551 -0.1166  0.3334  0.1609
 2781ntf    on514712   6.614   7.185   5.502 -0.2192 -0.5667 -0.1937
 2781ntf    fn414713   6.536   7.377   5.811  0.1038  0.3324 -0.1531
 2781ntf    fn414714   6.705   7.349   5.692 -0.2325 -0.0640  0.3502
 2781ntf    fn414715   6.550   7.461   5.611 -0.1358  0.0917 -0.2161
 2782ntf    cn114716   4.316   0.949   2.496 -0.2682 -0.3539 -0.3853
 2782ntf    sn214717   4.433   0.811   2.515 -0.1084 -0.1775 -0.0852
 2782ntf    nn314718   4.557   0.899   2.473 -0.4512  0.1030 -0.5266
 2782ntf    sn214719   4.669   0.865   2.368 -0.1531  0.4692 -0.3313
 2782ntf    cn114720   4.592   0.925   2.214 -0.0561  0.0066 -0.5608
 2782ntf    fn414721   4.187   0.927   2.520 -0.2939  0.1190 -0.0879
 2782ntf    fn414722   4.349   1.047   2.578 -0.7166 -0.2558 -0.3148
 2782ntf    fn414723   4.322   1.002   2.375  0.0946 -0.1115 -0.2612
 2782ntf    on514724   4.436   0.782   2.656 -0.1407  0.2621  0.0094
 2782ntf    on514725   4.377   0.715   2.423  0.1820 -0.4168 -0.0102
 2782ntf    on514726   4.690   0.725   2.339  0.3077  0.4888 -0.0934
 2782ntf    on514727   4.789   0.944   2.375 -0.1422  0.4580 -0.4008
 2782ntf    fn414728   4.597   1.057   2.205 -0.7152  0.0331 -0.5283
 2782ntf    fn414729   4.670   0.884   2.115  0.5210  0.0391 -0.1224
 2782ntf    fn414730   4.467   0.885   2.197 -0.1084 -0.0843  0.0188
 2783ntf    cn114731   5.328   1.306   4.528  0.2186 -0.3609 -0.1926
 2783ntf    sn214732   5.490   1.371   4.477  0.2714 -0.0120  0.4227
 2783ntf    nn314733   5.576   1.347   4.607  0.4363  0.0831  0.3315
 2783ntf    sn214734   5.643   1.215   4.660 -0.0967 -0.2621  0.1563
 2783ntf    cn114735   5.806   1.291   4.685 -0.2300  0.0668  0.0332
 2783ntf    fn414736   5.310   1.326   4.657 -0.1654 -0.3554 -0.2464
 2783ntf    fn414737   5.224   1.363   4.470 -0.0423 -0.8910 -0.2561
 2783ntf    fn414738   5.305   1.177   4.511 -0.3672 -0.3578  0.5342
 2783ntf    on514739   5.515   1.290   4.361  0.6771 -0.1678  0.6139
 2783ntf    on514740   5.463   1.511   4.456  0.2072 -0.0784  0.0652
 2783ntf    on514741   5.670   1.111   4.564 -0.1290 -0.5248  0.4308
 2783ntf    on514742   5.602   1.176   4.793  0.1553 -0.0958  0.2837
 2783ntf    fn414743   5.852   1.352   4.578 -0.3215  0.5255  0.2518
 2783ntf    fn414744   5.794   1.383   4.779 -0.3337 -0.3861  0.4717
 2783ntf    fn414745   5.905   1.210   4.720  0.1798  0.4412 -0.2424
 2784ntf    cn114746   0.865   3.087   1.900 -0.1823  0.3952 -0.0066
 2784ntf    sn214747   0.826   3.069   1.723  0.4380  0.2614 -0.1308
 2784ntf    nn314748   0.766   3.213   1.706 -0.3787 -0.0322  0.2210
 2784ntf    sn214749   0.669   3.252   1.589 -0.0670  0.2629  0.0603
 2784ntf    cn114750   0.791   3.338   1.485 -0.0968 -0.1692 -0.3338
 2784ntf    fn414751   0.916   2.974   1.944 -0.3980  0.0541 -0.6108
 2784ntf    fn414752   0.945   3.187   1.932  0.2723 -0.0660  0.3131
 2784ntf    fn414753   0.751   3.106   1.964 -0.2253 -0.1407  0.0779
 2784ntf    on514754   0.961   3.055   1.673  0.4847  0.8258 -0.1639
 2784ntf    on514755   0.733   2.959   1.716  0.2764  0.4022 -0.1891
 2784ntf    on514756   0.569   3.345   1.634 -0.0719 -0.0098  0.6213
 2784ntf    on514757   0.634   3.146   1.497  0.3528  0.0778  0.1108
 2784ntf    fn414758   0.737   3.388   1.375 -0.0888 -0.3521 -0.4215
 2784ntf    fn414759   0.843   3.440   1.550  0.0350 -0.1312 -0.4979
 2784ntf    fn414760   0.898   3.268   1.450  0.4434 -0.1525  1.2177
 2785ntf    cn114761   1.165   2.594   6.823 -0.3627  0.0446 -0.0211
 2785ntf    sn214762   1.276   2.460   6.876 -0.2188  0.2336  0.1583
 2785ntf    nn314763   1.401   2.541   6.925 -0.0857 -0.0053  0.2147
 2785ntf    sn214764   1.440   2.598   7.066 -0.3522 -0.1982  0.3674
 2785ntf    cn114765   1.519   2.447   7.129 -0.0991 -0.0582  0.3852
 2785ntf    fn414766   1.069   2.547   6.745 -0.0623 -0.4188 -0.1180
 2785ntf    fn414767   1.115   2.661   6.925 -0.1801 -0.0127  0.1055
 2785ntf    fn414768   1.237   2.680   6.752 -0.5762 -0.3543 -0.7293
 2785ntf    on514769   1.198   2.397   6.980 -0.2649  0.2702  0.1462
 2785ntf    on514770   1.306   2.384   6.758  0.0957  0.7994 -0.1272
 2785ntf    on514771   1.333   2.619   7.161 -0.3154  0.0447  0.3553
 2785ntf    on514772   1.546   2.695   7.061  0.0166 -0.5835  0.6495
 2785ntf    fn414773   1.425   2.363   7.170  0.2136 -0.5329  0.1460
 2785ntf    fn414774   1.608   2.392   7.048 -0.5286  0.6200 -0.5669
 2785ntf    fn414775   1.588   2.479   7.237 -0.3266 -0.3454  0.6176
 2786ntf    cn114776   2.590   5.066   1.078  0.1665 -0.4095  0.1478
 2786ntf    sn214777   2.415   5.072   1.029  0.2241 -0.0809 -0.0204
 2786ntf    nn314778   2.442   5.064   0.874 -0.2097  0.0820 -0.1044
 2786ntf    sn214779   2.461   5.185   0.776  0.2377  0.4346  0.4118
 2786ntf    cn114780   2.588   5.115   0.666 -0.2016  0.3029 -0.0136
 2786ntf    fn414781   2.602   5.017   1.200  0.6173 -0.3385  0.1338
 2786ntf    fn414782   2.659   4.986   0.997 -0.2926 -0.4371 -0.2194
 2786ntf    fn414783   2.642   5.187   1.070 -0.4818 -0.1358  0.0086
 2786ntf    on514784   2.372   4.942   1.074  0.2149 -0.2407 -0.4781
 2786ntf    on514785   2.352   5.189   1.084 -0.2641 -0.5191  0.3585
 2786ntf    on514786   2.522   5.303   0.832  0.0806  0.5258  0.3892
 2786ntf    on514787   2.338   5.204   0.703  0.3628 -0.3782 -0.0157
 2786ntf    fn414788   2.552   5.000   0.611 -0.1840  0.2911  0.0004
 2786ntf    fn414789   2.615   5.188   0.559 -0.2404  0.4443  0.0731
 2786ntf    fn414790   2.697   5.091   0.736 -0.1853 -0.3632 -0.2590
 2787ntf    cn114791   2.359   1.744   2.951 -0.0060 -0.0310  0.1195
 2787ntf    sn214792   2.540   1.726   2.949 -0.0214 -0.1981  0.1406
 2787ntf    nn314793   2.537   1.592   3.031  0.6805  0.0856  0.6389
 2787ntf    sn214794   2.550   1.440   2.994 -0.2637  0.0772  0.3208
 2787ntf    cn114795   2.453   1.377   3.135 -0.6035  0.0248  0.0662
 2787ntf    fn414796   2.318   1.763   3.076  0.4971  0.1218  0.2600
 2787ntf    fn414797   2.305   1.845   2.885 -0.4647 -0.3413  0.0110
 2787ntf    fn414798   2.301   1.635   2.901  0.1719 -0.2340  0.3518
 2787ntf    on514799   2.572   1.719   2.809  0.3610  0.7084  0.1728
 2787ntf    on514800   2.587   1.844   3.019 -0.3658  0.3472 -0.5374
 2787ntf    on514801   2.685   1.392   3.010 -0.2597 -0.1086 -0.2399
 2787ntf    on514802   2.465   1.397   2.885  0.2728 -0.0972 -0.0289
 2787ntf    fn414803   2.330   1.426   3.131 -0.4831  0.3074 -0.2088
 2787ntf    fn414804   2.436   1.246   3.127  0.3568 -0.1170  0.2422
 2787ntf    fn414805   2.502   1.406   3.254 -0.5681  0.5535 -0.0763
 2788ntf    cn114806   3.022   5.650   2.239 -0.4906  0.0409  0.1371
 2788ntf    sn214807   2.949   5.497   2.174 -0.0926 -0.0260 -0.1567
 2788ntf    nn314808   2.894   5.433   2.307 -0.0839  0.0556 -0.1137
 2788ntf    sn214809   2.908   5.288   2.364  0.2513  0.2750  0.3689
 2788ntf    cn114810   3.056   5.314   2.466  0.3028  0.1214  0.3339
 2788ntf    fn414811   3.118   5.617   2.324 -0.3043  0.0037 -0.0870
 2788ntf    fn414812   3.073   5.731   2.147 -0.3329  0.2802  0.4347
 2788ntf    fn414813   2.938   5.733   2.299 -0.5647  0.2059 -0.1877
 2788ntf    on514814   2.845   5.535   2.081 -0.2240 -0.2952 -0.1225
 2788ntf    on514815   3.069   5.435   2.124  0.0553 -0.0218  0.1889
 2788ntf    on514816   2.940   5.192   2.261  0.3078 -0.1294  0.7561
 2788ntf    on514817   2.808   5.249   2.460  0.0897  0.2052  0.1738
 2788ntf    fn414818   3.023   5.385   2.572 -0.3326  0.6401 -0.2017
 2788ntf    fn414819   3.101   5.200   2.518  0.1335 -0.4629 -0.7694
 2788ntf    fn414820   3.153   5.384   2.411  0.1074 -0.1386 -0.3524
 2789ntf    cn114821   4.182   3.504   4.590 -0.0181 -0.1058 -0.2711
 2789ntf    sn214822   4.043   3.390   4.559 -0.0774 -0.2290  0.4317
 2789ntf    nn314823   4.045   3.384   4.403 -0.4014  0.2960  0.4046
 2789ntf    sn214824   3.969   3.472   4.297  0.0781  0.3254  0.0816
 2789ntf    cn114825   3.809   3.387   4.303  0.1796  0.1248 -0.0528
 2789ntf    fn414826   4.164   3.551   4.712 -0.1197 -0.1987 -0.2498
 2789ntf    fn414827   4.301   3.448   4.574 -0.2159 -0.7285  0.3589
 2789ntf    fn414828   4.166   3.613   4.517 -0.2897  0.1181  0.1178
 2789ntf    on514829   4.082   3.265   4.621  0.2449 -0.3635 -0.0420
 2789ntf    on514830   3.928   3.457   4.613 -0.0760  0.0047  0.1467
 2789ntf    on514831   4.011   3.447   4.161  0.4691 -0.0657  0.2707
 2789ntf    on514832   3.927   3.608   4.321 -0.4397  0.1242  0.3149
 2789ntf    fn414833   3.821   3.258   4.276  0.1467  0.1322 -0.1008
 2789ntf    fn414834   3.758   3.389   4.425  0.5444 -0.5156  0.1184
 2789ntf    fn414835   3.718   3.434   4.220 -0.0924  0.1392  0.2518
 2790ntf    cn114836   1.563   3.597   3.639  0.1605 -0.0575  0.3197
 2790ntf    sn214837   1.516   3.652   3.806 -0.1353  0.1208  0.1793
 2790ntf    nn314838   1.510   3.513   3.878 -0.8439 -0.0459 -0.1894
 2790ntf    sn214839   1.395   3.462   3.971 -0.4668  0.1399  0.3841
 2790ntf    cn114840   1.294   3.349   3.870  0.1304 -0.0242 -0.0298
 2790ntf    fn414841   1.685   3.547   3.639  0.4702  0.6801 -0.0888
 2790ntf    fn414842   1.478   3.511   3.586 -0.0850  0.6435 -0.4663
 2790ntf    fn414843   1.570   3.691   3.545 -0.2286 -0.3471 -0.0025
 2790ntf    on514844   1.635   3.724   3.844  0.1272 -0.0937 -0.2297
 2790ntf    on514845   1.391   3.723   3.794 -0.4244 -0.4331 -0.0940
 2790ntf    on514846   1.306   3.566   4.017 -0.4714  0.2942  0.0277
 2790ntf    on514847   1.439   3.372   4.075  0.3643  0.4369  0.2903
 2790ntf    fn414848   1.207   3.284   3.944 -0.3883  0.8218  0.1162
 2790ntf    fn414849   1.232   3.409   3.770  0.5121  0.3834 -0.0265
 2790ntf    fn414850   1.374   3.255   3.821  0.4736 -0.0990  0.6625
 2791ntf    cn114851   7.008   5.299   1.370  0.1345  0.2137  0.3108
 2791ntf    sn214852   6.938   5.249   1.530  0.2825 -0.3753  0.1914
 2791ntf    nn314853   6.916   5.095   1.508 -0.3863 -0.2164 -0.2813
 2791ntf    sn214854   6.788   5.006   1.491 -0.1720 -0.5372 -0.2152
 2791ntf    cn114855   6.789   4.937   1.660  0.0303  0.1320  0.0603
 2791ntf    fn414856   6.927   5.282   1.267  0.2257 -0.0045  0.2760
 2791ntf    fn414857   7.038   5.428   1.369  0.0236  0.2385  0.2171
 2791ntf    fn414858   7.119   5.236   1.337  0.0460  0.2827 -0.1178
 2791ntf    on514859   7.046   5.276   1.622  0.8599  0.0872 -0.6090
 2791ntf    on514860   6.816   5.326   1.536  0.7539  0.4056 -0.1388
 2791ntf    on514861   6.822   4.891   1.411  0.0764 -0.4886 -0.1811
 2791ntf    on514862   6.662   5.069   1.463  0.2911  0.4915 -0.0318
 2791ntf    fn414863   6.794   5.030   1.754 -0.0788 -0.4988  0.7014
 2791ntf    fn414864   6.673   4.878   1.686 -0.0840  0.5009  0.4103
 2791ntf    fn414865   6.881   4.845   1.684  0.4409  0.5651  0.1448
 2792ntf    cn114866   5.936   5.417   4.361 -0.2686  0.6950  0.1881
 2792ntf    sn214867   6.087   5.449   4.457  0.0150  0.0441 -0.0322
 2792ntf    nn314868   6.115   5.600   4.425 -0.2396  0.0546 -0.2058
 2792ntf    sn214869   6.193   5.651   4.299 -0.2916 -0.2606 -0.3676
 2792ntf    cn114870   6.367   5.661   4.352 -0.2983  0.1851 -0.4242
 2792ntf    fn414871   5.829   5.466   4.422 -0.7900 -0.6409  0.3885
 2792ntf    fn414872   5.947   5.476   4.243  0.0863 -0.1162 -0.1923
 2792ntf    fn414873   5.910   5.288   4.349  0.1109  0.6549 -0.2183
 2792ntf    on514874   6.042   5.438   4.594  0.7175  0.2058  0.2155
 2792ntf    on514875   6.179   5.347   4.415 -0.2670 -0.1457 -0.1952
 2792ntf    on514876   6.161   5.786   4.261  1.0992  0.1299 -0.2104
 2792ntf    on514877   6.194   5.552   4.193 -0.0845 -0.2305 -0.3942
 2792ntf    fn414878   6.436   5.722   4.256  0.1559  0.3699  0.0154
 2792ntf    fn414879   6.377   5.743   4.455 -0.3573 -0.4520  0.0985
 2792ntf    fn414880   6.421   5.544   4.382 -0.1371  0.3957  0.1127
 2793ntf    cn114881   3.107   0.461   4.007  0.1806  0.4778 -0.4753
 2793ntf    sn214882   2.944   0.540   3.997 -0.0286  0.1068 -0.0345
 2793ntf    nn314883   2.977   0.691   4.021  0.1858  0.0925 -0.2404
 2793ntf    sn214884   2.973   0.776   4.154  0.0625 -0.3325  0.0286
 2793ntf    cn114885   3.067   0.928   4.120 -0.0344 -0.2993 -0.0918
 2793ntf    fn414886   3.205   0.516   3.938  0.7419 -0.2916 -0.3048
 2793ntf    fn414887   3.151   0.450   4.132  0.1817 -0.0202 -0.5147
 2793ntf    fn414888   3.110   0.337   3.960  0.0361  0.4760 -0.4787
 2793ntf    on514889   2.903   0.528   3.859 -0.7645 -0.2712  0.2097
 2793ntf    on514890   2.856   0.465   4.084  0.7419 -0.3705  0.3399
 2793ntf    on514891   3.050   0.715   4.260 -0.0136 -0.4375  0.0241
 2793ntf    on514892   2.843   0.828   4.187  0.2816  0.2751 -0.0521
 2793ntf    fn414893   3.003   1.010   4.039 -0.0855  0.0735  0.3276
 2793ntf    fn414894   3.092   0.995   4.231 -0.1426  0.2864 -0.4210
 2793ntf    fn414895   3.185   0.896   4.067  0.2172  0.2611  0.1271
 2794ntf    cn114896   5.795   7.032   0.333  0.0023 -0.0389 -0.4344
 2794ntf    sn214897   5.960   7.029   0.256  0.3463  0.4761  0.2741
 2794ntf    nn314898   5.966   7.172   0.190  0.5517  0.4101  0.1498
 2794ntf    sn214899   5.999   7.208   0.041 -0.0613  0.0862 -0.0661
 2794ntf    cn114900   5.836   7.176  -0.034 -0.2093  0.0712  0.2627
 2794ntf    fn414901   5.795   7.130   0.422  0.3371 -0.5863  0.1730
 2794ntf    fn414902   5.699   7.062   0.246 -0.1961  0.0492 -0.1856
 2794ntf    fn414903   5.749   6.925   0.394  0.3085  0.1504  0.1306
 2794ntf    on514904   6.049   7.016   0.368  0.2307  0.0065  0.3129
 2794ntf    on514905   5.941   6.915   0.169 -0.1818  0.7714 -0.0061
 2794ntf    on514906   6.100   7.125  -0.019 -0.2485 -0.0217 -0.2341
 2794ntf    on514907   6.015   7.349   0.016 -0.0647  0.1717  0.4138
 2794ntf    fn414908   5.741   7.233   0.038  0.1139  0.0787  0.6901
 2794ntf    fn414909   5.821   7.225  -0.155 -0.1302 -0.5541 -0.0043
 2794ntf    fn414910   5.804   7.047  -0.033 -0.1661  0.0607  0.3557
 2795ntf    cn114911   5.620   1.620   6.920 -0.4170 -0.7532 -0.0376
 2795ntf    sn214912   5.577   1.681   6.753  0.0567  0.0369  0.1234
 2795ntf    nn314913   5.487   1.804   6.791  0.6597  0.4619  0.1849
 2795ntf    sn214914   5.458   1.932   6.706 -0.0424  0.0790 -0.1577
 2795ntf    cn114915   5.295   1.896   6.633 -0.1881  0.2200  0.0976
 2795ntf    fn414916   5.688   1.706   6.994 -0.5433 -0.5639 -0.1384
 2795ntf    fn414917   5.509   1.590   6.986 -0.2081 -0.3519  0.5020
 2795ntf    fn414918   5.698   1.514   6.908 -0.2070 -0.5648 -0.3535
 2795ntf    on514919   5.708   1.715   6.704 -0.1742  0.3701 -0.2660
 2795ntf    on514920   5.517   1.567   6.689  0.1242 -0.0791  0.2634
 2795ntf    on514921   5.538   1.940   6.586 -0.3026 -0.3332 -0.3588
 2795ntf    on514922   5.430   2.056   6.775 -0.1266 -0.1373  0.1941
 2795ntf    fn414923   5.254   1.999   6.560 -0.2367  0.1828  0.0726
 2795ntf    fn414924   5.298   1.803   6.540 -0.3718  0.0518  0.2584
 2795ntf    fn414925   5.205   1.856   6.722 -0.0165 -0.0155  0.1653
 2796ntf    cn114926   6.523   5.712   3.899  0.2376  0.2284  0.1032
 2796ntf    sn214927   6.624   5.572   3.843 -0.0387  0.0401  0.0720
 2796ntf    nn314928   6.631   5.609   3.691 -0.4494 -0.0982  0.0171
 2796ntf    sn214929   6.650   5.504   3.576  0.2688 -0.0069  0.0476
 2796ntf    cn114930   6.820   5.532   3.517  0.3413 -0.3439  0.0922
 2796ntf    fn414931   6.476   5.698   4.023 -0.1705 -0.3356 -0.1099
 2796ntf    fn414932   6.591   5.826   3.893  0.4045  0.1322  0.1793
 2796ntf    fn414933   6.423   5.730   3.815  0.2302  0.7247  0.2134
 2796ntf    on514934   6.753   5.587   3.907  0.0820  0.2569 -0.2192
 2796ntf    on514935   6.537   5.466   3.886 -0.3724  0.2798 -0.0122
 2796ntf    on514936   6.577   5.531   3.455  0.5077 -0.4173 -0.1931
 2796ntf    on514937   6.674   5.366   3.612  0.4909 -0.0750 -0.3578
 2796ntf    fn414938   6.821   5.645   3.448 -0.4197 -0.5326 -0.2346
 2796ntf    fn414939   6.906   5.551   3.616  0.3496  0.1681 -0.0106
 2796ntf    fn414940   6.870   5.433   3.445  0.5219 -0.3372  0.2059
 2797ntf    cn114941   0.903   6.810   4.609 -0.0562  0.2592  0.0439
 2797ntf    sn214942   0.755   6.768   4.706  0.0399 -0.4064 -0.0946
 2797ntf    nn314943   0.696   6.640   4.635  0.0850 -0.1892 -0.5309
 2797ntf    sn214944   0.571   6.638   4.540 -0.4175  0.2239  0.1059
 2797ntf    cn114945   0.538   6.460   4.523  0.0842  0.1100  0.3048
 2797ntf    fn414946   0.873   6.816   4.481 -0.1610 -0.6228  0.0252
 2797ntf    fn414947   0.957   6.928   4.637  0.4194  0.0851 -0.1141
 2797ntf    fn414948   0.996   6.717   4.628 -0.1070  0.1533 -0.2278
 2797ntf    on514949   0.820   6.733   4.829  0.7200 -0.2069 -0.3894
 2797ntf    on514950   0.681   6.891   4.702  0.2815 -0.2501  0.2677
 2797ntf    on514951   0.596   6.688   4.407  0.5914 -0.0064  0.2024
 2797ntf    on514952   0.452   6.682   4.608 -0.2505  0.4336  0.2678
 2797ntf    fn414953   0.496   6.402   4.633 -0.8100 -0.0495 -0.1176
 2797ntf    fn414954   0.436   6.437   4.442 -0.2364 -0.4292  0.8583
 2797ntf    fn414955   0.636   6.387   4.472 -0.0710  0.4477 -0.4901
 2798ntf    cn114956   1.984   6.074   1.337  0.2165  0.1457  0.2248
 2798ntf    sn214957   1.893   6.222   1.285 -0.2038 -0.2274 -0.1105
 2798ntf    nn314958   1.861   6.187   1.135  0.1940 -0.4451 -0.1449
 2798ntf    sn214959   1.922   6.252   1.006 -0.0599 -0.2039 -0.1444
 2798ntf    cn114960   2.044   6.124   0.964  0.3225  0.0198  0.2805
 2798ntf    fn414961   2.033   6.073   1.460 -0.4252 -0.4091  0.4826
 2798ntf    fn414962   1.908   5.966   1.332  0.7591 -0.2249 -0.1000
 2798ntf    fn414963   2.086   6.059   1.254 -0.2402  0.0119 -0.3193
 2798ntf    on514964   1.769   6.214   1.358  0.0288  0.6793  0.3990
 2798ntf    on514965   1.984   6.333   1.296 -0.1853 -0.2566  0.0218
 2798ntf    on514966   2.001   6.373   1.010  0.0642 -0.2650 -0.6177
 2798ntf    on514967   1.829   6.244   0.896 -0.3205 -0.2329  0.0778
 2798ntf    fn414968   2.142   6.113   1.052  0.2340 -0.0517  0.3713
 2798ntf    fn414969   1.986   6.007   0.943  0.1495  0.2266 -0.4267
 2798ntf    fn414970   2.097   6.155   0.847  0.1268 -0.3845  0.0834
 2799ntf    cn114971   0.902   3.101   0.471 -0.3233 -0.2564  0.1191
 2799ntf    sn214972   0.884   3.045   0.643 -0.0235  0.1185  0.2761
 2799ntf    nn314973   0.765   2.944   0.623 -0.0415  0.3170 -0.6772
 2799ntf    sn214974   0.610   2.969   0.633 -0.0958 -0.1794 -0.2144
 2799ntf    cn114975   0.585   2.961   0.813 -0.1204 -0.1386 -0.2160
 2799ntf    fn414976   0.787   3.142   0.420 -0.1627 -0.1871 -0.1926
 2799ntf    fn414977   0.981   3.207   0.469 -0.4672 -0.1541 -0.3012
 2799ntf    fn414978   0.953   3.016   0.383  0.4363  0.0865  0.2167
 2799ntf    on514979   1.007   2.978   0.677  0.1928  0.5002  0.2400
 2799ntf    on514980   0.858   3.168   0.713 -0.6300 -0.0277  0.3178
 2799ntf    on514981   0.546   2.849   0.588 -0.0336 -0.2411 -0.1396
 2799ntf    on514982   0.565   3.099   0.588 -0.0612 -0.2626 -0.4888
 2799ntf    fn414983   0.460   2.986   0.849  0.0535  0.3216  0.0773
 2799ntf    fn414984   0.613   2.842   0.862  0.2362 -0.0518 -0.2022
 2799ntf    fn414985   0.663   3.048   0.875 -0.8372  0.1445  0.3093
 2800ntf    cn114986   1.540   5.904   6.764  0.0149  0.0798  0.1881
 2800ntf    sn214987   1.486   5.805   6.622 -0.0228  0.2780  0.0638
 2800ntf    nn314988   1.528   5.898   6.503 -0.3685 -0.3203 -0.5366
 2800ntf    sn214989   1.450   6.011   6.427 -0.0619  0.2654  0.0112
 2800ntf    cn114990   1.568   6.149   6.442 -0.1397  0.3336 -0.0048
 2800ntf    fn414991   1.672   5.909   6.769  0.0003  0.3584  0.3245
 2800ntf    fn414992   1.489   6.026   6.753 -0.1972 -0.0162  0.0932
 2800ntf    fn414993   1.503   5.855   6.881  0.6068 -0.0181  0.3397
 2800ntf    on514994   1.565   5.684   6.622  0.0408  0.3188  0.0233
 2800ntf    on514995   1.344   5.782   6.628 -0.0698  0.2120 -1.0879
 2800ntf    on514996   1.327   6.063   6.482 -0.1034  0.2060 -0.0259
 2800ntf    on514997   1.451   5.965   6.291  1.0795  0.2148  0.0265
 2800ntf    fn414998   1.505   6.258   6.402 -0.4884  0.4541  0.8377
 2800ntf    fn414999   1.614   6.166   6.565 -0.5987 -0.1062  0.2319
 2800ntf    fn415000   1.670   6.142   6.359  0.1672  0.1301  0.3885
 2801ntf    cn115001   2.056   4.917   6.257  0.4084  0.1584 -0.1066
 2801ntf    sn215002   2.000   5.087   6.228  0.1419  0.0291 -0.3562
 2801ntf    nn315003   2.069   5.089   6.086  0.1155 -0.1820 -0.3724
 2801ntf    sn215004   2.205   5.152   6.041  0.0734  0.2662  0.1215
 2801ntf    cn115005   2.154   5.319   5.989 -0.2937 -0.0611 -0.5724
 2801ntf    fn415006   2.185   4.895   6.273  0.4004  0.1236 -0.0893
 2801ntf    fn415007   2.005   4.874   6.371 -0.2693  0.7284 -0.1892
 2801ntf    fn415008   2.015   4.838   6.159  0.0236  0.3836 -0.1300
 2801ntf    on515009   1.857   5.073   6.217  0.1419 -0.1394 -0.1459
 2801ntf    on515010   2.066   5.161   6.332  0.6179 -0.8610 -0.0150
 2801ntf    on515011   2.243   5.091   5.916 -0.0105 -0.1370  0.2917
 2801ntf    on515012   2.304   5.171   6.145  0.0619 -0.4226  0.2589
 2801ntf    fn415013   2.069   5.370   6.076 -0.1590 -0.5160 -0.1690
 2801ntf    fn415014   2.263   5.394   5.982 -0.3422  0.0485 -0.1525
 2801ntf    fn415015   2.087   5.319   5.875 -0.3216  0.4833 -0.5587
 2802ntf    cn115016   4.871   4.218   1.404 -0.0185 -0.1892  0.0058
 2802ntf    sn215017   4.984   4.091   1.469 -0.1065 -0.1965  0.1437
 2802ntf    nn315018   4.920   3.962   1.406 -0.0495 -0.0416 -0.2342
 2802ntf    sn215019   4.989   3.847   1.324  0.3195  0.0193 -0.0074
 2802ntf    cn115020   5.002   3.714   1.447  0.3213 -0.2293 -0.2761
 2802ntf    fn415021   4.899   4.232   1.275  0.2637 -0.2464  0.0611
 2802ntf    fn415022   4.742   4.190   1.408 -0.0286 -0.0638  0.6564
 2802ntf    fn415023   4.891   4.338   1.456  0.5320 -0.3052  0.0709
 2802ntf    on515024   5.115   4.122   1.418 -0.1234  0.0772  0.2680
 2802ntf    on515025   4.964   4.100   1.611 -0.1546 -0.5518  0.1602
 2802ntf    on515026   5.126   3.873   1.286  0.5294 -0.5490  0.3429
 2802ntf    on515027   4.897   3.797   1.225 -0.2664  0.5257  0.2788
 2802ntf    fn415028   5.038   3.597   1.397  0.1401 -0.4443  0.0887
 2802ntf    fn415029   5.087   3.756   1.539  0.5932 -0.1454 -0.5633
 2802ntf    fn415030   4.889   3.685   1.511  0.5418  0.0005  0.2230
 2803ntf    cn115031   3.164   2.020   0.373  0.4831 -0.2521  0.1785
 2803ntf    sn215032   3.152   1.845   0.420  0.0058 -0.2862 -0.0627
 2803ntf    nn315033   3.201   1.853   0.568 -0.0937 -0.2387 -0.0325
 2803ntf    sn215034   3.325   1.788   0.639 -0.1368 -0.1391  0.1373
 2803ntf    cn115035   3.279   1.612   0.631 -0.3199 -0.0751 -0.2632
 2803ntf    fn415036   3.089   2.096   0.452  0.7662  0.2345 -0.0128
 2803ntf    fn415037   3.286   2.068   0.388  0.3212  0.0777  0.4592
 2803ntf    fn415038   3.129   2.062   0.252 -0.2193 -0.2570  0.3759
 2803ntf    on515039   3.015   1.801   0.410 -0.1653  0.2609 -0.1930
 2803ntf    on515040   3.240   1.776   0.328  0.2953 -0.3044  0.2281
 2803ntf    on515041   3.309   1.824   0.777 -0.0409  0.1945  0.0626
 2803ntf    on515042   3.457   1.804   0.581 -0.2958  0.0435 -0.1771
 2803ntf    fn415043   3.159   1.594   0.684 -0.0841  0.5588  0.5052
 2803ntf    fn415044   3.268   1.569   0.507  0.0464  0.3238 -0.4365
 2803ntf    fn415045   3.364   1.538   0.700  0.4279  1.1115  0.1278
 2804ntf    cn115046   4.723   6.736   1.043  0.1416 -0.1663 -0.0492
 2804ntf    sn215047   4.711   6.642   0.888 -0.0510 -0.0881 -0.0823
 2804ntf    nn315048   4.780   6.504   0.915  0.2517  0.0347 -0.2227
 2804ntf    sn215049   4.926   6.467   0.870  0.3348 -0.0202  0.0872
 2804ntf    cn115050   4.919   6.442   0.690  0.0265 -0.0396  0.1017
 2804ntf    fn415051   4.697   6.663   1.150 -0.2884 -0.1731 -0.1540
 2804ntf    fn415052   4.846   6.784   1.052 -0.1496  0.6211 -0.1377
 2804ntf    fn415053   4.639   6.838   1.044 -0.0274 -0.3083  0.3697
 2804ntf    on515054   4.568   6.631   0.872 -0.1169 -0.1015  0.4934
 2804ntf    on515055   4.771   6.728   0.788 -0.7934  0.3704 -0.1411
 2804ntf    on515056   4.949   6.332   0.913  0.6172  0.1776  0.5672
 2804ntf    on515057   5.029   6.565   0.896  0.3284  0.0460 -0.1354
 2804ntf    fn415058   4.894   6.550   0.618  0.1253 -0.3393 -0.3898
 2804ntf    fn415059   5.023   6.374   0.646  0.3589  0.1178  0.6438
 2804ntf    fn415060   4.814   6.362   0.675  0.0919 -0.1024 -0.0214
 2805ntf    cn115061   3.107   0.281   6.659 -0.3090 -0.0731 -0.1482
 2805ntf    sn215062   3.143   0.207   6.497  0.0987 -0.3291  0.0580
 2805ntf    nn315063   2.999   0.157   6.458  0.0884 -0.3244  0.0898
 2805ntf    sn215064   2.907   0.207   6.341  0.2276 -0.0360  0.1021
 2805ntf    cn115065   2.885   0.057   6.239  0.3757  0.0628 -0.0768
 2805ntf    fn415066   3.217   0.341   6.703 -0.3757  0.1720 -0.3097
 2805ntf    fn415067   3.024   0.385   6.651 -0.0707  0.1315  0.0181
 2805ntf    fn415068   3.062   0.205   6.758 -0.1077  0.4262  0.3353
 2805ntf    on515069   3.199   0.322   6.432  0.9341 -0.7021  0.1063
 2805ntf    on515070   3.231   0.098   6.529  0.6193  0.0163 -0.1960
 2805ntf    on515071   2.966   0.307   6.255  0.6003 -0.1698  0.1967
 2805ntf    on515072   2.774   0.236   6.388 -0.0242 -0.4289 -0.3545
 2805ntf    fn415073   2.797   0.082   6.143  0.5571  0.1934 -0.2100
 2805ntf    fn415074   3.001   0.016   6.191  0.4044 -0.7516  0.6684
 2805ntf    fn415075   2.835  -0.035   6.320  0.5761  0.1194  0.1136
 2806ntf    cn115076   1.382   3.141   2.558  0.2912 -0.1329  0.4293
 2806ntf    sn215077   1.437   3.103   2.727 -0.1444 -0.0792  0.5835
 2806ntf    nn315078   1.302   3.075   2.802 -0.3372  0.5292  0.4765
 2806ntf    sn215079   1.289   3.006   2.943  0.5966 -0.0911  0.2759
 2806ntf    cn115080   1.257   2.836   2.889  0.4209  0.0257  0.0118
 2806ntf    fn415081   1.468   3.217   2.491  0.1181 -0.1250  0.2149
 2806ntf    fn415082   1.386   3.033   2.482  0.0499  0.3511 -0.2817
 2806ntf    fn415083   1.264   3.199   2.548  0.2536 -0.2338  0.2752
 2806ntf    on515084   1.528   2.992   2.712 -0.4322 -0.1776 -0.5352
 2806ntf    on515085   1.505   3.224   2.768  0.2365 -0.0967  0.0183
 2806ntf    on515086   1.162   3.039   3.004 -0.0560 -0.4334 -0.8861
 2806ntf    on515087   1.400   2.985   3.033 -0.0244 -0.1904  1.0305
 2806ntf    fn415088   1.341   2.789   2.799  0.3630  0.2170 -0.1438
 2806ntf    fn415089   1.258   2.754   2.993  0.1032 -0.6837 -0.5370
 2806ntf    fn415090   1.137   2.828   2.832  0.6742  0.2721 -0.5678
 2807ntf    cn115091   1.854   4.551   0.841 -0.5371  0.3326  0.1198
 2807ntf    sn215092   1.858   4.385   0.916  0.5731  0.2478 -0.1002
 2807ntf    nn315093   1.786   4.301   0.805  0.4167 -0.1858  0.3302
 2807ntf    sn215094   1.672   4.193   0.813  0.1578  0.0637  0.0349
 2807ntf    cn115095   1.513   4.274   0.846  0.0630 -0.1217  0.0362
 2807ntf    fn415096   1.867   4.553   0.709  0.1066  0.0154  0.1710
 2807ntf    fn415097   1.741   4.614   0.865 -0.5792  0.2457  0.1499
 2807ntf    fn415098   1.957   4.622   0.886 -0.2218 -0.2436  0.3181
 2807ntf    on515099   1.998   4.362   0.939  0.6300  0.7333  0.0459
 2807ntf    on515100   1.774   4.386   1.033  0.0109  0.5170 -0.5029
 2807ntf    on515101   1.684   4.090   0.913  0.1969  0.0805  0.0476
 2807ntf    on515102   1.656   4.148   0.677  0.0482 -0.7915  0.3200
 2807ntf    fn415103   1.531   4.337   0.961  0.1106 -0.2872  0.1202
 2807ntf    fn415104   1.463   4.363   0.762 -0.0678 -0.1437  0.0899
 2807ntf    fn415105   1.423   4.179   0.865 -0.0214  0.0519  0.5210
 2808ntf    cn115106   6.561   4.389   6.426 -0.0487  0.1719 -0.3487
 2808ntf    sn215107   6.421   4.330   6.325 -0.2560  0.1090 -0.0273
 2808ntf    nn315108   6.386   4.464   6.252 -0.4861  0.0861  0.0432
 2808ntf    sn215109   6.337   4.481   6.103  0.1545 -0.2399 -0.2079
 2808ntf    cn115110   6.498   4.526   6.032  0.3451  0.1873  0.4809
 2808ntf    fn415111   6.645   4.462   6.355  0.1926  0.4490  0.2174
 2808ntf    fn415112   6.525   4.467   6.526  0.1799  0.0610 -0.1810
 2808ntf    fn415113   6.634   4.291   6.477  0.0690  0.3989 -0.0792
 2808ntf    on515114   6.489   4.233   6.243 -0.0833  0.1547  0.0608
 2808ntf    on515115   6.324   4.285   6.421  0.0853  0.1937  0.3604
 2808ntf    on515116   6.259   4.600   6.082  0.1036 -0.1357  0.5216
 2808ntf    on515117   6.298   4.363   6.030 -0.0103 -0.0810 -0.3766
 2808ntf    fn415118   6.583   4.425   6.034  0.3371  0.1719  0.1762
 2808ntf    fn415119   6.485   4.549   5.902  0.0805 -0.1993  0.4384
 2808ntf    fn415120   6.561   4.629   6.086  0.0049  0.3923  0.4922
 2809ntf    cn115121   5.649   5.748   3.142  0.0119  0.0676 -0.0219
 2809ntf    sn215122   5.818   5.792   3.191 -0.0931  0.3321  0.1090
 2809ntf    nn315123   5.855   5.901   3.085 -0.6809  0.0036 -0.4416
 2809ntf    sn215124   5.983   5.898   2.993 -0.3176 -0.4374  0.0689
 2809ntf    cn115125   5.934   5.789   2.856  0.0238 -0.4536 -0.0393
 2809ntf    fn415126   5.634   5.736   3.011 -0.1998  0.2317 -0.0136
 2809ntf    fn415127   5.606   5.637   3.199 -0.7374  0.1092 -0.4892
 2809ntf    fn415128   5.560   5.839   3.181 -0.0790  0.1100 -0.3208
 2809ntf    on515129   5.814   5.842   3.326 -0.2103  0.2495  0.1373
 2809ntf    on515130   5.888   5.667   3.170  0.3219  0.5342  0.2694
 2809ntf    on515131   6.103   5.843   3.050  0.0756  0.0658 -0.2634
 2809ntf    on515132   5.995   6.031   2.937  0.4026 -0.3379  0.4551
 2809ntf    fn415133   5.828   5.829   2.788  0.6955  0.5764 -0.5167
 2809ntf    fn415134   6.031   5.782   2.767  0.1076 -0.2491  0.0363
 2809ntf    fn415135   5.910   5.667   2.901 -0.0865 -0.2734  0.4017
 2810ntf    cn115136   3.998   2.396   0.328 -0.0378 -0.2489  0.3546
 2810ntf    sn215137   4.171   2.444   0.294 -0.0532 -0.2646  0.2492
 2810ntf    nn315138   4.205   2.528   0.423 -0.5357 -0.0310  0.2261
 2810ntf    sn215139   4.249   2.677   0.443 -0.2314 -0.1073  0.1234
 2810ntf    cn115140   4.211   2.683   0.620 -0.1400  0.1008  0.1356
 2810ntf    fn415141   3.940   2.317   0.239 -0.6536  0.5621  0.0183
 2810ntf    fn415142   3.979   2.335   0.443  0.4536 -0.3069  0.4096
 2810ntf    fn415143   3.930   2.509   0.336  0.2861 -0.0150 -0.0789
 2810ntf    on515144   4.239   2.317   0.292  0.0453 -0.2117  0.2475
 2810ntf    on515145   4.167   2.519   0.171  0.6199  0.1424  0.4731
 2810ntf    on515146   4.165   2.781   0.389  0.3996  0.4306  0.1588
 2810ntf    on515147   4.390   2.703   0.423 -0.1824 -0.3546  0.1443
 2810ntf    fn415148   4.106   2.608   0.646 -0.3123  0.2291 -0.1949
 2810ntf    fn415149   4.302   2.632   0.701  0.1695  0.1730 -0.1644
 2810ntf    fn415150   4.184   2.807   0.660  0.1504  0.2331 -0.0715
 2811ntf    cn115151   4.879   3.917   4.653  0.4813  0.3738 -0.3728
 2811ntf    sn215152   4.961   4.079   4.644  0.4837  0.3928 -0.0413
 2811ntf    nn315153   4.882   4.165   4.749 -0.2115 -0.6507  0.3029
 2811ntf    sn215154   4.935   4.220   4.886  0.0562 -0.0603 -0.0327
 2811ntf    cn115155   5.011   4.376   4.832 -0.1403 -0.0365 -0.2434
 2811ntf    fn415156   4.952   3.826   4.592  0.5446  0.2961 -0.1822
 2811ntf    fn415157   4.865   3.872   4.777 -0.7313  0.0482 -0.6194
 2811ntf    fn415158   4.752   3.918   4.615  0.2322  0.0518  0.4386
 2811ntf    on515159   5.095   4.043   4.683  0.2995 -0.1921  0.0634
 2811ntf    on515160   4.944   4.109   4.504  0.8810 -0.2175 -0.2234
 2811ntf    on515161   5.042   4.155   4.956 -0.5305 -0.1755  0.7771
 2811ntf    on515162   4.819   4.266   4.959  0.3439  0.1642  0.2883
 2811ntf    fn415163   5.125   4.399   4.896 -0.2356 -0.0048 -0.0840
 2811ntf    fn415164   5.035   4.382   4.702 -0.0652  0.3406 -0.2144
 2811ntf    fn415165   4.929   4.479   4.849  0.1728  0.1705  0.0300
 2812ntf    cn115166   3.994   0.277   7.026 -0.1729 -0.2333  0.0759
 2812ntf    sn215167   3.966   0.205   7.190  0.0024  0.2430  0.3165
 2812ntf    nn315168   4.007   0.057   7.156  0.1053  0.4122 -0.2971
 2812ntf    sn215169   4.149  -0.010   7.150 -0.1356 -0.1403  0.1248
 2812ntf    cn115170   4.139  -0.072   6.979 -0.1557 -0.2071  0.1502
 2812ntf    fn415171   3.964   0.406   7.027 -0.1152 -0.2242  0.6191
 2812ntf    fn415172   4.120   0.270   6.985  0.1924  0.6520  1.0102
 2812ntf    fn415173   3.922   0.233   6.923 -0.3161 -0.4445  0.2650
 2812ntf    on515174   4.054   0.274   7.281 -0.4902 -0.0284  1.0107
 2812ntf    on515175   3.823   0.222   7.200  0.0135  0.1309  0.6772
 2812ntf    on515176   4.159  -0.129   7.230  0.1948  0.0565  0.3731
 2812ntf    on515177   4.260   0.081   7.141 -0.6675  0.5232  0.1460
 2812ntf    fn415178   4.229  -0.164   6.949  0.0832  0.2423 -0.5340
 2812ntf    fn415179   4.017  -0.123   6.967 -0.3581  0.2655  0.1867
 2812ntf    fn415180   4.151   0.021   6.885  0.3501 -0.3778  0.0453
 2813ntf    cn115181   6.598   1.786   2.900 -0.0428 -0.2643  0.3641
 2813ntf    sn215182   6.427   1.731   2.930 -0.3244  0.2462 -0.2708
 2813ntf    nn315183   6.431   1.702   3.084 -0.2114 -0.1720 -0.3516
 2813ntf    sn215184   6.423   1.563   3.158 -0.2783 -0.0895 -0.2038
 2813ntf    cn115185   6.250   1.507   3.155 -0.2790 -0.0989  0.0001
 2813ntf    fn415186   6.643   1.801   2.777 -0.0784 -1.0099  0.2559
 2813ntf    fn415187   6.617   1.908   2.949 -0.2220 -0.0331 -0.1326
 2813ntf    fn415188   6.687   1.712   2.964 -0.1686 -0.5621  0.1978
 2813ntf    on515189   6.347   1.848   2.908 -0.3573  0.2465 -0.1530
 2813ntf    on515190   6.409   1.620   2.840  0.1499  0.0424 -0.1171
 2813ntf    on515191   6.455   1.585   3.297  0.1433 -0.0445 -0.3069
 2813ntf    on515192   6.497   1.460   3.090  0.0684  0.0841 -0.0892
 2813ntf    fn415193   6.171   1.589   3.222 -0.1548  0.0723 -0.0603
 2813ntf    fn415194   6.200   1.492   3.033 -1.0852 -0.0602  0.3206
 2813ntf    fn415195   6.225   1.390   3.212  0.1158 -0.1567  0.0532
 2814ntf    cn115196   2.462   1.683   5.504  0.5839  0.0436 -0.1743
 2814ntf    sn215197   2.298   1.745   5.458  0.3574 -0.1303  0.3897
 2814ntf    nn315198   2.303   1.699   5.308  0.5012  0.0613  0.3354
 2814ntf    sn215199   2.247   1.563   5.253  0.3524  0.2729 -0.0373
 2814ntf    cn115200   2.072   1.607   5.227  0.2837  0.1654  0.2484
 2814ntf    fn415201   2.496   1.694   5.631 -0.6663 -0.3958  0.2116
 2814ntf    fn415202   2.474   1.555   5.473 -0.1008 -0.0485 -0.0759
 2814ntf    fn415203   2.554   1.749   5.436  0.4957 -0.0954 -0.4320
 2814ntf    on515204   2.207   1.671   5.542 -0.2066  0.2708  0.1456
 2814ntf    on515205   2.304   1.888   5.465  0.0781 -0.1157  0.3587
 2814ntf    on515206   2.247   1.449   5.342 -0.4278  0.0240 -0.3415
 2814ntf    on515207   2.293   1.533   5.119 -0.2132 -0.3729 -0.0957
 2814ntf    fn415208   2.006   1.646   5.335 -0.3029  0.5369 -0.2436
 2814ntf    fn415209   2.070   1.705   5.139  0.3172 -0.0059  0.0576
 2814ntf    fn415210   1.997   1.505   5.188  0.0220  0.4173  0.0968
 2815ntf    cn115211   0.394   3.834   1.437 -0.4715 -0.0864  0.0765
 2815ntf    sn215212   0.546   3.926   1.400 -0.3502 -0.4233 -0.2682
 2815ntf    nn315213   0.613   3.918   1.541  0.0024 -0.2787 -0.4275
 2815ntf    sn215214   0.765   3.893   1.571 -0.0080  0.0332 -0.1007
 2815ntf    cn115215   0.786   3.713   1.553  0.0572  0.0049  0.2429
 2815ntf    fn415216   0.335   3.795   1.325  0.1282 -0.3322 -0.1605
 2815ntf    fn415217   0.419   3.723   1.505  0.0265  0.1103  0.2140
 2815ntf    fn415218   0.308   3.904   1.510  0.3445  0.6649  0.3285
 2815ntf    on515219   0.616   3.845   1.303  0.3397 -0.6793  0.4312
 2815ntf    on515220   0.490   4.056   1.373 -0.3634 -0.3527  0.0959
 2815ntf    on515221   0.788   3.909   1.713 -0.5430 -0.1186  0.0061
 2815ntf    on515222   0.866   3.957   1.490 -0.3380  0.5767 -0.0844
 2815ntf    fn415223   0.711   3.645   1.638  0.1503 -0.2946  0.0896
 2815ntf    fn415224   0.751   3.670   1.433 -0.3240  0.5105  0.1676
 2815ntf    fn415225   0.910   3.667   1.562  0.1659  0.2200 -0.1071
 2816ntf    cn115226   4.061   0.447   6.503  0.2213 -0.1366  0.4387
 2816ntf    sn215227   4.039   0.417   6.325  0.0116  0.4716  0.3582
 2816ntf    nn315228   3.924   0.514   6.280 -0.1890 -0.0019 -0.1525
 2816ntf    sn215229   3.940   0.650   6.204  0.0549 -0.0203 -0.1358
 2816ntf    cn115230   3.961   0.577   6.039 -0.3141  0.0124 -0.1975
 2816ntf    fn415231   3.955   0.439   6.583  0.1167  0.3087  0.3479
 2816ntf    fn415232   4.143   0.358   6.556  0.0450 -0.6123 -0.0826
 2816ntf    fn415233   4.128   0.558   6.529 -0.0252  0.1426 -0.1118
 2816ntf    on515234   4.167   0.438   6.261 -0.3022  0.3567 -0.3128
 2816ntf    on515235   3.988   0.282   6.320  0.3932  0.3414 -0.1288
 2816ntf    on515236   4.060   0.726   6.229 -0.1113 -0.1681  1.1671
 2816ntf    on515237   3.820   0.726   6.181 -0.0756 -0.3257 -0.4628
 2816ntf    fn415238   3.931   0.659   5.939 -0.2644  0.2869  0.0114
 2816ntf    fn415239   4.089   0.548   6.022 -0.2231  0.0416  0.4310
 2816ntf    fn415240   3.889   0.467   6.026 -0.0220 -0.1662 -0.3305
 2817ntf    cn115241   4.910   0.843   6.529 -0.3300  0.2010 -0.4960
 2817ntf    sn215242   4.982   0.902   6.373 -0.0998  0.4578 -0.2936
 2817ntf    nn315243   5.072   1.008   6.444 -0.2660  0.2831  0.1796
 2817ntf    sn215244   5.223   1.002   6.488 -0.2180 -0.3522 -0.0672
 2817ntf    cn115245   5.294   1.077   6.339 -0.2150  0.0227  0.1217
 2817ntf    fn415246   4.823   0.744   6.513  0.2898 -0.3421 -0.5112
 2817ntf    fn415247   5.006   0.796   6.606 -0.3951 -0.3285 -0.7268
 2817ntf    fn415248   4.848   0.936   6.600  0.4714  0.4890 -0.1720
 2817ntf    on515249   5.052   0.788   6.319 -0.5511  0.0223  0.0329
 2817ntf    on515250   4.874   0.963   6.298 -0.4380  0.5475  0.2639
 2817ntf    on515251   5.286   0.873   6.502 -0.5856 -0.5233  0.0195
 2817ntf    on515252   5.239   1.093   6.599 -0.7625 -0.2040 -0.1092
 2817ntf    fn415253   5.249   1.198   6.311 -0.1650  0.1220  0.4648
 2817ntf    fn415254   5.426   1.088   6.352 -0.1929  0.1173 -0.1760
 2817ntf    fn415255   5.274   1.004   6.231  0.1783 -0.3909  0.3267
 2818ntf    cn115256   4.186   1.245   0.897  0.2216 -0.0326 -0.1446
 2818ntf    sn215257   4.078   1.385   0.939  0.4333  0.0125  0.2532
 2818ntf    nn315258   3.943   1.308   0.964  0.3321  0.1190  0.0344
 2818ntf    sn215259   3.826   1.349   1.060  0.3206 -0.2300  0.1688
 2818ntf    cn115260   3.693   1.319   0.939  0.3907  0.0870  0.0121
 2818ntf    fn415261   4.160   1.135   0.966 -0.1137  0.0340 -0.1652
 2818ntf    fn415262   4.182   1.205   0.771  0.3973  0.1945 -0.2244
 2818ntf    fn415263   4.313   1.264   0.931  0.1926  0.0931 -0.1045
 2818ntf    on515264   4.133   1.439   1.061  0.0879 -0.4464  0.6129
 2818ntf    on515265   4.076   1.468   0.821  0.4243  0.1130  0.3243
 2818ntf    on515266   3.821   1.490   1.090 -0.0257 -0.2862  0.3747
 2818ntf    on515267   3.793   1.265   1.172 -0.3380 -0.0388  0.1218
 2818ntf    fn415268   3.577   1.374   0.972  0.3390 -0.2284  0.3649
 2818ntf    fn415269   3.731   1.372   0.824  0.3597 -0.3628 -0.2092
 2818ntf    fn415270   3.663   1.191   0.923  0.2857  0.0992  0.1110
 2819ntf    cn115271   3.651   3.197   5.430  0.1239 -0.0072 -0.4200
 2819ntf    sn215272   3.713   3.355   5.364  0.2659  0.1246  0.0245
 2819ntf    nn315273   3.862   3.306   5.354  0.1205 -0.4127  0.4283
 2819ntf    sn215274   3.940   3.247   5.232 -0.1031  0.3909 -0.1079
 2819ntf    cn115275   3.980   3.084   5.302 -0.1194  0.3654 -0.1573
 2819ntf    fn415276   3.526   3.196   5.474  0.1892  0.4655 -0.2085
 2819ntf    fn415277   3.657   3.093   5.350  0.4937 -0.5593  0.3074
 2819ntf    fn415278   3.732   3.176   5.533  0.0182  0.0717 -0.3198
 2819ntf    on515279   3.649   3.366   5.236  0.7056 -0.2720 -0.2310
 2819ntf    on515280   3.685   3.458   5.461  0.0256 -0.1515  0.2499
 2819ntf    on515281   4.071   3.304   5.213  0.1539 -0.1878 -0.0796
 2819ntf    on515282   3.861   3.235   5.112 -0.7212 -0.1047  0.3432
 2819ntf    fn415283   4.047   3.090   5.415 -0.1507  0.2942 -0.1349
 2819ntf    fn415284   3.869   3.016   5.324  0.0629  0.2612  0.4579
 2819ntf    fn415285   4.047   3.016   5.210 -0.2978  0.1549 -0.1320
 2820ntf    cn115286   2.259   3.928   2.172  0.1609  0.0731  0.2989
 2820ntf    sn215287   2.326   3.761   2.146 -0.0734  0.0737 -0.3351
 2820ntf    nn315288   2.317   3.740   1.991  0.1688  0.3430 -0.3874
 2820ntf    sn215289   2.416   3.654   1.906 -0.0124 -0.3431  0.0858
 2820ntf    cn115290   2.531   3.792   1.874 -0.5343  0.0357 -0.1716
 2820ntf    fn415291   2.263   3.967   2.298 -0.6826  0.3052  0.2621
 2820ntf    fn415292   2.331   4.018   2.107 -0.5364  0.4749  0.0750
 2820ntf    fn415293   2.135   3.941   2.127  0.0696 -0.1761  0.4764
 2820ntf    on515294   2.459   3.786   2.198 -0.3488  0.2641  0.2882
 2820ntf    on515295   2.239   3.676   2.223  0.5951 -0.0143  0.3358
 2820ntf    on515296   2.359   3.623   1.777  0.0604 -0.1663  0.0095
 2820ntf    on515297   2.485   3.550   1.977 -0.3786 -0.2001  0.6508
 2820ntf    fn415298   2.474   3.908   1.845  0.2434  0.5356  0.2771
 2820ntf    fn415299   2.600   3.809   1.985 -0.6598  0.0846 -0.1013
 2820ntf    fn415300   2.617   3.764   1.778 -0.2886 -0.3176  0.1480
 2821ntf    cn115301   4.862   5.696   1.340 -0.2467  0.1825 -0.1142
 2821ntf    sn215302   4.940   5.810   1.222  0.3487 -0.1033  0.0011
 2821ntf    nn315303   4.914   5.732   1.088  0.0349  0.0307 -0.0176
 2821ntf    sn215304   5.009   5.698   0.968 -0.4453 -0.1837 -0.3394
 2821ntf    cn115305   5.076   5.542   1.034 -0.2453  0.1964  0.3623
 2821ntf    fn415306   4.731   5.685   1.320 -0.3087  0.7745 -0.0519
 2821ntf    fn415307   4.916   5.576   1.335 -0.4592  0.0808  0.0025
 2821ntf    fn415308   4.881   5.741   1.463  0.1329  0.0271 -0.1150
 2821ntf    on515309   4.866   5.933   1.234  0.0482 -0.2020 -0.7659
 2821ntf    on515310   5.074   5.821   1.274  0.2669  0.1094  0.1713
 2821ntf    on515311   5.125   5.784   0.959 -0.3835 -0.2721 -0.3943
 2821ntf    on515312   4.942   5.654   0.849  0.1447  0.0713 -0.7717
 2821ntf    fn415313   5.145   5.470   0.948  0.2294  0.9466  0.1044
 2821ntf    fn415314   5.147   5.553   1.146  0.0608  0.1014  0.1788
 2821ntf    fn415315   4.983   5.455   1.071 -0.4370  0.2369 -0.0172
 2822ntf    cn115316   5.747   5.215   6.691 -0.0091 -0.1796  0.4561
 2822ntf    sn215317   5.883   5.182   6.807  0.0978 -0.0284  0.3754
 2822ntf    nn315318   5.815   5.241   6.935  0.1203  0.1753  0.2944
 2822ntf    sn215319   5.730   5.172   7.049  0.1302 -0.4111 -0.0487
 2822ntf    cn115320   5.857   5.109   7.162  0.3473  0.2479  0.0829
 2822ntf    fn415321   5.628   5.169   6.724 -0.1079  0.0744  0.4513
 2822ntf    fn415322   5.727   5.343   6.661  0.0434 -0.3224 -0.2036
 2822ntf    fn415323   5.773   5.158   6.574 -0.0685  0.4741  0.1158
 2822ntf    on515324   5.901   5.039   6.802 -0.0790 -0.0739  0.9513
 2822ntf    on515325   5.990   5.271   6.770 -0.0411 -0.1552 -0.3522
 2822ntf    on515326   5.655   5.055   7.010  0.0863 -0.4506  0.1566
 2822ntf    on515327   5.677   5.279   7.129  0.0499 -0.4097 -0.1041
 2822ntf    fn415328   5.927   5.206   7.219  0.0326  0.4870  0.0618
 2822ntf    fn415329   5.799   5.048   7.264  0.2063 -0.4995 -0.4309
 2822ntf    fn415330   5.939   5.018   7.111 -0.0328  0.0974 -0.2602
 2823ntf    cn115331   0.372   4.702   6.014  0.1377 -0.2836 -0.1924
 2823ntf    sn215332   0.258   4.565   5.980 -0.1017 -0.0911 -0.1637
 2823ntf    nn315333   0.150   4.646   5.901  0.5249  0.3924 -0.5306
 2823ntf    sn215334   0.068   4.631   5.768 -0.1723 -0.1209 -0.0481
 2823ntf    cn115335   0.161   4.727   5.645  0.4949 -0.4532  0.1957
 2823ntf    fn415336   0.393   4.778   5.908  0.2286  0.3789  0.3006
 2823ntf    fn415337   0.330   4.780   6.111  0.3955  0.1418 -0.4206
 2823ntf    fn415338   0.494   4.660   6.045  0.3458  0.2372 -0.2915
 2823ntf    on515339   0.332   4.470   5.900 -0.2751 -0.2846 -0.0959
 2823ntf    on515340   0.202   4.528   6.108 -0.1506  0.7276  0.0518
 2823ntf    on515341  -0.059   4.699   5.777 -0.3431 -0.3475 -0.6737
 2823ntf    on515342   0.061   4.502   5.704  0.4991 -0.0388 -0.2937
 2823ntf    fn415343   0.279   4.669   5.631  0.3402 -0.5986 -0.5341
 2823ntf    fn415344   0.105   4.732   5.525  0.0838  0.5512  0.4221
 2823ntf    fn415345   0.185   4.852   5.681 -0.0424 -0.2626 -0.1023
 2824ntf    cn115346   6.338   1.999   4.137 -0.2140 -0.2757 -0.2530
 2824ntf    sn215347   6.431   1.947   3.989  0.0309  0.0660 -0.2209
 2824ntf    nn315348   6.576   1.941   4.049 -0.0094 -0.4072 -0.1658
 2824ntf    sn215349   6.715   1.963   3.980  0.0057 -0.1719 -0.0619
 2824ntf    cn115350   6.770   1.792   3.948  0.1329 -0.2547  0.5978
 2824ntf    fn415351   6.369   1.922   4.239  0.4867  0.1006 -0.1789
 2824ntf    fn415352   6.369   2.121   4.177  0.1558 -0.4350 -0.0575
 2824ntf    fn415353   6.206   1.999   4.124 -0.2201 -0.2327 -0.1891
 2824ntf    on515354   6.377   1.816   3.962  0.0598  0.0353 -0.1314
 2824ntf    on515355   6.399   2.051   3.895 -0.2929  0.0612 -0.1198
 2824ntf    on515356   6.812   2.022   4.068 -0.0529 -0.2146  0.0303
 2824ntf    on515357   6.709   2.025   3.849  0.3524 -0.2736 -0.1286
 2824ntf    fn415358   6.681   1.721   3.881 -0.0887  0.5284  0.0509
 2824ntf    fn415359   6.883   1.782   3.880  0.0113  0.0178  0.3550
 2824ntf    fn415360   6.809   1.729   4.058  0.1591  0.1411  0.8202
 2825ntf    cn115361   0.091   4.169   5.323 -0.0087 -0.1685  0.3868
 2825ntf    sn215362   0.253   4.207   5.250 -0.1523 -0.0316  0.1377
 2825ntf    nn315363   0.219   4.205   5.096  0.0873 -0.2783  0.0871
 2825ntf    sn215364   0.206   4.335   5.009 -0.1209 -0.2708  0.1305
 2825ntf    cn115365   0.083   4.269   4.892 -0.0607  0.3343 -0.2773
 2825ntf    fn415366  -0.001   4.253   5.278  0.2367 -0.1852 -0.1514
 2825ntf    fn415367   0.051   4.044   5.302 -0.1053 -0.1008  0.1612
 2825ntf    fn415368   0.089   4.186   5.454  0.1402  0.2336  0.3381
 2825ntf    on515369   0.285   4.333   5.311 -0.4509  0.1663 -0.1079
 2825ntf    on515370   0.339   4.097   5.286 -0.0648  0.1781  0.5755
 2825ntf    on515371   0.327   4.345   4.933  0.1452 -0.0501  0.5812
 2825ntf    on515372   0.142   4.448   5.070  0.0475 -0.2418  0.2545
 2825ntf    fn415373   0.143   4.194   4.801  0.2032  0.3446 -0.1132
 2825ntf    fn415374  -0.010   4.196   4.951  0.1222 -0.1603 -0.5951
 2825ntf    fn415375   0.014   4.359   4.824 -0.8395 -0.0350  0.0073
 2826ntf    cn115376   5.941   2.091   3.185 -0.0738 -0.2198 -0.1747
 2826ntf    sn215377   5.980   2.152   3.018  0.0391  0.2347  0.0171
 2826ntf    nn315378   5.850   2.237   2.995 -0.0562  0.1598  0.2693
 2826ntf    sn215379   5.705   2.188   2.958 -0.0237  0.1744  0.1180
 2826ntf    cn115380   5.615   2.277   3.088 -0.4620 -0.2077  0.0775
 2826ntf    fn415381   6.034   2.003   3.221  0.3082  0.3853  0.3245
 2826ntf    fn415382   5.935   2.192   3.270  0.2087 -0.0758 -0.3247
 2826ntf    fn415383   5.833   2.015   3.196  0.1484 -0.4878  0.1978
 2826ntf    on515384   6.092   2.241   3.033  0.3158 -0.1522  0.2728
 2826ntf    on515385   5.995   2.040   2.928 -0.0575 -0.1091  0.4235
 2826ntf    on515386   5.689   2.046   2.982  0.0618  0.1637  0.1140
 2826ntf    on515387   5.660   2.249   2.836  0.0122  0.4637  0.2488
 2826ntf    fn415388   5.671   2.252   3.205  0.3977  0.4634 -0.1825
 2826ntf    fn415389   5.615   2.409   3.073 -0.3145 -0.1826  0.2916
 2826ntf    fn415390   5.488   2.241   3.098 -0.6231  0.3114 -0.0568
 2827ntf    cn115391   3.082   1.017   0.972 -0.1779 -0.1347 -0.1784
 2827ntf    sn215392   3.178   1.096   0.840  0.0860  0.0536  0.1241
 2827ntf    nn315393   3.128   1.015   0.715 -0.2341 -0.2651  0.4589
 2827ntf    sn215394   3.182   0.890   0.637 -0.1177  0.1912 -0.1964
 2827ntf    cn115395   3.028   0.833   0.559 -0.0809 -0.1256 -0.0413
 2827ntf    fn415396   3.105   0.887   0.976 -0.1969 -0.1321  0.0284
 2827ntf    fn415397   3.119   1.062   1.091 -0.3543  0.1202 -0.2182
 2827ntf    fn415398   2.950   1.028   0.966 -0.1170  0.3769 -0.5970
 2827ntf    on515399   3.135   1.233   0.848  0.4923  0.2042 -0.2150
 2827ntf    on515400   3.315   1.072   0.878  0.0728  0.1106  0.2078
 2827ntf    on515401   3.214   0.780   0.725 -0.0384  0.1186 -0.3160
 2827ntf    on515402   3.277   0.923   0.533  0.3913 -0.2352  0.1250
 2827ntf    fn415403   2.945   0.774   0.642  0.3500 -0.4747  0.1466
 2827ntf    fn415404   2.964   0.938   0.509 -0.0399 -0.1465 -0.1380
 2827ntf    fn415405   3.056   0.754   0.457 -0.2823 -0.3517  0.0808
 2828ntf    cn115406   1.903   5.280   1.565 -0.0289  0.0447  0.0577
 2828ntf    sn215407   1.817   5.404   1.665  0.0929  0.3382 -0.1983
 2828ntf    nn315408   1.813   5.516   1.556 -0.1652  0.2811 -0.2495
 2828ntf    sn215409   1.777   5.668   1.570  0.2526  0.3806 -0.2217
 2828ntf    cn115410   1.942   5.742   1.588  0.1953  0.5422 -0.3569
 2828ntf    fn415411   1.839   5.232   1.459  0.1967  0.0626 -0.0892
 2828ntf    fn415412   2.024   5.316   1.526  0.0780 -0.1669  0.1894
 2828ntf    fn415413   1.927   5.169   1.634 -0.0030 -0.1110 -0.1982
 2828ntf    on515414   1.692   5.342   1.701  0.3322 -0.0949 -0.1003
 2828ntf    on515415   1.906   5.426   1.776 -0.2949  0.0586  0.1726
 2828ntf    on515416   1.706   5.709   1.689 -0.1784  0.1181 -0.3858
 2828ntf    on515417   1.727   5.724   1.446 -0.0607  0.2848 -0.1407
 2828ntf    fn415418   2.002   5.703   1.699 -0.6244  0.7294  0.1577
 2828ntf    fn415419   2.021   5.714   1.486  0.0483  0.3806 -0.4277
 2828ntf    fn415420   1.943   5.874   1.596  0.8626  0.5184  0.0167
 2829ntf    cn115421   2.217   2.233   6.448  0.2558 -0.0580 -0.3906
 2829ntf    sn215422   2.114   2.220   6.298 -0.1229 -0.3322 -0.1066
 2829ntf    nn315423   2.017   2.343   6.317  0.5491  0.1550  0.2346
 2829ntf    sn215424   2.036   2.478   6.239 -0.2117 -0.1065 -0.4232
 2829ntf    cn115425   1.958   2.438   6.080 -0.7729 -0.1426 -0.1404
 2829ntf    fn415426   2.278   2.350   6.460 -0.1322  0.1854 -0.7423
 2829ntf    fn415427   2.138   2.230   6.553  0.0141 -0.4593 -0.5793
 2829ntf    fn415428   2.307   2.136   6.454  0.1078 -0.2119 -0.6357
 2829ntf    on515429   2.201   2.224   6.183  0.3554 -0.5866  0.2439
 2829ntf    on515430   2.037   2.099   6.311 -0.0189 -0.4155 -0.2683
 2829ntf    on515431   2.168   2.521   6.200 -0.2986  0.6582  0.0972
 2829ntf    on515432   1.948   2.581   6.287 -0.1714 -0.2959  0.0676
 2829ntf    fn415433   1.980   2.533   5.991 -0.7083  0.0480  0.0767
 2829ntf    fn415434   2.004   2.323   6.033 -0.0820 -0.2393  0.7401
 2829ntf    fn415435   1.829   2.418   6.099 -0.6639 -0.2321  0.5364
 2830ntf    cn115436   1.659   4.256   5.505 -0.2019 -0.4352  0.1632
 2830ntf    sn215437   1.796   4.338   5.592 -0.3190 -0.3958  0.3102
 2830ntf    nn315438   1.734   4.481   5.608 -0.4242 -0.3710 -0.3056
 2830ntf    sn215439   1.741   4.597   5.502  0.3335 -0.1383 -0.0141
 2830ntf    cn115440   1.692   4.737   5.606 -0.1765 -0.1717 -0.2061
 2830ntf    fn415441   1.599   4.336   5.419 -0.0678 -0.2058  0.2799
 2830ntf    fn415442   1.701   4.149   5.438 -0.0180 -0.4900  0.3627
 2830ntf    fn415443   1.566   4.217   5.590 -0.1889 -0.7700  0.0243
 2830ntf    on515444   1.801   4.265   5.717  0.4399  0.2580  0.6693
 2830ntf    on515445   1.909   4.319   5.505 -0.4899  0.6129 -0.1398
 2830ntf    on515446   1.639   4.605   5.400  0.2632  0.4792  0.1028
 2830ntf    on515447   1.874   4.641   5.470  0.1938  0.6820  0.5159
 2830ntf    fn415448   1.775   4.749   5.708 -0.2448 -0.1240 -0.1556
 2830ntf    fn415449   1.688   4.855   5.546  0.4920  0.0136  0.1068
 2830ntf    fn415450   1.569   4.733   5.656 -0.1122 -0.5235 -0.0781
 2831ntf    cn115451   5.327   6.148   5.978  0.3733 -0.1293  0.1237
 2831ntf    sn215452   5.174   6.051   5.988  0.2074  0.1237  0.0508
 2831ntf    nn315453   5.116   6.103   6.124 -0.3090  0.3316 -0.2459
 2831ntf    sn215454   4.976   6.069   6.186 -0.1249 -0.2171 -0.1225
 2831ntf    cn115455   4.979   6.172   6.336 -0.0987  0.0313 -0.2928
 2831ntf    fn415456   5.407   6.113   6.078  0.4981  0.1203  0.1124
 2831ntf    fn415457   5.404   6.116   5.875  0.3845  0.2614  0.0122
 2831ntf    fn415458   5.321   6.280   5.983 -0.0622 -0.1312 -0.3076
 2831ntf    on515459   5.101   6.093   5.871 -0.0435  0.2205  0.2435
 2831ntf    on515460   5.217   5.913   5.993  0.6560  0.2459 -0.3665
 2831ntf    on515461   4.960   5.931   6.226  0.2745 -0.3133 -0.2942
 2831ntf    on515462   4.873   6.127   6.103 -0.1752 -0.0443  0.0582
 2831ntf    fn415463   4.871   6.162   6.412 -0.3320 -0.0999 -0.6424
 2831ntf    fn415464   5.074   6.140   6.423 -0.1510 -0.0317 -0.2593
 2831ntf    fn415465   5.001   6.298   6.301  0.0432  0.0913  0.0087
 2832ntf    cn115466   3.505   3.408   2.792  0.1575 -0.3771  0.0483
 2832ntf    sn215467   3.511   3.320   2.634 -0.0628 -0.0816 -0.1253
 2832ntf    nn315468   3.366   3.259   2.620  0.0182 -0.2341 -0.3027
 2832ntf    sn215469   3.335   3.105   2.608 -0.0746 -0.2806  0.4816
 2832ntf    cn115470   3.156   3.125   2.583  0.0673  0.4342  0.0041
 2832ntf    fn415471   3.480   3.319   2.887  0.0248 -0.0644  0.3085
 2832ntf    fn415472   3.619   3.464   2.831 -0.1611  0.1745  0.2061
 2832ntf    fn415473   3.408   3.498   2.802 -0.1522 -0.6851 -0.1547
 2832ntf    on515474   3.524   3.430   2.542 -0.5034  0.2951  0.2607
 2832ntf    on515475   3.614   3.220   2.648  0.2581  0.2409 -0.1757
 2832ntf    on515476   3.351   3.041   2.736  0.7641 -0.3827  0.3292
 2832ntf    on515477   3.386   3.039   2.491 -0.4116 -0.0607  0.2060
 2832ntf    fn415478   3.099   3.188   2.685 -0.1987  0.1337  0.0435
 2832ntf    fn415479   3.126   3.199   2.478 -0.2330  0.0239 -0.2016
 2832ntf    fn415480   3.093   3.012   2.555 -0.5074  0.5992  0.6067
 2833ntf    cn115481   6.184   5.114   6.241  0.1882 -0.3312  0.0170
 2833ntf    sn215482   6.022   5.195   6.252  0.1785 -0.3613  0.0972
 2833ntf    nn315483   5.946   5.089   6.165  0.6336 -0.3005 -0.3811
 2833ntf    sn215484   5.878   5.090   6.023 -0.1001  0.0075 -0.0331
 2833ntf    cn115485   5.760   4.952   6.039  0.0553 -0.1257 -0.0346
 2833ntf    fn415486   6.228   5.111   6.117  0.2142  0.0013  0.0179
 2833ntf    fn415487   6.286   5.164   6.308  0.1537  0.0165 -0.1919
 2833ntf    fn415488   6.172   4.988   6.280  0.2574 -0.3595 -0.0536
 2833ntf    on515489   5.980   5.200   6.390  0.1393  0.1914  0.0704
 2833ntf    on515490   6.043   5.320   6.183 -0.0850  0.0709  0.7943
 2833ntf    on515491   5.972   5.035   5.930 -0.2096 -0.9450  0.4087
 2833ntf    on515492   5.804   5.209   5.987 -0.2035 -0.0503 -0.0146
 2833ntf    fn415493   5.821   4.845   6.087 -0.1573 -0.1662  0.1439
 2833ntf    fn415494   5.655   4.969   6.118  0.0971 -0.0872  0.0127
 2833ntf    fn415495   5.720   4.910   5.921 -0.4114  0.3997 -0.0679
 2834ntf    cn115496   2.027   6.100   2.975  0.1971  0.2369  0.1689
 2834ntf    sn215497   2.196   6.168   2.971  0.2029  0.2148  0.0323
 2834ntf    nn315498   2.177   6.311   2.909 -0.3949  0.1694  0.1038
 2834ntf    sn215499   2.274   6.403   2.826 -0.2142  0.0056  0.1336
 2834ntf    cn115500   2.236   6.356   2.655  0.4079  0.2383 -0.0712
 2834ntf    fn415501   1.979   6.092   2.852 -0.0909  0.0774  0.2909
 2834ntf    fn415502   2.011   5.981   3.031 -0.2103 -0.2542 -0.9821
 2834ntf    fn415503   1.934   6.174   3.034  0.1188  0.2639  0.0092
 2834ntf    on515504   2.225   6.174   3.113  0.4025  0.1629 -0.0064
 2834ntf    on515505   2.274   6.076   2.893 -0.2443  0.0546 -0.2296
 2834ntf    on515506   2.414   6.371   2.845 -0.2092 -0.1295 -0.1260
 2834ntf    on515507   2.245   6.543   2.843 -0.1473 -0.0247  0.5180
 2834ntf    fn415508   2.325   6.400   2.567  0.2072  0.4510 -0.1701
 2834ntf    fn415509   2.228   6.224   2.643 -0.2359  0.2615  0.0860
 2834ntf    fn415510   2.117   6.405   2.623 -0.0634 -0.7020  0.2138
 2835ntf    cn115511   6.710   2.847   0.009  0.1199  0.0400 -0.1713
 2835ntf    sn215512   6.838   2.839  -0.120  0.3632  0.4844  0.0379
 2835ntf    nn315513   6.933   2.956  -0.079  0.5901  0.4167 -0.2921
 2835ntf    sn215514   6.984   2.985   0.067 -0.1665 -0.0784  0.0729
 2835ntf    cn115515   7.157   2.928   0.066 -0.2151 -0.2262 -0.2120
 2835ntf    fn415516   6.596   2.808  -0.044  0.2421  0.1488 -0.5168
 2835ntf    fn415517   6.740   2.759   0.103  0.0898  0.3739  0.1526
 2835ntf    fn415518   6.687   2.969   0.056  0.3517 -0.1087  0.3443
 2835ntf    on515519   6.894   2.706  -0.113  0.1719  0.3841 -0.2915
 2835ntf    on515520   6.773   2.877  -0.243 -0.6897 -0.3603  0.3190
 2835ntf    on515521   6.928   2.905   0.173 -0.5659 -0.0027 -0.0792
 2835ntf    on515522   7.001   3.126   0.090  0.3187 -0.1446  0.1206
 2835ntf    fn415523   7.208   2.928   0.188 -0.1866 -0.0738 -0.2230
 2835ntf    fn415524   7.156   2.802   0.028  0.3839 -0.2803 -0.0507
 2835ntf    fn415525   7.245   2.988  -0.012 -0.0608 -0.1769  0.0002
 2836ntf    cn115526   4.389   1.189   5.700  0.1100 -0.6063  0.2975
 2836ntf    sn215527   4.474   1.325   5.785 -0.2657 -0.0325 -0.2316
 2836ntf    nn315528   4.400   1.443   5.713 -0.2563  0.0398 -0.1224
 2836ntf    sn215529   4.432   1.512   5.576 -0.0846  0.0595 -0.0730
 2836ntf    cn115530   4.267   1.491   5.503  0.0194  0.0048 -0.2936
 2836ntf    fn415531   4.402   1.179   5.569  0.7083 -0.0092  0.3108
 2836ntf    fn415532   4.434   1.075   5.749  0.3694 -0.5338  0.2276
 2836ntf    fn415533   4.259   1.189   5.727  0.1275  0.1863  0.4029
 2836ntf    on515534   4.443   1.309   5.925 -0.0811 -0.2787 -0.2176
 2836ntf    on515535   4.616   1.318   5.759 -0.1864  0.0891  0.1583
 2836ntf    on515536   4.529   1.442   5.496  0.1535  0.3224 -0.0159
 2836ntf    on515537   4.440   1.655   5.592  0.5104  0.0978 -0.6755
 2836ntf    fn415538   4.254   1.558   5.389 -0.0543 -0.3804 -0.5134
 2836ntf    fn415539   4.247   1.363   5.475  0.1034 -0.0520 -0.0958
 2836ntf    fn415540   4.167   1.525   5.584  0.4504  0.4274  0.0657
 2837ntf    cn115541   5.877   1.911   5.212  0.0948  0.2668 -0.1398
 2837ntf    sn215542   6.024   1.846   5.297 -0.2670 -0.3405  0.0250
 2837ntf    nn315543   6.098   1.977   5.343 -0.8193 -0.0580  0.1222
 2837ntf    sn215544   6.123   2.028   5.489  0.2748  0.3511 -0.2042
 2837ntf    cn115545   6.186   2.195   5.453  0.4773  0.2987 -0.0954
 2837ntf    fn415546   5.806   1.998   5.283 -0.2802 -0.1675  0.0253
 2837ntf    fn415547   5.912   1.982   5.106  0.2779  0.5017  0.0762
 2837ntf    fn415548   5.793   1.821   5.164  0.4816  0.1409 -0.5783
 2837ntf    on515549   5.980   1.763   5.406 -0.2278  0.2490  0.4955
 2837ntf    on515550   6.097   1.775   5.195 -0.0782 -0.2957  0.1293
 2837ntf    on515551   6.234   1.962   5.553 -0.0513  0.0560  0.0613
 2837ntf    on515552   6.006   2.044   5.572  0.7685 -0.3502  0.6450
 2837ntf    fn415553   6.313   2.210   5.417  0.5190  0.1516 -0.0096
 2837ntf    fn415554   6.125   2.248   5.348  0.1562 -0.1200 -0.1211
 2837ntf    fn415555   6.177   2.274   5.559 -0.6743  0.5389 -0.3634
 2838ntf    cn115556   3.268   0.501   5.355  0.1069 -0.1139  0.1764
 2838ntf    sn215557   3.171   0.470   5.205  0.1478 -0.1077  0.1489
 2838ntf    nn315558   3.294   0.441   5.111 -0.1027  0.3972 -0.3404
 2838ntf    sn215559   3.379   0.541   5.025  0.2602 -0.0483 -0.5041
 2838ntf    cn115560   3.302   0.515   4.863 -0.0283 -0.2184 -0.3402
 2838ntf    fn415561   3.320   0.623   5.358 -0.8125  0.2935 -0.1569
 2838ntf    fn415562   3.188   0.495   5.460 -0.1457  0.3304  0.0149
 2838ntf    fn415563   3.362   0.410   5.377 -0.1857 -0.3666  0.3851
 2838ntf    on515564   3.084   0.358   5.231  0.2527 -0.3156 -0.3772
 2838ntf    on515565   3.105   0.592   5.165  0.6074  0.0815 -0.0443
 2838ntf    on515566   3.512   0.486   5.008  0.0894 -0.5710 -0.1666
 2838ntf    on515567   3.376   0.680   5.062  0.0546 -0.1596 -0.0935
 2838ntf    fn415568   3.348   0.596   4.768  0.3208 -0.1454 -0.1089
 2838ntf    fn415569   3.332   0.397   4.813  0.6475 -0.4288  0.5384
 2838ntf    fn415570   3.171   0.537   4.867  0.0161 -0.0127  0.0159
 2839ntf    cn115571   3.202   6.161   2.758  0.1341 -0.1023  0.0651
 2839ntf    sn215572   3.220   6.271   2.902 -0.1815 -0.1022  0.1045
 2839ntf    nn315573   3.276   6.165   3.002 -0.1632 -0.0176  0.1836
 2839ntf    sn215574   3.204   6.088   3.119  0.0646 -0.2625  0.1651
 2839ntf    cn115575   3.247   6.199   3.256  0.4315  0.2056 -0.3266
 2839ntf    fn415576   3.138   6.214   2.656  0.1002 -0.1270  0.0736
 2839ntf    fn415577   3.320   6.128   2.709  0.1882 -0.0283  0.1443
 2839ntf    fn415578   3.128   6.053   2.780 -0.2592  0.1099 -0.2136
 2839ntf    on515579   3.312   6.365   2.842  0.2398 -0.7772 -0.3208
 2839ntf    on515580   3.083   6.317   2.907 -0.0359  0.4246 -0.4840
 2839ntf    on515581   3.270   5.965   3.156 -0.2741 -0.6781 -0.5896
 2839ntf    on515582   3.060   6.089   3.126  0.0759 -0.0641  0.3937
 2839ntf    fn415583   3.264   6.327   3.226 -0.1787  0.5115  0.5877
 2839ntf    fn415584   3.166   6.185   3.359  0.2426 -0.0122 -0.5062
 2839ntf    fn415585   3.368   6.165   3.297  0.1907 -0.1618  0.0866
 2840ntf    cn115586   6.758   5.084   5.227 -0.0439 -0.1687  0.1627
 2840ntf    sn215587   6.724   4.970   5.365 -0.4730 -0.0285  0.1759
 2840ntf    nn315588   6.725   4.827   5.299 -0.0712  0.0379  0.0347
 2840ntf    sn215589   6.852   4.739   5.270 -0.1943 -0.1008 -0.0847
 2840ntf    cn115590   6.866   4.643   5.424  0.0715  0.1007  0.0161
 2840ntf    fn415591   6.665   5.072   5.134 -0.0796  0.1659  0.1563
 2840ntf    fn415592   6.766   5.210   5.267 -0.0554 -0.1209  0.0161
 2840ntf    fn415593   6.878   5.058   5.177 -0.0925 -0.2186  0.0718
 2840ntf    on515594   6.824   4.994   5.466 -0.3263  0.1819 -0.0174
 2840ntf    on515595   6.588   5.004   5.397 -0.4881  0.2842 -0.2059
 2840ntf    on515596   6.974   4.814   5.253 -0.0440 -0.1651  0.6907
 2840ntf    on515597   6.834   4.636   5.171  0.0954  0.0479 -0.2952
 2840ntf    fn415598   6.750   4.584   5.445 -0.1221  0.4494 -0.0599
 2840ntf    fn415599   6.954   4.548   5.396 -0.0406  0.0401 -0.1359
 2840ntf    fn415600   6.905   4.718   5.526  0.3782 -0.0939  0.0438
 2841ntf    cn115601   2.430   6.439   0.220  0.0436  0.2769 -0.5663
 2841ntf    sn215602   2.563   6.500   0.111  0.5332  0.0430 -0.0996
 2841ntf    nn315603   2.516   6.439  -0.025 -0.5264  0.5100  0.0483
 2841ntf    sn215604   2.523   6.493  -0.172 -0.2701  0.2000 -0.0552
 2841ntf    cn115605   2.496   6.346  -0.276  0.2144  0.0366  0.0484
 2841ntf    fn415606   2.312   6.461   0.163 -0.2236 -0.3681 -0.2603
 2841ntf    fn415607   2.436   6.309   0.239 -0.4170  0.4213  0.6348
 2841ntf    fn415608   2.432   6.488   0.343  0.3429  0.2859 -0.5727
 2841ntf    on515609   2.551   6.643   0.123  0.2201  0.0260 -0.2192
 2841ntf    on515610   2.681   6.440   0.168  0.3416 -0.6292 -0.4009
 2841ntf    on515611   2.650   6.545  -0.216 -0.2472  0.0364 -0.1870
 2841ntf    on515612   2.406   6.572  -0.201 -0.3461  0.0811 -0.0736
 2841ntf    fn415613   2.577   6.247  -0.245  0.0113 -0.2341 -0.2785
 2841ntf    fn415614   2.375   6.293  -0.270  0.0487  0.4489  0.3960
 2841ntf    fn415615   2.518   6.370  -0.404  0.2330  0.5076  0.1381
 2842ntf    cn115616   6.393   4.057   3.221  0.0083 -0.2415 -0.0798
 2842ntf    sn215617   6.323   3.889   3.217 -0.1829 -0.1733  0.3680
 2842ntf    nn315618   6.172   3.923   3.191 -0.0577  0.2442  0.1673
 2842ntf    sn215619   6.060   3.920   3.301 -0.0824 -0.2988  0.1289
 2842ntf    cn115620   5.970   4.074   3.268  0.0987 -0.1802  0.1885
 2842ntf    fn415621   6.343   4.126   3.322  0.4128  0.2853 -0.2331
 2842ntf    fn415622   6.524   4.066   3.239 -0.0434 -0.2176  0.2849
 2842ntf    fn415623   6.371   4.128   3.112 -0.1583 -0.0373  0.0871
 2842ntf    on515624   6.374   3.833   3.094 -0.1960 -0.1486  0.3517
 2842ntf    on515625   6.363   3.817   3.336 -0.1741  0.0729  0.5143
 2842ntf    on515626   6.101   3.935   3.438 -0.3347  0.0392  0.1658
 2842ntf    on515627   5.959   3.820   3.270 -0.7607  0.5691 -0.5142
 2842ntf    fn415628   5.884   4.098   3.365 -0.6005  0.1887 -0.5067
 2842ntf    fn415629   6.048   4.179   3.285 -0.8503  0.4807  0.5619
 2842ntf    fn415630   5.900   4.073   3.155  0.6388 -0.5328 -0.1515
 2843ntf    cn115631   6.245   4.019   1.717  0.0660  0.2248  0.3824
 2843ntf    sn215632   6.309   3.885   1.612  0.1042  0.2285  0.4009
 2843ntf    nn315633   6.184   3.866   1.519  0.1946 -0.0836  0.3432
 2843ntf    sn215634   6.054   3.781   1.543  0.1979 -0.1634  0.0775
 2843ntf    cn115635   6.102   3.642   1.436  0.0233  0.1181 -0.3690
 2843ntf    fn415636   6.144   3.974   1.789  0.1839 -0.2447  0.2565
 2843ntf    fn415637   6.341   4.057   1.799  0.1425  0.1304  0.3365
 2843ntf    fn415638   6.212   4.126   1.646 -0.4402 -0.0428  0.2130
 2843ntf    on515639   6.412   3.954   1.539  0.3215 -0.4440  0.0677
 2843ntf    on515640   6.353   3.786   1.707 -0.4358 -0.2540  0.1576
 2843ntf    on515641   5.941   3.846   1.480  0.3813  0.3138  0.2378
 2843ntf    on515642   6.019   3.731   1.673  0.2355 -0.2427  0.0572
 2843ntf    fn415643   6.011   3.549   1.415 -0.0390 -0.0658  0.6950
 2843ntf    fn415644   6.155   3.674   1.319  0.3062  0.1236 -0.2401
 2843ntf    fn415645   6.203   3.582   1.497 -0.4423 -0.2644  0.0245
 2844ntf    cn115646   6.039   1.349   1.287  0.6541  0.2884  0.0759
 2844ntf    sn215647   6.029   1.430   1.125 -0.1485  0.0615  0.0049
 2844ntf    nn315648   6.047   1.303   1.034  0.3817 -0.0525  0.2620
 2844ntf    sn215649   6.174   1.226   0.984  0.2501 -0.1788  0.1227
 2844ntf    cn115650   6.186   1.305   0.821 -0.2207 -0.3164  0.0177
 2844ntf    fn415651   5.932   1.273   1.308  0.6022  0.2123 -0.4656
 2844ntf    fn415652   6.140   1.265   1.296  0.1319 -0.3616 -0.0539
 2844ntf    fn415653   6.028   1.435   1.388 -0.0762  0.5828 -0.2484
 2844ntf    on515654   5.896   1.485   1.123 -0.2705 -0.2125  0.3620
 2844ntf    on515655   6.145   1.516   1.118  0.1839 -0.3190  0.7449
 2844ntf    on515656   6.156   1.089   0.943  0.5340 -0.0824 -0.3221
 2844ntf    on515657   6.302   1.264   1.039  0.0743  0.3370  0.1789
 2844ntf    fn415658   6.234   1.428   0.829  0.1074 -0.4172 -0.3717
 2844ntf    fn415659   6.274   1.244   0.743  0.1511  0.0535  0.1392
 2844ntf    fn415660   6.071   1.308   0.756 -0.3660 -0.3462  0.2718
 2845ntf    cn115661   1.276   3.401   5.834 -0.2880  0.0039 -0.1379
 2845ntf    sn215662   1.352   3.560   5.878  0.2815 -0.2772 -0.0973
 2845ntf    nn315663   1.256   3.625   5.984  0.6091 -0.0345  0.0547
 2845ntf    sn215664   1.276   3.679   6.130 -0.0787 -0.0373  0.1544
 2845ntf    cn115665   1.116   3.632   6.202 -0.4753  0.4426 -0.4071
 2845ntf    fn415666   1.358   3.322   5.766  0.1878  0.0056  0.4248
 2845ntf    fn415667   1.236   3.335   5.941  0.0435 -0.1840 -0.1273
 2845ntf    fn415668   1.167   3.408   5.760  0.1122 -0.2936 -0.7649
 2845ntf    on515669   1.479   3.514   5.931  0.3469 -0.5650 -0.5015
 2845ntf    on515670   1.353   3.634   5.754  0.3219  0.3410  0.2673
 2845ntf    on515671   1.289   3.821   6.148 -0.1870  0.0031 -0.0864
 2845ntf    on515672   1.365   3.593   6.205 -0.1477 -0.5071 -0.2903
 2845ntf    fn415673   1.129   3.626   6.333 -0.6605 -0.1878 -0.4122
 2845ntf    fn415674   1.019   3.714   6.167 -0.8929  0.3996  0.6215
 2845ntf    fn415675   1.080   3.507   6.175  0.1960  0.1517  0.0283
 2846ntf    cn115676   5.128   5.166   0.583  0.1253  0.1683 -0.1160
 2846ntf    sn215677   5.278   5.066   0.613 -0.1781 -0.2730 -0.0626
 2846ntf    nn315678   5.328   5.119   0.752  0.5772 -0.5599 -0.2206
 2846ntf    sn215679   5.317   5.054   0.895 -0.0088 -0.0595 -0.0321
 2846ntf    cn115680   5.304   5.203   0.999  0.3751  0.2123 -0.3655
 2846ntf    fn415681   5.029   5.139   0.666  0.0500 -0.0187 -0.2646
 2846ntf    fn415682   5.147   5.294   0.610 -0.5507  0.3655 -0.5569
 2846ntf    fn415683   5.083   5.159   0.459  0.1294  0.3260 -0.1264
 2846ntf    on515684   5.230   4.930   0.615 -0.5627 -0.1317  0.6863
 2846ntf    on515685   5.368   5.107   0.508  0.3686 -0.0519  0.4903
 2846ntf    on515686   5.439   4.991   0.939  0.1485 -0.0230 -0.4087
 2846ntf    on515687   5.188   4.993   0.914  0.1204 -0.4958 -0.5239
 2846ntf    fn415688   5.318   5.189   1.130  0.0748 -0.4676 -0.3992
 2846ntf    fn415689   5.389   5.298   0.963  0.2067  0.2934 -0.5505
 2846ntf    fn415690   5.183   5.255   0.986  0.1718  0.0195  0.6325
 2847ntf    cn115691   1.631   6.181   2.757 -0.1511 -0.0269 -0.0980
 2847ntf    sn215692   1.460   6.170   2.816 -0.1478  0.1743 -0.0503
 2847ntf    nn315693   1.395   6.125   2.680  0.6202 -0.1920 -0.3006
 2847ntf    sn215694   1.354   6.222   2.564  0.1648 -0.3023 -0.2342
 2847ntf    cn115695   1.427   6.121   2.431  0.3719 -0.4619  0.0017
 2847ntf    fn415696   1.706   6.254   2.838  0.1167  0.1140 -0.4692
 2847ntf    fn415697   1.697   6.067   2.756 -0.2707 -0.1020  0.5233
 2847ntf    fn415698   1.642   6.240   2.638  0.1753  0.1211  0.0028
 2847ntf    on515699   1.474   6.063   2.911 -0.0105  0.6354  0.4566
 2847ntf    on515700   1.428   6.301   2.866 -0.0362  0.2323 -0.1297
 2847ntf    on515701   1.431   6.344   2.557 -0.3102  0.0262  0.2238
 2847ntf    on515702   1.215   6.227   2.526  0.1892 -0.1269 -0.3032
 2847ntf    fn415703   1.444   6.185   2.317 -0.0724  0.0582  0.2221
 2847ntf    fn415704   1.551   6.091   2.468  0.6335  0.0484 -0.4501
 2847ntf    fn415705   1.358   6.011   2.408 -0.6471  0.1591  0.0360
 2848ntf    cn115706   2.403   2.403   0.892 -0.3763  0.2813 -0.3102
 2848ntf    sn215707   2.563   2.327   0.849 -0.4703  0.0066 -0.1768
 2848ntf    nn315708   2.640   2.368   0.979 -1.0018  0.0947  0.1119
 2848ntf    sn215709   2.645   2.299   1.120 -0.3019 -0.1124 -0.0133
 2848ntf    cn115710   2.821   2.256   1.135 -0.2566  0.0814  0.0172
 2848ntf    fn415711   2.337   2.325   0.976 -0.6757  0.3206 -0.5069
 2848ntf    fn415712   2.417   2.517   0.957 -0.9243  0.0327  0.2544
 2848ntf    fn415713   2.325   2.415   0.786 -0.0035  0.0355 -0.6160
 2848ntf    on515714   2.541   2.185   0.833 -0.0324 -0.0880  0.0459
 2848ntf    on515715   2.591   2.403   0.730 -0.3405 -0.1077 -0.2189
 2848ntf    on515716   2.582   2.170   1.132  0.0865 -0.2284  0.8277
 2848ntf    on515717   2.624   2.397   1.224 -0.1458 -0.1223  0.0292
 2848ntf    fn415718   2.850   2.163   1.045 -0.3216  0.5430 -0.4895
 2848ntf    fn415719   2.902   2.357   1.107 -0.2583 -0.0028 -0.2957
 2848ntf    fn415720   2.849   2.214   1.257  0.6391 -0.5532 -0.3918
 2849ntf    cn115721   0.898   4.021   6.677 -0.3496 -0.1447  0.0715
 2849ntf    sn215722   0.737   3.978   6.752 -0.1377 -0.0153  0.6061
 2849ntf    nn315723   0.704   4.101   6.845 -0.0530  0.3596  0.1464
 2849ntf    sn215724   0.600   4.217   6.831 -0.0307  0.3354 -0.2298
 2849ntf    cn115725   0.708   4.363   6.819 -0.1055  0.3953 -0.1716
 2849ntf    fn415726   0.928   3.951   6.569 -0.1505 -0.0483  0.0647
 2849ntf    fn415727   0.903   4.146   6.637 -0.5831  0.0256  0.5601
 2849ntf    fn415728   0.999   4.012   6.763 -0.3492 -0.2723  0.0578
 2849ntf    on515729   0.654   3.963   6.635  0.2545 -0.1499  0.3436
 2849ntf    on515730   0.778   3.853   6.810  0.7454 -0.1430 -0.2507
 2849ntf    on515731   0.534   4.236   6.957 -0.0320  0.2895 -0.2232
 2849ntf    on515732   0.523   4.233   6.710  0.0904  0.4969 -0.2863
 2849ntf    fn415733   0.775   4.384   6.932  0.0537  0.7289 -0.3254
 2849ntf    fn415734   0.798   4.343   6.725 -0.4178 -0.0974 -0.3719
 2849ntf    fn415735   0.645   4.478   6.802 -0.0241  0.4528 -0.0895
 2850ntf    cn115736   3.860   2.680   6.154  0.1423 -0.3425  0.0360
 2850ntf    sn215737   3.808   2.849   6.111  0.3673 -0.2601  0.0865
 2850ntf    nn315738   3.947   2.908   6.067  0.3398  0.1200  0.5032
 2850ntf    sn215739   4.054   2.965   6.167  0.6981 -0.0753  0.2350
 2850ntf    cn115740   3.999   3.129   6.223  0.0365 -0.1636 -0.1466
 2850ntf    fn415741   3.948   2.627   6.070  0.5100 -0.0562  0.2392
 2850ntf    fn415742   3.894   2.670   6.281 -0.2823 -0.0622  0.1727
 2850ntf    fn415743   3.760   2.595   6.141 -0.3545  0.2163  0.1479
 2850ntf    on515744   3.722   2.832   5.996  0.4027 -0.4792  0.0916
 2850ntf    on515745   3.750   2.916   6.225 -0.2699 -0.4634 -0.1140
 2850ntf    on515746   4.180   2.995   6.104  0.2807 -0.2474 -0.7040
 2850ntf    on515747   4.060   2.877   6.281 -0.0352 -0.4115  0.0272
 2850ntf    fn415748   3.871   3.133   6.257  0.0150  0.3870 -0.2816
 2850ntf    fn415749   4.070   3.156   6.331 -0.3468 -0.5721  0.2129
 2850ntf    fn415750   4.019   3.224   6.133  0.1015  0.0937  0.1395
 2851ntf    cn115751   2.087   0.261   1.883  0.1699  0.1318 -0.3760
 2851ntf    sn215752   2.268   0.247   1.888  0.1535  0.0231 -0.0170
 2851ntf    nn315753   2.307   0.239   1.736  0.1467 -0.2023 -0.0070
 2851ntf    sn215754   2.360   0.353   1.641  0.6305 -0.4479 -0.0370
 2851ntf    cn115755   2.536   0.362   1.684  0.5614  0.6083  0.0481
 2851ntf    fn415756   2.038   0.161   1.811  0.1103 -0.3402  0.3072
 2851ntf    fn415757   2.027   0.255   2.001  0.1429 -0.1423 -0.4015
 2851ntf    fn415758   2.048   0.375   1.830  0.0676  0.0444 -0.4888
 2851ntf    on515759   2.312   0.367   1.955 -0.3721  0.3649 -0.2791
 2851ntf    on515760   2.286   0.121   1.957  0.3678 -0.4420 -0.9080
 2851ntf    on515761   2.302   0.480   1.679  0.5689 -0.6005  0.3939
 2851ntf    on515762   2.351   0.314   1.503  0.0345 -0.0790 -0.1061
 2851ntf    fn415763   2.614   0.449   1.621  0.5216  0.7973  0.2569
 2851ntf    fn415764   2.556   0.384   1.813  0.0017 -0.3833  0.3162
 2851ntf    fn415765   2.587   0.241   1.665 -0.4300  0.2225 -0.2349
 2852ntf    cn115766   4.611   0.071   5.312 -0.0693 -0.3138 -0.0320
 2852ntf    sn215767   4.433   0.033   5.301 -0.1436 -0.0734  0.2836
 2852ntf    nn315768   4.372   0.150   5.385  0.2348  0.1609  0.2359
 2852ntf    sn215769   4.237   0.225   5.354  0.0258 -0.3963 -0.2233
 2852ntf    cn115770   4.289   0.368   5.255 -0.0240 -0.0009  0.3130
 2852ntf    fn415771   4.644   0.081   5.440 -0.0916  0.1800 -0.0644
 2852ntf    fn415772   4.693  -0.015   5.255  0.0875  0.3271 -0.7931
 2852ntf    fn415773   4.644   0.185   5.254 -0.5174 -0.2478 -0.1647
 2852ntf    on515774   4.402   0.039   5.160 -0.2373 -0.3299  0.2920
 2852ntf    on515775   4.437  -0.095   5.367  0.2048 -0.2789 -0.1231
 2852ntf    on515776   4.176   0.287   5.470  0.4815  0.1252 -0.2597
 2852ntf    on515777   4.152   0.147   5.267 -0.0626 -0.4184 -0.1180
 2852ntf    fn415778   4.185   0.412   5.187  0.2871  0.2669  0.0084
 2852ntf    fn415779   4.341   0.462   5.331  0.3698  0.2063 -0.2040
 2852ntf    fn415780   4.392   0.333   5.179 -0.2489 -0.3396  0.1568
 2853ntf    cn115781   0.343   5.809   5.046  0.1503  0.3133 -0.1939
 2853ntf    sn215782   0.249   5.952   5.107  0.1472  0.1518  0.1788
 2853ntf    nn315783   0.271   5.928   5.261 -0.3744 -0.3416  0.1814
 2853ntf    sn215784   0.192   5.994   5.380 -0.2742  0.1389 -0.0139
 2853ntf    cn115785   0.320   6.087   5.469 -0.1264 -0.1966  0.1269
 2853ntf    fn415786   0.460   5.801   5.107  0.1927 -0.6333 -0.3840
 2853ntf    fn415787   0.272   5.697   5.052  0.5563  0.0610 -0.0433
 2853ntf    fn415788   0.384   5.831   4.922  0.3915  0.1784 -0.1387
 2853ntf    on515789   0.319   6.068   5.059  0.2339  0.0841  0.1420
 2853ntf    on515790   0.117   5.930   5.053  0.3673  0.2658 -0.4103
 2853ntf    on515791   0.150   5.899   5.480 -0.2034 -0.1760 -0.2838
 2853ntf    on515792   0.094   6.093   5.342  0.1355  0.6955  0.3568
 2853ntf    fn415793   0.411   6.005   5.520 -0.0038 -0.0179  0.2001
 2853ntf    fn415794   0.386   6.169   5.388 -0.0021 -0.5082 -0.0878
 2853ntf    fn415795   0.278   6.163   5.569  0.2479  0.2504 -0.0500
 2854ntf    cn115796   6.818   5.853   1.256  0.3255  0.1514 -0.6473
 2854ntf    sn215797   6.720   5.745   1.148 -0.0628 -0.0443 -0.1027
 2854ntf    nn315798   6.819   5.624   1.134 -0.4815 -0.3745 -0.2343
 2854ntf    sn215799   6.923   5.595   1.020  0.0109  0.3190  0.0341
 2854ntf    cn115800   6.823   5.484   0.916  0.7156 -0.4759  0.1957
 2854ntf    fn415801   6.817   5.809   1.381  0.1460  0.4959 -0.5254
 2854ntf    fn415802   6.946   5.857   1.225  0.4881 -0.1019 -0.0408
 2854ntf    fn415803   6.771   5.977   1.256 -0.3180 -0.0850  0.0049
 2854ntf    on515804   6.606   5.710   1.230 -0.0799 -0.0015 -0.1071
 2854ntf    on515805   6.695   5.829   1.034  0.7462 -0.0218 -0.2657
 2854ntf    on515806   7.028   5.512   1.072 -0.5213  0.2086  0.9725
 2854ntf    on515807   6.957   5.707   0.936  0.4255 -0.1717 -0.4540
 2854ntf    fn415808   6.697   5.525   0.905  0.8084 -0.1222  0.4132
 2854ntf    fn415809   6.861   5.478   0.790  0.3150  0.3992  0.0247
 2854ntf    fn415810   6.819   5.358   0.957 -0.6555 -0.4021  0.3528
 2855ntf    cn115811   6.603   6.420   1.341  0.0678  0.4818 -0.2157
 2855ntf    sn215812   6.458   6.525   1.374 -0.0853  0.2435 -0.1321
 2855ntf    nn315813   6.525   6.666   1.382 -0.3269  0.3649 -0.2644
 2855ntf    sn215814   6.458   6.800   1.432 -0.1670  0.4063 -0.1618
 2855ntf    cn115815   6.460   6.897   1.279  0.0124  0.4808 -0.1132
 2855ntf    fn415816   6.694   6.426   1.437 -0.3136 -0.0139  0.1825
 2855ntf    fn415817   6.580   6.290   1.343  0.0231  0.4843 -0.5655
 2855ntf    fn415818   6.663   6.446   1.226  0.4042 -0.4776 -0.2637
 2855ntf    on515819   6.380   6.507   1.254 -0.0214  0.4087 -0.1981
 2855ntf    on515820   6.398   6.482   1.498  0.0540 -0.3252 -0.2572
 2855ntf    on515821   6.546   6.869   1.523 -0.0601  0.2281 -0.1278
 2855ntf    on515822   6.321   6.793   1.476 -0.0780 -0.0084  0.0591
 2855ntf    fn415823   6.402   7.016   1.288 -0.4131  0.2619  0.0832
 2855ntf    fn415824   6.586   6.918   1.247  0.0912 -0.2130 -0.2901
 2855ntf    fn415825   6.403   6.828   1.181  1.0379  0.2001 -0.5233
 2856ntf    cn115826   0.586   1.219   2.032 -0.1322 -0.3793 -0.4780
 2856ntf    sn215827   0.755   1.218   2.098 -0.3042 -0.0676 -0.0316
 2856ntf    nn315828   0.829   1.281   1.975 -0.7263 -0.3051 -0.4106
 2856ntf    sn215829   0.862   1.433   1.955 -0.1766 -0.3600  0.0478
 2856ntf    cn115830   0.881   1.438   1.775  0.0298 -0.2501  0.0723
 2856ntf    fn415831   0.547   1.341   1.997 -0.3774 -0.4838 -0.5694
 2856ntf    fn415832   0.577   1.156   1.915  0.0923 -0.3385 -0.5174
 2856ntf    fn415833   0.493   1.172   2.114  0.1845 -0.5272 -0.2012
 2856ntf    on515834   0.752   1.295   2.220 -0.0557 -0.0676 -0.0250
 2856ntf    on515835   0.784   1.078   2.116  0.2722  0.0655  0.1146
 2856ntf    on515836   0.994   1.469   2.002 -0.0114  0.2344 -0.8460
 2856ntf    on515837   0.759   1.531   1.982  0.5014  0.2924  0.3052
 2856ntf    fn415838   0.985   1.371   1.727 -0.0749 -0.2030 -0.2232
 2856ntf    fn415839   0.771   1.398   1.713  0.2880 -0.1562 -0.4534
 2856ntf    fn415840   0.911   1.559   1.731 -0.0362 -0.2670 -0.0208
 2857ntf    cn115841   0.158   4.627   0.546  0.0200  0.4148  0.4064
 2857ntf    sn215842   0.202   4.707   0.703  0.3275  0.0237  0.5212
 2857ntf    nn315843   0.195   4.591   0.808  0.4514 -0.4980 -0.0433
 2857ntf    sn215844   0.225   4.590   0.962  0.2190 -0.0165  0.0048
 2857ntf    cn115845   0.056   4.567   1.023  0.0840  0.1453 -0.3055
 2857ntf    fn415846   0.053   4.548   0.565 -0.3744  0.7822 -0.2105
 2857ntf    fn415847   0.123   4.709   0.448  0.0069 -0.1114 -0.0354
 2857ntf    fn415848   0.251   4.548   0.495 -0.3627  0.3882 -0.2582
 2857ntf    on515849   0.334   4.757   0.672  0.0993  0.2455 -0.1119
 2857ntf    on515850   0.092   4.799   0.712 -0.0323 -0.3478 -0.0068
 2857ntf    on515851   0.259   4.721   1.013  0.6023  0.0022 -0.2852
 2857ntf    on515852   0.298   4.474   1.007  0.0056 -0.1048  0.1199
 2857ntf    fn415853  -0.035   4.627   0.948 -0.1157  0.1002 -0.0985
 2857ntf    fn415854   0.018   4.440   1.023  0.0807  0.1461 -0.0923
 2857ntf    fn415855   0.031   4.615   1.143  0.1815 -0.0194 -0.2185
 2858ntf    cn115856   4.789   3.526   5.141  0.2239 -0.1360  0.2680
 2858ntf    sn215857   4.912   3.393   5.151  0.1005 -0.2623  0.1079
 2858ntf    nn315858   4.856   3.270   5.069  0.3133 -0.1685 -0.1774
 2858ntf    sn215859   4.891   3.233   4.921  0.0140 -0.0528 -0.2772
 2858ntf    cn115860   5.044   3.137   4.943 -0.1065 -0.1723  0.0429
 2858ntf    fn415861   4.670   3.498   5.192 -0.1187  0.0246 -0.4281
 2858ntf    fn415862   4.825   3.638   5.201  0.3471 -0.1368  0.1959
 2858ntf    fn415863   4.774   3.569   5.017 -0.7446  0.3418  0.5371
 2858ntf    on515864   5.038   3.451   5.112 -0.3124  0.3011 -0.4026
 2858ntf    on515865   4.895   3.369   5.292  0.1921 -0.2579  0.1194
 2858ntf    on515866   4.913   3.347   4.836  0.3349 -0.0721 -0.2199
 2858ntf    on515867   4.799   3.130   4.878 -0.4694 -0.0123  0.6432
 2858ntf    fn415868   5.120   3.178   5.043  0.1064  0.1870 -0.2651
 2858ntf    fn415869   5.005   3.016   4.982 -0.2306 -0.0700  0.2441
 2858ntf    fn415870   5.120   3.121   4.836  0.2525  0.5853  0.1791
 2859ntf    cn115871   0.506   1.805   0.439 -0.5139  0.2663 -0.6985
 2859ntf    sn215872   0.473   1.780   0.616  0.1045  0.0490 -0.6102
 2859ntf    nn315873   0.405   1.918   0.647 -0.1777 -0.2753  0.2336
 2859ntf    sn215874   0.255   1.964   0.647 -0.1428 -0.1607  0.0164
 2859ntf    cn115875   0.202   1.950   0.820  0.0662 -0.4701  0.0569
 2859ntf    fn415876   0.577   1.712   0.377  0.0162  0.0830  0.1678
 2859ntf    fn415877   0.394   1.807   0.369 -0.3163  0.3107 -1.0160
 2859ntf    fn415878   0.566   1.922   0.419 -0.0333  0.1652  0.1271
 2859ntf    on515879   0.391   1.662   0.620  0.0354  0.1303  0.4844
 2859ntf    on515880   0.607   1.767   0.668 -0.0909  0.3207 -0.0375
 2859ntf    on515881   0.162   1.879   0.575 -0.0296 -0.5271  0.3010
 2859ntf    on515882   0.253   2.106   0.622  0.0736 -0.0280  0.7507
 2859ntf    fn415883   0.212   1.826   0.864 -0.4240 -0.6022 -0.1925
 2859ntf    fn415884   0.278   2.033   0.890 -0.5036  0.2771 -0.2014
 2859ntf    fn415885   0.077   1.992   0.836  0.3428  0.3421  0.1067
 2860ntf    cn115886   1.444   6.552   1.657 -0.0237  0.1883  0.0337
 2860ntf    sn215887   1.353   6.454   1.781  0.0729 -0.2891 -0.2703
 2860ntf    nn315888   1.468   6.413   1.880  0.0775  0.5376  0.0692
 2860ntf    sn215889   1.550   6.280   1.873 -0.1914  0.3738  0.0282
 2860ntf    cn115890   1.438   6.179   1.974 -0.0886  0.0722 -0.1591
 2860ntf    fn415891   1.381   6.558   1.540  0.0718 -0.0860 -0.0324
 2860ntf    fn415892   1.465   6.674   1.704 -0.0647  0.1672  0.1065
 2860ntf    fn415893   1.559   6.494   1.629 -0.1964 -0.4345  0.5976
 2860ntf    on515894   1.269   6.557   1.836 -0.0240 -0.7597  0.4700
 2860ntf    on515895   1.291   6.346   1.709  0.0165 -0.7847  0.5181
 2860ntf    on515896   1.670   6.289   1.952  0.0473  0.1539 -0.3023
 2860ntf    on515897   1.556   6.209   1.748 -0.0283  0.2525  0.1052
 2860ntf    fn415898   1.485   6.058   2.002  0.5995  0.3035 -0.2991
 2860ntf    fn415899   1.402   6.235   2.088 -0.5312  0.0019 -0.2609
 2860ntf    fn415900   1.332   6.153   1.898  0.1421 -0.0746 -0.4361
 2861ntf    cn115901   4.630   5.157   2.201  0.1595 -0.1963  0.4173
 2861ntf    sn215902   4.524   5.133   2.055 -0.2726  0.1970  0.6635
 2861ntf    nn315903   4.563   4.984   2.029  0.2872  0.4729 -0.1280
 2861ntf    sn215904   4.581   4.901   1.897 -0.1012  0.0634  0.0752
 2861ntf    cn115905   4.752   4.947   1.857  0.0580 -0.3038  0.3222
 2861ntf    fn415906   4.631   5.278   2.255  0.3397 -0.1486  0.3111
 2861ntf    fn415907   4.598   5.077   2.301  0.3000 -0.4427  0.2651
 2861ntf    fn415908   4.756   5.125   2.173  0.1767  0.7457 -0.6501
 2861ntf    on515909   4.391   5.151   2.106 -0.4160 -0.0327  0.3668
 2861ntf    on515910   4.570   5.235   1.963 -0.5669 -0.2000  0.0705
 2861ntf    on515911   4.516   4.947   1.776  0.2475  0.3569 -0.0007
 2861ntf    on515912   4.580   4.757   1.913 -0.0160  0.0385 -0.1316
 2861ntf    fn415913   4.775   5.074   1.888 -0.3117 -0.1523 -0.0064
 2861ntf    fn415914   4.838   4.884   1.934  0.5503  0.4469  0.3915
 2861ntf    fn415915   4.794   4.925   1.733  0.3870  0.4737  0.2898
 2862ntf    cn115916   0.214   6.372   4.039  0.0056  0.4702 -0.4176
 2862ntf    sn215917   0.098   6.261   3.953  0.0495 -0.0572  0.1975
 2862ntf    nn315918   0.001   6.213   4.067 -0.2952  0.4487  0.1220
 2862ntf    sn215919  -0.155   6.210   4.056 -0.2905  0.2586  0.1055
 2862ntf    cn115920  -0.208   6.363   4.139 -0.3721  0.1698  0.2180
 2862ntf    fn415921   0.317   6.412   3.966 -0.1007  0.3730 -0.6208
 2862ntf    fn415922   0.151   6.481   4.079 -0.4728  0.0814 -0.1121
 2862ntf    fn415923   0.267   6.315   4.146  0.0882  0.6073 -0.3853
 2862ntf    on515924   0.043   6.352   3.856  0.4315 -0.0555 -0.0211
 2862ntf    on515925   0.170   6.150   3.896  0.2959  0.0253  0.3427
 2862ntf    on515926  -0.199   6.112   4.153  0.9114 -0.2744  0.1268
 2862ntf    on515927  -0.222   6.206   3.928 -0.1286 -0.1440  0.0312
 2862ntf    fn415928  -0.201   6.356   4.271 -0.8655 -0.5206  0.2100
 2862ntf    fn415929  -0.140   6.469   4.097 -0.2439  0.0719  0.1773
 2862ntf    fn415930  -0.337   6.380   4.116 -0.4251 -0.3344  0.1246
 2863ntf    cn115931   6.239   3.071   5.161 -0.0991 -0.1281  0.2494
 2863ntf    sn215932   6.286   2.983   5.009 -0.2590 -0.0563  0.1590
 2863ntf    nn315933   6.326   3.106   4.920  0.1253 -0.4503 -0.2187
 2863ntf    sn215934   6.251   3.163   4.794 -0.2131 -0.0183  0.1724
 2863ntf    cn115935   6.340   3.073   4.664 -0.2118 -0.0295  0.1809
 2863ntf    fn415936   6.339   3.145   5.208  0.0343 -0.1586  0.0154
 2863ntf    fn415937   6.154   3.167   5.132  0.0503 -0.1767 -0.3663
 2863ntf    fn415938   6.175   3.007   5.258 -0.6064  0.0253  0.0162
 2863ntf    on515939   6.403   2.910   5.051 -0.2430  0.2659  0.6877
 2863ntf    on515940   6.173   2.908   4.960  0.3207 -0.7005 -0.2180
 2863ntf    on515941   6.284   3.301   4.771  0.1326 -0.1741 -0.2921
 2863ntf    on515942   6.111   3.137   4.774 -0.2548  0.3278  0.0222
 2863ntf    fn415943   6.458   3.128   4.637 -0.2584  0.1866  0.4146
 2863ntf    fn415944   6.350   2.941   4.673 -1.2061 -0.1507 -0.2923
 2863ntf    fn415945   6.270   3.079   4.552  0.3827 -0.3497 -0.2139
 2864ntf    cn115946   6.413   4.757   2.458 -0.0658  0.2724  0.2418
 2864ntf    sn215947   6.526   4.625   2.510 -0.1524 -0.0195 -0.3044
 2864ntf    nn315948   6.471   4.502   2.430 -0.1144 -0.3164  0.1219
 2864ntf    sn215949   6.468   4.481   2.274  0.3056 -0.2741  0.1067
 2864ntf    cn115950   6.605   4.361   2.266  0.2666 -0.3068 -0.0586
 2864ntf    fn415951   6.421   4.793   2.331  0.4108 -0.0380  0.1823
 2864ntf    fn415952   6.285   4.727   2.478 -0.0613  0.2588  0.2507
 2864ntf    fn415953   6.438   4.867   2.527 -0.1341 -0.1213  0.9058
 2864ntf    on515954   6.653   4.675   2.462  0.2513  0.0700  0.8269
 2864ntf    on515955   6.506   4.612   2.652  0.2377 -0.1568 -0.2605
 2864ntf    on515956   6.507   4.591   2.189 -0.7070 -0.4205 -0.5567
 2864ntf    on515957   6.351   4.410   2.228  0.0196  0.1891  0.1163
 2864ntf    fn415958   6.644   4.339   2.141  0.4919  0.2980 -0.0985
 2864ntf    fn415959   6.707   4.395   2.343  0.0328  0.1962  0.0353
 2864ntf    fn415960   6.566   4.242   2.308 -0.3949 -0.0400  0.1018
 2865ntf    cn115961   0.951   5.359   5.260 -0.1487 -0.0327  0.1121
 2865ntf    sn215962   0.961   5.195   5.338 -0.4622 -0.1152 -0.0201
 2865ntf    nn315963   0.936   5.112   5.207  0.1416 -0.4942  0.1017
 2865ntf    sn215964   0.817   5.012   5.187 -0.0361 -0.2167 -0.2370
 2865ntf    cn115965   0.677   5.123   5.154  0.3672  0.4254  0.1787
 2865ntf    fn415966   0.947   5.455   5.351 -0.5559 -0.2307  0.3055
 2865ntf    fn415967   1.052   5.390   5.180  0.0407  0.0781  0.3908
 2865ntf    fn415968   0.837   5.378   5.198 -0.1260  0.2305  0.1512
 2865ntf    on515969   1.099   5.197   5.380 -0.3285  0.0148 -0.4629
 2865ntf    on515970   0.852   5.202   5.432 -0.3028 -0.1912  0.1725
 2865ntf    on515971   0.770   4.940   5.304  0.2338 -0.1719 -0.0997
 2865ntf    on515972   0.826   4.939   5.063 -0.0602  0.1349 -0.4455
 2865ntf    fn415973   0.658   5.206   5.255  0.2074  0.0961  0.4240
 2865ntf    fn415974   0.697   5.203   5.052  0.4623  0.3175  0.1130
 2865ntf    fn415975   0.558   5.066   5.137  0.5444  0.2783 -0.5677
 2866ntf    cn115976   1.064   0.456   4.888  0.6466  0.0416  0.0848
 2866ntf    sn215977   1.007   0.550   5.033 -0.2625 -0.1197 -0.1604
 2866ntf    nn315978   0.949   0.677   4.961 -0.5282 -0.2572 -0.1911
 2866ntf    sn215979   0.910   0.812   5.031  0.5509 -0.1207  0.1620
 2866ntf    cn115980   0.731   0.782   5.044  0.4793  0.2105 -0.0546
 2866ntf    fn415981   0.960   0.433   4.810  0.7349  0.1869 -0.0749
 2866ntf    fn415982   1.158   0.519   4.820  0.4415 -0.1653 -0.3973
 2866ntf    fn415983   1.105   0.334   4.915  0.4694 -0.0468 -0.0386
 2866ntf    on515984   0.908   0.462   5.090 -0.0963 -0.7052 -0.7658
 2866ntf    on515985   1.131   0.570   5.104 -0.2406 -0.2435 -0.1647
 2866ntf    on515986   0.912   0.918   4.933 -0.1138 -0.1604  0.1027
 2866ntf    on515987   0.949   0.838   5.167 -0.1462 -0.3698  0.4121
 2866ntf    fn415988   0.666   0.865   5.124 -0.1044  0.0180 -0.3291
 2866ntf    fn415989   0.668   0.780   4.928 -0.4960 -0.0789  0.4775
 2866ntf    fn415990   0.703   0.664   5.096 -0.3308  0.0835 -0.7640
 2867ntf    cn115991   4.934   6.684   1.621  0.1576  0.2684 -0.1282
 2867ntf    sn215992   5.069   6.649   1.738 -0.1082  0.0522  0.1109
 2867ntf    nn315993   5.152   6.782   1.737  0.1592 -0.1131  0.2947
 2867ntf    sn215994   5.297   6.817   1.785  0.0062  0.1856  0.5427
 2867ntf    cn115995   5.263   6.884   1.950 -0.4711  0.3291  0.3852
 2867ntf    fn415996   4.982   6.711   1.500  0.4678 -0.0169 -0.0720
 2867ntf    fn415997   4.846   6.586   1.614  0.3008  0.1421 -0.1549
 2867ntf    fn415998   4.879   6.799   1.654 -0.1782  0.1218 -0.1771
 2867ntf    on515999   4.995   6.627   1.860  0.3086 -0.8652  0.2044
 2867ntf    on516000   5.145   6.544   1.676  0.3473  0.4028  0.0769
 2867ntf    on516001   5.363   6.917   1.704  0.1389 -0.2708  0.0790
 2867ntf    on516002   5.377   6.700   1.812 -0.4779 -0.1752  0.4255
 2867ntf    fn416003   5.373   6.911   2.018 -0.4620  0.6751  0.2359
 2867ntf    fn416004   5.201   7.001   1.944 -0.3340  0.4084  0.5213
 2867ntf    fn416005   5.189   6.801   2.022 -0.4693  0.0564  0.0763
 2868ntf    cn116006   3.717   3.959   6.942  0.0234 -0.0551  0.1328
 2868ntf    sn216007   3.891   4.003   6.974  0.0967 -0.3937  0.2036
 2868ntf    nn316008   3.950   3.858   6.975 -0.3868 -0.5970 -0.2010
 2868ntf    sn216009   4.089   3.798   6.934 -0.0637 -0.1165  0.1737
 2868ntf    cn116010   4.158   3.767   7.099 -0.0761  0.5101  0.2984
 2868ntf    fn416011   3.639   4.065   6.955  0.0578  0.0057 -0.1542
 2868ntf    fn416012   3.697   3.911   6.820 -0.0583  0.5840 -0.1098
 2868ntf    fn416013   3.671   3.876   7.034 -0.1678  0.3862  0.4406
 2868ntf    on516014   3.920   4.084   6.858 -0.7425  0.3368  0.4916
 2868ntf    on516015   3.886   4.067   7.103  0.3383 -0.1504  0.0931
 2868ntf    on516016   4.180   3.889   6.869 -0.0089 -0.2093  0.1188
 2868ntf    on516017   4.075   3.665   6.880  0.0211 -0.1558  0.2476
 2868ntf    fn416018   4.120   3.648   7.144 -0.0849  0.5393  0.3694
 2868ntf    fn416019   4.290   3.766   7.102 -0.0681  0.4605 -0.1149
 2868ntf    fn416020   4.114   3.842   7.199 -0.5997  0.3028  0.2287
 2869ntf    cn116021   5.679   4.942   4.543 -0.1329  0.1942 -0.1005
 2869ntf    sn216022   5.614   4.775   4.573  0.0126  0.1916  0.2026
 2869ntf    nn316023   5.469   4.777   4.512 -0.0107 -0.3362  0.2354
 2869ntf    sn216024   5.346   4.686   4.544 -0.1070 -0.4766 -0.5055
 2869ntf    cn116025   5.251   4.794   4.655  0.3921 -0.1223 -0.4214
 2869ntf    fn416026   5.608   5.032   4.609 -0.0496  0.1269  0.0817
 2869ntf    fn416027   5.804   4.954   4.585 -0.0196  0.0285 -0.3834
 2869ntf    fn416028   5.691   4.976   4.415 -0.5496 -0.2940 -0.2718
 2869ntf    on516029   5.710   4.694   4.503 -0.0659  0.1970  0.0888
 2869ntf    on516030   5.610   4.759   4.716 -0.1362  0.1039  0.1893
 2869ntf    on516031   5.363   4.566   4.623 -0.6889 -0.2752 -0.0706
 2869ntf    on516032   5.261   4.668   4.429 -0.9081 -0.1320  0.0239
 2869ntf    fn416033   5.169   4.734   4.739  0.2943  0.1349 -0.3332
 2869ntf    fn416034   5.316   4.878   4.734  0.1730 -0.5219  0.1894
 2869ntf    fn416035   5.170   4.868   4.581  0.1922 -0.1884 -0.2713
 2870ntf    cn116036   1.018   1.649   4.637 -0.2174 -0.0322  0.2289
 2870ntf    sn216037   1.019   1.791   4.524  0.1534  0.1366  0.4422
 2870ntf    nn316038   1.170   1.784   4.482 -0.0367  0.2789 -0.2897
 2870ntf    sn216039   1.262   1.907   4.447  0.3202  0.1028  0.0133
 2870ntf    cn116040   1.375   1.902   4.589 -0.3320 -0.1948  0.5282
 2870ntf    fn416041   1.087   1.679   4.746  0.0275  0.2195  0.0045
 2870ntf    fn416042   0.899   1.620   4.686  0.1328 -0.6376  0.7426
 2870ntf    fn416043   1.073   1.544   4.576  0.1241  0.0440  0.4032
 2870ntf    on516044   0.930   1.771   4.412 -0.0839 -0.1002  0.6715
 2870ntf    on516045   0.979   1.896   4.614 -0.2939  0.6141 -0.2971
 2870ntf    on516046   1.188   2.031   4.454  0.0582 -0.0838  0.5751
 2870ntf    on516047   1.336   1.881   4.326  0.8160  0.6815  0.1910
 2870ntf    fn416048   1.456   2.007   4.591 -0.4475 -0.0916  0.0777
 2870ntf    fn416049   1.302   1.892   4.699 -0.7836 -0.5597  0.2000
 2870ntf    fn416050   1.455   1.797   4.596  0.3096  0.2535  0.0525
 2871ntf    cn116051   2.987   3.328   1.439  0.4940 -0.0264  0.0443
 2871ntf    sn216052   2.942   3.235   1.289 -0.0058 -0.0383  0.1989
 2871ntf    nn316053   3.070   3.145   1.275  0.0592  0.0907 -0.0523
 2871ntf    sn216054   3.188   3.162   1.172  0.2726  0.3059  0.2261
 2871ntf    cn116055   3.329   3.100   1.269  0.2916 -0.2626 -0.1589
 2871ntf    fn416056   2.975   3.261   1.552  0.3177 -0.7613 -0.4026
 2871ntf    fn416057   3.111   3.373   1.443  0.4003  0.1765  0.8200
 2871ntf    fn416058   2.904   3.431   1.449 -0.3950 -0.7665  0.4386
 2871ntf    on516059   2.824   3.163   1.329  0.0340  0.0210  0.4249
 2871ntf    on516060   2.925   3.339   1.189  0.3007  0.1151  0.3051
 2871ntf    on516061   3.223   3.300   1.152  0.4740  0.2688  0.3168
 2871ntf    on516062   3.184   3.074   1.058 -0.0422 -0.0419  0.4981
 2871ntf    fn416063   3.316   2.971   1.298 -0.5997 -0.0962  0.2164
 2871ntf    fn416064   3.441   3.116   1.201  0.3222  0.1805 -0.0044
 2871ntf    fn416065   3.335   3.171   1.381  0.5479 -0.2019 -0.2117
 2872ntf    cn116066   5.745   2.410   5.261  0.0152 -0.1730  0.3451
 2872ntf    sn216067   5.676   2.568   5.321 -0.3221 -0.1911  0.0104
 2872ntf    nn316068   5.567   2.597   5.212 -0.4260 -0.4410  0.0463
 2872ntf    sn216069   5.416   2.637   5.232 -0.3392 -0.0148 -0.1401
 2872ntf    cn116070   5.335   2.474   5.242 -0.3433  0.0216  0.4338
 2872ntf    fn416071   5.830   2.362   5.350  0.2550  0.0348  0.2313
 2872ntf    fn416072   5.650   2.320   5.243 -0.0607  0.0163 -0.2418
 2872ntf    fn416073   5.805   2.420   5.144 -0.1166 -0.1592  0.2779
 2872ntf    on516074   5.624   2.537   5.452  0.1278 -0.3657  0.1516
 2872ntf    on516075   5.790   2.656   5.319 -0.4388 -0.0423 -0.0870
 2872ntf    on516076   5.353   2.682   5.110 -0.6119  0.4069  0.1556
 2872ntf    on516077   5.388   2.716   5.349  0.2956 -0.2300  0.1606
 2872ntf    fn416078   5.379   2.398   5.144  0.2222  0.4800  0.3297
 2872ntf    fn416079   5.368   2.400   5.346  0.2383  0.0373  0.2644
 2872ntf    fn416080   5.202   2.475   5.241 -0.3459 -0.1435  0.6326
 2873ntf    cn116081   1.624   1.536   3.769 -0.1535  0.2005 -0.2927
 2873ntf    sn216082   1.806   1.532   3.763 -0.1441  0.1898 -0.0050
 2873ntf    nn316083   1.848   1.518   3.914 -0.3038  0.1871  0.0396
 2873ntf    sn216084   1.798   1.394   3.997 -0.2101  0.1777  0.0821
 2873ntf    cn116085   1.953   1.300   4.015 -0.0763  0.2991 -0.4140
 2873ntf    fn416086   1.573   1.414   3.762 -0.2265  0.2166 -0.0578
 2873ntf    fn416087   1.572   1.597   3.874 -0.4685 -0.0044 -0.3288
 2873ntf    fn416088   1.572   1.602   3.667  0.0788 -0.1153 -0.6174
 2873ntf    on516089   1.840   1.417   3.683 -0.5245 -0.0031  0.1088
 2873ntf    on516090   1.837   1.663   3.710  0.0250 -0.0317 -0.4546
 2873ntf    on516091   1.707   1.297   3.940  0.2668 -0.4395  0.3539
 2873ntf    on516092   1.770   1.429   4.133 -0.5081 -0.2186  0.1252
 2873ntf    fn416093   2.052   1.371   4.065 -0.2094  0.0116  0.2621
 2873ntf    fn416094   1.938   1.195   4.094  0.2917  0.1641 -0.5217
 2873ntf    fn416095   1.996   1.255   3.898  0.6362 -0.0907 -0.0095
 2874ntf    cn116096   6.785   3.033   3.859  0.1629 -0.4211  0.3247
 2874ntf    sn216097   6.791   3.204   3.798 -0.2323 -0.4631  0.1687
 2874ntf    nn316098   6.672   3.201   3.695 -0.5519  0.4845  0.4960
 2874ntf    sn216099   6.638   3.293   3.573  0.1267  0.0365 -0.0394
 2874ntf    cn116100   6.698   3.196   3.432 -0.2748 -0.0576 -0.1440
 2874ntf    fn416101   6.863   3.002   3.962  0.1970 -0.5824  0.2510
 2874ntf    fn416102   6.662   3.010   3.901 -0.0304 -0.1073 -0.0623
 2874ntf    fn416103   6.809   2.950   3.759 -0.1120  0.1383 -0.2128
 2874ntf    on516104   6.764   3.290   3.911  0.6036 -0.1156  0.1109
 2874ntf    on516105   6.922   3.213   3.738 -0.3469 -0.6137 -0.1047
 2874ntf    on516106   6.714   3.416   3.565 -0.0527  0.1120 -0.5763
 2874ntf    on516107   6.495   3.306   3.560  0.1191  0.1666  0.1616
 2874ntf    fn416108   6.806   3.126   3.462 -0.1115  0.5465  0.7070
 2874ntf    fn416109   6.600   3.116   3.392  0.1562 -0.5904 -0.1468
 2874ntf    fn416110   6.726   3.275   3.330  0.4504 -0.7366 -0.4843
 2875ntf    cn116111   4.629   6.425   3.577 -0.0886 -0.1119  0.1528
 2875ntf    sn216112   4.507   6.303   3.519 -0.0920 -0.0290 -0.0176
 2875ntf    nn316113   4.439   6.399   3.415 -0.3375 -0.1147  0.0626
 2875ntf    sn216114   4.311   6.486   3.439 -0.2297  0.0494  0.0470
 2875ntf    cn116115   4.191   6.349   3.430  0.3217 -0.4286 -0.0634
 2875ntf    fn416116   4.698   6.475   3.476 -0.2142 -0.5350 -0.1462
 2875ntf    fn416117   4.573   6.526   3.641  0.3615  0.0449  0.2996
 2875ntf    fn416118   4.720   6.371   3.656  0.2443  0.1023 -0.0834
 2875ntf    on516119   4.595   6.204   3.463 -0.0421  0.4352 -0.7663
 2875ntf    on516120   4.434   6.257   3.635  0.0504  0.2658  0.1920
 2875ntf    on516121   4.267   6.560   3.323  0.7335  0.1890 -0.2364
 2875ntf    on516122   4.296   6.550   3.567 -0.1212  0.7817 -0.3051
 2875ntf    fn416123   4.214   6.279   3.320 -0.0823 -0.6645  0.0016
 2875ntf    fn416124   4.190   6.271   3.536 -0.0497 -0.4184 -0.0600
 2875ntf    fn416125   4.067   6.389   3.407  0.4521  0.1595  0.2387
 2876ntf    cn116126   4.970   0.138   1.779  0.1523 -0.2956  0.2399
 2876ntf    sn216127   4.971   0.281   1.890 -0.4820 -0.1277  0.0312
 2876ntf    nn316128   5.031   0.388   1.792 -0.3829 -0.0403  0.1856
 2876ntf    sn216129   4.989   0.538   1.774  0.0491  0.0360 -0.2101
 2876ntf    cn116130   5.141   0.605   1.702  0.1109  0.2360  0.1022
 2876ntf    fn416131   4.877   0.053   1.819 -0.2723  0.3433  0.6083
 2876ntf    fn416132   4.945   0.176   1.655  0.1521 -0.1975  0.2703
 2876ntf    fn416133   5.087   0.075   1.786  0.1020 -0.3983  0.1665
 2876ntf    on516134   4.831   0.289   1.924 -0.4007  0.0887  0.3286
 2876ntf    on516135   5.066   0.250   1.994 -0.8003 -0.4825  0.2159
 2876ntf    on516136   4.975   0.618   1.894  0.0274 -0.0274 -0.1706
 2876ntf    on516137   4.887   0.550   1.672 -0.3200  0.4892  0.2024
 2876ntf    fn416138   5.193   0.527   1.608 -0.2887  0.1290 -0.0297
 2876ntf    fn416139   5.129   0.723   1.643  0.0203  0.2963  0.2432
 2876ntf    fn416140   5.232   0.614   1.798 -0.2174  0.3760  0.3995
 2877ntf    cn116141   5.262   3.446   0.402 -0.0731  0.0040 -0.3229
 2877ntf    sn216142   5.237   3.267   0.426 -0.3415  0.0675 -0.1291
 2877ntf    nn316143   5.321   3.207   0.308  0.5009 -0.2415  0.6146
 2877ntf    sn216144   5.321   3.068   0.235  0.2816  0.0158  0.1200
 2877ntf    cn116145   5.259   3.117   0.071 -0.0511  0.1965  0.2993
 2877ntf    fn416146   5.386   3.479   0.373  0.0354  0.0858  0.2232
 2877ntf    fn416147   5.190   3.494   0.302 -0.0670 -0.0386 -0.3476
 2877ntf    fn416148   5.227   3.515   0.509 -0.0830  0.7006 -0.7750
 2877ntf    on516149   5.289   3.238   0.558  0.0056  0.2651 -0.2235
 2877ntf    on516150   5.094   3.251   0.413 -0.4113  0.4473  0.1279
 2877ntf    on516151   5.221   2.975   0.281  0.1513  0.0897 -0.0120
 2877ntf    on516152   5.452   3.015   0.206  0.0783 -0.3777 -0.0811
 2877ntf    fn416153   5.133   3.160   0.073 -0.0253  0.2622  0.6479
 2877ntf    fn416154   5.338   3.207   0.016 -0.0857  0.2051  0.2630
 2877ntf    fn416155   5.276   3.017  -0.013 -0.2917  0.5748 -0.2027
 2878ntf    cn116156   1.410   4.645   2.650 -0.1462  0.6152  0.0454
 2878ntf    sn216157   1.448   4.694   2.480  0.0101  0.0806 -0.0780
 2878ntf    nn316158   1.579   4.779   2.489 -0.1113  0.2250  0.3152
 2878ntf    sn216159   1.710   4.756   2.405 -0.3712  0.0761 -0.0504
 2878ntf    cn116160   1.824   4.663   2.512 -0.3218  0.0166 -0.1556
 2878ntf    fn416161   1.314   4.554   2.642  0.6250 -0.2015 -0.1347
 2878ntf    fn416162   1.516   4.596   2.713 -0.6619 -0.3190  0.2132
 2878ntf    fn416163   1.371   4.751   2.720 -0.1482  0.7888 -0.2198
 2878ntf    on516164   1.467   4.560   2.431  0.3423  0.2523 -0.4286
 2878ntf    on516165   1.331   4.768   2.439 -0.3056 -0.3264  0.0797
 2878ntf    on516166   1.789   4.870   2.366  0.2392 -0.3897 -0.1922
 2878ntf    on516167   1.690   4.665   2.295  0.7075 -0.3025  0.0582
 2878ntf    fn416168   1.821   4.720   2.631  0.3753 -0.3177  0.0226
 2878ntf    fn416169   1.794   4.535   2.525 -0.0276 -0.0340  0.0332
 2878ntf    fn416170   1.949   4.678   2.471 -0.2831 -1.0465 -0.4526
 2879ntf    cn116171   6.141   1.995   1.475  0.0037  0.3326  0.1355
 2879ntf    sn216172   6.090   2.158   1.538 -0.0638  0.3273  0.0957
 2879ntf    nn316173   5.945   2.117   1.584 -0.0045  0.1595  0.1356
 2879ntf    sn216174   5.808   2.126   1.509 -0.0225 -0.0314  0.1439
 2879ntf    cn116175   5.730   2.270   1.588 -0.0274 -0.0878  0.2403
 2879ntf    fn416176   6.110   1.903   1.565  0.1871 -0.2072 -0.3463
 2879ntf    fn416177   6.082   1.944   1.368  0.4366 -0.3038  0.1959
 2879ntf    fn416178   6.271   1.979   1.453  0.0197 -0.1068  0.5422
 2879ntf    on516179   6.161   2.186   1.660 -0.8830  0.5562  0.5300
 2879ntf    on516180   6.110   2.250   1.430  0.2022 -0.0333 -0.1638
 2879ntf    on516181   5.714   2.021   1.537  0.1594 -0.3339 -0.3515
 2879ntf    on516182   5.812   2.158   1.368  0.1710  0.4995  0.2658
 2879ntf    fn416183   5.804   2.379   1.580  0.2293 -0.3070 -0.3967
 2879ntf    fn416184   5.611   2.297   1.538 -0.1355 -0.1985  0.4391
 2879ntf    fn416185   5.718   2.243   1.717 -0.1971  0.0474  0.2540
 2880ntf    cn116186   1.171   4.040   3.768 -0.1069  0.4581 -0.7650
 2880ntf    sn216187   1.167   4.192   3.668  0.4051  0.7108 -0.4035
 2880ntf    nn316188   1.281   4.173   3.561  0.7752  0.2443  0.0663
 2880ntf    sn216189   1.417   4.248   3.539  0.5455  0.4934 -0.5096
 2880ntf    cn116190   1.367   4.385   3.430 -0.2463  0.1832 -0.5434
 2880ntf    fn416191   1.286   4.023   3.831 -0.5603 -0.5008 -0.1733
 2880ntf    fn416192   1.073   4.029   3.856  0.0951  0.0596 -0.5883
 2880ntf    fn416193   1.152   3.933   3.692  0.0533 -0.0366 -0.1156
 2880ntf    on516194   1.037   4.190   3.606 -0.0262 -0.5608  0.4954
 2880ntf    on516195   1.191   4.292   3.769  0.0465  0.0890  0.3032
 2880ntf    on516196   1.505   4.174   3.452  0.2343 -0.1538 -0.2813
 2880ntf    on516197   1.477   4.305   3.657 -0.3735  0.3959  0.0153
 2880ntf    fn416198   1.473   4.437   3.370  0.2209 -0.5444 -0.3555
 2880ntf    fn416199   1.283   4.344   3.336 -0.4153 -0.1370 -0.2575
 2880ntf    fn416200   1.319   4.484   3.503  0.5389 -0.1435  0.4372
 2881ntf    cn116201   4.206   2.561   3.145 -0.1711  0.2891  0.0788
 2881ntf    sn216202   4.384   2.595   3.156 -0.1129 -0.1086  0.3870
 2881ntf    nn316203   4.430   2.476   3.248  0.3029 -0.1832  0.0870
 2881ntf    sn216204   4.442   2.478   3.404 -0.1634  0.1759  0.1217
 2881ntf    cn116205   4.617   2.522   3.425 -0.0238 -0.3005 -0.0469
 2881ntf    fn416206   4.155   2.525   3.262 -0.1509  0.0949  0.0288
 2881ntf    fn416207   4.135   2.667   3.112 -0.2610  0.3420  0.4356
 2881ntf    fn416208   4.185   2.480   3.042  0.2050  0.0764  0.1684
 2881ntf    on516209   4.425   2.570   3.020 -0.8486  0.0567  0.1311
 2881ntf    on516210   4.406   2.725   3.214 -0.3640  0.1186 -0.0246
 2881ntf    on516211   4.443   2.343   3.454  0.4589  0.1142 -0.0566
 2881ntf    on516212   4.375   2.580   3.481 -0.2643  0.5892 -0.5098
 2881ntf    fn416213   4.694   2.431   3.367 -0.1587 -0.0835 -0.5744
 2881ntf    fn416214   4.654   2.637   3.371 -0.5207 -0.2298 -0.2432
 2881ntf    fn416215   4.656   2.520   3.551 -0.0183  0.0980 -0.0419
 2882ntf    cn116216   0.843   1.168   0.455 -0.3191  0.2486  0.1242
 2882ntf    sn216217   0.689   1.266   0.464 -0.2987  0.2947 -0.0254
 2882ntf    nn316218   0.693   1.313   0.314  0.3077  0.3400 -0.0004
 2882ntf    sn216219   0.587   1.274   0.204  0.2514 -0.1227  0.2139
 2882ntf    cn116220   0.497   1.430   0.174 -0.0012 -0.2436  0.3415
 2882ntf    fn416221   0.950   1.235   0.416 -0.0841  0.0757  0.4713
 2882ntf    fn416222   0.880   1.123   0.573 -0.2860 -0.2017 -0.0594
 2882ntf    fn416223   0.834   1.072   0.364  0.2584  0.6118 -0.3242
 2882ntf    on516224   0.596   1.160   0.496 -0.0489  0.0135 -0.2190
 2882ntf    on516225   0.709   1.367   0.564  0.2860 -0.0431  0.2065
 2882ntf    on516226   0.479   1.185   0.237  0.6784 -0.6076  0.3214
 2882ntf    on516227   0.657   1.256   0.080 -0.1188 -0.6067  0.0743
 2882ntf    fn416228   0.408   1.424   0.077  0.4377 -0.4932 -0.0483
 2882ntf    fn416229   0.433   1.474   0.281 -0.1173  1.0479 -0.2523
 2882ntf    fn416230   0.587   1.522   0.144  0.1580 -0.5028  0.0261
 2883ntf    cn116231   0.798   6.040   6.200 -0.1718  0.0077 -0.2744
 2883ntf    sn216232   0.733   6.161   6.319 -0.0236 -0.0456 -0.1376
 2883ntf    nn316233   0.586   6.106   6.332  0.0819 -0.3352 -0.1741
 2883ntf    sn216234   0.513   6.041   6.454 -0.0089  0.0506 -0.0204
 2883ntf    cn116235   0.392   5.938   6.366  0.2173 -0.0373 -0.2286
 2883ntf    fn416236   0.747   6.054   6.079 -0.3166 -0.4881 -0.2714
 2883ntf    fn416237   0.930   6.053   6.198 -0.1354 -0.3025 -0.0082
 2883ntf    fn416238   0.774   5.916   6.240 -0.1394  0.2112  0.3958
 2883ntf    on516239   0.818   6.142   6.433  0.2210  0.2664 -0.2650
 2883ntf    on516240   0.751   6.287   6.251  0.3016 -0.2772 -0.4876
 2883ntf    on516241   0.433   6.123   6.542  0.4948 -0.0745  0.5615
 2883ntf    on516242   0.583   5.939   6.528  0.1922 -0.2492 -0.6203
 2883ntf    fn416243   0.370   5.968   6.239 -0.6935  0.3674  0.0198
 2883ntf    fn416244   0.430   5.811   6.366  0.5307  0.0529  0.2493
 2883ntf    fn416245   0.273   5.940   6.424  0.3530 -0.0261  0.0523
 2884ntf    cn116246   2.430   6.206   0.835 -0.1954  0.1583  0.3446
 2884ntf    sn216247   2.568   6.260   0.941  0.3077  0.1187 -0.2819
 2884ntf    nn316248   2.566   6.415   0.916 -0.1665  0.2874  0.7499
 2884ntf    sn216249   2.675   6.523   0.949  0.4606 -0.1102  0.0061
 2884ntf    cn116250   2.753   6.552   0.787 -0.1213  0.0259 -0.2545
 2884ntf    fn416251   2.468   6.221   0.709 -0.2705 -0.2123  0.2744
 2884ntf    fn416252   2.411   6.075   0.846  0.6020 -0.0076 -0.1858
 2884ntf    fn416253   2.312   6.263   0.852 -0.0710  0.4895  0.0951
 2884ntf    on516254   2.511   6.218   1.067  0.3082  0.3269 -0.2128
 2884ntf    on516255   2.682   6.188   0.891  0.3531  0.1811 -0.2677
 2884ntf    on516256   2.786   6.472   1.025  0.4498 -0.1106  0.0218
 2884ntf    on516257   2.617   6.651   0.981 -0.1317 -0.3309 -0.1591
 2884ntf    fn416258   2.802   6.446   0.726  0.7937  0.1694  0.2127
 2884ntf    fn416259   2.675   6.615   0.701  0.1734  0.7942  0.0326
 2884ntf    fn416260   2.857   6.629   0.813  0.0024 -0.2961  0.2206
 2885ntf    cn116261   5.792   5.823   0.887  0.2257 -0.1762  0.1699
 2885ntf    sn216262   5.859   5.672   0.810 -0.0532 -0.1001 -0.2300
 2885ntf    nn316263   5.801   5.571   0.915  0.0086  0.1655  0.0597
 2885ntf    sn216264   5.881   5.488   1.023 -0.0444 -0.0056 -0.0330
 2885ntf    cn116265   5.785   5.335   1.041 -0.1053  0.0188 -0.1469
 2885ntf    fn416266   5.840   5.858   1.005  0.0312  0.2550  0.1224
 2885ntf    fn416267   5.791   5.927   0.805 -0.4575 -0.2920  0.0183
 2885ntf    fn416268   5.665   5.796   0.913  0.1625 -0.3359 -0.2840
 2885ntf    on516269   5.780   5.663   0.690 -0.4006  0.1960 -0.0269
 2885ntf    on516270   6.002   5.694   0.806 -0.1217  0.4446  0.2063
 2885ntf    on516271   5.860   5.559   1.147 -0.8334  0.0982 -0.2194
 2885ntf    on516272   6.012   5.444   0.983  0.1509  0.4155  0.1362
 2885ntf    fn416273   5.780   5.260   0.932  0.0883  0.0752 -0.1941
 2885ntf    fn416274   5.845   5.262   1.134 -0.4655 -0.0510  0.0315
 2885ntf    fn416275   5.662   5.352   1.086 -0.2106  0.2089 -0.5013
 2886ntf    cn116276   6.148   5.066   2.142  0.0316  0.1450  0.1488
 2886ntf    sn216277   6.116   5.017   1.970  0.2344  0.1546  0.1078
 2886ntf    nn316278   6.234   5.073   1.884  0.1498 -0.0569 -0.1498
 2886ntf    sn216279   6.260   5.227   1.867 -0.1541  0.0047 -0.0653
 2886ntf    cn116280   6.270   5.235   1.686  0.2507  0.2219 -0.0347
 2886ntf    fn416281   6.055   5.013   2.220  0.0628 -0.1870 -0.0409
 2886ntf    fn416282   6.264   5.023   2.187  0.1965  0.7753  0.3327
 2886ntf    fn416283   6.142   5.197   2.160 -0.3465  0.1403  0.0764
 2886ntf    on516284   6.132   4.873   1.971  0.1396  0.1320 -0.8266
 2886ntf    on516285   5.981   5.059   1.941  0.0617 -0.0797  0.5575
 2886ntf    on516286   6.393   5.262   1.912 -0.0398 -0.4303 -0.0613
 2886ntf    on516287   6.155   5.315   1.911  0.2135  0.4370 -0.0428
 2886ntf    fn416288   6.383   5.189   1.635  0.1573 -0.0223 -0.0223
 2886ntf    fn416289   6.180   5.160   1.625 -0.1918  0.6618  0.0705
 2886ntf    fn416290   6.258   5.360   1.643  0.5033  0.4029  0.4098
 2887ntf    cn116291   3.762   2.905   2.053  0.1882 -0.2090 -0.7087
 2887ntf    sn216292   3.920   2.938   2.137 -0.1160 -0.2208 -0.1301
 2887ntf    nn316293   3.986   2.799   2.103 -0.3773 -0.3532 -0.1000
 2887ntf    sn216294   4.005   2.680   2.203 -0.3065 -0.2063  0.0629
 2887ntf    cn116295   4.186   2.687   2.219 -0.2739  0.1320 -0.4404
 2887ntf    fn416296   3.711   2.793   2.101  0.2132  0.3420  0.6397
 2887ntf    fn416297   3.679   3.006   2.071  0.2981 -0.2493  0.0391
 2887ntf    fn416298   3.773   2.883   1.923 -0.4344 -0.4449 -0.7228
 2887ntf    on516299   3.970   3.050   2.061 -0.2907  0.3493  0.5832
 2887ntf    on516300   3.865   2.973   2.266  0.0967  0.8186 -0.3100
 2887ntf    on516301   3.978   2.560   2.128  0.7757 -0.4683  0.0712
 2887ntf    on516302   3.956   2.699   2.337 -0.6091 -0.2187 -0.0462
 2887ntf    fn416303   4.227   2.582   2.289 -0.0992  0.3086 -0.2738
 2887ntf    fn416304   4.249   2.680   2.103  1.0221  1.0717  0.1790
 2887ntf    fn416305   4.219   2.798   2.283  0.2184 -0.5366  0.4838
 2888ntf    cn116306   6.578   3.559   6.967  0.4645 -0.1572 -0.0676
 2888ntf    sn216307   6.642   3.726   6.935  0.1019 -0.0894 -0.4429
 2888ntf    nn316308   6.591   3.758   6.790 -0.2521 -0.2633 -0.3578
 2888ntf    sn216309   6.659   3.853   6.685  0.0426 -0.2167 -0.1259
 2888ntf    cn116310   6.612   4.014   6.755  0.0064 -0.1946 -0.2000
 2888ntf    fn416311   6.627   3.472   6.880  0.2372 -0.4331  0.0766
 2888ntf    fn416312   6.609   3.511   7.087  0.2129 -0.0258  0.0498
 2888ntf    fn416313   6.446   3.560   6.965  0.4710  0.1237 -0.3409
 2888ntf    on516314   6.570   3.793   7.041  0.1740 -0.4109 -0.1882
 2888ntf    on516315   6.785   3.719   6.953  0.0074  0.3876  0.5400
 2888ntf    on516316   6.598   3.849   6.555  0.4013  0.3464 -0.3155
 2888ntf    on516317   6.803   3.859   6.687  0.0147  0.5413  0.1911
 2888ntf    fn416318   6.642   4.117   6.678  0.0281 -0.1580 -0.1419
 2888ntf    fn416319   6.483   4.019   6.781  0.0750 -0.1239  0.1301
 2888ntf    fn416320   6.673   4.036   6.871 -0.0294  0.1954 -0.2529
 2889ntf    cn116321   3.011   2.025   5.979  0.0192  0.1673  0.5652
 2889ntf    sn216322   3.093   1.889   6.067  0.0265 -0.1048  0.1377
 2889ntf    nn316323   3.234   1.906   5.998  0.0164  0.0039  0.1433
 2889ntf    sn216324   3.363   1.961   6.068  0.0230  0.0139  0.1232
 2889ntf    cn116325   3.420   1.814   6.159 -0.0784 -0.4042 -0.4854
 2889ntf    fn416326   2.882   2.024   6.009  0.0055  0.4092  0.5171
 2889ntf    fn416327   3.065   2.142   6.012  0.6580  0.1205 -0.3015
 2889ntf    fn416328   3.018   2.015   5.847 -0.3700 -0.1936  0.5689
 2889ntf    on516329   3.086   1.919   6.208  0.3740  0.0096  0.1314
 2889ntf    on516330   3.026   1.772   6.017 -0.1351 -0.2391  0.6632
 2889ntf    on516331   3.338   2.059   6.172  0.1522  0.2145 -0.0340
 2889ntf    on516332   3.474   1.984   5.979 -0.2080  0.1382 -0.1355
 2889ntf    fn416333   3.529   1.837   6.231 -0.4720 -0.6675  0.1958
 2889ntf    fn416334   3.329   1.770   6.243  0.2547  0.5283  0.3835
 2889ntf    fn416335   3.456   1.718   6.075 -0.6333 -0.9120 -0.1402
 2890ntf    cn116336   0.937   4.596   3.283  0.2037  0.5162 -0.2820
 2890ntf    sn216337   0.858   4.477   3.170  0.1358  0.2401  0.0542
 2890ntf    nn316338   0.974   4.435   3.073 -0.0797 -0.0439 -0.0834
 2890ntf    sn216339   1.023   4.503   2.940  0.0491  0.3604  0.1691
 2890ntf    cn116340   0.976   4.384   2.812 -0.1183  0.2304  0.3497
 2890ntf    fn416341   1.019   4.678   3.220  0.4233  0.2129 -0.3962
 2890ntf    fn416342   0.832   4.663   3.328 -0.0081 -0.3152  0.4990
 2890ntf    fn416343   1.003   4.535   3.380 -0.0325  0.4877 -0.1366
 2890ntf    on516344   0.819   4.367   3.256 -0.3210  0.2679 -0.1115
 2890ntf    on516345   0.745   4.544   3.111 -0.3090 -0.1330  0.4716
 2890ntf    on516346   1.167   4.510   2.935  0.1026 -0.5903  0.1663
 2890ntf    on516347   0.953   4.619   2.891  0.5794  0.6055 -0.0184
 2890ntf    fn416348   1.036   4.406   2.696 -0.1499 -0.1513  0.2577
 2890ntf    fn416349   1.005   4.261   2.853  0.1799  0.1125 -0.2020
 2890ntf    fn416350   0.846   4.372   2.792  0.0864  0.0362 -1.0014
 2891ntf    cn116351   5.078   6.902   2.887 -0.0530 -0.2911  0.3356
 2891ntf    sn216352   5.040   6.825   2.727  0.0183  0.1938  0.0827
 2891ntf    nn316353   5.168   6.733   2.722  0.2136  0.4526  0.3085
 2891ntf    sn216354   5.179   6.578   2.740 -0.2071  0.3624 -0.1891
 2891ntf    cn116355   5.258   6.569   2.904  0.3102 -0.0274 -0.4573
 2891ntf    fn416356   5.121   6.817   2.978  0.4049 -0.0480  0.3504
 2891ntf    fn416357   5.170   6.997   2.884 -0.0435 -0.3106 -0.0191
 2891ntf    fn416358   4.970   6.964   2.933 -0.1709  0.2510 -0.6532
 2891ntf    on516359   4.915   6.757   2.748  0.1914 -0.3916 -0.7425
 2891ntf    on516360   5.047   6.932   2.631 -0.1170  0.1939  0.0739
 2891ntf    on516361   5.278   6.530   2.647  0.6486  0.0658  0.8428
 2891ntf    on516362   5.061   6.496   2.745  0.2492 -0.2751  0.2767
 2891ntf    fn416363   5.308   6.448   2.926 -0.0835 -0.1033  0.0472
 2891ntf    fn416364   5.358   6.656   2.902  0.4760 -0.2099 -0.2212
 2891ntf    fn416365   5.179   6.588   3.008  0.6302 -0.4770 -0.1284
 2892ntf    cn116366   2.358   3.434   3.305  0.4865 -0.3132 -0.2988
 2892ntf    sn216367   2.413   3.515   3.459  0.1118 -0.2097 -0.2168
 2892ntf    nn316368   2.566   3.529   3.424  0.1301 -0.1660 -0.1183
 2892ntf    sn216369   2.662   3.653   3.436  0.0279 -0.0597 -0.4013
 2892ntf    cn116370   2.661   3.700   3.261  0.1267 -0.0768 -0.4061
 2892ntf    fn416371   2.408   3.495   3.199 -0.2631  0.3048 -0.3105
 2892ntf    fn416372   2.400   3.309   3.299 -0.2080 -0.5565 -0.1520
 2892ntf    fn416373   2.227   3.419   3.299  0.3827  0.1482  0.6197
 2892ntf    on516374   2.339   3.638   3.471  0.0472 -0.3304  0.6753
 2892ntf    on516375   2.375   3.411   3.552  0.0944  0.2497  0.2940
 2892ntf    on516376   2.797   3.606   3.455 -0.2635 -0.5835  0.4759
 2892ntf    on516377   2.611   3.765   3.510 -0.4268 -0.4611 -0.0979
 2892ntf    fn416378   2.666   3.593   3.183 -0.1430 -0.4800  0.1288
 2892ntf    fn416379   2.556   3.769   3.222 -0.1348 -0.3328 -0.1570
 2892ntf    fn416380   2.770   3.768   3.228  0.0561  0.0217 -0.4391
 2893ntf    cn116381   2.346   5.419   6.976 -0.2967  0.0517 -0.0054
 2893ntf    sn216382   2.180   5.344   6.981 -0.1500 -0.2739  0.0078
 2893ntf    nn316383   2.086   5.468   6.963  0.2600 -0.0084 -0.3296
 2893ntf    sn216384   2.025   5.553   7.079  0.1024 -0.5757  0.0081
 2893ntf    cn116385   1.899   5.645   6.987  0.2937  0.0121  0.3263
 2893ntf    fn416386   2.359   5.518   7.063 -0.1636  0.1383 -0.1255
 2893ntf    fn416387   2.446   5.335   6.996  0.2072  0.7780  0.5961
 2893ntf    fn416388   2.372   5.466   6.856 -0.0366 -0.3397 -0.1058
 2893ntf    on516389   2.181   5.251   6.871 -0.3633  0.0749 -0.2890
 2893ntf    on516390   2.184   5.291   7.115  0.2429 -0.4007 -0.0511
 2893ntf    on516391   2.110   5.658   7.130  0.2276 -0.8896  0.4517
 2893ntf    on516392   1.944   5.485   7.177 -0.0942 -0.4142 -0.0411
 2893ntf    fn416393   1.832   5.733   7.059 -0.0982 -0.2343  0.2658
 2893ntf    fn416394   1.945   5.710   6.881 -0.2767 -0.3552 -0.1515
 2893ntf    fn416395   1.798   5.569   6.945  0.3556  0.2224 -0.2189
 2894ntf    cn116396   1.084   1.875   6.001 -0.2601  0.0493 -0.1226
 2894ntf    sn216397   1.034   2.016   5.897 -0.0761  0.0013 -0.2763
 2894ntf    nn316398   0.886   2.046   5.941  0.1038 -0.8419  0.9428
 2894ntf    sn216399   0.829   2.139   6.054  0.1718  0.2123  0.1258
 2894ntf    cn116400   0.700   2.221   5.956  0.2419  0.3542  0.1524
 2894ntf    fn416401   1.210   1.839   5.986 -0.3759 -0.3325 -0.2016
 2894ntf    fn416402   1.059   1.897   6.129  0.0162 -0.4769  0.0253
 2894ntf    fn416403   1.013   1.769   5.966 -0.3465  0.0189  0.1423
 2894ntf    on516404   1.130   2.120   5.925 -0.2859  0.2087 -0.3271
 2894ntf    on516405   1.049   1.965   5.763  0.0176 -0.2194 -0.1826
 2894ntf    on516406   0.915   2.248   6.092 -0.0988  0.3617  0.3127
 2894ntf    on516407   0.761   2.070   6.161 -0.2262 -0.1804 -0.3715
 2894ntf    fn416408   0.746   2.295   5.856 -0.1607  0.3649 -0.0286
 2894ntf    fn416409   0.616   2.134   5.902  0.1766  0.1851  0.5223
 2894ntf    fn416410   0.632   2.308   6.030  0.1947  0.2498  0.2330
 2895ntf    cn116411   6.739   5.538   5.660 -0.1734 -0.2329 -0.1433
 2895ntf    sn216412   6.599   5.508   5.549 -0.2225  0.0306 -0.1543
 2895ntf    nn316413   6.491   5.596   5.622  0.0093  0.4873 -0.3595
 2895ntf    sn216414   6.440   5.741   5.588 -0.0630  0.5375 -0.0447
 2895ntf    cn116415   6.261   5.713   5.586  0.0244 -0.0508  0.1716
 2895ntf    fn416416   6.734   5.454   5.762  0.4906 -0.0301  0.0657
 2895ntf    fn416417   6.856   5.526   5.600 -0.0022  0.1204  0.1114
 2895ntf    fn416418   6.738   5.659   5.715 -0.5321 -0.1555 -0.3209
 2895ntf    on516419   6.647   5.544   5.418 -0.1419  0.0470 -0.1205
 2895ntf    on516420   6.553   5.371   5.559 -0.2650  0.0324 -0.3241
 2895ntf    on516421   6.464   5.784   5.452  0.3833  0.1089 -0.1090
 2895ntf    on516422   6.458   5.838   5.692  0.3795  0.0388  0.3552
 2895ntf    fn416423   6.230   5.613   5.504  0.2800  0.0900 -0.0987
 2895ntf    fn416424   6.203   5.690   5.703 -0.2976 -0.3319 -0.0395
 2895ntf    fn416425   6.205   5.824   5.542  0.2171  0.2122  0.5884
 2896ntf    cn116426   6.093   5.023   3.402  0.3530 -0.2040 -0.3401
 2896ntf    sn216427   6.238   4.974   3.304  0.5388 -0.3285 -0.0033
 2896ntf    nn316428   6.344   4.979   3.420 -0.0071  0.1789  0.4846
 2896ntf    sn216429   6.459   5.082   3.448  0.2568  0.0953 -0.2664
 2896ntf    cn116430   6.431   5.137   3.619  0.2486 -0.2714 -0.1496
 2896ntf    fn416431   5.981   5.025   3.332 -0.0231 -0.2414  0.2574
 2896ntf    fn416432   6.077   4.928   3.493 -0.0493 -0.3010 -0.5086
 2896ntf    fn416433   6.103   5.143   3.458  0.4614 -0.4738  0.2281
 2896ntf    on516434   6.212   4.838   3.264 -0.5050 -0.0017 -0.4652
 2896ntf    on516435   6.249   5.076   3.203 -0.5200  0.0744  0.2712
 2896ntf    on516436   6.474   5.200   3.366  0.7927 -0.0331 -0.3630
 2896ntf    on516437   6.575   5.001   3.474  0.1525 -0.0225 -0.1731
 2896ntf    fn416438   6.348   5.240   3.625 -0.0060 -0.4793 -0.0380
 2896ntf    fn416439   6.361   5.050   3.690 -0.3232  0.2382 -0.0754
 2896ntf    fn416440   6.540   5.166   3.688  0.2319  0.0360 -0.2510
 2897ntf    cn116441   6.154   1.531   2.165  0.0550 -0.0416  0.1369
 2897ntf    sn216442   6.292   1.475   2.270 -0.1206  0.0947  0.4404
 2897ntf    nn316443   6.284   1.571   2.395 -0.6018  0.4637  0.1301
 2897ntf    sn216444   6.383   1.687   2.432  0.0385  0.0002 -0.1055
 2897ntf    cn116445   6.526   1.587   2.481 -0.1450 -0.1052  0.2224
 2897ntf    fn416446   6.149   1.661   2.141 -0.1763 -0.0416  0.1819
 2897ntf    fn416447   6.146   1.476   2.045  0.3068  0.0995  0.0545
 2897ntf    fn416448   6.036   1.516   2.222 -0.1285 -0.3984 -0.3308
 2897ntf    on516449   6.261   1.339   2.306  0.2390 -0.0667  0.1370
 2897ntf    on516450   6.404   1.497   2.183 -0.2823 -0.9650 -0.0447
 2897ntf    on516451   6.341   1.753   2.553  0.0515 -0.0193 -0.0903
 2897ntf    on516452   6.427   1.773   2.325 -0.7137  0.3885 -0.1076
 2897ntf    fn416453   6.501   1.503   2.581 -0.1702 -0.0657  0.2494
 2897ntf    fn416454   6.566   1.502   2.388 -0.3968 -0.0471  0.0622
 2897ntf    fn416455   6.627   1.666   2.513  0.0451 -0.4344  0.4428
 2898ntf    cn116456   3.869   5.171   2.647 -0.4250  0.3198 -0.5090
 2898ntf    sn216457   3.845   4.991   2.637  0.0950  0.1923  0.4524
 2898ntf    nn316458   3.694   4.969   2.671  0.2210 -1.1913  0.1917
 2898ntf    sn216459   3.563   4.980   2.585  0.1237  0.1211  0.4800
 2898ntf    cn116460   3.487   5.129   2.655 -0.0824  0.4967 -0.5249
 2898ntf    fn416461   3.823   5.215   2.762  0.0258 -0.1573 -0.1394
 2898ntf    fn416462   3.997   5.206   2.643 -0.4230  0.3771 -0.0326
 2898ntf    fn416463   3.793   5.235   2.560 -0.4120  0.3215 -0.5195
 2898ntf    on516464   3.886   4.951   2.505 -0.4856 -0.5237  0.4836
 2898ntf    on516465   3.935   4.938   2.737 -0.2846 -0.2413  0.5673
 2898ntf    on516466   3.468   4.873   2.605 -0.0709  0.1961 -0.0199
 2898ntf    on516467   3.578   5.023   2.448 -0.1290  0.2337  0.4877
 2898ntf    fn416468   3.357   5.141   2.635 -0.2254 -0.6389 -0.3314
 2898ntf    fn416469   3.496   5.120   2.787  0.1705 -0.2871 -0.5946
 2898ntf    fn416470   3.554   5.238   2.617  0.2374  0.3720 -0.3259
 2899ntf    cn116471   0.833   2.352   4.357 -0.1529  0.0038  0.1742
 2899ntf    sn216472   0.733   2.496   4.403 -0.1670 -0.0367  0.2688
 2899ntf    nn316473   0.790   2.585   4.287 -0.1474 -0.2315  0.1301
 2899ntf    sn216474   0.742   2.600   4.138 -0.1672 -0.1720  0.1423
 2899ntf    cn116475   0.729   2.781   4.134 -0.0513 -0.1608  0.3054
 2899ntf    fn416476   0.788   2.285   4.252  0.1630 -0.0909  0.1000
 2899ntf    fn416477   0.960   2.378   4.332 -0.1565  0.0951  0.2548
 2899ntf    fn416478   0.833   2.263   4.455  0.0781  0.1540  0.3101
 2899ntf    on516479   0.595   2.453   4.403 -0.2017  0.0729  0.2346
 2899ntf    on516480   0.776   2.534   4.536  0.2032 -0.3974  0.2509
 2899ntf    on516481   0.606   2.562   4.109 -0.0219 -0.3426 -0.3306
 2899ntf    on516482   0.844   2.565   4.042  0.0103 -0.1448  0.3194
 2899ntf    fn416483   0.851   2.830   4.117  0.0981 -0.6539 -0.0579
 2899ntf    fn416484   0.649   2.826   4.039  0.1989 -0.1592  0.0927
 2899ntf    fn416485   0.684   2.821   4.252  0.5349  0.7078  0.2459
 2900ntf    cn116486   2.839   6.189   3.525  0.1833  0.0395  0.3786
 2900ntf    sn216487   2.709   6.116   3.629 -0.0045 -0.3478 -0.1237
 2900ntf    nn316488   2.600   6.228   3.636  0.0336 -0.3552  0.6375
 2900ntf    sn216489   2.444   6.206   3.628  0.0309 -0.0794 -0.0940
 2900ntf    cn116490   2.429   6.106   3.779  0.2020 -0.1958 -0.1527
 2900ntf    fn416491   2.943   6.113   3.495 -0.0875  0.0852 -0.7162
 2900ntf    fn416492   2.784   6.217   3.408  0.8663  0.6995  0.2078
 2900ntf    fn416493   2.891   6.302   3.572  0.7824  0.0020 -0.1842
 2900ntf    on516494   2.685   6.002   3.543  0.2385  0.0180 -0.6814
 2900ntf    on516495   2.775   6.094   3.756 -0.6344  0.0060  0.2646
 2900ntf    on516496   2.388   6.121   3.526  0.3664  0.0354 -0.3789
 2900ntf    on516497   2.372   6.329   3.651 -0.0812 -0.0144 -0.7846
 2900ntf    fn416498   2.472   5.981   3.770 -0.4043 -0.4235  0.0687
 2900ntf    fn416499   2.495   6.168   3.877 -0.4355 -0.1849  0.2761
 2900ntf    fn416500   2.302   6.098   3.814  0.2321  0.2124  0.0658
 2901ntf    cn116501   6.938   0.423   0.506  0.0216  0.1971  0.3009
 2901ntf    sn216502   7.021   0.449   0.346 -0.0707 -0.0412  0.2147
 2901ntf    nn316503   6.944   0.567   0.277 -0.3052 -0.3439 -0.0469
 2901ntf    sn216504   6.932   0.719   0.314 -0.3620 -0.3424 -0.0710
 2901ntf    cn116505   6.754   0.738   0.341 -0.2885  0.2951 -0.0121
 2901ntf    fn416506   6.951   0.529   0.584  0.2231  0.1307  0.3582
 2901ntf    fn416507   6.813   0.383   0.500  0.2885 -0.6097  0.0445
 2901ntf    fn416508   6.999   0.319   0.561  0.3072  0.0642 -0.2563
 2901ntf    on516509   7.157   0.476   0.385  0.0291  0.0970 -0.2158
 2901ntf    on516510   6.998   0.329   0.269 -0.0597  0.2630 -0.2741
 2901ntf    on516511   6.937   0.797   0.192  1.4739 -0.0649  0.1440
 2901ntf    on516512   7.013   0.782   0.415 -0.2926  0.7958 -0.8096
 2901ntf    fn416513   6.724   0.862   0.378  0.1804  0.1892  0.7373
 2901ntf    fn416514   6.690   0.718   0.227  0.0665 -0.3080 -0.1093
 2901ntf    fn416515   6.704   0.653   0.430 -0.4086  0.3124 -0.0634
 2902ntf    cn116516   3.041   4.389   6.152 -0.2043 -0.3661  0.1056
 2902ntf    sn216517   3.013   4.414   5.974 -0.3341 -0.2410  0.1440
 2902ntf    nn316518   3.117   4.529   5.951  0.4407 -0.8810  0.4464
 2902ntf    sn216519   3.244   4.523   5.858  0.1438  0.2148 -0.0408
 2902ntf    cn116520   3.175   4.545   5.691 -0.0999  0.2238  0.0603
 2902ntf    fn416521   3.146   4.314   6.182 -0.6764 -0.7944  0.7223
 2902ntf    fn416522   3.060   4.507   6.210  0.3004 -0.5188  0.2565
 2902ntf    fn416523   2.934   4.342   6.214 -0.5388  0.1308 -0.0856
 2902ntf    on516524   3.034   4.284   5.917 -1.0051 -0.1472 -0.3422
 2902ntf    on516525   2.876   4.459   5.966 -0.3300 -0.2910 -0.2099
 2902ntf    on516526   3.312   4.396   5.858 -0.0120  0.1285  0.1885
 2902ntf    on516527   3.323   4.643   5.870 -0.1329  0.4716 -0.7293
 2902ntf    fn416528   3.086   4.643   5.696 -0.2397  0.1106 -0.1653
 2902ntf    fn416529   3.260   4.576   5.596 -0.3518 -0.0447 -0.2590
 2902ntf    fn416530   3.118   4.433   5.648  0.2362  0.0659  0.0246
 2903ntf    cn116531   3.859   0.636   2.720 -0.3390  0.0379  0.2049
 2903ntf    sn216532   3.827   0.473   2.648 -0.3590  0.0971  0.0798
 2903ntf    nn316533   3.928   0.390   2.736 -0.0389  0.2690 -0.1260
 2903ntf    sn216534   4.078   0.358   2.703 -0.0143  0.0042  0.2428
 2903ntf    cn116535   4.156   0.394   2.863  0.2834  0.2384  0.0463
 2903ntf    fn416536   3.811   0.660   2.841  0.4008  0.8019  0.3577
 2903ntf    fn416537   3.989   0.654   2.738 -0.3217  0.3205 -0.1929
 2903ntf    fn416538   3.812   0.730   2.640 -0.2884  0.4573  0.6605
 2903ntf    on516539   3.688   0.451   2.679 -0.2031  0.0536  0.7634
 2903ntf    on516540   3.867   0.486   2.510 -0.0846  0.2095  0.1699
 2903ntf    on516541   4.145   0.443   2.607  0.3838 -0.2701  0.2745
 2903ntf    on516542   4.099   0.218   2.676 -0.3503 -0.0589  0.3084
 2903ntf    fn416543   4.280   0.349   2.869  0.1826 -0.0560 -0.0816
 2903ntf    fn416544   4.161   0.524   2.890 -0.1240  0.1959  0.3357
 2903ntf    fn416545   4.099   0.346   2.972 -0.1589  0.1031 -0.2451
 2904ntf    cn116546   2.110   7.015   5.534 -0.0160 -0.0580 -0.3107
 2904ntf    sn216547   1.933   7.013   5.577  0.1076  0.1167  0.2122
 2904ntf    nn316548   1.883   7.107   5.462 -0.1484 -0.4473 -0.1377
 2904ntf    sn216549   1.754   7.197   5.466  0.3616  0.3034 -0.3678
 2904ntf    cn116550   1.828   7.356   5.513  0.2646  0.1670  0.2463
 2904ntf    fn416551   2.136   6.982   5.409 -0.5410 -0.5156 -0.3053
 2904ntf    fn416552   2.164   7.134   5.552  0.1736 -0.1174 -0.4803
 2904ntf    fn416553   2.181   6.927   5.603 -0.1248 -0.1180 -0.2741
 2904ntf    on516554   1.907   6.873   5.558  0.0421  0.1187  0.2858
 2904ntf    on516555   1.929   7.064   5.712  0.1202 -0.2147  0.3374
 2904ntf    on516556   1.656   7.167   5.568  0.5890  0.3311 -0.1418
 2904ntf    on516557   1.712   7.221   5.330 -0.0836  0.0621 -0.2747
 2904ntf    fn416558   1.928   7.386   5.432 -0.0026  0.6665  0.0978
 2904ntf    fn416559   1.750   7.459   5.484  0.2404  0.2780  0.6882
 2904ntf    fn416560   1.869   7.360   5.639  0.0426  0.5871  0.3068
 2905ntf    cn116561   4.046   0.270   0.867 -0.0517  0.1600 -0.2209
 2905ntf    sn216562   4.081   0.438   0.805 -0.3622  0.2195 -0.2365
 2905ntf    nn316563   4.193   0.498   0.897 -0.3323  0.6583 -0.5564
 2905ntf    sn216564   4.335   0.549   0.857  0.1774 -0.1673  0.1602
 2905ntf    cn116565   4.307   0.729   0.851 -0.1115 -0.1961  0.6429
 2905ntf    fn416566   3.975   0.205   0.777 -0.5315  0.2333  0.1008
 2905ntf    fn416567   4.145   0.191   0.904 -0.1543 -0.1864 -0.6837
 2905ntf    fn416568   3.977   0.269   0.980  0.3453 -0.3088  0.0193
 2905ntf    on516569   4.111   0.414   0.666 -0.2906  0.1799 -0.2139
 2905ntf    on516570   3.955   0.504   0.831 -0.3572 -0.1018  0.6559
 2905ntf    on516571   4.382   0.524   0.723 -0.3959  0.2618 -0.1248
 2905ntf    on516572   4.427   0.541   0.968  0.2016 -0.5622  0.1138
 2905ntf    fn416573   4.244   0.780   0.956 -0.1489  0.1291  0.4622
 2905ntf    fn416574   4.423   0.793   0.849  0.0081 -0.4316 -0.0382
 2905ntf    fn416575   4.242   0.768   0.743  0.7813 -0.4030  0.0168
 2906ntf    cn116576   5.398   3.958   3.192 -0.0377  0.2714  0.1395
 2906ntf    sn216577   5.427   3.953   3.371  0.1232  0.3609  0.1158
 2906ntf    nn316578   5.288   3.899   3.422  0.0690  0.2145 -0.1837
 2906ntf    sn216579   5.152   3.975   3.443 -0.0854 -0.0534 -0.2164
 2906ntf    cn116580   5.042   3.834   3.408  0.2349 -0.3967  0.1412
 2906ntf    fn416581   5.501   3.997   3.119  0.0517  0.0217  0.1315
 2906ntf    fn416582   5.361   3.838   3.149 -0.3063  0.4654 -0.1869
 2906ntf    fn416583   5.301   4.042   3.160 -0.2457  0.0570  0.2029
 2906ntf    on516584   5.539   3.864   3.381  0.1356  0.4198  0.4906
 2906ntf    on516585   5.453   4.091   3.405  0.7213  0.1516  0.5269
 2906ntf    on516586   5.121   4.073   3.342  0.0216  0.2457  0.0402
 2906ntf    on516587   5.126   4.011   3.580 -0.6183 -0.1179 -0.2983
 2906ntf    fn416588   5.054   3.741   3.501 -0.0293 -0.0927  0.4849
 2906ntf    fn416589   4.914   3.869   3.400  0.4167  0.1219 -0.5297
 2906ntf    fn416590   5.072   3.781   3.291  0.4002 -0.1143  0.0557
 2907ntf    cn116591   4.772   2.885   2.430 -0.1662 -0.4108 -0.0200
 2907ntf    sn216592   4.886   2.928   2.295 -0.2712  0.0498  0.0384
 2907ntf    nn316593   4.792   2.894   2.175 -0.3838 -0.0021  0.1414
 2907ntf    sn216594   4.664   2.971   2.125 -0.2447  0.0939 -0.0707
 2907ntf    cn116595   4.534   2.858   2.183 -0.1969  0.0520 -0.0462
 2907ntf    fn416596   4.832   2.887   2.548  0.0384 -0.2109 -0.1262
 2907ntf    fn416597   4.666   2.963   2.442  0.0608 -0.1714  0.4276
 2907ntf    fn416598   4.729   2.760   2.415 -0.3017 -0.3640 -0.0235
 2907ntf    on516599   4.925   3.066   2.316  0.3864 -0.1311  0.0262
 2907ntf    on516600   4.992   2.833   2.315 -0.3474 -0.0181  0.1219
 2907ntf    on516601   4.651   2.965   1.982 -0.4589  0.9760 -0.0951
 2907ntf    on516602   4.640   3.101   2.181  0.2539  0.2444 -0.1993
 2907ntf    fn416603   4.416   2.899   2.141 -0.2656 -0.1696 -0.0712
 2907ntf    fn416604   4.544   2.733   2.141 -0.0772 -0.0552  0.2938
 2907ntf    fn416605   4.526   2.854   2.315 -0.6162  0.1874 -0.0659
 2908ntf    cn116606   1.798   5.039   4.788  0.4637 -0.5917  0.6429
 2908ntf    sn216607   1.821   5.194   4.880 -0.4213 -0.2835  0.3533
 2908ntf    nn316608   1.950   5.152   4.957 -0.1083 -0.0130 -0.0179
 2908ntf    sn216609   1.963   5.118   5.110  0.3526  0.0806 -0.0350
 2908ntf    cn116610   2.028   4.950   5.090  0.0219 -0.1126  0.4955
 2908ntf    fn416611   1.908   4.990   4.733  0.7673  0.7307  0.0200
 2908ntf    fn416612   1.750   4.949   4.871 -0.1647 -0.2966  0.6039
 2908ntf    fn416613   1.704   5.053   4.695  0.5669 -0.5325  0.5459
 2908ntf    on516614   1.850   5.292   4.778 -0.4046 -0.3816  0.2639
 2908ntf    on516615   1.698   5.212   4.953 -0.2629  0.4302  0.4572
 2908ntf    on516616   1.839   5.093   5.179  0.3371 -0.2722 -0.1901
 2908ntf    on516617   2.070   5.185   5.181  0.6113 -0.6007  0.2218
 2908ntf    fn416618   2.157   4.947   5.058 -0.0836  0.3983  0.0039
 2908ntf    fn416619   2.006   4.875   5.197  0.3555  0.0741  0.6963
 2908ntf    fn416620   1.955   4.888   4.998  0.4922 -0.0049  0.0405
 2909ntf    cn116621   5.422   4.300   6.749 -0.0607  0.0172 -0.6304
 2909ntf    sn216622   5.599   4.338   6.744 -0.0655  0.1730  0.2589
 2909ntf    nn316623   5.577   4.485   6.794 -0.3851  0.2264 -0.0401
 2909ntf    sn216624   5.585   4.533   6.943  0.4437 -0.0769  0.0177
 2909ntf    cn116625   5.761   4.576   6.962  0.2868  0.4124  0.3913
 2909ntf    fn416626   5.389   4.180   6.704 -0.5062 -0.2773  0.4381
 2909ntf    fn416627   5.377   4.289   6.873  0.3094  0.1559 -0.4835
 2909ntf    fn416628   5.356   4.399   6.691  0.3451  0.2576 -0.6794
 2909ntf    on516629   5.663   4.243   6.832  0.1727 -0.2221 -0.3341
 2909ntf    on516630   5.634   4.329   6.604 -0.1956 -0.1507  0.2444
 2909ntf    on516631   5.565   4.428   7.039  0.4485  0.1113  0.2268
 2909ntf    on516632   5.523   4.660   6.972  0.5044 -0.0888  0.1987
 2909ntf    fn416633   5.791   4.693   6.909 -0.2198  0.2632 -0.2453
 2909ntf    fn416634   5.790   4.587   7.091  0.1864  0.3577  0.4186
 2909ntf    fn416635   5.838   4.482   6.909 -0.2901 -0.0434  0.3556
 2910ntf    cn116636   4.676   6.133   0.357 -0.1344 -0.3275  0.1424
 2910ntf    sn216637   4.528   6.038   0.312 -0.1539 -0.1264 -0.2230
 2910ntf    nn316638   4.565   5.991   0.167  0.3276  0.4486 -0.2905
 2910ntf    sn216639   4.488   6.009   0.032 -0.2569 -0.2510 -0.0584
 2910ntf    cn116640   4.534   5.861  -0.064  0.3284 -0.1330  0.0341
 2910ntf    fn416641   4.673   6.255   0.305  0.2278 -0.0494  0.7592
 2910ntf    fn416642   4.693   6.149   0.487 -0.0674  0.2215  0.0722
 2910ntf    fn416643   4.784   6.076   0.307 -0.0972  0.0236 -0.1893
 2910ntf    on516644   4.517   5.926   0.402  0.4054 -0.0885 -0.1052
 2910ntf    on516645   4.425   6.139   0.316  0.1103  0.1443 -0.1977
 2910ntf    on516646   4.553   6.111  -0.046 -0.5721  0.2024  0.2701
 2910ntf    on516647   4.345   6.013   0.047 -0.2248 -0.1042  0.2208
 2910ntf    fn416648   4.498   5.749  -0.003 -0.2881 -0.2013 -0.4513
 2910ntf    fn416649   4.469   5.869  -0.179 -0.0917  0.0703  0.2839
 2910ntf    fn416650   4.665   5.854  -0.081  0.3850  0.3092  0.2770
 2911ntf    cn116651   3.596   1.346   2.582 -0.2844 -0.0384  0.1265
 2911ntf    sn216652   3.571   1.525   2.595 -0.0776  0.0098 -0.1326
 2911ntf    nn316653   3.468   1.528   2.714  0.3715  0.4688  0.2530
 2911ntf    sn216654   3.346   1.623   2.740 -0.0210  0.0042  0.1335
 2911ntf    cn116655   3.227   1.526   2.642 -0.1047 -0.1252  0.3619
 2911ntf    fn416656   3.486   1.280   2.547 -0.0288 -0.5732  0.3105
 2911ntf    fn416657   3.687   1.310   2.494 -0.1032  0.1390  0.2421
 2911ntf    fn416658   3.638   1.296   2.698 -0.0017 -0.2771 -0.0770
 2911ntf    on516659   3.706   1.568   2.621  0.1597 -0.6987 -0.1655
 2911ntf    on516660   3.511   1.557   2.468  0.0131  0.3066 -0.1007
 2911ntf    on516661   3.341   1.752   2.676 -0.1086 -0.1835 -0.2408
 2911ntf    on516662   3.298   1.620   2.876 -0.0173  0.5056  0.1477
 2911ntf    fn416663   3.241   1.531   2.511 -0.3141  0.0916  0.3474
 2911ntf    fn416664   3.227   1.398   2.676 -0.0072 -0.3452 -0.4362
 2911ntf    fn416665   3.104   1.572   2.657 -0.1292 -0.1643  0.2833
 2912ntf    cn116666   4.989   5.012   5.702 -0.1919  0.1030  0.1681
 2912ntf    sn216667   4.848   4.901   5.734  0.0050 -0.2265 -0.0994
 2912ntf    nn316668   4.915   4.773   5.672  0.2474  0.1170 -0.5609
 2912ntf    sn216669   4.844   4.651   5.603 -0.1222  0.1489 -0.2404
 2912ntf    cn116670   4.885   4.678   5.428  0.5797 -0.0993 -0.1140
 2912ntf    fn416671   5.039   4.996   5.580 -0.5568 -0.0545  0.0370
 2912ntf    fn416672   4.959   5.137   5.730 -0.3314  0.0847  0.1023
 2912ntf    fn416673   5.093   4.987   5.780 -0.5053 -0.5285  0.3929
 2912ntf    on516674   4.846   4.907   5.878  0.0768 -0.4111 -0.0890
 2912ntf    on516675   4.747   4.964   5.652  0.4725  0.7665  0.0693
 2912ntf    on516676   4.700   4.651   5.610 -0.1207 -0.1938 -0.1658
 2912ntf    on516677   4.915   4.531   5.639 -0.4325  0.2325  0.6706
 2912ntf    fn416678   4.837   4.586   5.345  0.5979 -0.3573  0.1571
 2912ntf    fn416679   4.837   4.789   5.377  0.4907  0.1181  0.4393
 2912ntf    fn416680   5.016   4.677   5.407  0.5603  0.2523 -0.2475
 2913ntf    cn116681   1.010   3.703   5.622 -0.1979  0.0433 -0.0452
 2913ntf    sn216682   0.925   3.776   5.479 -0.0290 -0.3758 -0.3600
 2913ntf    nn316683   0.959   3.927   5.503  0.3366 -0.5279  0.0859
 2913ntf    sn216684   1.072   4.019   5.445  0.2592 -0.5323 -0.0711
 2913ntf    cn116685   1.007   4.088   5.290 -0.1072  0.1667  0.3821
 2913ntf    fn416686   0.979   3.767   5.734 -0.2180  0.1910 -0.1362
 2913ntf    fn416687   0.975   3.578   5.651  0.1811 -0.0925 -0.1648
 2913ntf    fn416688   1.141   3.709   5.606 -0.1861 -0.0894 -0.0031
 2913ntf    on516689   0.982   3.716   5.361  0.1757 -0.3257 -0.2879
 2913ntf    on516690   0.787   3.746   5.506 -0.1167  0.3047 -0.0497
 2913ntf    on516691   1.193   3.959   5.395  0.5945  0.1605 -0.1081
 2913ntf    on516692   1.095   4.139   5.523  0.3011 -0.5493 -0.0569
 2913ntf    fn416693   0.963   3.997   5.204  0.0418  0.3404  0.1184
 2913ntf    fn416694   0.898   4.161   5.305 -0.2875 -0.0196  0.0040
 2913ntf    fn416695   1.092   4.164   5.222 -0.1787 -0.1084 -0.0181
 2914ntf    cn116696   2.255   1.028   0.134 -0.0483 -0.1130  0.0925
 2914ntf    sn216697   2.272   1.143   0.274  0.1458  0.0082 -0.0307
 2914ntf    nn316698   2.411   1.202   0.232  0.2551 -0.4553 -0.3281
 2914ntf    sn216699   2.544   1.211   0.315  0.0079 -0.3027  0.0493
 2914ntf    cn116700   2.622   1.058   0.257  0.4005 -0.0072 -0.2078
 2914ntf    fn416701   2.143   0.958   0.136 -0.1130 -0.0168 -0.1773
 2914ntf    fn416702   2.254   1.090   0.017 -0.1054 -0.2975 -0.0045
 2914ntf    fn416703   2.355   0.942   0.124  0.0410  0.0131 -0.1017
 2914ntf    on516704   2.163   1.236   0.260 -0.1640 -0.3057  0.3102
 2914ntf    on516705   2.277   1.059   0.390 -0.5242 -0.2754 -0.2054
 2914ntf    on516706   2.530   1.206   0.459 -0.3667  0.0100  0.0273
 2914ntf    on516707   2.633   1.315   0.269 -0.1903  0.0191  0.3847
 2914ntf    fn416708   2.656   1.052   0.129 -0.3842 -0.7063 -0.3899
 2914ntf    fn416709   2.731   1.037   0.328  0.1428  0.5641  0.3656
 2914ntf    fn416710   2.549   0.953   0.292  0.4165  0.0279 -0.0704
 2915ntf    cn116711   5.813   6.787   2.373  0.1218  0.5631  0.0980
 2915ntf    sn216712   5.810   6.827   2.550  0.1943 -0.0233  0.2314
 2915ntf    nn316713   5.654   6.821   2.571  0.1457  0.3898 -0.0006
 2915ntf    sn216714   5.541   6.923   2.533 -0.2632 -0.0051  0.1429
 2915ntf    cn116715   5.473   6.954   2.698 -0.1501 -0.1928  0.2259
 2915ntf    fn416716   5.738   6.870   2.302  0.1942  0.5860  0.0470
 2915ntf    fn416717   5.933   6.776   2.318  0.0690  0.1047  0.0763
 2915ntf    fn416718   5.747   6.674   2.359  0.1816  0.4964  0.3559
 2915ntf    on516719   5.876   6.721   2.623  0.3086  0.2071  0.4659
 2915ntf    on516720   5.871   6.957   2.559 -0.3921  0.2635  0.1334
 2915ntf    on516721   5.431   6.868   2.458  0.5376 -1.0029 -0.3415
 2915ntf    on516722   5.588   7.053   2.493  0.0610 -0.3779 -0.7290
 2915ntf    fn416723   5.561   7.006   2.782  0.2979  0.0726 -0.3964
 2915ntf    fn416724   5.366   7.032   2.693 -0.1836 -0.2586 -0.1465
 2915ntf    fn416725   5.438   6.836   2.747  0.2363 -0.3786  0.0569
 2916ntf    cn116726   6.735   1.451   6.548  0.0598  0.4550  0.1682
 2916ntf    sn216727   6.873   1.443   6.665  0.4134  0.2902 -0.2555
 2916ntf    nn316728   6.981   1.493   6.563  0.2683 -0.0439 -0.5724
 2916ntf    sn216729   7.113   1.570   6.597  0.0014 -0.0023  0.3880
 2916ntf    cn116730   7.228   1.510   6.470 -0.0796  0.2189  0.2087
 2916ntf    fn416731   6.624   1.418   6.612 -0.0597  0.0212 -0.2570
 2916ntf    fn416732   6.715   1.572   6.496 -0.0969  0.0076 -0.8451
 2916ntf    fn416733   6.753   1.370   6.445 -0.0941  0.3147  0.2517
 2916ntf    on516734   6.836   1.526   6.777 -0.0349  0.3261 -0.4296
 2916ntf    on516735   6.882   1.302   6.695 -0.0769  0.2893 -0.1063
 2916ntf    on516736   7.178   1.533   6.720 -0.0219 -0.7753  0.1707
 2916ntf    on516737   7.099   1.711   6.570  0.4434  0.0194  0.2666
 2916ntf    fn416738   7.202   1.567   6.353  0.3727 -0.0898 -0.0453
 2916ntf    fn416739   7.355   1.532   6.501 -0.2457  0.9965  0.3577
 2916ntf    fn416740   7.213   1.382   6.439  0.1082  0.3038 -0.2495
 2917ntf    cn116741   4.205   1.011   7.011  0.2739 -0.1701  0.2889
 2917ntf    sn216742   4.026   0.992   7.031  0.2539 -0.2649  0.0298
 2917ntf    nn316743   3.976   0.935   6.894  0.0441 -0.0389  0.0111
 2917ntf    sn216744   3.937   0.791   6.846 -0.2226  0.0330  0.0103
 2917ntf    cn116745   3.960   0.811   6.667 -0.1037 -0.5776 -0.0453
 2917ntf    fn416746   4.253   1.122   6.957  0.0094 -0.0876  0.2202
 2917ntf    fn416747   4.261   1.004   7.130  0.0217 -0.1277  0.4103
 2917ntf    fn416748   4.263   0.911   6.946  0.3281  0.1371 -0.1370
 2917ntf    on516749   4.016   0.901   7.143 -0.5139 -0.3373 -0.0922
 2917ntf    on516750   3.977   1.127   7.042 -0.4947 -0.5069 -0.2043
 2917ntf    on516751   3.796   0.758   6.855 -0.1463 -0.2033  0.3672
 2917ntf    on516752   4.035   0.695   6.890  0.3337  0.5841 -0.0258
 2917ntf    fn416753   3.874   0.897   6.616  0.4720 -0.1079 -0.2307
 2917ntf    fn416754   4.082   0.853   6.639 -0.3614  0.3275  0.1680
 2917ntf    fn416755   3.939   0.700   6.598 -0.2129 -0.1907 -0.6427
 2918ntf    cn116756   3.806   2.354   4.516 -0.1256 -0.3241 -0.0322
 2918ntf    sn216757   3.867   2.358   4.344  0.1565  0.1326  0.0759
 2918ntf    nn316758   3.863   2.209   4.294 -0.4340  0.1730  0.0006
 2918ntf    sn216759   3.863   2.166   4.143 -0.0567  0.0131  0.0456
 2918ntf    cn116760   3.687   2.143   4.105 -0.0773  0.1577  0.0544
 2918ntf    fn416761   3.678   2.323   4.519 -0.1058 -0.3608  0.3902
 2918ntf    fn416762   3.865   2.260   4.587 -0.0160 -0.2351 -0.0050
 2918ntf    fn416763   3.814   2.470   4.580  0.0235 -0.4379  0.1567
 2918ntf    on516764   3.779   2.447   4.274 -0.3045  0.0996  0.6056
 2918ntf    on516765   4.001   2.408   4.365  0.1748  0.0670  0.1171
 2918ntf    on516766   3.916   2.033   4.123  0.1118  0.0909 -0.0238
 2918ntf    on516767   3.909   2.273   4.058 -0.0108  0.1177  0.2009
 2918ntf    fn416768   3.672   2.081   3.990  0.6085  0.3298 -0.1284
 2918ntf    fn416769   3.627   2.067   4.196  0.1444 -0.2297 -0.1228
 2918ntf    fn416770   3.620   2.257   4.097 -0.0881  0.1815  0.4502
 2919ntf    cn116771   6.163   5.093   0.781 -0.0446  0.1886  0.1848
 2919ntf    sn216772   6.343   5.066   0.779 -0.0687  0.0437 -0.2620
 2919ntf    nn316773   6.365   4.916   0.818  0.7515  0.2244  0.0026
 2919ntf    sn216774   6.407   4.842   0.951  0.0678 -0.5358 -0.1953
 2919ntf    cn116775   6.571   4.785   0.897  0.2842 -0.1249  0.0241
 2919ntf    fn416776   6.094   5.036   0.879  0.2085  0.5039  0.5487
 2919ntf    fn416777   6.131   5.221   0.778 -0.3994  0.0947  0.0381
 2919ntf    fn416778   6.119   5.033   0.672  0.1452 -0.2636  0.3510
 2919ntf    on516779   6.380   5.082   0.641 -0.2992 -0.1497 -0.3465
 2919ntf    on516780   6.382   5.168   0.874 -0.2800  0.2507 -0.3978
 2919ntf    on516781   6.338   4.717   0.972 -0.4164 -0.1899  0.3254
 2919ntf    on516782   6.415   4.928   1.066  0.0800 -0.4766 -0.2405
 2919ntf    fn416783   6.564   4.709   0.789 -0.5429 -0.5228  0.3397
 2919ntf    fn416784   6.641   4.892   0.864  0.1630 -0.0222  0.0988
 2919ntf    fn416785   6.629   4.716   0.994  0.2710  0.1487  0.2270
 2920ntf    cn116786   3.132   1.837   4.059 -0.4652  0.1865 -0.0257
 2920ntf    sn216787   3.272   1.793   4.167 -0.3108  0.1900 -0.2236
 2920ntf    nn316788   3.208   1.664   4.229  0.5979  0.0620  0.4696
 2920ntf    sn216789   3.121   1.643   4.359 -0.0523 -0.0483  0.0235
 2920ntf    cn116790   3.191   1.491   4.429  0.0429  0.0803  0.2060
 2920ntf    fn416791   3.121   1.745   3.965 -0.4024 -0.0442  0.1890
 2920ntf    fn416792   3.012   1.837   4.115 -0.6019  0.0433 -0.3204
 2920ntf    fn416793   3.157   1.948   3.992  0.6156 -0.2328 -0.3371
 2920ntf    on516794   3.377   1.761   4.074  0.3441  0.4993  0.4051
 2920ntf    on516795   3.298   1.911   4.245 -0.5650  0.1154 -0.0256
 2920ntf    on516796   2.989   1.602   4.320  0.0329  0.1714 -0.5204
 2920ntf    on516797   3.133   1.740   4.465  0.2353 -0.0484 -0.0073
 2920ntf    fn416798   3.114   1.443   4.525 -0.2078 -0.1153 -0.0939
 2920ntf    fn416799   3.191   1.396   4.338 -0.6854  0.1612  0.1161
 2920ntf    fn416800   3.315   1.497   4.476  0.3134  0.3320 -0.5217
 2921ntf    cn116801   5.496   6.586   6.898 -0.3257 -0.2084  0.1334
 2921ntf    sn216802   5.456   6.515   6.735  0.2751 -0.2083 -0.0195
 2921ntf    nn316803   5.364   6.625   6.670  0.2072 -0.2239  0.0497
 2921ntf    sn216804   5.222   6.656   6.730  0.1922  0.1289 -0.1681
 2921ntf    cn116805   5.117   6.641   6.583  0.2312  0.0872 -0.1919
 2921ntf    fn416806   5.390   6.602   6.975 -0.4788 -0.1396 -0.0897
 2921ntf    fn416807   5.585   6.514   6.966 -0.2191 -0.1796  0.0258
 2921ntf    fn416808   5.554   6.703   6.880 -0.6964 -0.1442 -0.6886
 2921ntf    on516809   5.580   6.510   6.662  0.2496  0.5727 -0.1219
 2921ntf    on516810   5.400   6.383   6.756  0.0473 -0.1575 -0.3052
 2921ntf    on516811   5.202   6.796   6.759 -0.0453  0.0361  0.1129
 2921ntf    on516812   5.156   6.558   6.812  0.4709  0.0034 -0.0904
 2921ntf    fn416813   5.137   6.535   6.506 -0.8001 -0.2060 -0.0821
 2921ntf    fn416814   4.992   6.624   6.624  0.0369  0.3887 -0.6440
 2921ntf    fn416815   5.118   6.754   6.514  0.0073  0.4225  0.3468
 2922ntf    cn116816   3.973   3.079   1.291  0.2414 -0.1506  0.0993
 2922ntf    sn216817   3.951   2.903   1.252 -0.1713 -0.0285 -0.2151
 2922ntf    nn316818   4.088   2.860   1.189 -0.1194 -0.3794  0.1287
 2922ntf    sn216819   4.167   2.732   1.232  0.2545 -0.1886  0.0153
 2922ntf    cn116820   4.289   2.717   1.098  0.0569  0.2672 -0.2163
 2922ntf    fn416821   3.890   3.114   1.387  0.1096  0.1604 -0.1294
 2922ntf    fn416822   4.093   3.117   1.333  0.1191  0.3299  0.0208
 2922ntf    fn416823   3.957   3.161   1.188  0.3791 -0.2117  0.0282
 2922ntf    on516824   3.913   2.841   1.377 -0.0430  0.4204  0.0477
 2922ntf    on516825   3.844   2.912   1.155 -0.1536  0.3074 -0.2049
 2922ntf    on516826   4.094   2.608   1.228  0.5429 -0.4041  0.9908
 2922ntf    on516827   4.239   2.753   1.356 -0.1973 -0.5605  0.3460
 2922ntf    fn416828   4.361   2.607   1.111  0.0616  0.3022  0.0489
 2922ntf    fn416829   4.232   2.713   0.978  0.2374 -0.0429 -0.2922
 2922ntf    fn416830   4.369   2.822   1.086  0.1382  0.2180 -0.1004
 2923ntf    cn116831   3.346   1.372   3.800  0.0535 -0.5352  0.0660
 2923ntf    sn216832   3.514   1.364   3.733  0.0632 -0.1103  0.0401
 2923ntf    nn316833   3.551   1.214   3.756  0.2474 -0.1133 -0.2607
 2923ntf    sn216834   3.610   1.109   3.655 -0.1978 -0.4415 -0.1815
 2923ntf    cn116835   3.699   1.015   3.782  0.1505 -0.3013 -0.3212
 2923ntf    fn416836   3.345   1.394   3.931  0.3200 -0.0888 -0.0074
 2923ntf    fn416837   3.276   1.470   3.746  0.4551  0.0528  0.5996
 2923ntf    fn416838   3.285   1.258   3.773 -0.1887 -0.4324  0.1679
 2923ntf    on516839   3.502   1.394   3.592 -0.3694 -0.7971 -0.0719
 2923ntf    on516840   3.592   1.455   3.814  0.3865 -0.0314 -0.3529
 2923ntf    on516841   3.716   1.150   3.567 -0.1840  0.0097  0.0418
 2923ntf    on516842   3.519   1.013   3.597 -0.2118 -0.4490 -0.1473
 2923ntf    fn416843   3.741   0.899   3.733 -0.0330 -0.2155 -0.6835
 2923ntf    fn416844   3.804   1.081   3.827  0.2940 -0.7962  0.0878
 2923ntf    fn416845   3.621   0.985   3.884  0.0442  0.3535 -0.2098
 2924ntf    cn116846   3.614   4.563   3.367 -0.0199  0.1153  0.0550
 2924ntf    sn216847   3.771   4.528   3.282  0.0286 -0.0483  0.2101
 2924ntf    nn316848   3.801   4.385   3.338 -0.0552 -0.1566 -0.0246
 2924ntf    sn216849   3.900   4.331   3.447 -0.1266  0.0755  0.1545
 2924ntf    cn116850   4.027   4.258   3.338 -0.0511  0.5781 -0.0989
 2924ntf    fn416851   3.629   4.553   3.498 -0.0218  0.8327  0.1159
 2924ntf    fn416852   3.577   4.688   3.349  0.0489  0.1846  0.3770
 2924ntf    fn416853   3.521   4.476   3.333  0.1203 -0.0373  0.0604
 2924ntf    on516854   3.724   4.529   3.146 -0.5455  0.1724  0.4094
 2924ntf    on516855   3.858   4.636   3.324  0.1823 -0.2148  0.3195
 2924ntf    on516856   3.857   4.212   3.515 -0.1818 -0.0949 -0.1733
 2924ntf    on516857   3.972   4.429   3.525 -0.1856  0.1306  0.1392
 2924ntf    fn416858   4.083   4.346   3.257  0.5714  0.4045  0.1398
 2924ntf    fn416859   4.118   4.190   3.405 -0.3398 -0.4945 -0.7705
 2924ntf    fn416860   3.973   4.162   3.266 -0.4582  0.3985  0.4346
 2925ntf    cn116861   2.986   5.336   4.771 -0.2826 -0.1196  0.4134
 2925ntf    sn216862   2.817   5.296   4.824 -0.3644 -0.2111  0.0830
 2925ntf    nn316863   2.736   5.310   4.690 -0.1459 -0.0043 -0.0274
 2925ntf    sn216864   2.649   5.431   4.640 -0.1829  0.0003  0.0493
 2925ntf    cn116865   2.483   5.392   4.704 -0.1509 -0.0616  0.0955
 2925ntf    fn416866   2.999   5.458   4.721 -0.6827 -0.1603  0.2126
 2925ntf    fn416867   3.076   5.319   4.867  0.2888  0.5875  0.0099
 2925ntf    fn416868   3.030   5.254   4.677 -0.2037  0.1453  0.2172
 2925ntf    on516869   2.827   5.156   4.857  0.2336 -0.1821  0.0306
 2925ntf    on516870   2.784   5.395   4.923  0.2861  0.6337 -0.5264
 2925ntf    on516871   2.637   5.430   4.497 -0.5760  0.1516  0.0815
 2925ntf    on516872   2.687   5.552   4.709  1.0451 -0.2145 -0.2204
 2925ntf    fn416873   2.481   5.337   4.824 -0.2211 -0.6021 -0.1511
 2925ntf    fn416874   2.424   5.508   4.726  0.4911  0.2123  0.4206
 2925ntf    fn416875   2.409   5.323   4.619 -0.3201 -0.3373  0.4659
 2926ntf    cn116876   4.081   5.213   6.226 -0.1192 -0.1173 -0.3434
 2926ntf    sn216877   4.235   5.307   6.200 -0.1689  0.0941  0.1280
 2926ntf    nn316878   4.248   5.271   6.048 -0.0415  0.5939  0.0179
 2926ntf    sn216879   4.182   5.337   5.922 -0.3348 -0.1054 -0.2013
 2926ntf    cn116880   4.313   5.452   5.870 -0.0290 -0.2980  0.1380
 2926ntf    fn416881   3.985   5.274   6.159 -0.3852 -0.4465 -0.2627
 2926ntf    fn416882   4.084   5.090   6.179 -0.0109 -0.1597 -0.2265
 2926ntf    fn416883   4.035   5.213   6.349  0.1793  0.0650 -0.2295
 2926ntf    on516884   4.196   5.440   6.241  0.3529  0.1888  0.3201
 2926ntf    on516885   4.327   5.227   6.277  0.1976  0.5157  0.1361
 2926ntf    on516886   4.060   5.410   5.944  0.2108  0.7862 -0.0814
 2926ntf    on516887   4.181   5.241   5.815  0.3209 -0.7876  0.3878
 2926ntf    fn416888   4.432   5.401   5.901  0.0920  0.0490  0.2470
 2926ntf    fn416889   4.299   5.480   5.741  0.5488 -0.2948  0.0707
 2926ntf    fn416890   4.308   5.567   5.935  0.3123 -0.3589  0.2768
 2927ntf    cn116891   2.746   1.635   3.272  0.0118 -0.0296 -0.3811
 2927ntf    sn216892   2.906   1.680   3.345 -0.3271  0.4743  0.0597
 2927ntf    nn316893   2.895   1.836   3.336  0.4364  0.5216 -0.1511
 2927ntf    sn216894   2.839   1.931   3.448 -0.0318  0.0205  0.0438
 2927ntf    cn116895   3.003   1.976   3.513 -0.1543 -0.0863  0.4282
 2927ntf    fn416896   2.650   1.708   3.327  0.0169  0.2084 -0.6870
 2927ntf    fn416897   2.749   1.666   3.144  0.0427 -0.1157 -0.4015
 2927ntf    fn416898   2.715   1.506   3.270  0.2694 -0.0967 -0.1038
 2927ntf    on516899   2.911   1.616   3.474 -0.4527 -0.1893 -0.2614
 2927ntf    on516900   2.995   1.627   3.245  0.3754  0.9581  0.4187
 2927ntf    on516901   2.763   1.878   3.558 -0.3188 -0.0238 -0.1742
 2927ntf    on516902   2.800   2.059   3.394 -0.1601  0.0227  0.1437
 2927ntf    fn416903   2.992   2.067   3.608  0.2070  0.6797 -0.2511
 2927ntf    fn416904   3.080   1.879   3.562  0.2778 -0.1924 -0.4373
 2927ntf    fn416905   3.083   2.035   3.427  0.0573 -0.4718  0.3566
 2928ntf    cn116906   6.200   3.717   4.484  0.2223 -0.4589 -0.1762
 2928ntf    sn216907   6.208   3.785   4.316  0.2294  0.3257  0.1410
 2928ntf    nn316908   6.352   3.847   4.321  0.4168 -0.0862 -0.0826
 2928ntf    sn216909   6.394   3.995   4.353 -0.1568  0.0033  0.2684
 2928ntf    cn116910   6.388   4.080   4.192 -0.2868  0.4510  0.5051
 2928ntf    fn416911   6.089   3.656   4.522  0.1018  0.1047  0.3878
 2928ntf    fn416912   6.297   3.631   4.513  0.5664  0.0210  0.1181
 2928ntf    fn416913   6.223   3.810   4.575 -0.0020 -0.2891 -0.2932
 2928ntf    on516914   6.192   3.677   4.222 -0.0589  0.4427  0.0549
 2928ntf    on516915   6.104   3.884   4.309 -0.0508  0.0058 -0.1955
 2928ntf    on516916   6.530   4.005   4.399  0.0339  0.1056 -0.3014
 2928ntf    on516917   6.303   4.059   4.445  0.3180  0.2358  0.5772
 2928ntf    fn416918   6.486   4.048   4.109 -0.0425 -0.0612  0.9865
 2928ntf    fn416919   6.276   4.048   4.129  0.1897 -0.2789  0.0007
 2928ntf    fn416920   6.399   4.211   4.200 -0.5460  0.5575 -0.7085
 2929ntf    cn116921   5.908   4.020   5.285 -0.1210 -0.0998 -0.2230
 2929ntf    sn216922   5.935   4.160   5.399 -0.0252 -0.3712  0.0889
 2929ntf    nn316923   6.061   4.227   5.334 -0.0587 -1.0886 -0.7359
 2929ntf    sn216924   6.216   4.200   5.340  0.0399 -0.3467  0.3777
 2929ntf    cn116925   6.279   4.326   5.455  0.1573 -0.2484  0.2063
 2929ntf    fn416926   5.856   4.062   5.171  0.2921  0.3608 -0.2486
 2929ntf    fn416927   6.019   3.955   5.254  0.1993  0.4909 -0.3452
 2929ntf    fn416928   5.829   3.931   5.343 -0.6766 -0.0385 -0.8775
 2929ntf    on516929   5.817   4.239   5.374  0.1687 -0.2264 -0.3938
 2929ntf    on516930   5.954   4.107   5.532 -0.5923 -0.3632  0.1761
 2929ntf    on516931   6.275   4.238   5.214  0.1967 -0.1026  0.5243
 2929ntf    on516932   6.257   4.075   5.397 -0.3081 -0.2927  0.7465
 2929ntf    fn416933   6.395   4.291   5.509  0.4918  0.5320 -0.0016
 2929ntf    fn416934   6.304   4.443   5.400  0.2373 -0.0920  0.5698
 2929ntf    fn416935   6.202   4.354   5.559  0.5943  0.0605  0.4482
 2930ntf    cn116936   6.444   5.659   0.290  0.3120  0.5880  0.1550
 2930ntf    sn216937   6.544   5.748   0.167  0.3963  0.1123 -0.1219
 2930ntf    nn316938   6.489   5.892   0.195 -0.4066 -0.1602 -0.2811
 2930ntf    sn216939   6.514   6.022   0.110 -0.0350  0.2759  0.4887
 2930ntf    cn116940   6.341   6.076   0.090  0.1054  0.6059  0.1651
 2930ntf    fn416941   6.461   5.529   0.272  0.3327  0.5800  0.2343
 2930ntf    fn416942   6.491   5.684   0.411  0.7336  0.1140  0.0899
 2930ntf    fn416943   6.313   5.681   0.279  0.4464  0.9552 -0.8813
 2930ntf    on516944   6.681   5.721   0.206  0.2924 -0.1823  0.0410
 2930ntf    on516945   6.502   5.699   0.038  0.2480  0.1908 -0.1028
 2930ntf    on516946   6.553   6.002  -0.027  0.3401 -0.0041  0.6358
 2930ntf    on516947   6.574   6.128   0.188  0.6668 -0.0394  0.3841
 2930ntf    fn416948   6.331   6.177   0.004 -0.3255  0.3742 -0.0550
 2930ntf    fn416949   6.250   5.986   0.061 -0.0772  0.7555  0.2736
 2930ntf    fn416950   6.312   6.137   0.203 -0.6118  0.1385  0.2359
 2931ntf    cn116951   3.058   5.473   5.440 -0.2432  0.1423 -0.0112
 2931ntf    sn216952   3.037   5.401   5.605 -0.0866  0.0721 -0.0219
 2931ntf    nn316953   3.130   5.274   5.606 -0.4553 -0.2017 -0.0820
 2931ntf    sn216954   3.210   5.224   5.731 -0.2354 -0.0680 -0.1667
 2931ntf    cn116955   3.351   5.339   5.732  0.1833 -0.5773 -0.2024
 2931ntf    fn416956   3.041   5.386   5.342 -0.6620  0.5565 -0.3140
 2931ntf    fn416957   2.987   5.579   5.403  0.0585  0.3924  0.1161
 2931ntf    fn416958   3.181   5.517   5.418 -0.0059 -0.4757  0.0595
 2931ntf    on516959   3.073   5.513   5.688 -0.2290  0.2637 -0.2201
 2931ntf    on516960   2.897   5.370   5.612 -0.1065 -0.0070 -0.6840
 2931ntf    on516961   3.273   5.096   5.706  0.0629  0.0470 -0.0051
 2931ntf    on516962   3.144   5.241   5.859  0.3612 -0.1992  0.1635
 2931ntf    fn416963   3.426   5.294   5.831 -0.5250 -0.1449  0.5416
 2931ntf    fn416964   3.420   5.331   5.619 -0.1787 -0.0532 -0.4632
 2931ntf    fn416965   3.319   5.464   5.758  0.3060 -0.4748 -0.5480
 2932ntf    cn116966   0.462   3.184   3.775  0.1931  0.3151  0.1822
 2932ntf    sn216967   0.586   3.230   3.649  0.0343 -0.1701 -0.1574
 2932ntf    nn316968   0.492   3.288   3.538  0.1975  0.2612 -0.0739
 2932ntf    sn216969   0.421   3.206   3.424  0.2709 -0.2373  0.2358
 2932ntf    cn116970   0.372   3.339   3.310  0.2556 -0.2324  0.2486
 2932ntf    fn416971   0.379   3.095   3.724  0.5346 -0.0591  0.2686
 2932ntf    fn416972   0.516   3.131   3.884  0.1318 -0.4832 -0.1631
 2932ntf    fn416973   0.387   3.286   3.812  0.3133  0.3092  0.4476
 2932ntf    on516974   0.653   3.339   3.716  0.1075  0.0055 -0.5157
 2932ntf    on516975   0.673   3.121   3.616  0.2381 -0.0644  0.0274
 2932ntf    on516976   0.296   3.151   3.469  0.0741  0.3946  0.4697
 2932ntf    on516977   0.510   3.127   3.342 -0.0348 -0.0170 -0.3159
 2932ntf    fn416978   0.302   3.434   3.370  0.3919 -0.1535  0.2832
 2932ntf    fn416979   0.482   3.389   3.256 -0.0111  0.2443  0.1422
 2932ntf    fn416980   0.299   3.302   3.206  0.0544 -0.0311  0.3180
 2933ntf    cn116981   5.186   3.675   2.324 -0.1767 -0.3063  0.0701
 2933ntf    sn216982   5.260   3.740   2.477 -0.1859 -0.0160 -0.0494
 2933ntf    nn316983   5.140   3.736   2.577  0.0356  0.0274  0.2203
 2933ntf    sn216984   5.089   3.605   2.646  0.2575 -0.0317  0.2720
 2933ntf    cn116985   5.176   3.609   2.805 -0.3158 -0.1348  0.5910
 2933ntf    fn416986   5.269   3.705   2.225 -0.0528 -0.7501  0.0348
 2933ntf    fn416987   5.164   3.544   2.323 -0.8051 -0.2027  0.0272
 2933ntf    fn416988   5.067   3.723   2.292 -0.1955 -0.1130  0.4306
 2933ntf    on516989   5.374   3.656   2.505 -0.3754 -0.2355  0.0585
 2933ntf    on516990   5.293   3.875   2.438 -0.0068 -0.0766 -0.1115
 2933ntf    on516991   5.138   3.480   2.593  0.1957  0.2557 -0.4742
 2933ntf    on516992   4.948   3.610   2.675  0.3340 -0.1700  0.6816
 2933ntf    fn416993   5.304   3.583   2.784 -0.2405  0.0153  0.8520
 2933ntf    fn416994   5.167   3.725   2.869  0.3066  0.0773  0.3007
 2933ntf    fn416995   5.132   3.513   2.886 -0.8636 -0.3555  0.0359
 2934ntf    cn116996   3.560   6.505   0.507 -0.2985 -0.1058 -0.3469
 2934ntf    sn216997   3.563   6.337   0.577  0.1416 -0.0812 -0.3027
 2934ntf    nn316998   3.623   6.373   0.718  0.3594 -0.2418 -0.3539
 2934ntf    sn216999   3.748   6.315   0.793  0.1822  0.0872  0.2059
 2934ntf    cn117000   3.677   6.250   0.947  0.1743  0.1508  0.2286
 2934ntf    fn417001   3.491   6.512   0.394  0.1457 -0.2805 -0.6321
 2934ntf    fn417002   3.506   6.600   0.581  0.0414  0.0141 -0.2529
 2934ntf    fn417003   3.683   6.547   0.480 -0.1394 -0.2063  0.2202
 2934ntf    on517004   3.424   6.299   0.584  0.1025  0.1716  0.3939
 2934ntf    on517005   3.650   6.263   0.489 -0.1135  0.1502 -0.7533
 2934ntf    on517006   3.844   6.411   0.841 -0.1611  0.3171  0.4344
 2934ntf    on517007   3.800   6.198   0.724  0.3200  0.3210 -0.0913
 2934ntf    fn417008   3.774   6.202   1.023  0.0396 -0.1557  0.2092
 2934ntf    fn417009   3.608   6.336   1.020  0.0517 -0.0631  0.3648
 2934ntf    fn417010   3.602   6.143   0.931 -0.0841  0.4549 -0.6416
 2935ntf    cn117011   4.039   2.042   5.845 -0.2832  0.2877 -0.2634
 2935ntf    sn217012   3.890   2.117   5.917 -0.3454  0.0703 -0.1660
 2935ntf    nn317013   3.873   2.028   6.045 -0.9808  0.0974 -0.2264
 2935ntf    sn217014   3.889   2.066   6.197 -0.2049 -0.0729 -0.2575
 2935ntf    cn117015   3.730   2.151   6.222 -0.2293 -0.2674  0.2733
 2935ntf    fn417016   4.010   1.916   5.816  0.4056  0.0807 -0.0771
 2935ntf    fn417017   4.074   2.099   5.731 -0.3405 -0.5845 -0.7242
 2935ntf    fn417018   4.137   2.043   5.934 -0.2384  0.0940 -0.3106
 2935ntf    on517019   3.932   2.253   5.941  0.0781 -0.1330  0.2507
 2935ntf    on517020   3.788   2.106   5.815 -0.1189 -0.4109 -0.3452
 2935ntf    on517021   3.991   2.159   6.238  0.2917 -0.6153 -0.2558
 2935ntf    on517022   3.863   1.959   6.290  0.8081  0.2186  0.3720
 2935ntf    fn417023   3.697   2.248   6.138  0.3560 -0.0588  0.2777
 2935ntf    fn417024   3.630   2.065   6.223 -0.0083 -0.5373 -0.2792
 2935ntf    fn417025   3.724   2.209   6.341  0.3330 -0.1292  0.2355
 2936ntf    cn117026   2.970   4.516   2.388  0.1655 -0.0437  0.3012
 2936ntf    sn217027   3.109   4.571   2.285 -0.0389 -0.2259 -0.0735
 2936ntf    nn317028   3.234   4.521   2.366  0.2712  0.3325 -0.2055
 2936ntf    sn217029   3.311   4.385   2.355 -0.1221  0.1080 -0.1764
 2936ntf    cn117030   3.424   4.426   2.219 -0.2553  0.3008 -0.2286
 2936ntf    fn417031   2.847   4.543   2.347  0.2218 -0.2637 -0.0182
 2936ntf    fn417032   2.967   4.385   2.407 -0.1851 -0.0499  0.2102
 2936ntf    fn417033   2.979   4.566   2.510 -0.6599  0.1851  0.2691
 2936ntf    on517034   3.082   4.500   2.162 -0.1767  0.0089 -0.1792
 2936ntf    on517035   3.107   4.715   2.281  0.8470 -0.1977  0.2792
 2936ntf    on517036   3.241   4.270   2.302 -0.1552 -0.1603  0.4348
 2936ntf    on517037   3.395   4.369   2.471 -0.3686  0.1656  0.0106
 2936ntf    fn417038   3.480   4.315   2.175 -0.2871  0.0342  0.3954
 2936ntf    fn417039   3.362   4.484   2.117 -0.1375  0.7275 -0.0586
 2936ntf    fn417040   3.526   4.504   2.250 -0.1973  0.4048 -0.6717
 2937ntf    cn117041   6.523   0.743   2.533  0.0236  0.0196  0.0266
 2937ntf    sn217042   6.348   0.779   2.501  0.0679  0.0477 -0.1830
 2937ntf    nn317043   6.292   0.742   2.642  0.1532  0.5634 -0.0137
 2937ntf    sn217044   6.153   0.782   2.704  0.0887  0.2909  0.0179
 2937ntf    cn117045   6.190   0.789   2.882 -0.2652 -0.4572  0.1231
 2937ntf    fn417046   6.616   0.799   2.457  0.1771  0.3167  0.4248
 2937ntf    fn417047   6.552   0.775   2.658  0.6526  0.0182 -0.1142
 2937ntf    fn417048   6.540   0.612   2.531 -0.5969 -0.0647  0.2525
 2937ntf    on517049   6.350   0.921   2.473  0.2895  0.0320 -0.2501
 2937ntf    on517050   6.313   0.691   2.392 -0.4347  0.1996 -0.1435
 2937ntf    on517051   6.057   0.674   2.701 -0.0402  0.4073 -0.0297
 2937ntf    on517052   6.108   0.914   2.667  0.1078  0.4040  0.3861
 2937ntf    fn417053   6.248   0.679   2.928 -0.0052 -0.3211  0.1207
 2937ntf    fn417054   6.272   0.887   2.917  0.0106 -0.5886 -0.1540
 2937ntf    fn417055   6.077   0.803   2.949  0.1357  0.3778  0.6314
 2938ntf    cn117056   1.016   2.073   1.362 -0.3244  0.1835 -0.1395
 2938ntf    sn217057   1.189   2.125   1.342 -0.3173  0.2852  0.1838
 2938ntf    nn317058   1.176   2.280   1.325 -0.2382  0.2546 -0.1615
 2938ntf    sn217059   1.223   2.398   1.418  0.0334  0.1542 -0.1683
 2938ntf    cn117060   1.076   2.505   1.402  0.0262  0.1709  0.0064
 2938ntf    fn417061   0.937   2.112   1.264 -0.5247  0.2311  0.0394
 2938ntf    fn417062   1.007   1.942   1.375 -0.4404  0.1676 -0.3738
 2938ntf    fn417063   0.956   2.121   1.470 -0.2241 -0.2480  0.1080
 2938ntf    on517064   1.260   2.082   1.460 -0.6480 -0.1847  0.2133
 2938ntf    on517065   1.231   2.066   1.218 -0.1024  0.0409  0.3709
 2938ntf    on517066   1.324   2.477   1.353  0.3918  0.0476  0.2564
 2938ntf    on517067   1.228   2.375   1.560 -0.4307 -0.1507 -0.1988
 2938ntf    fn417068   1.059   2.548   1.278 -0.2576 -0.3438 -0.1313
 2938ntf    fn417069   0.962   2.450   1.438 -0.2441  0.6232 -0.1469
 2938ntf    fn417070   1.085   2.616   1.474 -0.2543 -0.0218  0.3381
 2939ntf    cn117071   1.432   1.393   4.863  0.2299 -0.0188  0.2823
 2939ntf    sn217072   1.506   1.368   5.027  0.1178 -0.0792  0.3237
 2939ntf    nn317073   1.568   1.512   5.029 -0.1348  0.0399 -0.3322
 2939ntf    sn217074   1.497   1.635   5.096  0.0250 -0.0712  0.0398
 2939ntf    cn117075   1.608   1.762   5.030 -0.2120  0.1166  0.0031
 2939ntf    fn417076   1.315   1.455   4.865  0.1486 -0.1312 -0.7746
 2939ntf    fn417077   1.500   1.475   4.785  0.1301 -0.0509  0.1617
 2939ntf    fn417078   1.421   1.274   4.806  0.0992 -0.2385  0.7536
 2939ntf    on517079   1.395   1.338   5.114  0.1060 -0.9932  0.0129
 2939ntf    on517080   1.606   1.267   5.001  0.2369  0.1041  0.0735
 2939ntf    on517081   1.499   1.659   5.239 -0.0909  0.2737 -0.0161
 2939ntf    on517082   1.371   1.672   5.038  0.0409 -0.4723 -0.2599
 2939ntf    fn417083   1.563   1.882   5.062 -0.2616  0.1515 -0.1936
 2939ntf    fn417084   1.732   1.755   5.076 -0.4847 -0.6750  0.6434
 2939ntf    fn417085   1.616   1.762   4.898 -0.1383 -0.0192  0.0079
 2940ntf    cn117086   1.532   5.729   3.404 -0.2734  0.0537 -0.0628
 2940ntf    sn217087   1.514   5.748   3.584  0.0747 -0.1337 -0.0092
 2940ntf    nn317088   1.628   5.849   3.622  0.1367  0.1113 -0.8379
 2940ntf    sn217089   1.780   5.823   3.654 -0.0658 -0.0229  0.0203
 2940ntf    cn117090   1.771   5.770   3.828 -0.1590 -0.0331  0.0132
 2940ntf    fn417091   1.539   5.848   3.347  0.1195  0.1626  0.2073
 2940ntf    fn417092   1.630   5.655   3.356 -0.0492  0.3854 -0.1235
 2940ntf    fn417093   1.418   5.678   3.360 -0.4127  0.6672 -0.4281
 2940ntf    on517094   1.383   5.807   3.586  0.0249 -0.2429 -0.0075
 2940ntf    on517095   1.534   5.615   3.638 -0.0181  0.0183  0.4044
 2940ntf    on517096   1.858   5.944   3.663 -0.0709  0.0054 -0.3055
 2940ntf    on517097   1.844   5.715   3.583 -0.0113 -0.2809  0.4579
 2940ntf    fn417098   1.716   5.858   3.910  0.3055  0.3423 -0.0734
 2940ntf    fn417099   1.706   5.656   3.839  0.3296 -0.3218 -0.0890
 2940ntf    fn417100   1.895   5.756   3.873 -0.1040 -0.2839 -0.2152
 2941ntf    cn117101   2.015   2.376   3.060 -0.1111  0.0899  0.2983
 2941ntf    sn217102   1.935   2.216   3.090  0.0172  0.0073  0.2026
 2941ntf    nn317103   1.961   2.201   3.244 -0.2628 -0.1203  0.2391
 2941ntf    sn217104   2.043   2.084   3.309 -0.0239 -0.0572  0.0511
 2941ntf    cn117105   2.000   2.097   3.485 -0.3532 -0.4850  0.0057
 2941ntf    fn417106   1.958   2.474   3.128 -0.4501  0.1896 -0.1282
 2941ntf    fn417107   2.144   2.371   3.090 -0.1583  0.0048  0.4874
 2941ntf    fn417108   1.998   2.415   2.935 -0.4323 -0.4736  0.1631
 2941ntf    on517109   1.797   2.233   3.051  0.0815  0.5371  0.1997
 2941ntf    on517110   2.015   2.124   3.013  0.4181  0.8835 -0.4514
 2941ntf    on517111   2.184   2.108   3.286  0.0774 -0.6365  0.0374
 2941ntf    on517112   1.990   1.952   3.285 -0.0766 -0.1227  0.5323
 2941ntf    fn417113   1.902   2.016   3.520 -0.5402 -0.0666  0.4621
 2941ntf    fn417114   2.098   2.064   3.567 -0.5646  0.1584  0.5243
 2941ntf    fn417115   1.968   2.220   3.523 -0.2005 -0.3845 -0.1831
 2942ntf    cn117116   4.049   3.384   3.432 -0.2425 -0.0990 -0.1383
 2942ntf    sn217117   4.124   3.267   3.314 -0.5047 -0.3144 -0.0910
 2942ntf    nn317118   4.012   3.158   3.295 -0.5552 -0.1830 -0.5402
 2942ntf    sn217119   4.038   3.005   3.271  0.1710 -0.1310 -0.1044
 2942ntf    cn117120   4.027   2.927   3.435  0.3862  0.0168 -0.0194
 2942ntf    fn417121   4.085   3.508   3.402  0.6064 -0.1853  0.4870
 2942ntf    fn417122   3.918   3.380   3.417 -0.2849 -0.0519  0.2241
 2942ntf    fn417123   4.078   3.363   3.559 -0.4157  0.3546 -0.0225
 2942ntf    on517124   4.132   3.346   3.194  0.4568 -0.6130 -0.2337
 2942ntf    on517125   4.244   3.225   3.382  0.0659  0.4303 -0.6335
 2942ntf    on517126   4.169   2.968   3.225  0.4270  0.2650  0.2849
 2942ntf    on517127   3.923   2.944   3.210 -0.1457 -0.0458  0.3990
 2942ntf    fn417128   4.042   2.796   3.435  0.4748  0.0269 -0.1152
 2942ntf    fn417129   4.116   2.974   3.522 -0.1955  0.4252  0.3654
 2942ntf    fn417130   3.913   2.953   3.497  0.0125 -0.4408 -0.5144
 2943ntf    cn117131   0.117   3.446   4.921 -0.2616  0.1331 -0.4205
 2943ntf    sn217132   0.163   3.285   4.992 -0.2637  0.2705 -0.1064
 2943ntf    nn317133   0.317   3.265   4.967 -0.1923  0.3634  0.2537
 2943ntf    sn217134   0.390   3.196   4.846  0.0754  0.1618  0.5304
 2943ntf    cn117135   0.368   3.017   4.871  0.2826  0.0667  0.0319
 2943ntf    fn417136   0.220   3.509   4.866  0.0188  0.0338 -0.0167
 2943ntf    fn417137   0.028   3.438   4.824 -0.1274  0.2181 -0.5514
 2943ntf    fn417138   0.070   3.529   5.013 -0.3795 -0.4656  0.0665
 2943ntf    on517139   0.137   3.302   5.133 -0.4324  0.3106 -0.1414
 2943ntf    on517140   0.079   3.187   4.928  0.3333 -0.3358  0.0258
 2943ntf    on517141   0.533   3.212   4.851  0.1642 -0.4469 -0.0462
 2943ntf    on517142   0.327   3.219   4.719 -0.1511 -0.3948  0.5363
 2943ntf    fn417143   0.370   2.981   4.998 -0.3446  0.1263  0.0616
 2943ntf    fn417144   0.256   2.980   4.811  0.5063  0.1728 -0.4637
 2943ntf    fn417145   0.466   2.955   4.807  0.1403  0.1408 -0.2599
 2944ntf    cn117146   0.983   4.194   0.823  0.0457  0.0450 -0.2701
 2944ntf    sn217147   0.847   4.123   0.725 -0.1440  0.1544 -0.0859
 2944ntf    nn317148   0.789   4.262   0.679 -0.1551  0.3843  0.6075
 2944ntf    sn217149   0.652   4.329   0.717 -0.3951  0.2830 -0.0675
 2944ntf    cn117150   0.596   4.359   0.547  0.1807 -0.1005 -0.3283
 2944ntf    fn417151   1.028   4.300   0.758  0.3149  0.3073  0.3384
 2944ntf    fn417152   0.948   4.237   0.943 -0.0388  0.0208 -0.2863
 2944ntf    fn417153   1.079   4.103   0.838 -0.0652  0.0718  0.6399
 2944ntf    on517154   0.903   4.032   0.629  0.3671  0.0626  0.2960
 2944ntf    on517155   0.761   4.064   0.825 -0.5030  0.2854 -0.3162
 2944ntf    on517156   0.667   4.458   0.780  1.1067  0.5185 -0.8527
 2944ntf    on517157   0.550   4.243   0.771  0.2283 -0.3467  0.1303
 2944ntf    fn417158   0.493   4.442   0.544  0.1754 -0.0950 -0.0017
 2944ntf    fn417159   0.695   4.412   0.476  0.0575  0.1274 -0.3319
 2944ntf    fn417160   0.558   4.250   0.482 -0.2314 -0.5544  0.6635
 2945ntf    cn117161   2.072   4.002   4.262  0.1188  0.0165 -0.0752
 2945ntf    sn217162   2.247   4.038   4.292  0.1591  0.0310 -0.3260
 2945ntf    nn317163   2.292   3.903   4.359  0.4092  0.5142  0.4986
 2945ntf    sn217164   2.300   3.862   4.510  0.3772  0.1531  0.4041
 2945ntf    cn117165   2.189   3.718   4.519  0.2362  0.2242 -0.1528
 2945ntf    fn417166   2.045   3.884   4.209 -0.0849  0.2485 -0.4924
 2945ntf    fn417167   1.997   4.010   4.371 -0.5235  0.1562 -0.5221
 2945ntf    fn417168   2.017   4.091   4.181 -0.1794 -0.1600 -0.0711
 2945ntf    on517169   2.294   4.052   4.156  0.0455 -0.0658 -0.3751
 2945ntf    on517170   2.258   4.155   4.375 -0.1060  0.4919 -0.9277
 2945ntf    on517171   2.228   3.943   4.605  0.6606  0.4378  0.3773
 2945ntf    on517172   2.428   3.812   4.552  0.2535 -0.4783  0.0474
 2945ntf    fn417173   2.073   3.750   4.465  0.2457  0.0751 -0.2620
 2945ntf    fn417174   2.236   3.610   4.459 -0.2008 -0.2559  0.3526
 2945ntf    fn417175   2.163   3.684   4.644 -0.7917  0.6484 -0.2455
 2946ntf    cn117176   4.787   4.758   6.683 -0.2804  0.2133 -0.2612
 2946ntf    sn217177   4.610   4.731   6.654 -0.2337 -0.1664 -0.2061
 2946ntf    nn317178   4.575   4.847   6.554 -0.1258  0.2664  0.2582
 2946ntf    sn217179   4.559   4.835   6.398  0.6361  0.1248  0.1883
 2946ntf    cn117180   4.385   4.786   6.380  0.8201 -0.3309 -0.3650
 2946ntf    fn417181   4.844   4.790   6.569  0.3242  0.5165  0.1220
 2946ntf    fn417182   4.825   4.856   6.763  0.0541 -0.1291  0.0056
 2946ntf    fn417183   4.843   4.644   6.720 -0.0626  0.2385 -0.5152
 2946ntf    on517184   4.605   4.596   6.603  0.2714 -0.2508 -0.0364
 2946ntf    on517185   4.554   4.749   6.786 -0.1157 -0.5528 -0.1027
 2946ntf    on517186   4.639   4.733   6.336  0.6034 -0.0568  0.4429
 2946ntf    on517187   4.563   4.967   6.340 -0.5804 -0.3147 -0.9384
 2946ntf    fn417188   4.311   4.888   6.420 -0.0172 -0.9449 -0.3284
 2946ntf    fn417189   4.346   4.760   6.256 -0.2232  0.8330 -0.2997
 2946ntf    fn417190   4.344   4.679   6.446 -0.2753  0.2313 -0.1092
 2947ntf    cn117191   5.500   0.735   3.625 -0.4206 -0.1449 -0.1779
 2947ntf    sn217192   5.349   0.635   3.635 -0.4040 -0.1368  0.1722
 2947ntf    nn317193   5.278   0.710   3.753  0.0234  0.2393  0.1922
 2947ntf    sn217194   5.181   0.834   3.755  0.0804  0.2824  0.3496
 2947ntf    cn117195   5.210   0.905   3.919  0.3922 -0.4240  0.6073
 2947ntf    fn417196   5.471   0.855   3.576 -0.0619  0.0198  0.0097
 2947ntf    fn417197   5.552   0.753   3.745  0.0134  0.0116 -0.3853
 2947ntf    fn417198   5.589   0.676   3.548 -0.2245 -0.3695  0.2226
 2947ntf    on517199   5.288   0.640   3.505 -0.1776  0.0725  0.0739
 2947ntf    on517200   5.393   0.502   3.669  0.2784 -0.0414 -0.3357
 2947ntf    on517201   5.044   0.790   3.759  0.2966 -0.5212 -0.4368
 2947ntf    on517202   5.216   0.939   3.663 -0.0958 -0.3417 -0.4456
 2947ntf    fn417203   5.145   0.841   4.015 -0.3355 -0.2204  0.2589
 2947ntf    fn417204   5.338   0.903   3.953  0.5085 -0.6057  0.1543
 2947ntf    fn417205   5.170   1.032   3.921 -0.0075 -0.5463  0.4184
 2948ntf    cn117206   3.398   6.388   3.612  0.0950 -0.1532  0.2821
 2948ntf    sn217207   3.580   6.386   3.608  0.0925 -0.0656  0.0817
 2948ntf    nn317208   3.593   6.436   3.460 -1.1393  0.1689  0.0476
 2948ntf    sn217209   3.587   6.585   3.411 -0.2326  0.2351  0.1265
 2948ntf    cn117210   3.451   6.577   3.291 -0.1593  0.1994  0.0467
 2948ntf    fn417211   3.364   6.328   3.724 -0.2993 -0.0753  0.2064
 2948ntf    fn417212   3.351   6.511   3.607  0.3074 -0.0740  0.2212
 2948ntf    fn417213   3.345   6.307   3.521  0.1092 -0.5021  0.5830
 2948ntf    on517214   3.630   6.475   3.709  0.2722 -0.1986  0.1107
 2948ntf    on517215   3.609   6.246   3.628  0.6529 -0.1065 -0.9381
 2948ntf    on517216   3.697   6.607   3.320 -0.2072 -0.0123  0.0975
 2948ntf    on517217   3.553   6.694   3.500 -0.6439  0.1231  0.1071
 2948ntf    fn417218   3.440   6.693   3.229 -0.4067  0.1542  0.0047
 2948ntf    fn417219   3.465   6.486   3.196  0.2531  0.1504  0.1527
 2948ntf    fn417220   3.341   6.544   3.355 -0.2877 -0.4949 -0.5143
 2949ntf    cn117221   4.461   5.976   6.498  0.0944  0.1046 -0.2424
 2949ntf    sn217222   4.307   6.059   6.547  0.1978  0.1963 -0.0709
 2949ntf    nn317223   4.217   6.038   6.420 -0.5865  0.2397  0.4681
 2949ntf    sn217224   4.092   5.946   6.399 -0.0718 -0.3806  0.0945
 2949ntf    cn117225   4.174   5.808   6.314  0.1079 -0.1912 -0.0396
 2949ntf    fn417226   4.564   6.005   6.577 -0.3037  0.3776  0.1821
 2949ntf    fn417227   4.439   5.846   6.495 -0.4603  0.1844  0.1833
 2949ntf    fn417228   4.489   6.001   6.371 -0.0926 -0.6974 -0.4444
 2949ntf    on517229   4.266   5.995   6.670  0.4420 -0.1809 -0.1854
 2949ntf    on517230   4.342   6.199   6.552 -0.2404  0.3302 -0.6382
 2949ntf    on517231   4.001   5.996   6.299  0.2966 -0.4107 -0.2569
 2949ntf    on517232   4.044   5.887   6.521 -0.3083 -0.2161  0.0811
 2949ntf    fn417233   4.266   5.754   6.393  0.3565  0.1312 -0.1088
 2949ntf    fn417234   4.092   5.707   6.290 -0.4591  0.2395  0.0828
 2949ntf    fn417235   4.233   5.844   6.201  0.1556 -0.4251 -0.0903
 2950ntf    cn117236   1.691   1.277   6.623 -0.1000  0.3324  0.3236
 2950ntf    sn217237   1.756   1.336   6.463  0.1678 -0.2385  0.2178
 2950ntf    nn317238   1.682   1.474   6.448 -0.6196 -0.6187  0.5122
 2950ntf    sn217239   1.722   1.613   6.510 -0.1202 -0.3945 -0.2949
 2950ntf    cn117240   1.833   1.694   6.392  0.1393 -0.0381  0.1901
 2950ntf    fn417241   1.583   1.201   6.612  0.1970 -0.1094  0.4042
 2950ntf    fn417242   1.785   1.202   6.680 -0.1698  0.0057  0.0130
 2950ntf    fn417243   1.660   1.372   6.709 -0.1645  0.3894  0.2374
 2950ntf    on517244   1.900   1.340   6.469  0.1545  0.4666  0.1229
 2950ntf    on517245   1.702   1.238   6.373 -0.4754  0.2277  0.0898
 2950ntf    on517246   1.801   1.596   6.630 -0.4157 -0.0156 -0.0465
 2950ntf    on517247   1.605   1.697   6.510 -0.1560 -0.4439 -0.1556
 2950ntf    fn417248   1.943   1.626   6.361 -0.0530 -0.2399 -0.0591
 2950ntf    fn417249   1.777   1.728   6.277 -0.0219  0.0253  0.2883
 2950ntf    fn417250   1.872   1.812   6.436  0.2441  0.0747 -0.2004
 2951ntf    cn117251   2.606   3.356   4.367  0.1501 -0.1644 -0.3856
 2951ntf    sn217252   2.579   3.271   4.209 -0.2028  0.0435 -0.4373
 2951ntf    nn317253   2.437   3.331   4.178 -0.3043  0.1092  0.1404
 2951ntf    sn217254   2.319   3.238   4.132 -0.0831 -0.1000 -0.0086
 2951ntf    cn117255   2.398   3.153   3.992  0.1963  0.1142  0.0191
 2951ntf    fn417256   2.533   3.300   4.463  0.1896 -0.0097 -0.2654
 2951ntf    fn417257   2.733   3.347   4.403  0.1076  0.0261 -0.1911
 2951ntf    fn417258   2.577   3.485   4.372 -0.3874 -0.2909 -0.1265
 2951ntf    on517259   2.689   3.311   4.125 -0.1172  0.0240 -0.3348
 2951ntf    on517260   2.592   3.132   4.245  0.0988 -0.0314 -0.8276
 2951ntf    on517261   2.208   3.311   4.075  0.2773  0.2864 -0.2196
 2951ntf    on517262   2.291   3.131   4.224  0.4197 -0.2490 -0.0259
 2951ntf    fn417263   2.479   3.230   3.921  0.0055  0.2042 -0.1003
 2951ntf    fn417264   2.480   3.057   4.032 -0.0791 -0.0922  0.0922
 2951ntf    fn417265   2.316   3.093   3.908 -0.0570  0.2153  0.1938
 2952ntf    cn117266   1.047   0.189   4.464  0.1947  0.2838  0.1479
 2952ntf    sn217267   1.151   0.176   4.316 -0.0172 -0.1360  0.0349
 2952ntf    nn317268   1.217   0.035   4.335 -0.3316 -0.1749  0.8510
 2952ntf    sn217269   1.195  -0.105   4.267 -0.1059  0.0958  0.2153
 2952ntf    cn117270   1.244  -0.229   4.390  0.3802  0.1559  0.0836
 2952ntf    fn417271   0.951   0.098   4.460  0.3836  0.0926 -0.0636
 2952ntf    fn417272   1.117   0.162   4.573 -0.0275 -0.6971  0.0572
 2952ntf    fn417273   0.981   0.304   4.472 -0.4935 -0.0928 -0.0194
 2952ntf    on517274   1.056   0.191   4.208 -0.5107 -0.6667  0.3887
 2952ntf    on517275   1.242   0.286   4.337 -0.4280  0.1967  0.0781
 2952ntf    on517276   1.286  -0.127   4.158 -0.4139  0.0925 -0.0417
 2952ntf    on517277   1.058  -0.143   4.245 -0.0701 -0.1660  0.4379
 2952ntf    fn417278   1.178  -0.217   4.504 -0.1491  0.7578 -0.2819
 2952ntf    fn417279   1.224  -0.352   4.346  0.1731  0.3827 -0.4602
 2952ntf    fn417280   1.371  -0.220   4.425  0.4838  0.0424 -0.2621
 2953ntf    cn117281   0.371   0.781   3.489 -0.2026  0.2011  0.4653
 2953ntf    sn217282   0.340   0.689   3.643 -0.0395 -0.1896  0.2652
 2953ntf    nn317283   0.183   0.683   3.635 -0.0545  0.7677 -0.2491
 2953ntf    sn217284   0.081   0.744   3.737 -0.5824 -0.0862 -0.2548
 2953ntf    cn117285   0.089   0.624   3.873 -0.4399  0.3119  0.0914
 2953ntf    fn417286   0.492   0.762   3.441 -0.4078 -0.5551  0.2411
 2953ntf    fn417287   0.277   0.758   3.399  0.2141 -0.4665  0.1940
 2953ntf    fn417288   0.359   0.910   3.518 -0.1629  0.2699  0.1778
 2953ntf    on517289   0.404   0.561   3.626  0.4433  0.0611  0.1952
 2953ntf    on517290   0.396   0.778   3.741  0.3797 -0.2802  0.1078
 2953ntf    on517291  -0.051   0.728   3.681 -0.5177  0.1119 -0.4688
 2953ntf    on517292   0.113   0.871   3.797  0.0079 -0.0767 -0.5844
 2953ntf    fn417293  -0.011   0.629   3.959 -0.2290 -0.0450  0.3611
 2953ntf    fn417294   0.083   0.496   3.839  0.3273  0.1344  0.5953
 2953ntf    fn417295   0.206   0.630   3.935 -0.0003 -0.2167 -0.6666
 2954ntf    cn117296   4.479   0.731   5.018  0.1615  0.2065 -0.6680
 2954ntf    sn217297   4.465   0.906   4.971 -0.0675  0.4000  0.1016
 2954ntf    nn317298   4.507   0.968   5.109 -0.3263 -0.1185  0.4133
 2954ntf    sn217299   4.646   1.017   5.163 -0.1790  0.1062 -0.1549
 2954ntf    cn117300   4.703   0.880   5.269 -0.2719  0.2675  0.1054
 2954ntf    fn417301   4.441   0.647   4.922  0.3483 -0.3230 -0.2793
 2954ntf    fn417302   4.603   0.691   5.035  0.0638  0.0489 -0.3176
 2954ntf    fn417303   4.415   0.695   5.128  0.2918  0.1963 -0.5968
 2954ntf    on517304   4.547   0.923   4.853 -0.4833 -0.3706 -0.3005
 2954ntf    on517305   4.323   0.928   4.962 -0.0654  0.2473 -0.3443
 2954ntf    on517306   4.630   1.119   5.264  0.7923 -0.1405  0.2625
 2954ntf    on517307   4.757   1.026   5.072 -0.0786 -0.1726 -0.0638
 2954ntf    fn417308   4.613   0.825   5.349  0.2014 -0.3047  0.2549
 2954ntf    fn417309   4.738   0.781   5.188 -0.1730  0.5266 -0.1680
 2954ntf    fn417310   4.816   0.907   5.333  0.0348 -0.1451 -0.2560
 2955ntf    cn117311   6.645   3.394   5.925  0.0929  0.2159 -0.2036
 2955ntf    sn217312   6.534   3.466   6.051  0.0285 -0.0901 -0.0845
 2955ntf    nn317313   6.447   3.345   6.099 -0.0445 -0.0152 -0.0276
 2955ntf    sn217314   6.488   3.237   6.205 -0.3160 -0.0753  0.0165
 2955ntf    cn117315   6.428   3.305   6.363 -0.1173  0.1450 -0.0023
 2955ntf    fn417316   6.714   3.490   5.866  0.4495 -0.1613 -0.4024
 2955ntf    fn417317   6.725   3.301   5.972  0.2526  0.1915 -0.5282
 2955ntf    fn417318   6.572   3.326   5.838 -0.1865  0.1273  0.0941
 2955ntf    on517319   6.626   3.509   6.154 -0.2519  0.0237  0.1177
 2955ntf    on517320   6.462   3.570   5.982 -0.2369 -0.2362 -0.0272
 2955ntf    on517321   6.630   3.223   6.225 -0.2524  0.0892 -0.3282
 2955ntf    on517322   6.408   3.118   6.190  0.0316 -0.3543  0.3509
 2955ntf    fn417323   6.420   3.218   6.462 -0.5495 -0.3025 -0.4205
 2955ntf    fn417324   6.511   3.398   6.407  0.0410 -0.2433  0.5266
 2955ntf    fn417325   6.312   3.368   6.350  0.0779  0.4075 -0.5163
 2956ntf    cn117326   5.706   4.030   0.643  0.0761 -0.0180  0.4640
 2956ntf    sn217327   5.855   4.129   0.673  0.1189  0.0996 -0.1327
 2956ntf    nn317328   5.873   4.089   0.824 -0.1696 -0.2977 -0.2040
 2956ntf    sn217329   5.834   4.160   0.958  0.2558 -0.1662 -0.1496
 2956ntf    cn117330   5.988   4.243   1.006 -0.1164  0.4475 -0.0020
 2956ntf    fn417331   5.730   3.903   0.673 -0.0756 -0.1888 -0.1293
 2956ntf    fn417332   5.604   4.062   0.721  0.0410 -0.1045  0.4548
 2956ntf    fn417333   5.668   4.024   0.517 -0.1593  0.3855  0.5145
 2956ntf    on517334   5.953   4.079   0.580  0.2680 -0.0007  0.0793
 2956ntf    on517335   5.808   4.263   0.646  0.1107  0.2415  0.5687
 2956ntf    on517336   5.819   4.067   1.068  0.0256  0.0932  0.0404
 2956ntf    on517337   5.735   4.264   0.949 -0.0889 -0.4842 -0.0639
 2956ntf    fn417338   6.031   4.315   0.904  0.0143 -0.0171 -0.2800
 2956ntf    fn417339   5.981   4.325   1.109 -0.1187  0.4462 -0.0013
 2956ntf    fn417340   6.085   4.162   1.047 -0.4531  0.4393  0.7859
 2957ntf    cn117341   4.606   1.864   5.221  0.1209  0.0361  0.0581
 2957ntf    sn217342   4.612   1.760   5.071  0.2090  0.2288 -0.0726
 2957ntf    nn317343   4.698   1.858   4.984  0.8146  0.2423  0.5334
 2957ntf    sn217344   4.652   1.962   4.876  0.0532 -0.3830  0.2458
 2957ntf    cn117345   4.734   2.115   4.931 -0.3068 -0.0942 -0.0121
 2957ntf    fn417346   4.560   1.983   5.186 -0.7565 -0.2460  0.2301
 2957ntf    fn417347   4.524   1.823   5.316 -0.0969  0.2353 -0.0418
 2957ntf    fn417348   4.724   1.877   5.280  0.0982  0.1151  0.0856
 2957ntf    on517349   4.693   1.646   5.107  0.3722  0.4753  0.3538
 2957ntf    on517350   4.475   1.731   5.039  0.2812 -0.1057 -0.0790
 2957ntf    on517351   4.513   1.997   4.870  0.0450 -0.3064  0.8109
 2957ntf    on517352   4.714   1.940   4.747 -0.6231 -0.5877 -0.0450
 2957ntf    fn417353   4.699   2.158   5.051  0.0398 -0.4128  0.2091
 2957ntf    fn417354   4.865   2.101   4.946 -0.2662 -0.0672 -0.3242
 2957ntf    fn417355   4.731   2.214   4.844 -0.5292  0.1593  0.2842
 2958ntf    cn117356   4.496   5.775   5.824  0.1362 -0.3159 -0.2555
 2958ntf    sn217357   4.403   5.847   5.686 -0.2918 -0.0652  0.1619
 2958ntf    nn317358   4.441   5.994   5.725 -0.5131  0.0231  0.0510
 2958ntf    sn217359   4.362   6.084   5.826 -0.0016  0.5696 -0.0246
 2958ntf    cn117360   4.482   6.143   5.949  0.2677  0.1935 -0.1057
 2958ntf    fn417361   4.466   5.830   5.941  0.4369  0.0858 -0.3635
 2958ntf    fn417362   4.487   5.643   5.821  0.3440 -0.3296 -0.3167
 2958ntf    fn417363   4.625   5.794   5.799  0.1645  0.1596  0.2092
 2958ntf    on517364   4.472   5.796   5.570 -0.5858 -0.2793  0.0771
 2958ntf    on517365   4.265   5.813   5.710 -0.0207 -0.8072  0.7046
 2958ntf    on517366   4.269   6.026   5.920 -0.0108  0.4969 -0.0782
 2958ntf    on517367   4.314   6.201   5.757  0.3577  0.8075  0.1304
 2958ntf    fn417368   4.430   6.178   6.065 -0.5313 -0.4751 -0.2525
 2958ntf    fn417369   4.576   6.055   5.980 -0.3690 -0.3591  0.2717
 2958ntf    fn417370   4.533   6.259   5.911  0.3963  0.2272  0.1719
 2959ntf    cn117371   4.417   4.211   5.147 -0.2573 -0.2214 -0.4448
 2959ntf    sn217372   4.343   4.156   4.990 -0.1391 -0.4710 -0.4136
 2959ntf    nn317373   4.439   4.034   4.966  0.9549  0.1803  0.5265
 2959ntf    sn217374   4.414   3.882   5.000 -0.1139  0.2760  0.1938
 2959ntf    cn117375   4.379   3.801   4.841  0.0596  0.0957  0.2480
 2959ntf    fn417376   4.543   4.247   5.131 -0.3209  0.1631 -0.0839
 2959ntf    fn417377   4.366   4.315   5.210  0.3339 -0.0216 -0.2873
 2959ntf    fn417378   4.427   4.106   5.227 -0.3068  0.0491 -0.0802
 2959ntf    on517379   4.203   4.136   5.015 -0.0740 -0.3365  0.0742
 2959ntf    on517380   4.358   4.278   4.914 -0.2426 -0.0534  0.2343
 2959ntf    on517381   4.289   3.862   5.070 -0.1736 -0.8752 -0.2203
 2959ntf    on517382   4.533   3.816   5.046 -0.0530  0.2159 -0.0477
 2959ntf    fn417383   4.388   3.669   4.847  0.1342  0.1116  0.4926
 2959ntf    fn417384   4.259   3.832   4.795  0.1612  0.2771  0.1017
 2959ntf    fn417385   4.467   3.831   4.747 -0.1566 -0.5672 -0.1706
 2960ntf    cn117386   2.295   3.197   6.318  0.0987  0.1343  0.0938
 2960ntf    sn217387   2.116   3.210   6.289  0.0414 -0.1296  0.3229
 2960ntf    nn317388   2.109   3.204   6.132  0.0926  0.2334  0.3064
 2960ntf    sn217389   1.996   3.259   6.038 -0.1533  0.1066  0.5259
 2960ntf    cn117390   2.066   3.425   6.017  0.1475 -0.0957 -0.0717
 2960ntf    fn417391   2.321   3.221   6.446 -0.2498  0.1413  0.1651
 2960ntf    fn417392   2.343   3.076   6.295 -0.2038  0.0334 -0.0173
 2960ntf    fn417393   2.364   3.285   6.248 -0.2009  0.2806 -0.0180
 2960ntf    on517394   2.064   3.086   6.343  0.1281 -0.2893  0.0459
 2960ntf    on517395   2.070   3.336   6.341  0.1357  0.0693 -0.0691
 2960ntf    on517396   1.869   3.295   6.096 -0.4369  0.3909 -0.2561
 2960ntf    on517397   1.994   3.196   5.908  0.7292  0.4839  0.3225
 2960ntf    fn417398   2.192   3.433   5.977  0.1078 -0.0871 -0.1971
 2960ntf    fn417399   2.005   3.488   5.918  0.2249  0.5050  0.2639
 2960ntf    fn417400   2.050   3.499   6.125 -0.6891 -0.1166 -0.1770
 2961ntf    cn117401   4.338   6.037   3.143  0.1550  0.2935  0.2120
 2961ntf    sn217402   4.216   5.954   3.037 -0.0450 -0.1971  0.8209
 2961ntf    nn317403   4.303   5.945   2.906 -0.1958 -0.2848  0.7257
 2961ntf    sn217404   4.353   5.820   2.826  0.0796  0.0958  0.2967
 2961ntf    cn117405   4.229   5.826   2.694  0.2845  0.1837  0.1065
 2961ntf    fn417406   4.300   6.056   3.268  0.0265  0.5276  0.1388
 2961ntf    fn417407   4.445   5.960   3.150 -0.2619 -0.3180 -0.0965
 2961ntf    fn417408   4.378   6.155   3.097 -0.2510  0.5956  0.6373
 2961ntf    on517409   4.195   5.825   3.097 -0.1668 -0.3033  0.5516
 2961ntf    on517410   4.109   6.050   3.030  0.0430 -0.1518 -0.1800
 2961ntf    on517411   4.340   5.687   2.880 -0.4314 -0.0260 -0.1142
 2961ntf    on517412   4.474   5.846   2.751 -0.1155 -0.3440 -0.1761
 2961ntf    fn417413   4.106   5.816   2.743  0.2297 -0.0739 -0.0846
 2961ntf    fn417414   4.231   5.943   2.631 -0.7436  0.1897  0.0614
 2961ntf    fn417415   4.245   5.730   2.605  0.5665 -0.0201  0.3781
 2962ntf    cn117416   4.306   6.438   2.559 -0.0251  0.2275 -0.3118
 2962ntf    sn217417   4.224   6.601   2.559 -0.4081  0.0362  0.3464
 2962ntf    nn317418   4.283   6.651   2.423 -0.4448 -0.4401  0.1517
 2962ntf    sn217419   4.230   6.638   2.276 -0.1836 -0.0935  0.0236
 2962ntf    cn117420   4.371   6.589   2.171 -0.0784 -0.1860  0.2072
 2962ntf    fn417421   4.293   6.368   2.670 -0.1487  0.2572 -0.3065
 2962ntf    fn417422   4.266   6.355   2.464  0.4645 -0.0207 -0.3057
 2962ntf    fn417423   4.436   6.453   2.536  0.0371 -0.2263 -0.2599
 2962ntf    on517424   4.083   6.572   2.568 -0.5544  0.3540 -0.8083
 2962ntf    on517425   4.292   6.665   2.669  0.3115  0.5913 -0.4031
 2962ntf    on517426   4.188   6.765   2.222  0.2222  0.0710  0.0890
 2962ntf    on517427   4.137   6.528   2.261 -0.1551 -0.0488 -0.4838
 2962ntf    fn417428   4.444   6.496   2.231  0.1854  0.4262  0.8548
 2962ntf    fn417429   4.325   6.546   2.055  0.0533 -0.6573  0.3296
 2962ntf    fn417430   4.449   6.692   2.141  0.3677 -0.3529  0.7944
 2963ntf    cn117431   1.926   1.299   1.456 -0.0241  0.0611 -0.2704
 2963ntf    sn217432   2.082   1.359   1.385 -0.0065  0.1495 -0.1573
 2963ntf    nn317433   2.075   1.309   1.237 -0.4096  0.5168 -0.2626
 2963ntf    sn217434   2.168   1.362   1.121  0.2851 -0.0170  0.0443
 2963ntf    cn117435   2.306   1.243   1.125  0.1546 -0.1768 -0.2031
 2963ntf    fn417436   1.927   1.172   1.490  0.2801  0.0326 -0.3914
 2963ntf    fn417437   1.902   1.365   1.568 -0.1145 -0.3316 -0.0579
 2963ntf    fn417438   1.824   1.323   1.374 -0.0473  0.3957 -0.1479
 2963ntf    on517439   2.071   1.501   1.403 -0.2101  0.1335 -0.1600
 2963ntf    on517440   2.188   1.290   1.455 -0.2452  0.0274  0.0843
 2963ntf    on517441   2.236   1.486   1.145  0.7905 -0.2392 -0.2216
 2963ntf    on517442   2.111   1.343   0.990  0.4927  0.2418 -0.0836
 2963ntf    fn417443   2.373   1.234   1.238  0.4271  0.3736 -0.3173
 2963ntf    fn417444   2.273   1.119   1.093  0.2221 -0.1671 -0.3124
 2963ntf    fn417445   2.398   1.282   1.038  0.3008  0.5870  0.2835
 2964ntf    cn117446   3.441   0.217   2.130 -0.1612  0.1439 -0.0067
 2964ntf    sn217447   3.539   0.079   2.198 -0.0862  0.2568  0.1157
 2964ntf    nn317448   3.421  -0.021   2.227  0.0949  0.1630  0.5271
 2964ntf    sn217449   3.339  -0.031   2.361 -0.0330 -0.0060  0.4356
 2964ntf    cn117450   3.171  -0.056   2.297  0.1671  0.3832 -0.2522
 2964ntf    fn417451   3.369   0.273   2.226 -0.0622  0.4747 -0.1255
 2964ntf    fn417452   3.522   0.311   2.086  0.4089 -0.2693  0.1520
 2964ntf    fn417453   3.360   0.171   2.036  0.1739  0.8051 -0.6196
 2964ntf    on517454   3.622   0.040   2.086  0.7122  0.9089  0.4670
 2964ntf    on517455   3.604   0.138   2.312 -0.1142  0.1288  0.1971
 2964ntf    on517456   3.325   0.090   2.438 -0.0444  0.2407  0.0466
 2964ntf    on517457   3.362  -0.157   2.428  0.1478 -0.4477 -0.4306
 2964ntf    fn417458   3.086  -0.088   2.393  0.1791  0.1215 -0.3286
 2964ntf    fn417459   3.121   0.048   2.232 -0.5676  0.3902  0.3168
 2964ntf    fn417460   3.159  -0.162   2.219 -0.1215 -0.2308  0.6148
 2965ntf    cn117461   4.508   1.972   2.047 -0.0353  0.1726 -0.0625
 2965ntf    sn217462   4.506   2.012   2.224  0.2397 -0.1207  0.0094
 2965ntf    nn317463   4.515   1.869   2.287 -0.2360 -0.1849 -0.0671
 2965ntf    sn217464   4.515   1.824   2.438 -0.1058 -0.3296 -0.1097
 2965ntf    cn117465   4.691   1.811   2.481 -0.1965 -0.6569  0.1623
 2965ntf    fn417466   4.618   1.902   2.022  0.0263  0.3923 -0.4133
 2965ntf    fn417467   4.404   1.900   2.009  0.1724  0.0478 -0.3970
 2965ntf    fn417468   4.507   2.083   1.976  0.1773  0.0724 -0.2250
 2965ntf    on517469   4.620   2.101   2.228  0.2825 -0.1915  0.4359
 2965ntf    on517470   4.377   2.076   2.235  0.2344 -0.1120 -0.1009
 2965ntf    on517471   4.470   1.689   2.460 -0.4132 -0.2308 -0.1281
 2965ntf    on517472   4.467   1.925   2.528  0.2839 -0.2808  0.0437
 2965ntf    fn417473   4.706   1.825   2.612  0.6502 -0.2168  0.0193
 2965ntf    fn417474   4.737   1.689   2.456  0.1645 -0.4874 -0.0005
 2965ntf    fn417475   4.768   1.899   2.420  0.0603 -1.0616 -0.1061
 2966ntf    cn117476   1.635   0.344   2.477 -0.1383  0.0823  0.1052
 2966ntf    sn217477   1.464   0.405   2.466 -0.0725  0.2764  0.1576
 2966ntf    nn317478   1.407   0.323   2.345 -0.0733  0.0209  0.3301
 2966ntf    sn217479   1.340   0.181   2.352  0.1184 -0.0777  0.2061
 2966ntf    cn117480   1.349   0.131   2.178 -0.3299 -0.0061  0.1592
 2966ntf    fn417481   1.718   0.433   2.426 -0.2010  0.0160 -0.1142
 2966ntf    fn417482   1.678   0.346   2.602  0.1053 -0.2465  0.0276
 2966ntf    fn417483   1.658   0.227   2.420 -0.2524  0.0790  0.0663
 2966ntf    on517484   1.408   0.372   2.594 -0.5694 -0.0824 -0.1490
 2966ntf    on517485   1.475   0.546   2.439  0.3542  0.2743  0.3167
 2966ntf    on517486   1.198   0.193   2.376 -0.0267  0.3064 -0.8024
 2966ntf    on517487   1.416   0.076   2.415  0.2739 -0.0265  0.1039
 2966ntf    fn417488   1.469   0.158   2.128 -0.2941 -0.6193 -0.0947
 2966ntf    fn417489   1.323   0.002   2.168  0.0098 -0.0604 -0.0737
 2966ntf    fn417490   1.261   0.198   2.106 -0.4269  0.0316  0.3130
 2967ntf    cn117491   6.872   1.260   1.895 -0.1557 -0.3955  0.0536
 2967ntf    sn217492   6.970   1.412   1.910 -0.2359 -0.3408  0.0165
 2967ntf    nn317493   7.061   1.380   2.034 -0.1767 -0.4682 -0.0605
 2967ntf    sn217494   7.206   1.321   2.038  0.0976  0.2041  0.0260
 2967ntf    cn117495   7.305   1.473   2.026  0.3528  0.0149 -0.2931
 2967ntf    fn417496   6.793   1.240   1.999 -0.0902 -0.4240  0.0984
 2967ntf    fn417497   6.786   1.256   1.794 -0.1271  0.4646 -0.0112
 2967ntf    fn417498   6.946   1.150   1.889  0.2302 -0.1040 -0.7089
 2967ntf    on517499   7.034   1.420   1.781 -0.0477 -0.3374  0.1098
 2967ntf    on517500   6.871   1.514   1.934  0.5640  0.3326  0.5070
 2967ntf    on517501   7.245   1.242   1.923 -0.1109 -0.1816  0.2179
 2967ntf    on517502   7.235   1.265   2.168  0.2525  1.0431  0.3538
 2967ntf    fn417503   7.274   1.535   1.913 -0.0961  0.3170 -0.0063
 2967ntf    fn417504   7.289   1.551   2.131  0.0497  0.0893 -0.3944
 2967ntf    fn417505   7.435   1.454   2.018  0.2673 -0.5480 -0.4357
 2968ntf    cn117506   6.856   2.752   2.204 -0.1051 -0.0648 -0.0886
 2968ntf    sn217507   7.033   2.719   2.228 -0.1318 -0.0804  0.0943
 2968ntf    nn317508   7.062   2.844   2.319 -0.1715  0.1062 -0.1467
 2968ntf    sn217509   7.199   2.899   2.373 -0.1737 -0.1755  0.1538
 2968ntf    cn117510   7.244   3.026   2.250 -0.0569 -0.1110  0.2634
 2968ntf    fn417511   6.791   2.637   2.193 -1.1175  0.4356  0.4896
 2968ntf    fn417512   6.804   2.828   2.299  0.3997  0.2350 -0.0490
 2968ntf    fn417513   6.830   2.824   2.096  0.1189 -0.0085 -0.1045
 2968ntf    on517514   7.028   2.591   2.294 -0.2483 -0.2148 -0.1733
 2968ntf    on517515   7.082   2.731   2.093  0.3862 -0.4331  0.2475
 2968ntf    on517516   7.312   2.811   2.363  0.0893  0.2087 -0.3098
 2968ntf    on517517   7.197   2.986   2.488  0.1015  0.2849 -0.1840
 2968ntf    fn417518   7.141   3.106   2.230  0.3467  0.3273 -0.0639
 2968ntf    fn417519   7.351   3.097   2.283 -0.0088  0.0613 -0.2525
 2968ntf    fn417520   7.271   2.977   2.130 -0.0127  0.7285 -0.0709
 2969ntf    cn117521   2.760   5.959   6.808  0.2571 -0.2266 -0.0439
 2969ntf    sn217522   2.909   6.016   6.894  0.0735  0.1215  0.0455
 2969ntf    nn317523   3.020   5.970   6.792  0.0326 -0.0701  0.0864
 2969ntf    sn217524   3.108   5.841   6.781 -0.2303 -0.2435  0.0134
 2969ntf    cn117525   3.045   5.785   6.619  0.0886  0.4068 -0.3414
 2969ntf    fn417526   2.716   5.835   6.828 -0.7645  0.1785  0.3116
 2969ntf    fn417527   2.656   6.037   6.832  0.4080  0.0593 -0.3152
 2969ntf    fn417528   2.778   5.970   6.678 -0.5703  0.2816 -0.1219
 2969ntf    on517529   2.889   6.158   6.885  0.0876  0.1219  0.0113
 2969ntf    on517530   2.910   5.961   7.027  0.2351 -0.2340 -0.1013
 2969ntf    on517531   3.072   5.741   6.879  0.3263 -0.1856  0.2822
 2969ntf    on517532   3.248   5.859   6.751 -0.2271 -0.3891 -0.0629
 2969ntf    fn417533   3.063   5.658   6.588 -0.4466  0.2551 -0.0541
 2969ntf    fn417534   2.915   5.799   6.602  0.1004  0.1838 -0.6255
 2969ntf    fn417535   3.114   5.843   6.523  0.7346 -0.0194 -0.1410
 2970ntf    cn117536   1.469   2.685   5.585 -0.2241 -0.0138 -0.0962
 2970ntf    sn217537   1.568   2.640   5.731  0.0746  0.0289 -0.2858
 2970ntf    nn317538   1.511   2.496   5.755 -0.2043  0.2301  0.2581
 2970ntf    sn217539   1.554   2.356   5.698 -0.0868  0.3232  0.1199
 2970ntf    cn117540   1.664   2.305   5.833 -0.2313  0.2427  0.2063
 2970ntf    fn417541   1.540   2.749   5.494  0.0761  0.0982  0.2174
 2970ntf    fn417542   1.432   2.581   5.511 -0.0045 -0.0046 -0.2220
 2970ntf    fn417543   1.360   2.755   5.610  0.1165  0.5356 -0.1276
 2970ntf    on517544   1.703   2.658   5.683  0.1422 -0.0528 -0.1257
 2970ntf    on517545   1.516   2.731   5.830  0.1405  0.2925 -0.4902
 2970ntf    on517546   1.638   2.366   5.581 -0.2383 -0.5222 -0.0669
 2970ntf    on517547   1.443   2.265   5.707  0.1724  0.0103  0.1769
 2970ntf    fn417548   1.594   2.304   5.945  0.0737  0.6703  0.4055
 2970ntf    fn417549   1.720   2.187   5.814 -0.2858  0.1392  0.6766
 2970ntf    fn417550   1.767   2.386   5.854 -0.0762  0.0761  0.0902
 2971ntf    cn117551   0.250   5.822   0.291 -0.1164  0.1821 -0.0053
 2971ntf    sn217552   0.278   5.794   0.469 -0.0510  0.1680 -0.0178
 2971ntf    nn317553   0.190   5.666   0.492  0.3605 -0.0514  0.3583
 2971ntf    sn217554   0.224   5.513   0.502  0.3079 -0.0949 -0.0971
 2971ntf    cn117555   0.165   5.468   0.668  0.4080  0.0172 -0.0311
 2971ntf    fn417556   0.122   5.822   0.258 -0.0766  1.0828 -0.1847
 2971ntf    fn417557   0.309   5.931   0.244  0.3896  0.0573  0.3273
 2971ntf    fn417558   0.316   5.723   0.234 -0.1281 -0.0843  0.4376
 2971ntf    on517559   0.420   5.774   0.478 -0.0885 -0.1731 -0.1640
 2971ntf    on517560   0.210   5.906   0.530 -0.4712 -0.0371 -0.1102
 2971ntf    on517561   0.364   5.483   0.506  0.2646 -0.3010 -0.1086
 2971ntf    on517562   0.135   5.439   0.417  0.4844 -0.2057 -0.1844
 2971ntf    fn417563   0.040   5.499   0.695  0.4064 -0.0531  0.0416
 2971ntf    fn417564   0.170   5.337   0.681  0.5084  0.0232 -0.0062
 2971ntf    fn417565   0.244   5.514   0.764 -0.0713  0.2498  0.2545
 2972ntf    cn117566   0.398   6.913   1.358  0.3563 -0.2017 -0.2020
 2972ntf    sn217567   0.364   7.091   1.364  0.1144 -0.2568  0.0639
 2972ntf    nn317568   0.250   7.102   1.472  0.0617  0.1545 -0.0331
 2972ntf    sn217569   0.256   7.147   1.622  0.0687  0.1513 -0.0325
 2972ntf    cn117570   0.219   7.324   1.605  0.3438  0.1869 -0.2553
 2972ntf    fn417571   0.478   6.886   1.256  0.3620  0.1781 -0.2993
 2972ntf    fn417572   0.467   6.887   1.468 -0.5708 -0.5586  0.3112
 2972ntf    fn417573   0.293   6.833   1.352  0.1229  0.0938 -0.0713
 2972ntf    on517574   0.489   7.149   1.409  0.2221 -0.4554  0.0194
 2972ntf    on517575   0.314   7.125   1.233  0.7918 -0.9058 -0.3706
 2972ntf    on517576   0.379   7.139   1.697 -0.1022 -0.0465  0.2295
 2972ntf    on517577   0.131   7.109   1.685  0.1195  0.1962  0.0958
 2972ntf    fn417578   0.105   7.344   1.542  0.0917  0.5121  0.2937
 2972ntf    fn417579   0.198   7.385   1.720 -0.1509 -0.5688  0.0584
 2972ntf    fn417580   0.312   7.389   1.536  0.4520  0.6325  0.3015
 2973ntf    cn117581   0.488   3.820   0.044  0.0203 -0.1011  0.4217
 2973ntf    sn217582   0.467   3.684   0.163 -0.0096 -0.1910  0.3134
 2973ntf    nn317583   0.350   3.609   0.090 -0.1286 -0.0060  0.3123
 2973ntf    sn217584   0.357   3.511  -0.032  0.0194  0.3241  0.0555
 2973ntf    cn117585   0.363   3.348   0.049  0.0066  0.3781  0.1657
 2973ntf    fn417586   0.577   3.907   0.089 -0.5308  0.6114  0.1521
 2973ntf    fn417587   0.529   3.781  -0.076 -0.2660  0.1139  0.2529
 2973ntf    fn417588   0.377   3.890   0.025 -0.0827 -0.1677  0.7744
 2973ntf    on517589   0.590   3.611   0.178  0.1265 -0.0417 -0.0546
 2973ntf    on517590   0.419   3.744   0.285  0.5467 -0.1802  0.5271
 2973ntf    on517591   0.475   3.516  -0.115 -0.2816 -0.0253 -0.3982
 2973ntf    on517592   0.229   3.497  -0.099  0.1331 -0.1199 -0.0752
 2973ntf    fn417593   0.348   3.244  -0.031  0.3866  0.3373  0.1471
 2973ntf    fn417594   0.478   3.334   0.111 -0.2199  0.4944  0.6175
 2973ntf    fn417595   0.265   3.346   0.137 -0.3304  0.1798 -0.2081
 2974ntf    cn117596   0.440   4.981   4.402  0.1230 -0.1207 -0.0141
 2974ntf    sn217597   0.527   4.968   4.243 -0.1360 -0.1578 -0.1520
 2974ntf    nn317598   0.485   5.103   4.173 -0.0322  0.0925  0.2652
 2974ntf    sn217599   0.570   5.235   4.167 -0.2184  0.1976 -0.0760
 2974ntf    cn117600   0.603   5.238   3.988  0.0739  0.1453 -0.0227
 2974ntf    fn417601   0.310   4.961   4.391  0.1524 -0.6785  0.6157
 2974ntf    fn417602   0.485   4.898   4.495 -0.3333  0.1223  0.4269
 2974ntf    fn417603   0.456   5.103   4.451  0.0495 -0.1963  0.2002
 2974ntf    on517604   0.664   4.956   4.286 -0.2410 -0.1095  0.2001
 2974ntf    on517605   0.468   4.853   4.179 -0.1050 -0.2973  0.0698
 2974ntf    on517606   0.702   5.237   4.224 -0.1725 -0.0709 -0.1705
 2974ntf    on517607   0.492   5.356   4.172 -0.6297 -0.0638 -0.0546
 2974ntf    fn417608   0.654   5.356   3.956  0.0502  0.2153  0.1912
 2974ntf    fn417609   0.692   5.150   3.946 -0.1278  0.0667 -0.2847
 2974ntf    fn417610   0.497   5.223   3.910  0.1670  0.2077 -0.1617
 2975ntf    cn117611   6.278   4.532   3.730  0.3253  0.0324 -0.0951
 2975ntf    sn217612   6.337   4.485   3.896  0.4005 -0.2617 -0.2062
 2975ntf    nn317613   6.493   4.485   3.878  0.4862  0.1984  0.5377
 2975ntf    sn217614   6.594   4.373   3.836  0.3524  0.3490 -0.2019
 2975ntf    cn117615   6.654   4.454   3.684  0.2098  0.2894 -0.2895
 2975ntf    fn417616   6.152   4.496   3.711  0.0517  0.5887  0.5884
 2975ntf    fn417617   6.285   4.663   3.712 -0.0323  0.0937  0.1843
 2975ntf    fn417618   6.344   4.472   3.633 -0.0351  0.4828 -0.6232
 2975ntf    on517619   6.290   4.596   3.974  0.0087 -0.3635 -0.2947
 2975ntf    on517620   6.269   4.361   3.926  0.4867 -0.3644 -0.4275
 2975ntf    on517621   6.544   4.248   3.785  0.2818  0.2509  0.1040
 2975ntf    on517622   6.716   4.371   3.913  0.1955  0.0331  0.0391
 2975ntf    fn417623   6.733   4.556   3.713  0.4221  0.2012 -0.5623
 2975ntf    fn417624   6.708   4.383   3.587 -0.0639 -0.5129  0.1358
 2975ntf    fn417625   6.549   4.509   3.625 -0.2294 -0.0798  0.1332
 2976ntf    cn117626   2.431   4.430   2.886  0.2501  0.2270 -0.3304
 2976ntf    sn217627   2.496   4.596   2.851  0.2264  0.2878 -0.0907
 2976ntf    nn317628   2.394   4.680   2.936 -0.1115 -0.2448  0.0293
 2976ntf    sn217629   2.258   4.735   2.883 -0.1302 -0.2883  0.0309
 2976ntf    cn117630   2.305   4.906   2.843  0.0587 -0.2867  0.2646
 2976ntf    fn417631   2.437   4.395   3.014 -0.0092 -0.3125 -0.4643
 2976ntf    fn417632   2.302   4.424   2.858  0.1550  0.1031  0.1180
 2976ntf    fn417633   2.503   4.341   2.821  0.3239 -0.1838  0.3056
 2976ntf    on517634   2.631   4.601   2.903  0.2505 -0.3836 -0.0903
 2976ntf    on517635   2.484   4.600   2.707  0.4970  0.2289 -0.1158
 2976ntf    on517636   2.169   4.745   2.996 -0.5784  0.0506 -0.3465
 2976ntf    on517637   2.206   4.683   2.759  0.2784 -0.1421 -0.2002
 2976ntf    fn417638   2.329   4.981   2.950 -0.6946  0.1132  0.1579
 2976ntf    fn417639   2.415   4.904   2.770 -0.2122  0.5419 -0.1799
 2976ntf    fn417640   2.212   4.970   2.774  0.3032 -0.1531  0.0557
 2977ntf    cn117641   5.362   4.965   6.112  0.1822 -0.0555  0.1259
 2977ntf    sn217642   5.330   5.090   6.239 -0.1851 -0.0346  0.0117
 2977ntf    nn317643   5.301   4.999   6.364 -0.1902  0.2502  0.2207
 2977ntf    sn217644   5.170   4.978   6.447 -0.2359 -0.1245  0.0568
 2977ntf    cn117645   5.081   4.850   6.354 -0.0727 -0.0249 -0.2367
 2977ntf    fn417646   5.265   4.878   6.090  0.3915 -0.3416  0.3151
 2977ntf    fn417647   5.400   5.013   5.995 -0.3724 -0.2020 -0.1160
 2977ntf    fn417648   5.466   4.893   6.153  0.0379  0.0625  0.7116
 2977ntf    on517649   5.449   5.171   6.250 -0.0336 -0.3059  0.3711
 2977ntf    on517650   5.211   5.154   6.188 -0.1545 -0.0982 -0.1393
 2977ntf    on517651   5.082   5.092   6.456  0.4846  0.4063  0.4737
 2977ntf    on517652   5.192   4.909   6.572  0.0060 -0.1332  0.0086
 2977ntf    fn417653   5.061   4.879   6.226 -0.2681 -0.3951 -0.2945
 2977ntf    fn417654   5.145   4.734   6.346 -0.2627 -0.1783  0.4723
 2977ntf    fn417655   4.963   4.825   6.408  0.1303  0.1803  0.3062
 2978ntf    cn117656   1.703   6.579   6.606  0.0669  0.0830 -0.0493
 2978ntf    sn217657   1.835   6.627   6.721 -0.2433  0.4756  0.1436
 2978ntf    nn317658   1.883   6.767   6.669  0.5667  0.3318  0.4776
 2978ntf    sn217659   1.854   6.901   6.747  0.3746  0.2828  0.4931
 2978ntf    cn117660   1.847   7.021   6.611  0.0726 -0.3972 -0.0975
 2978ntf    fn417661   1.752   6.517   6.499 -0.3478  0.0326 -0.2127
 2978ntf    fn417662   1.625   6.489   6.664  0.0886 -0.2208 -0.4809
 2978ntf    fn417663   1.635   6.685   6.566 -0.0502 -0.0796 -0.2875
 2978ntf    on517664   1.775   6.620   6.852 -0.7358  0.4723 -0.0832
 2978ntf    on517665   1.935   6.531   6.682 -0.5556  0.2050  0.0040
 2978ntf    on517666   1.966   6.951   6.823  1.0131 -0.1311 -0.1558
 2978ntf    on517667   1.721   6.916   6.800  0.1144 -0.1626 -0.0214
 2978ntf    fn417668   1.733   7.003   6.546  0.0193  0.4561 -0.2453
 2978ntf    fn417669   1.865   7.144   6.655  0.4507 -0.4684 -0.0440
 2978ntf    fn417670   1.949   6.999   6.529  0.7200  0.1003  0.5576
 2979ntf    cn117671   0.727   0.309   6.607  0.5642  0.1483 -0.1214
 2979ntf    sn217672   0.687   0.387   6.448 -0.0849  0.0399 -0.0162
 2979ntf    nn317673   0.538   0.431   6.469 -0.0032  0.1253  0.3835
 2979ntf    sn217674   0.490   0.563   6.540 -0.1584  0.4865 -0.3859
 2979ntf    cn117675   0.366   0.484   6.647  0.9654 -0.2655  0.3802
 2979ntf    fn417676   0.740   0.401   6.702 -0.1994  0.2706 -0.1243
 2979ntf    fn417677   0.630   0.231   6.652  0.6006  0.2019  0.0520
 2979ntf    fn417678   0.837   0.236   6.608  0.3285 -0.2028  0.0629
 2979ntf    on517679   0.790   0.487   6.435 -0.0923 -0.0347 -0.6962
 2979ntf    on517680   0.698   0.274   6.359  0.0920 -0.5216  0.7116
 2979ntf    on517681   0.418   0.655   6.456 -0.0562  0.6731 -0.2697
 2979ntf    on517682   0.589   0.618   6.629 -0.1617 -0.3607  0.1504
 2979ntf    fn417683   0.261   0.440   6.579  0.6559  0.4492  0.3853
 2979ntf    fn417684   0.403   0.380   6.720 -0.1159 -0.3671  0.7881
 2979ntf    fn417685   0.321   0.571   6.736 -0.2133  0.0399 -0.4964
 2980ntf    cn117686   1.299   6.560   5.487  0.2442  0.2316  0.0094
 2980ntf    sn217687   1.416   6.590   5.350  0.1490 -0.0437 -0.1317
 2980ntf    nn317688   1.525   6.497   5.413  0.3964  0.0278 -0.4524
 2980ntf    sn217689   1.531   6.340   5.421 -0.0003  0.0420  0.1843
 2980ntf    cn117690   1.687   6.308   5.335 -0.1152 -0.1616  0.0514
 2980ntf    fn417691   1.204   6.652   5.484 -0.1590 -0.1803  0.1301
 2980ntf    fn417692   1.246   6.440   5.477  0.7057  0.0090  0.1929
 2980ntf    fn417693   1.353   6.559   5.607 -0.5196 -0.1512  0.3534
 2980ntf    on517694   1.353   6.545   5.228 -0.2092  0.2958 -0.0759
 2980ntf    on517695   1.456   6.727   5.363 -0.3885  0.0785  0.2410
 2980ntf    on517696   1.425   6.274   5.348  0.0564  0.4834 -0.3004
 2980ntf    on517697   1.547   6.297   5.558 -0.2430  0.9764  0.5136
 2980ntf    fn417698   1.736   6.186   5.352  0.1282 -0.0750 -0.0119
 2980ntf    fn417699   1.686   6.332   5.205 -0.4220  0.0774  0.0961
 2980ntf    fn417700   1.778   6.392   5.380 -0.0689 -0.3973  0.4003
 2981ntf    cn117701   0.073   0.528   6.248 -0.0528 -0.2571  0.5076
 2981ntf    sn217702   0.038   0.447   6.089 -0.1151  0.1958  0.2884
 2981ntf    nn317703  -0.058   0.551   6.023 -0.3925 -0.6003 -0.5891
 2981ntf    sn217704  -0.035   0.654   5.906  0.1063 -0.0010  0.0348
 2981ntf    cn117705  -0.148   0.585   5.782  0.0173  0.1443  0.0337
 2981ntf    fn417706   0.149   0.635   6.231 -0.0041 -0.3350  0.2166
 2981ntf    fn417707  -0.044   0.566   6.295  0.0426  1.0700 -0.2887
 2981ntf    fn417708   0.134   0.451   6.336  0.3428 -0.2359  0.2557
 2981ntf    on517709   0.174   0.445   6.040  0.0390 -0.0770  0.7229
 2981ntf    on517710  -0.032   0.324   6.118  0.1224 -0.0374 -0.1015
 2981ntf    on517711   0.096   0.661   5.846  0.0424 -0.3301 -0.1441
 2981ntf    on517712  -0.101   0.780   5.929 -0.0541 -0.1254  0.2686
 2981ntf    fn417713  -0.147   0.659   5.673  0.0342  0.5893  0.3322
 2981ntf    fn417714  -0.117   0.462   5.744 -0.0743  0.1141  0.0586
 2981ntf    fn417715  -0.274   0.593   5.821 -0.0149 -0.0849 -0.0192
 2982ntf    cn117716   1.383   0.188   3.433  0.2014  0.3681 -0.3300
 2982ntf    sn217717   1.245   0.303   3.407 -0.1500  0.0905  0.2787
 2982ntf    nn317718   1.133   0.263   3.510 -0.0529 -0.0334  0.3353
 2982ntf    sn217719   0.988   0.215   3.473  0.0449 -0.0659 -0.0121
 2982ntf    cn117720   1.022   0.040   3.438  0.0890 -0.0229 -0.1828
 2982ntf    fn417721   1.352   0.060   3.418  0.4470  0.2956 -0.2186
 2982ntf    fn417722   1.480   0.203   3.345  0.1710 -0.4682 -0.5107
 2982ntf    fn417723   1.429   0.200   3.557 -0.2729  0.4361 -0.1586
 2982ntf    on517724   1.308   0.431   3.432  0.5116 -0.1478 -0.1503
 2982ntf    on517725   1.215   0.286   3.267 -0.5172  0.2522  0.3344
 2982ntf    on517726   0.921   0.263   3.355 -0.1048 -0.7524 -0.2088
 2982ntf    on517727   0.904   0.196   3.588 -0.5489  0.2994 -0.3803
 2982ntf    fn417728   0.918  -0.039   3.423 -0.3041  0.4344  0.1153
 2982ntf    fn417729   1.095   0.023   3.328  0.3353  0.1883 -0.0537
 2982ntf    fn417730   1.101  -0.008   3.532  0.1371  0.5299  0.0650
 2983ntf    cn117731   5.975   1.620   4.467 -0.2798 -0.2056  0.0403
 2983ntf    sn217732   5.987   1.719   4.315  0.2610 -0.0547  0.1784
 2983ntf    nn317733   5.881   1.650   4.222 -0.1698 -0.7776  1.1870
 2983ntf    sn217734   5.743   1.710   4.176  0.3442 -0.2168  0.3576
 2983ntf    cn117735   5.793   1.829   4.048 -0.1929  0.2677  0.5985
 2983ntf    fn417736   6.023   1.686   4.571  0.0400 -0.1577 -0.1360
 2983ntf    fn417737   5.848   1.602   4.500 -0.3730  0.0301 -0.1924
 2983ntf    fn417738   6.037   1.503   4.463 -0.6459 -0.3888 -0.2932
 2983ntf    on517739   5.960   1.854   4.357 -0.2000  0.0095 -0.3161
 2983ntf    on517740   6.117   1.679   4.267  0.3074  0.1283  0.1498
 2983ntf    on517741   5.672   1.795   4.268  0.6184  1.0004 -0.5239
 2983ntf    on517742   5.666   1.610   4.107 -0.1558  0.3957  0.0232
 2983ntf    fn417743   5.884   1.906   4.106  0.1037  0.2833  0.1183
 2983ntf    fn417744   5.848   1.784   3.937 -0.7981  0.1511  0.3388
 2983ntf    fn417745   5.690   1.901   4.003 -0.0059  0.2063  0.0608
 2984ntf    cn117746   1.147   0.969   0.197 -0.0198  0.0579  0.1013
 2984ntf    sn217747   1.162   1.022   0.024  0.0525  0.2638  0.1697
 2984ntf    nn317748   1.296   0.949  -0.013  0.0486  0.3080  0.0690
 2984ntf    sn217749   1.346   0.886  -0.148  0.0321  0.2904  0.0709
 2984ntf    cn117750   1.522   0.926  -0.131  0.0914  0.1524 -0.2008
 2984ntf    fn417751   1.035   1.002   0.260 -0.0139  0.0400  0.1208
 2984ntf    fn417752   1.147   0.837   0.200  0.3218  0.0535 -0.0771
 2984ntf    fn417753   1.244   1.019   0.272 -0.6956  0.5298  0.6838
 2984ntf    on517754   1.050   0.969  -0.050 -0.0344  0.6400  0.0315
 2984ntf    on517755   1.182   1.165   0.021 -0.6246  0.3485 -0.5197
 2984ntf    on517756   1.311   0.958  -0.268 -0.4230 -0.1470 -0.0627
 2984ntf    on517757   1.330   0.742  -0.153 -0.1425  0.3153 -0.0997
 2984ntf    fn417758   1.568   0.906  -0.008 -0.3401 -0.3708 -0.1210
 2984ntf    fn417759   1.601   0.851  -0.206 -0.0334 -0.3181  0.1359
 2984ntf    fn417760   1.551   1.048  -0.174 -0.1359  0.2525 -0.0710
 2985ntf    cn117761   2.190   2.423   0.166  0.3567 -0.3911  0.3770
 2985ntf    sn217762   2.250   2.331   0.021  0.1105  0.0678 -0.0186
 2985ntf    nn317763   2.116   2.261  -0.019 -0.1534  0.3481  0.3624
 2985ntf    sn217764   2.080   2.108  -0.019  0.0168  0.3075  0.6838
 2985ntf    cn117765   2.135   2.067  -0.187 -0.2660  0.3811  0.5736
 2985ntf    fn417766   2.145   2.351   0.268  0.2609 -0.0553  0.5734
 2985ntf    fn417767   2.294   2.492   0.209 -0.2081  0.3477  0.5813
 2985ntf    fn417768   2.096   2.512   0.140  0.2678 -0.6788 -0.3072
 2985ntf    on517769   2.287   2.439  -0.068 -0.4362 -0.3006 -0.7011
 2985ntf    on517770   2.358   2.245   0.063 -0.2150 -0.5544 -0.4467
 2985ntf    on517771   1.938   2.086  -0.020  0.0691 -0.0221  0.4365
 2985ntf    on517772   2.158   2.023   0.068  0.1562 -0.3442 -0.0640
 2985ntf    fn417773   2.092   2.152  -0.279  0.1659  0.0874  0.0917
 2985ntf    fn417774   2.267   2.061  -0.187 -0.2984 -0.6393  0.1948
 2985ntf    fn417775   2.095   1.948  -0.231  0.0594  0.3824  0.2646
 2986ntf    cn117776   5.369   5.273   5.369 -0.2383  0.2073 -0.1895
 2986ntf    sn217777   5.400   5.265   5.548 -0.1347  0.0283 -0.2158
 2986ntf    nn317778   5.464   5.405   5.581 -0.0030 -0.0704 -0.0491
 2986ntf    sn217779   5.419   5.512   5.686  0.0736 -0.1747  0.0899
 2986ntf    cn117780   5.510   5.461   5.835  0.0849  0.2239  0.2224
 2986ntf    fn417781   5.299   5.380   5.336 -0.2761  0.4200  0.5704
 2986ntf    fn417782   5.473   5.284   5.289  0.1960 -0.5344  0.2617
 2986ntf    fn417783   5.289   5.177   5.324 -0.5693  0.3036  0.1883
 2986ntf    on517784   5.272   5.237   5.607 -0.0561  0.0109 -0.0528
 2986ntf    on517785   5.497   5.159   5.553 -0.3444 -0.1604 -0.1603
 2986ntf    on517786   5.284   5.508   5.735 -0.0319 -1.2293 -0.2826
 2986ntf    on517787   5.464   5.644   5.649 -0.2080 -0.3553 -0.9126
 2986ntf    fn417788   5.628   5.407   5.811 -0.2110 -0.1846 -0.3211
 2986ntf    fn417789   5.525   5.565   5.916  0.1843 -0.1760  0.7244
 2986ntf    fn417790   5.441   5.374   5.906  0.5519  0.1645  0.6074
 2987ntf    cn117791   1.634   3.521   6.792  0.1514 -0.3222 -0.2577
 2987ntf    sn217792   1.478   3.530   6.699 -0.1497  0.0448  0.2794
 2987ntf    nn317793   1.480   3.683   6.663 -0.2952  0.0357  0.2333
 2987ntf    sn217794   1.458   3.814   6.748  0.3338  0.3229 -0.0354
 2987ntf    cn117795   1.315   3.881   6.658  0.2336 -0.3320 -0.3763
 2987ntf    fn417796   1.734   3.570   6.719  0.0244  0.1517 -0.1206
 2987ntf    fn417797   1.645   3.587   6.906  0.3587  0.0587 -0.4917
 2987ntf    fn417798   1.664   3.397   6.826  0.0318 -0.2273  0.2016
 2987ntf    on517799   1.499   3.457   6.577 -0.2421 -0.4425  0.5544
 2987ntf    on517800   1.379   3.491   6.795  0.0293  0.3111  0.5729
 2987ntf    on517801   1.567   3.906   6.732  0.2260  0.3609 -0.5683
 2987ntf    on517802   1.405   3.786   6.879 -0.2382  0.3197 -0.2643
 2987ntf    fn417803   1.337   3.918   6.533  0.5577 -0.5263 -0.3764
 2987ntf    fn417804   1.218   3.792   6.649 -0.0605 -0.0571  0.0263
 2987ntf    fn417805   1.259   3.981   6.725  0.0093 -0.7468  0.0575
 2988ntf    cn117806   5.552   2.881   3.094  0.1402 -0.2867  0.0234
 2988ntf    sn217807   5.519   3.058   3.120  0.1148 -0.2830 -0.0336
 2988ntf    nn317808   5.401   3.044   3.223  0.0152  0.5209 -0.0327
 2988ntf    sn217809   5.246   3.029   3.202  0.0669  0.0043 -0.0611
 2988ntf    cn117810   5.215   2.919   3.344 -0.1761 -0.0142 -0.1284
 2988ntf    fn417811   5.635   2.826   3.182  0.6990  0.1940 -0.1990
 2988ntf    fn417812   5.443   2.807   3.100  0.3713 -0.6151  0.2402
 2988ntf    fn417813   5.601   2.852   2.975  0.5721  0.1671  0.0840
 2988ntf    on517814   5.639   3.108   3.183  0.3923 -0.6422 -0.2696
 2988ntf    on517815   5.495   3.110   2.987  0.4639 -0.8130 -0.3092
 2988ntf    on517816   5.202   2.946   3.093  0.3834 -0.6559  0.3081
 2988ntf    on517817   5.175   3.149   3.239  0.2880  0.1220 -0.0141
 2988ntf    fn417818   5.086   2.919   3.372 -0.0555  0.6397  0.4700
 2988ntf    fn417819   5.251   2.793   3.324  0.3479  0.0803  0.1973
 2988ntf    fn417820   5.286   2.959   3.449  0.2440 -0.9350 -0.0526
 2989ntf    cn117821   4.801   5.913   4.894  0.2865  0.5196 -0.4359
 2989ntf    sn217822   4.939   6.026   4.925  0.0888  0.5557  0.3510
 2989ntf    nn317823   4.999   5.952   5.050 -0.0563 -0.0980  0.0355
 2989ntf    sn217824   4.968   5.970   5.202  0.3926  0.1041  0.1064
 2989ntf    cn117825   5.096   6.085   5.260  0.4134  0.1149  0.0391
 2989ntf    fn417826   4.844   5.798   4.845 -0.5524 -0.0955  0.2367
 2989ntf    fn417827   4.739   5.876   5.005  0.4577  0.1801 -0.4513
 2989ntf    fn417828   4.714   5.962   4.808 -0.6691 -0.3498  0.0030
 2989ntf    on517829   5.009   6.009   4.799 -0.1783 -0.1523  0.2960
 2989ntf    on517830   4.880   6.155   4.953 -0.0443  0.6268 -0.2467
 2989ntf    on517831   5.000   5.851   5.277 -0.5969  0.0984  0.5509
 2989ntf    on517832   4.845   6.039   5.232  0.6376  0.3595  0.5416
 2989ntf    fn417833   5.070   6.210   5.227 -0.2249 -0.0241  0.0027
 2989ntf    fn417834   5.114   6.089   5.391  0.4359 -0.3875  0.0534
 2989ntf    fn417835   5.215   6.054   5.212  0.1381  0.0092 -0.5770
 2990ntf    cn117836   0.973   3.287   4.338  0.0466 -0.0013  0.2794
 2990ntf    sn217837   0.985   3.396   4.483 -0.1984  0.2545  0.1075
 2990ntf    nn317838   0.901   3.523   4.444 -0.2747  0.2476  0.2499
 2990ntf    sn217839   0.748   3.536   4.413 -0.2294 -0.1740 -0.1538
 2990ntf    cn117840   0.690   3.645   4.546 -0.3877  0.0451 -0.4013
 2990ntf    fn417841   0.857   3.299   4.276  0.0554 -0.6033  0.1422
 2990ntf    fn417842   1.061   3.317   4.244 -0.1627  0.3707  0.1983
 2990ntf    fn417843   0.985   3.157   4.358  0.0775 -0.0554 -0.0982
 2990ntf    on517844   0.940   3.317   4.595 -0.1689 -0.5431 -0.4406
 2990ntf    on517845   1.125   3.428   4.494 -0.0744 -0.3579  0.3243
 2990ntf    on517846   0.671   3.415   4.430 -0.4071 -0.0735 -0.2422
 2990ntf    on517847   0.729   3.602   4.286  0.2187 -0.2630 -0.2673
 2990ntf    fn417848   0.699   3.596   4.668 -0.0586  0.3647 -0.2957
 2990ntf    fn417849   0.758   3.758   4.553 -0.4011  0.0476 -0.3057
 2990ntf    fn417850   0.561   3.671   4.527 -0.4592 -0.0686 -0.0695
 2991ntf    cn117851   4.622   6.128   1.795  0.2481  0.0094 -0.0428
 2991ntf    sn217852   4.638   6.113   1.975  0.1314  0.0235 -0.0310
 2991ntf    nn317853   4.505   6.180   2.024  0.0087  0.1995 -0.5955
 2991ntf    sn217854   4.356   6.128   2.027  0.0868 -0.0017  0.3739
 2991ntf    cn117855   4.329   6.117   2.206  0.0448 -0.2600  0.3522
 2991ntf    fn417856   4.495   6.120   1.759  0.2335 -0.1449  0.0410
 2991ntf    fn417857   4.647   6.250   1.751  0.3742 -0.1138 -0.3139
 2991ntf    fn417858   4.687   6.037   1.724  0.0555 -0.3835  0.2779
 2991ntf    on517859   4.658   5.973   2.002  0.0902 -0.0296 -0.2731
 2991ntf    on517860   4.752   6.198   1.999  0.3117 -0.2492  0.0830
 2991ntf    on517861   4.341   5.992   1.980  0.5178  0.0057  0.1999
 2991ntf    on517862   4.251   6.217   1.985 -0.3442 -0.4211  0.5570
 2991ntf    fn417863   4.201   6.105   2.237  0.0362  0.0590  0.4359
 2991ntf    fn417864   4.396   6.018   2.263  0.1020  0.0509  0.8306
 2991ntf    fn417865   4.365   6.228   2.268 -0.5574 -0.1148  0.4539
 2992ntf    cn117866   5.290   1.241   5.538 -0.1227 -0.1990 -0.0701
 2992ntf    sn217867   5.343   1.188   5.372  0.3768  0.1148 -0.0130
 2992ntf    nn317868   5.494   1.222   5.396  0.3583  0.0198  0.2355
 2992ntf    sn217869   5.597   1.311   5.318 -0.1030  0.1086 -0.2734
 2992ntf    cn117870   5.672   1.192   5.203  0.6780  0.0415  0.3015
 2992ntf    fn417871   5.166   1.205   5.567  0.0996 -0.3385  0.7216
 2992ntf    fn417872   5.358   1.198   5.643 -0.1702 -0.3088 -0.0841
 2992ntf    fn417873   5.294   1.373   5.538  0.2965 -0.2042 -0.6523
 2992ntf    on517874   5.318   1.046   5.368 -0.4149  0.2264  0.6038
 2992ntf    on517875   5.272   1.270   5.277 -0.1091 -0.1296  0.1382
 2992ntf    on517876   5.709   1.336   5.405 -0.3146  0.0070  0.0302
 2992ntf    on517877   5.547   1.419   5.236 -0.4038  0.4536  0.3562
 2992ntf    fn417878   5.772   1.243   5.133  0.0814  0.2123 -0.4422
 2992ntf    fn417879   5.717   1.094   5.280  0.3356 -0.1502  0.2588
 2992ntf    fn417880   5.585   1.139   5.119  0.6356  0.3342  0.1583
 2993ntf    cn117881   0.404   5.422   2.874  0.0232 -0.0357  0.1994
 2993ntf    sn217882   0.463   5.384   2.706 -0.1255 -0.5712  0.2656
 2993ntf    nn317883   0.611   5.351   2.748  0.1188 -0.0275 -0.1584
 2993ntf    sn217884   0.742   5.432   2.774  0.0198 -0.0096  0.2910
 2993ntf    cn117885   0.811   5.420   2.607 -0.0931  0.2538  0.2238
 2993ntf    fn417886   0.271   5.414   2.874  0.0414 -0.3919 -0.5645
 2993ntf    fn417887   0.453   5.333   2.959  0.0577 -0.0200  0.1953
 2993ntf    fn417888   0.441   5.542   2.915 -0.0586  0.0332  0.0721
 2993ntf    on517889   0.398   5.259   2.674 -0.6219 -0.2037 -0.1782
 2993ntf    on517890   0.443   5.504   2.629  0.1185 -0.5365  0.2560
 2993ntf    on517891   0.828   5.362   2.867 -0.0018 -0.3249  0.0708
 2993ntf    on517892   0.720   5.574   2.793 -0.2975  0.0167 -0.2670
 2993ntf    fn417893   0.851   5.295   2.586 -0.1710  0.1896  0.4630
 2993ntf    fn417894   0.728   5.461   2.513  0.0818  0.9732  0.3790
 2993ntf    fn417895   0.923   5.486   2.584  0.0260 -0.0746 -0.1633
 2994ntf    cn117896   3.925   5.481   0.807 -0.1487  0.1603  0.5367
 2994ntf    sn217897   3.873   5.453   0.635  0.0818 -0.1775  0.5196
 2994ntf    nn317898   3.728   5.510   0.655  0.2458  0.2342  0.5467
 2994ntf    sn217899   3.664   5.642   0.600  0.3379 -0.0475 -0.2473
 2994ntf    cn117900   3.540   5.677   0.728  0.2459 -0.1059 -0.3210
 2994ntf    fn417901   3.868   5.395   0.890 -0.3193 -0.1795  0.0739
 2994ntf    fn417902   4.054   5.465   0.832 -0.0974 -0.3056  0.0022
 2994ntf    fn417903   3.894   5.597   0.860  0.2463  0.2288  0.6235
 2994ntf    on517904   3.960   5.536   0.556 -0.1355 -0.4480 -0.0093
 2994ntf    on517905   3.880   5.311   0.614 -0.0317 -0.1729  0.4515
 2994ntf    on517906   3.585   5.618   0.482 -0.0414  0.6062 -0.1315
 2994ntf    on517907   3.750   5.758   0.602 -0.2656  0.3980  0.2129
 2994ntf    fn417908   3.463   5.570   0.744  0.2270 -0.0911 -0.3136
 2994ntf    fn417909   3.599   5.705   0.843 -0.3935 -0.3361  0.0734
 2994ntf    fn417910   3.464   5.778   0.690 -0.0564 -0.2451 -0.0891
 2995ntf    cn117911   0.822   5.715   5.963  0.6630  0.0069  0.1070
 2995ntf    sn217912   0.898   5.554   5.926  0.2385 -0.0727 -0.4467
 2995ntf    nn317913   1.036   5.601   5.869 -0.0373  0.4117 -0.7185
 2995ntf    sn217914   1.143   5.511   5.798  0.2311 -0.1335  0.3573
 2995ntf    cn117915   1.110   5.551   5.624  0.0375 -0.4113  0.3298
 2995ntf    fn417916   0.842   5.801   5.863 -0.0493  0.2580  0.1748
 2995ntf    fn417917   0.694   5.703   5.993  0.5814  0.6834  0.0425
 2995ntf    fn417918   0.876   5.775   6.068  0.1554  0.4353  0.1316
 2995ntf    on517919   0.900   5.496   6.058  0.0075  0.0350 -0.3948
 2995ntf    on517920   0.814   5.497   5.824  0.6491  0.1212 -0.8974
 2995ntf    on517921   1.126   5.368   5.808  0.2239 -0.2218 -0.8004
 2995ntf    on517922   1.280   5.551   5.819  0.1982  0.1667  0.0018
 2995ntf    fn417923   1.195   5.480   5.551 -0.0464 -0.5042  0.3216
 2995ntf    fn417924   0.991   5.511   5.580  0.0713 -0.2269  0.0633
 2995ntf    fn417925   1.132   5.676   5.587  0.0994 -0.5917 -0.2586
 2996ntf    cn117926   3.657   0.244   5.667  0.0468 -0.2226 -0.0986
 2996ntf    sn217927   3.493   0.273   5.740  0.1423 -0.2682  0.1367
 2996ntf    nn317928   3.514   0.415   5.805  0.1407 -0.3216  0.2529
 2996ntf    sn217929   3.408   0.529   5.827  0.1000 -0.2646 -0.2238
 2996ntf    cn117930   3.468   0.633   5.691 -0.2220 -0.0370 -0.1924
 2996ntf    fn417931   3.670   0.305   5.551  0.4858  0.2177  0.1740
 2996ntf    fn417932   3.748   0.282   5.756 -0.6354  0.1970  0.4334
 2996ntf    fn417933   3.678   0.114   5.659  0.3443 -0.2170  0.4774
 2996ntf    on517934   3.408   0.270   5.624  0.3558 -0.4587 -0.0152
 2996ntf    on517935   3.475   0.172   5.841 -0.2107 -0.1146  0.2279
 2996ntf    on517936   3.436   0.588   5.956  0.4412 -0.7367 -0.0781
 2996ntf    on517937   3.270   0.490   5.809 -0.0678 -0.0343  0.5256
 2996ntf    fn417938   3.598   0.650   5.706 -0.0839 -0.7378 -0.5345
 2996ntf    fn417939   3.446   0.580   5.572  0.2669 -0.7098  0.0113
 2996ntf    fn417940   3.404   0.749   5.688  0.8083  0.5704  0.5212
 2997ntf    cn117941   5.012   5.570   2.807  0.3669  0.3877  0.3506
 2997ntf    sn217942   5.187   5.598   2.846  0.5818  0.0940 -0.3789
 2997ntf    nn317943   5.153   5.714   2.947 -0.2592 -0.0774 -0.4594
 2997ntf    sn217944   5.166   5.869   2.924 -0.1523 -0.0403 -0.1504
 2997ntf    cn117945   5.342   5.898   2.892 -0.0761 -0.2867  0.0326
 2997ntf    fn417946   4.932   5.675   2.803  0.5244  0.4834 -0.3788
 2997ntf    fn417947   4.997   5.496   2.698  0.0497  0.4468  0.3532
 2997ntf    fn417948   4.964   5.494   2.905 -0.5535  0.2283 -0.2135
 2997ntf    on517949   5.234   5.476   2.906 -0.1301  0.0814  0.1595
 2997ntf    on517950   5.247   5.635   2.721 -0.0671 -0.1509 -0.7660
 2997ntf    on517951   5.140   5.949   3.042  0.0552 -0.2439  0.0342
 2997ntf    on517952   5.113   5.910   2.796 -0.4458  0.6085  0.1733
 2997ntf    fn417953   5.400   5.826   2.797  0.2086 -0.1361  0.0919
 2997ntf    fn417954   5.358   6.024   2.855 -0.2530 -0.2303  0.1475
 2997ntf    fn417955   5.421   5.881   2.997  0.1851  0.4519 -0.0366
 2998ntf    cn117956   2.436   4.314   1.646  0.2336 -0.0645 -0.4764
 2998ntf    sn217957   2.550   4.455   1.665 -0.0313  0.0810  0.0421
 2998ntf    nn317958   2.539   4.487   1.819 -0.4945 -0.2124  0.0725
 2998ntf    sn217959   2.587   4.617   1.893  0.0061 -0.3713  0.0319
 2998ntf    cn117960   2.468   4.637   2.029  0.4771 -0.1152  0.4072
 2998ntf    fn417961   2.346   4.319   1.550  0.1906  0.2298 -0.4234
 2998ntf    fn417962   2.514   4.212   1.614  0.1747 -0.1730 -0.2756
 2998ntf    fn417963   2.368   4.283   1.755  0.0734  0.2260 -0.4915
 2998ntf    on517964   2.672   4.398   1.612  0.1922  0.2807  0.3338
 2998ntf    on517965   2.479   4.553   1.588 -0.1454 -0.0912 -0.0730
 2998ntf    on517966   2.589   4.743   1.822  0.1653 -0.5824 -0.3387
 2998ntf    on517967   2.707   4.596   1.970 -0.0875  0.2523  0.3556
 2998ntf    fn417968   2.347   4.652   1.979  0.3664 -0.2785  0.6208
 2998ntf    fn417969   2.452   4.542   2.120  0.0287  0.3646  0.8382
 2998ntf    fn417970   2.494   4.749   2.096  0.3150 -0.1674  0.5605
 2999ntf    cn117971   3.600   4.590   4.537 -0.1421 -0.0903  0.1871
 2999ntf    sn217972   3.744   4.576   4.426 -0.1403 -0.0745  0.1873
 2999ntf    nn317973   3.679   4.584   4.284  0.1414  0.1257  0.0684
 2999ntf    sn217974   3.660   4.710   4.193  0.3846 -0.1057 -0.3094
 2999ntf    cn117975   3.825   4.724   4.118  0.3172  0.1201 -0.4169
 2999ntf    fn417976   3.635   4.537   4.653  0.0679  0.0139  0.1729
 2999ntf    fn417977   3.557   4.713   4.554 -0.0502 -0.0202 -0.0768
 2999ntf    fn417978   3.499   4.518   4.491  0.0107  0.2220 -0.6509
 2999ntf    on517979   3.815   4.694   4.471 -0.3172 -0.3014  1.0976
 2999ntf    on517980   3.789   4.443   4.460  0.6267  0.1370  0.0076
 2999ntf    on517981   3.645   4.838   4.259  0.5726 -0.0947 -0.2876
 2999ntf    on517982   3.573   4.672   4.085 -0.2675  0.3525  0.0412
 2999ntf    fn417983   3.829   4.832   4.042 -0.3226  0.3969 -0.0691
 2999ntf    fn417984   3.929   4.726   4.200  0.1465  0.2323 -0.2023
 2999ntf    fn417985   3.844   4.617   4.043 -0.0832 -0.0794 -0.2327
 3000ntf    cn117986   2.201   3.542   5.547 -0.0350 -0.0890  0.0400
 3000ntf    sn217987   2.111   3.697   5.571  0.1957  0.0331  0.1237
 3000ntf    nn317988   1.989   3.688   5.472  0.0825  0.2830  0.2393
 3000ntf    sn217989   1.947   3.756   5.337 -0.1579 -0.1761  0.0811
 3000ntf    cn117990   1.868   3.910   5.393 -0.0217  0.0307 -0.2867
 3000ntf    fn417991   2.117   3.440   5.540 -0.0921 -0.0103 -0.4515
 3000ntf    fn417992   2.265   3.538   5.431 -0.0487  0.0295  0.0285
 3000ntf    fn417993   2.297   3.514   5.634  0.4030 -0.5226 -0.5675
 3000ntf    on517994   2.078   3.700   5.712 -0.3730 -0.5888  0.0105
 3000ntf    on517995   2.208   3.795   5.530 -0.4845  0.6931  0.0572
 3000ntf    on517996   1.843   3.682   5.271 -0.4955  0.1880  0.2057
 3000ntf    on517997   2.062   3.788   5.255  0.2284 -1.1214  0.2420
 3000ntf    fn417998   1.821   3.995   5.304 -0.2753  0.5692  0.3480
 3000ntf    fn417999   1.774   3.881   5.482  0.0240  0.2570 -0.1631
 3000ntf    fn418000   1.959   3.970   5.468 -0.1151 -0.1718 -0.0070
 3001ntf    cn118001   4.575   1.410   0.436 -0.2400  0.0030 -0.2279
 3001ntf    sn218002   4.733   1.487   0.481 -0.4032  0.1638  0.0744
 3001ntf    nn318003   4.748   1.622   0.401 -0.3331  0.1603  0.0816
 3001ntf    sn218004   4.804   1.654   0.257 -0.1450 -0.6708 -0.0361
 3001ntf    cn118005   4.864   1.825   0.271 -0.3697 -0.5991  0.0581
 3001ntf    fn418006   4.478   1.462   0.509 -0.0368 -0.3427  0.2873
 3001ntf    fn418007   4.543   1.436   0.310 -0.0766  0.0963 -0.2500
 3001ntf    fn418008   4.573   1.281   0.462 -0.4124  0.1131  0.3042
 3001ntf    on518009   4.725   1.505   0.623  0.2121  0.3345  0.0931
 3001ntf    on518010   4.837   1.394   0.445 -0.0167  0.7264 -0.2885
 3001ntf    on518011   4.694   1.660   0.164 -0.5095  0.3801  0.4502
 3001ntf    on518012   4.927   1.591   0.218  0.4352  0.2888  0.2283
 3001ntf    fn418013   4.935   1.853   0.379 -0.3525  0.2259 -0.1671
 3001ntf    fn418014   4.940   1.862   0.170 -0.0861  0.0049  0.4898
 3001ntf    fn418015   4.757   1.903   0.272 -0.2690 -0.4628  0.2664
 3002ntf    cn118016   1.708   3.274   0.197 -0.1142 -0.3524 -0.1609
 3002ntf    sn218017   1.853   3.170   0.163  0.1256 -0.0397 -0.1004
 3002ntf    nn318018   1.929   3.278   0.080 -0.5612  0.7146  0.2403
 3002ntf    sn218019   2.064   3.355   0.108 -0.0866 -0.0570  0.1059
 3002ntf    cn118020   2.178   3.282  -0.014  0.0648  0.1332  0.1329
 3002ntf    fn418021   1.739   3.376   0.276 -0.3319  0.1638 -0.7382
 3002ntf    fn418022   1.653   3.314   0.084 -0.0380 -0.0077 -0.0778
 3002ntf    fn418023   1.609   3.208   0.255 -0.0955  0.1055  0.4044
 3002ntf    on518024   1.907   3.130   0.291 -0.6805 -0.1693  0.2119
 3002ntf    on518025   1.794   3.060   0.090  0.4731 -0.3831  0.1262
 3002ntf    on518026   2.127   3.326   0.234  0.1621 -0.3385 -0.0813
 3002ntf    on518027   2.062   3.492   0.062 -0.1615 -0.0609  0.0974
 3002ntf    fn418028   2.147   3.292  -0.142 -0.2641  0.0405  0.2029
 3002ntf    fn418029   2.300   3.330   0.006  0.1036  0.0131  0.1837
 3002ntf    fn418030   2.184   3.151   0.000  0.6965  0.1085 -0.3485
 3003ntf    cn118031   5.667   6.855   3.465  0.1035  0.2956 -0.4435
 3003ntf    sn218032   5.843   6.874   3.508  0.0654  0.2662 -0.2741
 3003ntf    nn318033   5.919   6.788   3.401 -0.0509  0.1921 -0.2984
 3003ntf    sn218034   5.986   6.824   3.263  0.2163  0.0660 -0.2016
 3003ntf    cn118035   6.113   6.695   3.248 -0.0763 -0.2475 -0.0039
 3003ntf    fn418036   5.645   6.848   3.335 -0.4928  0.3000 -0.3463
 3003ntf    fn418037   5.622   6.740   3.514  0.5588  0.4586  0.3851
 3003ntf    fn418038   5.587   6.947   3.516 -0.0465 -0.1529  0.1455
 3003ntf    on518039   5.859   7.017   3.501 -0.1155  0.3394  0.6200
 3003ntf    on518040   5.846   6.818   3.641  0.3296 -0.8438 -0.7292
 3003ntf    on518041   6.073   6.940   3.269 -0.0911  0.2822  0.1566
 3003ntf    on518042   5.911   6.809   3.141 -0.0465 -0.2925  0.0033
 3003ntf    fn418043   6.194   6.695   3.144  0.0694  0.0081  0.1071
 3003ntf    fn418044   6.185   6.681   3.359  0.1157 -0.2594 -0.1295
 3003ntf    fn418045   6.047   6.581   3.237  0.0023 -0.2931 -0.0107
 3004ntf    cn118046   5.307   3.300   4.616 -0.0680  0.2105  0.2467
 3004ntf    sn218047   5.386   3.199   4.486 -0.2515  0.4356 -0.0426
 3004ntf    nn318048   5.532   3.192   4.545 -0.3507  0.5006  0.2108
 3004ntf    sn218049   5.641   3.301   4.515  0.0903  0.0486  0.1585
 3004ntf    cn118050   5.712   3.249   4.357 -0.0917  0.1914  0.0289
 3004ntf    fn418051   5.193   3.348   4.570 -0.1847 -0.2673  0.0345
 3004ntf    fn418052   5.269   3.225   4.717 -0.0011  0.0205  0.1316
 3004ntf    fn418053   5.384   3.399   4.659  0.3046 -0.1460  0.4070
 3004ntf    on518054   5.323   3.070   4.497 -0.2692  0.3854 -0.6940
 3004ntf    on518055   5.370   3.272   4.363 -0.1214 -0.2362 -0.4563
 3004ntf    on518056   5.756   3.293   4.601 -0.0596 -0.9674  0.2672
 3004ntf    on518057   5.593   3.435   4.490 -0.4963 -0.2399 -0.2863
 3004ntf    fn418058   5.817   3.325   4.329  0.1686 -0.3672 -0.5323
 3004ntf    fn418059   5.752   3.123   4.364 -0.3577  0.1207  0.2906
 3004ntf    fn418060   5.637   3.247   4.248 -0.0840 -0.2389  0.0288
 3005ntf    cn118061   0.017   0.940   5.495 -0.0993 -0.1177  0.0969
 3005ntf    sn218062  -0.028   0.827   5.360 -0.1907 -0.0002  0.0289
 3005ntf    nn318063   0.104   0.822   5.275 -0.3188 -0.1944 -0.1618
 3005ntf    sn218064   0.129   0.837   5.121  0.0700 -0.2439 -0.1043
 3005ntf    cn118065   0.221   0.681   5.098 -0.4871 -0.5422 -0.3363
 3005ntf    fn418066  -0.091   0.983   5.558 -0.2148 -0.0095 -0.1715
 3005ntf    fn418067   0.081   0.880   5.594 -0.2740 -0.2586  0.1255
 3005ntf    fn418068   0.085   1.044   5.450  0.0489 -0.2505  0.0148
 3005ntf    on518069  -0.062   0.704   5.425  0.7789 -0.3083 -0.0293
 3005ntf    on518070  -0.138   0.895   5.296 -0.2396 -0.3319 -0.2407
 3005ntf    on518071   0.224   0.940   5.087 -0.0992 -0.2829 -0.7069
 3005ntf    on518072   0.018   0.826   5.030 -0.0762 -0.5388  0.1106
 3005ntf    fn418073   0.222   0.646   4.971 -0.1943  0.3161 -0.5769
 3005ntf    fn418074   0.348   0.695   5.134 -0.4844  0.2246 -0.6149
 3005ntf    fn418075   0.170   0.576   5.160 -0.4874 -0.5656 -0.3758
 3006ntf    cn118076   1.587   1.007   1.976  0.4965  0.0067  0.1371
 3006ntf    sn218077   1.640   0.850   1.902  0.1414 -0.1032  0.1159
 3006ntf    nn318078   1.738   0.790   2.009  0.1819 -0.1818  0.0353
 3006ntf    sn218079   1.891   0.759   1.992  0.1733 -0.0267 -0.3270
 3006ntf    cn118080   1.899   0.612   2.098  0.0082  0.0346 -0.2288
 3006ntf    fn418081   1.688   1.067   2.037  0.1825  0.2316  0.4373
 3006ntf    fn418082   1.534   1.090   1.888  0.4869 -0.0088  0.1283
 3006ntf    fn418083   1.491   0.991   2.065  0.1121 -0.6732 -0.3907
 3006ntf    on518084   1.523   0.765   1.908  0.3122 -0.3136  0.5035
 3006ntf    on518085   1.690   0.874   1.768  0.0270 -0.9294 -0.0822
 3006ntf    on518086   1.976   0.852   2.062  0.4023 -0.7341  0.3429
 3006ntf    on518087   1.923   0.705   1.862  0.3866 -0.3358 -0.1465
 3006ntf    fn418088   1.849   0.633   2.219 -0.0751 -0.0598 -0.2470
 3006ntf    fn418089   1.817   0.520   2.051  0.1031  0.1781 -0.6816
 3006ntf    fn418090   2.019   0.559   2.117 -0.1319 -0.2014 -0.0024
 3007ntf    cn118091   4.735   2.607   4.388 -0.2985  0.2033 -0.2868
 3007ntf    sn218092   4.655   2.676   4.536  0.3406  0.1898  0.0672
 3007ntf    nn318093   4.525   2.591   4.560  0.0713  0.5555 -0.0891
 3007ntf    sn218094   4.378   2.641   4.538 -0.1893 -0.1996 -0.1221
 3007ntf    cn118095   4.351   2.739   4.689  0.0998 -0.4720  0.1074
 3007ntf    fn418096   4.639   2.589   4.299 -0.2748  0.2357 -0.3188
 3007ntf    fn418097   4.832   2.687   4.348  0.0673 -0.0821  0.0225
 3007ntf    fn418098   4.786   2.486   4.407 -0.2194  0.1470 -0.8234
 3007ntf    on518099   4.752   2.658   4.642 -0.1711  0.2258  0.5448
 3007ntf    on518100   4.626   2.813   4.505 -0.5822 -0.0271 -0.0449
 3007ntf    on518101   4.294   2.528   4.566 -0.3086 -0.0300  0.2095
 3007ntf    on518102   4.351   2.723   4.422  0.0564 -0.4522 -0.3596
 3007ntf    fn418103   4.238   2.807   4.684  0.3284 -0.0807  0.2073
 3007ntf    fn418104   4.352   2.663   4.798 -0.3706 -0.7171 -0.0567
 3007ntf    fn418105   4.443   2.832   4.709 -0.2843 -0.1487  0.3848
 3008ntf    cn118106   3.620   1.475   5.640  0.1242 -0.0060  0.1399
 3008ntf    sn218107   3.556   1.355   5.519 -0.0566  0.1076  0.1228
 3008ntf    nn318108   3.664   1.242   5.531 -0.1045  0.0595  0.0978
 3008ntf    sn218109   3.646   1.095   5.585 -0.0634 -0.0522 -0.1911
 3008ntf    cn118110   3.518   1.018   5.481 -0.3362  0.2451 -0.0765
 3008ntf    fn418111   3.633   1.437   5.766 -0.0839 -0.0499  0.1472
 3008ntf    fn418112   3.741   1.516   5.608  0.2079 -0.4434 -0.1153
 3008ntf    fn418113   3.546   1.583   5.651 -0.2651 -0.3078  0.5357
 3008ntf    on518114   3.420   1.332   5.560 -0.0475 -0.2443 -0.0424
 3008ntf    on518115   3.576   1.411   5.388  0.3990 -0.2170  0.0489
 3008ntf    on518116   3.591   1.094   5.718  0.0734 -1.1796 -0.1374
 3008ntf    on518117   3.758   1.008   5.562 -0.2983 -0.3886 -0.0633
 3008ntf    fn418118   3.549   0.898   5.437 -0.6350  0.2069 -0.1856
 3008ntf    fn418119   3.410   1.001   5.557  0.2301 -0.1216  0.6611
 3008ntf    fn418120   3.483   1.087   5.374 -0.1884 -0.5515 -0.6443
 3009ntf    cn118121   1.562   6.374   0.254 -0.2360 -0.1138 -0.0482
 3009ntf    sn218122   1.699   6.319   0.361 -0.2464  0.0466  0.0477
 3009ntf    nn318123   1.791   6.253   0.253  0.4052  0.3845  0.3884
 3009ntf    sn218124   1.881   6.125   0.264  0.2623  0.2553  0.0749
 3009ntf    cn118125   2.047   6.197   0.251  0.5214 -0.4104 -0.3634
 3009ntf    fn418126   1.476   6.466   0.295 -0.3744 -0.5092  0.5621
 3009ntf    fn418127   1.608   6.418   0.138  0.0887  0.3141  0.2361
 3009ntf    fn418128   1.487   6.272   0.217 -0.1306 -0.1715 -0.1023
 3009ntf    on518129   1.751   6.437   0.427  0.1404  0.2272 -0.5765
 3009ntf    on518130   1.638   6.233   0.459 -0.0670 -0.1648 -0.0273
 3009ntf    on518131   1.866   6.048   0.143 -0.4236 -0.4164  0.5781
 3009ntf    on518132   1.890   6.055   0.390 -0.1863 -0.3627 -0.2303
 3009ntf    fn418133   2.146   6.110   0.245  0.5985 -0.3527  0.0251
 3009ntf    fn418134   2.057   6.279   0.147  0.0669 -0.3549 -0.3660
 3009ntf    fn418135   2.072   6.268   0.360 -0.0855  0.1790 -0.6018
 3010ntf    cn118136   6.771   2.579   3.057  0.0546 -0.0471  0.4503
 3010ntf    sn218137   6.702   2.712   3.161 -0.2005  0.1043  0.0914
 3010ntf    nn318138   6.767   2.675   3.300 -0.9931  0.6601  0.6152
 3010ntf    sn218139   6.908   2.720   3.353 -0.4899 -0.1919  0.0172
 3010ntf    cn118140   6.878   2.883   3.428  0.3595 -0.1576  0.2840
 3010ntf    fn418141   6.896   2.603   3.021 -0.2038  0.4412 -0.1403
 3010ntf    fn418142   6.771   2.457   3.107 -0.1720 -0.3399 -0.2591
 3010ntf    fn418143   6.699   2.573   2.946 -0.1306  0.1759  0.5558
 3010ntf    on518144   6.747   2.833   3.098 -0.0075 -0.0964 -0.1582
 3010ntf    on518145   6.560   2.688   3.166 -0.1762 -0.1160 -0.2365
 3010ntf    on518146   7.003   2.750   3.248 -0.3436  0.3037  0.2887
 3010ntf    on518147   6.943   2.635   3.464  0.3129  0.0849 -0.0154
 3010ntf    fn418148   6.780   2.894   3.516 -0.3014  0.2127 -0.4893
 3010ntf    fn418149   6.991   2.922   3.484  0.1668  0.7036  0.0779
 3010ntf    fn418150   6.856   2.965   3.327  0.1573 -0.2634  0.2421
 3011ntf    cn118151   0.898   2.989   6.494  0.3709 -0.4467 -0.1103
 3011ntf    sn218152   0.776   2.946   6.367  0.2202  0.3604 -0.2418
 3011ntf    nn318153   0.677   2.854   6.447 -0.1978  0.4693 -0.6271
 3011ntf    sn218154   0.520   2.846   6.453 -0.1455 -0.1655  0.0492
 3011ntf    cn118155   0.502   2.673   6.400  0.0795 -0.2018  0.0886
 3011ntf    fn418156   0.976   3.087   6.451  0.0230 -0.1013  0.0401
 3011ntf    fn418157   0.831   3.034   6.599  0.1808  0.3826 -0.5825
 3011ntf    fn418158   0.969   2.891   6.548  0.0237 -0.4899  0.2718
 3011ntf    on518159   0.729   3.075   6.322  0.3722  0.5155  0.0452
 3011ntf    on518160   0.844   2.862   6.272  0.0351 -0.3035  0.2093
 3011ntf    on518161   0.454   2.928   6.354 -0.1139 -0.4525 -0.2125
 3011ntf    on518162   0.472   2.848   6.589  0.8025 -0.3597  0.3982
 3011ntf    fn418163   0.378   2.628   6.403 -0.0999  0.2928  0.2134
 3011ntf    fn418164   0.548   2.655   6.277  0.3255 -0.2423  0.1870
 3011ntf    fn418165   0.567   2.591   6.481 -0.0281  0.0873  0.4699
 3012ntf    cn118166   1.533   3.050   1.927  0.2918  0.1253 -0.1086
 3012ntf    sn218167   1.630   2.985   2.067 -0.0819 -0.2943 -0.0414
 3012ntf    nn318168   1.740   3.097   2.075 -0.2035 -0.1719 -0.0800
 3012ntf    sn218169   1.888   3.111   2.025 -0.2124 -0.0995 -0.0872
 3012ntf    cn118170   1.865   3.245   1.905 -0.0249  0.4872  0.5258
 3012ntf    fn418171   1.511   3.178   1.953 -0.1238  0.0486 -0.0678
 3012ntf    fn418172   1.601   3.046   1.814  0.0494 -0.7888 -0.2297
 3012ntf    fn418173   1.412   3.002   1.902  0.1363  0.3171  0.2568
 3012ntf    on518174   1.535   2.992   2.176  0.2385 -0.4754  0.2491
 3012ntf    on518175   1.669   2.855   2.019  0.6698 -0.3018  0.5778
 3012ntf    on518176   1.937   3.002   1.945 -0.2884  0.0211 -0.2979
 3012ntf    on518177   1.985   3.168   2.115 -0.2612 -0.2397  0.0557
 3012ntf    fn418178   1.970   3.268   1.827  0.1013 -0.5795  0.3740
 3012ntf    fn418179   1.757   3.227   1.831 -0.0878 -0.3053  0.8070
 3012ntf    fn418180   1.838   3.361   1.962 -0.3440  0.4736  0.4018
 3013ntf    cn118181   0.035   5.135   2.769  0.1058 -0.2171  0.2906
 3013ntf    sn218182  -0.146   5.128   2.764  0.1074 -0.1301  0.1263
 3013ntf    nn318183  -0.185   5.261   2.836  0.2315  0.0957 -0.2196
 3013ntf    sn218184  -0.291   5.281   2.951  0.1923 -0.0992 -0.2217
 3013ntf    cn118185  -0.186   5.244   3.094  0.2426 -0.2555 -0.2979
 3013ntf    fn418186   0.063   5.142   2.898 -0.1301 -0.1921  0.3405
 3013ntf    fn418187   0.112   5.036   2.725 -0.1124 -0.2322 -0.0614
 3013ntf    fn418188   0.081   5.249   2.721 -0.3738 -0.1435  0.0068
 3013ntf    on518189  -0.176   5.132   2.623 -0.1355  0.4258  0.1915
 3013ntf    on518190  -0.184   5.010   2.838  0.0559 -0.0188  0.2768
 3013ntf    on518191  -0.403   5.191   2.968  0.3190 -0.2735 -0.3017
 3013ntf    on518192  -0.328   5.419   2.968 -0.0251 -0.1953  0.0811
 3013ntf    fn418193  -0.257   5.239   3.205  0.2554 -0.3177 -0.2926
 3013ntf    fn418194  -0.122   5.129   3.088  0.3388 -0.2530  0.5222
 3013ntf    fn418195  -0.090   5.335   3.106  0.3126 -0.3867  0.1588
 3014ntf    cn118196   5.910   2.345   6.353  0.2293  0.0359 -0.1151
 3014ntf    sn218197   5.847   2.287   6.193 -0.2572 -0.2634  0.1833
 3014ntf    nn318198   5.972   2.222   6.123 -0.6600 -0.1526 -0.6562
 3014ntf    sn218199   6.001   2.068   6.119 -0.8674 -0.2335  0.5342
 3014ntf    cn118200   6.180   2.078   6.092 -0.9612  0.2931  0.0874
 3014ntf    fn418201   5.952   2.469   6.336 -0.3604  0.1921 -0.4530
 3014ntf    fn418202   5.816   2.342   6.446  0.3386 -0.3865 -0.0129
 3014ntf    fn418203   6.011   2.273   6.402 -0.1131 -0.5815 -0.3000
 3014ntf    on518204   5.737   2.199   6.224 -0.6917  0.1443 -0.1821
 3014ntf    on518205   5.817   2.409   6.123  0.5727  0.2654  0.7359
 3014ntf    on518206   5.943   1.991   6.012  0.2792 -0.5847  0.1498
 3014ntf    on518207   5.998   1.998   6.245 -0.2548 -0.1508  0.5986
 3014ntf    fn418208   6.217   2.115   5.970  0.0444  0.2397  0.3675
 3014ntf    fn418209   6.241   2.157   6.178 -0.3416 -0.0171 -0.0507
 3014ntf    fn418210   6.238   1.959   6.105  0.5806  0.9138 -0.7846
 3015ntf    cn118211   5.778   6.176   6.874  0.3618 -0.5454  0.0275
 3015ntf    sn218212   5.935   6.137   6.956  0.2378  0.0948  0.5827
 3015ntf    nn318213   5.890   6.024   7.056 -1.0234  0.1061  0.0372
 3015ntf    sn218214   5.879   6.021   7.213  0.0461 -0.1266  0.1147
 3015ntf    cn118215   5.988   5.886   7.266  0.3057  0.0914  0.1345
 3015ntf    fn418216   5.678   6.187   6.959  0.5728 -0.8800  0.3228
 3015ntf    fn418217   5.786   6.297   6.820  0.2839 -0.4195  0.2942
 3015ntf    fn418218   5.743   6.099   6.773  0.0957 -0.1253 -0.2041
 3015ntf    on518219   6.023   6.091   6.852  0.4953  0.3945  0.6666
 3015ntf    on518220   5.965   6.263   7.020  0.5301  0.3099  0.0272
 3015ntf    on518221   5.744   5.986   7.249 -0.2494  0.0228 -0.8104
 3015ntf    on518222   5.940   6.131   7.282  0.1933 -0.1199 -0.0246
 3015ntf    fn418223   5.937   5.765   7.249  0.6120  0.0327 -0.3918
 3015ntf    fn418224   6.103   5.882   7.200 -0.0001  0.2413 -0.4198
 3015ntf    fn418225   6.025   5.891   7.393  0.6874 -0.2262  0.0383
 3016ntf    cn118226   5.812   0.638   2.999  0.1842  0.1064  0.0843
 3016ntf    sn218227   5.696   0.509   2.946 -0.1636  0.3092  0.3433
 3016ntf    nn318228   5.570   0.590   2.901  0.0249  0.4124 -0.0090
 3016ntf    sn218229   5.515   0.627   2.759 -0.0429  0.0544 -0.0768
 3016ntf    cn118230   5.415   0.479   2.728  0.1751 -0.1195  0.0487
 3016ntf    fn418231   5.929   0.599   3.047  0.5034  0.4813 -0.3751
 3016ntf    fn418232   5.849   0.711   2.895  0.1273  0.0869  0.0503
 3016ntf    fn418233   5.756   0.719   3.088 -0.2278 -0.1265  0.0368
 3016ntf    on518234   5.770   0.434   2.846 -0.2562 -0.0958  0.5771
 3016ntf    on518235   5.673   0.436   3.068  0.2041  0.1496  0.3182
 3016ntf    on518236   5.612   0.640   2.652 -0.3296  0.2499 -0.3154
 3016ntf    on518237   5.410   0.725   2.771  0.1070  0.1966  0.0727
 3016ntf    fn418238   5.298   0.468   2.790  0.2105  0.0682  0.1499
 3016ntf    fn418239   5.368   0.482   2.605 -0.0527 -0.1610  0.1334
 3016ntf    fn418240   5.481   0.364   2.733  0.1867 -0.1273 -0.2600
 3017ntf    cn118241   4.340   3.289   4.214  0.0260 -0.0492  0.1223
 3017ntf    sn218242   4.445   3.166   4.296  0.0182 -0.0507  0.1308
 3017ntf    nn318243   4.433   3.031   4.216 -0.3607  0.2334 -0.2925
 3017ntf    sn218244   4.483   3.000   4.070 -0.0357  0.0391 -0.1395
 3017ntf    cn118245   4.584   2.851   4.099  0.2791  0.3055  0.1415
 3017ntf    fn418246   4.213   3.255   4.201 -0.3172  0.8563  0.9525
 3017ntf    fn418247   4.333   3.398   4.289 -0.3365 -0.1956  0.3014
 3017ntf    fn418248   4.386   3.339   4.100 -0.0278 -0.0284  0.1096
 3017ntf    on518249   4.575   3.228   4.306 -0.3004  0.8099 -0.9342
 3017ntf    on518250   4.376   3.134   4.418  0.0797 -0.5575  0.0369
 3017ntf    on518251   4.558   3.106   4.008 -0.4367  0.2491 -0.2681
 3017ntf    on518252   4.373   2.948   3.993  0.4870 -0.2309 -0.7108
 3017ntf    fn418253   4.673   2.820   4.006 -0.1834  0.3024 -0.3048
 3017ntf    fn418254   4.653   2.863   4.211 -0.0794 -0.2032  0.4199
 3017ntf    fn418255   4.504   2.746   4.103  0.3431  0.2659  0.4175
 3018ntf    cn118256   6.682   6.500   6.355  0.0877 -0.0150 -0.0363
 3018ntf    sn218257   6.695   6.360   6.239  0.0129 -0.2524  0.2405
 3018ntf    nn318258   6.701   6.239   6.338  0.2540  0.3848  1.0131
 3018ntf    sn218259   6.588   6.152   6.403  0.2388 -0.0708  0.3769
 3018ntf    cn118260   6.596   6.009   6.290  0.1707  0.2468 -0.0337
 3018ntf    fn418261   6.707   6.620   6.304  0.1577 -0.1251 -0.2649
 3018ntf    fn418262   6.564   6.499   6.416  0.2007 -0.6993  0.1739
 3018ntf    fn418263   6.767   6.491   6.455 -0.3660 -0.2209  0.3346
 3018ntf    on518264   6.574   6.368   6.161  0.4701  0.2144 -0.4356
 3018ntf    on518265   6.818   6.381   6.167 -0.2436  0.2218 -0.0661
 3018ntf    on518266   6.453   6.203   6.392  0.3776  0.0552 -0.9212
 3018ntf    on518267   6.620   6.092   6.530 -0.1879 -0.9532  0.0804
 3018ntf    fn418268   6.480   5.946   6.280  0.4291 -0.2748  0.1943
 3018ntf    fn418269   6.633   6.042   6.168 -0.2229 -0.4584 -0.3495
 3018ntf    fn418270   6.679   5.915   6.333 -0.0267 -0.2059 -0.6292
 3019ntf    cn118271   1.454   0.859   4.517 -0.3687 -0.1653  0.2017
 3019ntf    sn218272   1.597   0.820   4.411 -0.3151 -0.0193  0.2210
 3019ntf    nn318273   1.533   0.711   4.319 -0.3856  0.1797  0.0325
 3019ntf    sn218274   1.582   0.565   4.286 -0.0723  0.2666  0.1057
 3019ntf    cn118275   1.524   0.470   4.430 -0.1812  0.5486  0.2477
 3019ntf    fn418276   1.418   0.764   4.603  0.2245 -0.4428  0.1499
 3019ntf    fn418277   1.472   0.973   4.581 -0.1904 -0.2209  0.2504
 3019ntf    fn418278   1.348   0.881   4.442 -0.1606 -0.1206 -0.0788
 3019ntf    on518279   1.616   0.941   4.335 -0.0760 -0.0164  0.2853
 3019ntf    on518280   1.706   0.784   4.498  0.0797  0.7463  0.0523
 3019ntf    on518281   1.726   0.553   4.285 -0.0791  0.2154 -0.2721
 3019ntf    on518282   1.512   0.511   4.172  0.3555 -0.4713  0.1906
 3019ntf    fn418283   1.531   0.341   4.403 -0.4081  0.5439  0.2093
 3019ntf    fn418284   1.587   0.500   4.542  0.6018  0.5991 -0.1995
 3019ntf    fn418285   1.397   0.496   4.457 -0.3876 -0.3039  0.1307
 3020ntf    cn118286   2.979   6.126   1.414  0.3636  0.5700 -0.3105
 3020ntf    sn218287   2.941   6.147   1.591  0.1897  0.4508 -0.3333
 3020ntf    nn318288   2.788   6.174   1.574  0.1165  0.3654  0.2008
 3020ntf    sn218289   2.680   6.168   1.689 -0.0966 -0.2288 -0.0255
 3020ntf    cn118290   2.628   5.994   1.693  0.1376 -0.2957  0.1902
 3020ntf    fn418291   2.966   6.239   1.346  0.0972  0.4801 -0.4088
 3020ntf    fn418292   3.097   6.072   1.386  0.0995 -0.0832 -0.1750
 3020ntf    fn418293   2.892   6.038   1.367  0.0735  0.3034  0.6959
 3020ntf    on518294   2.971   6.017   1.645 -0.1715  0.3752 -0.3172
 3020ntf    on518295   3.018   6.259   1.640  0.6693  0.1118 -0.3014
 3020ntf    on518296   2.558   6.236   1.654  0.2155  0.2117 -0.2700
 3020ntf    on518297   2.738   6.195   1.818 -0.0633 -0.3813 -0.0092
 3020ntf    fn418298   2.549   5.976   1.588  0.1256  0.0202  0.1430
 3020ntf    fn418299   2.731   5.912   1.705  0.3785 -0.0326 -0.0344
 3020ntf    fn418300   2.550   5.959   1.793 -0.0723 -0.3937 -0.0067
 3021ntf    cn118301   0.594   1.069   1.107 -0.3841  0.1733 -0.4909
 3021ntf    sn218302   0.628   1.177   1.249 -0.2823 -0.3771 -0.0920
 3021ntf    nn318303   0.722   1.088   1.338 -0.1068  0.0820  0.1847
 3021ntf    sn218304   0.878   1.095   1.353 -0.0252 -0.3694 -0.4366
 3021ntf    cn118305   0.915   0.927   1.414  0.0101 -0.2189 -0.0398
 3021ntf    fn418306   0.694   1.062   1.020  0.0475 -0.6586  0.0436
 3021ntf    fn418307   0.577   0.942   1.143  0.0859  0.0703 -0.6237
 3021ntf    fn418308   0.485   1.103   1.041 -0.9274 -0.3218  0.1289
 3021ntf    on518309   0.696   1.292   1.195 -0.4063 -0.4247 -0.3488
 3021ntf    on518310   0.497   1.200   1.305 -0.4646 -0.4689 -0.4758
 3021ntf    on518311   0.918   1.167   1.471  0.2342 -0.9940 -0.1354
 3021ntf    on518312   0.962   1.108   1.236  0.0499 -0.4190 -0.3889
 3021ntf    fn418313   0.833   0.839   1.359  0.3456 -0.6735  0.1914
 3021ntf    fn418314   1.041   0.891   1.397  0.1424  0.1196  0.2035
 3021ntf    fn418315   0.886   0.912   1.542  0.2191  0.4954  0.0986
 3022ntf    cn118316   2.442   3.055   0.849 -0.1880  0.2738  0.1868
 3022ntf    sn218317   2.417   3.048   0.669 -0.1542  0.1314  0.1874
 3022ntf    nn318318   2.428   2.896   0.634 -0.4762  0.1858 -0.1508
 3022ntf    sn218319   2.494   2.822   0.512  0.0308  0.0650  0.1961
 3022ntf    cn118320   2.667   2.785   0.557  0.0467  0.1752  0.2259
 3022ntf    fn418321   2.429   3.178   0.897 -0.6635  0.2877  0.0320
 3022ntf    fn418322   2.369   2.968   0.917 -0.0601 -0.2825 -0.3811
 3022ntf    fn418323   2.569   3.029   0.876 -0.1735  0.5596  0.4037
 3022ntf    on518324   2.278   3.083   0.657 -0.2689 -0.3743  0.0264
 3022ntf    on518325   2.514   3.141   0.616 -0.5649  0.5151  0.1009
 3022ntf    on518326   2.505   2.911   0.399 -0.2142 -0.6320 -0.3849
 3022ntf    on518327   2.432   2.697   0.476 -0.1028  0.1668  0.0741
 3022ntf    fn418328   2.722   2.684   0.492  0.1583  0.0772  0.4768
 3022ntf    fn418329   2.751   2.885   0.536  0.1126  0.0900  0.0818
 3022ntf    fn418330   2.683   2.757   0.685  0.0490  0.0247  0.1931
 3023ntf    cn118331   6.003   2.643   4.219  0.2356 -0.3138 -0.2765
 3023ntf    sn218332   6.117   2.749   4.125 -0.0165  0.3072  0.1078
 3023ntf    nn318333   6.233   2.755   4.230  0.1177  0.1621 -0.0322
 3023ntf    sn218334   6.365   2.669   4.231 -0.0183 -0.0450  0.4455
 3023ntf    cn118335   6.455   2.739   4.089 -0.4423 -0.0120  0.1934
 3023ntf    fn418336   5.964   2.690   4.337 -0.0024  0.0538 -0.5012
 3023ntf    fn418337   5.890   2.616   4.156 -0.1922 -0.1408  0.3952
 3023ntf    fn418338   6.063   2.525   4.231  0.1814 -0.3594 -0.4621
 3023ntf    on518339   6.144   2.673   4.005 -0.3863  0.2876  0.0369
 3023ntf    on518340   6.052   2.877   4.109 -0.3907  0.0069 -0.8868
 3023ntf    on518341   6.354   2.528   4.208  0.5087 -0.1585  0.8666
 3023ntf    on518342   6.450   2.713   4.340 -0.1399  0.5454  0.3070
 3023ntf    fn418343   6.455   2.871   4.083 -0.1118 -0.0124  0.1616
 3023ntf    fn418344   6.581   2.702   4.095 -0.1983  0.8239  0.4327
 3023ntf    fn418345   6.402   2.687   3.980 -0.1096 -0.2351  0.1376
 3024ntf    cn118346   3.562   2.045   2.758 -0.2241  0.3401  0.3176
 3024ntf    sn218347   3.690   2.059   2.629 -0.5840 -0.6061 -0.1500
 3024ntf    nn318348   3.677   2.214   2.607  0.4196 -0.3141  1.2206
 3024ntf    sn218349   3.793   2.319   2.619  0.1909  0.1132 -0.1480
 3024ntf    cn118350   3.876   2.298   2.459  0.3745 -0.2150 -0.0113
 3024ntf    fn418351   3.543   1.923   2.806  0.0973  0.0570 -0.2673
 3024ntf    fn418352   3.588   2.118   2.866 -0.2719  0.4776  0.2365
 3024ntf    fn418353   3.439   2.076   2.721 -0.3907 -0.6584  0.0226
 3024ntf    on518354   3.810   2.007   2.690 -0.4167  0.2397  0.2564
 3024ntf    on518355   3.640   1.996   2.510  0.1220 -0.1876 -0.6764
 3024ntf    on518356   3.900   2.302   2.715  0.1694 -0.5976 -0.2497
 3024ntf    on518357   3.732   2.449   2.639 -0.3800 -0.2101  0.2388
 3024ntf    fn418358   3.938   2.182   2.450 -0.0192 -0.4161 -0.1292
 3024ntf    fn418359   3.790   2.308   2.359  0.0522 -0.2930  0.2589
 3024ntf    fn418360   3.976   2.381   2.435  0.2137 -0.1281 -0.3854
 3025ntf    cn118361   1.333   4.215   4.944 -0.1161  0.1934  0.0707
 3025ntf    sn218362   1.457   4.335   5.003  0.0572 -0.0187  0.1364
 3025ntf    nn318363   1.571   4.314   4.897 -0.0204 -0.4220  0.1281
 3025ntf    sn218364   1.573   4.390   4.760 -0.1348 -0.1924  0.2522
 3025ntf    cn118365   1.691   4.521   4.807  0.0748 -0.2523 -0.0963
 3025ntf    fn418366   1.397   4.104   4.911 -0.1207  0.2880 -0.2554
 3025ntf    fn418367   1.241   4.186   5.034 -0.4636 -0.2380 -0.4220
 3025ntf    fn418368   1.271   4.256   4.834  0.4825  1.0143  0.0285
 3025ntf    on518369   1.395   4.464   5.019  0.1544  0.0239  0.1710
 3025ntf    on518370   1.511   4.279   5.125 -0.0203 -0.1442  0.1136
 3025ntf    on518371   1.453   4.458   4.719  0.2907  0.2980 -0.2014
 3025ntf    on518372   1.641   4.311   4.660 -0.4813 -0.1789  0.0035
 3025ntf    fn418373   1.798   4.472   4.867 -0.1657 -0.2518  0.3467
 3025ntf    fn418374   1.725   4.580   4.695 -0.0953  0.0412  0.0059
 3025ntf    fn418375   1.647   4.613   4.891 -0.0102 -0.1425 -0.2601
 3026ntf    cn118376   5.056   0.932   6.990 -0.1052 -0.1474  0.1408
 3026ntf    sn218377   4.974   0.948   7.152  0.1257 -0.1180  0.2552
 3026ntf    nn318378   4.826   0.952   7.099  0.0539  0.4622  0.4974
 3026ntf    sn218379   4.757   1.077   7.033 -0.0232  0.2349  0.1490
 3026ntf    cn118380   4.659   1.128   7.177 -0.6582  0.1240 -0.2394
 3026ntf    fn418381   5.185   0.906   6.999  0.0525  0.4060 -0.4274
 3026ntf    fn418382   5.009   0.836   6.913 -0.2671 -0.3357  0.4717
 3026ntf    fn418383   5.047   1.047   6.925 -0.2922 -0.6434 -0.7242
 3026ntf    on518384   4.995   0.817   7.207  0.4652 -0.2352 -0.1507
 3026ntf    on518385   5.036   1.065   7.209  0.1636 -0.2088  0.4006
 3026ntf    on518386   4.658   1.039   6.935  0.0102  0.2264  0.1180
 3026ntf    on518387   4.832   1.193   6.994  0.4304 -0.2419 -0.4101
 3026ntf    fn418388   4.739   1.158   7.278 -0.0392 -0.0929 -0.6641
 3026ntf    fn418389   4.584   1.235   7.154 -0.4243  0.3607  0.0891
 3026ntf    fn418390   4.573   1.039   7.225  0.5345 -0.4706  0.8586
 3027ntf    cn118391   0.015   0.547   2.449  0.4549  0.1730  0.3551
 3027ntf    sn218392   0.075   0.691   2.542  0.2278  0.5181 -0.0278
 3027ntf    nn318393   0.229   0.661   2.554  0.1890  0.2989 -0.0693
 3027ntf    sn218394   0.310   0.607   2.677 -0.0423  0.0223 -0.0367
 3027ntf    cn118395   0.318   0.749   2.790 -0.0300  0.0764 -0.1057
 3027ntf    fn418396   0.023   0.440   2.527  0.5037 -0.3265 -0.3291
 3027ntf    fn418397  -0.112   0.563   2.416  0.5157  0.2134  0.1404
 3027ntf    fn418398   0.076   0.522   2.334  0.4497  0.0958  0.3686
 3027ntf    on518399   0.048   0.796   2.448 -0.3025 -0.1527 -0.6323
 3027ntf    on518400   0.001   0.692   2.666  0.0417 -0.7027 -0.1110
 3027ntf    on518401   0.445   0.572   2.640 -0.3688 -0.5927 -0.6702
 3027ntf    on518402   0.243   0.500   2.746 -0.2369 -0.2838 -0.6977
 3027ntf    fn418403   0.401   0.848   2.760  0.4775 -0.2804  0.1071
 3027ntf    fn418404   0.202   0.811   2.805  0.0683  0.2204  0.0632
 3027ntf    fn418405   0.353   0.719   2.914  0.1378  0.0564 -0.1565
 3028ntf    cn118406   0.906   0.185   0.533  0.1619 -0.0681 -0.3970
 3028ntf    sn218407   1.013   0.040   0.511  0.2364 -0.0621 -0.0743
 3028ntf    nn318408   0.924  -0.070   0.579  0.0579  0.1969  0.1147
 3028ntf    sn218409   0.921  -0.142   0.718 -0.3003 -0.1130 -0.0499
 3028ntf    cn118410   1.042  -0.274   0.686 -0.1256  0.0409 -0.0263
 3028ntf    fn418411   0.915   0.251   0.647 -0.2725 -0.4183 -0.1583
 3028ntf    fn418412   0.930   0.280   0.444  0.1689 -0.2418 -0.5821
 3028ntf    fn418413   0.777   0.157   0.519  0.2017 -0.1844 -0.5316
 3028ntf    on518414   1.020   0.014   0.370 -0.1789 -0.4681 -0.0223
 3028ntf    on518415   1.138   0.072   0.576  0.1922 -0.1157  0.0385
 3028ntf    on518416   0.802  -0.216   0.752 -0.2718 -0.1497 -0.0295
 3028ntf    on518417   0.984  -0.063   0.822  0.4781 -0.5153 -0.2059
 3028ntf    fn418418   1.041  -0.362   0.785 -0.1558  0.0951  0.0221
 3028ntf    fn418419   1.021  -0.341   0.574  0.6474  0.0325 -0.1676
 3028ntf    fn418420   1.160  -0.219   0.666 -0.1029  0.1702  0.4383
 3029ntf    cn118421   4.165   2.541   5.644  0.0290 -0.0006  0.1347
 3029ntf    sn218422   4.327   2.531   5.562  0.0582  0.1262  0.1763
 3029ntf    nn318423   4.291   2.539   5.410 -0.6364  0.9799  0.3782
 3029ntf    sn218424   4.345   2.634   5.296 -0.0390 -0.0299 -0.1933
 3029ntf    cn118425   4.210   2.754   5.283  0.2102  0.2543 -0.1660
 3029ntf    fn418426   4.076   2.457   5.593 -0.6598  0.4313  0.6089
 3029ntf    fn418427   4.170   2.513   5.773  0.0502 -0.2862  0.0708
 3029ntf    fn418428   4.110   2.661   5.630  0.5123  0.2314  0.1962
 3029ntf    on518429   4.405   2.641   5.615 -0.4281  0.3183  0.4964
 3029ntf    on518430   4.375   2.398   5.592 -0.9239 -0.4518 -0.7648
 3029ntf    on518431   4.351   2.571   5.167 -0.4261 -0.1594 -0.1496
 3029ntf    on518432   4.460   2.712   5.333  0.1773 -0.4417  0.0129
 3029ntf    fn418433   4.101   2.700   5.231  0.1771  0.1676 -0.0075
 3029ntf    fn418434   4.175   2.815   5.395 -0.4065 -0.0212 -0.2056
 3029ntf    fn418435   4.244   2.854   5.203  0.8718  0.0830 -0.1028
 3030ntf    cn118436   5.384   6.297   3.858  0.2395  0.1387  0.0722
 3030ntf    sn218437   5.493   6.173   3.933 -0.1268 -0.2658 -0.0626
 3030ntf    nn318438   5.386   6.102   4.025  0.4910 -0.3090  0.6278
 3030ntf    sn218439   5.350   5.950   4.019 -0.0932 -0.1526  0.1031
 3030ntf    cn118440   5.511   5.869   4.041  0.1026  0.3432  0.5179
 3030ntf    fn418441   5.451   6.394   3.799 -0.4308  0.2710 -0.4878
 3030ntf    fn418442   5.302   6.253   3.764 -0.2658  0.0301  0.5544
 3030ntf    fn418443   5.304   6.347   3.951 -0.2230  0.1494 -0.3303
 3030ntf    on518444   5.545   6.102   3.819  0.2232  0.0190 -0.0798
 3030ntf    on518445   5.586   6.253   4.008 -0.0394  0.1674 -0.6307
 3030ntf    on518446   5.290   5.901   3.897  0.2262 -0.9333  0.2529
 3030ntf    on518447   5.274   5.920   4.138 -0.6845  0.1054 -0.2047
 3030ntf    fn418448   5.582   5.843   3.932 -0.5736  0.3137  0.0780
 3030ntf    fn418449   5.588   5.949   4.113  0.4283  0.2482  0.2799
 3030ntf    fn418450   5.504   5.756   4.110  0.5029 -0.1307 -0.1971
 3031ntf    cn118451   0.506   6.476   2.256 -0.1299  0.0846 -0.3086
 3031ntf    sn218452   0.659   6.532   2.338 -0.1690 -0.3182  0.0431
 3031ntf    nn318453   0.664   6.671   2.266 -0.1912 -0.4258 -0.1693
 3031ntf    sn218454   0.592   6.802   2.314  0.3129 -0.2162  0.0172
 3031ntf    cn118455   0.733   6.864   2.411 -0.0660  0.3862  0.1950
 3031ntf    fn418456   0.518   6.483   2.125  0.0701  0.0346 -0.2934
 3031ntf    fn418457   0.478   6.350   2.285  0.0423  0.1258  0.0404
 3031ntf    fn418458   0.404   6.552   2.290 -0.3050 -0.2718 -0.0284
 3031ntf    on518459   0.635   6.533   2.480  0.2523 -0.2561  0.1127
 3031ntf    on518460   0.757   6.443   2.281 -0.2787 -0.2442 -0.2637
 3031ntf    on518461   0.486   6.797   2.411  0.0355 -0.1631 -0.2828
 3031ntf    on518462   0.585   6.901   2.209 -0.6703  0.4128  0.6630
 3031ntf    fn418463   0.785   6.776   2.495  0.5096  0.5305 -0.0019
 3031ntf    fn418464   0.837   6.908   2.341 -0.5776  0.4477 -0.5395
 3031ntf    fn418465   0.684   6.959   2.488 -0.8585 -0.2640  0.5081
 3032ntf    cn118466   4.349   2.099   6.792 -0.0615 -0.1742  0.1930
 3032ntf    sn218467   4.399   2.092   6.617 -0.0106 -0.2090  0.2084
 3032ntf    nn318468   4.524   2.186   6.617 -0.2654  0.1312  0.1751
 3032ntf    sn218469   4.552   2.330   6.560 -0.0372 -0.0020 -0.0521
 3032ntf    cn118470   4.660   2.278   6.424 -0.0307  0.4154 -0.2088
 3032ntf    fn418471   4.456   2.084   6.868  0.0174  0.8206  0.2827
 3032ntf    fn418472   4.289   2.213   6.821 -0.3420 -0.2183 -0.2052
 3032ntf    fn418473   4.264   2.000   6.814 -0.1658  0.0247  0.6895
 3032ntf    on518474   4.435   1.955   6.588 -0.5831 -0.3694  0.2281
 3032ntf    on518475   4.293   2.132   6.528 -0.2137 -0.0837  0.5064
 3032ntf    on518476   4.631   2.414   6.646  0.3226 -0.1406 -0.2467
 3032ntf    on518477   4.446   2.396   6.487  0.2210  0.1423 -0.2984
 3032ntf    fn418478   4.588   2.206   6.339 -0.6394  0.4847  0.2470
 3032ntf    fn418479   4.694   2.385   6.355 -0.2488  0.2982 -0.5028
 3032ntf    fn418480   4.762   2.202   6.463 -0.2643  0.1176 -0.1785
 3033ntf    cn118481   1.699   1.364   1.886 -0.0363 -0.2793 -0.0064
 3033ntf    sn218482   1.693   1.463   2.038  0.0446 -0.0331 -0.1625
 3033ntf    nn318483   1.576   1.389   2.112  0.1274  0.1710  0.1721
 3033ntf    sn218484   1.580   1.310   2.248  0.1235 -0.2377 -0.0671
 3033ntf    cn118485   1.522   1.440   2.361  0.2510 -0.1405 -0.1137
 3033ntf    fn418486   1.757   1.249   1.919  0.3390 -0.0418  0.1732
 3033ntf    fn418487   1.579   1.342   1.835  0.0168  0.3737 -0.4256
 3033ntf    fn418488   1.776   1.425   1.797  0.0369  0.3720  0.5004
 3033ntf    on518489   1.824   1.445   2.097 -0.1220 -0.6689  0.0239
 3033ntf    on518490   1.656   1.596   1.998  0.0829  0.0413  0.0514
 3033ntf    on518491   1.706   1.267   2.302  0.2516  0.1061 -0.0901
 3033ntf    on518492   1.482   1.204   2.251 -0.3524  0.1817 -0.4564
 3033ntf    fn418493   1.606   1.542   2.366  0.2737 -0.1244 -0.6835
 3033ntf    fn418494   1.403   1.484   2.325  0.3833  0.0486 -0.3246
 3033ntf    fn418495   1.509   1.392   2.483  0.1739 -0.0352 -0.0807
 3034ntf    cn118496   2.040   0.906   5.531 -0.1087 -0.3289  0.0239
 3034ntf    sn218497   2.048   0.941   5.353  0.1189 -0.1577  0.0674
 3034ntf    nn318498   2.066   0.796   5.295 -0.1974 -0.2126  0.1047
 3034ntf    sn218499   2.169   0.744   5.189 -0.0553 -0.2851  0.2787
 3034ntf    cn118500   2.243   0.603   5.277  0.3197 -0.4318 -0.2645
 3034ntf    fn418501   2.043   1.020   5.597 -0.1428 -0.3360  0.0383
 3034ntf    fn418502   1.925   0.851   5.569 -0.3955  0.3102  0.0844
 3034ntf    fn418503   2.141   0.832   5.576 -0.1501 -0.2016  0.3277
 3034ntf    on518504   1.916   0.995   5.328  0.3858  0.3139 -0.3504
 3034ntf    on518505   2.157   1.034   5.343  0.4370 -0.5600 -0.2197
 3034ntf    on518506   2.284   0.824   5.157 -0.3931  0.2457  0.3740
 3034ntf    on518507   2.097   0.678   5.082  0.5618 -0.0076 -0.3145
 3034ntf    fn418508   2.167   0.495   5.289 -0.0087 -0.2209 -0.4165
 3034ntf    fn418509   2.352   0.564   5.213  0.4804  0.2445 -0.4082
 3034ntf    fn418510   2.292   0.639   5.394 -0.1993 -0.1344 -0.1352
 3035ntf    cn118511   2.747   4.268   4.408  0.0199 -0.0830  0.0177
 3035ntf    sn218512   2.916   4.331   4.391 -0.1052  0.1532 -0.3513
 3035ntf    nn318513   2.895   4.467   4.466  0.2270 -0.0571  0.1266
 3035ntf    sn218514   2.913   4.500   4.619  0.1589  0.0588  0.1100
 3035ntf    cn118515   3.087   4.550   4.625  0.1929 -0.0391 -0.0440
 3035ntf    fn418516   2.737   4.150   4.350  0.1463 -0.0176 -0.1356
 3035ntf    fn418517   2.707   4.253   4.534 -0.4816  0.4762 -0.0714
 3035ntf    fn418518   2.655   4.339   4.345  0.5436  0.1548 -0.4814
 3035ntf    on518519   3.005   4.236   4.452 -0.3767  0.2614  0.2181
 3035ntf    on518520   2.927   4.355   4.249  0.2319  0.7389 -0.2318
 3035ntf    on518521   2.909   4.388   4.710 -0.6656  0.0074  0.0168
 3035ntf    on518522   2.843   4.619   4.659 -0.2264  0.0449 -0.5048
 3035ntf    fn418523   3.171   4.451   4.600  0.2614 -0.0368  0.1728
 3035ntf    fn418524   3.110   4.636   4.527  0.2075 -0.0666 -0.0639
 3035ntf    fn418525   3.129   4.599   4.740 -0.2669 -0.0941  0.1464
 3036ntf    cn118526   2.691   0.063   2.997 -0.1719  0.0467 -0.0503
 3036ntf    sn218527   2.515   0.058   2.951 -0.1811  0.2394 -0.0362
 3036ntf    nn318528   2.458   0.106   3.089  0.3743  0.5513  0.0869
 3036ntf    sn218529   2.323   0.179   3.122  0.0815 -0.0190  0.1603
 3036ntf    cn118530   2.400   0.342   3.144  0.2369 -0.0721  0.0135
 3036ntf    fn418531   2.770  -0.001   2.912 -0.4851 -0.1123 -0.2236
 3036ntf    fn418532   2.726   0.190   3.009 -0.0806 -0.0076  0.2660
 3036ntf    fn418533   2.711   0.010   3.117 -0.5391  0.0673  0.0212
 3036ntf    on518534   2.508   0.145   2.836  0.4446 -0.5124 -0.6580
 3036ntf    on518535   2.487  -0.081   2.925 -0.4267  0.2950 -0.0680
 3036ntf    on518536   2.280   0.137   3.253 -0.2238 -0.1269  0.0238
 3036ntf    on518537   2.226   0.202   3.019  0.3698 -0.3776 -0.1954
 3036ntf    fn418538   2.305   0.434   3.149  0.4222  0.1056  0.3425
 3036ntf    fn418539   2.459   0.352   3.263  0.2907  0.1273 -0.0289
 3036ntf    fn418540   2.483   0.386   3.051  0.3865 -0.1384  0.1149
 3037ntf    cn118541   5.902   5.949   2.242  0.1740  0.1992  0.2758
 3037ntf    sn218542   5.774   6.009   2.128  0.2001 -0.1585  0.0576
 3037ntf    nn318543   5.867   6.125   2.076 -0.0435  0.1450  0.2989
 3037ntf    sn218544   5.868   6.275   2.123  0.2771  0.2563 -0.0577
 3037ntf    cn118545   5.745   6.344   2.009  0.3237  0.0410 -0.2406
 3037ntf    fn418546   5.962   6.044   2.312  0.0430  0.5176 -0.0437
 3037ntf    fn418547   5.854   5.859   2.327  0.4066 -0.0803  0.1132
 3037ntf    fn418548   5.998   5.885   2.177 -0.4126 -0.2963 -0.1227
 3037ntf    on518549   5.764   5.913   2.021 -0.4148  0.5993 -0.5759
 3037ntf    on518550   5.660   6.047   2.207  0.1571 -0.1307 -0.0168
 3037ntf    on518551   5.999   6.328   2.094  0.4071  0.2772  0.5492
 3037ntf    on518552   5.814   6.297   2.255 -0.3127  0.1312 -0.2731
 3037ntf    fn418553   5.733   6.475   2.022  0.1145 -0.0112  0.1234
 3037ntf    fn418554   5.784   6.318   1.886 -0.3184  0.2386 -0.4911
 3037ntf    fn418555   5.623   6.293   2.013  0.3096  0.0722 -0.2731
 3038ntf    cn118556   3.439   6.141   6.249 -0.1460 -0.0158  0.3586
 3038ntf    sn218557   3.357   6.298   6.206  0.3202  0.1460  0.0555
 3038ntf    nn318558   3.480   6.395   6.215  0.3528  0.0823  0.3170
 3038ntf    sn218559   3.549   6.477   6.100 -0.2131 -0.1818 -0.2178
 3038ntf    cn118560   3.434   6.617   6.080  0.3335  0.2606 -0.3010
 3038ntf    fn418561   3.455   6.133   6.380 -0.0319  0.2430  0.3609
 3038ntf    fn418562   3.361   6.042   6.206 -0.1159  0.1751 -0.1397
 3038ntf    fn418563   3.559   6.130   6.195 -0.4082 -0.1788 -0.1971
 3038ntf    on518564   3.305   6.272   6.074 -0.0476  0.4840  0.1326
 3038ntf    on518565   3.270   6.295   6.321  0.0988 -0.0807 -0.1142
 3038ntf    on518566   3.569   6.414   5.972 -0.0830  0.1639 -0.3670
 3038ntf    on518567   3.662   6.549   6.153 -0.2306  0.0036 -0.4305
 3038ntf    fn418568   3.488   6.701   5.993 -0.0491  0.4503 -0.3590
 3038ntf    fn418569   3.313   6.584   6.038  0.1802  0.2036  0.1848
 3038ntf    fn418570   3.424   6.672   6.199  0.2402  0.1029 -0.2351
 3039ntf    cn118571   1.674   4.213   2.664 -0.0312 -0.1698 -0.0230
 3039ntf    sn218572   1.818   4.269   2.760 -0.1686  0.1175  0.0150
 3039ntf    nn318573   1.936   4.243   2.659 -0.3992 -0.0171 -0.2191
 3039ntf    sn218574   2.072   4.170   2.681 -0.2444  0.2729 -0.2069
 3039ntf    cn118575   2.054   4.038   2.557  0.3488 -0.3539  0.3600
 3039ntf    fn418576   1.672   4.083   2.642  0.1472 -0.1437 -0.1988
 3039ntf    fn418577   1.561   4.233   2.730  0.2443 -0.3895  0.5307
 3039ntf    fn418578   1.653   4.264   2.544 -0.1423 -0.2086 -0.0203
 3039ntf    on518579   1.800   4.410   2.787  0.6940  0.1571  0.4236
 3039ntf    on518580   1.817   4.181   2.874 -0.0168 -0.6457 -0.5644
 3039ntf    on518581   2.104   4.107   2.807 -0.1606  0.3277 -0.2008
 3039ntf    on518582   2.179   4.246   2.621 -0.3397  0.5721  0.0045
 3039ntf    fn418583   1.944   3.973   2.590 -0.1129  0.3059  0.1297
 3039ntf    fn418584   2.048   4.067   2.428  0.5346 -0.3296  0.3566
 3039ntf    fn418585   2.151   3.950   2.575  0.2693 -0.6158 -0.4472
 3040ntf    cn118586   2.271   5.743   5.122 -0.0443  0.2628 -0.0096
 3040ntf    sn218587   2.227   5.691   5.290 -0.0081 -0.2611 -0.1617
 3040ntf    nn318588   2.221   5.830   5.362  0.2510 -0.0636 -0.5209
 3040ntf    sn218589   2.330   5.901   5.450 -0.3186 -0.1127  0.2369
 3040ntf    cn118590   2.337   6.058   5.359 -0.0439 -0.1388  0.2117
 3040ntf    fn418591   2.201   5.846   5.076 -0.1977 -0.0964 -0.5923
 3040ntf    fn418592   2.396   5.785   5.108 -0.1005  0.4938  0.1744
 3040ntf    fn418593   2.254   5.640   5.041  0.4120  0.3428 -0.2087
 3040ntf    on518594   2.098   5.628   5.276 -0.2583  0.2802 -0.3234
 3040ntf    on518595   2.337   5.609   5.332  0.1985 -0.3791 -0.9148
 3040ntf    on518596   2.469   5.866   5.438 -0.2655  0.3203 -0.4544
 3040ntf    on518597   2.266   5.936   5.574 -0.1004 -0.4693  0.4517
 3040ntf    fn418598   2.402   6.155   5.421  0.1181  0.0385 -0.2259
 3040ntf    fn418599   2.406   6.043   5.247 -0.3040  0.3289 -0.0147
 3040ntf    fn418600   2.222   6.110   5.320  0.4839  0.5664 -0.4325
 3041ntf    cn118601   5.038   6.705   3.817  0.2830  0.0498 -0.0923
 3041ntf    sn218602   5.078   6.870   3.752 -0.1086  0.2207  0.0978
 3041ntf    nn318603   5.138   6.826   3.614 -0.3269  0.6351 -0.1323
 3041ntf    sn218604   5.081   6.835   3.468 -0.0249 -0.3161 -0.3179
 3041ntf    cn118605   5.188   6.973   3.417 -0.3662  0.1217  0.1460
 3041ntf    fn418606   4.996   6.703   3.942  0.1839  0.5601 -0.1135
 3041ntf    fn418607   4.942   6.645   3.747  0.4915  0.0569 -0.3854
 3041ntf    fn418608   5.142   6.623   3.815 -0.1683 -0.5286 -0.2699
 3041ntf    on518609   4.953   6.943   3.745 -0.2448  0.0654  0.8284
 3041ntf    on518610   5.180   6.909   3.846  0.0013 -0.0608  0.0960
 3041ntf    on518611   4.946   6.883   3.453  0.0654 -0.0384 -0.2437
 3041ntf    on518612   5.122   6.719   3.392  0.0549 -0.4853 -0.0177
 3041ntf    fn418613   5.316   6.944   3.406 -0.4355 -0.0848 -0.1277
 3041ntf    fn418614   5.150   7.022   3.300  0.2368  0.0776 -0.0724
 3041ntf    fn418615   5.171   7.077   3.498 -0.1550  0.1584  0.1440
 3042ntf    cn118616   2.150   1.978   2.201 -0.1850 -0.1232  0.3629
 3042ntf    sn218617   2.010   2.043   2.105  0.2580  0.1818 -0.0786
 3042ntf    nn318618   1.889   1.966   2.168  0.3742  0.5851  0.6525
 3042ntf    sn218619   1.767   2.027   2.246 -0.2925  0.2851 -0.1391
 3042ntf    cn118620   1.795   1.930   2.397 -0.0564 -0.0569 -0.4013
 3042ntf    fn418621   2.267   1.994   2.142 -0.1822 -0.0824  0.3796
 3042ntf    fn418622   2.157   2.036   2.319  0.6384 -0.3311  0.4232
 3042ntf    fn418623   2.134   1.847   2.214  0.2414 -0.2162 -0.0311
 3042ntf    on518624   2.021   2.184   2.135 -0.4177  0.1943  0.1285
 3042ntf    on518625   2.035   1.999   1.970 -0.1650  0.3715 -0.2226
 3042ntf    on518626   1.644   1.974   2.192 -0.4001 -0.1029  0.4786
 3042ntf    on518627   1.782   2.165   2.285 -0.1111  0.3574 -0.4582
 3042ntf    fn418628   1.714   1.960   2.497  0.8180  0.0518  0.2855
 3042ntf    fn418629   1.785   1.800   2.374  0.1023 -0.1131 -0.1549
 3042ntf    fn418630   1.916   1.954   2.445 -0.2749 -0.0331  0.1465
 3043ntf    cn118631   3.736   1.597   4.856  0.1547 -0.5497 -0.1262
 3043ntf    sn218632   3.847   1.658   4.986 -0.2004 -0.1290 -0.0183
 3043ntf    nn318633   3.851   1.804   4.928 -0.8656 -0.2965 -0.5016
 3043ntf    sn218634   3.764   1.929   4.965 -0.5062 -0.2622  0.2439
 3043ntf    cn118635   3.705   1.989   4.804 -0.1633 -0.0586  0.1921
 3043ntf    fn418636   3.792   1.611   4.737  0.0036 -0.4701 -0.1884
 3043ntf    fn418637   3.714   1.468   4.874 -0.1019 -0.4573  0.2284
 3043ntf    fn418638   3.621   1.662   4.851  0.4194 -0.0944 -0.2765
 3043ntf    on518639   3.773   1.632   5.107  0.1911 -0.2416  0.1993
 3043ntf    on518640   3.964   1.579   4.958 -0.5849 -0.7857  0.2087
 3043ntf    on518641   3.843   2.036   5.023  0.3565 -0.6265 -0.2358
 3043ntf    on518642   3.636   1.914   5.030 -0.6967  0.6804  0.0965
 3043ntf    fn418643   3.687   2.119   4.815  0.1212 -0.0247  0.2774
 3043ntf    fn418644   3.786   1.969   4.701 -0.1611  0.0273  0.1776
 3043ntf    fn418645   3.591   1.926   4.781  0.0930 -0.4190 -0.1182
 3044ntf    cn118646   3.531   6.750   0.129  0.0540 -0.1692  0.1884
 3044ntf    sn218647   3.533   6.624  -0.002  0.1847 -0.2380  0.2547
 3044ntf    nn318648   3.573   6.491   0.072 -0.1110 -0.1950  0.4991
 3044ntf    sn218649   3.654   6.370   0.012 -0.0599  0.0511  0.0652
 3044ntf    cn118650   3.585   6.362  -0.156  0.2202 -0.2086 -0.0363
 3044ntf    fn418651   3.654   6.780   0.169 -0.0870  0.0259  0.4777
 3044ntf    fn418652   3.478   6.862   0.083 -0.6604 -0.6169 -0.0925
 3044ntf    fn418653   3.454   6.715   0.231  0.0742 -0.0812  0.2333
 3044ntf    on518654   3.396   6.609  -0.046  0.2852 -0.7677  0.1125
 3044ntf    on518655   3.625   6.675  -0.100 -0.1782  0.3272  0.2021
 3044ntf    on518656   3.618   6.246   0.076  0.3177 -0.2141 -0.2370
 3044ntf    on518657   3.795   6.392  -0.005 -0.0254 -0.3706 -0.1971
 3044ntf    fn418658   3.637   6.459  -0.229 -0.4129  0.4358  0.3629
 3044ntf    fn418659   3.611   6.250  -0.222 -0.4061 -0.4184  0.0634
 3044ntf    fn418660   3.453   6.371  -0.150  0.2165 -0.4321  0.2366
 3045ntf    cn118661   0.821   1.077   6.148 -0.4206  0.0324  0.1836
 3045ntf    sn218662   0.731   1.103   6.304 -0.1277  0.0094  0.3579
 3045ntf    nn318663   0.606   1.180   6.248  0.2772  0.5012  0.1254
 3045ntf    sn218664   0.542   1.311   6.306  0.2090  0.4637  0.1353
 3045ntf    cn118665   0.625   1.434   6.200  0.1879  0.2484 -0.1296
 3045ntf    fn418666   0.745   1.020   6.055 -0.1202 -0.2039  0.0822
 3045ntf    fn418667   0.868   1.188   6.093 -0.4415 -0.0106  0.0801
 3045ntf    fn418668   0.930   1.003   6.158 -0.1268  0.4230 -0.0604
 3045ntf    on518669   0.711   0.968   6.351  0.4566 -0.1947  0.0278
 3045ntf    on518670   0.825   1.182   6.379 -0.0841  0.3824 -0.0829
 3045ntf    on518671   0.571   1.348   6.442  0.1721  0.5429  0.1227
 3045ntf    on518672   0.404   1.313   6.265  0.1188  0.0557  0.4179
 3045ntf    fn418673   0.741   1.459   6.258  0.3524 -0.4947 -0.1348
 3045ntf    fn418674   0.650   1.379   6.082  0.9492  0.0447  0.1235
 3045ntf    fn418675   0.554   1.545   6.189 -0.7497 -0.2940  0.2858
 3046ntf    cn118676   1.624   0.308   7.002 -0.5057 -0.0796  0.0387
 3046ntf    sn218677   1.670   0.183   7.126 -0.0253  0.0476 -0.0106
 3046ntf    nn318678   1.678   0.279   7.251 -0.1694 -0.2960  0.2652
 3046ntf    sn218679   1.773   0.277   7.375 -0.1235 -0.4778  0.2274
 3046ntf    cn118680   1.913   0.368   7.304 -0.1852 -0.1358  0.5363
 3046ntf    fn418681   1.595   0.253   6.885 -0.1784  0.2115 -0.1790
 3046ntf    fn418682   1.522   0.380   7.046 -0.1881  0.3263  0.1102
 3046ntf    fn418683   1.726   0.388   6.975 -0.2993 -0.3274  0.0731
 3046ntf    on518684   1.561   0.089   7.132  0.2238 -0.2416 -0.0279
 3046ntf    on518685   1.801   0.138   7.086 -0.3101 -0.3699 -0.4743
 3046ntf    on518686   1.835   0.150   7.403  0.1098 -0.3780  0.1563
 3046ntf    on518687   1.735   0.364   7.484  0.2544  0.2209 -0.1951
 3046ntf    fn418688   1.985   0.301   7.215  0.0169  0.8789 -0.0737
 3046ntf    fn418689   1.867   0.473   7.238  0.0129 -0.2791  0.1644
 3046ntf    fn418690   1.995   0.405   7.401 -0.1058 -0.5077  0.6119
 3047ntf    cn118691   5.245   5.648   1.876  0.4544 -0.1786  0.1085
 3047ntf    sn218692   5.206   5.702   2.045  0.1931  0.3202 -0.1105
 3047ntf    nn318693   5.282   5.589   2.123 -0.1116  0.3822  0.2803
 3047ntf    sn218694   5.394   5.595   2.232  0.1188 -0.0815  0.0729
 3047ntf    cn118695   5.309   5.687   2.364  0.0484  0.2176 -0.1801
 3047ntf    fn418696   5.212   5.744   1.791 -0.2348  0.0296  0.6005
 3047ntf    fn418697   5.370   5.618   1.844  0.4075 -0.3307  0.0665
 3047ntf    fn418698   5.171   5.546   1.835 -0.0297  0.2461 -0.0889
 3047ntf    on518699   5.273   5.830   2.046  0.2729  0.2762  0.2328
 3047ntf    on518700   5.062   5.695   2.057  0.1985 -0.6066 -0.4937
 3047ntf    on518701   5.512   5.675   2.208  0.0486 -0.1412 -0.4786
 3047ntf    on518702   5.413   5.462   2.283  0.0433  0.0088  0.3423
 3047ntf    fn418703   5.273   5.808   2.325  0.2794  0.0876 -0.8132
 3047ntf    fn418704   5.204   5.621   2.408  0.3371 -0.1042  0.0311
 3047ntf    fn418705   5.394   5.712   2.463 -0.0070  0.2661 -0.1450
 3048ntf    cn118706   2.069   6.703   3.701  0.0650  0.2661  0.3290
 3048ntf    sn218707   2.012   6.856   3.622 -0.0297 -0.0012 -0.1209
 3048ntf    nn318708   1.886   6.799   3.546  0.0575 -0.0692 -0.2152
 3048ntf    sn218709   1.745   6.764   3.606  0.2172  0.0924  0.2654
 3048ntf    cn118710   1.643   6.899   3.540  0.0386 -0.2084 -0.0838
 3048ntf    fn418711   2.172   6.722   3.782  0.2240 -0.4108  0.2970
 3048ntf    fn418712   1.971   6.649   3.773  0.2505 -0.1419  0.2798
 3048ntf    fn418713   2.112   6.606   3.622  0.2687  0.2647  0.4415
 3048ntf    on518714   1.979   6.946   3.729  0.3267 -0.2382  0.1889
 3048ntf    on518715   2.125   6.893   3.540  0.0696  0.1089  0.0663
 3048ntf    on518716   1.725   6.773   3.748  0.2166  0.5061  0.2395
 3048ntf    on518717   1.681   6.652   3.541 -0.0918  0.2615  0.2748
 3048ntf    fn418718   1.700   7.019   3.551  0.0936 -0.2733  0.3663
 3048ntf    fn418719   1.627   6.887   3.409 -0.2251  0.4525 -0.1204
 3048ntf    fn418720   1.518   6.904   3.583 -0.0254 -0.1245 -0.2757
 3049ntf    cn118721   4.634   0.101   1.371 -0.0136  0.2704 -0.1434
 3049ntf    sn218722   4.459   0.058   1.347 -0.0053  0.2944 -0.2490
 3049ntf    nn318723   4.453  -0.097   1.370 -0.6716  0.3472 -0.0403
 3049ntf    sn218724   4.418  -0.177   1.500 -0.3272  0.1033 -0.0960
 3049ntf    cn118725   4.530  -0.320   1.492 -0.2559  0.1424  0.1883
 3049ntf    fn418726   4.710   0.028   1.291 -0.1309  0.3030 -0.2848
 3049ntf    fn418727   4.654   0.229   1.345  0.1304  0.2366 -0.1998
 3049ntf    fn418728   4.676   0.077   1.494 -0.4061  0.1339 -0.0353
 3049ntf    on518729   4.386   0.133   1.446 -0.1312 -0.2206  0.0524
 3049ntf    on518730   4.434   0.088   1.208  0.1414 -0.0520 -0.3498
 3049ntf    on518731   4.284  -0.232   1.502 -0.2011 -0.2349 -0.5915
 3049ntf    on518732   4.462  -0.116   1.623 -0.3611  0.0834 -0.0738
 3049ntf    fn418733   4.657  -0.282   1.479 -0.1702 -0.4358 -0.8226
 3049ntf    fn418734   4.538  -0.404   1.594 -0.2800  0.5448  0.5234
 3049ntf    fn418735   4.507  -0.402   1.390  0.4567 -0.5215  0.5463
 3050ntf    cn118736   2.455   1.073   6.287  0.1503  0.2096  0.2443
 3050ntf    sn218737   2.497   1.127   6.456  0.4396  0.6551  0.0310
 3050ntf    nn318738   2.510   0.988   6.529 -0.4937  0.5811  0.0650
 3050ntf    sn218739   2.402   0.899   6.600 -0.0709  0.0773  0.0811
 3050ntf    cn118740   2.434   0.950   6.771  0.0089 -0.5824  0.2667
 3050ntf    fn418741   2.332   1.023   6.279  0.2084  0.1370 -0.1879
 3050ntf    fn418742   2.450   1.176   6.205  0.1934 -0.1746 -0.2487
 3050ntf    fn418743   2.536   0.981   6.237 -0.5365 -0.2648 -0.0119
 3050ntf    on518744   2.625   1.193   6.446  0.9413 -0.2551  0.3170
 3050ntf    on518745   2.381   1.202   6.494  0.2275  0.2145  0.2588
 3050ntf    on518746   2.439   0.760   6.608  0.0172  0.1208  0.4337
 3050ntf    on518747   2.266   0.936   6.569 -0.2808 -0.5969  0.1843
 3050ntf    fn418748   2.370   0.874   6.858 -0.8919 -0.0151  0.1173
 3050ntf    fn418749   2.561   0.931   6.804  0.2125 -0.1228 -0.2360
 3050ntf    fn418750   2.412   1.078   6.798 -0.4579 -0.5198 -0.3997
 3051ntf    cn118751   1.909   4.494   6.888 -0.1184 -0.0015  0.4880
 3051ntf    sn218752   1.883   4.430   6.720  0.1180  0.1958  0.3750
 3051ntf    nn318753   2.008   4.493   6.650  0.0927 -0.1568  0.0119
 3051ntf    sn218754   2.009   4.609   6.544  0.1377 -0.0857  0.0890
 3051ntf    cn118755   2.074   4.516   6.401 -0.0951  0.1368 -0.1623
 3051ntf    fn418756   2.034   4.487   6.932  0.2158  0.1250 -0.4174
 3051ntf    fn418757   1.890   4.624   6.900 -0.1624  0.0544 -0.1469
 3051ntf    fn418758   1.828   4.444   6.980  0.0907 -0.2840  0.5218
 3051ntf    on518759   1.901   4.291   6.754  0.4099 -0.0478 -0.7179
 3051ntf    on518760   1.753   4.484   6.688  0.2025  0.0593 -0.2117
 3051ntf    on518761   2.120   4.697   6.570  0.8759 -0.8687 -0.3342
 3051ntf    on518762   1.885   4.668   6.499  0.0871 -0.5711 -0.4225
 3051ntf    fn418763   2.017   4.399   6.378  0.6150 -0.2143 -0.1457
 3051ntf    fn418764   2.064   4.573   6.282 -0.0096 -0.0278 -0.2479
 3051ntf    fn418765   2.203   4.491   6.412 -0.2173 -0.5682 -0.3030
 3052ntf    cn118766   1.366   0.022   1.733  0.0639 -0.3637 -0.4716
 3052ntf    sn218767   1.329   0.001   1.556  0.3082  0.2593 -0.6008
 3052ntf    nn318768   1.290   0.148   1.517  0.1681  0.3640 -0.0759
 3052ntf    sn218769   1.151   0.210   1.477 -0.1364 -0.3554 -0.1571
 3052ntf    cn118770   1.170   0.184   1.299 -0.2929 -0.3522 -0.1745
 3052ntf    fn418771   1.482   0.083   1.751 -0.2206  0.1792 -0.4499
 3052ntf    fn418772   1.269   0.095   1.786  0.3471 -0.3924  0.0996
 3052ntf    fn418773   1.368  -0.090   1.803  0.1529 -0.2519 -0.2957
 3052ntf    on518774   1.457  -0.032   1.501  0.3660  0.0196 -0.3270
 3052ntf    on518775   1.229  -0.104   1.555  0.3436  0.2018  0.3632
 3052ntf    on518776   1.158   0.353   1.492 -0.1819 -0.3618 -0.0726
 3052ntf    on518777   1.029   0.147   1.522 -0.2039  0.1378  0.3595
 3052ntf    fn418778   1.266   0.258   1.244 -0.1599 -0.2272  0.2265
 3052ntf    fn418779   1.198   0.056   1.280 -0.3598 -0.3825 -0.0674
 3052ntf    fn418780   1.062   0.218   1.230  0.1415  0.2508 -0.5704
 3053ntf    cn118781   4.679   3.600   4.363 -0.2490  0.6897 -0.2403
 3053ntf    sn218782   4.833   3.658   4.285  0.1737  0.1208  0.1679
 3053ntf    nn318783   4.856   3.564   4.162  0.4452  0.5673 -0.1254
 3053ntf    sn218784   4.789   3.586   4.021 -0.1037 -0.2983 -0.0097
 3053ntf    cn118785   4.939   3.641   3.935 -0.1547 -0.0833  0.0383
 3053ntf    fn418786   4.575   3.607   4.281 -0.1958  0.2451 -0.3515
 3053ntf    fn418787   4.684   3.471   4.392 -0.1169  0.7069 -0.1892
 3053ntf    fn418788   4.642   3.661   4.474  0.3563  0.4832  0.0772
 3053ntf    on518789   4.818   3.796   4.248 -0.1297  0.0845  0.1548
 3053ntf    on518790   4.936   3.627   4.381 -0.1315  0.1082  0.4947
 3053ntf    on518791   4.690   3.689   4.005  0.2755  0.0253 -0.2945
 3053ntf    on518792   4.769   3.457   3.960  0.2945 -0.2118 -0.3256
 3053ntf    fn418793   4.912   3.661   3.807  0.0880  0.0445  0.0063
 3053ntf    fn418794   4.991   3.752   3.985 -0.0094 -0.1021 -0.0689
 3053ntf    fn418795   5.036   3.551   3.942  0.0125  0.1362  0.5849
 3054ntf    cn118796   4.069   5.087   1.207  0.4124 -0.2344  0.4566
 3054ntf    sn218797   4.176   5.179   1.322  0.5395  0.2660 -0.0559
 3054ntf    nn318798   4.316   5.129   1.271  0.2309 -0.1224 -0.5305
 3054ntf    sn218799   4.409   5.017   1.329  0.1251  0.1079  0.0878
 3054ntf    cn118800   4.495   5.103   1.464 -0.1711  0.1423  0.2565
 3054ntf    fn418801   3.938   5.089   1.226  0.3270  0.1327 -0.1466
 3054ntf    fn418802   4.089   5.142   1.088  0.0932 -0.0909  0.4682
 3054ntf    fn418803   4.113   4.962   1.199  0.5306 -0.1318 -0.6780
 3054ntf    on518804   4.152   5.317   1.288  0.2278  0.3038  0.3060
 3054ntf    on518805   4.134   5.139   1.454  0.4697  0.1571 -0.1103
 3054ntf    on518806   4.513   4.982   1.236  0.4026  0.3313  0.3117
 3054ntf    on518807   4.338   4.909   1.392  0.5266 -0.1566  0.0870
 3054ntf    fn418808   4.605   5.040   1.502 -0.1653  0.1225  0.2051
 3054ntf    fn418809   4.539   5.222   1.427 -0.4311  0.1138 -0.1422
 3054ntf    fn418810   4.417   5.132   1.567 -0.4992 -0.3504  0.1490
 3055ntf    cn118811   2.948   6.569   5.332  0.1024 -0.1968  0.1658
 3055ntf    sn218812   3.117   6.620   5.290  0.0283  0.0098  0.1148
 3055ntf    nn318813   3.102   6.716   5.167  0.0768 -0.8274 -0.5537
 3055ntf    sn218814   3.201   6.826   5.113 -0.1659 -0.0481  0.5339
 3055ntf    cn118815   3.153   6.831   4.937  0.0740 -0.0450  0.4678
 3055ntf    fn418816   2.919   6.449   5.284 -0.1820 -0.1689  0.2678
 3055ntf    fn418817   2.932   6.568   5.463  0.3704 -0.2606  0.1991
 3055ntf    fn418818   2.855   6.646   5.278  0.2768 -0.2231 -0.1742
 3055ntf    on518819   3.162   6.689   5.409 -0.5769  0.3851  0.1311
 3055ntf    on518820   3.178   6.492   5.265  0.4661  0.3592 -0.6257
 3055ntf    on518821   3.343   6.801   5.108 -0.1478  0.1860 -0.5909
 3055ntf    on518822   3.172   6.960   5.156  0.1954  0.2847 -0.2342
 3055ntf    fn418823   3.234   6.916   4.876  0.2528 -0.4129  0.1880
 3055ntf    fn418824   3.150   6.720   4.865 -0.0047  0.4024 -0.2272
 3055ntf    fn418825   3.036   6.889   4.913  0.1372 -0.2671 -0.3935
 3056ntf    cn118826   4.372   6.705   4.123 -0.0183  0.2243 -0.2986
 3056ntf    sn218827   4.313   6.710   4.295  0.3027 -0.3127 -0.1694
 3056ntf    nn318828   4.366   6.569   4.340 -0.1587 -0.2651  0.5413
 3056ntf    sn218829   4.278   6.448   4.390  0.2414 -0.6503  0.3140
 3056ntf    cn118830   4.213   6.519   4.544  0.3223  0.0017  0.0499
 3056ntf    fn418831   4.344   6.811   4.050 -0.1442  0.6021  0.2928
 3056ntf    fn418832   4.503   6.687   4.115 -0.1021 -0.1928 -0.7494
 3056ntf    fn418833   4.316   6.600   4.064  0.0225  0.0081  0.0406
 3056ntf    on518834   4.372   6.825   4.359 -0.3827 -0.2573  0.3790
 3056ntf    on518835   4.169   6.709   4.290  0.2868  0.0105  0.1261
 3056ntf    on518836   4.370   6.348   4.439  0.1402 -1.0654 -0.3322
 3056ntf    on518837   4.167   6.409   4.307  0.1371  0.2466  0.0185
 3056ntf    fn418838   4.168   6.429   4.630  0.5856 -0.3200 -0.1459
 3056ntf    fn418839   4.307   6.587   4.608  0.0255  0.3490  0.1251
 3056ntf    fn418840   4.116   6.607   4.524  0.7093  0.3165 -0.4852
 3057ntf    cn118841   1.638   6.708   4.743 -0.3780  0.1436  0.4722
 3057ntf    sn218842   1.809   6.708   4.805 -0.1530 -0.0818 -0.1367
 3057ntf    nn318843   1.825   6.555   4.832 -0.6985 -0.1292 -0.0709
 3057ntf    sn218844   1.811   6.465   4.960  0.0003 -0.2470 -0.0687
 3057ntf    cn118845   1.692   6.339   4.904 -0.2216 -0.1161  0.1079
 3057ntf    fn418846   1.601   6.832   4.716  0.7436  0.2957 -0.5120
 3057ntf    fn418847   1.632   6.639   4.630 -0.1085  0.3428  0.3348
 3057ntf    fn418848   1.552   6.646   4.822 -0.4089  0.0318  0.3513
 3057ntf    on518849   1.877   6.744   4.683 -0.2547 -0.2037 -0.2293
 3057ntf    on518850   1.812   6.799   4.917  0.1212 -0.6965  0.3604
 3057ntf    on518851   1.746   6.527   5.073 -0.0662 -0.2552 -0.1019
 3057ntf    on518852   1.934   6.396   4.990  0.1277 -0.1084 -0.2677
 3057ntf    fn418853   1.567   6.380   4.889 -0.1102  0.1834 -0.0075
 3057ntf    fn418854   1.731   6.288   4.789 -0.7439 -0.2521 -0.0135
 3057ntf    fn418855   1.695   6.234   4.985  0.3418 -0.1892 -0.0086
 3058ntf    cn118856   5.333   3.059   5.947  0.2583  0.1001 -0.2452
 3058ntf    sn218857   5.483   3.145   6.002  0.1808 -0.0434  0.1942
 3058ntf    nn318858   5.431   3.204   6.138 -0.5490 -0.6391  0.1789
 3058ntf    sn218859   5.465   3.150   6.281 -0.0607 -0.0288  0.2977
 3058ntf    cn118860   5.364   3.265   6.379 -0.2299  0.1739 -0.1182
 3058ntf    fn418861   5.311   2.950   6.019 -0.1127  0.2883 -0.0691
 3058ntf    fn418862   5.228   3.139   5.951 -0.1826 -0.4655 -0.3683
 3058ntf    fn418863   5.348   3.022   5.821 -0.2256 -0.1542 -0.2311
 3058ntf    on518864   5.584   3.044   6.025  0.6992  0.3655 -0.2660
 3058ntf    on518865   5.505   3.241   5.897  1.0584 -0.3608  0.0808
 3058ntf    on518866   5.598   3.172   6.332 -0.0876 -0.2081  0.4491
 3058ntf    on518867   5.401   3.024   6.309  0.1085 -0.2653 -0.3765
 3058ntf    fn418868   5.399   3.256   6.506 -0.3400  0.9702 -0.0279
 3058ntf    fn418869   5.378   3.391   6.342 -0.1923  0.2196  0.0559
 3058ntf    fn418870   5.233   3.252   6.365 -0.2199 -0.1820  0.1205
 3059ntf    cn118871   5.424   1.470   3.573 -0.3101  0.6496 -0.1014
 3059ntf    sn218872   5.604   1.443   3.569 -0.4206 -0.1605  0.2739
 3059ntf    nn318873   5.644   1.518   3.437  0.5448 -0.2623  0.5010
 3059ntf    sn218874   5.713   1.657   3.409  0.0373 -0.2045 -0.4797
 3059ntf    cn118875   5.888   1.611   3.421  0.0335 -0.1743 -0.3160
 3059ntf    fn418876   5.370   1.436   3.457 -0.3826 -0.3764  0.2218
 3059ntf    fn418877   5.364   1.402   3.669  0.6135 -0.3470 -0.2140
 3059ntf    fn418878   5.396   1.596   3.600 -0.1443  0.6792 -0.0623
 3059ntf    on518879   5.655   1.494   3.694  0.2354 -0.0406 -0.0401
 3059ntf    on518880   5.611   1.300   3.552 -0.1814 -0.0817 -0.3006
 3059ntf    on518881   5.706   1.762   3.507  0.4871 -0.2558 -0.3931
 3059ntf    on518882   5.686   1.685   3.270 -0.2167 -0.2226 -0.4350
 3059ntf    fn418883   5.968   1.716   3.426  0.5940 -0.6171  0.2573
 3059ntf    fn418884   5.909   1.542   3.532 -0.1070 -0.1443 -0.2707
 3059ntf    fn418885   5.928   1.543   3.315  0.4433 -0.1197 -0.1973
 3060ntf    cn118886   2.927   1.637   6.720 -0.0566 -0.2374 -0.1140
 3060ntf    sn218887   2.965   1.781   6.616  0.4161 -0.3598 -0.1121
 3060ntf    nn318888   2.879   1.739   6.492 -0.1869  0.1795  0.1193
 3060ntf    sn218889   2.731   1.781   6.458 -0.1149  0.0264 -0.3970
 3060ntf    cn118890   2.753   1.913   6.334  0.7098  0.1246 -0.1515
 3060ntf    fn418891   2.966   1.520   6.674  0.2031 -0.1032 -0.2368
 3060ntf    fn418892   2.990   1.649   6.836  0.1768 -0.0167 -0.2619
 3060ntf    fn418893   2.799   1.628   6.753 -0.0536 -0.2964 -0.1190
 3060ntf    on518894   2.914   1.889   6.697  0.1208 -0.5388 -0.0588
 3060ntf    on518895   3.106   1.778   6.587  0.4036  0.4655 -0.3090
 3060ntf    on518896   2.649   1.843   6.559  0.1835 -0.3522  0.0854
 3060ntf    on518897   2.669   1.674   6.384  0.0963 -0.5692  0.2761
 3060ntf    fn418898   2.804   2.020   6.393 -0.4232  0.3297  0.4883
 3060ntf    fn418899   2.831   1.879   6.232  0.7140 -0.1892 -0.0458
 3060ntf    fn418900   2.637   1.944   6.279  0.2609 -0.2002  0.6003
 3061ntf    cn118901   5.844   6.369   5.967  0.0182  0.2829 -0.4002
 3061ntf    sn218902   5.795   6.223   6.064  0.2855  0.4829  0.0415
 3061ntf    nn318903   5.931   6.145   6.052 -0.1071 -0.2341  0.1773
 3061ntf    sn218904   6.049   6.137   6.156 -0.2201  0.2089  0.3469
 3061ntf    cn118905   6.186   6.119   6.038 -0.1447 -0.0114  0.4663
 3061ntf    fn418906   5.911   6.336   5.858 -0.3546 -0.3646 -0.4393
 3061ntf    fn418907   5.747   6.451   5.932  0.2794  0.4782 -0.6684
 3061ntf    fn418908   5.932   6.446   6.029  0.1395  0.1091 -0.3539
 3061ntf    on518909   5.761   6.275   6.194 -0.3778 -0.1917  0.1418
 3061ntf    on518910   5.682   6.166   5.995  0.5796 -0.1321  0.0585
 3061ntf    on518911   6.065   6.008   6.219 -0.9843 -0.2969 -0.4535
 3061ntf    on518912   6.079   6.261   6.223  0.2345  0.2727  0.0267
 3061ntf    fn418913   6.173   6.213   5.946  0.8441  0.1166  0.4374
 3061ntf    fn418914   6.306   6.138   6.092 -0.0986 -0.0938  0.3912
 3061ntf    fn418915   6.193   6.002   5.979  0.0278  0.2421 -0.0209
 3062ntf    cn118916   3.454   3.855   3.842  0.2098 -0.5605  0.0613
 3062ntf    sn218917   3.567   3.983   3.782 -0.0470 -0.4041 -0.0902
 3062ntf    nn318918   3.641   4.028   3.913 -0.0895  0.8057 -0.4699
 3062ntf    sn218919   3.595   4.129   4.025 -0.1677  0.2065  0.0397
 3062ntf    cn118920   3.631   4.296   3.964  0.0025  0.3460  0.5198
 3062ntf    fn418921   3.357   3.903   3.918  0.9476  0.3449  0.4429
 3062ntf    fn418922   3.399   3.789   3.741  0.1028 -0.3553 -0.0144
 3062ntf    fn418923   3.519   3.761   3.908 -0.2603 -0.4036  0.7610
 3062ntf    on518924   3.647   3.914   3.684  0.4914 -0.2732  0.2484
 3062ntf    on518925   3.471   4.073   3.724  0.5766  0.4074  0.1011
 3062ntf    on518926   3.687   4.116   4.136 -0.1436 -0.2218 -0.0260
 3062ntf    on518927   3.458   4.130   4.068 -0.1905 -0.3757 -0.0012
 3062ntf    fn418928   3.595   4.392   4.049  0.1736  0.0231  0.9597
 3062ntf    fn418929   3.760   4.310   3.941 -0.1409  0.4181 -0.2399
 3062ntf    fn418930   3.572   4.332   3.852  0.6701 -0.1083  0.0179
 3063ntf    cn118931   6.265   2.818   0.100  0.3591 -0.0693 -0.3212
 3063ntf    sn218932   6.190   2.803   0.264 -0.0345 -0.1357 -0.5075
 3063ntf    nn318933   6.186   2.647   0.279 -0.3935 -0.1178 -0.3960
 3063ntf    sn218934   6.089   2.547   0.352  0.2078 -0.3322  0.1181
 3063ntf    cn118935   6.211   2.451   0.446  0.0719 -0.1702  0.4593
 3063ntf    fn418936   6.180   2.762   0.015  0.0449  0.4535 -0.3486
 3063ntf    fn418937   6.279   2.945   0.067  0.1652 -0.0456 -0.3123
 3063ntf    fn418938   6.383   2.760   0.082  0.4530  0.1525 -0.4313
 3063ntf    on518939   6.291   2.866   0.345  0.4794 -0.1970 -1.1050
 3063ntf    on518940   6.062   2.868   0.250 -0.1769 -0.4152 -0.5056
 3063ntf    on518941   6.029   2.460   0.254  0.2495 -0.1945 -0.0292
 3063ntf    on518942   6.009   2.609   0.454  0.0728 -0.0419 -0.1653
 3063ntf    fn418943   6.139   2.372   0.525 -0.4565 -0.3049 -0.1555
 3063ntf    fn418944   6.296   2.369   0.386  0.4346  0.6995 -0.2308
 3063ntf    fn418945   6.290   2.530   0.517 -0.0542  0.1755  0.2168
 3064ntf    cn118946   6.750   2.045   1.346 -0.2010  0.4724 -0.0311
 3064ntf    sn218947   6.886   1.924   1.339 -0.2079  0.4729 -0.2024
 3064ntf    nn318948   6.992   2.003   1.254  0.4275 -0.3835 -0.2243
 3064ntf    sn218949   7.117   2.083   1.307 -0.0273  0.3188 -0.1929
 3064ntf    cn118950   7.237   1.946   1.302  0.0738  0.3748  0.7081
 3064ntf    fn418951   6.702   2.076   1.227  0.1896  0.4820 -0.1888
 3064ntf    fn418952   6.655   2.005   1.429 -0.2250  0.1053 -0.2333
 3064ntf    fn418953   6.799   2.157   1.397  0.1337  0.2926  0.0504
 3064ntf    on518954   6.918   1.903   1.479 -0.2436 -0.1773 -0.2886
 3064ntf    on518955   6.827   1.815   1.266  0.2556 -0.0898  0.2496
 3064ntf    on518956   7.120   2.110   1.448 -0.1205  0.2667 -0.1805
 3064ntf    on518957   7.172   2.174   1.209 -0.4842  0.0280 -0.7283
 3064ntf    fn418958   7.212   1.848   1.387 -0.0273 -0.0995  0.1358
 3064ntf    fn418959   7.248   1.887   1.185  0.4463  0.0918  0.8831
 3064ntf    fn418960   7.360   1.991   1.320  0.1500  0.2766  0.4261
 3065ntf    cn118961   3.796   3.903   1.662 -0.3259  0.0896  0.5137
 3065ntf    sn218962   3.836   3.856   1.833 -0.2301  0.0510  0.4809
 3065ntf    nn318963   3.971   3.935   1.843 -0.3448  0.3400 -0.1555
 3065ntf    sn218964   4.026   4.051   1.934  0.0379  0.1175 -0.1017
 3065ntf    cn118965   4.037   3.961   2.093 -0.0761  0.5268  0.1382
 3065ntf    fn418966   3.804   4.035   1.655  0.2546  0.0330 -0.0006
 3065ntf    fn418967   3.881   3.849   1.576 -0.6707  0.1665  0.1203
 3065ntf    fn418968   3.673   3.866   1.628 -0.4908  0.6724  0.4669
 3065ntf    on518969   3.726   3.913   1.907 -0.1128  0.5117  0.3062
 3065ntf    on518970   3.853   3.713   1.830  0.2529  0.1018  0.6985
 3065ntf    on518971   3.942   4.167   1.950  0.0287  0.0239  0.5779
 3065ntf    on518972   4.166   4.075   1.908 -0.0277 -0.2740 -0.8433
 3065ntf    fn418973   4.063   4.043   2.193 -0.6698  0.0379  0.6958
 3065ntf    fn418974   3.926   3.893   2.119  0.2470 -0.1225 -0.1670
 3065ntf    fn418975   4.139   3.878   2.092 -0.2084  0.3647 -0.3273
 3066ntf    cn118976   3.163   4.722   0.570 -0.3902 -0.0323  0.1786
 3066ntf    sn218977   3.171   4.702   0.751  0.1914 -0.3278  0.1208
 3066ntf    nn318978   3.117   4.555   0.744 -0.2775 -0.1473 -0.1337
 3066ntf    sn218979   2.986   4.494   0.806 -0.4167  0.2340 -0.0532
 3066ntf    cn118980   3.053   4.348   0.891  0.1432  0.2406 -0.4696
 3066ntf    fn418981   3.194   4.845   0.534  0.1382 -0.1286  0.2956
 3066ntf    fn418982   3.235   4.639   0.497 -0.5758 -0.2571  0.2477
 3066ntf    fn418983   3.035   4.712   0.538 -0.4388  0.3925  0.2346
 3066ntf    on518984   3.309   4.714   0.792  0.0517  0.2285  0.4331
 3066ntf    on518985   3.079   4.801   0.801 -0.5783 -0.9873  0.0273
 3066ntf    on518986   2.907   4.441   0.698  0.3225 -0.5115 -0.2351
 3066ntf    on518987   2.923   4.566   0.914 -1.0183  0.2865 -0.4326
 3066ntf    fn418988   3.126   4.271   0.813 -0.2596 -0.3954 -0.2261
 3066ntf    fn418989   3.137   4.376   0.989  0.0937  0.3133 -0.4470
 3066ntf    fn418990   2.957   4.266   0.932  0.3016  0.2586 -0.0521
 3067ntf    cn118991   6.948   5.305   6.905  0.1397  0.2670  0.0766
 3067ntf    sn218992   6.810   5.297   6.786  0.5609  0.2409 -0.4144
 3067ntf    nn318993   6.820   5.152   6.726 -0.1872 -0.1788  0.4501
 3067ntf    sn218994   6.769   5.014   6.782 -0.3430 -0.2020  0.2517
 3067ntf    cn118995   6.642   4.982   6.656 -0.2586  0.1530  0.0723
 3067ntf    fn418996   6.954   5.420   6.969  0.4196  0.2183  0.1400
 3067ntf    fn418997   6.942   5.209   6.996 -0.1723  0.0145 -0.2059
 3067ntf    fn418998   7.069   5.295   6.852  0.0142  0.2370 -0.2059
 3067ntf    on518999   6.692   5.326   6.864  0.4541 -0.5182 -0.2866
 3067ntf    on519000   6.839   5.391   6.681  0.1559  0.4141 -0.3728
 3067ntf    on519001   6.714   5.025   6.915 -0.0694 -0.2965  0.3743
 3067ntf    on519002   6.869   4.913   6.760 -0.5688 -0.2364 -0.6402
 3067ntf    fn419003   6.528   5.044   6.682 -0.1302  0.1878  0.5708
 3067ntf    fn419004   6.684   5.027   6.539  0.1045 -0.5568 -0.0754
 3067ntf    fn419005   6.619   4.853   6.638  0.5409  0.0573 -0.2916
 3068ntf    cn119006   2.288   4.800   5.376 -0.0278 -0.1737 -0.0713
 3068ntf    sn219007   2.362   4.725   5.525  0.2182  0.1645 -0.0224
 3068ntf    nn319008   2.515   4.736   5.491  0.2309 -0.2843 -0.1157
 3068ntf    sn219009   2.640   4.736   5.586  0.0759 -0.1568  0.0905
 3068ntf    cn119010   2.653   4.914   5.615 -0.3713 -0.1071 -0.0082
 3068ntf    fn419011   2.161   4.829   5.393  0.1180  0.2473  0.3249
 3068ntf    fn419012   2.344   4.918   5.356  0.3606 -0.2610  0.4488
 3068ntf    fn419013   2.303   4.723   5.270  0.4244 -0.2407  0.0374
 3068ntf    on519014   2.325   4.817   5.630  0.0630 -0.3775  0.4008
 3068ntf    on519015   2.311   4.590   5.519 -0.1062  0.2605  0.5162
 3068ntf    on519016   2.757   4.699   5.509 -0.2069 -0.8184 -0.0294
 3068ntf    on519017   2.617   4.670   5.712 -0.0228  0.4941  0.4133
 3068ntf    fn419018   2.594   4.957   5.725 -0.3016 -0.4945  0.1815
 3068ntf    fn419019   2.779   4.952   5.630 -0.2430 -0.5781  0.1072
 3068ntf    fn419020   2.601   4.981   5.513  0.6206  0.1404 -0.3653
 3069ntf    cn119021   4.963   2.194   4.324 -0.1216  0.0695 -0.1160
 3069ntf    sn219022   5.067   2.044   4.323 -0.0045  0.1494  0.0335
 3069ntf    nn319023   5.020   1.967   4.452  0.4224 -0.1105  0.0334
 3069ntf    sn219024   5.106   1.890   4.559  0.1604 -0.0334  0.2986
 3069ntf    cn119025   5.101   2.020   4.687  0.2329 -0.1320  0.4017
 3069ntf    fn419026   4.838   2.164   4.294 -0.3618  0.1145  0.8113
 3069ntf    fn419027   4.961   2.249   4.445  0.2417  0.1914 -0.1644
 3069ntf    fn419028   5.001   2.286   4.238  0.0953  0.6020  0.5392
 3069ntf    on519029   5.027   1.983   4.199  0.2193  0.1422 -0.0348
 3069ntf    on519030   5.195   2.110   4.328  0.1953 -0.1928 -0.5354
 3069ntf    on519031   5.247   1.877   4.531 -0.0020 -0.2903 -0.4125
 3069ntf    on519032   5.035   1.778   4.616  0.6146 -0.3553  0.2309
 3069ntf    fn419033   4.984   2.034   4.746 -0.0186  0.5271 -0.2289
 3069ntf    fn419034   5.192   2.002   4.780  0.1156 -0.5834  0.4307
 3069ntf    fn419035   5.127   2.141   4.641  0.1765 -0.2840 -0.0439
 3070ntf    cn119036   6.869   0.173   6.983  0.0117  0.4282  0.2791
 3070ntf    sn219037   6.755   0.307   6.936 -0.2350  0.0570 -0.1885
 3070ntf    nn319038   6.652   0.233   6.843  0.0181 -0.9937  0.3443
 3070ntf    sn219039   6.509   0.283   6.802  0.1496 -0.6354  0.3137
 3070ntf    cn119040   6.553   0.332   6.632 -0.3686 -0.5938  0.1876
 3070ntf    fn419041   6.976   0.207   7.053  0.2326 -0.2842  0.2977
 3070ntf    fn419042   6.808   0.075   7.048 -0.2348  0.3627 -0.0486
 3070ntf    fn419043   6.915   0.108   6.877  0.5285  0.2450  0.6128
 3070ntf    on519044   6.705   0.349   7.064  0.1158 -0.2704  0.0610
 3070ntf    on519045   6.840   0.397   6.863 -0.1934  0.3167  0.1787
 3070ntf    on519046   6.450   0.404   6.855  0.2600 -0.1073 -0.7359
 3070ntf    on519047   6.414   0.176   6.778  0.1329 -0.4443 -0.5197
 3070ntf    fn419048   6.613   0.237   6.562 -0.3434 -0.0077 -0.6004
 3070ntf    fn419049   6.447   0.376   6.568  0.2034 -0.0459 -0.3958
 3070ntf    fn419050   6.643   0.429   6.640 -0.3066 -0.6479  0.1503
 3071ntf    cn119051   6.958   4.518   0.237  0.0773  0.2867  0.0656
 3071ntf    sn219052   6.967   4.615   0.084 -0.2988  0.0257 -0.1229
 3071ntf    nn319053   7.116   4.664   0.091 -0.3294  0.1648 -0.4339
 3071ntf    sn219054   7.239   4.621   0.003 -0.0715 -0.1769  0.0911
 3071ntf    cn119055   7.322   4.500   0.110  0.1754  0.1531  0.2720
 3071ntf    fn419056   7.012   4.399   0.223  0.6415  0.5613 -0.1200
 3071ntf    fn419057   7.027   4.576   0.334 -0.3726 -0.0629  0.6078
 3071ntf    fn419058   6.837   4.497   0.287 -0.0886  0.3797 -0.2894
 3071ntf    on519059   6.924   4.517  -0.013  0.2034 -0.7779  0.4590
 3071ntf    on519060   6.882   4.728   0.112 -0.5358 -0.0417 -0.5588
 3071ntf    on519061   7.338   4.725   0.005  0.2863 -0.5125 -0.0883
 3071ntf    on519062   7.211   4.564  -0.127 -0.1199 -0.1467  0.0880
 3071ntf    fn419063   7.339   4.554   0.230 -0.4499  0.0901  0.3934
 3071ntf    fn419064   7.242   4.396   0.127  0.3571 -0.1073 -0.4564
 3071ntf    fn419065   7.444   4.464   0.075  0.0432  0.1255 -0.1622
 3072ntf    cn119066   3.341   3.161   0.140 -0.0667  0.2476 -0.3263
 3072ntf    sn219067   3.243   3.088   0.004 -0.2086 -0.0700 -0.0556
 3072ntf    nn319068   3.238   2.936   0.042 -0.3467 -0.1419 -0.3584
 3072ntf    sn219069   3.115   2.855   0.095 -0.2696 -0.1911 -0.2527
 3072ntf    cn119070   3.065   2.795  -0.069  0.0332  0.3727 -0.5535
 3072ntf    fn419071   3.469   3.141   0.111 -0.0316  0.1682 -0.1143
 3072ntf    fn419072   3.328   3.289   0.168 -0.0783  0.1574  0.0774
 3072ntf    fn419073   3.318   3.088   0.248 -0.1596  0.6451 -0.0747
 3072ntf    on519074   3.126   3.172   0.006 -0.0497  0.1534  0.0356
 3072ntf    on519075   3.334   3.102  -0.107  0.0680  1.0428  0.2966
 3072ntf    on519076   3.012   2.939   0.151  0.3478  0.1502  0.3748
 3072ntf    on519077   3.160   2.743   0.173 -0.4095  0.0208  0.1346
 3072ntf    fn419078   2.953   2.725  -0.060  0.4297 -0.2961 -0.7793
 3072ntf    fn419079   3.029   2.889  -0.155 -0.3101  0.4084 -0.3710
 3072ntf    fn419080   3.152   2.715  -0.128  0.1732  0.2960 -0.2442
 3073ntf    cn119081   3.897   1.196   4.574  0.3866  0.0241 -0.1120
 3073ntf    sn219082   3.905   1.023   4.632  0.1622  0.0409 -0.0286
 3073ntf    nn319083   4.048   0.983   4.581  0.2604  0.3282  0.0138
 3073ntf    sn219084   4.090   0.925   4.441  0.5623  0.2097  0.1532
 3073ntf    cn119085   4.248   1.012   4.421  0.4917  0.2568 -0.2002
 3073ntf    fn419086   3.785   1.255   4.613  0.3450 -0.0212 -0.1617
 3073ntf    fn419087   3.995   1.276   4.611 -0.0639  0.4946  0.0708
 3073ntf    fn419088   3.900   1.206   4.442 -0.5967  0.1488 -0.1298
 3073ntf    on519089   3.906   1.045   4.774  0.2021 -0.0312 -0.0177
 3073ntf    on519090   3.796   0.953   4.570 -0.1279  0.2966  0.1908
 3073ntf    on519091   4.014   0.980   4.332  0.3418 -0.1651  0.1139
 3073ntf    on519092   4.127   0.785   4.447 -0.4188 -0.0677 -0.0325
 3073ntf    fn419093   4.340   0.972   4.508  0.1331 -0.5361 -0.1809
 3073ntf    fn419094   4.297   0.992   4.300 -0.3633 -0.0935 -0.4914
 3073ntf    fn419095   4.230   1.142   4.443  0.0770  0.2348 -0.4155
 3074ntf    cn119096   2.892   1.553   2.074 -0.1489  0.3182  0.0622
 3074ntf    sn219097   2.769   1.499   1.951 -0.0064 -0.0494  0.0772
 3074ntf    nn319098   2.833   1.569   1.826  0.3003 -0.7464 -0.1578
 3074ntf    sn219099   2.756   1.606   1.694  0.0474  0.3572  0.2888
 3074ntf    cn119100   2.889   1.567   1.576 -0.3640 -0.1623 -0.0089
 3074ntf    fn419101   2.855   1.529   2.199  0.3090  0.1617  0.1670
 3074ntf    fn419102   3.010   1.493   2.068 -0.3717 -0.1568  0.2939
 3074ntf    fn419103   2.913   1.682   2.062  0.5579  0.2062  0.0882
 3074ntf    on519104   2.776   1.356   1.940 -0.4946 -0.0613 -0.1034
 3074ntf    on519105   2.644   1.551   2.002 -0.3772 -0.4673 -0.4040
 3074ntf    on519106   2.713   1.743   1.678 -0.5120  0.1854  0.3131
 3074ntf    on519107   2.658   1.508   1.654 -0.3239  0.8111  0.0765
 3074ntf    fn419108   2.845   1.556   1.452  0.0673  0.4936 -0.2322
 3074ntf    fn419109   2.989   1.654   1.566 -0.2933 -0.1533  0.7437
 3074ntf    fn419110   2.947   1.454   1.611 -0.1453  0.1617  0.6943
 3075ntf    cn119111   1.291   3.526   0.320 -0.0843 -0.1315 -0.0197
 3075ntf    sn219112   1.252   3.594   0.483  0.0794 -0.1845  0.0420
 3075ntf    nn319113   1.387   3.559   0.555 -0.1689 -0.3520  0.4326
 3075ntf    sn219114   1.515   3.648   0.576 -0.4282  0.1529 -0.0783
 3075ntf    cn119115   1.474   3.701   0.745 -0.0343 -0.2499  0.1459
 3075ntf    fn419116   1.393   3.594   0.270 -0.3225 -0.0177 -0.3563
 3075ntf    fn419117   1.326   3.398   0.320  0.7127  0.0813  0.0061
 3075ntf    fn419118   1.190   3.547   0.237 -0.1756 -0.4269  0.0148
 3075ntf    on519119   1.228   3.735   0.461  0.0040 -0.2232 -0.1216
 3075ntf    on519120   1.141   3.517   0.535 -0.2756  0.3179  0.0405
 3075ntf    on519121   1.520   3.777   0.513 -0.2695  0.0160 -0.3458
 3075ntf    on519122   1.630   3.563   0.591  0.0618  0.8228 -0.0224
 3075ntf    fn419123   1.392   3.805   0.750  0.1438 -0.1229  0.5136
 3075ntf    fn419124   1.422   3.598   0.811 -0.0957 -0.0289  0.4437
 3075ntf    fn419125   1.582   3.741   0.810 -0.0907 -0.2034  0.2113
 3076ntf    cn119126   2.233   2.065   4.914 -0.0654 -0.3738  0.2954
 3076ntf    sn219127   2.296   2.217   4.837 -0.4040 -0.2313  0.2989
 3076ntf    nn319128   2.180   2.250   4.736  0.1053  0.0722 -0.1941
 3076ntf    sn219129   2.048   2.333   4.755 -0.0268 -0.0760 -0.4693
 3076ntf    cn119130   1.943   2.260   4.626 -0.3774 -0.1404 -0.1479
 3076ntf    fn419131   2.180   1.987   4.821 -0.5629  0.2649  0.0354
 3076ntf    fn419132   2.333   2.000   4.972  0.3213 -0.3308 -0.3065
 3076ntf    fn419133   2.142   2.085   5.007 -0.4968  0.3377 -0.2733
 3076ntf    on519134   2.314   2.306   4.949 -0.5873  0.7842 -0.4633
 3076ntf    on519135   2.412   2.169   4.767 -0.3977 -0.1693  0.2672
 3076ntf    on519136   2.069   2.471   4.722 -0.0022 -0.0398 -0.3018
 3076ntf    on519137   1.980   2.297   4.876  0.8110 -0.2477 -0.0401
 3076ntf    fn419138   1.993   2.280   4.505 -0.2542 -0.0450 -0.0803
 3076ntf    fn419139   1.918   2.130   4.630 -0.5096 -0.1271 -0.4872
 3076ntf    fn419140   1.828   2.325   4.626 -0.1413  0.2771  0.5692
 3077ntf    cn119141   4.243   5.402   3.921 -0.1388  0.2863  0.4254
 3077ntf    sn219142   4.185   5.574   3.921  0.1291  0.3768  0.1495
 3077ntf    nn319143   4.150   5.606   4.071 -0.0519 -0.5269  0.3043
 3077ntf    sn219144   4.236   5.660   4.191  0.1250 -0.1365  0.0063
 3077ntf    cn119145   4.162   5.825   4.211 -0.2915 -0.3256  0.0582
 3077ntf    fn419146   4.313   5.371   3.813 -0.4382  0.7415  0.0965
 3077ntf    fn419147   4.321   5.393   4.028  0.0448 -0.2120  0.2504
 3077ntf    fn419148   4.149   5.310   3.930  0.2282 -0.1320  0.0416
 3077ntf    on519149   4.304   5.639   3.871  0.0877  0.1379 -0.2561
 3077ntf    on519150   4.063   5.578   3.844  0.3675  0.0575 -0.2491
 3077ntf    on519151   4.376   5.680   4.165 -0.0430  0.3279 -0.5692
 3077ntf    on519152   4.213   5.588   4.314 -0.1043  0.4052  0.2815
 3077ntf    fn419153   4.224   5.901   4.300 -0.5356 -0.4096  0.2990
 3077ntf    fn419154   4.170   5.886   4.094 -0.1134 -0.4784 -0.0114
 3077ntf    fn419155   4.035   5.817   4.244 -0.3874 -0.2495 -0.2846
 3078ntf    cn119156   5.506   2.050   2.585  0.1347 -0.0519  0.6088
 3078ntf    sn219157   5.501   1.972   2.421 -0.0439  0.3671  0.4129
 3078ntf    nn319158   5.552   1.829   2.462  0.1163  0.4877  0.6368
 3078ntf    sn219159   5.703   1.786   2.469  0.0428  0.1580  0.2032
 3078ntf    cn119160   5.718   1.686   2.318 -0.0691  0.4192  0.0187
 3078ntf    fn419161   5.420   2.150   2.586 -0.1702 -0.2963 -0.3948
 3078ntf    fn419162   5.482   1.957   2.675 -0.9296 -0.1495  0.2413
 3078ntf    fn419163   5.624   2.105   2.610  0.0050  0.4576  0.1193
 3078ntf    on519164   5.361   1.979   2.389 -0.0580  0.1651  0.4295
 3078ntf    on519165   5.589   2.055   2.342 -0.4141  0.1744 -0.2074
 3078ntf    on519166   5.727   1.692   2.576  0.0640  0.0125  0.0709
 3078ntf    on519167   5.802   1.888   2.448  0.2874 -0.1832 -0.3308
 3078ntf    fn419168   5.623   1.595   2.305  0.5359 -0.2706  0.3023
 3078ntf    fn419169   5.710   1.766   2.213  0.1345  0.0059 -0.3161
 3078ntf    fn419170   5.836   1.628   2.305 -0.1819  0.2860 -0.4375
 3079ntf    cn119171   4.911   5.560   4.604 -0.6663  0.1319 -0.0130
 3079ntf    sn219172   4.991   5.474   4.465  0.0294 -0.2267  0.5982
 3079ntf    nn319173   5.140   5.480   4.512  0.1178  0.0233  0.2834
 3079ntf    sn219174   5.260   5.393   4.459  0.2780  0.2026  0.3507
 3079ntf    cn119175   5.238   5.247   4.565 -0.1154 -0.1045 -0.1529
 3079ntf    fn419176   4.984   5.661   4.648 -0.5330 -0.1749  0.4829
 3079ntf    fn419177   4.790   5.602   4.571 -0.7002  0.4443  0.4983
 3079ntf    fn419178   4.898   5.477   4.707 -0.5299  0.0835 -0.0334
 3079ntf    on519179   4.937   5.340   4.475 -0.8878  0.1040  0.2038
 3079ntf    on519180   4.963   5.543   4.342  0.5357 -0.5174  0.3195
 3079ntf    on519181   5.390   5.449   4.487  0.0757  0.9202 -0.1184
 3079ntf    on519182   5.239   5.345   4.325  0.6427 -0.2252  0.4447
 3079ntf    fn419183   5.354   5.184   4.569 -0.0398  0.0773  0.5498
 3079ntf    fn419184   5.198   5.276   4.688  0.1933  0.1417 -0.1104
 3079ntf    fn419185   5.145   5.161   4.527 -0.0265 -0.0563 -0.4795
 3080ntf    cn119186   5.014   2.196   3.867  0.2633  0.0973  0.2640
 3080ntf    sn219187   4.961   2.265   3.708 -0.0811 -0.0144  0.3287
 3080ntf    nn319188   4.977   2.417   3.745  0.0232  0.0872 -0.1171
 3080ntf    sn219189   5.110   2.496   3.771  0.0155  0.1467 -0.2598
 3080ntf    cn119190   5.143   2.600   3.626 -0.0628  0.5141 -0.0174
 3080ntf    fn419191   4.981   2.277   3.967 -0.4023  0.4442 -0.2225
 3080ntf    fn419192   4.954   2.081   3.895  0.1957  0.0522 -0.0669
 3080ntf    fn419193   5.143   2.169   3.878  0.1856 -0.3834  0.0217
 3080ntf    on519194   5.052   2.220   3.605  0.0992  0.3976  0.3058
 3080ntf    on519195   4.822   2.227   3.697  0.0936 -0.3321 -1.0052
 3080ntf    on519196   5.230   2.417   3.781  0.2551  0.4206 -0.9256
 3080ntf    on519197   5.097   2.595   3.876 -0.0203  0.0535 -0.1762
 3080ntf    fn419198   5.199   2.538   3.524 -0.2577 -0.0022  0.1884
 3080ntf    fn419199   5.032   2.647   3.574 -0.2062 -0.1595 -0.3268
 3080ntf    fn419200   5.224   2.703   3.647  0.2969  0.1715  0.3018
 3081ntf    cn119201   3.529   2.604   1.389 -0.0416  0.2769  0.0280
 3081ntf    sn219202   3.596   2.492   1.262  0.2480  0.0342  0.3927
 3081ntf    nn319203   3.470   2.398   1.260  0.0001  0.3701  0.0904
 3081ntf    sn219204   3.363   2.379   1.147  0.2550  0.0724 -0.1040
 3081ntf    cn119205   3.383   2.200   1.122  0.0431  0.1316 -0.7335
 3081ntf    fn419206   3.430   2.685   1.353 -0.2965 -0.0268  0.0506
 3081ntf    fn419207   3.476   2.537   1.489 -0.0953  0.0928 -0.1240
 3081ntf    fn419208   3.631   2.670   1.442 -0.0699  0.1543  0.2358
 3081ntf    on519209   3.613   2.579   1.149  0.5848 -0.1640  0.2914
 3081ntf    on519210   3.711   2.430   1.323  0.3039 -0.4428 -0.1958
 3081ntf    on519211   3.391   2.442   1.020  0.3787 -0.1486 -0.1882
 3081ntf    on519212   3.230   2.393   1.200  0.1296 -0.4300 -0.2791
 3081ntf    fn419213   3.281   2.140   1.064 -0.4880  0.4479 -0.1405
 3081ntf    fn419214   3.487   2.171   1.045  0.3142  0.1438 -0.3780
 3081ntf    fn419215   3.397   2.126   1.231 -0.6460  0.0993 -0.6638
 3082ntf    cn119216   6.806   5.078   4.609  0.3904  0.0226  0.3386
 3082ntf    sn219217   6.784   4.901   4.575 -0.0183  0.1137  0.1267
 3082ntf    nn319218   6.730   4.905   4.428  0.5925 -0.3517 -0.1150
 3082ntf    sn219219   6.659   4.778   4.368 -0.1577  0.1398 -0.2850
 3082ntf    cn119220   6.481   4.812   4.389 -0.1355  0.0519  0.0530
 3082ntf    fn419221   6.844   5.113   4.731  0.8120 -0.2981  0.3020
 3082ntf    fn419222   6.902   5.133   4.535 -0.0523 -0.0546 -0.3002
 3082ntf    fn419223   6.692   5.138   4.578  0.2823 -0.6003 -0.5037
 3082ntf    on519224   6.914   4.840   4.590  0.1729  0.5352  0.2047
 3082ntf    on519225   6.687   4.863   4.675 -0.1192 -0.1753 -0.0787
 3082ntf    on519226   6.671   4.653   4.439 -0.2406 -0.0126 -0.5393
 3082ntf    on519227   6.684   4.772   4.227 -0.1126  0.1817 -0.2790
 3082ntf    fn419228   6.441   4.924   4.333 -0.5478 -0.4887 -0.7552
 3082ntf    fn419229   6.409   4.715   4.335  0.0073 -0.0603  0.0611
 3082ntf    fn419230   6.443   4.820   4.515  0.1303  0.0622  0.1339
 3083ntf    cn119231   5.726   0.940   5.733 -0.2157  0.4952  0.2551
 3083ntf    sn219232   5.850   0.844   5.825 -0.3178 -0.0108 -0.1374
 3083ntf    nn319233   5.959   0.830   5.713 -0.1525  0.2680 -0.0110
 3083ntf    sn219234   6.078   0.928   5.685  0.0903  0.0295  0.1748
 3083ntf    cn119235   6.201   0.880   5.810  0.4024  0.4189  0.0192
 3083ntf    fn419236   5.692   0.881   5.620 -0.3286  0.0473  0.5221
 3083ntf    fn419237   5.613   0.947   5.801 -0.1638 -0.7301  0.4907
 3083ntf    fn419238   5.760   1.064   5.701 -0.1698  0.3640 -0.2173
 3083ntf    on519239   5.874   0.921   5.944  0.1084 -0.7688  0.2752
 3083ntf    on519240   5.775   0.722   5.843 -0.2833 -0.0892 -0.5131
 3083ntf    on519241   6.041   1.065   5.714 -0.3791 -0.1716  0.5408
 3083ntf    on519242   6.144   0.901   5.560  0.4875  0.5066  0.2770
 3083ntf    fn419243   6.321   0.933   5.790  0.4753  0.3481  0.2601
 3083ntf    fn419244   6.165   0.905   5.935 -0.0548  0.2777 -0.0826
 3083ntf    fn419245   6.224   0.750   5.807 -0.1805  0.3229 -0.2850
 3084ntf    cn119246   4.189   6.853   6.572 -0.3594 -0.0566 -0.2153
 3084ntf    sn219247   4.162   6.910   6.401 -0.1815  0.1592 -0.1726
 3084ntf    nn319248   4.253   6.812   6.320  0.1311  0.2084  0.1158
 3084ntf    sn219249   4.393   6.840   6.253 -0.0313 -0.0951 -0.3570
 3084ntf    cn119250   4.484   6.688   6.294 -0.1814 -0.0378  0.1987
 3084ntf    fn419251   4.320   6.837   6.590 -0.3499  0.3570  0.0953
 3084ntf    fn419252   4.142   6.942   6.657 -0.0141  0.1786 -0.2654
 3084ntf    fn419253   4.134   6.737   6.602  0.1864 -0.2222  0.1641
 3084ntf    on519254   4.023   6.876   6.383 -0.0704 -0.2561 -0.2507
 3084ntf    on519255   4.202   7.049   6.402 -0.4153  0.2258  0.3621
 3084ntf    on519256   4.480   6.939   6.311 -0.2706  0.4076 -0.8428
 3084ntf    on519257   4.380   6.834   6.110  0.0405  0.2525 -0.3768
 3084ntf    fn419258   4.494   6.663   6.423 -0.0170 -0.1597  0.1631
 3084ntf    fn419259   4.421   6.584   6.241 -0.2121  0.1498 -0.1364
 3084ntf    fn419260   4.608   6.705   6.252 -0.0106  0.3309  0.8414
 3085ntf    cn119261   4.745   3.576   3.195  0.3435  0.0216 -0.1142
 3085ntf    sn219262   4.565   3.573   3.217  0.3190  0.0403 -0.3116
 3085ntf    nn319263   4.520   3.723   3.227 -0.2703 -0.1187 -0.5061
 3085ntf    sn219264   4.475   3.817   3.110 -0.0611  0.3155 -0.2441
 3085ntf    cn119265   4.295   3.806   3.132 -0.0804  0.3682 -0.3683
 3085ntf    fn419266   4.778   3.629   3.079  0.1127  0.2617 -0.0728
 3085ntf    fn419267   4.819   3.643   3.282 -0.1820 -0.0481  0.3913
 3085ntf    fn419268   4.795   3.454   3.198 -0.1117 -0.1525  0.6375
 3085ntf    on519269   4.508   3.495   3.110  0.1737 -0.3993  0.0795
 3085ntf    on519270   4.557   3.510   3.347 -0.6328  0.4644 -0.1542
 3085ntf    on519271   4.488   3.764   2.976 -0.8202 -0.1285 -0.1484
 3085ntf    on519272   4.510   3.955   3.126  0.2535  0.1794  0.2342
 3085ntf    fn419273   4.255   3.681   3.151  0.5262  0.1835 -0.2799
 3085ntf    fn419274   4.266   3.871   3.244 -0.1750  0.0821 -0.2250
 3085ntf    fn419275   4.226   3.855   3.031 -1.0172 -0.0127  0.0664
 3086ntf    cn119276   5.167   5.879   6.508  0.1273 -0.6034 -0.2877
 3086ntf    sn219277   5.169   5.729   6.610 -0.0240 -0.1851  0.3313
 3086ntf    nn319278   5.323   5.720   6.638  0.0040 -0.0640  0.2146
 3086ntf    sn219279   5.396   5.772   6.767  0.2828 -0.0149  0.0382
 3086ntf    cn119280   5.560   5.700   6.734  0.1439 -0.2695 -0.1017
 3086ntf    fn419281   5.046   5.919   6.475  0.0566 -0.8885 -0.3780
 3086ntf    fn419282   5.236   5.978   6.563 -0.4278 -0.4322  0.1017
 3086ntf    fn419283   5.231   5.854   6.394  0.2047 -0.1026 -0.3540
 3086ntf    on519284   5.087   5.765   6.724  0.3844  0.0334  0.5574
 3086ntf    on519285   5.129   5.621   6.523  0.0760 -0.2088  0.3158
 3086ntf    on519286   5.364   5.706   6.891  0.1821 -0.0165  0.0113
 3086ntf    on519287   5.415   5.914   6.772  0.3293 -0.0206  0.0250
 3086ntf    fn419288   5.625   5.757   6.634  0.1352  0.4384  0.2888
 3086ntf    fn419289   5.634   5.721   6.841  0.2916  0.0615 -0.2655
 3086ntf    fn419290   5.564   5.569   6.718 -1.0016 -0.2705 -0.4889
 3087ntf    cn119291   6.568   2.142   0.422 -0.1271  0.1525 -0.1136
 3087ntf    sn219292   6.707   2.065   0.509 -0.3721 -0.0761  0.0790
 3087ntf    nn319293   6.630   1.942   0.569 -0.0351 -0.0904  0.4865
 3087ntf    sn219294   6.661   1.788   0.569 -0.2058 -0.1251 -0.1651
 3087ntf    cn119295   6.699   1.779   0.746 -0.3727 -0.1088 -0.1283
 3087ntf    fn419296   6.478   2.055   0.381 -0.3733  0.4685 -0.2539
 3087ntf    fn419297   6.502   2.226   0.501  0.6996 -0.1307  0.9062
 3087ntf    fn419298   6.610   2.204   0.314 -0.0449  0.2199 -0.0433
 3087ntf    on519299   6.803   2.042   0.403 -0.3163 -0.1370  0.1426
 3087ntf    on519300   6.753   2.153   0.614 -0.6427  0.0961  0.0526
 3087ntf    on519301   6.788   1.754   0.508 -0.0408  0.1028  0.0528
 3087ntf    on519302   6.542   1.710   0.550 -0.4136  0.1845 -0.1431
 3087ntf    fn419303   6.615   1.836   0.831 -0.5695 -0.4817 -0.0677
 3087ntf    fn419304   6.706   1.652   0.785 -0.4474 -0.0809 -0.0229
 3087ntf    fn419305   6.811   1.843   0.777 -0.6555  0.5390 -0.4357
 3088ntf    cn119306   3.007   5.218   0.698  0.0058 -0.2118 -0.3420
 3088ntf    sn219307   3.056   5.390   0.664  0.0414 -0.1328  0.0965
 3088ntf    nn319308   3.167   5.415   0.772  0.1930  0.2981 -0.1553
 3088ntf    sn219309   3.138   5.479   0.912 -0.0804 -0.2762  0.0558
 3088ntf    cn119310   3.162   5.657   0.880  0.1234 -0.2849  0.1604
 3088ntf    fn419311   2.987   5.195   0.827 -0.4068 -0.2837 -0.4202
 3088ntf    fn419312   2.897   5.198   0.629 -0.2979 -0.1916  0.1335
 3088ntf    fn419313   3.115   5.146   0.669  0.2864  0.0612  0.0033
 3088ntf    on519314   3.121   5.387   0.535 -0.6356 -0.2234 -0.2483
 3088ntf    on519315   2.938   5.471   0.677 -0.0974 -0.4208  0.6537
 3088ntf    on519316   3.248   5.454   1.001 -0.2630  0.7373  0.5884
 3088ntf    on519317   3.007   5.464   0.972 -0.1877 -0.8280 -0.3095
 3088ntf    fn419318   3.083   5.704   0.785  0.1201  0.0103  0.3104
 3088ntf    fn419319   3.144   5.728   0.990 -0.1765  0.0862 -0.1255
 3088ntf    fn419320   3.288   5.686   0.853  0.0901 -0.3121 -0.0260
 3089ntf    cn119321   5.574   1.836   0.965  0.0493  0.2821  0.1949
 3089ntf    sn219322   5.404   1.871   0.910  0.0082 -0.0092  0.1305
 3089ntf    nn319323   5.413   2.006   0.830 -0.0296 -0.3249 -0.4114
 3089ntf    sn219324   5.322   2.133   0.845  0.1856 -0.2035 -0.1217
 3089ntf    cn119325   5.402   2.220   0.983 -0.1481  0.5800 -0.4094
 3089ntf    fn419326   5.620   1.918   1.058  0.3904  0.2170  0.0835
 3089ntf    fn419327   5.579   1.714   1.016 -0.6915  0.4118  0.5933
 3089ntf    fn419328   5.662   1.851   0.867  0.1485  0.3691  0.2981
 3089ntf    on519329   5.363   1.770   0.816  0.1756  0.2602 -0.2337
 3089ntf    on519330   5.339   1.885   1.038 -0.3939 -0.3629 -0.0335
 3089ntf    on519331   5.185   2.114   0.885  0.3780 -0.0191  0.6344
 3089ntf    on519332   5.345   2.214   0.727  0.1018  0.2215  0.1493
 3089ntf    fn419333   5.510   2.285   0.942  0.4327 -0.0539  0.0755
 3089ntf    fn419334   5.326   2.314   1.036 -0.1760  0.2238  0.1941
 3089ntf    fn419335   5.433   2.137   1.082 -0.8047  0.1782 -0.5335
 3090ntf    cn119336   0.910   0.794   0.888 -0.1963  0.2877  0.2276
 3090ntf    sn219337   0.914   0.651   1.000  0.3150 -0.1400 -0.3272
 3090ntf    nn319338   1.028   0.563   0.937  0.3441 -0.5021  0.2243
 3090ntf    sn219339   1.179   0.554   0.980  0.3910  0.2902  0.2433
 3090ntf    cn119340   1.184   0.570   1.161 -0.0131  0.0899  0.2759
 3090ntf    fn419341   0.810   0.878   0.910  0.0420  0.6100  0.0820
 3090ntf    fn419342   1.025   0.858   0.900 -0.1701  0.2084  0.4023
 3090ntf    fn419343   0.890   0.751   0.764  0.4646 -0.1228  0.2555
 3090ntf    on519344   0.943   0.714   1.127 -0.0931 -0.1248 -0.2380
 3090ntf    on519345   0.785   0.589   0.982 -0.0024  0.4940 -0.2501
 3090ntf    on519346   1.263   0.657   0.926  0.2084  0.3416  0.0522
 3090ntf    on519347   1.231   0.421   0.959 -0.2070  0.0054  0.5221
 3090ntf    fn419348   1.081   0.513   1.221  0.0907 -0.6749 -0.2625
 3090ntf    fn419349   1.290   0.509   1.212 -0.1870 -0.3376  0.1325
 3090ntf    fn419350   1.192   0.698   1.196 -0.0006  0.2533 -0.3042
 3091ntf    cn119351   3.360   1.934   1.929 -0.2246  0.7902  0.2646
 3091ntf    sn219352   3.411   2.078   1.830  0.0633  0.3259 -0.2688
 3091ntf    nn319353   3.392   2.039   1.679 -0.0032  0.1603 -0.2188
 3091ntf    sn219354   3.263   2.058   1.592 -0.2415  0.1473  0.1284
 3091ntf    cn119355   3.287   2.219   1.511 -0.0151 -0.0561 -0.2131
 3091ntf    fn419356   3.416   1.820   1.891 -0.0362  0.8143  0.4621
 3091ntf    fn419357   3.409   1.957   2.050 -0.3621  0.0515  0.4652
 3091ntf    fn419358   3.231   1.909   1.938 -0.0608 -0.1730  0.1008
 3091ntf    on519359   3.325   2.180   1.885 -0.2922  0.1457 -0.4865
 3091ntf    on519360   3.551   2.085   1.865 -0.0992 -0.8299  0.7093
 3091ntf    on519361   3.142   2.075   1.668 -0.0905 -0.4423  0.5082
 3091ntf    on519362   3.260   1.959   1.487  0.1593 -0.0555  0.3064
 3091ntf    fn419363   3.186   2.238   1.428  0.0012 -0.2535 -0.2784
 3091ntf    fn419364   3.282   2.324   1.592  0.3115 -0.6896  0.6448
 3091ntf    fn419365   3.393   2.216   1.432  0.1027 -0.0638 -0.0548
 3092ntf    cn119366   2.521   3.989   0.440  0.1739  0.0401  0.0753
 3092ntf    sn219367   2.374   4.045   0.349  0.1559  0.1586  0.1766
 3092ntf    nn319368   2.436   4.143   0.243 -0.0988  0.0611 -0.0631
 3092ntf    sn219369   2.434   4.300   0.243  0.6816  0.0732 -0.2328
 3092ntf    cn119370   2.276   4.347   0.167  0.6281  0.1592 -0.0699
 3092ntf    fn419371   2.603   4.088   0.472  0.1321 -0.0878  0.5942
 3092ntf    fn419372   2.484   3.943   0.558  0.4043  0.4064  0.2938
 3092ntf    fn419373   2.586   3.895   0.373 -0.1947 -0.0936 -0.0958
 3092ntf    on519374   2.318   3.936   0.273 -0.1332  0.2051  0.3207
 3092ntf    on519375   2.291   4.110   0.447  0.2095  0.5849 -0.0580
 3092ntf    on519376   2.532   4.351   0.151  0.5131  0.1627 -0.3624
 3092ntf    on519377   2.422   4.360   0.374  0.1057 -0.3856 -0.0751
 3092ntf    fn419378   2.256   4.311   0.041 -0.3545  0.0220  0.1185
 3092ntf    fn419379   2.177   4.301   0.241 -0.0301  0.6125 -0.6528
 3092ntf    fn419380   2.266   4.479   0.156  0.4517  0.1167 -0.4346
 3093ntf    cn119381   6.057   4.831   5.021 -0.1214  0.1470  0.3154
 3093ntf    sn219382   6.055   4.969   4.902 -0.0845 -0.0340  0.1035
 3093ntf    nn319383   6.200   4.968   4.842  0.0962 -0.6046  0.5334
 3093ntf    sn219384   6.318   5.063   4.882 -0.3644  0.2743 -0.1468
 3093ntf    cn119385   6.436   5.024   4.749  0.0171  0.1801  0.2170
 3093ntf    fn419386   6.159   4.842   5.105 -0.3795 -0.4483  0.7136
 3093ntf    fn419387   5.950   4.835   5.099 -0.7627  0.3644 -0.5588
 3093ntf    fn419388   6.058   4.711   4.966 -0.2195  0.2120  0.1733
 3093ntf    on519389   5.956   4.931   4.805  0.3360  0.0928 -0.3770
 3093ntf    on519390   6.019   5.087   4.977  0.4667  0.3890 -0.2901
 3093ntf    on519391   6.386   5.029   5.004  0.0393  0.2377 -0.3805
 3093ntf    on519392   6.298   5.204   4.862  0.5509  0.3813 -0.3558
 3093ntf    fn419393   6.406   5.091   4.639  0.0074 -0.3163 -0.0845
 3093ntf    fn419394   6.556   5.065   4.787  0.2520  0.1408 -0.4810
 3093ntf    fn419395   6.437   4.894   4.724 -0.4358  0.1625  0.2824
 3094ntf    cn119396   3.568   3.876   1.236  0.1571  0.2480  0.7010
 3094ntf    sn219397   3.661   3.734   1.172 -0.0885  0.3475  0.1152
 3094ntf    nn319398   3.693   3.671   1.313  0.1957  0.0359 -0.0877
 3094ntf    sn219399   3.635   3.536   1.369 -0.0925  0.2391  0.1092
 3094ntf    cn119400   3.722   3.417   1.262  0.4092  0.5624  0.1534
 3094ntf    fn419401   3.520   3.953   1.139  0.5138 -0.4439 -0.0331
 3094ntf    fn419402   3.463   3.832   1.304 -0.1760 -0.3747 -0.2083
 3094ntf    fn419403   3.634   3.957   1.318  0.2811  0.4593  0.3938
 3094ntf    on519404   3.565   3.675   1.082  0.2044  0.0121  0.0211
 3094ntf    on519405   3.777   3.798   1.117  0.2225 -0.6022 -0.3580
 3094ntf    on519406   3.495   3.510   1.346 -0.0353  0.4245 -0.4801
 3094ntf    on519407   3.687   3.507   1.500  0.1770  0.5387  0.0701
 3094ntf    fn419408   3.674   3.294   1.261 -0.2020  0.7967  0.3186
 3094ntf    fn419409   3.737   3.447   1.134  0.1910 -0.1620 -0.0480
 3094ntf    fn419410   3.850   3.409   1.294  0.2521 -0.0673  0.6444
 3095ntf    cn119411   0.480   5.233   2.243 -0.0317 -0.2236  0.3455
 3095ntf    sn219412   0.638   5.143   2.241  0.0738 -0.0357  0.1886
 3095ntf    nn319413   0.611   5.036   2.128  0.5526  0.0693 -0.0295
 3095ntf    sn219414   0.689   4.904   2.098  0.1693 -0.1897  0.0991
 3095ntf    cn119415   0.618   4.845   1.942 -0.2721  0.0058  0.2258
 3095ntf    fn419416   0.470   5.328   2.334  0.6797  0.0436  0.1464
 3095ntf    fn419417   0.458   5.295   2.128  0.2466 -0.2485  0.2790
 3095ntf    fn419418   0.380   5.145   2.243 -0.0538 -0.2031 -0.1474
 3095ntf    on519419   0.738   5.239   2.201  0.0355  0.1005  0.4218
 3095ntf    on519420   0.638   5.099   2.378  0.5692 -0.1625  0.1482
 3095ntf    on519421   0.674   4.797   2.194  0.6942 -0.1565  0.2231
 3095ntf    on519422   0.826   4.927   2.058  0.0858  0.6803  0.3069
 3095ntf    fn419423   0.486   4.858   1.950 -0.3110 -0.4080  0.2699
 3095ntf    fn419424   0.655   4.912   1.834 -0.2709 -0.5513 -0.1241
 3095ntf    fn419425   0.650   4.719   1.919 -0.1150  0.0294  0.3120
 3096ntf    cn119426   0.622   1.115   5.679  0.2126 -0.1514 -0.0725
 3096ntf    sn219427   0.638   1.277   5.599 -0.2700 -0.1659 -0.2069
 3096ntf    nn319428   0.489   1.322   5.613 -0.0490  0.4176  0.3203
 3096ntf    sn219429   0.412   1.449   5.560 -0.4748 -0.0891 -0.2960
 3096ntf    cn119430   0.403   1.540   5.717  0.0483 -0.0244 -0.3002
 3096ntf    fn419431   0.734   1.046   5.679  0.0212 -0.4670  0.0499
 3096ntf    fn419432   0.584   1.137   5.804  0.6883  0.1320  0.0234
 3096ntf    fn419433   0.527   1.041   5.624 -0.1069  0.4214 -0.2989
 3096ntf    on519434   0.742   1.342   5.676 -0.1408 -0.4328 -0.1530
 3096ntf    on519435   0.685   1.242   5.466 -0.3468 -0.1697 -0.2324
 3096ntf    on519436   0.274   1.419   5.531 -0.6782  0.0596  0.5000
 3096ntf    on519437   0.487   1.536   5.472 -0.3012 -0.0756 -0.1361
 3096ntf    fn419438   0.316   1.488   5.803  0.5833 -0.5863 -0.0842
 3096ntf    fn419439   0.521   1.551   5.776 -0.1131  0.3584 -0.0445
 3096ntf    fn419440   0.352   1.660   5.697 -0.0498  0.0561  0.4094
 3097ntf    cn119441   3.490   4.817   0.324 -0.2054  0.6255  0.7504
 3097ntf    sn219442   3.648   4.887   0.267 -0.2339  0.0478 -0.0564
 3097ntf    nn319443   3.706   4.769   0.182  0.2969  0.2945 -0.0407
 3097ntf    sn219444   3.789   4.647   0.238 -0.1883  0.0739  0.2083
 3097ntf    cn119445   3.959   4.704   0.206 -0.1844 -0.1874 -0.2408
 3097ntf    fn419446   3.385   4.844   0.248  0.1248  0.7022  0.3182
 3097ntf    fn419447   3.485   4.687   0.348 -0.6564  0.4928 -0.0137
 3097ntf    fn419448   3.464   4.872   0.442 -0.0815  0.5922  0.7939
 3097ntf    on519449   3.600   4.993   0.182 -0.2754  0.1774  0.1289
 3097ntf    on519450   3.727   4.921   0.383 -0.2544 -0.3980  0.0909
 3097ntf    on519451   3.774   4.532   0.153 -0.1179  0.2265 -0.0118
 3097ntf    on519452   3.775   4.625   0.379 -0.0282 -0.7341  0.0997
 3097ntf    fn419453   3.982   4.708   0.076  0.1630  0.1965 -0.1693
 3097ntf    fn419454   3.980   4.831   0.238  0.7906 -0.3030 -0.3891
 3097ntf    fn419455   4.059   4.636   0.259 -0.2697 -0.2439 -0.1520
 3098ntf    cn119456   6.027   0.727   5.192 -0.4597  0.2415 -0.4784
 3098ntf    sn219457   6.133   0.755   5.047  0.1947  0.0227 -0.0460
 3098ntf    nn319458   6.105   0.621   4.968  0.0389  0.3109 -0.4840
 3098ntf    sn219459   6.199   0.533   4.878  0.1279 -0.1260  0.0309
 3098ntf    cn119460   6.090   0.495   4.738  0.1399  0.2971 -0.0942
 3098ntf    fn419461   6.079   0.628   5.263 -0.7140  0.2468 -0.2822
 3098ntf    fn419462   6.016   0.834   5.268  0.3223  0.0290 -0.0498
 3098ntf    fn419463   5.905   0.685   5.162 -0.4197 -0.3252  0.1327
 3098ntf    on519464   6.070   0.865   4.978 -0.4085 -0.2107  0.1264
 3098ntf    on519465   6.265   0.779   5.099  0.1450 -0.1471  0.1584
 3098ntf    on519466   6.230   0.410   4.946  0.6760  0.4121  0.7832
 3098ntf    on519467   6.313   0.605   4.825 -0.1904  0.2028 -0.2141
 3098ntf    fn419468   5.973   0.465   4.790  0.3026  0.2566  0.2490
 3098ntf    fn419469   6.072   0.588   4.645  0.2354  0.0666 -0.3452
 3098ntf    fn419470   6.120   0.378   4.684 -0.1166  0.0428  0.3066
 3099ntf    cn119471   4.626   1.603   1.480  0.6751  0.3064 -0.3931
 3099ntf    sn219472   4.644   1.526   1.316  0.1087 -0.0133 -0.3055
 3099ntf    nn319473   4.629   1.657   1.231  0.3199 -0.0035 -0.3274
 3099ntf    sn219474   4.495   1.726   1.187  0.2167 -0.1696 -0.2744
 3099ntf    cn119475   4.452   1.663   1.021 -0.0124  0.3400 -0.4110
 3099ntf    fn419476   4.501   1.627   1.514  0.6803 -0.0048 -0.1494
 3099ntf    fn419477   4.682   1.531   1.576 -0.2914 -0.0066 -0.0607
 3099ntf    fn419478   4.687   1.721   1.477  1.2161  0.0497  0.2927
 3099ntf    on519479   4.777   1.470   1.316  0.0666 -0.1169 -0.8074
 3099ntf    on519480   4.537   1.429   1.313  0.2839 -0.1937 -0.7233
 3099ntf    on519481   4.528   1.864   1.161  0.0964 -0.1407 -0.2736
 3099ntf    on519482   4.377   1.688   1.259  0.3749 -0.3056 -0.0871
 3099ntf    fn419483   4.463   1.531   1.020  0.0597  0.3441 -0.2068
 3099ntf    fn419484   4.331   1.696   0.982 -0.2071  0.4778  0.2815
 3099ntf    fn419485   4.545   1.706   0.937 -0.0167  0.2963 -0.4377
 3100ntf    cn119486   4.610   5.370   0.100 -0.0360  0.1201 -0.3141
 3100ntf    sn219487   4.758   5.277   0.150 -0.3106 -0.0511  0.1790
 3100ntf    nn319488   4.734   5.282   0.305 -0.3080  0.0939  0.1755
 3100ntf    sn219489   4.645   5.187   0.394 -0.4608  0.0210 -0.0537
 3100ntf    cn119490   4.761   5.049   0.421 -0.3728  0.0755 -0.1492
 3100ntf    fn419491   4.610   5.410  -0.027 -0.4613  0.2322 -0.2820
 3100ntf    fn419492   4.492   5.312   0.115 -0.3210  0.6160 -0.5959
 3100ntf    fn419493   4.607   5.481   0.172 -0.0372 -0.0817 -0.0051
 3100ntf    on519494   4.745   5.149   0.085 -0.2546 -0.0700  0.2057
 3100ntf    on519495   4.862   5.369   0.111 -0.2571 -0.1043  0.1964
 3100ntf    on519496   4.532   5.130   0.324 -0.6408  0.2086  0.0856
 3100ntf    on519497   4.626   5.239   0.527 -0.0677  0.4081 -0.1444
 3100ntf    fn419498   4.829   5.013   0.313 -0.4796 -0.3564 -0.0766
 3100ntf    fn419499   4.859   5.067   0.507 -0.2403 -0.2293 -0.2332
 3100ntf    fn419500   4.692   4.941   0.456  0.2762 -0.3368 -0.1305
 3101ntf    cn119501   1.183   5.307   1.167  0.0987  0.2116  0.4832
 3101ntf    sn219502   1.158   5.285   0.988  0.1688  0.1448  0.4813
 3101ntf    nn319503   1.189   5.426   0.927 -0.1549  0.0781  0.1583
 3101ntf    sn219504   1.095   5.542   0.879  0.1347  0.3077  0.1454
 3101ntf    cn119505   1.172   5.684   0.964  0.4385  0.2178  0.0234
 3101ntf    fn419506   1.079   5.355   1.232 -0.3733 -0.2777  0.1064
 3101ntf    fn419507   1.211   5.197   1.236  0.4375  0.0040  0.0204
 3101ntf    fn419508   1.284   5.390   1.187  0.2801  0.1416 -0.1087
 3101ntf    on519509   1.248   5.179   0.948 -0.1761 -0.0376  0.1835
 3101ntf    on519510   1.018   5.249   0.985  0.2786 -0.2577 -0.1641
 3101ntf    on519511   0.956   5.537   0.916  0.1989 -1.0490  0.2397
 3101ntf    on519512   1.122   5.583   0.743 -0.2353 -0.1965 -0.0798
 3101ntf    fn419513   1.121   5.800   0.925 -0.0118 -0.0238 -0.1127
 3101ntf    fn419514   1.147   5.679   1.094 -0.0054 -0.3904 -0.0784
 3101ntf    fn419515   1.303   5.688   0.950  0.3701  0.1045 -0.7138
 3102ntf    cn119516   6.586   3.002   5.655 -0.1425 -0.0493  0.0178
 3102ntf    sn219517   6.545   2.835   5.594  0.2741 -0.1063 -0.1090
 3102ntf    nn319518   6.400   2.804   5.645  0.3519 -0.1007  0.1153
 3102ntf    sn219519   6.364   2.737   5.782 -0.0347 -0.2651 -0.0656
 3102ntf    cn119520   6.390   2.563   5.736 -0.1508 -0.3085  0.0313
 3102ntf    fn419521   6.575   3.009   5.786  0.4174  0.4888  0.0378
 3102ntf    fn419522   6.705   3.048   5.620 -0.0554 -0.3191 -0.0476
 3102ntf    fn419523   6.496   3.090   5.612  0.0666  0.2888  0.2743
 3102ntf    on519524   6.547   2.861   5.452 -0.0072  0.6338  0.0180
 3102ntf    on519525   6.649   2.752   5.649 -0.1211 -0.4433  0.1279
 3102ntf    on519526   6.222   2.749   5.808 -0.0345 -0.4190  0.0097
 3102ntf    on519527   6.447   2.767   5.896 -0.2565  0.3610 -0.0669
 3102ntf    fn419528   6.518   2.539   5.713 -0.1154 -0.1546  0.0688
 3102ntf    fn419529   6.354   2.498   5.846 -0.2874  0.5977  0.5356
 3102ntf    fn419530   6.312   2.522   5.638 -0.4311 -0.3516  0.2717
 3103ntf    cn119531   0.073   0.805   0.987 -0.2914 -0.1612  0.0094
 3103ntf    sn219532   0.019   0.944   1.091 -0.0932 -0.0554 -0.0289
 3103ntf    nn319533  -0.121   0.895   1.142 -0.3187  0.6096  0.0079
 3103ntf    sn219534  -0.261   0.921   1.076 -0.5004  0.3204  0.2744
 3103ntf    cn119535  -0.362   0.815   1.183  0.0270 -0.4140  0.0507
 3103ntf    fn419536   0.181   0.840   0.920 -0.4140 -0.0619 -0.1365
 3103ntf    fn419537   0.120   0.709   1.066  0.5893  0.2435 -0.0151
 3103ntf    fn419538  -0.011   0.742   0.907 -0.1215 -0.7616  0.2993
 3103ntf    on519539   0.115   0.937   1.197  0.1647 -0.1261 -0.2651
 3103ntf    on519540   0.026   1.058   1.002  0.7988 -0.3073 -0.2860
 3103ntf    on519541  -0.277   0.867   0.943  0.2552  0.0281  0.2954
 3103ntf    on519542  -0.322   1.047   1.110 -0.2673  0.4380  0.2559
 3103ntf    fn419543  -0.363   0.845   1.312  1.1100  0.2283 -0.0833
 3103ntf    fn419544  -0.489   0.814   1.144  0.2375 -0.2312 -0.6470
 3103ntf    fn419545  -0.329   0.687   1.175  0.7652 -0.2096 -0.2027
 3104ntf    cn119546   3.989   3.649   6.098 -0.6013  0.2467  0.2221
 3104ntf    sn219547   4.166   3.609   6.104 -0.6389  0.0080 -0.2357
 3104ntf    nn319548   4.220   3.734   6.026 -0.1796  0.0207  0.0992
 3104ntf    sn219549   4.281   3.740   5.881 -0.1706 -0.1464  0.0967
 3104ntf    cn119550   4.131   3.808   5.803 -0.1675  0.3588  0.5259
 3104ntf    fn419551   3.956   3.758   6.166 -0.9236  0.1169  0.2742
 3104ntf    fn419552   3.948   3.672   5.974 -0.3067  0.2175  0.1193
 3104ntf    fn419553   3.918   3.546   6.141  0.2758 -0.5536 -0.2364
 3104ntf    on519554   4.197   3.614   6.244 -0.0128 -0.2478 -0.3632
 3104ntf    on519555   4.169   3.478   6.045  0.0706 -0.0292 -0.1177
 3104ntf    on519556   4.292   3.619   5.803 -0.5994 -0.2098  0.1329
 3104ntf    on519557   4.385   3.838   5.863 -0.2062 -0.0089  0.6138
 3104ntf    fn419558   4.038   3.714   5.800 -0.0597  0.2649 -0.0617
 3104ntf    fn419559   4.075   3.903   5.876 -0.3419  0.6757 -0.0173
 3104ntf    fn419560   4.148   3.864   5.684 -0.1323  0.4042  0.5523
 3105ntf    cn119561   2.681   2.617   3.798  0.0887  0.1143 -0.0943
 3105ntf    sn219562   2.544   2.735   3.781 -0.0716 -0.0792 -0.1500
 3105ntf    nn319563   2.607   2.858   3.705 -0.5122  0.2690  0.0466
 3105ntf    sn219564   2.578   2.911   3.560 -0.2273 -0.1313 -0.1591
 3105ntf    cn119565   2.440   3.015   3.616  0.3385  0.3210  0.4217
 3105ntf    fn419566   2.649   2.501   3.853 -0.2853  0.1479 -0.2355
 3105ntf    fn419567   2.741   2.596   3.682 -0.3629 -0.1612 -0.2787
 3105ntf    fn419568   2.779   2.671   3.868  0.0852  0.0088 -0.0077
 3105ntf    on519569   2.443   2.666   3.704 -0.7128  0.2632  0.3733
 3105ntf    on519570   2.508   2.783   3.912 -0.2804 -0.6992  0.0203
 3105ntf    on519571   2.514   2.823   3.466 -0.9494 -0.3766  0.5463
 3105ntf    on519572   2.671   3.007   3.505  0.0325 -0.1251  0.2785
 3105ntf    fn419573   2.471   3.124   3.685 -0.1818  0.7183  0.0445
 3105ntf    fn419574   2.365   3.059   3.515  0.5562 -0.0348  0.1020
 3105ntf    fn419575   2.359   2.945   3.694  0.6552 -0.0766  0.3923
 3106ntf    cn119576   1.903   6.616   2.860  0.2115  0.0844  0.2237
 3106ntf    sn219577   1.743   6.692   2.902  0.0413 -0.1814  0.0542
 3106ntf    nn319578   1.780   6.844   2.908 -0.0653 -0.1367 -0.3509
 3106ntf    sn219579   1.747   6.956   2.803  0.1043  0.0461 -0.2120
 3106ntf    cn119580   1.592   7.014   2.878  0.1647 -0.1306  0.0520
 3106ntf    fn419581   1.994   6.646   2.951 -0.2209  0.7223  0.4535
 3106ntf    fn419582   1.888   6.485   2.852 -0.3792  0.1397  0.4135
 3106ntf    fn419583   1.943   6.659   2.741  0.3739 -0.3853  0.1061
 3106ntf    on519584   1.651   6.656   2.797  0.6295 -0.4862 -0.3649
 3106ntf    on519585   1.708   6.644   3.033 -0.4406 -0.5500 -0.2022
 3106ntf    on519586   1.709   6.923   2.668 -0.3612  0.2991 -0.1459
 3106ntf    on519587   1.827   7.075   2.814 -0.0003  0.0742  0.2576
 3106ntf    fn419588   1.499   6.919   2.876 -0.3950  0.4139 -0.2965
 3106ntf    fn419589   1.604   7.049   3.005  0.1152 -0.6037  0.1903
 3106ntf    fn419590   1.544   7.120   2.815 -0.1227 -0.2885  0.0050
 3107ntf    cn119591   4.833   5.370   3.313 -0.0803 -0.1183 -0.0006
 3107ntf    sn219592   4.657   5.361   3.355 -0.0414  0.1914  0.2345
 3107ntf    nn319593   4.618   5.209   3.356 -0.1632  0.2216  0.0909
 3107ntf    sn219594   4.485   5.140   3.404  0.1100 -0.1817  0.2733
 3107ntf    cn119595   4.530   5.102   3.576 -0.0570 -0.0661  0.3418
 3107ntf    fn419596   4.872   5.288   3.217 -0.7382 -0.0970 -0.2884
 3107ntf    fn419597   4.882   5.488   3.281 -0.1731 -0.2195 -0.5190
 3107ntf    fn419598   4.899   5.335   3.422 -0.2115 -0.3522  0.0037
 3107ntf    on519599   4.647   5.419   3.487  0.3318  0.2433  0.2412
 3107ntf    on519600   4.595   5.442   3.252 -0.0927  0.4037  0.4310
 3107ntf    on519601   4.459   5.010   3.347 -0.1027 -0.2402  0.5057
 3107ntf    on519602   4.371   5.228   3.410  0.1639 -0.1015  0.1417
 3107ntf    fn419603   4.436   5.041   3.647 -0.5709  0.0102 -0.2574
 3107ntf    fn419604   4.643   5.036   3.591  0.1190  0.2028  0.2187
 3107ntf    fn419605   4.548   5.213   3.646 -0.7419  0.1659  0.1598
 3108ntf    cn119606   4.837   4.969   2.727  0.0697 -0.1644  0.3780
 3108ntf    sn219607   4.924   4.812   2.693 -0.0999 -0.1676 -0.0539
 3108ntf    nn319608   4.801   4.718   2.666 -0.4128  0.1340  0.2979
 3108ntf    sn219609   4.796   4.582   2.588 -0.0175  0.1661  0.2134
 3108ntf    cn119610   4.729   4.636   2.428  0.0465  0.0676  0.1537
 3108ntf    fn419611   4.921   5.065   2.760 -0.5585  0.2504  0.7813
 3108ntf    fn419612   4.753   5.010   2.633  0.3262 -0.2639  0.1023
 3108ntf    fn419613   4.763   4.955   2.835  0.3070  0.3963  0.6152
 3108ntf    on519614   5.014   4.844   2.585  0.1628 -0.9081 -0.0539
 3108ntf    on519615   4.984   4.775   2.819 -0.1281  0.3556  0.1159
 3108ntf    on519616   4.701   4.490   2.644 -0.1309  0.0513 -0.1667
 3108ntf    on519617   4.927   4.528   2.560 -0.2270 -0.0722 -0.3194
 3108ntf    fn419618   4.815   4.652   2.328  0.2138  0.4106  0.3524
 3108ntf    fn419619   4.652   4.541   2.377 -0.0869  0.2625 -0.0053
 3108ntf    fn419620   4.663   4.750   2.433 -1.0019 -0.5085 -0.2442
 3109ntf    cn119621   2.258   3.289   2.784  0.3853 -0.1524 -0.0794
 3109ntf    sn219622   2.196   3.459   2.771  0.0861 -0.2565 -0.0391
 3109ntf    nn319623   2.082   3.454   2.878  0.0805  0.2048 -0.0210
 3109ntf    sn219624   2.024   3.579   2.952  0.4113  0.3067  0.0668
 3109ntf    cn119625   1.959   3.493   3.099 -0.3324  0.2643 -0.2841
 3109ntf    fn419626   2.365   3.266   2.710  0.5018  0.1025  0.0098
 3109ntf    fn419627   2.284   3.263   2.911  0.2831  0.7399  0.1251
 3109ntf    fn419628   2.163   3.207   2.743  0.4777 -0.2339 -0.1317
 3109ntf    on519629   2.314   3.532   2.813 -0.0167  0.0383 -0.2616
 3109ntf    on519630   2.153   3.472   2.634 -0.3496  0.1974  0.1385
 3109ntf    on519631   1.908   3.634   2.887  0.2214  0.1068  0.2327
 3109ntf    on519632   2.122   3.672   3.002 -0.0835  0.7020  0.3144
 3109ntf    fn419633   2.049   3.411   3.150 -0.2086  0.2657 -0.4998
 3109ntf    fn419634   1.920   3.580   3.190  0.0744 -0.0207  0.1632
 3109ntf    fn419635   1.862   3.407   3.069 -0.5593  0.1632  0.7245
 3110ntf    cn119636   3.166   0.638   0.095 -0.0178 -0.1990  0.2571
 3110ntf    sn219637   3.210   0.802   0.031 -0.0559 -0.1652  0.3181
 3110ntf    nn319638   3.065   0.850  -0.005  0.0438 -0.3199 -0.2896
 3110ntf    sn219639   2.989   0.847  -0.143 -0.1242 -0.3127 -0.1964
 3110ntf    cn119640   2.843   0.954  -0.128 -0.1975 -0.4698  0.2333
 3110ntf    fn419641   3.065   0.641   0.180  0.0860 -0.0259  0.3745
 3110ntf    fn419642   3.122   0.560  -0.002  0.0544  0.0263  0.0428
 3110ntf    fn419643   3.269   0.588   0.162  0.3146  0.0287 -0.0825
 3110ntf    on519644   3.271   0.873   0.141  0.4550 -0.4929  0.2466
 3110ntf    on519645   3.298   0.769  -0.078 -0.2939  0.5624 -0.1074
 3110ntf    on519646   2.920   0.722  -0.166 -0.1589 -0.3885  0.3093
 3110ntf    on519647   3.065   0.909  -0.248  0.4317  0.1439  0.4680
 3110ntf    fn419648   2.776   0.970  -0.241 -0.2367 -0.1496  0.3004
 3110ntf    fn419649   2.759   0.906  -0.037 -0.2981 -0.1660  0.3011
 3110ntf    fn419650   2.881   1.075  -0.092 -0.2235 -0.4179  0.0845
 3111ntf    cn119651   3.367   5.310   3.399  0.2511  0.4086  0.0947
 3111ntf    sn219652   3.502   5.375   3.297  0.0494  0.2786 -0.2583
 3111ntf    nn319653   3.504   5.270   3.181  0.0402  0.0375 -0.0389
 3111ntf    sn219654   3.600   5.146   3.169  0.1275  0.0827  0.1926
 3111ntf    cn119655   3.751   5.227   3.106  0.0872 -0.1361 -0.1896
 3111ntf    fn419656   3.401   5.188   3.438 -0.4233  0.0449 -0.4182
 3111ntf    fn419657   3.341   5.376   3.510 -0.1407  0.5572 -0.0828
 3111ntf    fn419658   3.251   5.289   3.338  0.3703  0.6024 -0.1987
 3111ntf    on519659   3.449   5.502   3.252 -0.1348  0.2183 -0.2135
 3111ntf    on519660   3.619   5.372   3.380  0.1245  0.3680 -0.3589
 3111ntf    on519661   3.565   5.062   3.057  0.4224  0.0276  0.1417
 3111ntf    on519662   3.644   5.080   3.290 -0.0568  0.4044  0.4364
 3111ntf    fn419663   3.853   5.145   3.123  0.2811  0.2306  0.4565
 3111ntf    fn419664   3.729   5.257   2.979 -0.3640  0.8359  0.1071
 3111ntf    fn419665   3.787   5.331   3.180  0.2768 -0.0202 -0.4471
 3112ntf    cn119666   5.782   6.967   4.565  0.0725 -0.1810 -0.0001
 3112ntf    sn219667   5.678   7.107   4.515  0.0486 -0.2675 -0.1913
 3112ntf    nn319668   5.646   7.158   4.660 -0.3911 -0.5211 -0.1962
 3112ntf    sn219669   5.506   7.208   4.709 -0.1065 -0.1501  0.2449
 3112ntf    cn119670   5.430   7.066   4.792  0.2845 -0.3208  0.3117
 3112ntf    fn419671   5.822   6.903   4.456  0.6660  0.4465 -0.1545
 3112ntf    fn419672   5.896   7.002   4.623 -0.0793  0.4132 -0.0620
 3112ntf    fn419673   5.722   6.883   4.649 -0.5102  0.0690 -0.1623
 3112ntf    on519674   5.771   7.187   4.440  0.1407 -0.0563  0.1467
 3112ntf    on519675   5.568   7.043   4.446 -0.2336  0.3137 -0.2837
 3112ntf    on519676   5.407   7.258   4.616  0.2729 -0.1768 -0.1729
 3112ntf    on519677   5.534   7.303   4.814  0.0365 -0.0205  0.0905
 3112ntf    fn419678   5.302   7.084   4.821  0.2461 -0.7557  0.4185
 3112ntf    fn419679   5.444   6.966   4.706  1.6054  0.0155  0.1206
 3112ntf    fn419680   5.483   7.026   4.906 -0.1037  0.0164  0.6141
 3113ntf    cn119681   0.095   5.605   6.012  0.1998 -0.0465 -0.2576
 3113ntf    sn219682   0.155   5.463   6.107  0.1149  0.0745 -0.0240
 3113ntf    nn319683   0.224   5.386   5.989 -0.1308  0.5473 -0.4759
 3113ntf    sn219684   0.183   5.282   5.878 -0.1692  0.1701 -0.1083
 3113ntf    cn119685   0.247   5.131   5.957 -0.3903  0.0773 -0.1070
 3113ntf    fn419686  -0.002   5.675   6.070 -0.0188 -0.0934 -0.5627
 3113ntf    fn419687   0.197   5.685   5.985  0.0772  0.1526 -0.1327
 3113ntf    fn419688   0.049   5.561   5.896 -0.0611 -0.0317 -0.1620
 3113ntf    on519689   0.249   5.514   6.204  0.1442 -0.5488  0.2793
 3113ntf    on519690   0.035   5.401   6.156 -0.0158  0.3116 -0.0413
 3113ntf    on519691   0.263   5.286   5.758  0.4043  0.6942  0.2840
 3113ntf    on519692   0.044   5.246   5.872 -0.3448  0.8742 -0.3405
 3113ntf    fn419693   0.212   5.118   6.084  0.1250 -0.1349  0.0153
 3113ntf    fn419694   0.198   5.022   5.902  0.2925 -0.0259 -0.5195
 3113ntf    fn419695   0.379   5.134   5.951 -0.3923 -0.7106 -0.6368
 3114ntf    cn119696   5.945   0.348   0.748  0.1038 -0.0005 -0.1293
 3114ntf    sn219697   5.818   0.351   0.878  0.1864  0.1556 -0.0519
 3114ntf    nn319698   5.913   0.392   0.996  0.1754 -0.0533  0.0308
 3114ntf    sn219699   5.997   0.310   1.100  0.2136  0.0440  0.0773
 3114ntf    cn119700   6.155   0.400   1.103  0.2430 -0.0027 -0.0624
 3114ntf    fn419701   6.028   0.245   0.756 -0.2251 -0.2508  0.0597
 3114ntf    fn419702   5.887   0.332   0.631  0.4351  0.1062 -0.3098
 3114ntf    fn419703   6.024   0.454   0.750 -0.3499  0.3684 -1.2210
 3114ntf    on519704   5.725   0.457   0.846 -0.3527 -0.4358 -0.4622
 3114ntf    on519705   5.765   0.217   0.870 -0.3015  0.3347  0.1256
 3114ntf    on519706   6.023   0.181   1.040  0.2584  0.1144 -0.0558
 3114ntf    on519707   5.949   0.321   1.235 -0.0907 -0.4008  0.0064
 3114ntf    fn419708   6.198   0.407   0.978  0.7978  0.1375  0.1332
 3114ntf    fn419709   6.145   0.520   1.156 -0.2083 -0.0141 -0.1152
 3114ntf    fn419710   6.249   0.341   1.175  0.4606  0.5726  0.1268
 3115ntf    cn119711   3.275   2.560   4.990 -0.0166  0.6287  0.4440
 3115ntf    sn219712   3.454   2.529   4.994 -0.1090  0.0153 -0.0674
 3115ntf    nn319713   3.491   2.649   5.087  0.1699 -0.1388  0.0204
 3115ntf    sn219714   3.507   2.651   5.244  0.0662 -0.0716  0.0304
 3115ntf    cn119715   3.659   2.552   5.256  0.0178 -0.1626 -0.1069
 3115ntf    fn419716   3.212   2.481   4.904  0.2920  0.5587  0.2814
 3115ntf    fn419717   3.225   2.527   5.108 -0.3677 -0.0402  0.1146
 3115ntf    fn419718   3.236   2.683   4.962  0.1027  0.4761 -0.3960
 3115ntf    on519719   3.467   2.400   5.057  0.1159  0.0789  0.0165
 3115ntf    on519720   3.512   2.541   4.862  0.7128  0.6929  0.3496
 3115ntf    on519721   3.412   2.574   5.321 -0.4070  0.4829  0.0116
 3115ntf    on519722   3.550   2.778   5.295  0.2842 -0.1626  0.0724
 3115ntf    fn419723   3.658   2.432   5.199 -0.1804 -0.0954 -0.2484
 3115ntf    fn419724   3.755   2.615   5.190  0.1180  0.1424  0.3233
 3115ntf    fn419725   3.703   2.544   5.380 -0.3632  0.4873  0.0749
 3116ntf    cn119726   2.746   2.048   4.225  0.3902  0.2319  0.0163
 3116ntf    sn219727   2.598   2.118   4.304 -0.1190 -0.2099 -0.5346
 3116ntf    nn319728   2.528   1.981   4.337  0.2226 -0.3371 -0.3254
 3116ntf    sn219729   2.381   1.949   4.291  0.1410  0.1686 -0.4246
 3116ntf    cn119730   2.271   2.060   4.384 -0.1387 -0.4798  0.0280
 3116ntf    fn419731   2.723   2.006   4.102 -0.0614 -0.2430  0.2625
 3116ntf    fn419732   2.847   2.134   4.222  0.1910  0.4821  0.3811
 3116ntf    fn419733   2.798   1.945   4.289  0.1110 -0.0628 -0.2288
 3116ntf    on519734   2.651   2.177   4.425 -0.4931 -0.1780 -0.3860
 3116ntf    on519735   2.541   2.200   4.201 -0.0291  0.2568 -0.2154
 3116ntf    on519736   2.337   1.819   4.334  0.5336  0.0995 -0.2239
 3116ntf    on519737   2.353   1.972   4.152  0.6973 -0.0636 -0.5768
 3116ntf    fn419738   2.298   2.187   4.358  0.4908 -0.5597  0.2697
 3116ntf    fn419739   2.143   2.042   4.360 -0.1816  0.3227 -0.3853
 3116ntf    fn419740   2.283   2.046   4.515 -0.1720 -0.2990  0.0519
 3117ntf    cn119741   3.263   3.556   4.364 -0.2447  0.0604 -0.0381
 3117ntf    sn219742   3.188   3.398   4.414  0.1811 -0.1701 -0.1193
 3117ntf    nn319743   3.318   3.326   4.463  0.4808  0.4567  0.0162
 3117ntf    sn219744   3.372   3.301   4.608  0.1668  0.3502  0.1135
 3117ntf    cn119745   3.294   3.138   4.630  0.2996  0.2630 -0.0550
 3117ntf    fn419746   3.382   3.546   4.309  0.0719 -0.3634  0.7112
 3117ntf    fn419747   3.188   3.620   4.276 -0.2011  0.2961  0.0962
 3117ntf    fn419748   3.276   3.631   4.472  0.6165 -0.0657 -0.0526
 3117ntf    on519749   3.092   3.434   4.516  0.7018  0.1655  0.2562
 3117ntf    on519750   3.131   3.352   4.290  0.2624 -0.4718 -0.0450
 3117ntf    on519751   3.316   3.375   4.719  0.3331  0.6738 -0.0167
 3117ntf    on519752   3.511   3.264   4.619 -0.1106 -0.5538  0.7590
 3117ntf    fn419753   3.338   3.047   4.546 -0.1271 -0.1940  0.2098
 3117ntf    fn419754   3.314   3.084   4.749  0.4701  0.1276 -0.1447
 3117ntf    fn419755   3.164   3.144   4.607  0.2923 -0.3522 -0.1849
 3118ntf    cn119756   1.911   3.281   1.304 -0.0645 -0.1275  0.1857
 3118ntf    sn219757   1.820   3.428   1.250  0.0271 -0.2199 -0.2252
 3118ntf    nn319758   1.766   3.367   1.116 -0.1685 -0.1203 -0.1927
 3118ntf    sn219759   1.623   3.312   1.082 -0.2638  0.0846 -0.1274
 3118ntf    cn119760   1.538   3.462   1.026 -0.1526  0.1347 -0.1625
 3118ntf    fn419761   1.827   3.179   1.311  0.0133 -0.1871  0.2645
 3118ntf    fn419762   1.999   3.237   1.215 -0.2245 -0.0128 -0.0291
 3118ntf    fn419763   1.970   3.290   1.422 -0.3973  0.2921  0.3211
 3118ntf    on519764   1.728   3.461   1.357  0.0758 -0.4226 -0.1212
 3118ntf    on519765   1.926   3.522   1.224 -0.3745  0.2614 -0.1614
 3118ntf    on519766   1.557   3.256   1.198  0.2438 -0.5399 -0.1361
 3118ntf    on519767   1.627   3.226   0.966  0.3543 -0.1128  0.0355
 3118ntf    fn419768   1.523   3.545   1.128 -0.4948 -0.0551 -0.0571
 3118ntf    fn419769   1.610   3.518   0.930  0.3427  0.1372  0.2078
 3118ntf    fn419770   1.417   3.440   0.976 -0.1163  0.0119 -0.1966
 3119ntf    cn119771   2.543   3.441   6.446 -0.1964  0.0117  0.2572
 3119ntf    sn219772   2.653   3.573   6.506  0.2556 -0.0908 -0.3250
 3119ntf    nn319773   2.742   3.497   6.611  0.2255  0.4317  0.0860
 3119ntf    sn219774   2.896   3.471   6.604  0.1627  0.1102 -0.1166
 3119ntf    cn119775   2.959   3.621   6.684  0.3103 -0.0998  0.1645
 3119ntf    fn419776   2.607   3.343   6.384  0.1988  0.5067 -0.1341
 3119ntf    fn419777   2.474   3.382   6.542 -0.0658 -0.0726  0.2989
 3119ntf    fn419778   2.450   3.484   6.362  0.0567 -0.0711 -0.0703
 3119ntf    on519779   2.713   3.634   6.390 -0.2888  0.5432 -0.2825
 3119ntf    on519780   2.562   3.655   6.582  0.7667  0.1326  0.0485
 3119ntf    on519781   2.963   3.470   6.476  0.2408 -0.6126 -0.0747
 3119ntf    on519782   2.937   3.366   6.695  0.7704 -0.3726 -0.9287
 3119ntf    fn419783   3.090   3.614   6.705  0.2679 -0.1197  0.4260
 3119ntf    fn419784   2.927   3.734   6.622 -0.6118 -0.4364  0.0197
 3119ntf    fn419785   2.912   3.637   6.806  0.4391 -0.1362  0.2190
 3120ntf    cn119786   3.503   5.758   4.737  0.7545  0.0001 -0.2699
 3120ntf    sn219787   3.451   5.840   4.583 -0.0045  0.1552  0.0629
 3120ntf    nn319788   3.584   5.827   4.501  0.0885  0.2305  0.2006
 3120ntf    sn219789   3.616   5.762   4.361  0.1459  0.3559  0.1546
 3120ntf    cn119790   3.722   5.626   4.420 -0.1851 -0.0308 -0.1364
 3120ntf    fn419791   3.406   5.755   4.827  0.6582  0.0079 -0.3728
 3120ntf    fn419792   3.546   5.634   4.719  0.3225 -0.1699 -0.1415
 3120ntf    fn419793   3.597   5.830   4.795  0.6612 -0.1236  0.0359
 3120ntf    on519794   3.341   5.756   4.543  0.1562 -0.2641  0.4886
 3120ntf    on519795   3.419   5.971   4.634  0.0594 -0.0312  0.5930
 3120ntf    on519796   3.700   5.837   4.271  0.0832  0.0791 -0.1365
 3120ntf    on519797   3.507   5.694   4.294 -0.0979  0.8881  0.0086
 3120ntf    fn419798   3.668   5.553   4.516  0.0993 -0.0270  0.0279
 3120ntf    fn419799   3.773   5.547   4.327  0.1919 -0.5277  0.4847
 3120ntf    fn419800   3.828   5.682   4.476 -0.0086 -0.3092 -0.1933
 3121ntf    cn119801   0.998   6.423   0.908 -0.1240 -0.3224  0.1257
 3121ntf    sn219802   1.095   6.270   0.889  0.0379 -0.2369  0.2543
 3121ntf    nn319803   1.162   6.282   0.748 -0.1212  0.0074  0.1995
 3121ntf    sn219804   1.190   6.164   0.648  0.1691 -0.1725  0.4937
 3121ntf    cn119805   1.293   6.250   0.525 -0.2030  0.0798  0.3570
 3121ntf    fn419806   1.073   6.531   0.921 -0.8099  0.1767 -0.0160
 3121ntf    fn419807   0.931   6.444   0.797  0.2567 -0.8160 -0.2046
 3121ntf    fn419808   0.914   6.424   1.010  0.0652 -0.5081  0.2858
 3121ntf    on519809   1.190   6.280   0.997  0.3735  0.2482 -0.0857
 3121ntf    on519810   0.994   6.167   0.901  0.0034 -0.1663  0.5896
 3121ntf    on519811   1.077   6.128   0.566  0.8385 -0.3525 -0.3646
 3121ntf    on519812   1.282   6.063   0.696  0.3022 -0.2279  0.1232
 3121ntf    fn419813   1.383   6.328   0.581  0.5381 -0.1460 -0.4939
 3121ntf    fn419814   1.359   6.164   0.450  0.3320  1.0700 -0.3237
 3121ntf    fn419815   1.219   6.323   0.443  0.1339  0.1782  0.1394
 3122ntf    cn119816   5.091   1.677   2.667 -0.0610  0.3927  0.2002
 3122ntf    sn219817   5.055   1.499   2.674  0.3970  0.2950  0.0907
 3122ntf    nn319818   5.199   1.439   2.688  0.3323 -0.0186 -0.5533
 3122ntf    sn219819   5.252   1.292   2.671  0.0926 -0.1316 -0.3259
 3122ntf    cn119820   5.304   1.270   2.498 -0.1269 -0.7760 -0.3121
 3122ntf    fn419821   5.181   1.715   2.578 -0.0419 -0.3105 -0.0838
 3122ntf    fn419822   4.986   1.756   2.652  0.2336  0.7147 -0.1805
 3122ntf    fn419823   5.152   1.719   2.777 -0.1258  0.0022  0.3879
 3122ntf    on519824   4.974   1.483   2.792 -0.4919  0.0753 -0.5428
 3122ntf    on519825   4.998   1.479   2.543  0.2891  0.1356  0.1621
 3122ntf    on519826   5.156   1.188   2.700  0.1364 -0.0764  0.0161
 3122ntf    on519827   5.376   1.274   2.742 -0.3199  0.2856  0.5107
 3122ntf    fn419828   5.409   1.339   2.459 -0.1199 -0.1969  0.6887
 3122ntf    fn419829   5.337   1.145   2.468  0.2888 -0.7394 -0.0180
 3122ntf    fn419830   5.200   1.292   2.420 -0.0659 -0.1768 -0.2251
 3123ntf    cn119831   4.715   3.405   0.251  0.2505 -0.2236  0.1080
 3123ntf    sn219832   4.608   3.263   0.290  0.0556 -0.1229 -0.0562
 3123ntf    nn319833   4.515   3.329   0.397 -0.6165 -0.2677 -0.5440
 3123ntf    sn219834   4.359   3.339   0.409 -0.5485  0.1414  0.0257
 3123ntf    cn119835   4.306   3.467   0.291 -0.2242 -0.2836 -0.5834
 3123ntf    fn419836   4.771   3.383   0.134 -0.2197  0.4163 -0.2480
 3123ntf    fn419837   4.657   3.523   0.234  0.1564 -0.2652  0.1385
 3123ntf    fn419838   4.817   3.419   0.334  0.2422 -0.2097  0.1160
 3123ntf    on519839   4.550   3.222   0.164 -0.6607 -0.5116  0.3914
 3123ntf    on519840   4.692   3.166   0.356 -0.2030 -0.1268  0.2659
 3123ntf    on519841   4.313   3.392   0.536  0.2521  0.4906  0.1746
 3123ntf    on519842   4.287   3.224   0.362 -0.1193  0.0738 -0.4699
 3123ntf    fn419843   4.360   3.454   0.171  0.0743  0.5412 -0.5498
 3123ntf    fn419844   4.177   3.492   0.279 -0.1231  0.2370 -0.6538
 3123ntf    fn419845   4.350   3.582   0.340 -0.5260 -0.2643 -0.3536
 3124ntf    cn119846   5.996   1.310   0.139  0.2288 -0.4604 -0.2762
 3124ntf    sn219847   6.023   1.347   0.315 -0.1365 -0.1659 -0.2811
 3124ntf    nn319848   5.890   1.307   0.387  0.1304 -0.1773  0.2108
 3124ntf    sn219849   5.843   1.160   0.418 -0.1390 -0.1152  0.0961
 3124ntf    cn119850   5.893   1.149   0.592 -0.0353  0.2891  0.0929
 3124ntf    fn419851   5.894   1.228   0.125 -0.4518  0.3739 -0.2802
 3124ntf    fn419852   5.961   1.420   0.074  0.3201 -0.1675  0.1700
 3124ntf    fn419853   6.103   1.264   0.075  0.6209  0.2316 -0.1274
 3124ntf    on519854   6.134   1.267   0.360 -0.0565  0.3139  0.3777
 3124ntf    on519855   6.031   1.491   0.330 -0.2855 -0.2732  0.9327
 3124ntf    on519856   5.921   1.060   0.350 -0.0496  0.2065 -0.2788
 3124ntf    on519857   5.700   1.141   0.424 -0.1892  0.0703 -0.4205
 3124ntf    fn419858   6.023   1.151   0.616 -0.0013 -0.0527 -0.0557
 3124ntf    fn419859   5.831   1.234   0.672  0.1832  0.2146  0.3416
 3124ntf    fn419860   5.873   1.027   0.639 -0.1008  0.2833  0.0491
 3125ntf    cn119861   2.637   2.386   6.481  0.3794 -0.4977  0.0861
 3125ntf    sn219862   2.738   2.473   6.604 -0.0882  0.0718  0.0720
 3125ntf    nn319863   2.778   2.590   6.507 -0.4151  0.1283  0.0045
 3125ntf    sn219864   2.914   2.646   6.452 -0.5133  0.3289 -0.0349
 3125ntf    cn119865   2.875   2.823   6.435 -0.3357  0.3369 -0.3484
 3125ntf    fn419866   2.578   2.285   6.543 -0.1206 -0.1136  0.2471
 3125ntf    fn419867   2.549   2.474   6.434  0.2039 -0.8899 -0.3373
 3125ntf    fn419868   2.708   2.343   6.378  0.1774 -0.0815 -0.2326
 3125ntf    on519869   2.638   2.518   6.697 -0.2171 -0.2860  0.1082
 3125ntf    on519870   2.839   2.380   6.648  0.3150  0.2189 -0.5284
 3125ntf    on519871   2.940   2.597   6.319  0.0202 -0.3754  0.3242
 3125ntf    on519872   3.030   2.646   6.537 -0.2272 -0.4310 -0.4139
 3125ntf    fn419873   2.975   2.895   6.386  0.2683 -0.4393 -0.2696
 3125ntf    fn419874   2.777   2.849   6.350 -0.1406  0.8739 -0.4127
 3125ntf    fn419875   2.833   2.877   6.548 -0.3845 -0.2593 -0.0802
 3126ntf    cn119876   5.200   1.939   5.572 -0.2084  0.1174  0.4312
 3126ntf    sn219877   5.295   1.786   5.598  0.0124  0.1580 -0.1157
 3126ntf    nn319878   5.186   1.688   5.656  0.3572 -0.2098 -0.0844
 3126ntf    sn219879   5.185   1.604   5.788 -0.0333  0.1338  0.1362
 3126ntf    cn119880   5.156   1.724   5.921 -0.3424  0.1234  0.0795
 3126ntf    fn419881   5.152   1.993   5.682 -0.0994 -0.4376  0.7548
 3126ntf    fn419882   5.273   2.033   5.514 -0.1633 -0.4237 -0.4135
 3126ntf    fn419883   5.095   1.925   5.493  0.0634  0.3516  0.0278
 3126ntf    on519884   5.340   1.751   5.466  0.1904 -0.2547  0.0537
 3126ntf    on519885   5.392   1.814   5.701  0.0678  0.6281 -0.2971
 3126ntf    on519886   5.306   1.535   5.828 -0.0467  0.0536  0.0373
 3126ntf    on519887   5.068   1.519   5.792  0.1820 -0.1904 -0.3722
 3126ntf    fn419888   5.242   1.825   5.919 -0.0273 -0.1423  0.0888
 3126ntf    fn419889   5.034   1.774   5.925 -0.1988  0.4791  0.0137
 3126ntf    fn419890   5.170   1.668   6.041  0.7960 -0.0090 -0.0983
 3127ntf    cn119891   3.305   5.932   2.298 -0.1222 -0.0452  0.3725
 3127ntf    sn219892   3.486   5.943   2.311 -0.0977  0.2587 -0.1878
 3127ntf    nn319893   3.523   5.793   2.286 -0.1385  0.1955  0.1285
 3127ntf    sn219894   3.664   5.729   2.256 -0.2329 -0.0250  0.1563
 3127ntf    cn119895   3.680   5.612   2.395  0.0627 -0.1605  0.0078
 3127ntf    fn419896   3.258   5.889   2.182 -0.0841  0.5567  0.1280
 3127ntf    fn419897   3.252   5.849   2.386 -0.1120 -0.4174  0.0338
 3127ntf    fn419898   3.239   6.042   2.327 -0.1577  0.0600 -0.0915
 3127ntf    on519899   3.518   6.033   2.202 -0.3022 -0.4355 -0.8250
 3127ntf    on519900   3.499   5.987   2.448 -0.2669 -0.0779 -0.0638
 3127ntf    on519901   3.779   5.815   2.270  0.1627 -0.5664  0.2655
 3127ntf    on519902   3.663   5.644   2.140 -0.0952  0.1477  0.0278
 3127ntf    fn419903   3.794   5.545   2.389  0.1887  0.0834 -0.3405
 3127ntf    fn419904   3.683   5.688   2.503 -0.4772  0.3992 -0.3676
 3127ntf    fn419905   3.584   5.522   2.412  0.2565 -0.3897 -0.0991
 3128ntf    cn119906   4.633   3.450   1.348  0.1651 -0.0912  0.0069
 3128ntf    sn219907   4.561   3.496   1.187 -0.4357 -0.2344  0.2349
 3128ntf    nn319908   4.448   3.387   1.179 -0.5838 -0.0617 -0.0088
 3128ntf    sn219909   4.435   3.283   1.062  0.3629  0.0592 -0.2252
 3128ntf    cn119910   4.374   3.154   1.175  0.3397  0.1326 -0.1526
 3128ntf    fn419911   4.562   3.470   1.457 -0.3651  0.3153 -0.4105
 3128ntf    fn419912   4.692   3.331   1.354  0.0544 -0.1290  0.3169
 3128ntf    fn419913   4.738   3.528   1.369  0.0373  0.0300  0.1943
 3128ntf    on519914   4.502   3.621   1.229  0.5414  0.0869  0.6979
 3128ntf    on519915   4.672   3.484   1.096 -0.2796 -0.6132  0.4707
 3128ntf    on519916   4.559   3.222   1.021  0.7183  0.3637  0.3796
 3128ntf    on519917   4.334   3.310   0.963  0.1947  0.5596  0.0800
 3128ntf    fn419918   4.326   3.047   1.114 -0.0212  0.0826  0.2196
 3128ntf    fn419919   4.466   3.121   1.264  0.5151 -0.6134 -0.6018
 3128ntf    fn419920   4.269   3.192   1.246  0.3636 -0.4053  0.1788
 3129ntf    cn119921   5.061   3.682   6.213 -0.1835 -0.0152  0.0817
 3129ntf    sn219922   4.932   3.741   6.099 -0.0158  0.3841  0.0963
 3129ntf    nn319923   4.893   3.597   6.050  0.4937  0.3311 -0.1508
 3129ntf    sn219924   4.815   3.553   5.921 -0.0847  0.1639  0.2546
 3129ntf    cn119925   4.645   3.570   5.986 -0.1324  0.4329  0.0636
 3129ntf    fn419926   5.169   3.632   6.154  0.1282  0.4051  0.2912
 3129ntf    fn419927   5.104   3.786   6.282 -0.0097 -0.0783  0.0690
 3129ntf    fn419928   5.012   3.586   6.289 -0.0868 -0.4116 -0.3478
 3129ntf    on519929   4.854   3.803   6.203 -0.1093  0.1135  0.1899
 3129ntf    on519930   4.996   3.824   6.001  0.2136 -0.0325 -0.1110
 3129ntf    on519931   4.839   3.412   5.903  0.2918  0.2572  0.0200
 3129ntf    on519932   4.826   3.638   5.805 -0.1269 -0.2005 -0.0162
 3129ntf    fn419933   4.557   3.521   5.900 -0.2262 -0.0790  0.4525
 3129ntf    fn419934   4.633   3.518   6.107  0.0939  0.0024 -0.0961
 3129ntf    fn419935   4.619   3.699   5.995 -0.4710  0.4172 -0.6245
 3130ntf    cn119936   0.354   5.358   4.610 -0.1600 -0.0545 -0.0541
 3130ntf    sn219937   0.221   5.257   4.682 -0.0341 -0.0584  0.1739
 3130ntf    nn319938   0.108   5.366   4.676  0.0968  0.0767  0.1571
 3130ntf    sn219939   0.001   5.401   4.785 -0.2508  0.1848 -0.2162
 3130ntf    cn119940   0.075   5.558   4.839 -0.3785  0.2789 -0.3165
 3130ntf    fn419941   0.467   5.301   4.647  0.0029  0.1547 -0.2291
 3130ntf    fn419942   0.337   5.362   4.479  0.4304  0.2243 -0.1238
 3130ntf    fn419943   0.359   5.480   4.661  0.5927 -0.0813 -0.0616
 3130ntf    on519944   0.207   5.151   4.586  0.1807  0.2211 -0.1654
 3130ntf    on519945   0.263   5.218   4.815  0.5835 -0.1115 -0.0369
 3130ntf    on519946   0.012   5.331   4.910 -0.0999 -0.0321 -0.3522
 3130ntf    on519947  -0.132   5.430   4.736 -0.0846  0.5550 -0.4538
 3130ntf    fn419948   0.068   5.643   4.738  0.4568  0.1321 -0.5086
 3130ntf    fn419949   0.018   5.609   4.947  0.2212 -0.0680  0.1664
 3130ntf    fn419950   0.204   5.544   4.865 -0.4906 -0.3158 -0.0723
 3131ntf    cn119951   1.801   2.916   1.576  0.4246  0.0143  0.1353
 3131ntf    sn219952   1.872   2.778   1.481  0.1144  0.0336 -0.1289
 3131ntf    nn319953   1.792   2.801   1.348 -0.4781 -0.7580  0.0838
 3131ntf    sn219954   1.827   2.842   1.201  0.1098 -0.0821  0.4016
 3131ntf    cn119955   1.830   2.677   1.123  0.0570  0.2116 -0.2328
 3131ntf    fn419956   1.670   2.897   1.588  0.2932  0.7103 -0.1323
 3131ntf    fn419957   1.844   2.927   1.700 -0.0022  0.4078  0.2500
 3131ntf    fn419958   1.822   3.030   1.513 -0.6478  0.1014 -0.0872
 3131ntf    on519959   2.014   2.805   1.481  0.0695  0.3049  0.6016
 3131ntf    on519960   1.827   2.661   1.552 -0.3100  0.5162  0.4071
 3131ntf    on519961   1.959   2.894   1.177 -0.3511  1.0511  0.2980
 3131ntf    on519962   1.714   2.902   1.133  0.1228  0.3461  0.7557
 3131ntf    fn419963   1.726   2.603   1.158 -0.0398  0.3138 -0.3047
 3131ntf    fn419964   1.835   2.685   0.992  0.4081 -0.0788 -0.2369
 3131ntf    fn419965   1.933   2.605   1.163 -0.4574 -0.2584  0.2759
 3132ntf    cn119966   0.728   1.218   3.786 -0.4908 -0.6770 -0.2840
 3132ntf    sn219967   0.745   1.106   3.928 -0.0056 -0.0414  0.1672
 3132ntf    nn319968   0.767   1.200   4.052 -0.6279  0.0023  0.2489
 3132ntf    sn219969   0.848   1.187   4.186  0.0151  0.2054 -0.1155
 3132ntf    cn119970   0.873   1.361   4.232  0.0482  0.1354  0.1308
 3132ntf    fn419971   0.702   1.158   3.671 -0.7348 -0.0150 -0.5809
 3132ntf    fn419972   0.627   1.302   3.804 -0.0594 -0.1003 -0.5120
 3132ntf    fn419973   0.838   1.290   3.770 -0.5646 -0.4272  0.3243
 3132ntf    on519974   0.621   1.032   3.939  0.2889 -0.5558  0.0613
 3132ntf    on519975   0.864   1.030   3.897 -0.0226  0.2011 -0.5055
 3132ntf    on519976   0.979   1.130   4.171 -0.0663 -0.1499  0.5089
 3132ntf    on519977   0.759   1.123   4.279 -0.4645  0.0665 -0.6618
 3132ntf    fn419978   0.950   1.374   4.339  0.0917 -0.3613  0.1591
 3132ntf    fn419979   0.927   1.430   4.133  0.2261 -0.0106  0.1252
 3132ntf    fn419980   0.760   1.427   4.252  0.0909  0.0332  0.7248
 3133ntf    cn119981   1.898   3.615   4.743  0.7397 -0.1870  0.2645
 3133ntf    sn219982   1.825   3.466   4.817 -0.0119 -0.0256 -0.1413
 3133ntf    nn319983   1.747   3.433   4.685 -0.0538 -0.1355 -0.0893
 3133ntf    sn219984   1.594   3.447   4.651 -0.0640  0.1107  0.0573
 3133ntf    cn119985   1.523   3.280   4.658  0.0964  0.0418  0.0426
 3133ntf    fn419986   1.988   3.670   4.824  0.4419  0.0057  0.4655
 3133ntf    fn419987   1.959   3.590   4.628 -0.0367  0.2230 -0.2396
 3133ntf    fn419988   1.805   3.707   4.722  0.8025 -0.0897  0.4094
 3133ntf    on519989   1.932   3.371   4.834 -0.1816 -0.0477  0.8314
 3133ntf    on519990   1.751   3.512   4.932 -0.3826 -0.2278 -0.2971
 3133ntf    on519991   1.570   3.480   4.512  0.4674  0.9256  0.1535
 3133ntf    on519992   1.519   3.518   4.751  0.3459 -0.2233  0.6029
 3133ntf    fn419993   1.561   3.212   4.551  0.2178 -0.1973  0.2358
 3133ntf    fn419994   1.569   3.210   4.761 -0.0077  0.2629  0.2403
 3133ntf    fn419995   1.392   3.267   4.657  0.0539  0.4481  0.1923
 3134ntf    cn119996   6.000   2.650   6.859 -0.3521  0.4671  0.3191
 3134ntf    sn219997   5.911   2.652   6.701  0.1566 -0.0661  0.0225
 3134ntf    nn319998   5.813   2.534   6.730 -0.3698  0.2886 -0.2989
 3134ntf    sn219999   5.660   2.543   6.764 -0.2120  0.2609  0.4235
 3134ntf    cn120000   5.611   2.368   6.780 -0.0792  0.1536 -0.3075
 3134ntf    fn420001   5.913   2.662   6.958 -0.3750  0.7484  0.2666
 3134ntf    fn420002   6.061   2.533   6.868 -0.5763  0.2933 -0.3282
 3134ntf    fn420003   6.090   2.747   6.864 -0.2300  0.3823 -0.1569
 3134ntf    on520004   5.847   2.781   6.693  0.1498 -0.1152 -0.8275
 3134ntf    on520005   6.008   2.621   6.598  0.0429  0.5062 -0.2634
 3134ntf    on520006   5.574   2.587   6.657  0.1047 -0.1573 -0.0043
 3134ntf    on520007   5.627   2.581   6.899  0.1356  0.1879  0.5303
 3134ntf    fn420008   5.634   2.301   6.668 -0.2332  0.0410 -0.2719
 3134ntf    fn420009   5.686   2.308   6.872 -0.2624 -0.3896 -0.5085
 3134ntf    fn420010   5.486   2.341   6.813 -0.1307  0.5791 -0.1448
 3135ntf    cn120011   1.707   1.267   2.888 -0.1012 -0.0148 -0.2550
 3135ntf    sn220012   1.724   1.093   2.937  0.3184  0.1512  0.1933
 3135ntf    nn320013   1.577   1.039   2.927  0.2065  0.5334 -0.2519
 3135ntf    sn220014   1.457   1.084   2.837  0.0189  0.2593 -0.1418
 3135ntf    cn120015   1.342   0.947   2.868 -0.0756  0.3468 -0.1051
 3135ntf    fn420016   1.620   1.323   2.970  0.2641  0.0576  0.0861
 3135ntf    fn420017   1.819   1.338   2.887  0.1549 -0.4135 -0.1202
 3135ntf    fn420018   1.654   1.280   2.767 -0.1548 -0.1607 -0.2471
 3135ntf    on520019   1.815   1.034   2.842  0.4512  0.3065  0.2236
 3135ntf    on520020   1.779   1.098   3.070  0.0885 -0.3260  0.3108
 3135ntf    on520021   1.482   1.056   2.698 -0.4651 -0.1371 -0.1485
 3135ntf    on520022   1.387   1.204   2.875 -0.5406 -0.0435 -0.2104
 3135ntf    fn420023   1.224   0.971   2.812 -0.2014  0.5324  0.2334
 3135ntf    fn420024   1.371   0.826   2.824  0.0762  0.4439 -0.2777
 3135ntf    fn420025   1.323   0.923   2.996 -0.0930 -0.0829 -0.1859
 3136ntf    cn120026   2.126   4.815   4.141  0.2415 -0.2962 -0.3568
 3136ntf    sn220027   1.973   4.888   4.076  0.3090  0.1201 -0.0465
 3136ntf    nn320028   1.908   4.966   4.196 -0.1611  0.0855 -0.2741
 3136ntf    sn220029   1.955   5.112   4.227 -0.1919  0.0803 -0.2022
 3136ntf    cn120030   1.968   5.103   4.408  0.0423 -0.3786 -0.2424
 3136ntf    fn420031   2.176   4.732   4.050  0.0532 -0.2707 -0.4843
 3136ntf    fn420032   2.216   4.911   4.155  0.0996 -0.2944  0.6158
 3136ntf    fn420033   2.105   4.756   4.258 -0.7715  0.3578 -0.1970
 3136ntf    on520034   2.004   4.973   3.964 -0.5837  0.0307 -0.3701
 3136ntf    on520035   1.891   4.772   4.052 -0.3280  0.5799 -0.1092
 3136ntf    on520036   1.850   5.207   4.201 -0.4231 -0.1304 -0.0403
 3136ntf    on520037   2.093   5.144   4.198  0.1390 -0.2909  0.8922
 3136ntf    fn420038   2.054   5.009   4.446 -0.0312 -0.1669  0.4590
 3136ntf    fn420039   2.006   5.216   4.466 -0.1371 -0.1872 -0.5017
 3136ntf    fn420040   1.851   5.074   4.464 -0.0957  0.9154  0.1683
 3137ntf    cn120041   6.857   1.550   5.303 -0.0781  0.3405 -0.0252
 3137ntf    sn220042   6.723   1.649   5.230 -0.2521 -0.0934 -0.2947
 3137ntf    nn320043   6.813   1.749   5.150  0.1706 -0.1603  0.0959
 3137ntf    sn220044   6.871   1.746   5.004  0.4783 -0.0790  0.2152
 3137ntf    cn120045   6.756   1.855   4.914  0.4486 -0.1552  0.1615
 3137ntf    fn420046   6.937   1.507   5.207  0.1119  0.2660  0.1670
 3137ntf    fn420047   6.933   1.614   5.390  0.2188  0.0283 -0.0571
 3137ntf    fn420048   6.813   1.444   5.369  0.1865  0.2551  0.0139
 3137ntf    on520049   6.653   1.546   5.156  0.3111 -0.5420 -0.2065
 3137ntf    on520050   6.648   1.715   5.334  0.0604 -0.1515 -0.0325
 3137ntf    on520051   6.867   1.623   4.929  0.2816  0.0769 -0.0349
 3137ntf    on520052   6.995   1.819   4.999  0.6060 -0.2587  0.6948
 3137ntf    fn420053   6.765   1.979   4.958  0.5794 -0.2600  0.4312
 3137ntf    fn420054   6.753   1.851   4.782 -0.2114 -0.4055  0.1806
 3137ntf    fn420055   6.631   1.822   4.942  0.4400  0.3198  0.7182
 3138ntf    cn120056   5.596   4.226   5.973  0.2486  0.3058 -0.1870
 3138ntf    sn220057   5.427   4.277   5.928  0.1492 -0.1041 -0.2867
 3138ntf    nn320058   5.413   4.204   5.790  0.4544 -0.2042 -0.2642
 3138ntf    sn220059   5.400   4.272   5.649  0.1807  0.1801 -0.0530
 3138ntf    cn120060   5.429   4.132   5.537 -0.4503 -0.1196  0.1485
 3138ntf    fn420061   5.636   4.261   6.094  0.0986 -0.0790 -0.0248
 3138ntf    fn420062   5.613   4.095   5.984 -0.2294  0.2854  0.3696
 3138ntf    fn420063   5.682   4.282   5.889  0.0955  0.4519 -0.2478
 3138ntf    on520064   5.329   4.230   6.023 -0.5110  0.6925 -0.5573
 3138ntf    on520065   5.444   4.420   5.917 -0.6543  0.0899  0.8529
 3138ntf    on520066   5.497   4.373   5.613 -0.8059  1.0752 -0.2701
 3138ntf    on520067   5.261   4.299   5.621  0.2410  0.7022  0.1287
 3138ntf    fn420068   5.433   4.162   5.408 -0.1024 -0.1288  0.1545
 3138ntf    fn420069   5.543   4.071   5.567 -0.1884  0.3631  0.1585
 3138ntf    fn420070   5.333   4.043   5.546 -0.0517 -0.5713 -0.0215
 3139ntf    cn120071   6.658   5.621   2.600 -0.0959  0.1034  0.3019
 3139ntf    sn220072   6.521   5.739   2.620 -0.3004 -0.0850  0.0161
 3139ntf    nn320073   6.395   5.654   2.580 -0.2849 -0.3158  0.4495
 3139ntf    sn220074   6.333   5.631   2.437  0.0351 -0.4490  0.3303
 3139ntf    cn120075   6.227   5.778   2.424 -0.4805 -0.8396  0.1107
 3139ntf    fn420076   6.677   5.581   2.475  0.0232  0.0594  0.3334
 3139ntf    fn420077   6.776   5.670   2.635  0.0174  0.1869 -0.1890
 3139ntf    fn420078   6.630   5.514   2.672 -0.2165  0.2776  0.5150
 3139ntf    on520079   6.524   5.755   2.763 -0.8175  0.6589 -0.0535
 3139ntf    on520080   6.557   5.853   2.539  0.2964 -0.2428  0.0572
 3139ntf    on520081   6.249   5.515   2.437  0.6475 -0.9018 -0.1612
 3139ntf    on520082   6.424   5.645   2.325 -0.3883  0.1764  0.0593
 3139ntf    fn420083   6.139   5.769   2.326 -0.2600  0.1249 -0.1903
 3139ntf    fn420084   6.154   5.799   2.533  0.1901  0.2653  0.3727
 3139ntf    fn420085   6.288   5.894   2.407 -0.1913 -1.0169 -0.0570
 3140ntf    cn120086   6.217   0.853   3.267  0.2892 -0.3047 -0.4564
 3140ntf    sn220087   6.306   0.800   3.416  0.1491  0.1675 -0.2010
 3140ntf    nn320088   6.250   0.654   3.430  0.3810  0.1374  0.4588
 3140ntf    sn220089   6.313   0.515   3.396 -0.4178 -0.0774 -0.1799
 3140ntf    cn120090   6.325   0.425   3.554 -0.0285 -0.0502 -0.1919
 3140ntf    fn420091   6.245   0.977   3.234  0.0057 -0.0743  0.1407
 3140ntf    fn420092   6.246   0.782   3.160 -0.2305 -0.4515 -0.5039
 3140ntf    fn420093   6.087   0.850   3.295  0.4870 -0.3828  0.5039
 3140ntf    on520094   6.445   0.807   3.376  0.2212  0.5760  0.1135
 3140ntf    on520095   6.267   0.883   3.527 -0.1700  0.1991 -0.3383
 3140ntf    on520096   6.454   0.516   3.362 -0.3536  0.4014  0.1000
 3140ntf    on520097   6.223   0.432   3.320 -0.1695 -0.7692  0.2701
 3140ntf    fn420098   6.372   0.501   3.651 -0.9974 -0.1621  0.3732
 3140ntf    fn420099   6.207   0.378   3.592 -0.3023  0.8004  0.0334
 3140ntf    fn420100   6.400   0.316   3.549  0.0757  0.0145 -0.0283
 3141ntf    cn120101   5.872   3.929   4.817  0.5027 -0.2169  0.1213
 3141ntf    sn220102   5.700   3.871   4.822  0.3262  0.2737 -0.2402
 3141ntf    nn320103   5.661   3.910   4.969  0.2118  0.1840 -0.2461
 3141ntf    sn220104   5.553   3.851   5.066  0.3636 -0.1671 -0.2902
 3141ntf    cn120105   5.661   3.732   5.153  0.0502 -0.1825  0.0809
 3141ntf    fn420106   5.904   3.931   4.689 -0.1006  0.5507 -0.0212
 3141ntf    fn420107   5.888   4.054   4.857 -0.2315 -0.2433  0.5101
 3141ntf    fn420108   5.964   3.857   4.880  0.4222 -0.3994  0.0312
 3141ntf    on520109   5.635   3.957   4.726  0.1310 -0.6577 -0.9573
 3141ntf    on520110   5.705   3.731   4.787 -0.1245  0.1514  0.1660
 3141ntf    on520111   5.446   3.778   5.002  0.2677 -0.1781 -0.1201
 3141ntf    on520112   5.510   3.941   5.170  0.3053  0.4324 -0.8289
 3141ntf    fn420113   5.788   3.764   5.168  0.1161 -0.2501 -0.3212
 3141ntf    fn420114   5.615   3.695   5.272 -0.1501 -0.2682 -0.0230
 3141ntf    fn420115   5.667   3.618   5.087 -0.1944  0.1101 -0.4534
 3142ntf    cn120116   5.719   3.383   3.873 -0.3282 -0.1397 -0.1487
 3142ntf    sn220117   5.784   3.244   3.776  0.2678  0.1673 -0.1934
 3142ntf    nn320118   5.663   3.145   3.785  0.1831  0.2462 -0.4694
 3142ntf    sn220119   5.654   2.989   3.767 -0.1472  0.2202 -0.0950
 3142ntf    cn120120   5.573   2.975   3.605 -0.2917  0.1836 -0.0194
 3142ntf    fn420121   5.812   3.476   3.886 -0.2723 -0.2267  0.0937
 3142ntf    fn420122   5.621   3.451   3.816 -0.7812 -0.3962  0.3148
 3142ntf    fn420123   5.678   3.353   3.995  0.5829  0.3547  0.2934
 3142ntf    on520124   5.799   3.302   3.645 -0.2364  0.1982 -0.2388
 3142ntf    on520125   5.904   3.198   3.842  0.1697 -0.3148 -0.3472
 3142ntf    on520126   5.550   2.918   3.836  0.3157 -0.5652 -0.1964
 3142ntf    on520127   5.774   2.912   3.746 -0.3459 -0.2662  0.5394
 3142ntf    fn420128   5.566   2.850   3.564  0.0015  0.1315  0.0935
 3142ntf    fn420129   5.449   3.022   3.613 -0.1869  0.3748  0.5167
 3142ntf    fn420130   5.640   3.035   3.508 -0.1764  0.0569 -0.0182
 3143ntf    cn120131   5.870   2.360   4.420 -0.1394  0.2168 -0.1490
 3143ntf    sn220132   5.712   2.404   4.499 -0.1472 -0.3110  0.1308
 3143ntf    nn320133   5.773   2.412   4.643  0.2706  0.0361 -0.0636
 3143ntf    sn220134   5.794   2.293   4.743  0.2900  0.0733 -0.0238
 3143ntf    cn120135   5.681   2.339   4.877 -0.0628 -0.3556 -0.1735
 3143ntf    fn420136   5.962   2.453   4.438  0.3361 -0.3756  0.5094
 3143ntf    fn420137   5.923   2.245   4.456 -0.3466  0.0799 -0.2784
 3143ntf    fn420138   5.848   2.349   4.290  0.1240  0.2204 -0.1933
 3143ntf    on520139   5.670   2.531   4.446  0.2112  0.0997  0.8241
 3143ntf    on520140   5.623   2.292   4.476 -0.1959 -0.2011 -0.2205
 3143ntf    on520141   5.923   2.294   4.808  0.5313 -0.3721 -0.4917
 3143ntf    on520142   5.745   2.165   4.699  0.6176 -0.2882  0.6399
 3143ntf    fn420143   5.699   2.467   4.907  0.2445 -0.4490  0.0487
 3143ntf    fn420144   5.555   2.318   4.843 -0.1004  0.2081 -0.3952
 3143ntf    fn420145   5.708   2.260   4.979  0.4591  0.0952  0.0407
 3144ntf    cn120146   0.743   5.949   4.217  0.1967  0.1660 -0.1024
 3144ntf    sn220147   0.641   6.024   4.087  0.0919 -0.0858 -0.1657
 3144ntf    nn320148   0.739   6.126   4.021 -0.1042  0.2383  0.0442
 3144ntf    sn220149   0.833   6.115   3.895  0.0726  0.2947  0.1697
 3144ntf    cn120150   0.714   6.150   3.762  0.3761  0.1431 -0.1438
 3144ntf    fn420151   0.761   6.035   4.315 -0.0969  0.3630 -0.2194
 3144ntf    fn420152   0.678   5.847   4.271 -0.3703  0.3019 -0.5127
 3144ntf    fn420153   0.860   5.898   4.181  0.4410  0.3007  0.4909
 3144ntf    on520154   0.594   5.916   4.004 -0.3519 -0.6796  0.8398
 3144ntf    on520155   0.540   6.094   4.162 -0.6173 -0.8263 -0.4069
 3144ntf    on520156   0.895   5.986   3.873  0.1326  0.3015  0.2966
 3144ntf    on520157   0.926   6.225   3.889  0.4996 -0.0864 -0.2904
 3144ntf    fn420158   0.630   6.047   3.754  0.2815  0.2278 -0.2460
 3144ntf    fn420159   0.636   6.253   3.791 -0.4469 -0.4724 -0.1067
 3144ntf    fn420160   0.763   6.149   3.639 -0.3955 -0.5060 -0.4582
 3145ntf    cn120161   6.714   3.475   1.902 -0.3377  0.4694 -0.2611
 3145ntf    sn220162   6.887   3.506   1.854 -0.2187  0.1641 -0.0302
 3145ntf    nn320163   6.957   3.374   1.904 -0.1971  0.2419  0.1449
 3145ntf    sn220164   7.076   3.293   1.842 -0.4404  0.0603 -0.0890
 3145ntf    cn120165   7.033   3.121   1.880  0.2835 -0.0057  0.4663
 3145ntf    fn420166   6.698   3.454   2.031 -0.1219 -0.0787 -0.3223
 3145ntf    fn420167   6.642   3.582   1.872 -0.4465  0.5800  0.3872
 3145ntf    fn420168   6.651   3.374   1.845  0.2932  0.1757 -0.4433
 3145ntf    on520169   6.876   3.516   1.711 -0.0458 -0.2550 -0.0742
 3145ntf    on520170   6.929   3.618   1.934 -0.2035 -0.1940  0.4712
 3145ntf    on520171   7.202   3.304   1.912 -0.6467  0.2707  0.2517
 3145ntf    on520172   7.084   3.286   1.698  0.2258 -0.0638 -0.0518
 3145ntf    fn420173   6.904   3.090   1.874  0.3053 -0.0491  0.1836
 3145ntf    fn420174   7.087   3.036   1.794  0.6050  0.4546  0.2100
 3145ntf    fn420175   7.078   3.095   2.001 -0.2133 -0.2973  0.5918
 3146ntf    cn120176   0.987   6.528   2.764  0.1302  0.0642 -0.2123
 3146ntf    sn220177   0.915   6.464   2.918  0.0443  0.2404 -0.1795
 3146ntf    nn320178   0.820   6.579   2.967  0.1263  0.1961  0.0875
 3146ntf    sn220179   0.666   6.602   2.947  0.1403  0.2288  0.0166
 3146ntf    cn120180   0.617   6.567   3.118 -0.2889  0.1991 -0.1105
 3146ntf    fn420181   1.030   6.649   2.796 -0.1378  0.0478  0.2146
 3146ntf    fn420182   1.086   6.454   2.716 -0.2314  0.1279 -1.0757
 3146ntf    fn420183   0.894   6.552   2.673  0.2647  0.0349 -0.3585
 3146ntf    on520184   0.855   6.340   2.876  0.2699  0.1458 -0.2207
 3146ntf    on520185   1.029   6.460   3.006 -0.1709 -1.0486  0.0548
 3146ntf    on520186   0.587   6.511   2.868 -0.1219  0.2425  0.2605
 3146ntf    on520187   0.640   6.744   2.933 -0.5395  0.1332  0.2559
 3146ntf    fn420188   0.680   6.462   3.169  0.1445  0.6244  0.2384
 3146ntf    fn420189   0.646   6.671   3.194 -0.2523 -0.1241  0.3224
 3146ntf    fn420190   0.489   6.541   3.138 -0.2186 -0.3794 -0.3937
 3147ntf    cn120191   6.816   0.807   4.206  0.1833 -0.0922 -0.0968
 3147ntf    sn220192   6.829   0.950   4.317 -0.1122 -0.2040  0.0829
 3147ntf    nn320193   6.853   1.059   4.206 -0.4151 -0.1951  0.0251
 3147ntf    sn220194   6.756   1.099   4.090 -0.4872  0.2118  0.2205
 3147ntf    cn120195   6.742   1.277   4.123  0.4366  0.2873  0.2151
 3147ntf    fn420196   6.815   0.687   4.263  0.3921 -0.2232 -0.3664
 3147ntf    fn420197   6.715   0.814   4.120 -0.0968  0.4788  0.2758
 3147ntf    fn420198   6.925   0.799   4.131 -0.0404  0.6998 -0.5205
 3147ntf    on520199   6.700   0.971   4.379 -0.3939  0.3340 -0.6718
 3147ntf    on520200   6.943   0.930   4.402 -0.1454  0.0809  0.1969
 3147ntf    on520201   6.621   1.047   4.101 -0.0703 -1.0069 -0.1765
 3147ntf    on520202   6.818   1.090   3.960 -0.3873  0.3538  0.2595
 3147ntf    fn420203   6.687   1.337   4.019  0.3772 -0.2837 -0.0913
 3147ntf    fn420204   6.660   1.303   4.224  0.1171  0.5049 -0.0997
 3147ntf    fn420205   6.859   1.335   4.144  0.3965  0.5728 -0.3302
 3148ntf    cn120206   3.124   4.961   3.777 -0.0200 -0.2051  0.5300
 3148ntf    sn220207   3.176   5.083   3.902 -0.1566  0.1958  0.1972
 3148ntf    nn320208   3.328   5.105   3.867 -0.1830 -0.2273 -0.1884
 3148ntf    sn220209   3.420   5.228   3.897 -0.3511 -0.1618  0.0579
 3148ntf    cn120210   3.525   5.165   4.032 -0.3100 -0.1206  0.0446
 3148ntf    fn420211   3.210   4.864   3.753  0.5372  0.5866 -0.7923
 3148ntf    fn420212   3.006   4.908   3.804  0.1733 -0.7045  0.3902
 3148ntf    fn420213   3.099   5.026   3.665 -0.0564 -0.1742  0.5561
 3148ntf    on520214   3.087   5.196   3.892  0.1291  0.4392  0.3730
 3148ntf    on520215   3.165   5.007   4.024 -0.3677 -0.6301 -0.3315
 3148ntf    on520216   3.357   5.344   3.956  0.0270 -0.0777  0.3002
 3148ntf    on520217   3.512   5.261   3.792 -0.6905 -0.0558 -0.2073
 3148ntf    fn420218   3.454   5.134   4.139 -0.3887 -0.5382 -0.1250
 3148ntf    fn420219   3.605   5.065   4.000 -0.1294  0.0609 -0.0778
 3148ntf    fn420220   3.610   5.263   4.060  0.2623 -0.4383 -0.5608
 3149ntf    cn120221   0.105   0.049   3.173 -0.5166  0.1358 -0.2769
 3149ntf    sn220222   0.115   0.207   3.261 -0.1729  0.0114 -0.0886
 3149ntf    nn320223  -0.027   0.218   3.327  0.1370  0.9224  0.4426
 3149ntf    sn220224  -0.079   0.186   3.472 -0.1550 -0.2689  0.0895
 3149ntf    cn120225  -0.040   0.343   3.556  0.1356 -0.4738  0.3436
 3149ntf    fn420226   0.010   0.057   3.081 -0.5659  0.0984 -0.2292
 3149ntf    fn420227   0.219   0.030   3.108 -0.2482 -0.1195  0.2632
 3149ntf    fn420228   0.072  -0.054   3.249 -0.0355  0.3480  0.2273
 3149ntf    on520229   0.222   0.180   3.353 -0.7646  0.0258  0.6144
 3149ntf    on520230   0.135   0.301   3.153 -0.2917 -0.1289 -0.2336
 3149ntf    on520231  -0.018   0.082   3.551 -0.1276 -0.2446  0.1010
 3149ntf    on520232  -0.222   0.192   3.483 -0.1185  0.1058  0.3936
 3149ntf    fn420233  -0.095   0.449   3.497  0.1065 -0.1902  0.8757
 3149ntf    fn420234  -0.083   0.342   3.681  0.2363 -0.1254  0.3822
 3149ntf    fn420235   0.089   0.370   3.565  0.1756 -0.4755 -0.1805
 3150ntf    cn120236   0.389   3.637   3.009 -0.1272  0.2606 -0.2931
 3150ntf    sn220237   0.351   3.727   3.162 -0.3283 -0.0107 -0.1820
 3150ntf    nn320238   0.291   3.853   3.091 -0.2056 -0.1262 -0.4927
 3150ntf    sn220239   0.172   3.944   3.139  0.0649  0.0397 -0.1352
 3150ntf    cn120240   0.185   3.955   3.320  0.3669 -0.1003 -0.1479
 3150ntf    fn420241   0.294   3.659   2.919 -0.5047  0.1032  0.0651
 3150ntf    fn420242   0.502   3.676   2.952  0.2636  0.1214  0.3706
 3150ntf    fn420243   0.401   3.506   3.027  0.2014  0.3723  0.3297
 3150ntf    on520244   0.253   3.647   3.230  0.3602 -0.1131  0.7099
 3150ntf    on520245   0.480   3.747   3.225 -0.2951  0.1320 -0.2950
 3150ntf    on520246   0.041   3.884   3.130  0.0736  0.0347 -0.2244
 3150ntf    on520247   0.194   4.078   3.092 -0.5601  0.4463  0.6987
 3150ntf    fn420248   0.101   4.044   3.369  0.5985  0.2855 -0.4460
 3150ntf    fn420249   0.156   3.841   3.381 -0.7066 -0.1189 -0.6772
 3150ntf    fn420250   0.307   3.986   3.361  0.3148 -0.1572  0.0541
 3151ntf    cn120251   2.890   2.702   2.754 -0.3575  0.1603  0.0704
 3151ntf    sn220252   2.984   2.573   2.841 -0.3231 -0.0386 -0.2627
 3151ntf    nn320253   3.102   2.656   2.902 -0.0385 -0.1947 -0.5918
 3151ntf    sn220254   3.198   2.605   3.015 -0.2903  0.1809 -0.1993
 3151ntf    cn120255   3.329   2.551   2.900 -0.4408  0.3893 -0.4673
 3151ntf    fn420256   2.850   2.795   2.840  0.1493  0.1349  0.3402
 3151ntf    fn420257   2.965   2.766   2.665 -0.5583  0.5927  0.2081
 3151ntf    fn420258   2.784   2.665   2.684 -0.2453  0.1138 -0.0747
 3151ntf    on520259   2.886   2.513   2.928  0.3139 -0.5999  0.0797
 3151ntf    on520260   3.035   2.499   2.728 -0.1237  0.3845 -0.4528
 3151ntf    on520261   3.158   2.481   3.076  0.2035  0.0823 -0.0682
 3151ntf    on520262   3.255   2.711   3.094 -0.5486  0.0829  0.1165
 3151ntf    fn420263   3.295   2.454   2.816  0.1429 -0.1833 -0.0462
 3151ntf    fn420264   3.376   2.644   2.818  0.1965 -0.2354 -0.8173
 3151ntf    fn420265   3.435   2.497   2.956 -0.5014  0.1492 -0.5845
 3152ntf    cn120266   3.533   5.679   5.326 -0.1955  0.0956  0.3057
 3152ntf    sn220267   3.494   5.680   5.149 -0.0736  0.0276  0.2783
 3152ntf    nn320268   3.417   5.544   5.132 -0.1394  0.1594 -0.5497
 3152ntf    sn220269   3.473   5.404   5.092  0.1134  0.1657 -0.2215
 3152ntf    cn120270   3.501   5.419   4.913  0.2716  0.3293 -0.1838
 3152ntf    fn420271   3.621   5.772   5.359  0.5049 -0.3028 -0.4071
 3152ntf    fn420272   3.420   5.692   5.395 -0.4277  0.2159 -0.0941
 3152ntf    fn420273   3.591   5.563   5.353  0.0317  0.1904  0.2300
 3152ntf    on520274   3.416   5.799   5.128 -0.4491 -0.1089  0.8976
 3152ntf    on520275   3.623   5.680   5.084 -0.4705 -0.3587 -0.5327
 3152ntf    on520276   3.371   5.304   5.107 -0.2888  0.5821 -0.1868
 3152ntf    on520277   3.601   5.370   5.150 -0.1216 -0.1183  0.1331
 3152ntf    fn420278   3.481   5.304   4.850  0.1930  0.2027  0.0716
 3152ntf    fn420279   3.421   5.506   4.854  0.0165  0.4917  0.3998
 3152ntf    fn420280   3.627   5.452   4.894  0.4705 -0.2903  0.0191
 3153ntf    cn120281   0.646   0.100   5.754  0.2374  0.1727 -0.1156
 3153ntf    sn220282   0.646   0.267   5.683 -0.1018  0.3275  0.2455
 3153ntf    nn320283   0.507   0.279   5.613  0.0496  0.1304 -0.0897
 3153ntf    sn220284   0.449   0.195   5.493  0.0625  0.0342 -0.0291
 3153ntf    cn120285   0.450   0.302   5.346  0.4028 -0.0913 -0.1188
 3153ntf    fn420286   0.537   0.069   5.822  0.0731 -0.2224 -0.5539
 3153ntf    fn420287   0.671   0.004   5.667  0.1249  0.0099  0.0297
 3153ntf    fn420288   0.744   0.079   5.841  0.2309  0.4463 -0.0433
 3153ntf    on520289   0.657   0.361   5.792  0.1472 -0.3909  0.8554
 3153ntf    on520290   0.757   0.262   5.592 -0.3047  0.4661 -0.0095
 3153ntf    on520291   0.308   0.169   5.511  0.1634  0.2376  1.1446
 3153ntf    on520292   0.532   0.086   5.450  0.3522  0.1107  0.3323
 3153ntf    fn420293   0.430   0.233   5.235  0.2723  0.3298 -0.3606
 3153ntf    fn420294   0.353   0.393   5.353  0.3267 -0.1689 -0.1661
 3153ntf    fn420295   0.559   0.375   5.332  0.0260  0.5134  0.0245
 3154ntf    cn120296   6.186   2.828   2.201  0.0687  0.1266  0.0767
 3154ntf    sn220297   6.114   2.732   2.338  0.1757 -0.2886 -0.1559
 3154ntf    nn320298   5.964   2.779   2.328  0.2030 -0.1905 -0.1106
 3154ntf    sn220299   5.844   2.678   2.324  0.0717 -0.0380 -0.0550
 3154ntf    cn120300   5.708   2.791   2.285 -0.1201 -0.2378  0.0323
 3154ntf    fn420301   6.318   2.826   2.191  0.0486  0.1839 -0.2078
 3154ntf    fn420302   6.131   2.801   2.084  0.3244  0.6902 -0.1780
 3154ntf    fn420303   6.173   2.959   2.214  0.0926  0.1854 -0.4578
 3154ntf    on520304   6.150   2.599   2.297 -0.3286 -0.4520 -0.0816
 3154ntf    on520305   6.178   2.782   2.457 -0.1809  0.0896 -0.1199
 3154ntf    on520306   5.805   2.625   2.453  0.2152 -0.4678 -0.1860
 3154ntf    on520307   5.841   2.588   2.212  0.6000 -0.3468  0.1748
 3154ntf    fn420308   5.587   2.736   2.286 -0.3584  0.2748 -0.1561
 3154ntf    fn420309   5.700   2.896   2.366 -0.2121  0.0130 -0.3017
 3154ntf    fn420310   5.719   2.845   2.165  0.0320 -0.1829  0.0716
 3155ntf    cn120311   4.743   4.768   3.842 -0.8470 -0.0347 -0.2464
 3155ntf    sn220312   4.723   4.644   3.974 -0.0867 -0.2410 -0.3226
 3155ntf    nn320313   4.679   4.733   4.096 -0.2113  0.2354 -0.7095
 3155ntf    sn220314   4.538   4.736   4.164  0.0063 -0.1374 -0.2373
 3155ntf    cn120315   4.586   4.817   4.320  0.3567  0.0527 -0.4425
 3155ntf    fn420316   4.840   4.852   3.871 -0.4679 -0.3888 -0.4701
 3155ntf    fn420317   4.783   4.723   3.724  0.3085 -0.1930  0.1940
 3155ntf    fn420318   4.639   4.844   3.812 -0.2040  0.8301 -0.2908
 3155ntf    on520319   4.628   4.550   3.919 -0.4252  0.4050 -0.8624
 3155ntf    on520320   4.860   4.602   3.993 -0.0596 -0.0261 -0.0405
 3155ntf    on520321   4.497   4.606   4.213  0.2298 -0.1771 -0.1529
 3155ntf    on520322   4.431   4.811   4.105  0.1307  0.3318  0.1292
 3155ntf    fn420323   4.495   4.808   4.415  0.6176  0.6033 -0.1378
 3155ntf    fn420324   4.690   4.755   4.374 -0.2059 -0.1687  0.4033
 3155ntf    fn420325   4.616   4.943   4.292  0.4026  0.1102 -0.1400
 3156ntf    cn120326   2.550   0.436   0.841  0.0335 -0.3029  0.1823
 3156ntf    sn220327   2.410   0.396   0.732  0.1060  0.2931 -0.1354
 3156ntf    nn320328   2.303   0.505   0.769  0.3227  0.6143 -0.4426
 3156ntf    sn220329   2.196   0.497   0.884  0.5283 -0.0698 -0.2929
 3156ntf    cn120330   2.154   0.672   0.907  0.2388 -0.1786  0.0165
 3156ntf    fn420331   2.513   0.472   0.963  0.2296  0.3209  0.0636
 3156ntf    fn420332   2.632   0.333   0.846  0.1194 -0.2387  0.1101
 3156ntf    fn420333   2.620   0.540   0.799  0.0508 -0.1627  0.5529
 3156ntf    on520334   2.473   0.425   0.605  0.1823  0.0891 -0.1447
 3156ntf    on520335   2.374   0.259   0.757 -0.1912  0.3139 -0.4316
 3156ntf    on520336   2.244   0.447   1.010 -0.5961 -0.0809  0.1375
 3156ntf    on520337   2.076   0.434   0.835  0.5755 -0.3203 -0.0900
 3156ntf    fn420338   2.103   0.726   0.797 -0.0756  0.3149  0.3973
 3156ntf    fn420339   2.062   0.694   0.999  0.0362 -0.2910 -0.1591
 3156ntf    fn420340   2.260   0.749   0.929  0.0393  0.2655 -0.5451
 3157ntf    cn120341   6.174   2.920   0.955  0.0841 -0.0293  0.0252
 3157ntf    sn220342   6.220   2.872   1.124  0.0255  0.2627  0.1249
 3157ntf    nn320343   6.360   2.807   1.094 -0.3714 -0.3161 -0.5166
 3157ntf    sn220344   6.398   2.657   1.073 -0.1720 -0.2765 -0.4402
 3157ntf    cn120345   6.578   2.662   1.101 -0.2151  0.1728 -0.2370
 3157ntf    fn420346   6.059   2.985   0.952  0.0491 -0.0475  0.7910
 3157ntf    fn420347   6.265   2.997   0.899  0.1990 -0.1424  0.0549
 3157ntf    fn420348   6.154   2.815   0.877  0.7419 -0.1644  0.0340
 3157ntf    on520349   6.223   2.995   1.199  0.4640  0.0303  0.4951
 3157ntf    on520350   6.123   2.773   1.164  0.1903 -0.3056 -0.8605
 3157ntf    on520351   6.382   2.616   0.936 -0.3595 -0.1032 -0.4687
 3157ntf    on520352   6.366   2.560   1.175  0.6465  0.2400  0.3211
 3157ntf    fn420353   6.644   2.547   1.103  0.1531  0.3811 -0.2717
 3157ntf    fn420354   6.628   2.733   1.000  0.0338  0.1580 -0.1247
 3157ntf    fn420355   6.615   2.718   1.215  0.5442  0.0449 -0.4156
 3158ntf    cn120356   1.173   2.281   2.473 -0.1473  0.1839  0.1549
 3158ntf    sn220357   1.236   2.203   2.625 -0.2097 -0.3187 -0.0739
 3158ntf    nn320358   1.161   2.294   2.729 -0.0650  0.3443 -0.5411
 3158ntf    sn220359   1.216   2.402   2.829 -0.1699  0.1161 -0.2320
 3158ntf    cn120360   1.063   2.422   2.925 -0.1263 -0.2955 -0.0785
 3158ntf    fn420361   1.044   2.270   2.447 -0.0624  0.3268 -0.3211
 3158ntf    fn420362   1.200   2.410   2.472  0.9879 -0.0492 -0.4079
 3158ntf    fn420363   1.226   2.225   2.366 -0.1999  0.5257 -0.0480
 3158ntf    on520364   1.183   2.069   2.615 -0.1011 -0.4177  0.6286
 3158ntf    on520365   1.378   2.221   2.612 -0.2465 -0.3209 -0.4853
 3158ntf    on520366   1.233   2.534   2.773 -0.4312  0.2119 -0.0848
 3158ntf    on520367   1.308   2.358   2.930 -0.0485 -0.0856 -0.4293
 3158ntf    fn420368   1.017   2.308   2.974 -0.0492 -0.3953 -0.2385
 3158ntf    fn420369   1.079   2.506   3.026 -0.3007  0.3116 -0.5564
 3158ntf    fn420370   0.962   2.476   2.859 -0.2980  0.2958  0.6588
 3159ntf    cn120371   4.072   0.112   3.804 -0.5922 -0.1255  0.2885
 3159ntf    sn220372   4.036   0.259   3.702  0.0351 -0.0783  0.1353
 3159ntf    nn320373   4.185   0.303   3.677  0.0325 -0.3291 -0.3342
 3159ntf    sn220374   4.258   0.413   3.762 -0.2607 -0.2025 -0.2460
 3159ntf    cn120375   4.208   0.571   3.687 -0.1699 -0.1539 -0.2036
 3159ntf    fn420376   4.168   0.129   3.893 -0.4589  0.3087  0.0621
 3159ntf    fn420377   3.964   0.069   3.867 -0.2668 -0.1380  0.8433
 3159ntf    fn420378   4.108   0.008   3.730 -0.2170 -0.2488  0.6437
 3159ntf    on520379   3.971   0.193   3.592 -0.1008  0.8386 -0.3432
 3159ntf    on520380   3.959   0.345   3.788  0.1962  0.2755 -0.0729
 3159ntf    on520381   4.398   0.397   3.730 -0.2281  0.0772 -0.2484
 3159ntf    on520382   4.219   0.423   3.900 -0.2981 -0.1292 -0.2617
 3159ntf    fn420383   4.239   0.577   3.558  0.1355 -0.1773 -0.1316
 3159ntf    fn420384   4.077   0.587   3.694 -0.1659 -0.3486  0.3857
 3159ntf    fn420385   4.269   0.666   3.756 -0.3263 -0.3379  0.1877
 3160ntf    cn120386   1.039   2.717   5.326 -0.0133 -0.2913  0.0711
 3160ntf    sn220387   1.037   2.813   5.480 -0.0503 -0.3019  0.0765
 3160ntf    nn320388   1.176   2.887   5.472 -0.4791  0.5603  0.4640
 3160ntf    sn220389   1.196   3.029   5.408 -0.0592  0.3082  0.0288
 3160ntf    cn120390   1.173   3.137   5.552 -0.1606  0.2217  0.0780
 3160ntf    fn420391   0.928   2.646   5.323 -0.4989  0.4403  0.4800
 3160ntf    fn420392   1.044   2.788   5.214 -0.2455  0.4384  0.5166
 3160ntf    fn420393   1.141   2.632   5.322  0.4435  0.2449  0.2332
 3160ntf    on520394   0.915   2.890   5.480  0.1809  0.0653 -0.0096
 3160ntf    on520395   1.042   2.707   5.578  0.3025 -0.2332  0.1319
 3160ntf    on520396   1.092   3.074   5.319  0.5123  0.3812 -0.6039
 3160ntf    on520397   1.331   3.051   5.363 -0.1414 -0.1030 -0.4299
 3160ntf    fn420398   1.185   3.265   5.520  0.2715  0.1585 -0.0132
 3160ntf    fn420399   1.052   3.130   5.606 -0.2710 -0.1723 -0.2199
 3160ntf    fn420400   1.262   3.125   5.649  0.0257  0.0226 -0.1197
 3161ntf    cn120401   5.685   4.295   2.970  0.4175 -0.2042 -0.0477
 3161ntf    sn220402   5.788   4.440   3.010 -0.4188  0.3357  0.1674
 3161ntf    nn320403   5.761   4.511   2.873  0.9133  0.4232 -0.0569
 3161ntf    sn220404   5.712   4.657   2.842  0.2901  0.2055 -0.1086
 3161ntf    cn120405   5.533   4.632   2.854  0.2825  0.3746  0.1678
 3161ntf    fn420406   5.561   4.317   2.932  0.3532 -0.1180  0.2122
 3161ntf    fn420407   5.734   4.219   2.873 -0.3089  0.5782 -1.0508
 3161ntf    fn420408   5.666   4.218   3.076  0.3129  0.0425  0.1135
 3161ntf    on520409   5.732   4.503   3.127 -0.6754  0.3546  0.0362
 3161ntf    on520410   5.922   4.390   3.024 -0.4294  0.3128  0.1867
 3161ntf    on520411   5.723   4.686   2.702 -0.2483  0.1793 -0.1553
 3161ntf    on520412   5.740   4.761   2.938 -0.0548  0.6525 -0.4876
 3161ntf    fn420413   5.493   4.538   2.768  0.3306  0.2150  0.3194
 3161ntf    fn420414   5.500   4.587   2.974  0.0262 -0.0874 -0.0713
 3161ntf    fn420415   5.466   4.742   2.826 -0.1833 -0.0702 -0.5164
 3162ntf    cn120416   4.987   0.926   4.336 -0.3779 -0.3849  0.2537
 3162ntf    sn220417   4.887   0.810   4.435 -0.4101 -0.3747  0.2333
 3162ntf    nn320418   4.819   0.737   4.313 -1.0843  0.5367  0.0506
 3162ntf    sn220419   4.767   0.589   4.308  0.2035  0.0727 -0.0231
 3162ntf    cn120420   4.603   0.621   4.237  0.0619  0.0604  0.2989
 3162ntf    fn420421   4.916   1.014   4.268 -0.2477 -0.1348  0.4427
 3162ntf    fn420422   5.074   0.984   4.416 -0.1964 -0.2784 -0.0219
 3162ntf    fn420423   5.056   0.858   4.246 -0.2211 -0.0431  0.1154
 3162ntf    on520424   4.991   0.737   4.504  0.1312  0.0427 -0.1289
 3162ntf    on520425   4.809   0.904   4.511 -0.2979 -0.3558  0.3250
 3162ntf    on520426   4.730   0.524   4.431 -0.4605 -0.6752 -0.6066
 3162ntf    on520427   4.829   0.499   4.213  0.4910  0.3028 -0.0564
 3162ntf    fn420428   4.524   0.516   4.250  0.0425  0.1242  0.7244
 3162ntf    fn420429   4.538   0.724   4.289  0.3420  0.1463  0.4780
 3162ntf    fn420430   4.617   0.643   4.107  0.0290 -0.2205  0.2494
 3163ntf    cn120431   0.087   2.188   4.914 -0.0023 -0.2282 -0.1683
 3163ntf    sn220432   0.183   2.252   4.773 -0.1272  0.1349 -0.0896
 3163ntf    nn320433   0.273   2.357   4.846  0.0594 -0.1224  0.0498
 3163ntf    sn220434   0.293   2.510   4.817  0.0465 -0.1327 -0.0112
 3163ntf    cn120435   0.158   2.587   4.911  0.1578 -0.0009  0.0411
 3163ntf    fn420436   0.064   2.058   4.909 -0.0761 -0.2122 -0.2356
 3163ntf    fn420437   0.147   2.210   5.029  0.2353 -0.0876 -0.3176
 3163ntf    fn420438  -0.034   2.240   4.927 -0.0265 -0.2953 -0.1252
 3163ntf    on520439   0.263   2.142   4.725  0.0497  0.2713 -0.1087
 3163ntf    on520440   0.075   2.306   4.693 -0.2844 -0.2536 -0.1410
 3163ntf    on520441   0.262   2.546   4.681 -0.0775  0.1793  0.0991
 3163ntf    on520442   0.411   2.559   4.883  0.0791 -0.1414 -0.0633
 3163ntf    fn420443   0.043   2.521   4.917  0.2061 -0.1736 -0.8305
 3163ntf    fn420444   0.197   2.608   5.036 -0.5733 -0.8454  0.4200
 3163ntf    fn420445   0.119   2.705   4.865  0.1737  0.1351  0.3692
 3164ntf    cn120446   2.706   4.083   5.109  0.1968 -0.0121 -0.4122
 3164ntf    sn220447   2.832   4.016   5.222  0.1059  0.3226 -0.1112
 3164ntf    nn320448   2.952   4.112   5.187  0.5364 -0.2016 -0.0880
 3164ntf    sn220449   2.978   4.243   5.270  0.4197 -0.3634  0.2073
 3164ntf    cn120450   3.135   4.305   5.202  0.0269 -0.1294 -0.4936
 3164ntf    fn420451   2.676   4.206   5.149  0.4739  0.0245 -0.3159
 3164ntf    fn420452   2.746   4.089   4.983  0.0902 -0.7333 -0.4886
 3164ntf    fn420453   2.596   4.009   5.105  0.1258  0.0390  0.3271
 3164ntf    on520454   2.776   4.030   5.354 -0.7727 -0.0147 -0.4419
 3164ntf    on520455   2.848   3.883   5.170 -0.1062  0.2318  0.0579
 3164ntf    on520456   3.020   4.216   5.405 -0.1401 -0.4758  0.3609
 3164ntf    on520457   2.887   4.353   5.246  0.2657 -0.4085  0.5811
 3164ntf    fn420458   3.169   4.410   5.275 -0.2658 -0.3364 -0.0544
 3164ntf    fn420459   3.226   4.211   5.217 -0.3715 -0.4611 -0.1494
 3164ntf    fn420460   3.127   4.336   5.073 -1.3373 -0.0920 -0.4160
 3165ntf    cn120461   0.947   1.503   3.389 -0.2295 -0.2955  0.1799
 3165ntf    sn220462   1.059   1.608   3.291 -0.4287 -0.2495  0.0018
 3165ntf    nn320463   1.194   1.617   3.370 -0.3212  0.2545 -0.2350
 3165ntf    sn220464   1.218   1.674   3.515 -0.4156  0.1502 -0.1782
 3165ntf    cn120465   1.224   1.519   3.609 -0.0741  0.2299 -0.0657
 3165ntf    fn420466   0.918   1.561   3.504  0.6644 -0.1668  0.3532
 3165ntf    fn420467   0.834   1.476   3.326 -0.0598 -0.5925  0.0018
 3165ntf    fn420468   0.991   1.384   3.425  0.4000 -0.2471 -0.4144
 3165ntf    on520469   1.083   1.521   3.178 -0.3938 -0.1987 -0.0294
 3165ntf    on520470   0.996   1.735   3.263 -0.4678 -0.1868  0.3728
 3165ntf    on520471   1.113   1.750   3.577 -0.1944  0.3977 -0.1022
 3165ntf    on520472   1.347   1.738   3.530 -0.2175 -0.2823 -0.0107
 3165ntf    fn420473   1.111   1.450   3.607  0.0622 -0.0009  0.0971
 3165ntf    fn420474   1.316   1.442   3.554 -0.2210 -0.1663  0.2305
 3165ntf    fn420475   1.253   1.540   3.737  0.1502  0.1062 -0.0957
 3166ntf    cn120476   5.779   4.538   1.529  0.2818 -0.1460 -0.0217
 3166ntf    sn220477   5.869   4.695   1.551  0.2074 -0.0437 -0.4296
 3166ntf    nn320478   5.818   4.781   1.430  0.2278  0.0490 -0.3727
 3166ntf    sn220479   5.890   4.789   1.291  0.4861  0.0027 -0.2434
 3166ntf    cn120480   6.019   4.911   1.330  0.1795  0.2848 -0.1033
 3166ntf    fn420481   5.811   4.482   1.413  0.1456  0.1181 -0.1896
 3166ntf    fn420482   5.809   4.451   1.624  0.2720 -0.5190 -0.3578
 3166ntf    fn420483   5.650   4.562   1.511  0.2307 -0.0509  0.4651
 3166ntf    on520484   5.816   4.738   1.678 -0.0993 -0.6749 -0.3381
 3166ntf    on520485   6.005   4.648   1.540 -0.0721 -0.8963 -0.3222
 3166ntf    on520486   5.810   4.858   1.193  0.3481  0.2291  0.0290
 3166ntf    on520487   5.964   4.675   1.242  0.6592  0.2687 -0.6154
 3166ntf    fn420488   6.056   4.970   1.217  0.0102  0.3381 -0.1308
 3166ntf    fn420489   5.978   5.007   1.411 -0.3891  0.0306 -0.0855
 3166ntf    fn420490   6.127   4.853   1.381 -0.0553  0.0862  0.1692
 3167ntf    cn120491   6.483   1.211   5.894 -0.0960  0.0414  0.1550
 3167ntf    sn220492   6.495   1.372   5.810  0.1364 -0.0459  0.0209
 3167ntf    nn320493   6.529   1.473   5.925 -0.2842 -0.0288  0.1317
 3167ntf    sn220494   6.436   1.564   6.012 -0.1612 -0.0542  0.2882
 3167ntf    cn120495   6.536   1.568   6.164  0.5969 -0.0803 -0.2061
 3167ntf    fn420496   6.465   1.106   5.816  0.2104  0.3868 -0.3920
 3167ntf    fn420497   6.587   1.181   5.971 -0.4025 -0.8131  0.2435
 3167ntf    fn420498   6.382   1.219   5.979 -0.1171 -0.4909  0.1804
 3167ntf    on520499   6.600   1.364   5.711 -0.0617  0.3975 -0.2276
 3167ntf    on520500   6.364   1.405   5.759  0.2608  0.1101 -0.1963
 3167ntf    on520501   6.309   1.508   6.050 -0.2937 -0.0421 -0.1435
 3167ntf    on520502   6.436   1.702   5.972  0.5471 -0.1384 -0.0191
 3167ntf    fn420503   6.477   1.626   6.267 -0.1800 -0.4309 -0.4471
 3167ntf    fn420504   6.555   1.441   6.195 -0.1057 -0.3110 -0.6980
 3167ntf    fn420505   6.653   1.628   6.145  0.3035  0.6168  0.1419
 3168ntf    cn120506   5.682   3.273   1.557  0.1193 -0.3090  0.2957
 3168ntf    sn220507   5.644   3.363   1.710 -0.3837 -0.0553  0.0221
 3168ntf    nn320508   5.538   3.462   1.650  0.0014  0.0905 -0.4253
 3168ntf    sn220509   5.486   3.600   1.704  0.2194  0.0102 -0.0120
 3168ntf    cn120510   5.329   3.557   1.784  0.2043  0.2239  0.0743
 3168ntf    fn420511   5.805   3.223   1.555  0.1531 -0.2225  0.1508
 3168ntf    fn420512   5.602   3.168   1.544 -0.3683  0.0650  0.2782
 3168ntf    fn420513   5.668   3.348   1.449  0.3808  0.0882  0.5373
 3168ntf    on520514   5.586   3.269   1.801  0.3933 -0.2613  0.3157
 3168ntf    on520515   5.772   3.419   1.747 -0.1259 -0.1393 -0.7126
 3168ntf    on520516   5.444   3.690   1.599  0.1323  0.2252  0.2060
 3168ntf    on520517   5.565   3.662   1.808  0.1123  0.6360 -0.2989
 3168ntf    fn420518   5.237   3.522   1.694  0.1122  0.0234  0.2472
 3168ntf    fn420519   5.353   3.456   1.866  0.0002  0.2385  0.1539
 3168ntf    fn420520   5.264   3.649   1.854 -0.5897  0.0097 -0.3620
 3169ntf    cn120521   0.872   2.142   1.762  0.0895 -0.1676 -0.3706
 3169ntf    sn220522   0.812   2.189   1.927  0.0757 -0.2314 -0.3575
 3169ntf    nn320523   0.941   2.253   1.989 -0.1083 -0.1595 -0.0468
 3169ntf    sn220524   0.971   2.405   2.013  0.1513 -0.2135 -0.0243
 3169ntf    cn120525   0.861   2.443   2.152  0.2008  0.0142 -0.0472
 3169ntf    fn420526   0.923   2.246   1.698 -0.6105  0.3036 -0.1697
 3169ntf    fn420527   0.971   2.055   1.775 -0.4332 -0.6634  0.4016
 3169ntf    fn420528   0.779   2.089   1.684 -0.2628 -0.1546  0.0350
 3169ntf    on520529   0.706   2.281   1.893 -0.0047 -0.2874 -0.2597
 3169ntf    on520530   0.771   2.064   1.987  0.0134 -0.3546 -0.6535
 3169ntf    on520531   0.931   2.491   1.905 -0.9873 -0.6765  0.0123
 3169ntf    on520532   1.098   2.442   2.071  0.0520  0.7352 -0.4069
 3169ntf    fn420533   0.845   2.575   2.155  0.3394  0.0283  0.0703
 3169ntf    fn420534   0.738   2.395   2.141  0.4008 -0.4360 -0.3238
 3169ntf    fn420535   0.901   2.410   2.274  0.0022 -0.4522 -0.1064
 3170ntf    cn120536   0.678   0.399   2.401 -0.4982 -0.0250  0.0996
 3170ntf    sn220537   0.654   0.363   2.224  0.2955 -0.1312  0.0080
 3170ntf    nn320538   0.655   0.509   2.168 -0.1816 -0.0863  0.1160
 3170ntf    sn220539   0.625   0.556   2.021 -0.0377  0.1418  0.1599
 3170ntf    cn120540   0.445   0.578   2.029 -0.0467  0.2315 -0.2903
 3170ntf    fn420541   0.589   0.489   2.440 -0.2399  0.4485 -0.3821
 3170ntf    fn420542   0.674   0.297   2.485 -0.2947  0.4641  0.7100
 3170ntf    fn420543   0.797   0.455   2.416 -0.3137 -0.3858 -0.0091
 3170ntf    on520544   0.759   0.271   2.190 -0.1053 -0.6278  0.0952
 3170ntf    on520545   0.525   0.298   2.223  0.4135 -0.3630 -0.2899
 3170ntf    on520546   0.631   0.450   1.924  0.4801 -0.0748  0.4231
 3170ntf    on520547   0.672   0.690   1.995 -0.5938  0.4214  0.5637
 3170ntf    fn420548   0.425   0.669   2.123 -0.7132 -0.1702 -0.0368
 3170ntf    fn420549   0.396   0.627   1.916 -0.5278  0.4908  0.0259
 3170ntf    fn420550   0.368   0.477   2.068  0.1805  0.3865  0.5791
 3171ntf    cn120551   0.154   3.263   0.771 -0.1510 -0.2473 -0.2091
 3171ntf    sn220552   0.070   3.422   0.744  0.0569 -0.1162 -0.0930
 3171ntf    nn320553  -0.079   3.377   0.763 -0.0350  0.1440 -0.1896
 3171ntf    sn220554  -0.199   3.456   0.828  0.1763  0.2084  0.1269
 3171ntf    cn120555  -0.339   3.416   0.719  0.1659  0.2031  0.1420
 3171ntf    fn420556   0.134   3.221   0.895 -0.0378 -0.0348 -0.1174
 3171ntf    fn420557   0.097   3.173   0.693  0.0828 -0.2028 -0.4334
 3171ntf    fn420558   0.285   3.276   0.751 -0.0993  0.1289  0.3389
 3171ntf    on520559   0.128   3.507   0.845 -0.4042 -0.2133  0.2566
 3171ntf    on520560   0.108   3.446   0.607  0.1105 -0.0653 -0.0691
 3171ntf    on520561  -0.190   3.600   0.828  0.1692  0.2083  0.2869
 3171ntf    on520562  -0.233   3.402   0.957 -0.5598 -0.0201 -0.1569
 3171ntf    fn420563  -0.447   3.477   0.762  0.1010  0.2834 -0.1340
 3171ntf    fn420564  -0.318   3.457   0.595 -0.2758  0.0428  0.0143
 3171ntf    fn420565  -0.373   3.289   0.701 -0.0038  0.2751 -0.0469
 3172ntf    cn120566   0.533   6.336   1.070  0.0520 -0.0573  0.1415
 3172ntf    sn220567   0.535   6.491   1.164 -0.5118 -0.1042  0.2346
 3172ntf    nn320568   0.419   6.465   1.267 -0.5824  0.0682  0.1984
 3172ntf    sn220569   0.412   6.398   1.408  0.0300  0.1385  0.2647
 3172ntf    cn120570   0.255   6.472   1.463 -0.1426  0.0225 -0.0687
 3172ntf    fn420571   0.534   6.228   1.147 -0.2082 -0.1997 -0.0495
 3172ntf    fn420572   0.421   6.323   1.000  0.1039  0.4840 -0.0445
 3172ntf    fn420573   0.643   6.323   0.997  0.2269  0.2937  0.3406
 3172ntf    on520574   0.670   6.494   1.215 -0.3559  0.7081 -0.2164
 3172ntf    on520575   0.497   6.589   1.065  0.0481  0.0363  0.1568
 3172ntf    on520576   0.509   6.439   1.506 -0.2522  0.4396  0.4196
 3172ntf    on520577   0.382   6.257   1.394 -0.0710  0.1609  0.2561
 3172ntf    fn420578   0.241   6.455   1.593  0.7538  0.0192  0.0331
 3172ntf    fn420579   0.251   6.602   1.442 -0.0126  0.0682  0.1839
 3172ntf    fn420580   0.154   6.413   1.401 -0.3594 -0.0740  0.3693
 3173ntf    cn120581   0.952   5.041   1.448 -0.0390 -0.0657 -0.1024
 3173ntf    sn220582   0.851   4.968   1.581  0.1845  0.0497  0.1304
 3173ntf    nn320583   0.953   4.864   1.638 -0.0121  0.0469  0.4768
 3173ntf    sn220584   0.995   4.721   1.588  0.0582  0.2019  0.0898
 3173ntf    cn120585   0.947   4.624   1.734 -0.0097 -0.1667 -0.1762
 3173ntf    fn420586   1.068   5.084   1.492 -0.1714 -0.0038  0.1857
 3173ntf    fn420587   0.991   4.946   1.364  0.5423  0.3835 -0.3433
 3173ntf    fn420588   0.892   5.130   1.370  0.5726  0.3300 -0.1198
 3173ntf    on520589   0.837   5.078   1.673 -0.4861  0.6967 -0.7299
 3173ntf    on520590   0.737   4.917   1.510  0.3417  0.3832 -0.3702
 3173ntf    on520591   1.137   4.696   1.580  0.0332  0.0018  0.2519
 3173ntf    on520592   0.913   4.662   1.485 -0.1294 -0.0528  0.3828
 3173ntf    fn420593   0.979   4.496   1.722  0.2135 -0.1162 -0.1051
 3173ntf    fn420594   0.995   4.663   1.851  0.2710 -0.0755 -0.3233
 3173ntf    fn420595   0.814   4.623   1.741 -0.0119 -1.0781 -0.1746
 3174ntf    cn120596   6.170   0.429   1.951  0.3192  0.3426 -0.5994
 3174ntf    sn220597   6.307   0.312   1.929 -0.0280 -0.1830 -0.0266
 3174ntf    nn320598   6.369   0.354   1.791  0.0279  0.4906  0.1958
 3174ntf    sn220599   6.490   0.448   1.758 -0.0177  0.3683 -0.3330
 3174ntf    cn120600   6.431   0.512   1.598 -0.0788 -0.0588 -0.4837
 3174ntf    fn420601   6.203   0.554   1.976  0.2995  0.1320  0.5185
 3174ntf    fn420602   6.098   0.426   1.840 -0.2937 -0.3078 -0.1971
 3174ntf    fn420603   6.095   0.389   2.053  0.2825  0.4785 -0.5735
 3174ntf    on520604   6.398   0.340   2.038  0.2350 -0.0756 -0.2706
 3174ntf    on520605   6.251   0.183   1.900  0.0637 -0.4177  0.8110
 3174ntf    on520606   6.606   0.368   1.727 -0.1523  0.1658 -0.3188
 3174ntf    on520607   6.507   0.566   1.839 -0.0740 -0.1547  0.4565
 3174ntf    fn420608   6.338   0.606   1.596  0.2447  0.2756 -0.1055
 3174ntf    fn420609   6.525   0.568   1.523  0.0029 -0.3930 -0.6333
 3174ntf    fn420610   6.376   0.415   1.528 -0.0462 -0.3828 -0.0669
 3175ntf    cn120611   0.659   5.226   6.820 -0.0031 -0.3353 -0.0463
 3175ntf    sn220612   0.829   5.221   6.755  0.0732  0.0473  0.1232
 3175ntf    nn320613   0.852   5.068   6.782  0.0660 -0.0107 -0.1978
 3175ntf    sn220614   0.856   4.948   6.682  0.0462 -0.3113  0.1600
 3175ntf    cn120615   0.830   4.810   6.798  0.0016 -0.3660  0.0860
 3175ntf    fn420616   0.651   5.223   6.952 -0.0559  0.5061 -0.0295
 3175ntf    fn420617   0.587   5.331   6.783 -0.3451 -0.3724  0.5089
 3175ntf    fn420618   0.586   5.122   6.781 -0.3932 -0.1330  0.1385
 3175ntf    on520619   0.815   5.260   6.617 -0.9337  0.4323  0.3246
 3175ntf    on520620   0.895   5.309   6.849 -0.2605  0.4300  0.0007
 3175ntf    on520621   0.985   4.927   6.622 -0.0985 -0.3603 -0.1371
 3175ntf    on520622   0.747   4.938   6.587 -0.0215 -0.4953  0.2567
 3175ntf    fn420623   0.815   4.690   6.743  0.1918 -0.1700 -0.4016
 3175ntf    fn420624   0.944   4.797   6.864  0.1334 -0.3913 -0.1451
 3175ntf    fn420625   0.733   4.831   6.885  0.2306  0.3459  0.1796
 3176ntf    cn120626   5.265   1.160   1.459  0.2133  0.1377  0.4477
 3176ntf    sn220627   5.272   1.280   1.596  0.0547  0.3442  0.2730
 3176ntf    nn320628   5.359   1.209   1.705  0.1186 -0.0994 -0.0651
 3176ntf    sn220629   5.317   1.186   1.855 -0.1426  0.2232 -0.0881
 3176ntf    cn120630   5.231   1.027   1.834 -0.4157  0.4411 -0.6421
 3176ntf    fn420631   5.390   1.130   1.424  0.0336 -0.2634  0.1427
 3176ntf    fn420632   5.205   1.052   1.506 -0.2337  0.2669  0.1668
 3176ntf    fn420633   5.201   1.198   1.350  0.0831 -0.2803  0.3776
 3176ntf    on520634   5.343   1.386   1.530 -0.2061  0.2729 -0.1291
 3176ntf    on520635   5.134   1.309   1.626  0.0452  0.4268  0.1538
 3176ntf    on520636   5.224   1.276   1.919 -0.2686 -0.0553  0.1242
 3176ntf    on520637   5.427   1.146   1.939 -0.1770  0.0965 -0.1039
 3176ntf    fn420638   5.294   0.931   1.769 -0.7500  0.0081 -0.3271
 3176ntf    fn420639   5.179   0.986   1.949 -0.1186 -0.3059 -0.7682
 3176ntf    fn420640   5.119   1.042   1.765 -0.2420  0.2924 -0.9590
 3177ntf    cn120641   3.065   0.271   3.044  0.2880 -0.5089  0.0166
 3177ntf    sn220642   3.121   0.367   2.900 -0.1471 -0.1473  0.0858
 3177ntf    nn320643   2.987   0.370   2.817  0.0889  0.0527 -0.2926
 3177ntf    sn220644   2.985   0.377   2.661  0.2217  0.0523 -0.2949
 3177ntf    cn120645   2.969   0.201   2.615 -0.1186  0.0399 -0.1307
 3177ntf    fn420646   2.949   0.314   3.090  0.5743 -0.1389  0.4052
 3177ntf    fn420647   3.046   0.144   3.011 -0.0832 -0.3386 -0.4421
 3177ntf    fn420648   3.145   0.272   3.149  0.1493 -0.0060  0.1213
 3177ntf    on520649   3.146   0.498   2.954 -0.6753 -0.0679  0.1422
 3177ntf    on520650   3.226   0.279   2.855  0.4062  0.1562  0.7689
 3177ntf    on520651   3.113   0.414   2.607  0.2689  0.3639  0.0275
 3177ntf    on520652   2.857   0.425   2.615 -0.0717 -0.1984  0.2545
 3177ntf    fn420653   2.916   0.190   2.494 -0.0247  0.3331 -0.2007
 3177ntf    fn420654   3.084   0.137   2.604  0.2436  0.6215  0.2107
 3177ntf    fn420655   2.890   0.128   2.692  0.7544 -0.1777  0.5684
 3178ntf    cn120656   1.538   4.985   4.308  0.0489  0.2582 -0.1872
 3178ntf    sn220657   1.387   4.940   4.217 -0.0161  0.1361 -0.0172
 3178ntf    nn320658   1.348   5.077   4.152  0.1136  0.1661 -0.0312
 3178ntf    sn220659   1.397   5.143   4.018  0.1517  0.2599  0.0298
 3178ntf    cn120660   1.237   5.198   3.949  0.1102  0.1804  0.0630
 3178ntf    fn420661   1.612   5.063   4.231  0.6431  0.1659  0.2873
 3178ntf    fn420662   1.517   5.053   4.419 -0.5639 -0.5566  0.2033
 3178ntf    fn420663   1.615   4.882   4.337 -0.4649  0.0244  0.3511
 3178ntf    on520664   1.438   4.835   4.132  0.1907 -0.3564  0.7041
 3178ntf    on520665   1.291   4.897   4.316  0.1072  0.2733  0.1617
 3178ntf    on520666   1.456   5.056   3.920  0.4235  0.1374  0.2995
 3178ntf    on520667   1.468   5.266   4.044 -0.6311  0.6575  0.3166
 3178ntf    fn420668   1.153   5.246   4.039  0.1687  0.1789  0.1191
 3178ntf    fn420669   1.260   5.291   3.859 -0.3598  0.2720  0.0363
 3178ntf    fn420670   1.176   5.097   3.890  0.7195 -0.0339 -0.2040
 3179ntf    cn120671   1.379   4.379   0.168 -0.3188  0.0209 -0.0036
 3179ntf    sn220672   1.457   4.529   0.101 -0.0539 -0.0660  0.1119
 3179ntf    nn320673   1.553   4.569   0.219 -0.3542  0.2938  0.2333
 3179ntf    sn220674   1.533   4.683   0.325  0.0458  0.3830  0.2135
 3179ntf    cn120675   1.632   4.623   0.465 -0.2214  0.6441  0.5181
 3179ntf    fn420676   1.463   4.290   0.216 -0.3660  0.2609  0.5340
 3179ntf    fn420677   1.296   4.403   0.268 -0.1456 -0.2907  0.2119
 3179ntf    fn420678   1.308   4.315   0.076  0.4723 -0.1108 -0.5366
 3179ntf    on520679   1.527   4.484  -0.017 -0.7006 -0.2803 -0.1943
 3179ntf    on520680   1.351   4.622   0.073 -0.4423 -0.3774  0.5491
 3179ntf    on520681   1.401   4.685   0.384 -0.0833  0.3027 -0.0741
 3179ntf    on520682   1.595   4.808   0.287  0.2845  0.1457 -0.1748
 3179ntf    fn420683   1.600   4.687   0.576 -0.4830  0.5564  0.4934
 3179ntf    fn420684   1.600   4.496   0.486 -0.0318  0.4396 -0.3937
 3179ntf    fn420685   1.762   4.636   0.446 -0.2283  0.3729  0.2664
 3180ntf    cn120686   1.424   3.635   1.770 -0.0637  0.2177 -0.2548
 3180ntf    sn220687   1.373   3.801   1.824 -0.2915  0.0751 -0.0277
 3180ntf    nn320688   1.283   3.752   1.943  0.0602 -0.1169  0.1592
 3180ntf    sn220689   1.129   3.725   1.952  0.0320 -0.0409 -0.0977
 3180ntf    cn120690   1.132   3.573   2.052 -0.0701 -0.3179 -0.5153
 3180ntf    fn420691   1.322   3.550   1.779 -0.0537  0.1826 -0.4847
 3180ntf    fn420692   1.457   3.630   1.643  0.2702  0.1005 -0.1624
 3180ntf    fn420693   1.524   3.592   1.845 -0.2855  0.2147  0.0410
 3180ntf    on520694   1.498   3.863   1.861  0.0401 -0.2492 -0.6057
 3180ntf    on520695   1.301   3.871   1.720  0.0489  0.2285 -0.1593
 3180ntf    on520696   1.064   3.672   1.834 -0.4439  0.1727  0.0677
 3180ntf    on520697   1.062   3.829   2.026 -0.2464 -0.4192  0.1856
 3180ntf    fn420698   1.011   3.521   2.065  0.0686 -0.6404 -0.5009
 3180ntf    fn420699   1.213   3.486   1.993 -0.1862 -0.4579 -0.4706
 3180ntf    fn420700   1.181   3.584   2.174 -0.2406 -0.4062 -0.4370
 3181ntf    cn120701   2.996   4.371   3.298 -0.3368  0.2267  0.2549
 3181ntf    sn220702   2.949   4.433   3.134 -0.2566 -0.1010  0.1051
 3181ntf    nn320703   3.030   4.340   3.038 -0.0054  0.0188  0.1997
 3181ntf    sn220704   3.154   4.360   2.944 -0.3084 -0.3055 -0.2797
 3181ntf    cn120705   3.070   4.421   2.795 -0.0557 -0.3013 -0.4217
 3181ntf    fn420706   2.974   4.240   3.303 -0.1213  0.1834  0.0945
 3181ntf    fn420707   3.124   4.387   3.328 -0.2384 -0.3413  0.1492
 3181ntf    fn420708   2.924   4.431   3.391  0.1064  0.3575  0.5142
 3181ntf    on520709   2.807   4.408   3.132 -0.3795  0.5761 -0.1288
 3181ntf    on520710   2.997   4.569   3.132 -0.5233 -0.0108 -0.2098
 3181ntf    on520711   3.211   4.232   2.912  0.0835 -0.1470 -0.2277
 3181ntf    on520712   3.247   4.463   2.983 -0.7801 -0.0431  0.1661
 3181ntf    fn420713   3.014   4.326   2.722 -0.0493 -0.3368 -0.3807
 3181ntf    fn420714   2.969   4.504   2.813 -0.0225 -0.4534  0.5399
 3181ntf    fn420715   3.159   4.484   2.721 -0.3626 -0.0907 -0.6107
 3182ntf    cn120716   1.021   6.881   5.562  0.1105 -0.0739  0.3697
 3182ntf    sn220717   0.925   6.785   5.683  0.0104 -0.4027  0.0310
 3182ntf    nn320718   1.005   6.650   5.683  0.8031  0.0634  0.1010
 3182ntf    sn220719   1.050   6.571   5.811  0.0931 -0.1118  0.2484
 3182ntf    cn120720   0.925   6.439   5.820  0.1980 -0.2143  0.2070
 3182ntf    fn420721   0.978   7.006   5.554  0.2849 -0.0658 -0.5092
 3182ntf    fn420722   1.146   6.898   5.600  0.0986  0.4340  0.1921
 3182ntf    fn420723   1.022   6.826   5.442  0.6715  0.4060  0.1494
 3182ntf    on520724   0.939   6.878   5.792  0.1192  0.2787 -0.5595
 3182ntf    on520725   0.797   6.774   5.617 -0.2929  0.5004  0.4470
 3182ntf    on520726   1.031   6.639   5.937  0.0619 -0.2131  0.2980
 3182ntf    on520727   1.176   6.502   5.800  0.0990 -0.2073  0.8427
 3182ntf    fn420728   0.926   6.360   5.715 -0.4691  0.4623 -0.3218
 3182ntf    fn420729   0.946   6.355   5.920  0.3358 -0.3557  0.0607
 3182ntf    fn420730   0.804   6.490   5.835  0.1524 -0.1739 -0.3078
 3183ntf    cn120731   2.363   0.784   3.470 -0.0268  0.0031  0.1362
 3183ntf    sn220732   2.501   0.886   3.529  0.1500 -0.1321 -0.0393
 3183ntf    nn320733   2.448   0.924   3.672 -0.2821 -0.2205 -0.1768
 3183ntf    sn220734   2.363   1.043   3.727 -0.0455 -0.1824  0.1046
 3183ntf    cn120735   2.450   1.067   3.885 -0.1931 -0.0566  0.1680
 3183ntf    fn420736   2.276   0.853   3.398  0.2734  0.1440 -0.0938
 3183ntf    fn420737   2.408   0.691   3.387  0.3323  0.8266 -0.6120
 3183ntf    fn420738   2.297   0.725   3.568 -0.0084 -0.2849 -0.0232
 3183ntf    on520739   2.624   0.810   3.528  0.6329  0.6302  0.4365
 3183ntf    on520740   2.499   1.000   3.441 -0.0885  0.2217  0.4224
 3183ntf    on520741   2.230   1.003   3.766 -0.2849  0.7021  0.2218
 3183ntf    on520742   2.378   1.171   3.661  0.2898 -0.4526 -0.3420
 3183ntf    fn420743   2.576   1.107   3.880 -0.0990 -0.3751 -0.0662
 3183ntf    fn420744   2.394   1.165   3.954  0.1483  0.2603  0.0027
 3183ntf    fn420745   2.447   0.957   3.958  0.2884 -0.1560  0.0434
 3184ntf    cn120746   4.738   1.197   3.925  0.0109 -0.1143  0.0615
 3184ntf    sn220747   4.654   1.359   3.932 -0.1078 -0.1629 -0.2498
 3184ntf    nn320748   4.569   1.344   4.063  0.1610 -0.0602 -0.0646
 3184ntf    sn220749   4.414   1.338   4.087  0.1871  0.1604  0.1672
 3184ntf    cn120750   4.366   1.509   4.126 -0.2895  0.0546  0.0534
 3184ntf    fn420751   4.834   1.193   3.835  0.2210 -0.6211  0.3065
 3184ntf    fn420752   4.787   1.164   4.044  0.4883  0.1471 -0.0593
 3184ntf    fn420753   4.658   1.097   3.892 -0.0512 -0.1185  0.2217
 3184ntf    on520754   4.759   1.455   3.952 -0.3594  0.1448 -0.3890
 3184ntf    on520755   4.577   1.365   3.810 -0.8396 -0.4756  0.1924
 3184ntf    on520756   4.385   1.277   4.215 -0.1559 -0.1040 -0.0346
 3184ntf    on520757   4.330   1.296   3.977  0.6539  0.0884 -0.1658
 3184ntf    fn420758   4.433   1.562   4.227 -0.9273 -0.5154  0.7932
 3184ntf    fn420759   4.385   1.587   4.021 -0.2770 -0.2488 -0.1739
 3184ntf    fn420760   4.239   1.513   4.160 -0.1339 -0.5424  0.7481
 3185ntf    cn120761   3.771   4.523   6.643  0.3281 -0.1856 -0.0193
 3185ntf    sn220762   3.880   4.651   6.573 -0.1457  0.2214 -0.0187
 3185ntf    nn320763   3.923   4.587   6.437  0.0830  0.2297  0.0498
 3185ntf    sn220764   3.870   4.629   6.295 -0.0050  0.1584  0.0616
 3185ntf    cn120765   3.963   4.783   6.270 -0.2600  0.2848 -0.1089
 3185ntf    fn420766   3.666   4.493   6.569  0.0668  0.2020  0.1882
 3185ntf    fn420767   3.834   4.410   6.673 -0.5156 -0.8153 -0.5953
 3185ntf    fn420768   3.720   4.567   6.757 -0.2860  0.1110 -0.4064
 3185ntf    on520769   3.794   4.767   6.567 -0.0490  0.2705 -0.4923
 3185ntf    on520770   3.986   4.671   6.668  0.0752  0.2941 -0.2795
 3185ntf    on520771   3.731   4.664   6.283  0.1019  0.3484 -0.6956
 3185ntf    on520772   3.924   4.545   6.190  0.1365  0.7022 -0.3048
 3185ntf    fn420773   3.902   4.886   6.326 -0.4704 -0.1060  0.3837
 3185ntf    fn420774   4.084   4.780   6.323 -0.4730 -0.0073  0.3583
 3185ntf    fn420775   3.968   4.814   6.141  0.1243 -0.0282 -0.1701
 3186ntf    cn120776   3.010   6.257   4.191 -0.0973 -0.1657  0.1936
 3186ntf    sn220777   3.110   6.402   4.144 -0.1049 -0.2467 -0.0743
 3186ntf    nn320778   3.256   6.349   4.166 -0.0014 -0.0768 -0.3478
 3186ntf    sn220779   3.353   6.364   4.288 -0.0316 -0.0554 -0.3265
 3186ntf    cn120780   3.446   6.494   4.203  0.1314 -0.1841 -0.3459
 3186ntf    fn420781   3.001   6.185   4.080  0.3517  0.2894 -0.1451
 3186ntf    fn420782   3.066   6.187   4.288  0.0410 -0.2695  0.0387
 3186ntf    fn420783   2.888   6.292   4.226 -0.2683 -0.4238 -0.1397
 3186ntf    on520784   3.097   6.420   4.001  0.0450  0.3113 -0.0198
 3186ntf    on520785   3.073   6.516   4.224 -0.0601  0.2801 -0.7954
 3186ntf    on520786   3.440   6.249   4.301 -0.0469 -0.0574 -0.2385
 3186ntf    on520787   3.299   6.417   4.411  0.5574  0.4378 -0.2746
 3186ntf    fn420788   3.545   6.544   4.275 -0.4135  0.0425  0.2531
 3186ntf    fn420789   3.495   6.459   4.085 -0.0729 -0.0644 -0.4661
 3186ntf    fn420790   3.364   6.594   4.176 -0.2049 -0.1990  0.5879
 3187ntf    cn120791   2.339   2.706   2.634 -0.1334 -0.1167  0.3516
 3187ntf    sn220792   2.212   2.830   2.673 -0.2177 -0.2083  0.3712
 3187ntf    nn320793   2.092   2.796   2.579 -0.0037 -0.3020  0.1310
 3187ntf    sn220794   2.063   2.865   2.440  0.2034  0.0602  0.2665
 3187ntf    cn120795   1.949   2.996   2.494  0.0341  0.1779 -0.3727
 3187ntf    fn420796   2.293   2.582   2.627 -0.4838  0.0026  0.5307
 3187ntf    fn420797   2.387   2.722   2.512 -0.9239  0.4563  0.1107
 3187ntf    fn420798   2.438   2.711   2.721 -0.1799  0.0638  0.3948
 3187ntf    on520799   2.177   2.796   2.809  0.5137 -0.9388  0.3902
 3187ntf    on520800   2.282   2.954   2.652 -0.1491 -0.3143 -0.0272
 3187ntf    on520801   1.987   2.776   2.356  0.4293  0.5297 -0.4379
 3187ntf    on520802   2.172   2.931   2.373  0.1661 -0.5253 -0.3821
 3187ntf    fn420803   1.963   3.041   2.618 -0.5667  0.1133 -0.2806
 3187ntf    fn420804   1.964   3.103   2.416 -0.0504  0.3914 -0.0980
 3187ntf    fn420805   1.820   2.969   2.486 -0.1386  0.6933  0.4904
 3188ntf    cn120806   4.642   4.309   2.197  0.1021 -0.0807 -0.0541
 3188ntf    sn220807   4.579   4.194   2.072 -0.1594 -0.1232  0.1173
 3188ntf    nn320808   4.636   4.066   2.142  0.1069 -0.0172  0.0932
 3188ntf    sn220809   4.590   3.919   2.113  0.1241 -0.1019  0.4876
 3188ntf    cn120810   4.736   3.824   2.060  0.1430  0.0950  0.1887
 3188ntf    fn420811   4.657   4.430   2.144  0.5115 -0.1171 -0.0257
 3188ntf    fn420812   4.554   4.322   2.295 -0.2696 -0.5183 -0.3288
 3188ntf    fn420813   4.761   4.277   2.246 -0.0367  0.4707  0.6711
 3188ntf    on520814   4.436   4.212   2.080 -0.1151  0.1434  0.3268
 3188ntf    on520815   4.643   4.243   1.953 -0.3431  0.0712  0.0966
 3188ntf    on520816   4.500   3.911   2.000  0.0105 -0.4399  0.6016
 3188ntf    on520817   4.542   3.847   2.228  0.2584 -0.8197  0.1026
 3188ntf    fn420818   4.815   3.791   2.160  0.5889  0.1570 -0.1405
 3188ntf    fn420819   4.700   3.713   1.998 -0.0091  0.5847 -0.6204
 3188ntf    fn420820   4.812   3.884   1.970  0.0218 -0.1177 -0.0569
 3189ntf    cn120821   0.653   3.174   2.908  0.2238 -0.1418 -0.1913
 3189ntf    sn220822   0.547   3.182   2.760 -0.1585 -0.0343  0.0881
 3189ntf    nn320823   0.582   3.323   2.701 -0.0500 -0.0405  0.1356
 3189ntf    sn220824   0.698   3.360   2.601 -0.2585  0.1314 -0.0445
 3189ntf    cn120825   0.765   3.511   2.676 -0.2792 -0.0156  0.2717
 3189ntf    fn420826   0.780   3.202   2.880  0.3053 -0.7170 -0.4184
 3189ntf    fn420827   0.618   3.253   3.008  0.3467 -0.1906 -0.1095
 3189ntf    fn420828   0.663   3.052   2.959  0.1632  0.2058  0.6728
 3189ntf    on520829   0.590   3.067   2.684 -0.0781  0.0346  0.0287
 3189ntf    on520830   0.413   3.173   2.811 -0.0501  0.1998  0.4189
 3189ntf    on520831   0.642   3.395   2.473 -0.3982 -0.1849 -0.0726
 3189ntf    on520832   0.818   3.281   2.600  0.0450  0.5895  0.0031
 3189ntf    fn420833   0.815   3.478   2.794  0.2808  0.2240  0.1062
 3189ntf    fn420834   0.870   3.556   2.609 -0.1107  0.1054  0.6127
 3189ntf    fn420835   0.687   3.618   2.678 -0.4639 -0.1363 -0.3648
 3190ntf    cn120836   1.317   1.291   0.405 -0.2655  0.0357 -0.2794
 3190ntf    sn220837   1.444   1.390   0.489 -0.1291 -0.1396 -0.2787
 3190ntf    nn320838   1.576   1.355   0.412  0.3722  0.7272  0.1722
 3190ntf    sn220839   1.691   1.261   0.464 -0.1573  0.0777  0.1836
 3190ntf    cn120840   1.740   1.178   0.310 -0.1722 -0.2163  0.3371
 3190ntf    fn420841   1.198   1.330   0.448 -0.2094  0.1567 -0.2335
 3190ntf    fn420842   1.323   1.319   0.276 -0.6566  0.2153 -0.2614
 3190ntf    fn420843   1.323   1.159   0.411 -0.3539  0.0299 -0.3127
 3190ntf    on520844   1.407   1.525   0.454 -0.7067  0.0231  0.9054
 3190ntf    on520845   1.442   1.360   0.630  0.3049 -0.4928 -0.3424
 3190ntf    on520846   1.647   1.150   0.544  0.3925 -0.3544 -0.1009
 3190ntf    on520847   1.814   1.328   0.498 -0.5510  0.6636  0.4674
 3190ntf    fn420848   1.794   1.061   0.341 -0.2613 -0.4644 -0.4268
 3190ntf    fn420849   1.640   1.147   0.228  0.2528  0.4906 -0.4652
 3190ntf    fn420850   1.825   1.250   0.240 -0.1351 -0.3812  0.2107
 3191ntf    cn120851   5.688   2.876   1.090 -0.2987  0.2411 -0.0948
 3191ntf    sn220852   5.553   2.958   1.001 -0.3832  0.2535  0.0436
 3191ntf    nn320853   5.615   3.087   0.935 -0.5850  0.1922 -0.2674
 3191ntf    sn220854   5.628   3.234   0.988  0.1731  0.0370 -0.0128
 3191ntf    cn120855   5.793   3.277   0.926  0.1389 -0.4101 -0.4154
 3191ntf    fn420856   5.755   2.788   1.018 -0.4724  0.3011 -0.3293
 3191ntf    fn420857   5.775   2.962   1.140 -0.0869  0.1649 -0.3315
 3191ntf    fn420858   5.645   2.819   1.202  0.3443  0.1284  0.1018
 3191ntf    on520859   5.524   2.865   0.895  0.7733 -0.2941  0.1995
 3191ntf    on520860   5.452   2.985   1.100 -0.1609 -0.0433  0.3502
 3191ntf    on520861   5.635   3.252   1.131  0.2199  0.1692 -0.0320
 3191ntf    on520862   5.546   3.323   0.910  0.1676 -0.1935 -0.2691
 3191ntf    fn420863   5.831   3.392   0.979 -0.1198 -0.4975 -0.0308
 3191ntf    fn420864   5.886   3.190   0.962  0.4584  0.2577  0.4050
 3191ntf    fn420865   5.793   3.289   0.794 -0.3254  0.1413 -0.3666
 3192ntf    cn120866   4.939   0.738   3.012  0.0395  0.1798 -0.1827
 3192ntf    sn220867   4.833   0.590   3.016  0.3163 -0.0166 -0.1156
 3192ntf    nn320868   4.735   0.597   3.138  0.1815  1.2645 -0.2839
 3192ntf    sn220869   4.760   0.678   3.270  0.2483  0.4980  0.1784
 3192ntf    cn120870   4.681   0.838   3.233 -0.0822  0.3161  0.0923
 3192ntf    fn420871   5.037   0.727   3.100  0.2205 -0.0467 -0.4119
 3192ntf    fn420872   5.000   0.762   2.897  0.5974 -0.2964  0.0149
 3192ntf    fn420873   4.873   0.848   3.048  0.0978  0.2689 -0.3455
 3192ntf    on520874   4.764   0.606   2.890 -0.5010  0.2552  0.3603
 3192ntf    on520875   4.934   0.487   3.022  0.4209  0.0593 -0.5038
 3192ntf    on520876   4.895   0.707   3.312  0.5121 -0.6196  0.1253
 3192ntf    on520877   4.676   0.643   3.382 -0.2401 -0.2919 -0.4205
 3192ntf    fn420878   4.636   0.852   3.110  0.0260  0.4336  0.0660
 3192ntf    fn420879   4.581   0.866   3.315 -0.0468  0.2575  0.1565
 3192ntf    fn420880   4.763   0.941   3.245 -0.1923  0.3775  0.3159
 3193ntf    cn120881   1.849   5.453   2.663  0.1724 -0.3958 -0.0024
 3193ntf    sn220882   1.759   5.449   2.505 -0.1283  0.5458  0.1413
 3193ntf    nn320883   1.610   5.438   2.555 -0.0045 -0.7412  0.2510
 3193ntf    sn220884   1.502   5.342   2.493 -0.1048 -0.5825  0.1767
 3193ntf    cn120885   1.530   5.189   2.588  0.0991 -0.3850  0.4342
 3193ntf    fn420886   1.819   5.357   2.748  0.5434 -0.4293  0.0958
 3193ntf    fn420887   1.980   5.449   2.644  0.2353 -0.2794  0.3949
 3193ntf    fn420888   1.825   5.567   2.726  0.1539 -0.1422 -0.4652
 3193ntf    on520889   1.794   5.575   2.445  0.2828  0.4389  0.1557
 3193ntf    on520890   1.816   5.336   2.437 -0.0561  0.4666  0.3339
 3193ntf    on520891   1.526   5.297   2.358  0.4490  0.2561 -0.0114
 3193ntf    on520892   1.367   5.381   2.524  0.1074  0.0296  0.3340
 3193ntf    fn420893   1.462   5.188   2.702 -0.7818 -0.5506 -0.0906
 3193ntf    fn420894   1.495   5.084   2.517 -0.6952  0.0314  0.2052
 3193ntf    fn420895   1.655   5.170   2.628  0.2583 -0.0168  0.1229
 3194ntf    cn120896   5.623   6.979   6.340 -0.3643 -0.3638 -0.0361
 3194ntf    sn220897   5.716   7.059   6.205 -0.1750 -0.2824  0.1404
 3194ntf    nn320898   5.851   6.979   6.198 -0.0509 -0.0635  0.0200
 3194ntf    sn220899   5.995   7.025   6.239 -0.0619 -0.1025  0.1031
 3194ntf    cn120900   6.068   7.066   6.077 -0.3068 -0.1303 -0.0144
 3194ntf    fn420901   5.530   7.060   6.387  0.1091 -0.0542  0.3824
 3194ntf    fn420902   5.554   6.881   6.284 -0.4193 -0.1286 -0.3847
 3194ntf    fn420903   5.694   6.939   6.444  0.3170  0.9294  0.0215
 3194ntf    on520904   5.628   7.016   6.098 -0.4592  0.4622  0.0702
 3194ntf    on520905   5.720   7.200   6.235 -0.7885 -0.3446  0.5403
 3194ntf    on520906   6.079   6.917   6.284  0.1270 -0.0328 -0.0772
 3194ntf    on520907   6.006   7.147   6.316 -0.2066 -0.1134  0.1414
 3194ntf    fn420908   6.047   6.981   5.978 -0.1514  0.6413 -0.7160
 3194ntf    fn420909   6.030   7.183   6.029  0.2792 -0.0507 -0.2896
 3194ntf    fn420910   6.199   7.071   6.093 -0.3291  0.3589  0.0362
 3195ntf    cn120911   3.143   2.376   6.984 -0.0308  0.0548  0.2541
 3195ntf    sn220912   3.266   2.265   7.058 -0.1520 -0.1782  0.1073
 3195ntf    nn320913   3.396   2.313   6.985 -0.6692  0.5889 -0.3281
 3195ntf    sn220914   3.492   2.432   7.022 -0.1521  0.0409  0.1251
 3195ntf    cn120915   3.609   2.414   6.885  0.0073 -0.2895  0.3044
 3195ntf    fn420916   3.021   2.336   7.018 -0.0352 -0.2240 -0.0913
 3195ntf    fn420917   3.163   2.503   7.018  0.2843  0.0011  0.2716
 3195ntf    fn420918   3.146   2.379   6.852  0.1313  0.0581  0.2576
 3195ntf    on520919   3.262   2.293   7.200 -0.0049 -0.1846  0.1127
 3195ntf    on520920   3.226   2.133   7.016  0.2019 -0.3452  0.2902
 3195ntf    on520921   3.561   2.410   7.147 -0.0107 -0.0884  0.0243
 3195ntf    on520922   3.444   2.563   6.983 -0.2761  0.0982  0.4684
 3195ntf    fn420923   3.554   2.438   6.767  0.4512  0.0242  0.1598
 3195ntf    fn420924   3.705   2.505   6.886 -0.4197  0.1706 -0.0208
 3195ntf    fn420925   3.666   2.295   6.873 -0.2163 -0.3844  0.1725
 3196ntf    cn120926   5.403   2.506   1.341 -0.2410 -0.2087 -0.0101
 3196ntf    sn220927   5.254   2.446   1.425 -0.1748 -0.0708  0.2080
 3196ntf    nn320928   5.319   2.363   1.542  0.0091 -0.3912 -0.1178
 3196ntf    sn220929   5.336   2.397   1.694  0.0136 -0.0228 -0.1984
 3196ntf    cn120930   5.474   2.515   1.700 -0.0466  0.0428 -0.0870
 3196ntf    fn420931   5.480   2.576   1.422 -0.4595 -0.5001  0.4526
 3196ntf    fn420932   5.474   2.412   1.282  0.2268  0.1886 -0.0922
 3196ntf    fn420933   5.364   2.593   1.249  0.7322  0.4324  0.1656
 3196ntf    on520934   5.182   2.564   1.464  0.4865  0.1584  0.7434
 3196ntf    on520935   5.204   2.354   1.326 -0.9119  0.3741  0.1622
 3196ntf    on520936   5.384   2.281   1.766 -0.5859 -0.0325  0.1978
 3196ntf    on520937   5.230   2.473   1.756  0.1387  0.0287 -0.0459
 3196ntf    fn420938   5.524   2.526   1.822 -0.0562  0.1054 -0.0890
 3196ntf    fn420939   5.575   2.489   1.618  0.3874  0.1812  0.3998
 3196ntf    fn420940   5.431   2.633   1.658 -0.5287 -0.0463  0.1485
 3197ntf    cn120941   6.413   2.403   2.242  0.1573  0.5375 -0.2805
 3197ntf    sn220942   6.563   2.300   2.250 -0.0983  0.1847 -0.0216
 3197ntf    nn320943   6.633   2.347   2.118 -0.3102 -0.0983 -0.2351
 3197ntf    sn220944   6.669   2.265   1.989  0.4231  0.0466 -0.1243
 3197ntf    cn120945   6.765   2.399   1.913 -0.1769  0.2937 -0.4473
 3197ntf    fn420946   6.340   2.394   2.352  0.0345 -0.1726 -0.4138
 3197ntf    fn420947   6.449   2.530   2.234  0.3409  0.5128  0.1051
 3197ntf    fn420948   6.331   2.366   2.145  0.2963 -0.6009  0.0198
 3197ntf    on520949   6.623   2.354   2.370  0.2585 -0.1198 -0.0595
 3197ntf    on520950   6.517   2.163   2.251  0.5482 -0.0336  0.6733
 3197ntf    on520951   6.551   2.249   1.908 -0.2565  0.1832  0.8210
 3197ntf    on520952   6.762   2.155   1.992  0.1839 -0.1559 -0.0749
 3197ntf    fn420953   6.828   2.380   1.799  0.5861  0.5673 -0.0789
 3197ntf    fn420954   6.685   2.501   1.883 -0.3022  0.2984 -0.0977
 3197ntf    fn420955   6.854   2.447   1.998 -0.6439  0.0249  0.2086
 3198ntf    cn120956   3.517   6.618   1.926  0.5256  0.1419  0.3244
 3198ntf    sn220957   3.466   6.491   1.807  0.0106  0.4499  0.2087
 3198ntf    nn320958   3.600   6.477   1.726 -0.5195 -0.2191 -0.5777
 3198ntf    sn220959   3.650   6.547   1.595  0.0891  0.3102 -0.0744
 3198ntf    cn120960   3.641   6.412   1.474 -0.1369  0.1095  0.1650
 3198ntf    fn420961   3.601   6.567   2.015  0.3141 -0.8644 -0.0381
 3198ntf    fn420962   3.576   6.718   1.862 -0.1389  0.1023 -0.3563
 3198ntf    fn420963   3.416   6.670   1.994 -0.2407 -0.3721 -0.3972
 3198ntf    on520964   3.444   6.379   1.896 -0.2948  0.3778  0.0413
 3198ntf    on520965   3.346   6.537   1.743  0.2044  0.4635 -0.1520
 3198ntf    on520966   3.790   6.582   1.595  0.0412  0.5016  0.1271
 3198ntf    on520967   3.559   6.646   1.542  0.3502  0.8118  0.4076
 3198ntf    fn420968   3.710   6.310   1.521 -0.0838  0.0888  0.0443
 3198ntf    fn420969   3.520   6.364   1.450  0.1224 -0.2641 -0.4357
 3198ntf    fn420970   3.693   6.439   1.355  0.7039 -0.2793  0.4394
 3199ntf    cn120971   3.574   4.621   1.426 -0.2995  0.3208 -0.2579
 3199ntf    sn220972   3.488   4.700   1.566 -0.3356  0.1071 -0.1593
 3199ntf    nn320973   3.543   4.846   1.546 -0.0774  0.1413  0.7332
 3199ntf    sn220974   3.457   4.976   1.564  0.1417  0.3807  0.0822
 3199ntf    cn120975   3.510   5.072   1.419 -0.0072  0.2555 -0.0565
 3199ntf    fn420976   3.699   4.665   1.421 -0.1172 -0.0792  0.5465
 3199ntf    fn420977   3.585   4.489   1.429 -0.1871  0.3306 -0.1865
 3199ntf    fn420978   3.519   4.642   1.308  0.0085  0.1296 -0.4353
 3199ntf    on520979   3.348   4.687   1.535 -0.4065 -0.4553  0.3739
 3199ntf    on520980   3.550   4.629   1.676 -0.1786  0.0848 -0.2616
 3199ntf    on520981   3.501   5.056   1.676 -0.2409 -0.0596  0.5507
 3199ntf    on520982   3.314   4.967   1.553  0.2009  0.2757 -0.6618
 3199ntf    fn420983   3.642   5.062   1.405  0.0740  0.0333  0.7647
 3199ntf    fn420984   3.465   5.018   1.308  0.1425  0.4606 -0.2178
 3199ntf    fn420985   3.477   5.200   1.417 -1.0132  0.0037  0.1254
 3200ntf    cn120986   3.593   1.409   6.254 -0.0345  0.0360 -0.3401
 3200ntf    sn220987   3.698   1.423   6.402 -0.1795 -0.2454 -0.2091
 3200ntf    nn320988   3.617   1.350   6.515 -0.1125  0.1140  0.0709
 3200ntf    sn220989   3.644   1.345   6.669 -0.3586 -0.0938  0.1082
 3200ntf    cn120990   3.710   1.175   6.679 -0.0701  0.0155  0.0830
 3200ntf    fn420991   3.636   1.476   6.148  0.4485  0.1212 -0.0950
 3200ntf    fn420992   3.581   1.283   6.215  0.4671 -0.0906 -0.0977
 3200ntf    fn420993   3.473   1.459   6.277 -0.1455 -0.3005 -0.1841
 3200ntf    on520994   3.821   1.355   6.369  0.2786  0.2640  0.4375
 3200ntf    on520995   3.703   1.565   6.427  0.0892 -0.3146  0.1417
 3200ntf    on520996   3.520   1.333   6.741 -0.2030 -1.0340  0.2373
 3200ntf    on520997   3.753   1.425   6.720 -0.2863 -0.1890  0.1049
 3200ntf    fn420998   3.813   1.152   6.600 -0.0211  0.6691 -0.0525
 3200ntf    fn420999   3.759   1.134   6.795 -0.0218 -0.8462 -0.2360
 3200ntf    fn421000   3.620   1.084   6.647 -0.1629  0.1194  0.0449
 3201ntf    cn121001   4.540   2.479   1.357  0.0135 -0.2295 -0.2705
 3201ntf    sn221002   4.697   2.458   1.446  0.0897 -0.0596 -0.3630
 3201ntf    nn321003   4.644   2.376   1.569 -0.3692 -0.1044 -0.5890
 3201ntf    sn221004   4.693   2.232   1.608 -0.0754  0.0858 -0.2483
 3201ntf    cn121005   4.846   2.275   1.698  0.0988 -0.1022 -0.4523
 3201ntf    fn421006   4.455   2.540   1.438  0.0634 -0.3955 -0.0905
 3201ntf    fn421007   4.559   2.549   1.246 -0.1792 -0.0344 -0.1814
 3201ntf    fn421008   4.484   2.366   1.318 -0.3113 -0.0716 -0.2613
 3201ntf    on521009   4.780   2.382   1.355 -0.5215 -0.2122 -0.7949
 3201ntf    on521010   4.743   2.592   1.475 -0.1593 -0.1364  0.4201
 3201ntf    on521011   4.721   2.134   1.506  0.1129  0.1212 -0.2318
 3201ntf    on521012   4.620   2.170   1.716 -0.3436  0.4916 -0.1973
 3201ntf    fn421013   4.923   2.362   1.634  0.2604  0.0954  0.0090
 3201ntf    fn421014   4.821   2.325   1.818 -0.1848 -0.3643 -0.4021
 3201ntf    fn421015   4.927   2.172   1.709  0.0477 -0.0849  0.1012
 3202ntf    cn121016   2.539   2.745   2.138 -0.1248 -0.3443  0.1361
 3202ntf    sn221017   2.432   2.740   1.991 -0.2618  0.0264  0.2209
 3202ntf    nn321018   2.499   2.604   1.950 -0.2580  0.1718 -0.2618
 3202ntf    sn221019   2.431   2.463   1.937 -0.3094  0.1865 -0.1549
 3202ntf    cn121020   2.532   2.379   1.812 -0.1141 -0.0080  0.1326
 3202ntf    fn421021   2.662   2.783   2.108 -0.3624 -0.1609 -0.6083
 3202ntf    fn421022   2.496   2.833   2.228 -0.0966  0.0312 -0.2133
 3202ntf    fn421023   2.537   2.623   2.188 -0.0080 -0.4561 -0.1342
 3202ntf    on521024   2.296   2.731   2.036 -0.2933  0.3056  0.1832
 3202ntf    on521025   2.471   2.855   1.913  0.1411 -0.0843  0.2525
 3202ntf    on521026   2.294   2.456   1.892 -0.4291 -0.3839  0.2827
 3202ntf    on521027   2.446   2.390   2.060 -0.4447 -0.0745 -0.2926
 3202ntf    fn421028   2.500   2.407   1.686 -0.2844 -0.0316  0.1702
 3202ntf    fn421029   2.660   2.405   1.831 -0.0157 -0.6022  0.3056
 3202ntf    fn421030   2.523   2.247   1.818 -0.2206  0.0086  0.3455
 3203ntf    cn121031   6.531   6.564   4.552 -0.0639  0.0697  0.1351
 3203ntf    sn221032   6.422   6.433   4.490  0.1197  0.0674 -0.1872
 3203ntf    nn321033   6.495   6.303   4.539 -0.1533 -0.1088 -0.2428
 3203ntf    sn221034   6.423   6.167   4.572  0.0510 -0.1264  0.1328
 3203ntf    cn121035   6.549   6.047   4.520 -0.0063 -0.3261  0.4531
 3203ntf    fn421036   6.495   6.679   4.498  0.6781  0.3661  0.2530
 3203ntf    fn421037   6.528   6.585   4.682 -0.0926 -0.0018  0.1456
 3203ntf    fn421038   6.658   6.545   4.520  0.1062  0.2876  0.6653
 3203ntf    on521039   6.304   6.461   4.568  0.4264  0.8995 -0.0133
 3203ntf    on521040   6.416   6.450   4.347 -0.4325  0.0262 -0.1722
 3203ntf    on521041   6.308   6.140   4.490 -0.1471  0.3967  0.2330
 3203ntf    on521042   6.412   6.139   4.713 -0.6283 -0.1693  0.0724
 3203ntf    fn421043   6.589   6.086   4.400 -0.5076  0.1301  0.4311
 3203ntf    fn421044   6.656   6.054   4.597  0.1845 -0.0738  0.1687
 3203ntf    fn421045   6.513   5.919   4.514 -0.9900 -0.0385 -0.1363
 3204ntf    cn121046   1.275   6.163   4.208 -0.1215 -0.2751 -0.1248
 3204ntf    sn221047   1.203   6.120   4.370  0.2911 -0.2146  0.0774
 3204ntf    nn321048   1.305   6.193   4.463  0.0665  0.3796 -0.1370
 3204ntf    sn221049   1.416   6.140   4.561  0.1070  0.0420 -0.3653
 3204ntf    cn121050   1.553   6.257   4.536 -0.0349  0.3046  0.0721
 3204ntf    fn421051   1.259   6.290   4.176  0.1968 -0.1024  0.3880
 3204ntf    fn421052   1.405   6.138   4.212  0.0470  0.5996 -0.0808
 3204ntf    fn421053   1.218   6.091   4.113  0.0540 -0.4300 -0.1142
 3204ntf    on521054   1.077   6.191   4.370  0.1772 -0.4075 -0.3578
 3204ntf    on521055   1.192   5.977   4.386  0.2340 -0.1879  0.2734
 3204ntf    on521056   1.484   6.017   4.530  0.6520  0.1157  0.4952
 3204ntf    on521057   1.389   6.161   4.701  0.4144  0.2235 -0.3328
 3204ntf    fn421058   1.538   6.376   4.592 -0.0677  0.3527 -0.0382
 3204ntf    fn421059   1.666   6.203   4.579 -0.0409  0.3536  0.1503
 3204ntf    fn421060   1.574   6.286   4.409  0.6607 -0.3182  0.0399
 3205ntf    cn121061   2.909   0.195   0.101 -0.3998 -0.1530 -0.2830
 3205ntf    sn221062   2.764   0.134   0.193 -0.2937  0.3274  0.2065
 3205ntf    nn321063   2.828   0.044   0.304 -0.5000  0.2772  0.2849
 3205ntf    sn221064   2.851   0.079   0.456 -0.1510 -0.2668  0.3619
 3205ntf    cn121065   2.882  -0.089   0.518  0.0473 -0.2208  0.3876
 3205ntf    fn421066   2.984   0.103   0.043 -0.0621  0.2503 -0.4877
 3205ntf    fn421067   2.875   0.277   0.003  0.1960  0.0176 -0.3516
 3205ntf    fn421068   2.986   0.266   0.183 -0.0855 -0.4488 -0.3208
 3205ntf    on521069   2.690   0.247   0.244 -0.5643  0.1675  0.1656
 3205ntf    on521070   2.690   0.050   0.103  0.4025  0.1177 -0.1793
 3205ntf    on521071   2.738   0.109   0.540 -0.4619  0.1176 -0.1881
 3205ntf    on521072   2.976   0.148   0.478  0.1492 -0.5655 -0.3627
 3205ntf    fn421073   2.995  -0.142   0.473  0.1208  0.0437  0.2561
 3205ntf    fn421074   2.890  -0.080   0.649  0.4429  0.2924  0.3330
 3205ntf    fn421075   2.784  -0.173   0.491 -0.2380  0.3001 -0.2438
 3206ntf    cn121076   2.645   5.483   1.484  0.1451 -0.0022  0.1679
 3206ntf    sn221077   2.565   5.412   1.631 -0.1903 -0.2188 -0.1185
 3206ntf    nn321078   2.561   5.543   1.718  0.4871 -0.4088  0.2081
 3206ntf    sn221079   2.439   5.598   1.799  0.2883 -0.1742 -0.2437
 3206ntf    cn121080   2.357   5.717   1.689  0.3759 -0.0067 -0.1299
 3206ntf    fn421081   2.769   5.521   1.511  0.3246 -0.2355 -0.3060
 3206ntf    fn421082   2.664   5.394   1.388  0.0954  0.5212 -0.3328
 3206ntf    fn421083   2.577   5.581   1.427  0.5990  0.2257  0.0042
 3206ntf    on521084   2.440   5.365   1.578 -0.4091  0.5026 -0.2528
 3206ntf    on521085   2.664   5.315   1.673  0.2637  0.1332 -0.3620
 3206ntf    on521086   2.493   5.684   1.902  0.3265  0.1903 -0.5661
 3206ntf    on521087   2.339   5.501   1.837 -0.2703  0.4214 -0.1692
 3206ntf    fn421088   2.442   5.803   1.635  0.0272  0.2765 -0.2362
 3206ntf    fn421089   2.301   5.647   1.592 -0.3887 -0.0235  0.3151
 3206ntf    fn421090   2.264   5.788   1.750  0.8064  0.1062  0.4013
 3207ntf    cn121091   2.310   2.892   5.335  0.0353  0.1640  0.2615
 3207ntf    sn221092   2.461   2.992   5.314  0.0671 -0.0535 -0.5803
 3207ntf    nn321093   2.537   2.924   5.195  1.1843  0.0617  0.0522
 3207ntf    sn221094   2.520   2.946   5.041 -0.1493  0.0729  0.1924
 3207ntf    cn121095   2.672   3.032   4.993  0.1248 -0.3616  0.2736
 3207ntf    fn421096   2.338   2.763   5.346 -0.2123  0.1158  0.3214
 3207ntf    fn421097   2.236   2.941   5.434 -0.4477 -0.2980  0.1315
 3207ntf    fn421098   2.230   2.904   5.231 -0.2138 -0.4862  0.3756
 3207ntf    on521099   2.416   3.128   5.300 -0.2003 -0.0707  0.0559
 3207ntf    on521100   2.529   2.958   5.437 -0.5736 -0.1888 -0.2582
 3207ntf    on521101   2.413   3.036   5.005 -0.5287 -0.1169  0.8412
 3207ntf    on521102   2.511   2.821   4.970  0.0961  0.1854 -0.0370
 3207ntf    fn421103   2.776   2.950   5.002  0.3184 -0.1672 -0.1343
 3207ntf    fn421104   2.667   3.062   4.864  0.2835  0.3648  0.4295
 3207ntf    fn421105   2.700   3.142   5.060  0.0688 -0.3262  0.2391
 3208ntf    cn121106   0.472   3.889   4.033 -0.1112 -0.7564  0.0078
 3208ntf    sn221107   0.309   3.925   3.962  0.0020 -0.0048  0.1302
 3208ntf    nn321108   0.351   4.022   3.846  0.4605 -0.0408  0.2660
 3208ntf    sn221109   0.368   3.992   3.693 -0.2976 -0.1534  0.1990
 3208ntf    cn121110   0.288   4.146   3.638 -0.4642 -0.2383  0.2037
 3208ntf    fn421111   0.460   3.843   4.156 -0.0360  0.2018  0.3800
 3208ntf    fn421112   0.547   3.804   3.964  1.1520  0.2051  0.1696
 3208ntf    fn421113   0.541   3.999   4.052 -0.2012 -0.5995 -0.5502
 3208ntf    on521114   0.249   3.799   3.926  0.1085 -0.0567  0.1354
 3208ntf    on521115   0.247   4.000   4.069 -0.2668 -0.0340 -0.0039
 3208ntf    on521116   0.280   3.889   3.644 -0.4921 -0.1573  0.5584
 3208ntf    on521117   0.500   4.003   3.634 -0.3136  0.4957  0.2793
 3208ntf    fn421118   0.293   4.166   3.508 -0.2573  0.3945  0.3052
 3208ntf    fn421119   0.158   4.144   3.662 -0.5355  0.3247 -0.1221
 3208ntf    fn421120   0.350   4.250   3.691  0.2327 -0.6655  0.2355
 3209ntf    cn121121   6.944   4.398   2.614  0.0172 -0.1209  0.0185
 3209ntf    sn221122   7.059   4.515   2.694 -0.1205  0.1822 -0.2266
 3209ntf    nn321123   7.155   4.551   2.575  0.0605  0.2248 -0.0666
 3209ntf    sn221124   7.291   4.488   2.528  0.1307 -0.0531  0.4943
 3209ntf    cn121125   7.272   4.308   2.533 -0.0217 -0.0435  0.2697
 3209ntf    fn421126   7.002   4.280   2.600 -0.1294 -0.1798 -0.0864
 3209ntf    fn421127   6.839   4.374   2.690 -0.1002 -0.3377 -0.2106
 3209ntf    fn421128   6.895   4.439   2.498 -0.6094 -0.6215  0.1055
 3209ntf    on521129   6.973   4.623   2.735  0.1950  0.1238  0.6113
 3209ntf    on521130   7.123   4.439   2.798  0.4644 -0.6931 -1.2001
 3209ntf    on521131   7.405   4.510   2.614  0.3655  0.4894  0.0510
 3209ntf    on521132   7.306   4.510   2.386  0.4504  0.4514  0.6009
 3209ntf    fn421133   7.384   4.243   2.507  0.1812  0.3811  0.0894
 3209ntf    fn421134   7.219   4.264   2.646 -0.0337 -0.8335 -0.0361
 3209ntf    fn421135   7.185   4.268   2.441  0.0905 -0.0747  0.1766
 3210ntf    cn121136   2.140   4.425   3.759 -0.0661 -0.0764 -0.4347
 3210ntf    sn221137   2.260   4.313   3.681  0.3393  0.0372  0.0276
 3210ntf    nn321138   2.381   4.414   3.672  0.1332  0.2433 -0.4224
 3210ntf    sn221139   2.463   4.472   3.792 -0.1688  0.1611 -0.1740
 3210ntf    cn121140   2.618   4.377   3.780 -0.1383  0.0979  0.6355
 3210ntf    fn421141   2.155   4.546   3.708 -0.1344  0.1431  0.0589
 3210ntf    fn421142   2.011   4.399   3.748 -0.1098  0.0717 -0.2842
 3210ntf    fn421143   2.180   4.428   3.885 -0.0438 -0.1359 -0.4400
 3210ntf    on521144   2.281   4.205   3.774  0.0994 -0.1293 -0.1138
 3210ntf    on521145   2.209   4.285   3.550 -0.0935  0.1273  0.1761
 3210ntf    on521146   2.421   4.445   3.927 -0.4257  0.0815 -0.2698
 3210ntf    on521147   2.507   4.604   3.756 -0.2813  0.0564 -0.7002
 3210ntf    fn421148   2.688   4.390   3.669 -0.2014  0.0715  0.5918
 3210ntf    fn421149   2.703   4.406   3.877 -0.0185 -0.1629  0.6088
 3210ntf    fn421150   2.596   4.247   3.798  0.2674 -0.2288 -1.0373
 3211ntf    cn121151   5.836   1.264   6.544 -0.2406 -0.0246 -0.3322
 3211ntf    sn221152   5.988   1.164   6.546 -0.0834  0.2099 -0.4260
 3211ntf    nn321153   6.017   1.169   6.700  0.1694 -0.1578 -0.4595
 3211ntf    sn221154   6.123   1.101   6.794 -0.0878  0.2771  0.1575
 3211ntf    cn121155   6.244   1.233   6.825 -0.1891  0.3705  0.1515
 3211ntf    fn421156   5.766   1.274   6.655  0.0950 -0.3655 -0.0866
 3211ntf    fn421157   5.864   1.391   6.517 -0.0307 -0.0938 -0.4458
 3211ntf    fn421158   5.753   1.217   6.452  0.0990  0.0158 -0.6641
 3211ntf    on521159   5.947   1.032   6.506  0.0201 -0.1896  0.7334
 3211ntf    on521160   6.076   1.241   6.462  0.2246 -0.3250 -0.6034
 3211ntf    on521161   6.208   1.007   6.725 -1.0176 -0.1110 -0.4763
 3211ntf    on521162   6.067   1.055   6.919 -0.4814  0.1774 -0.0518
 3211ntf    fn421163   6.300   1.272   6.712  0.0083 -0.2292  0.0371
 3211ntf    fn421164   6.197   1.345   6.878  0.1683  0.5968 -0.0079
 3211ntf    fn421165   6.337   1.192   6.910 -0.1529  0.3628  0.1078
 3212ntf    cn121166   5.874   5.671   5.346 -0.1971  0.2695  0.3006
 3212ntf    sn221167   5.968   5.730   5.201 -0.1420 -0.0191  0.2181
 3212ntf    nn321168   5.889   5.865   5.181 -0.0218  0.0076 -0.0791
 3212ntf    sn221169   5.948   6.005   5.219 -0.0924  0.0068  0.0363
 3212ntf    cn121170   5.928   6.085   5.057  0.0061  0.2695  0.1532
 3212ntf    fn421171   5.909   5.547   5.376 -0.9360 -0.1912 -0.6752
 3212ntf    fn421172   5.889   5.751   5.451 -0.1378  0.1371  0.3927
 3212ntf    fn421173   5.745   5.677   5.317  0.0633  0.1829 -0.9183
 3212ntf    on521174   6.106   5.732   5.242 -0.0305  0.9915 -0.1740
 3212ntf    on521175   5.942   5.640   5.092  0.2045  0.8140 -0.5647
 3212ntf    on521176   6.089   6.031   5.236 -0.0806  0.0648 -0.1465
 3212ntf    on521177   5.852   6.072   5.302  0.2166  0.4836  0.0148
 3212ntf    fn421178   5.979   6.207   5.066  0.8242 -0.0551 -0.0424
 3212ntf    fn421179   5.987   6.014   4.962 -0.1850  0.0416  0.2075
 3212ntf    fn421180   5.801   6.095   5.021  0.1384  0.2386 -0.3253
 3213ntf    cn121181   3.644   2.998   3.789 -0.0869  0.1810 -0.0582
 3213ntf    sn221182   3.599   2.824   3.757  0.0440  0.1649 -0.1548
 3213ntf    nn321183   3.456   2.845   3.694 -0.1125  0.2618  0.2278
 3213ntf    sn221184   3.322   2.817   3.770 -0.1327  0.0713  0.1238
 3213ntf    cn121185   3.315   2.637   3.747  0.0734  0.0867 -0.0635
 3213ntf    fn421186   3.564   3.054   3.878  0.0353 -0.2265  0.3081
 3213ntf    fn421187   3.767   3.012   3.835  0.1561 -0.3081 -0.5381
 3213ntf    fn421188   3.636   3.070   3.678  0.2101  0.4744  0.1141
 3213ntf    on521189   3.693   2.781   3.656 -0.5267 -0.0993 -0.5835
 3213ntf    on521190   3.608   2.756   3.883  0.2398  0.1323 -0.1861
 3213ntf    on521191   3.214   2.873   3.693  0.0917  0.6621  0.2315
 3213ntf    on521192   3.318   2.837   3.913  0.3719  0.8436  0.0398
 3213ntf    fn421193   3.321   2.594   3.622 -0.2638 -0.2692  0.0376
 3213ntf    fn421194   3.408   2.565   3.807 -0.3091 -0.5561 -0.2259
 3213ntf    fn421195   3.194   2.596   3.783  0.1605  0.0272  0.1605
 3214ntf    cn121196   0.414   2.265   2.753  0.2115 -0.2687 -0.2037
 3214ntf    sn221197   0.305   2.220   2.615 -0.0649  0.0503 -0.0897
 3214ntf    nn321198   0.391   2.237   2.485  0.2123  0.3612  0.1320
 3214ntf    sn221199   0.453   2.128   2.390 -0.0365 -0.0203  0.4064
 3214ntf    cn121200   0.626   2.182   2.395 -0.1110  0.2470  0.1272
 3214ntf    fn421201   0.369   2.223   2.870  0.1744 -0.0616 -0.1434
 3214ntf    fn421202   0.538   2.222   2.732  0.2601 -0.1636 -0.1311
 3214ntf    fn421203   0.423   2.396   2.764  0.0324 -0.3011  0.3318
 3214ntf    on521204   0.286   2.080   2.643  0.2971  0.0356  0.0830
 3214ntf    on521205   0.198   2.316   2.629  0.4329  0.6177 -0.1659
 3214ntf    on521206   0.409   2.149   2.255  0.2379 -0.1405  0.2967
 3214ntf    on521207   0.468   1.991   2.433  0.1026 -0.2017 -0.2062
 3214ntf    fn421208   0.710   2.107   2.325  0.1188  0.5017  0.1271
 3214ntf    fn421209   0.634   2.307   2.352  0.0543  0.0731 -0.3583
 3214ntf    fn421210   0.668   2.184   2.520 -0.2819  0.2198  0.1856
 3215ntf    cn121211   1.210   2.520   3.787  0.0286 -0.2208  0.1812
 3215ntf    sn221212   1.201   2.380   3.672 -0.2938  0.1036 -0.1909
 3215ntf    nn321213   1.058   2.336   3.721  0.1684 -0.1829  0.9185
 3215ntf    sn221214   0.930   2.325   3.631  0.5817 -0.0775  0.3089
 3215ntf    cn121215   0.818   2.297   3.772  0.1817 -0.3753 -0.0649
 3215ntf    fn421216   1.102   2.596   3.777  0.2166  0.0044 -0.1434
 3215ntf    fn421217   1.226   2.491   3.915 -0.5375 -0.0120  0.3040
 3215ntf    fn421218   1.310   2.601   3.759 -0.3453  0.2559  0.2114
 3215ntf    on521219   1.218   2.435   3.539  0.6803 -0.0425 -0.1301
 3215ntf    on521220   1.289   2.278   3.723 -0.8142 -0.1831  0.1481
 3215ntf    on521221   0.923   2.200   3.560 -0.3936  0.1962 -0.0867
 3215ntf    on521222   0.879   2.445   3.570 -0.3847 -0.4216  0.4258
 3215ntf    fn421223   0.815   2.400   3.854 -0.2583 -0.3057 -0.1664
 3215ntf    fn421224   0.693   2.276   3.736 -0.2801  0.7804  0.7930
 3215ntf    fn421225   0.851   2.189   3.841  0.4872 -0.8055 -0.8697
 3216ntf    cn121226   6.851   6.361   2.615 -0.1754 -0.3068  0.1701
 3216ntf    sn221227   6.799   6.313   2.447  0.1613  0.0752 -0.0455
 3216ntf    nn321228   6.912   6.389   2.369 -0.4418  0.8716 -0.1600
 3216ntf    sn221229   6.915   6.421   2.215  0.0240  0.2199 -0.2915
 3216ntf    cn121230   7.044   6.298   2.179  0.0511  0.2124 -0.1698
 3216ntf    fn421231   6.854   6.492   2.632 -0.4103 -0.2231 -0.3813
 3216ntf    fn421232   6.758   6.314   2.696 -0.4182  0.6714  0.4691
 3216ntf    fn421233   6.969   6.315   2.655 -0.1444  0.1109  0.5669
 3216ntf    on521234   6.811   6.170   2.441  0.3750  0.1146 -0.6888
 3216ntf    on521235   6.671   6.378   2.432  0.0847 -0.0820 -0.0815
 3216ntf    on521236   6.976   6.549   2.188 -0.3214  0.4343 -0.0612
 3216ntf    on521237   6.798   6.378   2.143 -0.1784  0.4895 -0.1245
 3216ntf    fn421238   6.998   6.175   2.173  0.0602  0.2059 -0.0975
 3216ntf    fn421239   7.085   6.325   2.056  0.3282 -0.0231 -0.1302
 3216ntf    fn421240   7.149   6.298   2.259 -0.1885  0.4867  0.1444
 3217ntf    cn121241   0.093   2.414   5.795 -0.0444 -0.0970  0.1885
 3217ntf    sn221242  -0.007   2.282   5.870  0.2369 -0.3617  0.0987
 3217ntf    nn321243   0.014   2.172   5.759 -0.6489 -0.3072 -0.1277
 3217ntf    sn221244   0.093   2.038   5.782  0.0646  0.0838 -0.2788
 3217ntf    cn121245   0.128   1.971   5.616 -0.0677 -0.4633 -0.0875
 3217ntf    fn421246   0.044   2.475   5.689  0.2424 -0.1900  0.0002
 3217ntf    fn421247   0.138   2.502   5.883  0.3970  0.1286 -0.2594
 3217ntf    fn421248   0.210   2.369   5.751 -0.0861  0.2831 -0.3187
 3217ntf    on521249   0.059   2.272   5.997  0.4478 -0.4045 -0.0125
 3217ntf    on521250  -0.137   2.344   5.873  0.2025 -0.4415  0.2741
 3217ntf    on521251   0.016   1.938   5.852  0.0190  0.3437  0.0435
 3217ntf    on521252   0.231   2.047   5.822  0.1519 -0.6379 -0.3940
 3217ntf    fn421253   0.205   1.864   5.618  0.0808 -0.3515  0.2420
 3217ntf    fn421254   0.020   1.929   5.552 -0.1026 -0.2855 -0.1460
 3217ntf    fn421255   0.177   2.062   5.534 -0.5761 -0.1930 -0.0953
 3218ntf    cn121256   5.657   3.336   0.023  0.5573 -0.2587  0.2405
 3218ntf    sn221257   5.797   3.401   0.120  0.6093 -0.3525  0.2294
 3218ntf    nn321258   5.840   3.523   0.031 -0.0619 -0.3259 -0.0698
 3218ntf    sn221259   5.918   3.650   0.080  0.1220 -0.4349 -0.0760
 3218ntf    cn121260   6.059   3.648  -0.036  0.0952  0.2639 -0.1257
 3218ntf    fn421261   5.588   3.246   0.092  0.4108 -0.3368 -0.0084
 3218ntf    fn421262   5.575   3.438  -0.000  0.2197 -0.5288  0.2409
 3218ntf    fn421263   5.682   3.283  -0.095  0.3519  0.0547  0.0544
 3218ntf    on521264   5.734   3.440   0.244  0.1099  0.3997 -0.2477
 3218ntf    on521265   5.887   3.289   0.128  0.1127 -0.7926 -0.2312
 3218ntf    on521266   5.993   3.640   0.202  0.1290 -0.2968 -0.0685
 3218ntf    on521267   5.851   3.771   0.036  0.1230 -0.4523 -0.1262
 3218ntf    fn421268   6.155   3.734  -0.005 -0.0035  0.2366  0.2603
 3218ntf    fn421269   6.126   3.535  -0.037 -0.0065  0.2083 -0.6038
 3218ntf    fn421270   6.019   3.675  -0.159 -0.3285  0.0605 -0.0358
 3219ntf    cn121271   5.577   0.765   0.461 -0.0997 -0.0726  0.0903
 3219ntf    sn221272   5.428   0.722   0.556 -0.3106  0.1314 -0.1474
 3219ntf    nn321273   5.401   0.863   0.620 -0.4674  0.2459 -0.4657
 3219ntf    sn221274   5.326   0.888   0.756 -0.4083 -0.4229 -0.3092
 3219ntf    cn121275   5.471   0.956   0.842 -0.6108  0.0790 -0.3620
 3219ntf    fn421276   5.550   0.856   0.369 -0.2360  0.1687  0.3695
 3219ntf    fn421277   5.682   0.804   0.530 -0.2530  0.1212  0.2160
 3219ntf    fn421278   5.617   0.654   0.400 -0.0457  0.0439 -0.0887
 3219ntf    on521279   5.326   0.682   0.462  0.3646  0.5268 -1.0700
 3219ntf    on521280   5.482   0.621   0.643 -0.2206  0.0944 -0.2468
 3219ntf    on521281   5.285   0.777   0.838  0.4874 -0.2616  0.3594
 3219ntf    on521282   5.234   0.998   0.741  0.6424  0.5180  0.0008
 3219ntf    fn421283   5.448   0.985   0.969  0.0849 -0.1143 -0.1928
 3219ntf    fn421284   5.572   0.871   0.834 -0.9362 -0.3052 -0.4858
 3219ntf    fn421285   5.517   1.066   0.786 -0.0550 -0.1270 -0.3193
 3220ntf    cn121286   1.238   0.361   6.865 -0.5085 -0.1214  0.1552
 3220ntf    sn221287   1.105   0.351   6.742 -0.2491 -0.3052 -0.1116
 3220ntf    nn321288   1.169   0.424   6.618 -0.5655 -0.1814 -0.2048
 3220ntf    sn221289   1.260   0.373   6.501  0.0204  0.1534  0.0980
 3220ntf    cn121290   1.161   0.434   6.361  0.2917 -0.2819 -0.2873
 3220ntf    fn421291   1.302   0.477   6.871 -0.0692 -0.3492 -0.0650
 3220ntf    fn421292   1.195   0.345   6.989 -0.0153 -0.4879  0.2813
 3220ntf    fn421293   1.335   0.274   6.843 -0.3310  0.2323 -0.5024
 3220ntf    on521294   1.069   0.212   6.731 -0.7267 -0.2050  0.1560
 3220ntf    on521295   1.008   0.441   6.800  0.3221 -0.0223  0.4178
 3220ntf    on521296   1.268   0.230   6.481 -0.6755  0.1177  0.0720
 3220ntf    on521297   1.384   0.446   6.489 -0.4012  0.7699 -0.5346
 3220ntf    fn421298   1.232   0.424   6.249  0.4613 -0.1003 -0.1976
 3220ntf    fn421299   1.047   0.369   6.351 -0.1222  0.3878  0.0223
 3220ntf    fn421300   1.139   0.563   6.378  0.1844 -0.3180 -0.1538
 3221ntf    cn121301   2.855   3.454   1.865  0.1065  0.2408 -0.0350
 3221ntf    sn221302   2.964   3.524   1.992  0.0913  0.1541  0.0260
 3221ntf    nn321303   2.892   3.461   2.116  0.1814 -0.6373 -0.3147
 3221ntf    sn221304   2.867   3.529   2.256  0.1062  0.1144 -0.6887
 3221ntf    cn121305   2.883   3.388   2.369  0.0179  0.2210 -0.5437
 3221ntf    fn421306   2.851   3.322   1.866  0.3799  0.2316 -0.2208
 3221ntf    fn421307   2.728   3.484   1.887  0.0493  0.5521 -0.7528
 3221ntf    fn421308   2.889   3.483   1.740  0.3229 -0.1936 -0.0772
 3221ntf    on521309   3.092   3.465   1.960 -0.0036  0.1651 -0.3757
 3221ntf    on521310   2.951   3.667   1.973 -0.1137  0.1282 -0.0307
 3221ntf    on521311   2.730   3.567   2.277  0.3336  0.3878  0.3507
 3221ntf    on521312   2.970   3.623   2.293 -0.2811  0.0473  0.5862
 3221ntf    fn421313   2.984   3.314   2.329 -0.3130 -0.3498 -0.3358
 3221ntf    fn421314   2.912   3.425   2.493 -0.1271  0.1332 -0.4827
 3221ntf    fn421315   2.773   3.313   2.372  0.1489  0.0489  0.1595
 3222ntf    cn121316   1.434   5.040   3.338  0.0348 -0.0813  0.6940
 3222ntf    sn221317   1.604   5.058   3.400  0.1889 -0.0119  0.2608
 3222ntf    nn321318   1.667   5.142   3.284  0.7556 -0.7679  0.0118
 3222ntf    sn221319   1.725   5.288   3.279 -0.0380 -0.4449  0.0123
 3222ntf    cn121320   1.579   5.381   3.223  0.3186  0.0393 -0.1204
 3222ntf    fn421321   1.382   5.158   3.311 -0.0878 -0.2750  0.0542
 3222ntf    fn421322   1.431   4.967   3.227  0.2982  0.0277  0.6136
 3222ntf    fn421323   1.352   4.977   3.420  0.1469 -0.2671  0.6650
 3222ntf    on521324   1.584   5.129   3.525  0.4656  0.0294  0.2836
 3222ntf    on521325   1.654   4.923   3.412 -0.2168 -0.2210 -0.3836
 3222ntf    on521326   1.817   5.311   3.170 -0.3847 -0.4534 -0.2828
 3222ntf    on521327   1.766   5.344   3.405 -0.3036 -0.0643 -0.0692
 3222ntf    fn421328   1.512   5.307   3.137 -0.0725 -0.1048  0.3055
 3222ntf    fn421329   1.500   5.409   3.326  0.2538  0.0211 -0.1651
 3222ntf    fn421330   1.609   5.497   3.168  0.5770  0.1699  0.2893
 3223ntf    cn121331   0.844   1.600   6.960 -0.0379  0.3438  0.4496
 3223ntf    sn221332   0.888   1.693   6.810  0.3585 -0.0929  0.2933
 3223ntf    nn321333   1.034   1.738   6.847  0.3366 -0.2469  0.5734
 3223ntf    sn221334   1.107   1.875   6.820  0.3020 -0.2736  0.3418
 3223ntf    cn121335   1.138   1.923   6.992 -0.1847  0.1873  0.3039
 3223ntf    fn421336   0.834   1.691   7.055  0.2425  0.5384  0.2944
 3223ntf    fn421337   0.727   1.538   6.947  0.3614 -0.2491 -0.4518
 3223ntf    fn421338   0.933   1.507   6.988  0.0311  0.2500 -0.0667
 3223ntf    on521339   0.872   1.586   6.714 -0.2859 -0.2135  0.5271
 3223ntf    on521340   0.793   1.801   6.807  0.1228 -0.3121 -0.3231
 3223ntf    on521341   1.029   1.983   6.766  0.3895 -0.3411  0.0764
 3223ntf    on521342   1.239   1.865   6.763  0.4405 -0.0130  0.6184
 3223ntf    fn421343   1.214   1.833   7.054 -0.6142 -0.3168  0.1031
 3223ntf    fn421344   1.202   2.039   7.000 -0.2397  0.2488 -0.1302
 3223ntf    fn421345   1.026   1.934   7.060  0.0255  0.1880  0.6543
 3224ntf    cn121346   2.625   6.004   4.588 -0.0984  0.1113  0.2589
 3224ntf    sn221347   2.701   6.125   4.476 -0.0082 -0.1592  0.0292
 3224ntf    nn321348   2.683   6.251   4.567 -0.2287 -0.2545  0.1187
 3224ntf    sn221349   2.610   6.388   4.544 -0.0924 -0.2212 -0.1155
 3224ntf    cn121350   2.734   6.506   4.481 -0.0196  0.0167  0.4659
 3224ntf    fn421351   2.502   6.030   4.630 -0.1823 -0.0811  0.1322
 3224ntf    fn421352   2.616   5.886   4.530 -0.2222  0.5371 -0.5921
 3224ntf    fn421353   2.701   5.995   4.696  0.2098 -0.6544 -0.0159
 3224ntf    on521354   2.839   6.092   4.451  0.1074 -0.0958  0.5744
 3224ntf    on521355   2.616   6.127   4.359  0.0661  0.1932 -0.0195
 3224ntf    on521356   2.574   6.449   4.669 -0.2383  0.0019 -0.2676
 3224ntf    on521357   2.505   6.385   4.446 -0.4720  0.2973  0.2743
 3224ntf    fn421358   2.773   6.471   4.360 -0.0598  0.0084  0.4548
 3224ntf    fn421359   2.688   6.629   4.468 -0.1038 -0.0176  0.4325
 3224ntf    fn421360   2.837   6.513   4.563  0.2873 -0.8851  0.1733
 3225ntf    cn121361   4.255   1.406   3.515  0.4298  0.1991 -0.1522
 3225ntf    sn221362   4.119   1.504   3.445  0.1274 -0.0496  0.0864
 3225ntf    nn321363   4.134   1.649   3.504  0.0251 -0.0965  0.2281
 3225ntf    sn221364   4.181   1.783   3.437 -0.2046  0.0102  0.2789
 3225ntf    cn121365   4.352   1.781   3.498 -0.0057 -0.4042 -0.2805
 3225ntf    fn421366   4.381   1.439   3.494  0.2579  0.3874 -0.9398
 3225ntf    fn421367   4.240   1.397   3.646  0.0680 -0.4921 -0.2358
 3225ntf    fn421368   4.242   1.281   3.474  0.1946  0.1220  0.1616
 3225ntf    on521369   4.146   1.487   3.304 -0.0593  0.5543 -0.0255
 3225ntf    on521370   4.002   1.447   3.506 -0.0136  0.5586  0.3946
 3225ntf    on521371   4.122   1.901   3.493 -0.4305  0.0081  0.0488
 3225ntf    on521372   4.191   1.782   3.293 -0.0616  0.2539  0.2869
 3225ntf    fn421373   4.361   1.749   3.626 -0.0872 -0.3726 -0.2674
 3225ntf    fn421374   4.421   1.684   3.440  0.7025 -0.1469  0.1215
 3225ntf    fn421375   4.419   1.893   3.476  0.2468 -0.2583  1.1586
 3226ntf    cn121376   4.836   1.998   5.721 -0.1042  0.2956  0.0170
 3226ntf    sn221377   4.747   2.122   5.820 -0.1481  0.3049 -0.0348
 3226ntf    nn321378   4.867   2.169   5.908  0.2786 -0.2019 -0.3399
 3226ntf    sn221379   4.876   2.175   6.065  0.1384  0.2404 -0.3453
 3226ntf    cn121380   4.980   2.028   6.093 -0.3615 -0.0690 -0.1027
 3226ntf    fn421381   4.768   1.935   5.627 -0.2587  0.1894  0.1985
 3226ntf    fn421382   4.938   2.048   5.654  0.1489 -0.2950 -0.0434
 3226ntf    fn421383   4.882   1.898   5.794 -0.1530 -0.0168 -0.3814
 3226ntf    on521384   4.705   2.224   5.726 -0.2221  0.2183 -0.0948
 3226ntf    on521385   4.643   2.045   5.884  0.2568 -0.2665 -0.0636
 3226ntf    on521386   4.758   2.141   6.141  0.1230  0.4221 -0.2901
 3226ntf    on521387   4.957   2.281   6.118 -0.0317  0.2359 -0.0743
 3226ntf    fn421388   5.013   2.025   6.221  0.5687  0.2708 -0.3345
 3226ntf    fn421389   4.921   1.912   6.067 -0.5393  0.0384 -0.1843
 3226ntf    fn421390   5.090   2.029   6.020  0.0374  0.5517  0.4995
 3227ntf    cn121391   6.563   3.869   5.259 -0.1599  0.0883 -0.2137
 3227ntf    sn221392   6.712   3.771   5.292 -0.2424 -0.0810 -0.3358
 3227ntf    nn321393   6.727   3.774   5.448 -0.0744 -0.2497 -0.3483
 3227ntf    sn221394   6.672   3.674   5.556  0.0636  0.0515  0.0068
 3227ntf    cn121395   6.809   3.556   5.577 -0.0201 -0.1428 -0.5075
 3227ntf    fn421396   6.526   3.865   5.132 -0.2984  0.5512 -0.1886
 3227ntf    fn421397   6.466   3.831   5.341  0.1701  0.2259  0.2416
 3227ntf    fn421398   6.582   3.998   5.284 -0.0305 -0.0072  0.1947
 3227ntf    on521399   6.700   3.641   5.231  0.1280 -0.1243 -0.3192
 3227ntf    on521400   6.805   3.855   5.219  0.4011 -0.3095  0.2138
 3227ntf    on521401   6.567   3.589   5.506 -0.0947  0.2550 -0.0072
 3227ntf    on521402   6.651   3.738   5.683 -0.0455 -0.0547  0.0424
 3227ntf    fn421403   6.769   3.454   5.650 -0.3210  0.1688 -0.2331
 3227ntf    fn421404   6.861   3.507   5.466  0.7062  0.0574 -0.2637
 3227ntf    fn421405   6.910   3.616   5.639 -0.4806  0.0244  0.0821
 3228ntf    cn121406   3.461   0.193   1.093 -0.2943 -0.3016  0.4291
 3228ntf    sn221407   3.610   0.180   0.990 -0.2279 -0.0446  0.4936
 3228ntf    nn321408   3.544   0.142   0.853  0.2800 -0.2493  0.3024
 3228ntf    sn221409   3.608   0.093   0.718  0.0662 -0.2090  0.1867
 3228ntf    cn121410   3.466   0.002   0.648  0.0411  0.1579 -0.2458
 3228ntf    fn421411   3.488   0.220   1.220 -0.3603  0.8804  0.1999
 3228ntf    fn421412   3.374   0.284   1.055 -0.0970 -0.1770  0.2744
 3228ntf    fn421413   3.393   0.079   1.101 -0.1248 -0.3907  0.6172
 3228ntf    on521414   3.664   0.314   0.989 -0.1051 -0.0937  0.0997
 3228ntf    on521415   3.693   0.079   1.051 -0.4593 -0.6161 -0.1327
 3228ntf    on521416   3.711  -0.007   0.730  0.4002  0.1092  0.0033
 3228ntf    on521417   3.619   0.204   0.626  0.0861 -0.1516  0.2588
 3228ntf    fn421418   3.360   0.076   0.621 -0.1881 -0.2142 -0.3680
 3228ntf    fn421419   3.497  -0.056   0.533 -0.0258  0.0906 -0.2295
 3228ntf    fn421420   3.429  -0.094   0.731 -0.2593  0.0608 -0.4908
 3229ntf    cn121421   3.169   3.366   5.432  0.2384 -0.2049 -0.2271
 3229ntf    sn221422   3.043   3.496   5.449  0.1919 -0.2724 -0.0471
 3229ntf    nn321423   3.140   3.619   5.452 -0.3014  0.1143  0.1559
 3229ntf    sn221424   3.226   3.677   5.334 -0.0124  0.0975  0.3569
 3229ntf    cn121425   3.184   3.854   5.338  0.3803  0.2032 -0.0705
 3229ntf    fn421426   3.248   3.375   5.326  0.1802  0.3293 -0.2273
 3229ntf    fn421427   3.242   3.357   5.542  0.0995 -0.1805 -0.1323
 3229ntf    fn421428   3.106   3.250   5.420  0.1081 -0.1888  0.2938
 3229ntf    on521429   2.951   3.484   5.338 -0.1949 -0.3339  0.2787
 3229ntf    on521430   2.994   3.479   5.583  0.1172 -0.6318 -0.1181
 3229ntf    on521431   3.185   3.630   5.204 -0.1320 -0.1489  0.4829
 3229ntf    on521432   3.369   3.683   5.355  0.0014 -0.1506  0.3479
 3229ntf    fn421433   3.056   3.877   5.360  0.3038 -0.0296 -0.2608
 3229ntf    fn421434   3.242   3.921   5.436  0.7197 -0.4208  0.1662
 3229ntf    fn421435   3.214   3.909   5.222 -0.3246  0.2598 -0.2292
 3230ntf    cn121436   3.198   1.045   1.998  0.0619 -0.3401  0.1096
 3230ntf    sn221437   3.092   1.057   2.146  0.0788 -0.0609  0.1000
 3230ntf    nn321438   3.092   0.912   2.207  0.2738  0.1493  0.6064
 3230ntf    sn221439   2.980   0.802   2.210  0.2360  0.1569 -0.1473
 3230ntf    cn121440   3.009   0.729   2.374 -0.0448  0.2533 -0.0536
 3230ntf    fn421441   3.142   0.955   1.919 -0.2268 -0.1698  0.1166
 3230ntf    fn421442   3.216   1.159   1.932  0.5246 -0.1716  0.5169
 3230ntf    fn421443   3.313   0.985   2.021  0.3322  0.0471 -0.2261
 3230ntf    on521444   3.158   1.148   2.237 -0.0569  0.5026 -0.3606
 3230ntf    on521445   2.969   1.111   2.095 -0.0931 -0.2335  0.3292
 3230ntf    on521446   3.004   0.691   2.122  0.5832 -0.2123  0.4033
 3230ntf    on521447   2.844   0.846   2.228  0.1687 -0.2686  0.4186
 3230ntf    fn421448   3.024   0.821   2.467  0.3829  0.1286  0.0036
 3230ntf    fn421449   2.911   0.647   2.410  0.1549  0.1381  0.2340
 3230ntf    fn421450   3.124   0.663   2.370  0.0813  0.4072  0.7872
 3231ntf    cn121451   1.623   0.528   3.744 -0.1944  0.2634 -0.1657
 3231ntf    sn221452   1.756   0.418   3.688 -0.2199 -0.0110  0.3083
 3231ntf    nn321453   1.802   0.498   3.562  0.0968 -0.0841  0.3758
 3231ntf    sn221454   1.931   0.586   3.549  0.0282 -0.0587 -0.1682
 3231ntf    cn121455   2.051   0.460   3.496  0.2272  0.0225  0.0828
 3231ntf    fn421456   1.548   0.576   3.647  0.2029 -0.2836 -0.7464
 3231ntf    fn421457   1.545   0.459   3.826 -0.4056  0.7340  0.0374
 3231ntf    fn421458   1.673   0.628   3.815 -0.8168  0.7234 -0.3687
 3231ntf    on521459   1.849   0.404   3.797  0.1894 -0.3765 -0.0852
 3231ntf    on521460   1.685   0.299   3.649  0.1060 -0.0997 -0.0137
 3231ntf    on521461   1.984   0.637   3.673  0.0104  0.1183 -0.2329
 3231ntf    on521462   1.922   0.679   3.439  0.0123  0.3034  0.1358
 3231ntf    fn421463   2.085   0.381   3.596  0.4006 -0.6316 -0.4806
 3231ntf    fn421464   2.009   0.388   3.392  1.1593 -0.1101 -0.2118
 3231ntf    fn421465   2.162   0.520   3.457 -0.0064  0.1704 -0.3632
 3232ntf    cn121466   3.098   3.358   2.923  0.2584  0.1778 -0.2595
 3232ntf    sn221467   3.031   3.476   3.044  0.2953 -0.1256  0.0582
 3232ntf    nn321468   3.157   3.567   3.059  0.0807  0.2293 -0.2819
 3232ntf    sn221469   3.268   3.572   3.170 -0.2346 -0.0222  0.0468
 3232ntf    cn121470   3.181   3.685   3.283 -0.1692  0.1670 -0.0920
 3232ntf    fn421471   3.226   3.337   2.949  0.1962 -0.3564 -0.3807
 3232ntf    fn421472   3.042   3.238   2.932  0.1386  0.2769  0.3911
 3232ntf    fn421473   3.085   3.393   2.796 -0.0200 -0.2200 -0.3421
 3232ntf    on521474   2.920   3.539   2.977 -0.0262 -0.7073  0.0280
 3232ntf    on521475   2.993   3.403   3.163 -0.1125 -0.3507 -0.2037
 3232ntf    on521476   3.383   3.640   3.118 -0.0750 -0.3365 -0.0143
 3232ntf    on521477   3.291   3.447   3.238 -0.3454 -0.2770 -0.3800
 3232ntf    fn421478   3.199   3.656   3.411 -0.0545  0.2123 -0.0981
 3232ntf    fn421479   3.228   3.808   3.272 -0.8014  0.4464  0.2765
 3232ntf    fn421480   3.051   3.688   3.257 -0.2132 -0.2012  0.0771
 3233ntf    cn121481   5.286   6.619   5.268 -0.1386 -0.0318 -0.0689
 3233ntf    sn221482   5.220   6.651   5.434 -0.0466 -0.1526 -0.0088
 3233ntf    nn321483   5.348   6.621   5.521 -0.1160 -0.2508  0.0590
 3233ntf    sn221484   5.378   6.493   5.606  0.2604 -0.2864 -0.1299
 3233ntf    cn121485   5.447   6.579   5.750  0.3655 -0.3197 -0.1594
 3233ntf    fn421486   5.336   6.497   5.251 -0.0295 -0.0172  0.1479
 3233ntf    fn421487   5.193   6.637   5.176 -0.2615 -0.6904 -0.0849
 3233ntf    fn421488   5.385   6.704   5.246 -0.5541  0.2912 -0.7135
 3233ntf    on521489   5.205   6.794   5.446  0.1126 -0.1913  0.7609
 3233ntf    on521490   5.104   6.566   5.442 -0.1817  0.0192 -0.1327
 3233ntf    on521491   5.495   6.421   5.562  0.3139 -0.5694  0.4618
 3233ntf    on521492   5.268   6.419   5.662 -0.1969  0.4889  0.0079
 3233ntf    fn421493   5.568   6.628   5.727  0.3882 -0.4030 -0.2155
 3233ntf    fn421494   5.374   6.681   5.793  0.0172 -0.5676 -0.1550
 3233ntf    fn421495   5.448   6.498   5.855 -0.1285 -0.3936 -0.2085
 3234ntf    cn121496   3.580   0.860   1.721 -0.4495 -0.3020  0.2066
 3234ntf    sn221497   3.632   0.985   1.599 -0.2639 -0.5283  0.0527
 3234ntf    nn321498   3.663   1.107   1.694 -0.3701 -0.5362  0.0975
 3234ntf    sn221499   3.805   1.164   1.729 -0.2801 -0.8124  0.1844
 3234ntf    cn121500   3.784   1.281   1.867  0.0784 -0.1566 -0.3120
 3234ntf    fn421501   3.568   0.742   1.664  0.0048 -0.3268  0.1587
 3234ntf    fn421502   3.669   0.844   1.817  0.1194  0.1233 -0.2360
 3234ntf    fn421503   3.471   0.892   1.789 -0.3759  0.0604  0.1555
 3234ntf    on521504   3.750   0.929   1.538  0.0877  0.2933 -0.0451
 3234ntf    on521505   3.511   1.005   1.524 -0.2858  0.2436  0.2782
 3234ntf    on521506   3.863   1.250   1.629 -0.9322 -0.1256  0.3891
 3234ntf    on521507   3.875   1.055   1.793  0.3328 -0.0937  0.7655
 3234ntf    fn421508   3.693   1.374   1.844 -0.2124 -0.3005  0.2317
 3234ntf    fn421509   3.741   1.222   1.978 -0.0019  0.0734 -0.2216
 3234ntf    fn421510   3.894   1.350   1.892  0.0558 -0.1810 -0.1445
 3235ntf    cn121511   2.825   3.226   6.242 -0.2975 -0.0613 -0.2644
 3235ntf    sn221512   2.886   3.231   6.071 -0.3201  0.2508 -0.2636
 3235ntf    nn321513   2.758   3.295   6.005 -0.3919  0.4493  0.0676
 3235ntf    sn221514   2.644   3.223   5.925  0.0030 -0.0023 -0.0919
 3235ntf    cn121515   2.585   3.366   5.830  0.2234  0.1125 -0.0581
 3235ntf    fn421516   2.917   3.185   6.329 -0.3145  0.1359 -0.1532
 3235ntf    fn421517   2.789   3.346   6.282 -0.3582 -0.0519 -0.3494
 3235ntf    fn421518   2.717   3.151   6.259 -0.2474 -0.0778 -0.0100
 3235ntf    on521519   2.996   3.324   6.070 -0.2636  0.2178  1.1914
 3235ntf    on521520   2.911   3.091   6.045 -0.0168  0.3211 -0.3588
 3235ntf    on521521   2.539   3.182   6.015  0.0957  0.2742  0.1427
 3235ntf    on521522   2.690   3.138   5.818  0.3356  0.0496  0.0067
 3235ntf    fn421523   2.684   3.433   5.773  0.5337 -0.3114 -0.0238
 3235ntf    fn421524   2.512   3.324   5.727 -0.3747  0.3291  0.2699
 3235ntf    fn421525   2.521   3.447   5.913 -0.0893  0.2211 -0.3972
 3236ntf    cn121526   0.782   4.666   4.504 -0.1119 -0.1680 -0.5199
 3236ntf    sn221527   0.759   4.501   4.431 -0.0751 -0.4308  0.0558
 3236ntf    nn321528   0.901   4.436   4.454  0.2303  0.3715  0.4799
 3236ntf    sn221529   1.030   4.438   4.365 -0.1706  0.2536 -0.1146
 3236ntf    cn121530   1.116   4.552   4.478  0.0319  0.1120 -0.1247
 3236ntf    fn421531   0.814   4.654   4.632  0.1217  0.5360 -0.5081
 3236ntf    fn421532   0.874   4.745   4.452 -0.0946 -0.0580 -0.3238
 3236ntf    fn421533   0.667   4.732   4.502 -0.2386 -0.3565  0.2218
 3236ntf    on521534   0.661   4.432   4.511 -0.2927  0.2527  0.3823
 3236ntf    on521535   0.722   4.524   4.294 -0.0093  0.0903  0.1235
 3236ntf    on521536   1.024   4.522   4.248 -0.2099  0.2758 -0.0965
 3236ntf    on521537   1.108   4.317   4.367  0.0269  0.3793 -0.1935
 3236ntf    fn421538   1.244   4.570   4.450  0.1036 -0.0759  0.0721
 3236ntf    fn421539   1.057   4.669   4.465 -0.3547 -0.0789 -0.0984
 3236ntf    fn421540   1.109   4.506   4.602 -0.1495  0.2244 -0.0935
 3237ntf    cn121541   3.224   3.971   6.283 -0.3451 -0.6671 -0.3144
 3237ntf    sn221542   3.378   3.884   6.241  0.0408 -0.0824 -0.1373
 3237ntf    nn321543   3.466   3.937   6.359  0.0052 -0.0777 -0.1131
 3237ntf    sn221544   3.560   3.862   6.459  0.0871  0.0337 -0.1060
 3237ntf    cn121545   3.443   3.829   6.594 -0.1355 -0.3407 -0.3879
 3237ntf    fn421546   3.167   3.925   6.394  0.2295  0.2912  0.4016
 3237ntf    fn421547   3.237   4.103   6.289  0.1545 -0.7405  0.5183
 3237ntf    fn421548   3.127   3.952   6.196 -0.2489  0.0708 -0.5935
 3237ntf    on521549   3.319   3.754   6.259  0.3571 -0.1692  0.2818
 3237ntf    on521550   3.419   3.930   6.110  0.6170 -0.2857 -0.0313
 3237ntf    on521551   3.670   3.944   6.504  0.1766 -0.5328  0.7335
 3237ntf    on521552   3.600   3.729   6.419  0.2383 -0.0569  0.3298
 3237ntf    fn421553   3.500   3.750   6.683 -0.5960  0.3364  0.5317
 3237ntf    fn421554   3.400   3.936   6.659 -0.1788 -0.4471 -0.2387
 3237ntf    fn421555   3.334   3.768   6.551 -0.5288  0.1360 -0.0766
 3238ntf    cn121556   6.982   2.709   1.481 -0.0369  0.1121  0.0350
 3238ntf    sn221557   6.958   2.855   1.376  0.0912  0.0044 -0.1448
 3238ntf    nn321558   6.902   2.790   1.244  0.2707  0.4548 -0.4454
 3238ntf    sn221559   6.986   2.722   1.130 -0.0240 -0.1514 -0.3027
 3238ntf    cn121560   7.023   2.854   1.011 -0.5121  0.0656 -0.2173
 3238ntf    fn421561   7.038   2.610   1.413 -0.1909 -0.1632  0.3082
 3238ntf    fn421562   7.053   2.729   1.591  0.0095  0.0523  0.0162
 3238ntf    fn421563   6.868   2.656   1.521  0.0494 -0.2360 -0.1794
 3238ntf    on521564   6.858   2.937   1.440 -0.3314 -0.3484 -0.3428
 3238ntf    on521565   7.089   2.913   1.363 -0.0018  0.1389 -0.5131
 3238ntf    on521566   6.902   2.632   1.054  0.5821 -0.4215 -0.6654
 3238ntf    on521567   7.114   2.667   1.169 -0.1456  0.1451  0.5378
 3238ntf    fn421568   7.085   2.809   0.903 -0.3388  0.5842 -0.3347
 3238ntf    fn421569   6.917   2.915   0.962 -0.5921 -0.3269 -0.5362
 3238ntf    fn421570   7.092   2.958   1.056 -0.4798 -0.1898  0.3339
 3239ntf    cn121571   1.617   1.877   5.800 -0.3678 -0.0673 -0.3858
 3239ntf    sn221572   1.683   1.707   5.791 -0.2545 -0.0514  0.1138
 3239ntf    nn321573   1.651   1.653   5.935  0.4598 -0.2212  0.2100
 3239ntf    sn221574   1.512   1.603   5.989  0.3082 -0.2736 -0.2282
 3239ntf    cn121575   1.456   1.732   6.104  0.1859 -0.4091 -0.1360
 3239ntf    fn421576   1.688   1.948   5.886 -0.1958 -0.3080 -0.3256
 3239ntf    fn421577   1.620   1.936   5.682  0.4861  0.1425 -0.2645
 3239ntf    fn421578   1.488   1.877   5.832 -0.4418 -0.2521 -0.6833
 3239ntf    on521579   1.615   1.653   5.676  0.6924  0.3999 -0.6773
 3239ntf    on521580   1.822   1.737   5.769 -0.1930 -0.7772 -0.5135
 3239ntf    on521581   1.531   1.483   6.067 -0.1438  0.0066  0.3148
 3239ntf    on521582   1.407   1.600   5.891  0.1765 -0.7932 -0.0737
 3239ntf    fn421583   1.435   1.843   6.034  0.0314 -0.3700 -0.0277
 3239ntf    fn421584   1.343   1.690   6.157  0.0352  0.1699  0.0098
 3239ntf    fn421585   1.535   1.756   6.207 -0.1444  0.2945 -0.0387
 3240ntf    cn121586   4.672   3.918   6.712 -0.4393 -0.2598 -0.0127
 3240ntf    sn221587   4.819   4.017   6.671 -0.4922  0.0217  0.4644
 3240ntf    nn321588   4.868   4.031   6.820 -0.1450 -0.0246  0.3546
 3240ntf    sn221589   4.963   3.935   6.900  0.5828  0.1868 -0.2370
 3240ntf    cn121590   4.949   4.029   7.055  0.1263  0.1151 -0.2323
 3240ntf    fn421591   4.567   3.952   6.639 -0.1116 -0.2945 -0.5040
 3240ntf    fn421592   4.694   3.789   6.698  0.4683 -0.1816  0.6419
 3240ntf    fn421593   4.631   3.922   6.838  0.6414 -0.1537  0.3397
 3240ntf    on521594   4.894   3.934   6.580 -0.7951  0.1505  0.0946
 3240ntf    on521595   4.771   4.141   6.616  0.3600  0.1565  0.0178
 3240ntf    on521596   5.100   3.957   6.864  0.9317 -0.5311  0.5951
 3240ntf    on521597   4.917   3.803   6.938  0.5785  0.3344  0.2828
 3240ntf    fn421598   4.820   4.037   7.085  0.0606  0.0160 -0.4878
 3240ntf    fn421599   5.008   3.976   7.161 -0.2456 -0.1676 -0.1651
 3240ntf    fn421600   4.994   4.153   7.046 -0.1782  0.2368 -0.0840
   7.03589   7.03589   7.03589
