Converted from moscito
16200
    1SOL     ow    1   3.719   3.804   4.824  0.4852  0.2207 -0.3216
    1SOL     hw    2   3.808   3.833   4.804 -0.1122  2.3567 -0.0749
    1SOL     hw    3   3.670   3.820   4.743  0.2804 -0.9487 -0.4565
    1SOL     vw    4   3.724   3.810   4.810  0.3793  0.3482 -0.3068
    2SOL     ow    5   6.480   4.337   3.094  0.0843 -0.2653 -0.1862
    2SOL     hw    6   6.564   4.338   3.139 -1.9689  1.1999  4.1948
    2SOL     hw    7   6.441   4.423   3.114 -3.0512 -1.4470 -0.6044
    2SOL     vw    8   6.486   4.348   3.103 -0.6001 -0.2279  0.3368
    3SOL     ow    9   0.559   5.269   6.627  0.5708 -0.0699 -0.5570
    3SOL     hw   10   0.612   5.341   6.660 -0.6385  0.8935 -0.6800
    3SOL     hw   11   0.476   5.275   6.674  0.3925 -1.3018 -0.6640
    3SOL     vw   12   0.555   5.279   6.637  0.3877 -0.1056 -0.5872
    4SOL     ow   13   6.501   6.254   1.516  0.1461 -0.1968 -0.8325
    4SOL     hw   14   6.588   6.261   1.476  0.0745 -1.9905 -1.3958
    4SOL     hw   15   6.444   6.303   1.457  0.5667 -0.1243 -1.1890
    4SOL     vw   16   6.505   6.262   1.503  0.1922 -0.4239 -0.9539
    5SOL     ow   17   4.162   4.240   5.269  0.0178  0.8521 -0.3322
    5SOL     hw   18   4.247   4.239   5.224  1.0537 -1.5966  1.4510
    5SOL     hw   19   4.109   4.175   5.222  0.1786  0.2318  0.3338
    5SOL     vw   20   4.167   4.232   5.256  0.1755  0.4473 -0.0091
    6SOL     ow   21   2.546   2.642   5.265  0.2730  0.9142  0.1484
    6SOL     hw   22   2.580   2.603   5.346  1.2961 -1.1624 -1.2003
    6SOL     hw   23   2.623   2.649   5.208 -0.7817  0.3659 -1.3863
    6SOL     vw   24   2.561   2.638   5.268  0.2689  0.5679 -0.2322
    7SOL     ow   25   4.186   2.329   4.682  0.3543 -0.3798 -0.4283
    7SOL     hw   26   4.273   2.314   4.645  0.7621 -0.9759  0.7266
    7SOL     hw   27   4.160   2.244   4.719 -0.4513 -0.0517 -0.2132
    7SOL     vw   28   4.194   2.316   4.682  0.3016 -0.4151 -0.2477
    8SOL     ow   29   1.224   2.501   0.287 -0.6130 -0.3768 -0.6310
    8SOL     hw   30   1.208   2.495   0.382  0.2304 -0.3558 -0.4859
    8SOL     hw   31   1.256   2.590   0.274  2.3435 -1.3157 -0.4446
    8SOL     vw   32   1.226   2.512   0.298 -0.1116 -0.4979 -0.5872
    9SOL     ow   33   5.158   0.930   0.429  0.1318 -0.2201  0.5593
    9SOL     hw   34   5.241   0.960   0.467 -0.2074  1.4638  0.0545
    9SOL     hw   35   5.096   0.999   0.450 -0.3087  0.3176 -2.0949
    9SOL     vw   36   5.161   0.943   0.437  0.0291  0.0730  0.1425
   10SOL     ow   37   4.444   5.476   3.980  0.0173 -0.2931  0.0282
   10SOL     hw   38   4.411   5.564   4.001 -1.1333 -0.5271 -0.6613
   10SOL     hw   39   4.496   5.451   4.056 -1.7811 -0.0458  1.4361
   10SOL     vw   40   4.446   5.484   3.993 -0.3717 -0.2911  0.1229
   11SOL     ow   41   0.323   3.173   0.561 -0.2520 -0.9773 -0.0811
   11SOL     hw   42   0.357   3.178   0.650 -0.3580 -0.9452 -0.0416
   11SOL     hw   43   0.377   3.106   0.519  1.7470  1.0315 -0.8872
   11SOL     vw   44   0.334   3.164   0.568 -0.0022 -0.7081 -0.1823
   12SOL     ow   45   1.314   1.563   0.330  0.0908 -0.4587  0.2596
   12SOL     hw   46   1.301   1.496   0.263 -0.9270  0.4332 -0.4783
   12SOL     hw   47   1.325   1.645   0.281  0.1027  0.1030  1.1651
   12SOL     vw   48   1.314   1.565   0.315 -0.0419 -0.2669  0.2817
   13SOL     ow   49   1.899   2.154   5.865  0.0539  0.0234  0.2156
   13SOL     hw   50   1.875   2.084   5.926 -0.4326  0.1626  0.1939
   13SOL     hw   51   1.846   2.229   5.894  0.8610  0.4973  0.4776
   13SOL     vw   52   1.889   2.154   5.877  0.0963  0.1043  0.2472
   14SOL     ow   53   1.844   3.409   6.760  0.0828 -0.1242  0.4337
   14SOL     hw   54   1.834   3.504   6.752  0.1333 -0.0868  0.8251
   14SOL     hw   55   1.768   3.373   6.714 -0.9364  0.1317  1.8786
   14SOL     vw   56   1.833   3.417   6.753 -0.0449 -0.0856  0.6757
   15SOL     ow   57   2.587   0.038   0.992  0.4458 -0.0066 -0.4952
   15SOL     hw   58   2.593   0.045   1.087 -0.5838  1.0291 -0.4900
   15SOL     hw   59   2.678   0.028   0.963  0.8414  0.4740  0.5301
   15SOL     vw   60   2.600   0.038   1.001  0.3622  0.1934 -0.3593
   16SOL     ow   61   4.842   4.905   3.323 -0.1210 -0.0424 -0.5707
   16SOL     hw   62   4.923   4.878   3.367 -1.0766 -0.3633  1.1002
   16SOL     hw   63   4.853   4.878   3.232  1.3102 -0.8345 -0.1859
   16SOL     vw   64   4.854   4.898   3.317 -0.0582 -0.1891 -0.2996
   17SOL     ow   65   2.621   1.194   5.853  0.3359  0.9221  0.4369
   17SOL     hw   66   2.662   1.280   5.857  0.5500  0.9879 -1.7952
   17SOL     hw   67   2.653   1.156   5.771 -0.2873 -1.0138  1.0310
   17SOL     vw   68   2.630   1.200   5.843  0.2818  0.6753  0.2208
   18SOL     ow   69   1.536   4.778   2.551 -0.0316 -0.0544  0.0537
   18SOL     hw   70   1.585   4.826   2.484 -0.0380 -1.4018 -0.9596
   18SOL     hw   71   1.499   4.846   2.607  0.0201  1.1196 -1.2769
   18SOL     vw   72   1.538   4.793   2.549 -0.0256 -0.0772 -0.2556
   19SOL     ow   73   5.113   6.054   0.148 -0.5687 -0.0836  0.4658
   19SOL     hw   74   5.070   6.137   0.125  1.3074  0.9930  0.6393
   19SOL     hw   75   5.121   6.007   0.065 -1.2666  0.0802  0.2974
   19SOL     vw   76   5.108   6.059   0.134 -0.4134  0.0801  0.4665
   20SOL     ow   77   0.239   0.968   5.440 -0.3778 -0.1988 -0.0703
   20SOL     hw   78   0.256   1.062   5.443 -1.3523 -0.0224  0.4560
   20SOL     hw   79   0.281   0.938   5.360  0.4558  0.5742  0.0573
   20SOL     vw   80   0.247   0.976   5.430 -0.3964 -0.0736  0.0157
   21SOL     ow   81   2.645   4.225   6.685  0.4550 -0.0056 -0.1850
   21SOL     hw   82   2.732   4.238   6.723  0.3477 -0.2709  0.1676
   21SOL     hw   83   2.629   4.131   6.694 -0.6512  0.2988  1.5248
   21SOL     vw   84   2.654   4.214   6.691  0.2948  0.0000  0.0873
   22SOL     ow   85   3.976   1.214   4.632 -0.3544 -0.2655  0.1812
   22SOL     hw   86   3.975   1.205   4.728 -2.0175 -0.4841  0.1768
   22SOL     hw   87   4.035   1.145   4.602  0.3986 -0.0191  1.0630
   22SOL     vw   88   3.984   1.204   4.641 -0.4743 -0.2618  0.2971
   23SOL     ow   89   4.665   1.862   2.060 -0.5376 -0.5276  0.2676
   23SOL     hw   90   4.613   1.937   2.033  0.8989  0.7581  0.9074
   23SOL     hw   91   4.723   1.896   2.128  1.0238 -1.9031 -0.2894
   23SOL     vw   92   4.666   1.876   2.065 -0.1421 -0.5395  0.2785
   24SOL     ow   93   2.032   2.914   4.839  0.6647 -1.3607  0.0687
   24SOL     hw   94   2.101   2.975   4.813 -0.3709  0.3491  1.1634
   24SOL     hw   95   2.016   2.934   4.931 -0.4457 -2.5889  0.1724
   24SOL     vw   96   2.039   2.924   4.848  0.3815 -1.2971  0.2267
   25SOL     ow   97   2.941   0.298   0.513 -0.1515  0.0626 -0.4740
   25SOL     hw   98   2.941   0.392   0.533 -0.2516  0.0647 -0.4847
   25SOL     hw   99   2.956   0.256   0.598 -0.6137  0.0705 -0.3867
   25SOL     vw  100   2.943   0.305   0.527 -0.2257  0.0639 -0.4638
   26SOL     ow  101   5.428   5.844   1.876  0.0091 -0.4917 -0.2599
   26SOL     hw  102   5.423   5.890   1.960  1.2784  0.9854 -0.9321
   26SOL     hw  103   5.450   5.913   1.813 -1.6454 -1.4287 -1.9465
   26SOL     vw  104   5.430   5.860   1.879 -0.0417 -0.4203 -0.5712
   27SOL     ow  105   3.660   2.441   3.278  0.3394 -0.5187  0.5450
   27SOL     hw  106   3.714   2.516   3.302 -0.1186 -0.2242  0.6607
   27SOL     hw  107   3.695   2.369   3.330  1.1171 -0.5075  0.0445
   27SOL     vw  108   3.671   2.441   3.288  0.3816 -0.4783  0.4942
   28SOL     ow  109   0.410   4.904   4.719  0.8183  0.2037 -0.5654
   28SOL     hw  110   0.435   4.814   4.738  0.2506  0.2244  0.3545
   28SOL     hw  111   0.316   4.907   4.735  0.5929  0.6460 -1.8845
   28SOL     vw  112   0.401   4.893   4.723  0.7137  0.2646 -0.6180
   29SOL     ow  113   5.575   1.248   1.458  0.4509  0.1771 -0.5425
   29SOL     hw  114   5.537   1.167   1.491 -3.3390  1.3360 -1.5885
   29SOL     hw  115   5.581   1.235   1.363  1.3478  0.5798 -0.5537
   29SOL     vw  116   5.571   1.235   1.450  0.0689  0.3831 -0.6819
   30SOL     ow  117   4.232   3.305   0.440  0.4674 -0.3666 -0.1053
   30SOL     hw  118   4.248   3.293   0.346 -0.0090 -1.2445 -0.0822
   30SOL     hw  119   4.198   3.395   0.446 -0.0177 -0.4833 -0.8483
   30SOL     vw  120   4.229   3.315   0.428  0.3405 -0.4978 -0.2003
   31SOL     ow  121   4.331   5.127   0.106  0.0951  1.3705  0.1617
   31SOL     hw  122   4.314   5.093   0.019 -1.3532  3.6137 -0.5117
   31SOL     hw  123   4.427   5.134   0.110  0.2012  0.9120 -1.1040
   31SOL     vw  124   4.342   5.123   0.095 -0.0820  1.6057 -0.0941
   32SOL     ow  125   5.378   4.639   0.683  0.0391 -0.0367 -0.5190
   32SOL     hw  126   5.352   4.585   0.758  0.1353 -0.1755 -0.5866
   32SOL     hw  127   5.474   4.634   0.682 -0.0034 -0.7516 -1.1876
   32SOL     vw  128   5.387   4.631   0.693  0.0463 -0.1495 -0.6161
   33SOL     ow  129   4.409   3.094   2.715 -0.7177  0.8720  0.2687
   33SOL     hw  130   4.390   3.081   2.623 -1.3360 -1.8066  0.7133
   33SOL     hw  131   4.498   3.060   2.727 -0.4200  1.7153  0.5958
   33SOL     vw  132   4.418   3.088   2.705 -0.7598  0.6298  0.3706
   34SOL     ow  133   5.080   4.837   2.736 -0.0077 -0.0466 -0.4981
   34SOL     hw  134   5.091   4.763   2.796 -0.4022 -0.4660 -0.9357
   34SOL     hw  135   5.168   4.855   2.703  0.6335  1.5773  1.7922
   34SOL     vw  136   5.093   4.830   2.740  0.0243  0.1121 -0.2537
   35SOL     ow  137   2.496   0.440   5.649  0.2051 -0.7233  0.1339
   35SOL     hw  138   2.565   0.498   5.680 -1.7432  2.0464 -0.3094
   35SOL     hw  139   2.426   0.449   5.713 -0.5200 -1.9012 -0.4463
   35SOL     vw  140   2.495   0.449   5.661 -0.1476 -0.5133 -0.0012
   36SOL     ow  141   6.404   4.988   6.082 -0.5025 -0.9394  0.0872
   36SOL     hw  142   6.472   4.921   6.082 -0.5796 -1.0293 -0.5980
   36SOL     hw  143   6.329   4.945   6.041 -0.5147 -0.4010 -0.4670
   36SOL     vw  144   6.403   4.973   6.076 -0.5138 -0.8800 -0.0765
   37SOL     ow  145   5.477   4.051   2.577 -0.1897 -0.4602  0.6889
   37SOL     hw  146   5.520   4.093   2.503 -3.5408  3.3280  0.5480
   37SOL     hw  147   5.400   4.104   2.594 -1.3640 -2.9737  4.9575
   37SOL     vw  148   5.473   4.063   2.569 -0.7865 -0.2918  1.2335
   38SOL     ow  149   6.282   4.912   3.330 -0.1966 -0.3893 -0.2398
   38SOL     hw  150   6.335   4.931   3.253  1.7782 -0.4580  1.0326
   38SOL     hw  151   6.331   4.843   3.376 -0.9296  0.1822  1.4532
   38SOL     vw  152   6.295   4.905   3.326 -0.0329 -0.3228  0.1514
   39SOL     ow  153   2.507   2.552   0.066  0.9489  0.4478  0.0522
   39SOL     hw  154   2.570   2.610   0.023 -1.7749  3.2551 -0.5133
   39SOL     hw  155   2.446   2.611   0.109 -1.5456 -2.0471  0.2152
   39SOL     vw  156   2.508   2.567   0.066  0.2604  0.4890 -0.0009
   40SOL     ow  157   2.169   1.896   6.492 -0.5156 -0.0170  0.0326
   40SOL     hw  158   2.248   1.855   6.528 -1.9650 -3.1576 -0.0778
   40SOL     hw  159   2.124   1.932   6.568  0.8772  1.7535  0.1088
   40SOL     vw  160   2.174   1.896   6.506 -0.5231 -0.1977  0.0281
   41SOL     ow  161   3.602   0.773   2.275 -0.0051 -0.3530  0.4596
   41SOL     hw  162   3.610   0.816   2.190 -2.4586 -0.3475  0.1637
   41SOL     hw  163   3.690   0.780   2.313  0.8421  0.7753 -1.5130
   41SOL     vw  164   3.615   0.780   2.269 -0.2170 -0.2034  0.1603
   42SOL     ow  165   4.587   0.835   5.065  0.4422  0.5530  0.6445
   42SOL     hw  166   4.545   0.918   5.041 -0.7306  0.2916  1.7202
   42SOL     hw  167   4.532   0.799   5.134  0.6963 -1.3445 -0.0869
   42SOL     vw  168   4.574   0.841   5.071  0.3211  0.2682  0.6900
   43SOL     ow  169   3.797   4.774   4.696 -0.3283  0.1875 -0.3400
   43SOL     hw  170   3.855   4.703   4.724  1.2457  1.6116  0.1748
   43SOL     hw  171   3.709   4.736   4.700  0.2994 -1.2217  1.6016
   43SOL     vw  172   3.793   4.759   4.700 -0.0378  0.1895 -0.0157
   44SOL     ow  173   1.916   5.404   1.856 -0.2695 -0.0046 -0.2556
   44SOL     hw  174   1.881   5.474   1.911  0.1877 -0.1236  0.2021
   44SOL     hw  175   1.959   5.450   1.783 -0.5984  0.1660 -0.3427
   44SOL     vw  176   1.917   5.420   1.854 -0.2525  0.0021 -0.2066
   45SOL     ow  177   0.024   1.141   0.714 -0.1461  0.1126  0.2734
   45SOL     hw  178  -0.047   1.182   0.665 -0.9418 -0.5830  0.8274
   45SOL     hw  179   0.000   1.048   0.719 -0.5038  0.2749  2.6487
   45SOL     vw  180   0.012   1.134   0.708 -0.2983  0.0423  0.6598
   46SOL     ow  181   2.204   3.035   2.982  0.4063  0.3895  0.4149
   46SOL     hw  182   2.248   2.953   3.007  1.9718  0.4462 -1.8597
   46SOL     hw  183   2.251   3.103   3.029  1.0845  0.2183 -0.0053
   46SOL     vw  184   2.216   3.033   2.991  0.7023  0.3743  0.0594
   47SOL     ow  185   3.612   1.371   1.039  0.2674 -0.1601 -0.4214
   47SOL     hw  186   3.704   1.347   1.027  0.2680  0.5248 -1.9577
   47SOL     hw  187   3.594   1.435   0.971  0.0103  3.6440  2.8232
   47SOL     vw  188   3.621   1.377   1.029  0.2335  0.4322 -0.1961
   48SOL     ow  189   2.161   2.414   2.193 -0.0178  0.2109  0.1311
   48SOL     hw  190   2.100   2.465   2.246 -0.0419 -1.4770  1.8251
   48SOL     hw  191   2.241   2.467   2.192  0.0118  0.2743  1.9520
   48SOL     vw  192   2.164   2.428   2.200 -0.0170 -0.0035  0.5949
   49SOL     ow  193   4.888   6.765   5.510  0.3117 -0.2026  0.1322
   49SOL     hw  194   4.962   6.741   5.565  0.6592  1.3809  0.4079
   49SOL     hw  195   4.897   6.860   5.498 -0.3201 -0.3440 -1.8145
   49SOL     vw  196   4.899   6.775   5.516  0.2744 -0.0124 -0.0882
   50SOL     ow  197   1.126   0.708   1.360  0.0145  0.6384  0.2343
   50SOL     hw  198   1.114   0.745   1.273  1.1448  4.9635  1.6737
   50SOL     hw  199   1.221   0.700   1.371 -0.0212  1.5946  1.5238
   50SOL     vw  200   1.137   0.712   1.350  0.1589  1.3352  0.5943
   51SOL     ow  201   2.616   4.409   3.581 -0.0034  0.4647  0.0770
   51SOL     hw  202   2.672   4.360   3.641 -0.3615 -0.7002 -0.5074
   51SOL     hw  203   2.583   4.343   3.520  2.4504  1.8585 -3.1361
   51SOL     vw  204   2.619   4.394   3.581  0.2732  0.4947 -0.4241
   52SOL     ow  205   6.017   4.779   3.204 -0.3117  0.2163  0.2954
   52SOL     hw  206   6.064   4.781   3.120  1.9710 -1.9620  1.4017
   52SOL     hw  207   5.925   4.768   3.179  0.1851  0.4663 -1.9143
   52SOL     vw  208   6.011   4.778   3.189  0.0551 -0.0381  0.1500
   53SOL     ow  209   3.661   0.373   4.706 -0.1399 -0.7292 -0.2554
   53SOL     hw  210   3.579   0.324   4.703  0.3242 -1.6314  0.8422
   53SOL     hw  211   3.728   0.310   4.677  0.0544  0.3631 -2.3977
   53SOL     vw  212   3.659   0.358   4.702 -0.0530 -0.7041 -0.3932
   54SOL     ow  213   2.206   2.058   0.346 -0.4749  0.4019 -0.6899
   54SOL     hw  214   2.123   2.088   0.385  0.0368  0.5076  0.3484
   54SOL     hw  215   2.224   2.122   0.277 -0.0777  1.7685  0.6344
   54SOL     vw  216   2.197   2.071   0.342 -0.3551  0.5962 -0.3782
   55SOL     ow  217   0.686   4.067   1.224  0.0162 -0.2537  0.1384
   55SOL     hw  218   0.676   4.068   1.319 -2.3198 -0.2601 -0.0409
   55SOL     hw  219   0.763   4.121   1.207 -0.9340  1.7820  1.9109
   55SOL     vw  220   0.695   4.074   1.234 -0.4173  0.0141  0.3486
   56SOL     ow  221   2.250   0.690   0.733  0.7134  0.8020  0.3973
   56SOL     hw  222   2.327   0.667   0.681  1.5673 -0.6284  2.1618
   56SOL     hw  223   2.188   0.619   0.716 -0.1935  1.8483 -0.8637
   56SOL     vw  224   2.252   0.678   0.724  0.7063  0.7513  0.4637
   57SOL     ow  225   5.969   1.358   4.944 -0.1492  0.6664 -0.0026
   57SOL     hw  226   6.058   1.383   4.918  0.0231  0.2411  0.1812
   57SOL     hw  227   5.914   1.387   4.871 -0.0987  2.5803  0.6552
   57SOL     vw  228   5.974   1.365   4.931 -0.1197  0.8627  0.1085
   58SOL     ow  229   0.874   4.823   3.047 -0.7165  0.0297  0.4182
   58SOL     hw  230   0.875   4.844   3.140 -1.3617  0.3478  0.3596
   58SOL     hw  231   0.946   4.874   3.010 -1.3053  0.9571  0.5284
   58SOL     vw  232   0.884   4.832   3.054 -0.8792  0.1941  0.4250
   59SOL     ow  233   4.419   0.123   2.665  0.3894 -0.5397  0.3606
   59SOL     hw  234   4.446   0.164   2.747  0.5106  2.2738 -0.9718
   59SOL     hw  235   4.413   0.195   2.603 -3.1471 -1.9884 -1.2672
   59SOL     vw  236   4.422   0.138   2.668 -0.0613 -0.3596 -0.0299
   60SOL     ow  237   2.853   4.327   1.891  0.5978  0.4875 -0.6953
   60SOL     hw  238   2.797   4.262   1.850  0.3128  0.8609 -0.9056
   60SOL     hw  239   2.797   4.369   1.957  0.7245  0.6397 -0.6831
   60SOL     vw  240   2.838   4.324   1.894  0.5769  0.5569 -0.7214
   61SOL     ow  241   5.709   1.562   4.353 -0.9081 -1.2382  0.3494
   61SOL     hw  242   5.685   1.478   4.313 -0.3511 -2.5947  2.6338
   61SOL     hw  243   5.678   1.554   4.444  1.9799 -0.3103  1.5144
   61SOL     vw  244   5.701   1.550   4.360 -0.4535 -1.2947  0.8044
   62SOL     ow  245   2.399   4.913   1.065  0.2752 -0.3338  0.1757
   62SOL     hw  246   2.306   4.901   1.047  0.4132  1.9319 -2.7949
   62SOL     hw  247   2.444   4.881   0.987  1.9516 -0.4549  1.1320
   62SOL     vw  248   2.393   4.907   1.052  0.5146 -0.0508 -0.0901
   63SOL     ow  249   2.936   5.268   3.587  0.4284  0.2097  0.0517
   63SOL     hw  250   2.842   5.277   3.571  0.2875 -0.5486  0.3851
   63SOL     hw  251   2.943   5.252   3.681  0.9904  1.4353  0.2309
   63SOL     vw  252   2.924   5.267   3.597  0.4841  0.2713  0.1193
   64SOL     ow  253   0.644   5.966   1.566  0.2424 -0.1057  0.0852
   64SOL     hw  254   0.557   5.927   1.580 -0.4267  0.9931 -0.8481
   64SOL     hw  255   0.679   5.976   1.655 -0.7300 -0.2415  0.5036
   64SOL     vw  256   0.637   5.962   1.580  0.0259  0.0212  0.0173
   65SOL     ow  257   0.983   4.207   4.750  0.4846 -0.0733  0.0762
   65SOL     hw  258   0.972   4.206   4.845  2.3596 -0.6225  0.3205
   65SOL     hw  259   0.895   4.224   4.716 -0.8869 -2.8093  1.8232
   65SOL     vw  260   0.970   4.209   4.758  0.5510 -0.5066  0.3390
   66SOL     ow  261   1.567   4.517   4.058 -0.4336 -0.5660 -0.3885
   66SOL     hw  262   1.584   4.579   3.987 -0.8568 -0.4679 -0.4036
   66SOL     hw  263   1.480   4.540   4.090 -1.2914 -2.1358 -1.4353
   66SOL     vw  264   1.558   4.528   4.053 -0.6026 -0.7598 -0.5286
   67SOL     ow  265   6.779   1.856   1.450 -0.0586 -0.3575  0.2161
   67SOL     hw  266   6.738   1.941   1.437 -0.0026 -0.4648 -0.7331
   67SOL     hw  267   6.791   1.821   1.362  1.5886 -0.5622  0.4870
   67SOL     vw  268   6.775   1.862   1.437  0.1662 -0.3986  0.1265
   68SOL     ow  269   6.235   4.116   3.065  0.0991  0.5335  0.0057
   68SOL     hw  270   6.182   4.043   3.030  1.4117 -0.4759  0.0295
   68SOL     hw  271   6.175   4.164   3.121 -0.4689 -1.4063  1.1767
   68SOL     vw  272   6.220   4.112   3.068  0.1972  0.1445  0.1633
   69SOL     ow  273   4.927   1.532   5.203  0.5200  0.3154 -0.1443
   69SOL     hw  274   4.838   1.501   5.186  1.1233 -0.6755 -1.6870
   69SOL     hw  275   4.966   1.544   5.116  1.0611  3.4017  0.4029
   69SOL     vw  276   4.920   1.530   5.189  0.6709  0.5919 -0.2759
   70SOL     ow  277   5.580   1.491   5.504  0.2215  0.3258  0.6333
   70SOL     hw  278   5.529   1.537   5.437  3.5975  1.7058 -1.2018
   70SOL     hw  279   5.589   1.554   5.576 -3.2031 -1.0761  2.5491
   70SOL     vw  280   5.574   1.505   5.505  0.2151  0.3229  0.6442
   71SOL     ow  281   5.036   1.765   0.776  0.3079  0.3634 -0.2597
   71SOL     hw  282   5.118   1.803   0.809  0.0703  0.0908  0.6691
   71SOL     hw  283   5.002   1.831   0.716  1.5728  0.1662 -1.2386
   71SOL     vw  284   5.042   1.779   0.773  0.4432  0.3014 -0.2663
   72SOL     ow  285   0.977   3.227   5.377 -0.3856  0.0488 -0.0568
   72SOL     hw  286   0.975   3.218   5.472 -1.2661 -0.0072 -0.0670
   72SOL     hw  287   0.920   3.157   5.345 -0.7581  0.5744 -0.5704
   72SOL     vw  288   0.969   3.217   5.386 -0.5510  0.1107 -0.1261
   73SOL     ow  289   0.058   3.513   2.667  0.5690  0.1232  0.3969
   73SOL     hw  290   0.065   3.603   2.636  0.1029  0.8786  2.3178
   73SOL     hw  291  -0.018   3.514   2.726  0.5144 -1.5461  0.4052
   73SOL     vw  292   0.049   3.525   2.671  0.5003  0.0025  0.6514
   74SOL     ow  293   6.006   6.170   6.376  0.2680  0.3639 -0.5007
   74SOL     hw  294   6.080   6.228   6.359 -2.1244  3.0512 -2.7633
   74SOL     hw  295   5.973   6.147   6.289 -2.0611  0.0014  0.4181
   74SOL     vw  296   6.012   6.174   6.362 -0.3548  0.6707 -0.6781
   75SOL     ow  297   5.411   4.964   0.805  0.2782 -0.5838 -0.3902
   75SOL     hw  298   5.495   4.963   0.853 -0.2333 -1.3775  0.5227
   75SOL     hw  299   5.420   5.036   0.743  1.5739 -0.5375 -0.1784
   75SOL     vw  300   5.424   4.973   0.803  0.3815 -0.6824 -0.2418
   76SOL     ow  301   6.229   3.751   2.476 -0.3823  0.5735  0.1441
   76SOL     hw  302   6.216   3.658   2.459  1.4892  0.2859  0.0018
   76SOL     hw  303   6.295   3.753   2.545  1.8928  1.7339 -1.8908
   76SOL     vw  304   6.236   3.739   2.483  0.1650  0.6887 -0.1432
   77SOL     ow  305   5.168   0.164   3.957  0.4543  0.0465 -0.1094
   77SOL     hw  306   5.108   0.232   3.924 -0.2887 -0.2978  0.5086
   77SOL     hw  307   5.112   0.089   3.975  1.5162 -1.4559 -2.6106
   77SOL     vw  308   5.152   0.163   3.955  0.4966 -0.1972 -0.3579
   78SOL     ow  309   1.939   3.146   3.087 -0.0579  0.1611  0.2374
   78SOL     hw  310   1.856   3.158   3.133 -1.0927 -1.1869 -1.1642
   78SOL     hw  311   1.972   3.234   3.073 -1.8493  0.7867 -0.2070
   78SOL     vw  312   1.932   3.159   3.091 -0.4309  0.0658 -0.0062
   79SOL     ow  313   6.066   1.684   0.988  0.3254 -0.1902  0.0031
   79SOL     hw  314   6.068   1.598   1.031 -0.1610 -0.4917 -0.5611
   79SOL     hw  315   6.154   1.718   0.999  1.3718 -1.9546 -2.1102
   79SOL     vw  316   6.078   1.677   0.995  0.3991 -0.4627 -0.3501
   80SOL     ow  317   5.714   6.606   2.039  0.0454 -0.2021 -0.5340
   80SOL     hw  318   5.673   6.527   2.005  0.4372 -0.7847  0.3214
   80SOL     hw  319   5.651   6.640   2.102 -0.9213  1.1713 -2.1559
   80SOL     vw  320   5.700   6.600   2.043 -0.0308 -0.0978 -0.6350
   81SOL     ow  321   1.559   0.753   6.006  0.1912  0.0453  0.0053
   81SOL     hw  322   1.477   0.775   6.050 -1.9610  1.2011 -4.0576
   81SOL     hw  323   1.605   0.837   5.997  0.7790 -0.2373  0.3021
   81SOL     vw  324   1.554   0.767   6.010 -0.0153  0.1605 -0.4916
   82SOL     ow  325   3.062   0.006   1.712 -0.3000 -0.3111 -0.2449
   82SOL     hw  326   3.111  -0.070   1.681  1.8158  0.1340  1.7403
   82SOL     hw  327   3.084   0.075   1.649  0.7360 -0.4242 -0.0283
   82SOL     vw  328   3.071   0.005   1.699  0.1156 -0.2673  0.0457
   83SOL     ow  329   4.770   2.595   4.788  0.1449  0.8555  0.2380
   83SOL     hw  330   4.740   2.574   4.700  0.3748  1.5418 -0.0070
   83SOL     hw  331   4.752   2.516   4.839 -0.2324  0.5523 -0.3607
   83SOL     vw  332   4.764   2.582   4.783  0.1254  0.9060  0.1266
   84SOL     ow  333   3.814   5.553   5.584  0.8369  0.5966  0.5639
   84SOL     hw  334   3.782   5.473   5.626  0.7544  0.5331  0.3820
   84SOL     hw  335   3.906   5.534   5.565  0.2719 -0.3477 -1.5543
   84SOL     vw  336   3.822   5.540   5.587  0.7514  0.4637  0.2606
   85SOL     ow  337   0.318   4.019   5.821 -0.4468  0.0384 -0.8236
   85SOL     hw  338   0.291   4.065   5.741 -2.1193  1.4712  0.4721
   85SOL     hw  339   0.255   4.049   5.887 -0.7046 -3.0591  0.4722
   85SOL     vw  340   0.306   4.029   5.819 -0.7015 -0.1812 -0.4816
   86SOL     ow  341   5.748   4.395   0.401  0.1277  0.2023 -0.5239
   86SOL     hw  342   5.842   4.411   0.397 -0.0929  1.5458 -0.9964
   86SOL     hw  343   5.716   4.421   0.314 -0.3789 -2.5561 -1.2526
   86SOL     vw  344   5.756   4.401   0.389  0.0315  0.0157 -0.6824
   87SOL     ow  345   4.290   1.188   2.908  0.2841  0.3289 -0.6858
   87SOL     hw  346   4.235   1.247   2.959 -1.5140 -1.0213 -0.9786
   87SOL     hw  347   4.305   1.235   2.826 -1.0860  0.4203 -0.9022
   87SOL     vw  348   4.285   1.202   2.904 -0.1338  0.1628 -0.7529
   88SOL     ow  349   5.855   6.365   4.770  0.0207 -0.2963 -0.2025
   88SOL     hw  350   5.931   6.408   4.731  0.6722 -2.1545 -1.1073
   88SOL     hw  351   5.805   6.333   4.695  0.0631 -1.8899  0.4102
   88SOL     vw  352   5.859   6.366   4.755  0.1123 -0.7515 -0.2413
   89SOL     ow  353   4.494   0.995   2.224  0.3166 -0.1413  0.5396
   89SOL     hw  354   4.454   0.908   2.215 -0.1076  0.0042  0.9226
   89SOL     hw  355   4.456   1.029   2.305  1.6867 -0.2303  1.2473
   89SOL     vw  356   4.483   0.988   2.233  0.4413 -0.1338  0.6834
   90SOL     ow  357   2.186   6.263   0.577  0.0405 -0.4974 -0.0811
   90SOL     hw  358   2.254   6.196   0.585 -0.2494 -0.7519  0.2734
   90SOL     hw  359   2.112   6.228   0.627 -0.3708 -0.2476 -0.5111
   90SOL     vw  360   2.185   6.249   0.585 -0.0521 -0.4978 -0.0910
   91SOL     ow  361   5.788   1.270   5.586  0.1676  0.1677  0.3369
   91SOL     hw  362   5.830   1.324   5.653  0.8612  0.4536 -0.3091
   91SOL     hw  363   5.839   1.189   5.586  0.1494  0.1563  0.1758
   91SOL     vw  364   5.801   1.266   5.595  0.2565  0.2039  0.2303
   92SOL     ow  365   6.163   6.290   4.056  0.6927 -0.2884  0.0841
   92SOL     hw  366   6.111   6.365   4.027 -1.4621 -1.6321  0.1789
   92SOL     hw  367   6.208   6.259   3.977  1.2314  0.8145 -0.0475
   92SOL     vw  368   6.162   6.296   4.042  0.4792 -0.3200  0.0792
   93SOL     ow  369   2.596   4.890   5.547  0.3837  0.1861 -0.0006
   93SOL     hw  370   2.682   4.914   5.513  0.9603  0.2125  1.4078
   93SOL     hw  371   2.535   4.916   5.479  1.3815  1.3943 -0.4731
   93SOL     vw  372   2.599   4.896   5.534  0.5913  0.3490  0.1228
   94SOL     ow  373   3.344   2.106   0.229  0.2119  0.5141  0.4947
   94SOL     hw  374   3.425   2.135   0.186  0.5128 -0.2330  0.5473
   94SOL     hw  375   3.360   2.120   0.322  0.6760 -0.5554  0.5918
   94SOL     vw  376   3.357   2.112   0.235  0.3129  0.2745  0.5145
   95SOL     ow  377   1.504   6.748   0.618 -0.1071 -0.0586 -0.0819
   95SOL     hw  378   1.552   6.824   0.652  1.1246  0.3924 -2.5987
   95SOL     hw  379   1.481   6.772   0.529 -1.4216 -1.9162 -0.2983
   95SOL     vw  380   1.508   6.761   0.611 -0.1181 -0.2441 -0.4425
   96SOL     ow  381   2.962   0.601   4.259 -0.2308  0.2482 -0.4321
   96SOL     hw  382   2.914   0.667   4.310 -2.8334 -0.3488 -1.9341
   96SOL     hw  383   2.960   0.634   4.169  1.5541 -0.2249 -0.6891
   96SOL     vw  384   2.955   0.614   4.254 -0.3389  0.1069 -0.6642
   97SOL     ow  385   4.289   5.708   1.960 -0.1499 -0.0168  0.8113
   97SOL     hw  386   4.329   5.702   2.047  0.3712  0.7147  0.6402
   97SOL     hw  387   4.363   5.701   1.900 -0.7853 -3.5218  0.2697
   97SOL     vw  388   4.304   5.706   1.964 -0.1650 -0.3827  0.7173
   98SOL     ow  389   5.399   2.626   4.123  0.0165  0.0007  0.2107
   98SOL     hw  390   5.359   2.713   4.116  0.7609  0.2179 -2.4758
   98SOL     hw  391   5.475   2.639   4.180 -1.4500  0.4095  2.1927
   98SOL     vw  392   5.403   2.639   4.130 -0.0789  0.0831  0.1180
   99SOL     ow  393   3.651   3.250   4.675  0.6940 -0.2070  0.2463
   99SOL     hw  394   3.586   3.239   4.605  0.2017 -0.8894  0.7893
   99SOL     hw  395   3.611   3.314   4.735  0.2953 -0.9647  0.8149
   99SOL     vw  396   3.637   3.257   4.674  0.5764 -0.3971  0.3932
  100SOL     ow  397   5.918   6.604   1.805 -0.2030  0.5054  0.7030
  100SOL     hw  398   6.004   6.621   1.765  0.1409 -1.0849  0.6938
  100SOL     hw  399   5.873   6.549   1.741 -1.3946  1.6238  0.5490
  100SOL     vw  400   5.924   6.599   1.791 -0.3150  0.4430  0.6815
  101SOL     ow  401   6.267   3.425   4.581  0.4212 -0.6383 -0.6793
  101SOL     hw  402   6.214   3.423   4.501  1.2783  1.0782 -1.3277
  101SOL     hw  403   6.313   3.341   4.581  1.7610  0.0139 -2.9685
  101SOL     vw  404   6.266   3.414   4.570  0.7110 -0.3258 -1.0669
  102SOL     ow  405   5.312   4.275   6.393 -0.7946 -0.0138  0.0405
  102SOL     hw  406   5.294   4.308   6.305 -0.5424 -0.5553 -0.2186
  102SOL     hw  407   5.228   4.284   6.439 -0.9962  0.0368 -0.3283
  102SOL     vw  408   5.298   4.280   6.387 -0.7880 -0.0787 -0.0424
  103SOL     ow  409   0.972   1.520   3.577 -0.3616  0.1285 -0.3291
  103SOL     hw  410   0.914   1.501   3.503 -1.4381  1.3783  0.1407
  103SOL     hw  411   0.949   1.609   3.603  1.1881  0.3411  0.4463
  103SOL     vw  412   0.961   1.529   3.571 -0.2992  0.3214 -0.1647
  104SOL     ow  413   3.256   1.779   6.436  0.2868  0.3808 -0.1792
  104SOL     hw  414   3.284   1.870   6.447  0.2706  0.1917  1.7881
  104SOL     hw  415   3.311   1.730   6.497 -0.5517 -0.7639 -0.3167
  104SOL     vw  416   3.267   1.785   6.445  0.1739  0.2049  0.0622
  105SOL     ow  417   6.038   5.525   2.230 -0.2485 -0.0961 -0.0986
  105SOL     hw  418   5.944   5.526   2.246 -0.0764 -3.0623  2.0386
  105SOL     hw  419   6.057   5.434   2.207  2.0785  0.4645 -0.6431
  105SOL     vw  420   6.028   5.513   2.229  0.0811 -0.4132  0.1115
  106SOL     ow  421   0.730   1.896   2.300  0.0444  0.2191  0.3278
  106SOL     hw  422   0.801   1.913   2.361  0.5550 -0.3991 -0.0801
  106SOL     hw  423   0.756   1.942   2.220 -0.7512  1.2567  0.6430
  106SOL     vw  424   0.742   1.905   2.297  0.0068  0.2744  0.3154
  107SOL     ow  425   0.274   3.458   3.535  0.3139 -0.1206  0.5100
  107SOL     hw  426   0.184   3.452   3.502  0.4152 -1.1292  0.3966
  107SOL     hw  427   0.265   3.453   3.630  0.2489 -0.1219  0.5042
  107SOL     vw  428   0.261   3.457   3.543  0.3187 -0.2538  0.4942
  108SOL     ow  429   2.841   1.141   6.401  0.0619  0.7378  0.3270
  108SOL     hw  430   2.852   1.144   6.306  1.6005  0.2698  0.4694
  108SOL     hw  431   2.782   1.214   6.420  0.4181  1.3784 -0.9007
  108SOL     vw  432   2.835   1.151   6.391  0.3117  0.7606  0.1836
  109SOL     ow  433   5.856   4.330   4.245  0.7328 -0.1457  0.4747
  109SOL     hw  434   5.858   4.239   4.216 -0.6983  0.0749 -0.4208
  109SOL     hw  435   5.859   4.381   4.164  0.4347  0.5689  0.9081
  109SOL     vw  436   5.857   4.325   4.231  0.5047 -0.0222  0.4137
  110SOL     ow  437   5.722   2.455   5.494 -0.3340 -0.0613  0.4230
  110SOL     hw  438   5.747   2.503   5.415  0.9482  0.7822  1.3136
  110SOL     hw  439   5.667   2.517   5.543 -0.6926 -0.3973  0.4572
  110SOL     vw  440   5.718   2.470   5.490 -0.2120  0.0056  0.5450
  111SOL     ow  441   5.141   6.490   0.729  0.5493  0.0575 -0.0281
  111SOL     hw  442   5.227   6.448   0.727  0.9838  0.9194 -0.3180
  111SOL     hw  443   5.085   6.429   0.776  1.2190 -0.7116 -0.2077
  111SOL     vw  444   5.145   6.477   0.735  0.6950  0.0696 -0.0900
  112SOL     ow  445   4.470   3.706   5.581 -0.1846  0.3598  0.4707
  112SOL     hw  446   4.453   3.797   5.605  1.4067  0.4283  1.5640
  112SOL     hw  447   4.408   3.655   5.632 -1.6256  0.8377 -0.7473
  112SOL     vw  448   4.460   3.711   5.591 -0.1645  0.4320  0.4542
  113SOL     ow  449   0.972   4.656   1.294 -0.2198 -0.1877 -0.2712
  113SOL     hw  450   0.950   4.674   1.202  0.3956 -2.0951 -0.8220
  113SOL     hw  451   0.887   4.653   1.338 -0.4558  3.3535 -0.1576
  113SOL     vw  452   0.958   4.658   1.287 -0.1698  0.0279 -0.3288
  114SOL     ow  453   0.145   1.887   4.579  0.3640 -0.6433  0.4082
  114SOL     hw  454   0.228   1.841   4.568 -0.9023 -3.4547  1.5139
  114SOL     hw  455   0.161   1.951   4.648  1.6300 -1.1024  0.5652
  114SOL     vw  456   0.158   1.889   4.586  0.3640 -1.0747  0.5748
  115SOL     ow  457   4.791   4.231   4.861  0.8285  0.3209 -0.8676
  115SOL     hw  458   4.739   4.261   4.935 -0.8761  1.7319 -2.5328
  115SOL     hw  459   4.776   4.137   4.858  0.0516  0.4021 -0.0743
  115SOL     vw  460   4.782   4.223   4.870  0.5012  0.5178 -0.9825
  116SOL     ow  461   3.095   0.211   2.750 -0.3279  0.3143  0.6324
  116SOL     hw  462   3.052   0.287   2.789 -1.7067 -0.0668 -0.1002
  116SOL     hw  463   3.065   0.210   2.659  0.6093 -0.4307  0.3092
  116SOL     vw  464   3.086   0.221   2.743 -0.3864  0.1657  0.4932
  117SOL     ow  465   4.568   4.244   4.099 -0.5949 -0.1405  0.5525
  117SOL     hw  466   4.511   4.242   4.175 -1.9265 -0.4119 -0.4187
  117SOL     hw  467   4.541   4.169   4.047  0.0124  0.2701 -0.3803
  117SOL     vw  468   4.557   4.234   4.102 -0.6905 -0.1223  0.3011
  118SOL     ow  469   5.671   2.254   5.735  0.0850 -0.2539 -0.6679
  118SOL     hw  470   5.636   2.305   5.809  0.3265 -3.3619  1.7745
  118SOL     hw  471   5.760   2.231   5.761 -0.1137 -2.1349 -1.5252
  118SOL     vw  472   5.678   2.258   5.748  0.0904 -0.9122 -0.4590
  119SOL     ow  473   1.531   0.623   4.813  0.7148 -0.2743 -0.6005
  119SOL     hw  474   1.521   0.658   4.725 -1.6294 -0.0769 -0.3219
  119SOL     hw  475   1.574   0.538   4.801 -0.2114 -0.5734 -2.0119
  119SOL     vw  476   1.535   0.616   4.800  0.2834 -0.2877 -0.7498
  120SOL     ow  477   1.609   0.999   1.698  0.1886  0.3077  0.0049
  120SOL     hw  478   1.576   0.970   1.784  3.3497 -0.8482  0.9678
  120SOL     hw  479   1.614   0.918   1.646  1.1777  0.4773 -0.1811
  120SOL     vw  480   1.605   0.984   1.703  0.7362  0.1775  0.1073
  121SOL     ow  481   3.311   4.526   5.859  0.2664 -0.4630 -0.2299
  121SOL     hw  482   3.253   4.573   5.799  1.0805 -0.4669 -1.0529
  121SOL     hw  483   3.259   4.453   5.892 -0.1959 -0.4725 -0.9616
  121SOL     vw  484   3.297   4.523   5.856  0.3128 -0.4649 -0.4351
  122SOL     ow  485   4.569   1.026   5.818  0.2111 -0.0674  0.5363
  122SOL     hw  486   4.554   0.987   5.732 -1.4596 -0.0851  0.8100
  122SOL     hw  487   4.663   1.015   5.833  0.3269 -1.1032 -0.7705
  122SOL     vw  488   4.579   1.020   5.808  0.0060 -0.2065  0.3996
  123SOL     ow  489   3.783   6.298   4.851 -0.4690  0.0622 -0.2542
  123SOL     hw  490   3.783   6.334   4.940 -3.6985 -0.0043 -0.1045
  123SOL     hw  491   3.844   6.354   4.803 -0.2149  1.4208  1.5123
  123SOL     vw  492   3.791   6.310   4.857 -0.8615  0.2327 -0.0017
  124SOL     ow  493   1.082   6.237   2.848  0.2145  0.1248  0.3912
  124SOL     hw  494   1.146   6.306   2.829  0.5923 -0.8170 -2.1082
  124SOL     hw  495   1.010   6.256   2.788 -0.8266 -0.2063  1.5088
  124SOL     vw  496   1.081   6.249   2.837  0.1270 -0.0432  0.2087
  125SOL     ow  497   2.476   4.583   2.796 -0.0241 -0.2934  0.1703
  125SOL     hw  498   2.498   4.527   2.722 -0.9814  1.5495 -1.6031
  125SOL     hw  499   2.552   4.639   2.808 -0.5653  0.6738 -0.7109
  125SOL     vw  500   2.489   4.583   2.788 -0.2218  0.0775 -0.1800
  126SOL     ow  501   4.467   4.057   3.174 -0.2671  0.1035  0.3880
  126SOL     hw  502   4.446   4.118   3.245  2.7162 -0.1858  1.6777
  126SOL     hw  503   4.466   3.971   3.215  2.6042  0.0215  0.5246
  126SOL     vw  504   4.464   4.054   3.188  0.5054  0.0546  0.5761
  127SOL     ow  505   0.582   1.079   4.811  1.1360 -0.2042 -0.0429
  127SOL     hw  506   0.524   1.150   4.785  0.7531 -0.7085 -0.6031
  127SOL     hw  507   0.524   1.011   4.844  1.4007 -0.7418 -0.6731
  127SOL     vw  508   0.567   1.079   4.812  1.1204 -0.3417 -0.2000
  128SOL     ow  509   1.475   2.604   2.233 -0.2822 -0.5844 -0.0753
  128SOL     hw  510   1.568   2.626   2.225 -0.4334 -0.0466 -0.4607
  128SOL     hw  511   1.467   2.520   2.189 -0.0032 -0.5688 -0.1623
  128SOL     vw  512   1.486   2.596   2.226 -0.2654 -0.5114 -0.1376
  129SOL     ow  513   6.717   0.713   0.645  0.5841 -0.1711 -0.4780
  129SOL     hw  514   6.683   0.754   0.566  1.0109  2.4199  0.5709
  129SOL     hw  515   6.775   0.644   0.614 -0.0492  0.1112 -2.3952
  129SOL     vw  516   6.720   0.710   0.631  0.5572  0.2080 -0.5926
  130SOL     ow  517   0.516   6.217   5.119  0.0398 -0.3372 -0.1522
  130SOL     hw  518   0.578   6.143   5.120  1.4877  0.8175 -0.4777
  130SOL     hw  519   0.435   6.180   5.154  1.2833 -1.6030  1.6439
  130SOL     vw  520   0.514   6.202   5.124  0.3949 -0.3519  0.0417
  131SOL     ow  521   6.157   4.147   1.321 -0.6503 -0.4555  0.1490
  131SOL     hw  522   6.197   4.077   1.372 -0.4323 -1.2283 -1.0429
  131SOL     hw  523   6.093   4.103   1.265 -0.2897  0.2334 -0.8470
  131SOL     vw  524   6.154   4.132   1.320 -0.5739 -0.4668 -0.1397
  132SOL     ow  525   5.569   3.608   5.133  0.3233  1.0222 -0.0904
  132SOL     hw  526   5.486   3.561   5.140  0.7515  0.0100 -1.4290
  132SOL     hw  527   5.634   3.548   5.170  0.6846  1.1605 -0.4939
  132SOL     vw  528   5.567   3.594   5.139  0.4277  0.9069 -0.3204
  133SOL     ow  529   4.252   4.026   3.484 -0.1252 -0.0597 -1.1752
  133SOL     hw  530   4.321   4.007   3.547  0.1237  1.6146 -0.8852
  133SOL     hw  531   4.296   4.024   3.399  0.0867  0.1355 -1.0705
  133SOL     vw  532   4.267   4.023   3.481 -0.0644  0.1869 -1.1232
  134SOL     ow  533   4.691   3.543   0.293  0.3057  0.7543  0.2299
  134SOL     hw  534   4.724   3.463   0.335 -0.7470  0.4122  0.4374
  134SOL     hw  535   4.728   3.614   0.345  1.6492  0.4352 -0.2408
  134SOL     vw  536   4.700   3.542   0.305  0.3440  0.6671  0.1951
  135SOL     ow  537   1.860   5.163   3.514 -0.5798 -0.8210  0.2689
  135SOL     hw  538   1.915   5.177   3.436  0.0793  0.9604  1.0119
  135SOL     hw  539   1.784   5.115   3.481  0.0304 -0.7449 -1.3375
  135SOL     vw  540   1.857   5.158   3.499 -0.4123 -0.5760  0.1551
  136SOL     ow  541   5.820   5.395   0.942 -0.1784  0.3064  0.1989
  136SOL     hw  542   5.777   5.380   0.858  0.5420  1.5011 -0.4173
  136SOL     hw  543   5.778   5.334   1.002  0.7025 -2.1108 -1.4714
  136SOL     vw  544   5.809   5.385   0.939  0.0327  0.1452 -0.1028
  137SOL     ow  545   3.046   4.523   5.164  0.5338 -0.0537 -0.1141
  137SOL     hw  546   3.040   4.595   5.102  3.4176 -0.6068 -1.1709
  137SOL     hw  547   2.989   4.455   5.128  0.8288  0.2759 -1.2381
  137SOL     vw  548   3.038   4.524   5.151  0.9532 -0.0830 -0.4020
  138SOL     ow  549   2.242   1.004   5.356 -0.0071 -0.0742  0.4039
  138SOL     hw  550   2.186   0.927   5.368 -1.0770  0.8259  1.5032
  138SOL     hw  551   2.204   1.070   5.414  0.2128  1.6575 -1.3303
  138SOL     vw  552   2.230   1.002   5.365 -0.1191  0.2730  0.3202
  139SOL     ow  553   1.815   1.537   3.250 -0.3122  0.0250  0.6759
  139SOL     hw  554   1.781   1.609   3.304 -2.5991  1.1345 -1.9726
  139SOL     hw  555   1.737   1.489   3.222  0.5203  0.3369 -2.6230
  139SOL     vw  556   1.800   1.540   3.254 -0.5041  0.2126 -0.1088
  140SOL     ow  557   6.565   2.123   2.039 -0.5036  0.1085  0.3508
  140SOL     hw  558   6.645   2.088   2.077  0.0685 -1.3370 -1.9781
  140SOL     hw  559   6.565   2.091   1.949 -3.1719  0.9616 -0.0506
  140SOL     vw  560   6.575   2.114   2.032 -0.7801  0.0302 -0.0094
  141SOL     ow  561   6.108   6.172   4.361 -0.0846  0.4660 -0.1726
  141SOL     hw  562   6.170   6.233   4.401 -0.3259  0.3676  0.3693
  141SOL     hw  563   6.025   6.192   4.404 -0.4333  0.5931 -0.8892
  141SOL     vw  564   6.105   6.183   4.372 -0.1624  0.4699 -0.1960
  142SOL     ow  565   3.742   0.179   0.902  0.5243  0.2980  0.0029
  142SOL     hw  566   3.751   0.224   0.986 -2.2473 -1.8665  1.6440
  142SOL     hw  567   3.824   0.130   0.892  1.0116  0.8075  1.2993
  142SOL     vw  568   3.754   0.178   0.912  0.2228  0.0796  0.3905
  143SOL     ow  569   3.969   1.342   3.467  0.4008 -0.3691  0.0741
  143SOL     hw  570   3.876   1.320   3.460  0.3108 -0.3032  0.8923
  143SOL     hw  571   4.014   1.257   3.463  0.3671 -0.3493 -1.0212
  143SOL     vw  572   3.963   1.328   3.466  0.3843 -0.3577  0.0376
  144SOL     ow  573   2.945   6.405   5.785  0.1457 -0.1811 -0.0466
  144SOL     hw  574   2.910   6.452   5.861 -0.0073  0.1201 -0.3042
  144SOL     hw  575   2.936   6.466   5.713 -1.4626 -1.1042 -0.6964
  144SOL     vw  576   2.939   6.419   5.786 -0.0867 -0.2630 -0.1664
  145SOL     ow  577   0.309   4.114   1.889  0.3821  0.4096 -0.4282
  145SOL     hw  578   0.338   4.026   1.913 -0.6865  0.3477  0.7558
  145SOL     hw  579   0.270   4.105   1.802 -1.6035 -0.7541  0.5100
  145SOL     vw  580   0.308   4.101   1.881 -0.0208  0.2482 -0.1482
  146SOL     ow  581   3.581   1.965   1.231  0.1728 -0.1571  0.2599
  146SOL     hw  582   3.568   2.060   1.227 -1.6442 -0.2822  1.5658
  146SOL     hw  583   3.546   1.933   1.148 -2.1598  0.1343  1.0321
  146SOL     vw  584   3.574   1.974   1.220 -0.3748 -0.1351  0.5340
  147SOL     ow  585   4.612   4.341   3.818  0.5297  0.0713  0.5244
  147SOL     hw  586   4.689   4.371   3.771  0.7826 -0.2580  0.7225
  147SOL     hw  587   4.539   4.361   3.760  0.8037  0.0018  0.1506
  147SOL     vw  588   4.613   4.348   3.804  0.5991  0.0188  0.5012
  148SOL     ow  589   5.614   4.861   6.066  0.5383 -0.5862 -0.1792
  148SOL     hw  590   5.592   4.949   6.034 -0.2200 -0.9879 -0.7721
  148SOL     hw  591   5.592   4.803   5.994  2.6227 -1.1243 -0.4447
  148SOL     vw  592   5.608   4.865   6.052  0.7133 -0.7102 -0.2925
  149SOL     ow  593   3.171   1.030   3.263  0.0679 -0.3705 -0.6455
  149SOL     hw  594   3.104   1.045   3.196  0.9349  2.3992 -1.0234
  149SOL     hw  595   3.143   1.085   3.337  2.5090  1.9153 -1.3079
  149SOL     vw  596   3.158   1.039   3.264  0.5044  0.2965 -0.7828
  150SOL     ow  597   5.853   6.738   6.762 -0.0478  0.2649  0.4460
  150SOL     hw  598   5.780   6.679   6.780  1.2236 -1.1848  1.1171
  150SOL     hw  599   5.841   6.811   6.822 -0.5058 -0.3595  1.1300
  150SOL     vw  600   5.842   6.740   6.772  0.0596 -0.0088  0.6247
  151SOL     ow  601   6.233   4.730   4.886 -0.4782  0.0092 -0.5515
  151SOL     hw  602   6.254   4.679   4.964 -0.6564  0.9668  0.1453
  151SOL     hw  603   6.308   4.788   4.875 -0.7154  0.2774 -0.7495
  151SOL     vw  604   6.246   4.731   4.895 -0.5333  0.1712 -0.4854
  152SOL     ow  605   4.774   0.106   4.939 -0.1410  0.6151 -0.0507
  152SOL     hw  606   4.832   0.041   4.898  1.0372  0.6428  1.4661
  152SOL     hw  607   4.833   0.164   4.986 -1.4077  0.3969  1.9292
  152SOL     vw  608   4.789   0.105   4.940 -0.1528  0.5900  0.4106
  153SOL     ow  609   6.629   4.649   2.155  0.4218  0.5275  0.1463
  153SOL     hw  610   6.641   4.649   2.061  0.4637 -2.5848  0.0561
  153SOL     hw  611   6.716   4.634   2.191  0.3424  1.2992  0.6857
  153SOL     vw  612   6.642   4.647   2.148  0.4170  0.2189  0.2055
  154SOL     ow  613   1.926   3.566   0.247 -0.1115 -0.3401 -0.2153
  154SOL     hw  614   1.851   3.585   0.191  0.7707  0.8476 -1.0604
  154SOL     hw  615   1.939   3.472   0.239 -1.3618 -0.5278 -0.2274
  154SOL     vw  616   1.918   3.556   0.239 -0.1601 -0.2083 -0.3284
  155SOL     ow  617   3.949   4.226   6.249 -0.4005  0.4194  0.6580
  155SOL     hw  618   3.862   4.246   6.285 -0.8732 -0.5432  0.1181
  155SOL     hw  619   3.980   4.308   6.212 -1.1185  0.7630  0.8057
  155SOL     vw  620   3.941   4.239   6.249 -0.5577  0.3378  0.6061
  156SOL     ow  621   4.451   2.440   1.208  0.0206  0.9243 -0.2106
  156SOL     hw  622   4.363   2.474   1.202 -0.0113  0.7334 -0.8614
  156SOL     hw  623   4.440   2.345   1.218  0.1469  0.9118 -0.1756
  156SOL     vw  624   4.438   2.432   1.209  0.0331  0.8974 -0.2918
  157SOL     ow  625   5.667   4.083   0.344 -0.5048 -0.3085 -0.2578
  157SOL     hw  626   5.628   3.998   0.365 -0.6116 -0.3306 -0.5540
  157SOL     hw  627   5.714   4.069   0.262  0.1597 -0.2931  0.1043
  157SOL     vw  628   5.668   4.070   0.336 -0.4311 -0.3092 -0.2491
  158SOL     ow  629   2.536   5.492   4.607  0.4844  0.3489  1.0869
  158SOL     hw  630   2.617   5.441   4.613  0.6245  0.6032  1.3585
  158SOL     hw  631   2.467   5.429   4.625  0.6078  0.0834  0.6521
  158SOL     vw  632   2.538   5.477   4.610  0.5192  0.3474  1.0653
  159SOL     ow  633   3.105   5.526   4.209 -0.2387  0.4311 -0.4311
  159SOL     hw  634   3.027   5.472   4.192 -0.1354 -0.1324  0.8061
  159SOL     hw  635   3.176   5.480   4.164 -0.5618  0.8201 -1.3669
  159SOL     vw  636   3.104   5.513   4.201 -0.2677  0.4079 -0.3915
  160SOL     ow  637   5.474   3.059   3.774 -0.2834  0.3906 -0.6786
  160SOL     hw  638   5.462   2.967   3.747  0.6330  0.1183 -0.2094
  160SOL     hw  639   5.438   3.110   3.701  1.0938 -0.3301 -1.9213
  160SOL     vw  640   5.467   3.053   3.761  0.0191  0.2598 -0.7806
  161SOL     ow  641   4.818   5.078   3.557  0.0687  0.1780  0.0165
  161SOL     hw  642   4.805   5.031   3.639  3.3694 -1.0214  0.0027
  161SOL     hw  643   4.841   5.167   3.584 -1.5362  0.5569  0.2250
  161SOL     vw  644   4.820   5.084   3.571  0.2925  0.0696  0.0421
  162SOL     ow  645   5.816   1.101   5.037 -0.1879  0.2438  0.0076
  162SOL     hw  646   5.735   1.117   4.988 -0.3535 -0.3804  0.0633
  162SOL     hw  647   5.809   1.010   5.065  0.9949 -0.1465 -0.8626
  162SOL     vw  648   5.804   1.091   5.034 -0.0536  0.1100 -0.0999
  163SOL     ow  649   1.627   3.008   0.657  0.1968 -0.1523  0.3149
  163SOL     hw  650   1.641   2.916   0.678 -1.2271 -0.2701  0.8954
  163SOL     hw  651   1.543   3.009   0.610 -0.7045  1.0015  1.8615
  163SOL     vw  652   1.618   2.996   0.654 -0.1100 -0.0156  0.5955
  164SOL     ow  653   0.923   2.556   0.960 -0.2408 -0.0639  0.1931
  164SOL     hw  654   1.015   2.577   0.942  0.3276 -1.7816  0.7945
  164SOL     hw  655   0.913   2.466   0.929 -2.1495  0.5505 -1.1766
  164SOL     vw  656   0.934   2.547   0.953 -0.4176 -0.2095  0.0917
  165SOL     ow  657   3.619   2.371   2.213  0.3550  0.0849  0.0236
  165SOL     hw  658   3.624   2.288   2.166  1.5184  1.1041 -1.7345
  165SOL     hw  659   3.602   2.437   2.146  1.4823  1.5353  1.0670
  165SOL     vw  660   3.617   2.369   2.198  0.6571  0.4107 -0.0708
  166SOL     ow  661   5.900   6.394   5.085 -0.3033 -0.0851  0.0477
  166SOL     hw  662   5.961   6.462   5.114 -0.1809  0.2639 -0.9861
  166SOL     hw  663   5.951   6.313   5.089 -0.0258  0.0850 -0.0239
  166SOL     vw  664   5.915   6.393   5.089 -0.2503 -0.0165 -0.0985
  167SOL     ow  665   0.690   2.846   1.550 -0.1751  0.3844  0.3421
  167SOL     hw  666   0.672   2.758   1.585 -1.1984  0.3099 -0.3166
  167SOL     hw  667   0.764   2.878   1.602  0.4216 -0.9875  0.3961
  167SOL     vw  668   0.697   2.838   1.561 -0.2314  0.1937  0.2623
  168SOL     ow  669   6.367   5.444   5.588 -0.2087  0.4719 -0.2292
  168SOL     hw  670   6.303   5.376   5.606  0.4575  0.2812  1.6224
  168SOL     hw  671   6.381   5.488   5.672  1.1842  1.2887 -0.8394
  168SOL     vw  672   6.361   5.441   5.601  0.0629  0.5546 -0.0651
  169SOL     ow  673   0.014   4.668   4.179 -0.0364 -0.3738 -0.2160
  169SOL     hw  674  -0.071   4.690   4.219  0.5290 -1.3787  1.6360
  169SOL     hw  675   0.076   4.726   4.221  0.4904 -1.0215 -0.0887
  169SOL     vw  676   0.011   4.678   4.190  0.1077 -0.5920  0.0453
  170SOL     ow  677   0.257   5.030   5.744  0.0067  0.1219  0.0070
  170SOL     hw  678   0.307   5.026   5.663  0.6585  2.6237  0.1922
  170SOL     hw  679   0.204   5.110   5.737 -1.9825 -1.0199  0.9552
  170SOL     vw  680   0.257   5.040   5.733 -0.1698  0.3016  0.1562
  171SOL     ow  681   1.994   3.661   0.575 -0.3469  0.1125 -0.1462
  171SOL     hw  682   1.946   3.743   0.587 -0.4059 -0.0528  0.8837
  171SOL     hw  683   2.041   3.648   0.658 -2.0992 -2.0077  0.6122
  171SOL     vw  684   1.994   3.670   0.588 -0.5859 -0.1891  0.0898
  172SOL     ow  685   6.164   0.601   0.191  0.3291 -0.5128 -0.7801
  172SOL     hw  686   6.208   0.521   0.218 -1.7938 -1.2188  0.9217
  172SOL     hw  687   6.217   0.672   0.228  0.8298 -1.2467 -0.0817
  172SOL     vw  688   6.177   0.600   0.199  0.1152 -0.7027 -0.4634
  173SOL     ow  689   0.831   6.596   0.776  0.0628  0.0990 -0.2468
  173SOL     hw  690   0.858   6.547   0.699  0.1186 -0.2885  0.0195
  173SOL     hw  691   0.891   6.671   0.778  0.0003  0.1621 -0.6293
  173SOL     vw  692   0.843   6.600   0.766  0.0619  0.0563 -0.2621
  174SOL     ow  693   5.546   4.862   1.695 -0.7031  0.6664 -0.3191
  174SOL     hw  694   5.492   4.794   1.735 -0.3861  1.3118  1.2752
  174SOL     hw  695   5.549   4.838   1.602 -0.7897 -1.3462  0.1446
  174SOL     vw  696   5.539   4.850   1.688 -0.6726  0.4864 -0.0476
  175SOL     ow  697   1.602   1.510   4.451  0.6901  0.1122 -0.0136
  175SOL     hw  698   1.668   1.575   4.427  0.8774 -0.2851 -0.6148
  175SOL     hw  699   1.544   1.505   4.375  0.6413 -0.3697  0.0459
  175SOL     vw  700   1.603   1.518   4.438  0.7083 -0.0038 -0.0854
  176SOL     ow  701   6.351   0.436   2.039 -0.2088 -0.0424 -0.6534
  176SOL     hw  702   6.279   0.478   1.993 -0.9433 -0.2418  0.2672
  176SOL     hw  703   6.367   0.355   1.990 -0.6596 -0.0300 -0.8248
  176SOL     vw  704   6.344   0.431   2.027 -0.3653 -0.0671 -0.5546
  177SOL     ow  705   4.832   0.828   4.997 -0.0699  0.1567 -0.0656
  177SOL     hw  706   4.740   0.833   5.021  0.0653  0.5680  0.3906
  177SOL     hw  707   4.832   0.810   4.903 -0.6449  2.1505 -0.5010
  177SOL     vw  708   4.820   0.826   4.987 -0.1280  0.4740 -0.0629
  178SOL     ow  709   3.169   4.826   2.491  0.1355  0.3553 -0.3388
  178SOL     hw  710   3.197   4.823   2.399  0.2814 -1.1942 -0.2568
  178SOL     hw  711   3.249   4.814   2.541 -0.2439 -1.2479 -0.0657
  178SOL     vw  712   3.183   4.824   2.485  0.1048 -0.0606 -0.2919
  179SOL     ow  713   2.369   6.711   2.732 -0.0966 -0.3722 -0.3448
  179SOL     hw  714   2.440   6.696   2.795  0.2082  0.4709 -0.4742
  179SOL     hw  715   2.292   6.727   2.786  0.3534  1.2985 -0.1238
  179SOL     vw  716   2.368   6.711   2.747  0.0029 -0.0405 -0.3326
  180SOL     ow  717   2.275   5.507   2.511  0.0029 -0.0886  0.2723
  180SOL     hw  718   2.368   5.485   2.500 -0.2311 -0.8004 -0.3783
  180SOL     hw  719   2.236   5.428   2.549 -0.7584 -0.6757 -1.6178
  180SOL     vw  720   2.282   5.494   2.514 -0.1285 -0.2599 -0.0629
  181SOL     ow  721   4.678   4.311   2.361  0.1846  0.1147 -0.1447
  181SOL     hw  722   4.597   4.290   2.316 -0.1032  0.1504  0.3502
  181SOL     hw  723   4.697   4.234   2.415 -0.1037  0.5339  0.5712
  181SOL     vw  724   4.670   4.298   2.362  0.1085  0.1745  0.0149
  182SOL     ow  725   1.687   3.769   3.306  0.2776 -0.5484 -0.3271
  182SOL     hw  726   1.612   3.710   3.314 -0.5457  0.6054  0.8451
  182SOL     hw  727   1.759   3.712   3.278 -1.4622 -1.3602 -3.7139
  182SOL     vw  728   1.687   3.754   3.303 -0.0605 -0.5033 -0.6193
  183SOL     ow  729   2.990   3.447   1.317  0.2604  0.4022 -0.1005
  183SOL     hw  730   2.960   3.472   1.405  1.3330 -0.4492  0.5320
  183SOL     hw  731   3.007   3.353   1.324  0.6444  0.3832 -1.1433
  183SOL     vw  732   2.988   3.438   1.330  0.4525  0.2874 -0.1547
  184SOL     ow  733   5.572   3.245   4.415  0.0190 -0.3839 -0.4878
  184SOL     hw  734   5.524   3.163   4.409  1.5429 -1.3557 -0.0903
  184SOL     hw  735   5.505   3.311   4.433 -1.1522 -1.6525 -0.0227
  184SOL     vw  736   5.557   3.243   4.417  0.0656 -0.6796 -0.3738
  185SOL     ow  737   1.227   2.770   2.326 -1.0867  0.0007  0.6077
  185SOL     hw  738   1.166   2.702   2.299 -2.4360  0.4093  2.3822
  185SOL     hw  739   1.175   2.851   2.326  0.0676  0.7756  0.0310
  185SOL     vw  740   1.212   2.772   2.323 -1.1124  0.1569  0.7656
  186SOL     ow  741   1.229   1.887   0.996  0.0284  0.4287  0.5421
  186SOL     hw  742   1.147   1.906   0.951  0.8952 -0.6985 -1.6682
  186SOL     hw  743   1.203   1.845   1.078 -1.5819 -0.9069 -0.6035
  186SOL     vw  744   1.215   1.884   1.001 -0.0696  0.1038  0.0994
  187SOL     ow  745   2.102   4.434   1.265  0.4047  0.0969  1.2112
  187SOL     hw  746   2.059   4.519   1.256 -2.6359 -1.2758  1.4837
  187SOL     hw  747   2.107   4.420   1.360 -0.6731 -0.6957  1.1708
  187SOL     vw  748   2.097   4.443   1.276 -0.1386 -0.1888  1.2418
  188SOL     ow  749   4.079   6.399   0.674  0.1422 -0.4360  0.4728
  188SOL     hw  750   3.989   6.368   0.667  0.6473 -1.9967  0.5432
  188SOL     hw  751   4.071   6.485   0.717 -1.3827  0.0513 -0.6915
  188SOL     vw  752   4.066   6.406   0.679  0.0074 -0.5774  0.3285
  189SOL     ow  753   6.732   1.276   2.252 -0.5996 -0.3812 -0.1390
  189SOL     hw  754   6.759   1.361   2.285  2.6110 -0.5804 -1.8504
  189SOL     hw  755   6.637   1.283   2.241 -0.9588  1.6691  3.0990
  189SOL     vw  756   6.723   1.288   2.255 -0.2232 -0.1370  0.0625
  190SOL     ow  757   0.934   4.377   5.900 -0.4569  0.0136 -0.4863
  190SOL     hw  758   0.908   4.339   5.816 -4.1313 -0.8348  0.8164
  190SOL     hw  759   0.892   4.463   5.902 -2.6589 -0.9882  1.3433
  190SOL     vw  760   0.925   4.383   5.889 -1.2322 -0.2308 -0.0730
  191SOL     ow  761   0.735   0.742   3.771 -0.0295 -0.4650 -0.3369
  191SOL     hw  762   0.659   0.688   3.793  0.1915 -1.0489 -0.9741
  191SOL     hw  763   0.805   0.710   3.827 -1.0107  2.3464  2.8803
  191SOL     vw  764   0.734   0.731   3.781 -0.1298 -0.1711  0.0036
  192SOL     ow  765   5.726   6.226   5.348  0.2429  0.1428  0.1580
  192SOL     hw  766   5.791   6.182   5.401  2.0073  0.8414 -1.2938
  192SOL     hw  767   5.749   6.202   5.258 -0.4960  1.7000 -0.4797
  192SOL     vw  768   5.738   6.217   5.343  0.3784  0.4404 -0.1175
  193SOL     ow  769   5.919   4.728   4.875 -0.1412  0.0896 -0.3448
  193SOL     hw  770   5.907   4.653   4.934  1.0704  2.9075  3.9547
  193SOL     hw  771   5.832   4.769   4.872  0.0503  0.5672  0.4755
  193SOL     vw  772   5.906   4.723   4.882  0.0441  0.5243  0.3309
  194SOL     ow  773   2.750   3.477   3.961  0.3167  0.0304  0.0467
  194SOL     hw  774   2.769   3.392   3.999  2.5359  0.8198  0.9047
  194SOL     hw  775   2.713   3.528   4.033  3.0985  1.0556  0.8902
  194SOL     vw  776   2.748   3.473   3.976  0.9764  0.2698  0.2712
  195SOL     ow  777   0.814   6.680   6.450  0.2831 -0.5756  0.0776
  195SOL     hw  778   0.773   6.595   6.435  1.6674 -1.2119 -0.3576
  195SOL     hw  779   0.873   6.691   6.375  0.4096  0.6008  0.3271
  195SOL     vw  780   0.817   6.671   6.438  0.4824 -0.5040  0.0532
  196SOL     ow  781   3.589   1.295   1.369 -0.2944 -0.2496  0.2870
  196SOL     hw  782   3.671   1.248   1.386 -0.3942 -0.8639 -0.8277
  196SOL     hw  783   3.529   1.264   1.437 -1.0479 -3.5471 -1.6867
  196SOL     vw  784   3.592   1.285   1.381 -0.4070 -0.7657 -0.1204
  197SOL     ow  785   2.688   0.700   3.694 -0.2465 -0.5948 -0.7270
  197SOL     hw  786   2.705   0.612   3.660 -1.1880 -0.4884 -1.5188
  197SOL     hw  787   2.594   0.702   3.711 -0.1543  0.1028 -0.2410
  197SOL     vw  788   2.678   0.689   3.692 -0.3585 -0.4887 -0.7674
  198SOL     ow  789   5.296   2.848   2.853  0.9450  0.5152 -0.6083
  198SOL     hw  790   5.268   2.939   2.843 -1.3298 -0.1844 -1.2350
  198SOL     hw  791   5.314   2.818   2.764 -0.7582 -0.2959 -0.7318
  198SOL     vw  792   5.295   2.856   2.840  0.4203  0.3159 -0.7074
  199SOL     ow  793   3.218   5.865   0.442  0.3600  0.1829  0.2979
  199SOL     hw  794   3.308   5.873   0.411  1.0865 -1.2346  1.8534
  199SOL     hw  795   3.226   5.851   0.536 -1.4386 -0.7682  0.3598
  199SOL     vw  796   3.231   5.864   0.450  0.2186 -0.1302  0.5113
  200SOL     ow  797   1.442   5.711   5.966 -0.0194  0.3747 -0.3723
  200SOL     hw  798   1.373   5.648   5.987 -0.2011  0.3126 -1.1335
  200SOL     hw  799   1.523   5.665   5.985 -0.1713  0.9483  1.9649
  200SOL     vw  800   1.443   5.697   5.971 -0.0635  0.4423 -0.1643
  201SOL     ow  801   6.624   1.892   6.351 -0.0413 -0.5298 -0.3578
  201SOL     hw  802   6.535   1.879   6.383  0.1644 -0.2903  0.3284
  201SOL     hw  803   6.615   1.896   6.256 -1.0264  1.4067 -0.2303
  201SOL     vw  804   6.611   1.891   6.343 -0.1442 -0.2427 -0.2503
  202SOL     ow  805   1.846   0.457   2.319 -0.2423 -0.6375  0.6490
  202SOL     hw  806   1.786   0.389   2.350 -0.8345 -1.1605 -1.5047
  202SOL     hw  807   1.902   0.413   2.255  1.4366  0.2165  1.4724
  202SOL     vw  808   1.845   0.442   2.315 -0.0989 -0.5938  0.4735
  203SOL     ow  809   3.925   2.771   6.353  0.0963 -0.2799  0.2478
  203SOL     hw  810   3.940   2.849   6.406  0.3192 -0.2298  0.1155
  203SOL     hw  811   3.868   2.716   6.406  0.9483 -0.5840  0.8821
  203SOL     vw  812   3.920   2.774   6.367  0.2379 -0.3133  0.3140
  204SOL     ow  813   3.441   4.545   6.131  0.7072 -0.7097  0.1504
  204SOL     hw  814   3.493   4.563   6.209  0.5377  1.1901 -0.1376
  204SOL     hw  815   3.350   4.552   6.160  0.6432  0.3698 -0.2726
  204SOL     vw  816   3.436   4.548   6.145  0.6764 -0.3166  0.0565
  205SOL     ow  817   6.416   6.738   4.988 -0.4079 -0.0040 -0.4541
  205SOL     hw  818   6.468   6.771   4.915  0.0246 -0.2690 -0.2644
  205SOL     hw  819   6.464   6.663   5.021 -0.4105  0.3318  0.3378
  205SOL     vw  820   6.429   6.733   4.983 -0.3510  0.0055 -0.3247
  206SOL     ow  821   3.758   0.731   6.331 -0.4654  0.0349  0.5509
  206SOL     hw  822   3.765   0.649   6.379 -0.1816 -1.7350 -2.2607
  206SOL     hw  823   3.848   0.757   6.314 -0.4979 -0.6178 -0.8419
  206SOL     vw  824   3.771   0.723   6.335 -0.4323 -0.2847 -0.0036
  207SOL     ow  825   5.769   3.210   3.775  0.0804 -0.0437 -0.0755
  207SOL     hw  826   5.859   3.213   3.806 -0.4747 -0.3800  1.6846
  207SOL     hw  827   5.752   3.297   3.739  0.7633  0.3747  0.6066
  207SOL     vw  828   5.778   3.222   3.774  0.0973 -0.0329  0.2466
  208SOL     ow  829   4.131   3.446   3.373  0.5204 -0.1979  0.1561
  208SOL     hw  830   4.180   3.364   3.363  0.6368  0.0117 -1.2982
  208SOL     hw  831   4.192   3.514   3.342 -0.5622  0.0960 -1.4166
  208SOL     vw  832   4.146   3.444   3.367  0.3929 -0.1315 -0.2433
  209SOL     ow  833   3.260   3.545   2.343 -0.7340 -0.2675 -0.4179
  209SOL     hw  834   3.261   3.533   2.438  1.2950  1.3225 -0.1487
  209SOL     hw  835   3.244   3.639   2.332 -0.3480 -0.3337 -1.6105
  209SOL     vw  836   3.258   3.556   2.354 -0.4153 -0.0666 -0.5398
  210SOL     ow  837   3.883   2.008   1.198 -0.3448  0.4963  0.2009
  210SOL     hw  838   3.853   2.005   1.107 -2.2288 -0.0840  0.7882
  210SOL     hw  839   3.965   1.960   1.198 -0.1165  0.8254 -1.2438
  210SOL     vw  840   3.890   2.002   1.186 -0.5634  0.4632  0.0878
  211SOL     ow  841   3.396   4.098   4.235 -0.1013  0.2789  0.7400
  211SOL     hw  842   3.348   4.149   4.300 -0.0583 -0.5777  1.4692
  211SOL     hw  843   3.429   4.022   4.284  0.5250 -0.0311 -0.1295
  211SOL     vw  844   3.394   4.095   4.250 -0.0129  0.1249  0.7217
  212SOL     ow  845   4.987   5.665   6.505  0.4771 -0.2791  0.6770
  212SOL     hw  846   4.978   5.649   6.411 -1.4697  0.3333  0.7134
  212SOL     hw  847   5.081   5.675   6.518  0.6738  3.2531 -1.8684
  212SOL     vw  848   4.998   5.664   6.494  0.2458  0.2677  0.3459
  213SOL     ow  849   6.109   5.558   0.884  0.2122  0.1540  0.4714
  213SOL     hw  850   6.149   5.481   0.925  0.6906  0.3426  0.3586
  213SOL     hw  851   6.177   5.593   0.826 -0.6164 -0.4190 -0.9159
  213SOL     vw  852   6.123   5.552   0.882  0.1657  0.1035  0.2735
  214SOL     ow  853   2.738   2.656   3.483  0.6963  0.2512  1.0043
  214SOL     hw  854   2.676   2.612   3.425  1.8243 -0.5017  0.3181
  214SOL     hw  855   2.760   2.591   3.549 -0.1701  0.9270  1.9755
  214SOL     vw  856   2.733   2.642   3.484  0.7309  0.2410  1.0418
  215SOL     ow  857   2.718   1.979   2.594  0.5551 -0.3907 -0.4403
  215SOL     hw  858   2.784   2.017   2.654 -1.3808 -0.2116  1.7190
  215SOL     hw  859   2.709   1.888   2.623 -2.0480  0.2836  1.2182
  215SOL     vw  860   2.726   1.972   2.606 -0.0436 -0.2781  0.0633
  216SOL     ow  861   0.854   3.587   2.017 -0.1756 -0.3232 -0.4241
  216SOL     hw  862   0.831   3.494   2.027 -1.6725  0.1394  0.9300
  216SOL     hw  863   0.776   3.634   2.047  1.1508  1.3712  0.5592
  216SOL     vw  864   0.841   3.581   2.023 -0.1981 -0.0385 -0.1158
  217SOL     ow  865   2.230   1.619   3.566 -0.1633 -0.1571 -0.2427
  217SOL     hw  866   2.268   1.705   3.545 -0.2596 -0.1736 -0.4787
  217SOL     hw  867   2.303   1.571   3.606 -0.0423 -0.0510 -0.3336
  217SOL     vw  868   2.245   1.624   3.569 -0.1601 -0.1453 -0.2859
  218SOL     ow  869   1.403   1.034   6.205 -0.0040 -0.2900  0.5385
  218SOL     hw  870   1.349   0.982   6.264  0.8933 -0.9991  0.7621
  218SOL     hw  871   1.340   1.083   6.152 -0.8760 -1.3667  0.5367
  218SOL     vw  872   1.387   1.034   6.206 -0.0007 -0.5256  0.5677
  219SOL     ow  873   0.571   5.446   3.401 -0.0584  0.3583  0.1678
  219SOL     hw  874   0.523   5.509   3.453  0.8177  1.2377 -0.0557
  219SOL     hw  875   0.505   5.404   3.346 -0.7961  0.3438  1.0306
  219SOL     vw  876   0.556   5.449   3.401 -0.0401  0.4723  0.2522
  220SOL     ow  877   5.633   3.034   2.253 -0.1806  0.1032 -0.1728
  220SOL     hw  878   5.670   2.950   2.226  2.0143  0.7473  0.5529
  220SOL     hw  879   5.587   3.016   2.335  0.2740 -0.4082 -0.0266
  220SOL     vw  880   5.632   3.021   2.260  0.1690  0.1209 -0.0578
  221SOL     ow  881   0.387   4.308   5.179 -0.3301  0.2286  0.6863
  221SOL     hw  882   0.419   4.395   5.203  1.3566 -0.1072 -0.1902
  221SOL     hw  883   0.462   4.250   5.195 -0.2617 -0.5297 -1.9654
  221SOL     vw  884   0.402   4.312   5.184 -0.0985  0.0844  0.2208
  222SOL     ow  885   1.095   4.794   2.038  0.3353 -0.2260  0.0138
  222SOL     hw  886   1.107   4.875   2.087  0.6809 -0.7205  0.7526
  222SOL     hw  887   1.003   4.772   2.051 -0.1384  0.7698 -1.3422
  222SOL     vw  888   1.084   4.802   2.046  0.3185 -0.1600 -0.0677
  223SOL     ow  889   2.235   6.778   2.448 -0.4022 -0.5887  0.1931
  223SOL     hw  890   2.203   6.695   2.410  2.2109 -0.9772 -1.4021
  223SOL     hw  891   2.211   6.844   2.383  1.1770 -0.7606 -0.5992
  223SOL     vw  892   2.228   6.776   2.434  0.1509 -0.6626 -0.1220
  224SOL     ow  893   6.480   5.823   3.230 -0.2035  0.1234 -0.2702
  224SOL     hw  894   6.561   5.801   3.185 -1.1295 -1.8734 -1.1209
  224SOL     hw  895   6.414   5.766   3.189 -2.3740  2.7668 -0.7353
  224SOL     vw  896   6.482   5.812   3.219 -0.6118  0.2086 -0.4439
  225SOL     ow  897   5.732   6.354   1.009  0.7053 -0.1300  0.1680
  225SOL     hw  898   5.711   6.290   0.941  0.2198  0.7230 -0.5235
  225SOL     hw  899   5.748   6.435   0.960 -0.9453  0.8352  1.1324
  225SOL     vw  900   5.731   6.356   0.993  0.4237  0.1099  0.2040
  226SOL     ow  901   3.778   1.548   2.832 -0.1004 -0.3723 -0.5596
  226SOL     hw  902   3.726   1.513   2.760 -0.6841  0.5205 -0.5840
  226SOL     hw  903   3.868   1.544   2.800 -0.3617  0.1149 -1.3851
  226SOL     vw  904   3.783   1.543   2.818 -0.2118 -0.1902 -0.6717
  227SOL     ow  905   1.956   5.247   5.714 -0.0902  0.0705  1.0512
  227SOL     hw  906   1.917   5.305   5.780 -1.6935  0.0449  0.1891
  227SOL     hw  907   1.917   5.276   5.631  3.4327  1.4723 -0.2955
  227SOL     vw  908   1.945   5.258   5.712  0.1631  0.2522  0.7596
  228SOL     ow  909   2.052   5.635   2.710  0.0595  0.1443  0.6971
  228SOL     hw  910   2.080   5.589   2.789  1.0757  0.5460  0.5830
  228SOL     hw  911   1.957   5.641   2.719 -0.1424 -2.0839  0.6481
  228SOL     vw  912   2.043   5.630   2.722  0.1670 -0.0968  0.6754
  229SOL     ow  913   0.367   6.601   3.547  0.4408  0.3641  0.2687
  229SOL     hw  914   0.321   6.681   3.574 -0.1908 -0.0241  0.3568
  229SOL     hw  915   0.439   6.632   3.493  0.3138  1.0072  0.4606
  229SOL     vw  916   0.371   6.616   3.544  0.3407  0.3977  0.3058
  230SOL     ow  917   5.883   3.233   2.737 -0.3591  0.2062 -0.4706
  230SOL     hw  918   5.976   3.256   2.726  0.0886 -0.9875  0.5814
  230SOL     hw  919   5.870   3.158   2.680  0.0496 -1.2938  1.3041
  230SOL     vw  920   5.894   3.226   2.728 -0.2460 -0.1493 -0.0975
  231SOL     ow  921   2.338   5.364   0.062 -0.5644 -0.1876 -0.6149
  231SOL     hw  922   2.401   5.429   0.033 -0.8376  1.1597  1.5911
  231SOL     hw  923   2.255   5.392   0.025 -0.4023 -0.2177 -1.0017
  231SOL     vw  924   2.335   5.376   0.054 -0.5791 -0.0138 -0.3748
  232SOL     ow  925   1.173   3.462   6.475 -0.6562 -0.0605 -0.3746
  232SOL     hw  926   1.168   3.381   6.424 -1.0741  0.0502 -0.5139
  232SOL     hw  927   1.184   3.531   6.410 -0.2709 -0.0045 -0.2530
  232SOL     vw  928   1.174   3.460   6.460 -0.6605 -0.0385 -0.3769
  233SOL     ow  929   6.056   6.553   6.679 -0.3535  0.0758  0.4243
  233SOL     hw  930   6.123   6.496   6.641  0.5520  1.3830 -0.0115
  233SOL     hw  931   6.005   6.496   6.736 -1.0595 -1.7090 -1.8849
  233SOL     vw  932   6.058   6.538   6.682 -0.3273  0.0126  0.0622
  234SOL     ow  933   6.270   2.671   0.071 -0.0052  0.1769 -0.1489
  234SOL     hw  934   6.284   2.587   0.028  0.4780 -0.6548  1.5389
  234SOL     hw  935   6.348   2.722   0.050 -0.3981  0.3140 -1.3592
  234SOL     vw  936   6.282   2.667   0.062  0.0069  0.0852 -0.0859
  235SOL     ow  937   1.697   0.626   0.594  0.6215 -0.4175 -0.1870
  235SOL     hw  938   1.767   0.679   0.555 -0.9814  0.2259 -2.3789
  235SOL     hw  939   1.743   0.561   0.647  2.9511 -0.4066 -2.0042
  235SOL     vw  940   1.712   0.624   0.596  0.7173 -0.3311 -0.7159
  236SOL     ow  941   5.151   6.157   0.452 -0.3038 -0.4521 -0.0193
  236SOL     hw  942   5.115   6.111   0.528  1.2744 -1.5061  0.1535
  236SOL     hw  943   5.214   6.219   0.490  0.8072 -1.2810 -0.4480
  236SOL     vw  944   5.155   6.160   0.467  0.0510 -0.7005 -0.0530
  237SOL     ow  945   2.126   6.154   4.050 -0.4491  0.6361 -0.4675
  237SOL     hw  946   2.157   6.084   3.992 -0.7495 -0.6000  0.7850
  237SOL     hw  947   2.189   6.155   4.122 -1.6630  0.0811  0.6465
  237SOL     vw  948   2.138   6.145   4.052 -0.6491  0.4001 -0.1554
  238SOL     ow  949   2.405   5.566   3.225 -0.1852 -0.0519 -0.1632
  238SOL     hw  950   2.464   5.633   3.192  1.7636 -0.9391  1.2853
  238SOL     hw  951   2.431   5.486   3.178 -0.8941 -0.2598 -0.2033
  238SOL     vw  952   2.416   5.564   3.215 -0.0215 -0.1965  0.0226
  239SOL     ow  953   3.584   5.627   3.141 -0.2568  0.2295 -0.5965
  239SOL     hw  954   3.621   5.577   3.068  1.6234  0.3840  0.2020
  239SOL     hw  955   3.604   5.574   3.219 -0.5005  0.9985 -0.0001
  239SOL     vw  956   3.591   5.613   3.142 -0.0409  0.3512 -0.4126
  240SOL     ow  957   0.931   2.878   1.072 -0.4918  0.2494 -0.3399
  240SOL     hw  958   1.010   2.878   1.127 -0.4696  0.3305 -0.3726
  240SOL     hw  959   0.875   2.945   1.111  0.0877  1.2866 -1.2393
  240SOL     vw  960   0.934   2.887   1.085 -0.4124  0.3970 -0.4629
  241SOL     ow  961   2.579   0.881   3.450 -0.0083 -0.5510 -0.0571
  241SOL     hw  962   2.495   0.916   3.481  0.8225  1.4671  0.0640
  241SOL     hw  963   2.591   0.921   3.364  0.6561 -1.1243 -0.2319
  241SOL     vw  964   2.569   0.891   3.443  0.1891 -0.3604 -0.0641
  242SOL     ow  965   1.587   6.571   5.370  0.0292 -0.8557 -0.2840
  242SOL     hw  966   1.586   6.619   5.453 -1.8528  1.3880 -1.4986
  242SOL     hw  967   1.634   6.490   5.390  0.8118  0.1882  2.6150
  242SOL     vw  968   1.593   6.567   5.384 -0.1159 -0.4220 -0.0618
  243SOL     ow  969   6.319   2.853   1.855 -0.0453 -0.2293  0.8109
  243SOL     hw  970   6.319   2.947   1.871  1.6610 -0.1501  0.5794
  243SOL     hw  971   6.245   2.819   1.905 -0.9593  1.2834  0.5262
  243SOL     vw  972   6.309   2.861   1.863  0.0591 -0.0193  0.7428
  244SOL     ow  973   0.236   2.817   2.418 -0.3780 -0.2077 -0.1354
  244SOL     hw  974   0.203   2.862   2.340 -0.5729  0.7214  0.4617
  244SOL     hw  975   0.158   2.787   2.464 -0.2471 -1.2480 -0.5619
  244SOL     vw  976   0.222   2.819   2.414 -0.3865 -0.2223 -0.1129
  245SOL     ow  977   4.168   0.276   3.591 -0.1558 -0.0947 -0.3592
  245SOL     hw  978   4.187   0.238   3.505 -0.0545  0.4740 -0.5910
  245SOL     hw  979   4.244   0.332   3.610 -0.7530  0.7606 -0.4622
  245SOL     vw  980   4.181   0.278   3.582 -0.2213  0.0932 -0.4034
  246SOL     ow  981   3.742   5.068   3.509  0.7030  0.5637  0.3590
  246SOL     hw  982   3.666   5.068   3.451  1.3595 -1.3452 -0.5602
  246SOL     hw  983   3.755   5.161   3.530 -2.2560  0.9233  1.1402
  246SOL     vw  984   3.734   5.080   3.504  0.3992  0.3593  0.3408
  247SOL     ow  985   2.135   1.868   1.481 -0.3556  0.2754 -0.4052
  247SOL     hw  986   2.121   1.775   1.461 -1.8145  0.3845  0.0112
  247SOL     hw  987   2.120   1.875   1.575 -3.9981  1.4835 -0.9159
  247SOL     vw  988   2.131   1.857   1.491 -1.0287  0.4492 -0.4176
  248SOL     ow  989   0.202   5.540   1.987 -0.5463  0.1165  0.7437
  248SOL     hw  990   0.266   5.604   2.016  0.8372  1.4789 -4.3791
  248SOL     hw  991   0.117   5.578   2.011  0.3463  1.4741  1.9123
  248SOL     vw  992   0.199   5.553   1.994 -0.2460  0.4752  0.2219
  249SOL     ow  993   1.628   1.382   5.248  0.0284 -0.0118  0.6517
  249SOL     hw  994   1.601   1.473   5.237  1.0875  0.0875 -1.8440
  249SOL     hw  995   1.721   1.388   5.272  0.8465 -0.3567 -2.0821
  249SOL     vw  996   1.637   1.395   5.250  0.2760 -0.0442 -0.0384
  250SOL     ow  997   0.315   2.693   3.462  0.3069 -0.0143 -0.1906
  250SOL     hw  998   0.339   2.765   3.404  3.2671 -1.3354 -0.7686
  250SOL     hw  999   0.382   2.694   3.531 -1.4506 -0.2954  1.6384
  250SOL     vw 1000   0.327   2.703   3.464  0.4656 -0.2258 -0.0256
  251SOL     ow 1001   1.485   5.752   1.374  0.2982  0.4351 -0.0208
  251SOL     hw 1002   1.425   5.681   1.354 -0.5060  0.9393  0.5379
  251SOL     hw 1003   1.570   5.710   1.388  0.2376 -0.2255 -1.4673
  251SOL     vw 1004   1.489   5.737   1.373  0.1842  0.4144 -0.1379
  252SOL     ow 1005   4.526   4.380   0.670 -0.2896  0.4880 -0.6841
  252SOL     hw 1006   4.619   4.401   0.656  0.1206  0.5689  1.6935
  252SOL     hw 1007   4.514   4.296   0.627 -0.0761  2.0455 -4.0675
  252SOL     vw 1008   4.537   4.372   0.663 -0.2074  0.7043 -0.8168
  253SOL     ow 1009   3.568   1.779   2.982 -0.1916  0.0073  0.1085
  253SOL     hw 1010   3.485   1.824   2.968 -0.6726 -1.1122 -0.8298
  253SOL     hw 1011   3.552   1.722   3.056  0.5070  1.5199  1.4860
  253SOL     vw 1012   3.555   1.778   2.990 -0.1627  0.0592  0.1664
  254SOL     ow 1013   6.037   0.043   3.425  0.3928 -0.1246 -0.4532
  254SOL     hw 1014   6.020  -0.003   3.507 -1.4579 -0.1066 -0.7808
  254SOL     hw 1015   6.120   0.088   3.440 -0.6089  1.0913  1.9581
  254SOL     vw 1016   6.046   0.043   3.438  0.0165  0.0382 -0.1782
  255SOL     ow 1017   2.895   4.988   2.586  0.0319 -0.9420  0.0807
  255SOL     hw 1018   2.838   5.060   2.559 -0.4638 -1.3506  0.0240
  255SOL     hw 1019   2.837   4.912   2.591  0.0953 -0.8894  2.3419
  255SOL     vw 1020   2.880   4.988   2.583 -0.0250 -0.9887  0.3715
  256SOL     ow 1021   3.876   1.582   5.547 -0.1122 -0.4166  0.5391
  256SOL     hw 1022   3.924   1.609   5.626 -0.8901  1.5721  0.3838
  256SOL     hw 1023   3.792   1.551   5.580  0.2987 -1.5430  0.6051
  256SOL     vw 1024   3.871   1.581   5.562 -0.1607 -0.3029  0.5274
  257SOL     ow 1025   2.621   4.938   1.286 -0.1023 -0.2699  0.0084
  257SOL     hw 1026   2.681   4.939   1.211 -0.2869 -0.2960 -0.1410
  257SOL     hw 1027   2.677   4.953   1.362  0.0625 -0.0750 -0.1517
  257SOL     vw 1028   2.637   4.940   1.286 -0.1050 -0.2477 -0.0325
  258SOL     ow 1029   1.300   0.353   3.935  0.1379  0.6828 -0.1690
  258SOL     hw 1030   1.315   0.435   3.888 -2.7056  1.4190  0.0153
  258SOL     hw 1031   1.288   0.381   4.026 -1.3162  0.1605 -0.1789
  258SOL     vw 1032   1.301   0.368   3.941 -0.4292  0.7111 -0.1459
  259SOL     ow 1033   6.163   0.337   5.767 -0.5302  0.2633  0.5659
  259SOL     hw 1034   6.200   0.362   5.851 -1.1817  0.1031  0.9042
  259SOL     hw 1035   6.194   0.404   5.706 -0.1549  0.4454  0.9524
  259SOL     vw 1036   6.172   0.349   5.770 -0.5667  0.2662  0.6616
  260SOL     ow 1037   2.995   6.254   1.436 -0.0186 -1.0677  0.0329
  260SOL     hw 1038   2.919   6.224   1.486  2.0232 -1.9999  2.7980
  260SOL     hw 1039   2.981   6.348   1.425 -0.6952 -0.8678  2.2254
  260SOL     vw 1040   2.983   6.262   1.441  0.1616 -1.1644  0.6870
  261SOL     ow 1041   5.151   4.300   1.695  0.9668 -0.2730 -0.1169
  261SOL     hw 1042   5.092   4.242   1.743  0.7796  0.6923  0.8422
  261SOL     hw 1043   5.101   4.380   1.681  1.8025  0.3028  0.0972
  261SOL     vw 1044   5.137   4.303   1.700  1.0526 -0.0696  0.0379
  262SOL     ow 1045   5.969   3.717   1.329 -0.0668 -0.5605 -0.4542
  262SOL     hw 1046   5.973   3.770   1.409 -0.0558 -0.6664 -0.3838
  262SOL     hw 1047   5.956   3.781   1.258  0.0150 -0.4587 -0.3779
  262SOL     vw 1048   5.968   3.733   1.330 -0.0544 -0.5609 -0.4348
  263SOL     ow 1049   1.662   0.664   3.041 -0.3252  0.7709 -0.1885
  263SOL     hw 1050   1.671   0.748   3.086  0.2761  1.0296 -0.7704
  263SOL     hw 1051   1.741   0.658   2.987 -0.9903  0.4432 -1.1425
  263SOL     vw 1052   1.674   0.675   3.040 -0.3336  0.7618 -0.3912
  264SOL     ow 1053   3.610   6.654   3.301 -0.0087 -0.1877 -0.2014
  264SOL     hw 1054   3.596   6.642   3.395  0.9243 -0.9805 -0.1437
  264SOL     hw 1055   3.530   6.695   3.269 -0.7780 -0.9160  0.7477
  264SOL     vw 1056   3.598   6.658   3.309  0.0130 -0.3884 -0.0685
  265SOL     ow 1057   6.739   1.744   3.510 -0.5158  0.4558 -0.3916
  265SOL     hw 1058   6.770   1.654   3.519  0.7449  0.9903  1.0004
  265SOL     hw 1059   6.816   1.792   3.477  0.2508  1.7913  2.9810
  265SOL     vw 1060   6.753   1.739   3.507 -0.2484  0.7026  0.2372
  266SOL     ow 1061   6.646   4.731   1.085 -0.3652 -0.8385 -0.8589
  266SOL     hw 1062   6.600   4.770   1.159  0.2718 -0.1903 -0.7872
  266SOL     hw 1063   6.721   4.687   1.124 -0.5644 -1.3333 -1.0322
  266SOL     vw 1064   6.650   4.730   1.100 -0.3073 -0.8180 -0.8723
  267SOL     ow 1065   0.025   3.059   0.705  0.0717  0.1546  0.2120
  267SOL     hw 1066  -0.041   3.096   0.764 -1.2432 -0.7312 -0.6414
  267SOL     hw 1067   0.075   2.998   0.759 -0.0052  0.6081  0.7985
  267SOL     vw 1068   0.023   3.056   0.720 -0.1119  0.0976  0.1768
  268SOL     ow 1069   3.590   5.580   5.378 -0.4145 -0.7933  0.1734
  268SOL     hw 1070   3.522   5.517   5.403  0.2466 -1.2401  0.8724
  268SOL     hw 1071   3.621   5.548   5.293 -1.3204 -0.3754 -0.3342
  268SOL     vw 1072   3.585   5.567   5.370 -0.4469 -0.7970  0.1986
  269SOL     ow 1073   5.402   2.423   0.002  0.4678  0.3321  0.5633
  269SOL     hw 1074   5.312   2.399   0.022  0.3813  2.0310  2.5566
  269SOL     hw 1075   5.397   2.514  -0.029  1.2282 -0.5052 -2.3304
  269SOL     vw 1076   5.390   2.432   0.000  0.5567  0.4457  0.4445
  270SOL     ow 1077   5.890   4.701   2.675 -0.4177  0.1608 -0.1908
  270SOL     hw 1078   5.865   4.620   2.719 -0.3334 -0.8149 -1.8383
  270SOL     hw 1079   5.982   4.714   2.700  0.2516 -1.4826 -1.5818
  270SOL     vw 1080   5.899   4.692   2.684 -0.3183 -0.1845 -0.5916
  271poe    c31 1081   1.072   2.150   6.372  0.2314 -0.4183  0.0854
  271poe     o2 1082   1.058   2.048   6.469  0.3735 -0.1807  0.3551
  271poe    c23 1083   0.928   2.055   6.522  0.6641  0.5318  0.9806
  271poe    c23 1084   0.919   1.929   6.609  0.4041 -0.0361  0.1391
  271poe     o2 1085   0.982   1.832   6.529 -0.3277 -0.0521 -0.4282
  271poe    c23 1086   1.022   1.712   6.592  0.1016  0.0632 -0.4745
  271poe    c23 1087   1.110   1.631   6.495  0.1278  0.0101 -0.4068
  271poe     o2 1088   1.201   1.727   6.446 -0.0833  0.2829 -0.2700
  271poe    c23 1089   1.298   1.689   6.351  0.4737  0.1796  0.3412
  271poe    c23 1090   1.355   1.818   6.291 -0.2150  0.2862 -0.0904
  271poe     o2 1091   1.255   1.914   6.269 -0.4880  0.0624  0.1665
  271poe    c31 1092   1.321   2.003   6.181 -0.2234 -0.0908  0.2105
  272poe    c31 1093   1.453   4.725   1.911 -0.1456  0.1423 -0.5701
  272poe     o2 1094   1.376   4.731   2.029  0.2284 -0.1125 -0.3096
  272poe    c23 1095   1.460   4.786   2.127 -0.4012 -0.6332  0.5354
  272poe    c23 1096   1.387   4.800   2.262 -0.4751  0.7456  0.3651
  272poe     o2 1097   1.289   4.698   2.261  0.0155  0.2759  0.1562
  272poe    c23 1098   1.234   4.667   2.387  0.2313  0.1428  0.2190
  272poe    c23 1099   1.086   4.709   2.396  0.1357 -0.1208 -0.1259
  272poe     o2 1100   1.023   4.660   2.279 -0.6537 -0.1335  0.2972
  272poe    c23 1101   0.885   4.685   2.289 -0.5097  0.6901  0.3273
  272poe    c23 1102   0.801   4.658   2.163 -0.0198  0.1244  0.1153
  272poe     o2 1103   0.842   4.749   2.063  0.0802 -0.3045 -0.2333
  272poe    c31 1104   0.749   4.763   1.957  0.1306 -0.1068 -0.2509
  273poe    c31 1105   3.892   2.527   4.951  0.4081  0.0141  0.3020
  273poe     o2 1106   3.989   2.544   4.849 -0.2971  0.1803 -0.3523
  273poe    c23 1107   4.109   2.590   4.909  0.0790 -0.5234 -0.5598
  273poe    c23 1108   4.204   2.668   4.817 -0.0237  0.2162 -0.0446
  273poe     o2 1109   4.193   2.596   4.696 -0.3904  0.1678  0.0173
  273poe    c23 1110   4.251   2.669   4.590  0.2872 -0.5864 -0.1340
  273poe    c23 1111   4.199   2.588   4.470 -0.2383 -0.6137  0.1089
  273poe     o2 1112   4.061   2.568   4.494 -0.2329 -0.4332  0.2877
  273poe    c23 1113   4.011   2.477   4.400  0.6164 -0.8925  0.2680
  273poe    c23 1114   3.899   2.401   4.474  0.1325 -0.2677  0.1841
  273poe     o2 1115   3.936   2.361   4.604  0.0030 -0.3366  0.2004
  273poe    c31 1116   3.862   2.249   4.646 -0.0791 -0.0931  0.7170
  274poe    c31 1117   0.424   0.249   4.971  0.1581  0.2255 -0.5222
  274poe     o2 1118   0.300   0.301   4.927  0.0127  0.5259  0.2260
  274poe    c23 1119   0.198   0.294   5.024  0.4351  0.0038  0.6436
  274poe    c23 1120   0.100   0.403   4.975  1.0770  0.2939 -0.0212
  274poe     o2 1121   0.091   0.392   4.835  0.7306 -0.1475  0.0304
  274poe    c23 1122   0.041   0.507   4.769 -0.6381 -0.5921  0.2563
  274poe    c23 1123   0.087   0.503   4.622 -0.4182 -0.0097  0.3059
  274poe     o2 1124   0.213   0.442   4.638 -0.5969 -0.6145 -0.5185
  274poe    c23 1125   0.255   0.408   4.508  0.5329 -0.6790 -0.1473
  274poe    c23 1126   0.393   0.339   4.511  0.8800  0.0198  0.0093
  274poe     o2 1127   0.382   0.270   4.633 -0.9678 -0.9565 -0.6731
  274poe    c31 1128   0.490   0.179   4.636 -0.3791 -0.2765 -1.0215
  275poe    c31 1129   6.191   2.633   0.788  0.9366  0.5100 -0.3460
  275poe     o2 1130   6.283   2.624   0.894 -0.0364 -0.4907  0.4477
  275poe    c23 1131   6.264   2.498   0.954 -0.4470 -0.3271  0.6662
  275poe    c23 1132   6.383   2.485   1.051  0.2620 -0.3927 -0.2091
  275poe     o2 1133   6.385   2.606   1.122 -0.3761 -0.6134  0.1892
  275poe    c23 1134   6.504   2.621   1.195 -0.0524 -0.1474 -0.4255
  275poe    c23 1135   6.532   2.773   1.198 -0.1335 -0.1390 -0.0838
  275poe     o2 1136   6.419   2.834   1.140  0.2477  0.6921  0.0263
  275poe    c23 1137   6.443   2.967   1.103  0.3227  0.7171  0.1632
  275poe    c23 1138   6.326   3.007   1.010 -0.0092 -0.2546  0.1531
  275poe     o2 1139   6.322   2.906   0.912 -0.0510  0.0808 -0.1907
  275poe    c31 1140   6.298   2.969   0.788 -0.0397  0.1770 -0.1439
  276poe    c31 1141   4.877   5.945   6.667 -0.3785 -0.1387  0.8337
  276poe     o2 1142   4.779   5.864   6.605  0.2992 -0.0840 -0.3357
  276poe    c23 1143   4.686   5.959   6.559  0.2241 -0.1296 -0.2760
  276poe    c23 1144   4.574   5.904   6.469 -0.4694  0.0379  0.4696
  276poe     o2 1145   4.457   5.841   6.519 -0.5156 -0.2512  0.0025
  276poe    c23 1146   4.374   5.779   6.424 -0.1956 -0.9759  0.1854
  276poe    c23 1147   4.247   5.738   6.501 -0.1296 -0.4960  0.5523
  276poe     o2 1148   4.196   5.851   6.569 -0.0206 -0.2782  0.2762
  276poe    c23 1149   4.089   5.826   6.657  0.0084  1.0325  0.6971
  276poe    c23 1150   3.999   5.951   6.675 -0.5350  0.7131  0.2423
  276poe     o2 1151   4.095   6.052   6.693 -0.0201  0.1866  0.5159
  276poe    c31 1152   4.026   6.173   6.715  0.4427  0.4888  0.3472
  277poe    c31 1153   1.674   5.114   6.441 -0.0032  0.1770  0.8233
  277poe     o2 1154   1.551   5.097   6.375  0.3113  0.5730  0.1177
  277poe    c23 1155   1.479   5.217   6.396 -0.3332  0.2587 -0.2675
  277poe    c23 1156   1.381   5.226   6.278 -0.3478  0.5449 -0.2336
  277poe     o2 1157   1.314   5.102   6.260 -0.5713  0.6483 -0.1183
  277poe    c23 1158   1.232   5.097   6.146 -1.0903  0.1420  0.2740
  277poe    c23 1159   1.210   4.952   6.102  0.6077  0.0974 -0.4987
  277poe     o2 1160   1.321   4.890   6.161  0.0356 -0.2158  0.2669
  277poe    c23 1161   1.322   4.749   6.161  0.3683 -0.2140 -0.0040
  277poe    c23 1162   1.467   4.713   6.199  0.6814  0.5385 -0.4689
  277poe     o2 1163   1.511   4.808   6.294  0.7754  0.4417 -0.4169
  277poe    c31 1164   1.637   4.771   6.346  0.1481 -0.3343  0.5923
  278poe    c31 1165   5.713   1.742   0.353 -0.3031 -0.5519  0.1454
  278poe     o2 1166   5.795   1.629   0.327 -0.2141 -0.3475 -0.4759
  278poe    c23 1167   5.715   1.519   0.288 -0.7730 -0.0079 -0.3057
  278poe    c23 1168   5.800   1.394   0.262 -0.5226  0.0466  0.2232
  278poe     o2 1169   5.916   1.446   0.201 -0.4014  0.1255  0.5219
  278poe    c23 1170   6.004   1.340   0.169 -0.1762  0.4289  0.1310
  278poe    c23 1171   6.114   1.410   0.087 -0.0719  0.2326  0.1037
  278poe     o2 1172   6.161   1.522   0.158 -0.0999 -0.0396  0.5556
  278poe    c23 1173   6.283   1.563   0.100 -0.0146 -0.3085  0.5427
  278poe    c23 1174   6.383   1.651   0.178 -0.4332 -0.0579  0.8025
  278poe     o2 1175   6.355   1.789   0.191 -0.4314 -0.0037  0.2272
  278poe    c31 1176   6.451   1.866   0.259  0.0908 -0.3907 -0.0591
  279poe    c31 1177   1.674   0.313   2.039  0.2944 -0.4724  0.2250
  279poe     o2 1178   1.642   0.404   2.142  0.0182  0.0153 -0.2869
  279poe    c23 1179   1.513   0.461   2.138 -0.0371 -0.0501  0.4343
  279poe    c23 1180   1.481   0.569   2.243 -0.5860  0.5112 -0.2940
  279poe     o2 1181   1.577   0.669   2.220 -0.1598  0.0940 -0.3523
  279poe    c23 1182   1.585   0.747   2.337  0.2286 -0.3237 -0.0993
  279poe    c23 1183   1.711   0.833   2.319  0.2103 -0.1042  0.7708
  279poe     o2 1184   1.806   0.731   2.296 -0.0442 -0.1528 -0.1072
  279poe    c23 1185   1.924   0.783   2.240  0.0624 -0.1155  0.1475
  279poe    c23 1186   1.950   0.712   2.106 -0.4503  0.3805 -0.2234
  279poe     o2 1187   1.822   0.673   2.062 -0.2368 -0.3925 -0.1757
  279poe    c31 1188   1.831   0.636   1.926  0.1758 -0.1135 -0.2269
  280poe    c31 1189   3.723   3.962   6.318 -0.2007 -0.5152  0.0738
  280poe     o2 1190   3.822   3.984   6.219 -0.2568 -0.0839  0.1142
  280poe    c23 1191   3.773   3.947   6.092 -0.7168  0.1227  0.2298
  280poe    c23 1192   3.884   3.938   5.986 -0.1324  0.2588  0.8260
  280poe     o2 1193   3.958   4.058   5.989  0.2056  0.0749  0.1015
  280poe    c23 1194   4.091   4.047   5.945  0.1685  0.4508 -0.1156
  280poe    c23 1195   4.188   3.970   6.036 -0.2042  0.2188  0.0879
  280poe     o2 1196   4.139   3.957   6.168  0.0456 -0.0299  0.1561
  280poe    c23 1197   4.201   3.854   6.243 -0.2291 -0.1139  0.2670
  280poe    c23 1198   4.184   3.908   6.386  0.0347  0.2166  0.1726
  280poe     o2 1199   4.048   3.943   6.397 -0.1576 -0.5419  0.2049
  280poe    c31 1200   4.002   3.939   6.531  0.2416  0.4803  0.3808
  281poe    c31 1201   2.909   5.654   0.386 -0.6295 -0.7157  0.4455
  281poe     o2 1202   2.950   5.761   0.467 -0.0452 -0.3286 -0.3469
  281poe    c23 1203   2.932   5.742   0.605 -0.5065 -0.0450 -0.3672
  281poe    c23 1204   2.925   5.876   0.681  0.3387 -0.3034  0.1806
  281poe     o2 1205   3.008   5.967   0.611 -0.7326 -0.1344 -0.9098
  281poe    c23 1206   2.989   6.102   0.648 -0.3084 -0.2265 -0.3420
  281poe    c23 1207   3.067   6.175   0.537 -0.0327 -0.1224 -0.0800
  281poe     o2 1208   3.033   6.113   0.416 -0.2914 -0.1056 -0.0166
  281poe    c23 1209   3.081   6.158   0.291 -0.5543 -0.0760 -0.1082
  281poe    c23 1210   3.011   6.077   0.181 -0.7185 -0.3413  0.1899
  281poe     o2 1211   3.019   5.942   0.221  0.0701 -0.3920 -0.1131
  281poe    c31 1212   2.981   5.862   0.111 -0.5862  0.4370 -0.4988
  282poe    c31 1213   0.741   1.553   4.961  0.2024 -0.8454 -0.5689
  282poe     o2 1214   0.802   1.679   4.980 -0.2326 -0.7311  0.1253
  282poe    c23 1215   0.929   1.651   5.035  0.1033  0.3699 -0.0697
  282poe    c23 1216   1.019   1.776   5.030 -0.1893  0.5722 -0.3484
  282poe     o2 1217   0.938   1.872   5.096 -0.5324  0.4501 -0.5934
  282poe    c23 1218   0.994   2.000   5.079  0.0530  0.2359 -0.3080
  282poe    c23 1219   0.927   2.079   4.965 -0.0875  0.2853 -0.1925
  282poe     o2 1220   0.789   2.053   4.965  0.0196 -0.3029  0.3158
  282poe    c23 1221   0.728   2.082   4.841 -0.2812 -0.0593  0.5169
  282poe    c23 1222   0.583   2.034   4.856 -0.2596 -0.0761  0.6819
  282poe     o2 1223   0.595   1.900   4.898  0.3223 -0.1102  0.4256
  282poe    c31 1224   0.465   1.844   4.903 -0.0562  0.6592 -0.5068
  283poe    c31 1225   0.315   1.312   4.727  0.7296  0.0821 -0.3499
  283poe     o2 1226   0.442   1.270   4.682  0.5118 -0.7410 -0.2009
  283poe    c23 1227   0.429   1.231   4.547  0.1617 -0.1347 -0.3469
  283poe    c23 1228   0.571   1.251   4.491  0.1160 -0.0949 -0.4487
  283poe     o2 1229   0.675   1.163   4.528  0.0387  0.0806  0.1885
  283poe    c23 1230   0.793   1.181   4.454  0.3724  0.0267  0.7055
  283poe    c23 1231   0.903   1.074   4.467  0.2491 -0.1764  0.1125
  283poe     o2 1232   0.899   1.048   4.606 -0.0468 -0.0970  0.1189
  283poe    c23 1233   0.989   0.945   4.641  0.3002  0.1609 -0.0106
  283poe    c23 1234   0.989   0.929   4.794  0.1723 -0.1220 -0.0397
  283poe     o2 1235   0.862   0.971   4.839  0.6533  1.2453  0.0805
  283poe    c31 1236   0.841   0.949   4.976  0.8602 -0.0085 -0.0778
  284poe    c31 1237   6.067   3.555   6.674  0.2716  0.0536 -0.1938
  284poe     o2 1238   6.161   3.620   6.757  0.2090 -0.4235  0.2613
  284poe    c23 1239   6.288   3.613   6.696  0.0886  0.1024 -0.0577
  284poe    c23 1240   6.376   3.726   6.754  0.0948  0.3101 -0.4691
  284poe     o2 1241   6.342   3.737   6.890 -0.0368 -0.4684 -0.4330
  284poe    c23 1242   6.354   3.875   6.915  0.5843 -0.6573  0.3963
  284poe    c23 1243   6.271   3.888   7.044  0.0994  0.0448  0.0208
  284poe     o2 1244   6.158   3.807   7.023  0.1989 -0.0444 -0.1763
  284poe    c23 1245   6.091   3.772   7.142  0.0934  0.2003 -0.1628
  284poe    c23 1246   5.968   3.703   7.081  0.0678  0.3495 -0.2799
  284poe     o2 1247   6.001   3.598   6.993  0.2780  0.2561 -0.0888
  284poe    c31 1248   5.883   3.528   6.962  0.4054  0.0126 -0.0315
  285poe    c31 1249   5.214   6.735   5.588 -0.0941 -0.0206  0.8877
  285poe     o2 1250   5.090   6.679   5.627 -0.2954  0.2540  0.6460
  285poe    c23 1251   5.093   6.639   5.762  0.2687 -0.0312  0.5501
  285poe    c23 1252   4.968   6.561   5.805  0.0487  0.1049  0.1561
  285poe     o2 1253   4.846   6.612   5.756  0.0317 -0.0160  0.0727
  285poe    c23 1254   4.737   6.553   5.824 -0.2853  0.0943 -0.3422
  285poe    c23 1255   4.607   6.625   5.779 -0.0081  0.5906 -0.3601
  285poe     o2 1256   4.600   6.615   5.639  0.2653  0.0934 -0.3437
  285poe    c23 1257   4.481   6.651   5.573 -0.1259  0.5697  0.6055
  285poe    c23 1258   4.514   6.637   5.423 -0.1393  0.2491  0.6329
  285poe     o2 1259   4.644   6.684   5.398  0.1302 -0.7610  0.0784
  285poe    c31 1260   4.678   6.676   5.261  0.9048  0.0725  0.2131
  286poe    c31 1261   3.897   4.682   1.037 -0.0285  0.5927  0.3620
  286poe     o2 1262   4.001   4.777   1.032  0.4046  0.1272  0.3580
  286poe    c23 1263   4.031   4.831   1.158  0.2435 -0.2369  0.5522
  286poe    c23 1264   4.165   4.903   1.133 -0.2230  0.3117 -0.3904
  286poe     o2 1265   4.280   4.823   1.142 -0.0641  0.6281  0.5195
  286poe    c23 1266   4.386   4.911   1.116  0.0939  0.1362 -0.5807
  286poe    c23 1267   4.518   4.852   1.169 -0.0733  0.3025  0.0317
  286poe     o2 1268   4.497   4.809   1.301  0.6480  0.1155  0.0906
  286poe    c23 1269   4.617   4.743   1.337  0.5817  0.0301  0.1580
  286poe    c23 1270   4.574   4.654   1.454  0.1907 -0.3148 -0.2423
  286poe     o2 1271   4.451   4.589   1.429 -0.3541  0.4420  0.4203
  286poe    c31 1272   4.432   4.494   1.530 -0.0987  0.3552  0.3876
  287poe    c31 1273   3.034   0.276   4.454  0.4754 -0.3080 -0.8021
  287poe     o2 1274   2.920   0.345   4.408  0.4769  0.0251 -0.3187
  287poe    c23 1275   2.822   0.344   4.509  0.3072  0.2791 -0.4822
  287poe    c23 1276   2.722   0.456   4.473  0.0706  0.2014 -0.0657
  287poe     o2 1277   2.690   0.416   4.342 -0.3439 -0.0437  0.1093
  287poe    c23 1278   2.580   0.486   4.289  0.0859  0.5234 -0.0393
  287poe    c23 1279   2.600   0.466   4.138  0.1671 -0.2743  0.0760
  287poe     o2 1280   2.737   0.497   4.119  0.1881 -0.4838 -0.1193
  287poe    c23 1281   2.768   0.509   3.982  0.3160 -0.0848 -0.0569
  287poe    c23 1282   2.904   0.570   3.944  0.1639  0.3600  0.1139
  287poe     o2 1283   2.949   0.678   4.023  0.5889  0.2995 -0.0427
  287poe    c31 1284   2.901   0.800   3.970 -0.4480  0.1008  0.4248
  288poe    c31 1285   0.948   2.598   2.133  0.9179 -0.4814 -0.7973
  288poe     o2 1286   1.022   2.599   2.253  0.1853 -0.0070 -0.3394
  288poe    c23 1287   1.061   2.465   2.273  0.7452  0.1737 -0.1911
  288poe    c23 1288   1.114   2.448   2.416  0.2435  0.1709 -0.0044
  288poe     o2 1289   1.237   2.512   2.444 -0.0062  0.6230  0.0726
  288poe    c23 1290   1.296   2.462   2.561 -0.1523  0.3119  0.0158
  288poe    c23 1291   1.435   2.525   2.579 -0.3276  0.4472  0.9510
  288poe     o2 1292   1.418   2.664   2.556  0.1770  0.4048  0.3025
  288poe    c23 1293   1.530   2.735   2.604  0.7926 -0.2219 -0.1671
  288poe    c23 1294   1.524   2.879   2.550 -0.7124 -0.2060 -0.0162
  288poe     o2 1295   1.498   2.859   2.413 -0.2229  0.5190 -0.2256
  288poe    c31 1296   1.495   2.986   2.352 -0.4455  0.7149  0.1929
  289poe    c31 1297   1.421   6.537   6.525 -0.3078 -0.1874 -0.4115
  289poe     o2 1298   1.454   6.641   6.613 -0.5313 -0.2649 -0.2363
  289poe    c23 1299   1.348   6.671   6.701 -0.3612  0.0952 -0.1491
  289poe    c23 1300   1.398   6.795   6.776 -0.5345  0.3554 -0.4618
  289poe     o2 1301   1.537   6.779   6.795 -0.5614  0.6107 -0.0240
  289poe    c23 1302   1.578   6.886   6.876 -0.1896  0.1845  0.3592
  289poe    c23 1303   1.731   6.894   6.889 -0.1376  0.0498 -0.1587
  289poe     o2 1304   1.781   6.915   6.759  0.5204 -0.0953  0.0670
  289poe    c23 1305   1.900   6.843   6.731  0.3086 -0.6091  0.4645
  289poe    c23 1306   1.873   6.692   6.740 -0.1218 -0.5504  0.2212
  289poe     o2 1307   1.759   6.662   6.662 -0.0470  0.0241 -0.1139
  289poe    c31 1308   1.769   6.527   6.623 -0.0126 -0.0457  0.1326
  290poe    c31 1309   3.544   6.143   5.008  0.3644 -0.3748  0.1089
  290poe     o2 1310   3.596   6.089   4.888 -0.1227 -0.1828 -0.1910
  290poe    c23 1311   3.602   5.948   4.887  1.1014 -0.1403 -0.0505
  290poe    c23 1312   3.644   5.909   4.744 -0.0353 -0.1168 -0.3962
  290poe     o2 1313   3.755   5.994   4.729  0.1044 -0.1624  0.3486
  290poe    c23 1314   3.834   5.959   4.617 -0.3104 -0.2361  0.0801
  290poe    c23 1315   3.927   6.076   4.581  0.2378 -0.5793  0.3810
  290poe     o2 1316   3.838   6.185   4.571  0.2862 -0.5656  0.0718
  290poe    c23 1317   3.877   6.299   4.498  0.0864 -0.3384  0.3178
  290poe    c23 1318   3.983   6.392   4.559  0.1060 -0.0011 -0.2219
  290poe     o2 1319   3.941   6.426   4.689  0.5332 -0.4997  0.0550
  290poe    c31 1320   4.000   6.552   4.713 -0.2052 -0.1566  0.0983
  291poe    c31 1321   6.383   4.788   0.869  0.2523 -0.1064 -0.1004
  291poe     o2 1322   6.518   4.777   0.830  0.2788  0.6307 -0.2514
  291poe    c23 1323   6.533   4.700   0.712  0.0985 -0.0302  0.1468
  291poe    c23 1324   6.640   4.591   0.732 -0.0178 -0.0942  0.4274
  291poe     o2 1325   6.745   4.658   0.798 -0.0305  0.1180  0.2338
  291poe    c23 1326   6.875   4.617   0.765  0.0633  0.3645  0.2949
  291poe    c23 1327   6.980   4.621   0.878  0.3304  0.2295  0.0521
  291poe     o2 1328   6.934   4.719   0.967 -0.2341  0.0269 -0.0136
  291poe    c23 1329   6.999   4.728   1.092 -0.7358 -0.0494  0.2551
  291poe    c23 1330   6.965   4.629   1.206 -0.1282 -0.5194  0.0316
  291poe     o2 1331   6.828   4.624   1.237 -0.0290  0.2464  0.6189
  291poe    c31 1332   6.805   4.647   1.374  0.2546  0.2300  0.6691
  292poe    c31 1333   2.799   4.736   2.837 -0.2132 -0.1481 -0.0438
  292poe     o2 1334   2.661   4.753   2.856 -0.2612  0.3014 -0.7352
  292poe    c23 1335   2.612   4.885   2.853 -0.4988  0.2179 -0.6081
  292poe    c23 1336   2.463   4.907   2.884 -0.4966  0.2996 -0.6528
  292poe     o2 1337   2.374   4.847   2.792 -0.4226 -0.3915 -0.2802
  292poe    c23 1338   2.337   4.934   2.687 -0.2370  0.2747  0.2030
  292poe    c23 1339   2.306   4.845   2.566  0.2036 -0.1391  0.3916
  292poe     o2 1340   2.228   4.739   2.617  0.2853 -0.2431  0.3036
  292poe    c23 1341   2.213   4.646   2.513  0.1963  0.7439 -0.5879
  292poe    c23 1342   2.147   4.525   2.582  0.0948  0.8977 -0.4158
  292poe     o2 1343   2.224   4.518   2.700  0.0624  0.3375 -0.4256
  292poe    c31 1344   2.209   4.395   2.768  0.5960  0.7106  0.3800
  293poe    c31 1345   1.230   6.663   5.347 -0.3285  0.1530  0.1723
  293poe     o2 1346   1.326   6.560   5.354 -0.2413  0.2367  0.1973
  293poe    c23 1347   1.253   6.450   5.403 -0.3866  0.2998  0.1235
  293poe    c23 1348   1.306   6.322   5.336  0.3550  0.5827  0.1579
  293poe     o2 1349   1.395   6.371   5.237  0.1856  0.2913 -0.1415
  293poe    c23 1350   1.471   6.267   5.182 -0.1632  0.0275 -0.1323
  293poe    c23 1351   1.561   6.300   5.061 -0.0960 -0.2282 -0.1544
  293poe     o2 1352   1.606   6.429   5.099 -0.3695 -0.3341  0.5487
  293poe    c23 1353   1.611   6.508   4.983  0.1410 -0.8255  0.2280
  293poe    c23 1354   1.588   6.655   5.025 -0.2217 -0.7323 -0.2835
  293poe     o2 1355   1.479   6.664   5.115  0.3600 -0.5228  0.4108
  293poe    c31 1356   1.429   6.796   5.107  0.2051 -0.5947  0.1732
  294poe    c31 1357   2.627   3.568   5.804 -0.1439 -0.3400  0.5837
  294poe     o2 1358   2.635   3.708   5.792  0.3712 -0.3659  0.6113
  294poe    c23 1359   2.754   3.733   5.720 -0.1811  0.5103 -0.0136
  294poe    c23 1360   2.834   3.855   5.770  0.1895  0.3020 -0.0931
  294poe     o2 1361   2.742   3.945   5.829 -0.0260 -0.0065  0.0470
  294poe    c23 1362   2.795   4.075   5.847 -0.0266  0.0209 -0.1404
  294poe    c23 1363   2.671   4.164   5.868  0.2444  0.3800 -0.0616
  294poe     o2 1364   2.585   4.089   5.951  0.1680 -0.2676 -0.7158
  294poe    c23 1365   2.451   4.094   5.907 -0.0509  0.3567  0.0109
  294poe    c23 1366   2.383   3.986   5.993 -0.0545  0.5270  0.2229
  294poe     o2 1367   2.433   3.857   5.969 -0.4824  0.5094 -0.5976
  294poe    c31 1368   2.340   3.765   6.021 -0.2733  0.3513 -0.5008
  295poe    c31 1369   4.537   1.785   5.465  0.0721 -0.0867  0.2621
  295poe     o2 1370   4.558   1.808   5.603  0.4467  0.1343  0.1689
  295poe    c23 1371   4.495   1.712   5.685  0.2187 -0.0302 -0.1952
  295poe    c23 1372   4.609   1.646   5.764 -0.0259  0.2918  0.4292
  295poe     o2 1373   4.656   1.692   5.889  0.3585  0.2544  0.2988
  295poe    c23 1374   4.735   1.592   5.951  0.1637 -0.0404  0.0749
  295poe    c23 1375   4.771   1.643   6.091  0.2500  0.1257 -0.0060
  295poe     o2 1376   4.656   1.696   6.155  0.0215  0.1828 -0.4643
  295poe    c23 1377   4.676   1.744   6.286 -0.0348  0.0353 -0.4016
  295poe    c23 1378   4.581   1.861   6.318  0.3550  0.1514  0.3411
  295poe     o2 1379   4.532   1.922   6.201  0.0004  0.5600  0.7009
  295poe    c31 1380   4.464   2.040   6.241 -0.8834  0.2779  0.0514
  296poe    c31 1381   4.633   6.115   2.373  0.0454 -0.2210  0.4456
  296poe     o2 1382   4.767   6.085   2.401  0.1250 -0.0579  0.2404
  296poe    c23 1383   4.845   6.194   2.444 -0.1058  0.5582 -0.8574
  296poe    c23 1384   4.996   6.162   2.442 -0.3000 -0.4350 -0.1616
  296poe     o2 1385   5.007   6.032   2.496  0.1379 -0.2688  0.1611
  296poe    c23 1386   5.140   5.988   2.507  0.1834 -0.2016 -0.1001
  296poe    c23 1387   5.167   5.842   2.549 -0.8205 -0.2637  0.3674
  296poe     o2 1388   5.135   5.737   2.460  0.0929  0.1943 -0.5207
  296poe    c23 1389   5.196   5.614   2.492  0.0471  0.1916 -0.4420
  296poe    c23 1390   5.183   5.502   2.386  0.6102 -0.5584  0.2663
  296poe     o2 1391   5.047   5.466   2.376  0.6473 -0.6521  0.0962
  296poe    c31 1392   5.021   5.390   2.260 -0.0257  0.2553 -0.3640
  297poe    c31 1393   4.939   3.393   6.219  0.1463 -0.3867 -0.0388
  297poe     o2 1394   4.831   3.372   6.307 -0.1801  0.3606 -0.2480
  297poe    c23 1395   4.869   3.305   6.425 -0.3572  0.0296 -0.3763
  297poe    c23 1396   4.767   3.196   6.463 -0.1105 -0.2360 -0.4741
  297poe     o2 1397   4.641   3.260   6.463 -0.0050 -0.0177  0.2802
  297poe    c23 1398   4.552   3.158   6.423 -0.2099  0.2237  0.1170
  297poe    c23 1399   4.428   3.225   6.362  0.0017  0.2603 -0.2771
  297poe     o2 1400   4.492   3.320   6.280  0.4332  0.0008 -0.2439
  297poe    c23 1401   4.409   3.401   6.199  0.2079 -0.0895 -0.1036
  297poe    c23 1402   4.504   3.450   6.089  0.2869 -0.2856 -0.1236
  297poe     o2 1403   4.621   3.495   6.154 -0.0270  0.2575  0.0764
  297poe    c31 1404   4.659   3.607   6.077 -0.0969  0.0890 -0.2076
  298poe    c31 1405   1.769   0.724   4.523 -0.0785 -0.4391 -0.1976
  298poe     o2 1406   1.759   0.680   4.389 -0.0199 -0.0915 -0.3180
  298poe    c23 1407   1.737   0.540   4.395  0.4626 -0.1432  0.3275
  298poe    c23 1408   1.760   0.478   4.256 -0.4845 -0.1819  0.1822
  298poe     o2 1409   1.757   0.591   4.172  0.3926 -0.0653  0.2934
  298poe    c23 1410   1.772   0.548   4.039  0.0465 -0.3957  0.3616
  298poe    c23 1411   1.818   0.656   3.939 -0.3705 -0.2477  0.3253
  298poe     o2 1412   1.756   0.781   3.955  0.2810  0.0907  0.2545
  298poe    c23 1413   1.761   0.870   3.845 -0.0188  0.3570  0.4528
  298poe    c23 1414   1.695   1.008   3.863  0.2889  0.6277 -0.4513
  298poe     o2 1415   1.771   1.076   3.959  0.1580  0.0232  0.0882
  298poe    c31 1416   1.700   1.190   4.000 -0.2751 -0.0221 -0.5310
  299poe    c31 1417   1.185   2.137   4.639 -0.2261  0.8948  0.4187
  299poe     o2 1418   1.301   2.149   4.718 -0.0094 -0.6367  0.3580
  299poe    c23 1419   1.373   2.034   4.756 -0.3599 -0.7865  0.5700
  299poe    c23 1420   1.420   1.934   4.649  0.2227 -0.1320  0.2083
  299poe     o2 1421   1.463   2.004   4.534 -0.1736  0.2803  0.3108
  299poe    c23 1422   1.485   1.913   4.429 -0.1578  0.1439  0.4316
  299poe    c23 1423   1.589   1.961   4.327 -0.5323  0.5718  0.2450
  299poe     o2 1424   1.714   1.993   4.383 -0.2783  0.0995 -0.0410
  299poe    c23 1425   1.797   2.004   4.270  0.1559 -0.5156  0.2092
  299poe    c23 1426   1.940   2.049   4.306 -0.0454  0.4983 -0.2197
  299poe     o2 1427   1.926   2.140   4.412 -0.1198 -0.3281  0.4976
  299poe    c31 1428   2.042   2.219   4.421 -0.0782 -0.2975 -0.2234
  300poe    c31 1429   6.563   2.200   6.347  0.0154 -0.4124  0.2221
  300poe     o2 1430   6.522   2.291   6.248  0.4841 -0.1624  0.2580
  300poe    c23 1431   6.542   2.239   6.118 -0.0619 -0.4821  0.2980
  300poe    c23 1432   6.469   2.322   6.011 -0.2174 -0.2737  0.5644
  300poe     o2 1433   6.459   2.445   6.078  0.4437  0.0125  0.1490
  300poe    c23 1434   6.398   2.551   6.008  0.1076 -0.2608  0.0315
  300poe    c23 1435   6.429   2.681   6.084  0.2839 -0.2855  0.0007
  300poe     o2 1436   6.392   2.649   6.216  0.1117 -0.5684 -0.1158
  300poe    c23 1437   6.454   2.732   6.311  0.3999 -0.1858 -0.6318
  300poe    c23 1438   6.578   2.672   6.380 -0.2011  0.2936  0.9272
  300poe     o2 1439   6.537   2.540   6.408  0.2716 -0.0848 -0.0975
  300poe    c31 1440   6.596   2.488   6.525  0.3155 -0.4800 -0.2936
  301poe    c31 1441   6.534   2.314   2.922  0.0985  0.0858  0.3132
  301poe     o2 1442   6.492   2.427   2.849 -0.1783  0.0848  0.4706
  301poe    c23 1443   6.585   2.530   2.877  0.2017  0.0346 -0.5595
  301poe    c23 1444   6.524   2.664   2.835  0.0958  0.0473 -0.3706
  301poe     o2 1445   6.469   2.638   2.708  0.2061  0.1859 -0.4481
  301poe    c23 1446   6.393   2.745   2.656 -0.2834 -0.0580 -0.2434
  301poe    c23 1447   6.319   2.668   2.544  0.1684 -0.7112 -0.1043
  301poe     o2 1448   6.265   2.550   2.600  0.0632 -0.5106  0.2248
  301poe    c23 1449   6.124   2.549   2.612 -0.0222  0.3175 -0.5625
  301poe    c23 1450   6.109   2.408   2.672  0.5203  0.3844 -0.2633
  301poe     o2 1451   6.209   2.394   2.771  0.2441 -0.2604 -0.0711
  301poe    c31 1452   6.169   2.297   2.866 -0.0732 -0.5088 -0.4525
  302poe    c31 1453   1.721   6.636   0.932 -0.6791  0.1902  0.3011
  302poe     o2 1454   1.686   6.519   0.862  0.1300  0.0570  0.1176
  302poe    c23 1455   1.584   6.446   0.927 -0.0628  0.4482  0.2542
  302poe    c23 1456   1.527   6.356   0.816  0.3361  0.2046  0.2446
  302poe     o2 1457   1.471   6.429   0.709  0.0627  0.0734  0.2976
  302poe    c23 1458   1.419   6.336   0.617  0.2311  0.5168 -0.2465
  302poe    c23 1459   1.369   6.400   0.486 -0.5207  0.0105 -0.2096
  302poe     o2 1460   1.319   6.526   0.523  0.0743  0.2336 -0.1698
  302poe    c23 1461   1.260   6.587   0.411 -0.8372 -0.7804 -0.2566
  302poe    c23 1462   1.234   6.738   0.430  0.4441 -0.5953  0.1273
  302poe     o2 1463   1.353   6.812   0.418  0.2846 -0.2133  0.8340
  302poe    c31 1464   1.324   6.949   0.407 -0.7812 -0.5049 -0.1585
  303poe    c31 1465   5.676   2.850   3.958 -0.5027  0.2185  0.0731
  303poe     o2 1466   5.694   2.987   3.985  0.6411  0.0948 -0.0030
  303poe    c23 1467   5.665   3.028   4.117 -0.7765  0.1091 -0.3019
  303poe    c23 1468   5.656   3.182   4.107  0.0735  0.2171  0.5178
  303poe     o2 1469   5.588   3.223   3.991  0.6661 -0.1101  0.0498
  303poe    c23 1470   5.535   3.351   4.016  0.0046 -0.4440  0.3820
  303poe    c23 1471   5.450   3.373   3.890  0.3475 -0.6072  0.1232
  303poe     o2 1472   5.522   3.347   3.771 -0.0639 -0.6156 -0.1241
  303poe    c23 1473   5.449   3.398   3.662 -0.3704 -0.1815  0.2801
  303poe    c23 1474   5.490   3.323   3.534 -0.4900  0.7630 -0.3279
  303poe     o2 1475   5.458   3.185   3.536 -0.0782  0.6650 -0.3664
  303poe    c31 1476   5.516   3.120   3.425  0.3424  0.4114  0.0008
  304poe    c31 1477   4.141   1.623   4.275 -0.2689 -0.7235 -0.0396
  304poe     o2 1478   4.271   1.676   4.289 -0.3471 -0.4627 -0.2986
  304poe    c23 1479   4.328   1.645   4.164  0.1312 -0.8312  0.0098
  304poe    c23 1480   4.463   1.713   4.135 -0.0202 -0.4604  0.1746
  304poe     o2 1481   4.537   1.723   4.255  0.2358 -0.1509 -0.0074
  304poe    c23 1482   4.670   1.763   4.233  0.1472  0.2787  0.2310
  304poe    c23 1483   4.718   1.813   4.371  0.4464 -0.0430  0.2468
  304poe     o2 1484   4.703   1.718   4.473 -0.5598  0.3351  0.4627
  304poe    c23 1485   4.773   1.756   4.589  0.9298  0.0298 -0.3166
  304poe    c23 1486   4.791   1.645   4.694  0.7627 -0.1197 -0.4458
  304poe     o2 1487   4.895   1.559   4.653  1.1421  0.0865  0.0721
  304poe    c31 1488   4.869   1.424   4.683 -0.2253  0.3659  0.2273
  305poe    c31 1489   2.786   2.708   6.688 -0.2289  0.0189  0.3905
  305poe     o2 1490   2.659   2.741   6.740 -0.1420  0.6917  0.1886
  305poe    c23 1491   2.590   2.824   6.649 -0.1947 -0.5720 -0.9754
  305poe    c23 1492   2.436   2.811   6.651 -0.2176 -0.2871 -0.7926
  305poe     o2 1493   2.412   2.676   6.618 -0.3936 -0.4330 -0.0915
  305poe    c23 1494   2.285   2.663   6.559 -0.3672  0.0227 -0.2545
  305poe    c23 1495   2.270   2.527   6.488 -0.1608 -0.1424  0.0201
  305poe     o2 1496   2.311   2.437   6.589 -0.1137  0.2608  0.3649
  305poe    c23 1497   2.268   2.305   6.564  0.3860  0.1176  0.2369
  305poe    c23 1498   2.308   2.227   6.691 -0.2415  0.1203  0.4451
  305poe     o2 1499   2.433   2.270   6.741  0.3546 -0.4510 -0.5202
  305poe    c31 1500   2.467   2.182   6.846  0.6494  0.2933  0.0161
  306poe    c31 1501   3.919   3.439   0.158 -0.2274  0.9928 -0.2338
  306poe     o2 1502   3.829   3.373   0.072  0.7263 -0.0967 -0.4100
  306poe    c23 1503   3.789   3.251   0.131  0.2864  0.3660  0.2612
  306poe    c23 1504   3.656   3.203   0.071  0.5399 -0.1305  0.0931
  306poe     o2 1505   3.663   3.214  -0.070 -0.5479 -0.1429  0.0280
  306poe    c23 1506   3.550   3.195  -0.152 -0.6258 -0.4996  0.2140
  306poe    c23 1507   3.611   3.209  -0.293  0.0667 -0.6188  0.4972
  306poe     o2 1508   3.704   3.315  -0.289 -0.4287 -0.1664  0.1896
  306poe    c23 1509   3.783   3.327  -0.405  0.0203 -0.4917  0.4583
  306poe    c23 1510   3.860   3.455  -0.369 -0.1771 -0.3730  0.4625
  306poe     o2 1511   3.903   3.451  -0.234  0.5162 -0.4634  0.2442
  306poe    c31 1512   3.976   3.567  -0.205  0.0426 -0.0966 -0.0156
  307poe    c31 1513   4.996   6.354   3.251  0.0763  0.7249  0.8374
  307poe     o2 1514   5.033   6.490   3.243 -0.0918  0.7196 -0.2093
  307poe    c23 1515   5.174   6.491   3.240 -0.0813  0.3201  0.0455
  307poe    c23 1516   5.242   6.629   3.227 -0.0013  0.2928  0.1774
  307poe     o2 1517   5.149   6.713   3.292 -0.3367 -0.2368  0.3928
  307poe    c23 1518   5.181   6.850   3.283  0.0862 -0.3766 -0.2430
  307poe    c23 1519   5.055   6.924   3.328 -0.0068 -0.2303 -0.7329
  307poe     o2 1520   4.946   6.840   3.296 -0.3718  0.2138 -0.6775
  307poe    c23 1521   4.826   6.885   3.355  0.0729 -0.3266  0.6626
  307poe    c23 1522   4.732   6.768   3.322  0.5387 -0.3521 -0.6536
  307poe     o2 1523   4.801   6.645   3.334  0.4554 -0.3529 -0.1341
  307poe    c31 1524   4.720   6.532   3.358  0.2120 -0.0617  0.4366
  308poe    c31 1525   4.835   4.522   3.994 -0.4213 -0.0712 -0.4837
  308poe     o2 1526   4.708   4.527   4.055 -0.3566 -0.0281 -0.3527
  308poe    c23 1527   4.717   4.598   4.177 -0.0441  0.1935 -0.5053
  308poe    c23 1528   4.576   4.613   4.236  0.0489  0.3891 -0.3316
  308poe     o2 1529   4.522   4.483   4.244 -0.1096  0.4649 -0.1636
  308poe    c23 1530   4.454   4.458   4.366 -0.2642 -0.0853 -0.3577
  308poe    c23 1531   4.358   4.339   4.349 -0.2472 -0.1472 -0.0225
  308poe     o2 1532   4.407   4.224   4.284  0.1750 -0.0167  0.0649
  308poe    c23 1533   4.318   4.115   4.296  0.3222 -0.1035  0.3855
  308poe    c23 1534   4.392   3.980   4.299  0.2200 -0.1744 -0.2469
  308poe     o2 1535   4.310   3.870   4.334  0.0049 -0.0850 -0.4640
  308poe    c31 1536   4.398   3.782   4.400 -0.0459  0.2172  0.0167
  309poe    c31 1537   0.617   0.811   2.818  0.5885 -0.1928 -0.4134
  309poe     o2 1538   0.656   0.677   2.837 -0.0415 -0.4250 -0.7116
  309poe    c23 1539   0.618   0.597   2.728 -0.2138 -0.0395 -0.9389
  309poe    c23 1540   0.672   0.454   2.749  0.0759  0.1677 -0.2615
  309poe     o2 1541   0.635   0.416   2.880 -0.0751  0.1922 -0.2956
  309poe    c23 1542   0.683   0.292   2.926 -0.5901  0.1777  0.2154
  309poe    c23 1543   0.600   0.248   3.048  0.0643 -0.6216  0.3892
  309poe     o2 1544   0.615   0.366   3.125  0.3466 -0.5834  0.2750
  309poe    c23 1545   0.497   0.388   3.198  0.4990 -0.0898  0.3725
  309poe    c23 1546   0.515   0.534   3.245 -0.2756  0.1208  0.0321
  309poe     o2 1547   0.528   0.620   3.134 -0.5908 -0.0865 -0.1645
  309poe    c31 1548   0.495   0.742   3.196 -0.0814 -0.1227  0.1861
  310poe    c31 1549   2.768   5.830   4.541 -0.1009  0.2584 -0.1121
  310poe     o2 1550   2.649   5.812   4.615 -0.3040  0.3718 -0.4118
  310poe    c23 1551   2.611   5.919   4.698  0.1863 -0.1991  0.5603
  310poe    c23 1552   2.474   5.889   4.763 -0.2298  0.6265  0.0761
  310poe     o2 1553   2.479   5.756   4.809  0.1072  0.6714  0.1762
  310poe    c23 1554   2.390   5.748   4.918 -1.5017  0.3756 -1.1184
  310poe    c23 1555   2.391   5.608   4.984 -0.4840  0.5529 -0.7463
  310poe     o2 1556   2.366   5.517   4.879 -0.0476 -0.3678 -0.0652
  310poe    c23 1557   2.381   5.380   4.905  0.2256 -0.4374 -0.5554
  310poe    c23 1558   2.292   5.311   4.800 -0.3839  0.4669 -0.6457
  310poe     o2 1559   2.343   5.316   4.669  0.9492  0.0108 -0.1632
  310poe    c31 1560   2.271   5.238   4.576  0.8525 -0.5357  0.3574
  311poe    c31 1561   3.736   5.425   0.011  0.0760 -0.1434  0.1386
  311poe     o2 1562   3.603   5.445  -0.030  0.0603 -0.5192 -0.0057
  311poe    c23 1563   3.592   5.515  -0.152 -0.1397 -0.4006  0.0778
  311poe    c23 1564   3.477   5.453  -0.232 -0.2320 -0.0784 -0.0368
  311poe     o2 1565   3.364   5.434  -0.150 -0.0334  0.1291  0.2864
  311poe    c23 1566   3.260   5.367  -0.218  0.2666 -0.0716  0.0230
  311poe    c23 1567   3.135   5.393  -0.131  0.3565  0.6812 -0.0663
  311poe     o2 1568   3.135   5.314  -0.015 -0.0479  0.5819 -0.1336
  311poe    c23 1569   3.009   5.329   0.047 -0.0297 -0.4043  0.1598
  311poe    c23 1570   2.990   5.231   0.164  0.1353 -0.1597  0.3929
  311poe     o2 1571   2.993   5.092   0.140  0.3531 -0.1124  0.1353
  311poe    c31 1572   3.052   5.027   0.250  0.2719 -0.2001  0.1270
  312poe    c31 1573   2.483   0.802   5.988  0.1969  0.1647  0.0180
  312poe     o2 1574   2.472   0.940   6.010  0.2707  0.1686  0.0314
  312poe    c23 1575   2.440   0.962   6.146 -0.5995  0.3239 -0.1893
  312poe    c23 1576   2.505   1.095   6.188 -0.1851  0.1325 -0.2213
  312poe     o2 1577   2.471   1.195   6.096  0.0705  0.3877 -0.0414
  312poe    c23 1578   2.341   1.243   6.123 -0.2786 -0.6040  0.0899
  312poe    c23 1579   2.291   1.284   5.983 -0.5667 -0.5116  0.2174
  312poe     o2 1580   2.311   1.165   5.909  0.2565 -0.4895  0.3857
  312poe    c23 1581   2.236   1.170   5.789  0.3134 -0.0727  0.3652
  312poe    c23 1582   2.280   1.041   5.717  0.1647 -0.0657  0.2620
  312poe     o2 1583   2.419   1.023   5.731  0.1618 -0.3687 -0.0904
  312poe    c31 1584   2.462   0.929   5.635 -0.4521 -0.2803 -0.4556
  313poe    c31 1585   2.526   2.295   2.665 -0.3232 -0.5263 -0.0144
  313poe     o2 1586   2.530   2.204   2.557  0.8291  0.2953 -0.6913
  313poe    c23 1587   2.489   2.271   2.440  0.0414  0.1954 -0.4775
  313poe    c23 1588   2.428   2.170   2.342  0.3095 -0.3756 -0.0666
  313poe     o2 1589   2.501   2.053   2.369  0.4935 -0.1863  0.2546
  313poe    c23 1590   2.452   1.937   2.306  0.2143  0.2839 -0.4027
  313poe    c23 1591   2.545   1.815   2.319  0.0586  0.2132  0.0683
  313poe     o2 1592   2.564   1.780   2.454  0.0114  0.3915  0.1211
  313poe    c23 1593   2.654   1.671   2.455 -0.3145  0.1143 -0.3328
  313poe    c23 1594   2.686   1.625   2.599 -0.5652  0.1346 -0.2697
  313poe     o2 1595   2.753   1.730   2.663 -0.1123 -0.2771 -0.0690
  313poe    c31 1596   2.811   1.672   2.778 -0.0355  0.7020  0.4013
  314poe    c31 1597   5.484   2.748   1.272  0.2436  0.4429  0.6231
  314poe     o2 1598   5.592   2.671   1.321 -0.0108 -0.1444  0.2697
  314poe    c23 1599   5.580   2.658   1.461  0.0334  0.4747  0.3334
  314poe    c23 1600   5.714   2.610   1.522  0.0789  0.1533 -0.0108
  314poe     o2 1601   5.729   2.485   1.460  0.0601  0.3865 -0.4837
  314poe    c23 1602   5.856   2.426   1.481 -0.2794 -0.0953  0.2349
  314poe    c23 1603   5.874   2.337   1.357  0.5835  0.4218 -0.0175
  314poe     o2 1604   5.859   2.422   1.245  0.5512  0.5643  0.0950
  314poe    c23 1605   5.887   2.360   1.122 -0.1729 -0.1287  0.2691
  314poe    c23 1606   5.888   2.467   1.012 -0.5448 -0.1062  0.2872
  314poe     o2 1607   5.777   2.548   1.042 -0.0997  0.4072  0.5766
  314poe    c31 1608   5.732   2.641   0.946 -0.0538  0.1577  0.3132
  315poe    c31 1609   1.399   1.549   0.631  0.0520  0.5372  0.0555
  315poe     o2 1610   1.264   1.583   0.610 -0.1346 -0.1656  0.1067
  315poe    c23 1611   1.243   1.720   0.633  0.7104  0.1673 -0.9938
  315poe    c23 1612   1.096   1.756   0.605  0.5999  0.5761  0.0484
  315poe     o2 1613   1.082   1.691   0.481  0.3823  0.4861  0.1195
  315poe    c23 1614   0.949   1.691   0.435  0.3383  0.2765  0.2438
  315poe    c23 1615   0.957   1.654   0.285 -0.0004  0.2729  0.2265
  315poe     o2 1616   1.027   1.534   0.264 -0.2115  0.1479  0.2300
  315poe    c23 1617   1.027   1.502   0.127 -0.2712 -0.3124  0.3376
  315poe    c23 1618   1.107   1.372   0.109 -0.4177 -0.2899 -0.5476
  315poe     o2 1619   1.245   1.395   0.120 -0.3847 -0.5115 -0.4766
  315poe    c31 1620   1.301   1.268   0.094  0.1061 -0.3074 -0.4307
  316poe    c31 1621   3.115   1.224   5.359 -0.2975 -0.1568  0.0496
  316poe     o2 1622   3.125   1.314   5.467 -0.5221  0.0174 -0.0735
  316poe    c23 1623   3.093   1.279   5.599  0.0973  0.0723  0.0954
  316poe    c23 1624   3.006   1.390   5.660 -0.6324 -0.2627 -0.3255
  316poe     o2 1625   3.070   1.507   5.613 -0.2477 -0.0764  0.6536
  316poe    c23 1626   3.052   1.621   5.694 -0.0522  0.1532  0.3771
  316poe    c23 1627   3.065   1.737   5.594 -0.0096 -0.3688 -0.2244
  316poe     o2 1628   3.174   1.708   5.509  0.1578  0.1176 -0.1770
  316poe    c23 1629   3.165   1.783   5.389  0.0912  0.3273 -0.0410
  316poe    c23 1630   3.260   1.704   5.297 -0.3986 -0.0873 -0.1921
  316poe     o2 1631   3.211   1.572   5.299  0.6338 -0.4633  0.5744
  316poe    c31 1632   3.273   1.495   5.199 -0.2168 -0.5720  0.1299
  317poe    c31 1633   0.261   5.398   3.239 -0.0098 -0.7200 -0.0336
  317poe     o2 1634   0.393   5.351   3.251  0.0392 -0.4288  0.5854
  317poe    c23 1635   0.449   5.301   3.132  0.0028  0.3191  0.2464
  317poe    c23 1636   0.579   5.221   3.155 -0.0253  0.3049  0.3568
  317poe     o2 1637   0.677   5.284   3.233  0.1462  0.2941  0.1524
  317poe    c23 1638   0.799   5.216   3.214 -0.1970 -0.2745 -0.0265
  317poe    c23 1639   0.895   5.252   3.330  0.3743 -0.1425 -0.5358
  317poe     o2 1640   0.884   5.391   3.353 -0.6630 -0.4407  0.8783
  317poe    c23 1641   0.955   5.446   3.462 -0.2058 -0.0112  0.3658
  317poe    c23 1642   0.923   5.596   3.447 -0.2570 -0.0159  0.4307
  317poe     o2 1643   0.790   5.605   3.403 -0.1617  0.2866  0.2009
  317poe    c31 1644   0.741   5.737   3.404 -0.3142  0.2423 -0.6086
  318poe    c31 1645   3.616   5.188   6.236 -0.4189  0.1778 -0.3334
  318poe     o2 1646   3.725   5.142   6.159 -0.1347  0.1823  0.0653
  318poe    c23 1647   3.740   5.008   6.202  0.0887  0.0584 -0.3974
  318poe    c23 1648   3.850   4.939   6.119  0.2375  0.1067 -0.2396
  318poe     o2 1649   3.956   5.030   6.139  0.0896  0.0802  0.7486
  318poe    c23 1650   4.059   4.988   6.052  0.0635  0.0962  0.7095
  318poe    c23 1651   4.136   5.120   6.031 -0.0977  0.0765 -0.0401
  318poe     o2 1652   4.039   5.218   6.003  0.1670  0.2878 -0.2249
  318poe    c23 1653   4.091   5.348   6.001  0.2694  0.2543  0.1077
  318poe    c23 1654   3.967   5.439   6.000  0.2741  0.2592 -0.0303
  318poe     o2 1655   3.864   5.375   6.072 -0.3490  0.0678 -1.0661
  318poe    c31 1656   3.762   5.471   6.092 -0.2917 -0.1241  0.2218
  319poe    c31 1657   5.830   2.002   6.134  0.7241 -0.8382  0.5083
  319poe     o2 1658   5.717   1.926   6.172 -0.1936  0.2222 -0.0212
  319poe    c23 1659   5.758   1.809   6.239 -0.4381 -0.2323 -0.6527
  319poe    c23 1660   5.640   1.725   6.291 -0.1041 -0.5656 -0.4293
  319poe     o2 1661   5.553   1.717   6.181 -0.5889  0.2046 -0.1030
  319poe    c23 1662   5.433   1.651   6.216 -0.0849 -0.4403  0.4244
  319poe    c23 1663   5.323   1.698   6.119 -0.0977  0.0215  0.6630
  319poe     o2 1664   5.357   1.835   6.119  0.2030 -0.0484 -0.0842
  319poe    c23 1665   5.297   1.924   6.027 -0.0166 -0.2330 -0.1179
  319poe    c23 1666   5.349   2.062   6.068  0.3762 -0.3317 -0.2792
  319poe     o2 1667   5.488   2.050   6.087  0.3253 -0.0773  0.2614
  319poe    c31 1668   5.531   2.161   6.162  0.5716  0.0539 -0.0736
  320poe    c31 1669   4.237   2.855   1.773  0.0973  0.3744  1.2986
  320poe     o2 1670   4.155   2.969   1.765 -0.4535 -0.0823  0.0549
  320poe    c23 1671   4.167   3.032   1.640  0.4083 -0.0463  0.1480
  320poe    c23 1672   4.132   3.182   1.650  0.1026 -0.0815 -0.3231
  320poe     o2 1673   4.012   3.178   1.724  0.1949  0.3945 -0.1425
  320poe    c23 1674   3.982   3.309   1.766 -0.5619  0.2193 -0.1225
  320poe    c23 1675   3.927   3.287   1.908 -0.5972  0.0771 -0.1574
  320poe     o2 1676   4.017   3.199   1.972 -0.5584  0.2541  0.0350
  320poe    c23 1677   3.988   3.167   2.106 -0.5384 -0.1099 -0.0477
  320poe    c23 1678   4.068   3.039   2.135 -0.7215 -0.1694  0.2020
  320poe     o2 1679   4.056   2.956   2.021  0.6975  0.5071 -0.4656
  320poe    c31 1680   4.068   2.821   2.059 -0.0922  0.4757 -0.3049
  321poe    c31 1681   3.231   2.074   3.731 -0.1179  0.3649 -0.0535
  321poe     o2 1682   3.156   1.984   3.810 -0.0548  0.2605 -0.1122
  321poe    c23 1683   3.090   1.895   3.723  0.0217 -0.1317  0.2300
  321poe    c23 1684   3.020   1.784   3.803 -0.3048 -0.2230 -0.1783
  321poe     o2 1685   3.119   1.714   3.876 -0.1843  0.2272  0.0982
  321poe    c23 1686   3.058   1.658   3.990  0.0418 -0.2510 -0.0124
  321poe    c23 1687   3.144   1.541   4.041 -0.4943 -0.2452  0.9252
  321poe     o2 1688   3.258   1.576   4.115 -0.0645  0.2749  0.0303
  321poe    c23 1689   3.334   1.462   4.147 -0.1476  0.2848  0.2623
  321poe    c23 1690   3.436   1.497   4.258  0.2195  0.5006 -0.1411
  321poe     o2 1691   3.477   1.622   4.208 -0.0282  0.6046 -0.0817
  321poe    c31 1692   3.555   1.686   4.306 -0.0471 -0.2322  0.4937
  322poe    c31 1693   2.043   5.077   4.965  0.5269  0.0142 -0.4296
  322poe     o2 1694   1.930   4.994   4.952  0.7466 -0.2667 -0.5635
  322poe    c23 1695   1.943   4.882   5.037 -0.0871 -0.2813 -0.4388
  322poe    c23 1696   1.857   4.772   4.973 -0.8517 -0.4131  0.7751
  322poe     o2 1697   1.747   4.843   4.920 -0.4907 -0.3371  0.1090
  322poe    c23 1698   1.665   4.752   4.849 -0.2153 -0.0261 -0.6175
  322poe    c23 1699   1.550   4.846   4.809 -0.2552  0.1379 -0.1277
  322poe     o2 1700   1.609   4.965   4.761  0.3916 -0.2570 -0.3313
  322poe    c23 1701   1.517   5.072   4.761  0.2645 -0.3659 -0.4396
  322poe    c23 1702   1.598   5.202   4.778  0.5626 -0.6019 -0.0360
  322poe     o2 1703   1.708   5.168   4.859 -0.0272 -0.0833  0.9941
  322poe    c31 1704   1.771   5.293   4.881  0.2619 -0.0251 -0.1240
  323poe    c31 1705   6.229   5.843   2.136  0.3550 -0.3641  0.3685
  323poe     o2 1706   6.219   5.770   2.256  0.2350 -0.4626  0.2989
  323poe    c23 1707   6.167   5.860   2.351  0.4709  0.4018 -0.3884
  323poe    c23 1708   6.160   5.796   2.491 -1.1309  0.1740 -0.5535
  323poe     o2 1709   6.169   5.657   2.474  0.3149  0.1853  0.0332
  323poe    c23 1710   6.186   5.579   2.590  0.8215  0.3379  0.0664
  323poe    c23 1711   6.155   5.435   2.544  0.5201  0.4767 -0.1654
  323poe     o2 1712   6.215   5.408   2.419  0.4427 -0.1618 -0.0656
  323poe    c23 1713   6.355   5.400   2.422  0.4120 -0.6500  0.3125
  323poe    c23 1714   6.410   5.410   2.278 -0.3972 -0.5411  0.0032
  323poe     o2 1715   6.358   5.518   2.205  0.3291 -0.0243  0.2340
  323poe    c31 1716   6.363   5.509   2.065  0.5338 -0.8979  0.2927
  324poe    c31 1717   0.698   4.513   3.777 -0.1527  0.5494  0.4628
  324poe     o2 1718   0.835   4.510   3.746 -0.0824  0.2421  0.7977
  324poe    c23 1719   0.911   4.559   3.854  0.0856  0.1862  0.7051
  324poe    c23 1720   1.062   4.528   3.840 -0.2215 -1.1788  0.2042
  324poe     o2 1721   1.070   4.517   3.700 -0.5898 -0.0083  0.0801
  324poe    c23 1722   1.207   4.513   3.665 -0.6021  0.0521  0.0244
  324poe    c23 1723   1.213   4.580   3.526 -0.1024  0.4090  0.2169
  324poe     o2 1724   1.088   4.567   3.463  0.0828 -0.6447  0.0538
  324poe    c23 1725   1.098   4.600   3.327 -0.1059 -0.0068  0.1927
  324poe    c23 1726   1.158   4.492   3.235  0.2466  0.5655 -0.2549
  324poe     o2 1727   1.074   4.381   3.213 -0.0354  0.7127  0.0659
  324poe    c31 1728   1.152   4.284   3.147 -0.4037  0.1538  0.4424
  325poe    c31 1729   5.393   2.632   5.312  0.0685 -0.1763 -0.4954
  325poe     o2 1730   5.352   2.763   5.280  0.1376 -0.1328 -0.4060
  325poe    c23 1731   5.393   2.791   5.148 -0.1363  0.0517 -0.4535
  325poe    c23 1732   5.348   2.938   5.139 -0.4665 -0.0269 -0.1188
  325poe     o2 1733   5.212   2.946   5.173 -0.6842  0.2453 -1.0260
  325poe    c23 1734   5.168   3.080   5.169  0.6484  0.7731  0.6503
  325poe    c23 1735   5.085   3.109   5.296 -0.1059  0.8889  0.1398
  325poe     o2 1736   5.146   3.034   5.399 -0.5947 -0.0205 -0.2195
  325poe    c23 1737   5.072   3.042   5.519 -0.5455 -0.1215 -0.1827
  325poe    c23 1738   5.163   2.970   5.620 -0.2943  0.1148 -0.2391
  325poe     o2 1739   5.195   2.846   5.560  0.3847  0.0409  0.2614
  325poe    c31 1740   5.222   2.748   5.658  0.1367  0.0652  0.3555
  326poe    c31 1741   5.153   1.500   4.943 -0.4021 -0.2980 -0.1342
  326poe     o2 1742   5.045   1.578   4.989 -0.2593 -0.1385 -0.0656
  326poe    c23 1743   5.052   1.714   4.953  0.0223  0.0108  0.5557
  326poe    c23 1744   4.945   1.796   5.028 -0.1185  0.1978  0.1482
  326poe     o2 1745   4.968   1.795   5.167  0.2867  0.2176  0.0826
  326poe    c23 1746   4.877   1.884   5.225  0.3003  0.2601  0.0389
  326poe    c23 1747   4.886   1.889   5.379  0.7401 -0.0042  0.0217
  326poe     o2 1748   4.882   1.758   5.431  0.2170 -0.1269 -0.3301
  326poe    c23 1749   4.924   1.770   5.564 -0.4818  0.0271 -0.1163
  326poe    c23 1750   4.978   1.629   5.596 -0.2291  0.2165  0.3041
  326poe     o2 1751   5.041   1.584   5.479 -0.4426 -0.3874  0.4204
  326poe    c31 1752   5.073   1.451   5.515 -0.1982 -0.5035 -0.2059
  327poe    c31 1753   6.559   0.986   0.871 -0.3748 -0.3072  0.3437
  327poe     o2 1754   6.518   0.854   0.847 -0.1373 -0.3784  0.3240
  327poe    c23 1755   6.379   0.848   0.871 -0.2397 -0.1508 -0.2076
  327poe    c23 1756   6.326   0.708   0.834 -0.0326 -0.3619  0.2858
  327poe     o2 1757   6.437   0.622   0.848 -0.2713 -0.6791  0.2426
  327poe    c23 1758   6.398   0.496   0.800 -0.1625 -0.3184 -0.8305
  327poe    c23 1759   6.526   0.411   0.809  0.1054  0.1798  0.1734
  327poe     o2 1760   6.633   0.488   0.759 -0.1010  0.3799  0.0379
  327poe    c23 1761   6.737   0.399   0.724 -0.3600  0.1043 -0.0408
  327poe    c23 1762   6.797   0.405   0.582 -0.1353  0.1551  0.0550
  327poe     o2 1763   6.864   0.521   0.540  0.1732 -0.0396  0.0056
  327poe    c31 1764   6.881   0.511   0.401  0.8653  0.6163  0.0366
  328poe    c31 1765   2.536   1.358   4.704  0.3552 -0.3457  0.1835
  328poe     o2 1766   2.569   1.384   4.569 -0.4101 -0.4372 -0.0286
  328poe    c23 1767   2.707   1.409   4.560 -0.4640 -0.1161  0.0361
  328poe    c23 1768   2.721   1.518   4.451 -0.3493  0.0030  0.1692
  328poe     o2 1769   2.633   1.471   4.352 -0.0124  0.3401 -0.2926
  328poe    c23 1770   2.656   1.510   4.218 -0.1366  0.1565 -0.3687
  328poe    c23 1771   2.594   1.395   4.138  0.1168 -0.2608  0.0316
  328poe     o2 1772   2.474   1.355   4.200  0.1423 -0.1594  0.1456
  328poe    c23 1773   2.452   1.218   4.172  0.6533 -0.2050 -0.0343
  328poe    c23 1774   2.362   1.174   4.289 -0.0178  0.4941 -0.2810
  328poe     o2 1775   2.403   1.214   4.418  0.0821 -0.0329 -0.1480
  328poe    c31 1776   2.357   1.125   4.517 -0.3466  0.5902  0.2170
  329poe    c31 1777   6.013   2.576   5.586  0.1745 -0.0289  0.7310
  329poe     o2 1778   6.081   2.637   5.479  0.1791 -0.1827  0.6461
  329poe    c23 1779   6.070   2.568   5.356  0.4106 -0.0672  0.5601
  329poe    c23 1780   6.133   2.656   5.246 -0.6338 -0.0592 -0.0484
  329poe     o2 1781   6.127   2.784   5.305  0.2787 -0.0834  0.1085
  329poe    c23 1782   6.135   2.896   5.219 -0.5641 -0.0781  0.0356
  329poe    c23 1783   6.115   3.023   5.303 -0.0501  0.0306 -0.0048
  329poe     o2 1784   6.188   3.022   5.424 -0.1030  0.3228  0.0327
  329poe    c23 1785   6.114   3.088   5.524 -0.5334  0.2365 -0.2239
  329poe    c23 1786   6.162   3.035   5.660 -0.3118 -0.3845 -0.5417
  329poe     o2 1787   6.141   2.897   5.640 -0.4807 -0.4084 -0.1905
  329poe    c31 1788   6.166   2.833   5.764 -0.4346 -0.5620 -0.2794
  330poe    c31 1789   5.237   4.389   4.161 -0.4054  0.2805 -0.3376
  330poe     o2 1790   5.201   4.303   4.055  0.3350  0.0771 -0.4260
  330poe    c23 1791   5.312   4.295   3.968  0.2588  0.1995 -0.5353
  330poe    c23 1792   5.258   4.200   3.859  0.1540 -0.5102  0.1287
  330poe     o2 1793   5.203   4.082   3.914 -0.3839 -0.1230  0.4335
  330poe    c23 1794   5.154   4.008   3.804  0.1346  0.2132 -0.0326
  330poe    c23 1795   5.044   3.922   3.868  0.3311 -0.3090 -0.3895
  330poe     o2 1796   4.961   4.017   3.931  0.9762 -0.3100  0.4820
  330poe    c23 1797   4.881   3.961   4.033 -0.0031 -0.0143 -0.1059
  330poe    c23 1798   4.848   4.078   4.128  0.0887 -0.0437 -0.0385
  330poe     o2 1799   4.967   4.140   4.171  0.4355 -0.4487 -0.4040
  330poe    c31 1800   4.950   4.218   4.287  0.3270  0.1811 -0.8397
  331poe    c31 1801   5.291   0.448   0.690 -0.3862  0.0376 -0.7355
  331poe     o2 1802   5.345   0.578   0.701 -0.5474  0.0552 -0.1202
  331poe    c23 1803   5.380   0.644   0.581  0.7814  0.4528  0.4629
  331poe    c23 1804   5.436   0.774   0.642  0.3512  0.7814  0.1627
  331poe     o2 1805   5.359   0.806   0.756 -0.2936  0.0933 -0.0698
  331poe    c23 1806   5.398   0.933   0.803  0.2785 -0.0810 -0.0718
  331poe    c23 1807   5.329   0.940   0.940  0.6173 -0.4208  0.1165
  331poe     o2 1808   5.374   0.815   0.988  0.1652 -0.5478  0.2148
  331poe    c23 1809   5.290   0.795   1.100 -0.3992 -0.2006 -0.1461
  331poe    c23 1810   5.298   0.651   1.154 -0.0755 -0.3493 -0.5837
  331poe     o2 1811   5.257   0.575   1.043 -0.8596 -0.0307 -0.5224
  331poe    c31 1812   5.200   0.456   1.093 -0.0433 -0.0889  0.2991
  332poe    c31 1813   1.211   5.434   6.012  0.0840  0.7395 -0.1498
  332poe     o2 1814   1.264   5.549   6.074  0.3322  0.5164  0.0524
  332poe    c23 1815   1.154   5.620   6.126 -0.1822 -0.7483  0.7218
  332poe    c23 1816   1.087   5.736   6.051  0.7937 -0.6432 -0.0157
  332poe     o2 1817   1.174   5.838   6.008  0.5371 -0.4053  0.0240
  332poe    c23 1818   1.092   5.936   5.948  0.1688 -0.8933 -0.2723
  332poe    c23 1819   1.178   6.061   5.925 -0.4550 -0.4176 -0.0423
  332poe     o2 1820   1.312   6.026   5.897 -0.4893  0.0443 -0.8395
  332poe    c23 1821   1.388   6.121   5.828 -0.0749  0.3794  0.0667
  332poe    c23 1822   1.524   6.059   5.789 -0.1121  0.2758  0.1028
  332poe     o2 1823   1.556   5.971   5.894  0.2897  0.6888  0.3295
  332poe    c31 1824   1.685   5.917   5.886  0.0606  0.2582 -0.4804
  333poe    c31 1825   5.610   0.068   3.873 -0.8299  0.3975 -0.2271
  333poe     o2 1826   5.513   0.108   3.966 -0.8014  0.2073 -0.1162
  333poe    c23 1827   5.544   0.093   4.103  0.0901 -0.0990 -0.3449
  333poe    c23 1828   5.428   0.152   4.186  0.4725  0.2781 -0.0715
  333poe     o2 1829   5.379   0.265   4.117  1.0248  0.4735 -0.1452
  333poe    c23 1830   5.279   0.323   4.197  0.0455 -0.2230 -0.8494
  333poe    c23 1831   5.191   0.440   4.150 -0.1461  0.2082  0.5289
  333poe     o2 1832   5.270   0.557   4.157 -0.1507  0.2165  0.4438
  333poe    c23 1833   5.206   0.670   4.103 -0.0170  0.1667  0.1774
  333poe    c23 1834   5.307   0.759   4.028 -0.0332  0.2757  0.2845
  333poe     o2 1835   5.426   0.771   4.104  0.1406  0.3220  0.0065
  333poe    c31 1836   5.517   0.850   4.031  0.2771 -0.2301 -0.4329
  334poe    c31 1837   3.411   4.579   2.588 -0.0283 -0.2509  0.8180
  334poe     o2 1838   3.376   4.705   2.639 -0.1309 -0.0565  0.2727
  334poe    c23 1839   3.420   4.744   2.767  0.0159 -0.4015  0.3289
  334poe    c23 1840   3.335   4.858   2.828  0.1922  0.1272 -0.4054
  334poe     o2 1841   3.318   4.961   2.733 -0.2586  0.1431 -0.3072
  334poe    c23 1842   3.260   5.081   2.780  0.3392  0.2963  0.0499
  334poe    c23 1843   3.265   5.182   2.665  0.0219  0.2274 -0.0261
  334poe     o2 1844   3.183   5.138   2.559 -0.1874  0.5456  0.0036
  334poe    c23 1845   3.233   5.202   2.445 -0.0391 -0.1414 -0.3197
  334poe    c23 1846   3.118   5.205   2.342 -0.4881 -0.2979  0.1773
  334poe     o2 1847   3.073   5.072   2.354 -0.2478 -0.4076 -0.1224
  334poe    c31 1848   2.993   5.036   2.244 -0.0107 -0.8365 -0.1555
  335poe    c31 1849   5.245   3.439   5.135 -0.3792  0.0042 -0.5363
  335poe     o2 1850   5.305   3.558   5.181  0.2410 -0.5416  0.0808
  335poe    c23 1851   5.300   3.558   5.322  0.9263 -0.8414  0.1113
  335poe    c23 1852   5.328   3.704   5.361  0.1504 -0.6301 -0.0959
  335poe     o2 1853   5.465   3.739   5.359 -0.1372  0.5308 -0.1676
  335poe    c23 1854   5.529   3.729   5.483  0.0710 -0.0836 -0.3222
  335poe    c23 1855   5.647   3.828   5.486  0.3305 -0.3989  0.2218
  335poe     o2 1856   5.713   3.793   5.366  0.3025 -0.0226  0.0950
  335poe    c23 1857   5.797   3.901   5.333 -0.0415  0.3146  0.3076
  335poe    c23 1858   5.853   3.867   5.194  0.3369  0.3502  0.4501
  335poe     o2 1859   5.740   3.833   5.118  0.8688 -0.1729 -0.1243
  335poe    c31 1860   5.770   3.894   4.994  0.2327 -0.0107 -0.2044
  336poe    c31 1861   3.220   6.654   4.357  0.2364 -0.1865 -0.2178
  336poe     o2 1862   3.214   6.629   4.495  0.3675 -0.1175 -0.1995
  336poe    c23 1863   3.084   6.582   4.524  0.2651  0.5854  0.5253
  336poe    c23 1864   3.067   6.541   4.671  0.1186 -0.1979  0.2968
  336poe     o2 1865   3.180   6.476   4.724  0.2752 -0.3026 -0.1586
  336poe    c23 1866   3.158   6.454   4.862  0.0989 -0.4624 -0.2128
  336poe    c23 1867   3.282   6.506   4.937 -0.3606  0.0973  0.1661
  336poe     o2 1868   3.372   6.554   4.840 -0.8130  0.5857 -0.0153
  336poe    c23 1869   3.475   6.630   4.898 -0.0266 -0.1584 -0.4108
  336poe    c23 1870   3.590   6.634   4.797  0.2230 -0.1055 -0.1263
  336poe     o2 1871   3.527   6.645   4.671  0.0217  0.1972  0.0012
  336poe    c31 1872   3.602   6.699   4.564  0.5730 -0.0012  0.2860
  337poe    c31 1873   3.656   4.765   0.658  0.8188 -0.2768  0.4031
  337poe     o2 1874   3.653   4.679   0.545 -0.0034  0.0525  0.1618
  337poe    c23 1875   3.785   4.665   0.498  0.0757 -0.1927  0.4529
  337poe    c23 1876   3.785   4.554   0.391 -0.3636 -0.0320  0.2833
  337poe     o2 1877   3.669   4.560   0.312 -0.1473 -0.2657 -0.0560
  337poe    c23 1878   3.674   4.648   0.202 -0.0513  0.5322  0.5796
  337poe    c23 1879   3.530   4.698   0.178 -0.1905 -0.0043  0.2897
  337poe     o2 1880   3.475   4.722   0.306  0.1545  0.3239  0.3794
  337poe    c23 1881   3.340   4.764   0.310 -0.0634 -0.3261  0.0207
  337poe    c23 1882   3.297   4.805   0.452  0.3517  0.5671 -0.1072
  337poe     o2 1883   3.336   4.695   0.530 -0.4698  0.2582 -0.1260
  337poe    c31 1884   3.297   4.705   0.666 -0.4369  0.0285 -0.0996
  338poe    c31 1885   0.024   3.123   4.312  0.5766 -0.0780 -0.1824
  338poe     o2 1886  -0.003   3.246   4.375  0.2711 -0.1879 -0.0979
  338poe    c23 1887   0.065   3.236   4.498 -0.1548 -0.5762  0.1099
  338poe    c23 1888   0.100   3.384   4.526 -0.6302 -0.3258 -0.5990
  338poe     o2 1889  -0.029   3.442   4.528 -0.2112  0.6022 -0.3805
  338poe    c23 1890  -0.026   3.580   4.556  0.1915  0.3807  0.7226
  338poe    c23 1891  -0.168   3.626   4.517  0.4601  0.4546 -0.1995
  338poe     o2 1892  -0.181   3.557   4.395  0.2003 -0.5775  0.3989
  338poe    c23 1893  -0.317   3.537   4.363  0.1351 -0.0865  0.3693
  338poe    c23 1894  -0.327   3.454   4.233  0.0216  0.7692 -0.1805
  338poe     o2 1895  -0.249   3.339   4.257 -0.0924  0.6869 -0.2066
  338poe    c31 1896  -0.285   3.248   4.155  0.3731  0.3458 -0.0687
  339poe    c31 1897   5.952   5.483   0.043 -0.2645 -0.9240  0.0086
  339poe     o2 1898   6.022   5.431   0.154  0.0934 -0.0941  0.1816
  339poe    c23 1899   6.118   5.525   0.197  0.0988  0.0215 -0.0843
  339poe    c23 1900   6.168   5.484   0.337  0.0193  0.6716  0.1377
  339poe     o2 1901   6.205   5.349   0.320 -0.3013  0.5637  0.2859
  339poe    c23 1902   6.300   5.308   0.417  0.0126  0.7784  0.0702
  339poe    c23 1903   6.352   5.170   0.373 -0.4225  0.4208  0.6641
  339poe     o2 1904   6.233   5.097   0.358  0.1556 -0.3205 -0.4681
  339poe    c23 1905   6.241   4.975   0.287  0.4113 -0.1193 -0.7890
  339poe    c23 1906   6.100   4.949   0.231 -0.0464  0.0424  0.2477
  339poe     o2 1907   6.054   5.075   0.189 -0.1660 -0.0792  0.0113
  339poe    c31 1908   5.983   5.054   0.068 -0.1916  0.3628 -0.0527
  340poe    c31 1909   5.755   3.273   1.474 -0.4365 -0.1807 -0.1926
  340poe     o2 1910   5.739   3.409   1.440 -0.2184 -0.0479  0.2278
  340poe    c23 1911   5.631   3.462   1.512 -0.2730  0.7083 -0.4017
  340poe    c23 1912   5.612   3.610   1.474 -0.4581  0.7665 -0.0846
  340poe     o2 1913   5.737   3.673   1.487  0.0320 -0.1718 -0.2318
  340poe    c23 1914   5.714   3.812   1.496  0.4598 -0.0836 -0.4691
  340poe    c23 1915   5.815   3.882   1.588  0.2794 -0.1187 -0.2433
  340poe     o2 1916   5.945   3.867   1.534  0.5680 -0.4028  0.5262
  340poe    c23 1917   6.027   3.951   1.612  0.4948  0.2207 -0.0587
  340poe    c23 1918   6.176   3.914   1.596  0.5194  0.1538  0.3034
  340poe     o2 1919   6.222   3.927   1.463 -0.3248 -0.5704 -0.0675
  340poe    c31 1920   6.343   3.854   1.457 -0.0427 -0.1853  0.7928
  341poe    c31 1921   1.917   3.346   4.325 -0.2461  0.2964  0.8141
  341poe     o2 1922   1.793   3.410   4.341 -0.5118  0.0963 -0.3372
  341poe    c23 1923   1.687   3.324   4.305 -0.1237 -0.5391  0.0123
  341poe    c23 1924   1.552   3.396   4.322  0.3403  0.1248  0.9911
  341poe     o2 1925   1.566   3.528   4.273 -0.3344 -0.1643  0.0006
  341poe    c23 1926   1.447   3.599   4.300 -0.1141  0.2644 -0.1570
  341poe    c23 1927   1.487   3.743   4.334 -0.0274 -0.0079  0.9178
  341poe     o2 1928   1.605   3.715   4.407  0.2407 -0.2555  0.3933
  341poe    c23 1929   1.659   3.811   4.494  0.1759  0.0572  0.0911
  341poe    c23 1930   1.747   3.735   4.595  0.1946 -0.3618 -0.2378
  341poe     o2 1931   1.830   3.638   4.536  0.9151  0.2658 -0.2733
  341poe    c31 1932   1.924   3.577   4.622  0.8031  0.3999 -0.0556
  342poe    c31 1933   0.564   5.142   2.469 -0.3794 -1.1062  0.4531
  342poe     o2 1934   0.485   5.186   2.362  0.7793  0.0104  0.0333
  342poe    c23 1935   0.476   5.093   2.257  0.2417  0.0344  0.0529
  342poe    c23 1936   0.378   5.139   2.148 -0.4233  0.1986  0.7193
  342poe     o2 1937   0.241   5.126   2.180 -0.4260 -0.5458  0.4238
  342poe    c23 1938   0.184   5.253   2.202  0.2731 -0.1149 -0.2015
  342poe    c23 1939   0.035   5.215   2.195  0.1602  0.3801 -0.5310
  342poe     o2 1940   0.014   5.136   2.310  0.7262 -0.2013 -0.8223
  342poe    c23 1941  -0.100   5.054   2.290  0.1180  0.4695 -0.1539
  342poe    c23 1942  -0.102   4.953   2.406  0.5361  0.0297 -0.5224
  342poe     o2 1943   0.027   4.913   2.448  0.1388 -0.3330  0.3950
  342poe    c31 1944   0.012   4.818   2.551 -0.7405 -0.6114  0.0223
  343poe    c31 1945   5.964   0.587   2.954 -0.5140 -0.1361 -0.1302
  343poe     o2 1946   5.958   0.641   2.824 -0.0651 -0.0209 -0.1050
  343poe    c23 1947   5.832   0.684   2.779 -0.0619  0.4514  0.3311
  343poe    c23 1948   5.880   0.745   2.646  0.2597 -0.7384 -0.1134
  343poe     o2 1949   5.951   0.640   2.584 -0.2470 -1.1750  0.0339
  343poe    c23 1950   5.981   0.684   2.454  0.1585  0.4444  0.6481
  343poe    c23 1951   6.044   0.570   2.373 -0.2023  0.5770  0.1729
  343poe     o2 1952   6.166   0.541   2.438 -0.3665 -0.4870  0.0321
  343poe    c23 1953   6.225   0.434   2.368  0.2419  0.0005 -0.2136
  343poe    c23 1954   6.378   0.424   2.381  0.2115 -0.2909 -0.0520
  343poe     o2 1955   6.457   0.524   2.319  0.0453  0.1072  0.3719
  343poe    c31 1956   6.592   0.503   2.354  0.1429 -0.0801 -0.1076
  344poe    c31 1957   5.257   5.417   4.896 -0.2338 -0.3825 -0.2574
  344poe     o2 1958   5.138   5.492   4.912 -0.0720 -0.1987  0.0835
  344poe    c23 1959   5.027   5.407   4.908 -0.3116  0.1009  0.3156
  344poe    c23 1960   4.933   5.465   5.016 -0.1710  0.2615  0.3513
  344poe     o2 1961   4.891   5.589   4.964  0.0533  0.1955  0.0117
  344poe    c23 1962   4.831   5.660   5.069 -0.5174  0.0141 -0.1869
  344poe    c23 1963   4.892   5.802   5.067  0.0415 -0.2081  0.5555
  344poe     o2 1964   5.030   5.782   5.047  0.0077  0.2535 -0.1441
  344poe    c23 1965   5.091   5.908   5.031  0.4354 -0.0106 -0.6203
  344poe    c23 1966   5.241   5.880   5.005  0.4026 -0.6934 -0.0889
  344poe     o2 1967   5.249   5.783   4.904 -0.1217 -0.6429 -0.1826
  344poe    c31 1968   5.375   5.786   4.842 -0.0551  0.3572 -0.0078
  345poe    c31 1969   3.155   3.137   4.784  0.0856 -0.1407 -0.5404
  345poe     o2 1970   3.025   3.187   4.807  0.4052  0.4557  0.0099
  345poe    c23 1971   2.978   3.271   4.705  0.3936  0.1988 -0.1988
  345poe    c23 1972   2.824   3.281   4.715  0.3611 -0.5327  0.0911
  345poe     o2 1973   2.787   3.296   4.850  0.1182  0.9844 -0.1227
  345poe    c23 1974   2.648   3.315   4.863  0.0777  0.5271  0.1574
  345poe    c23 1975   2.614   3.290   5.011 -0.1111 -0.0595  0.0162
  345poe     o2 1976   2.684   3.177   5.059  0.4380  0.3381  0.1595
  345poe    c23 1977   2.661   3.106   5.178 -0.0772  0.4950  0.1568
  345poe    c23 1978   2.519   3.062   5.219  0.0091 -0.2737 -0.3547
  345poe     o2 1979   2.436   3.153   5.287  0.2765 -0.4755  0.2401
  345poe    c31 1980   2.333   3.079   5.349 -0.1299  0.4472  0.6872
  346poe    c31 1981   4.110   1.778   5.275 -0.1522 -0.0776  0.1184
  346poe     o2 1982   3.997   1.694   5.281  0.2780 -0.6530  0.1827
  346poe    c23 1983   3.884   1.776   5.262  0.6896 -0.2355 -0.5083
  346poe    c23 1984   3.762   1.714   5.193  0.0252 -0.2620  0.6493
  346poe     o2 1985   3.739   1.608   5.284 -0.4569 -0.6527  0.0846
  346poe    c23 1986   3.639   1.527   5.227  0.0418 -0.5800 -0.9321
  346poe    c23 1987   3.680   1.383   5.264 -0.2474 -0.2831  0.6251
  346poe     o2 1988   3.821   1.384   5.266 -0.2480 -0.0036  0.6201
  346poe    c23 1989   3.853   1.261   5.328  0.2480 -0.1999 -0.0093
  346poe    c23 1990   4.006   1.273   5.345  0.2043  0.1804  0.1239
  346poe     o2 1991   4.034   1.404   5.392 -0.5251  0.1074  0.7855
  346poe    c31 1992   4.164   1.416   5.444 -0.3488 -0.1750  0.4186
  347poe    c31 1993   6.231   2.584   4.637  0.0723  0.3901 -0.8236
  347poe     o2 1994   6.258   2.449   4.665 -0.4742  0.3949 -0.2579
  347poe    c23 1995   6.201   2.383   4.555 -0.2167  0.3885 -0.3879
  347poe    c23 1996   6.263   2.243   4.572 -0.2466  0.4143 -0.0718
  347poe     o2 1997   6.247   2.215   4.709 -0.4139  0.1185 -0.1506
  347poe    c23 1998   6.287   2.088   4.755  0.5295  0.5289  0.1924
  347poe    c23 1999   6.304   2.103   4.907 -0.5580  0.8612  0.2905
  347poe     o2 2000   6.354   2.233   4.927  0.0313  0.6626  0.1168
  347poe    c23 2001   6.331   2.271   5.061  0.1269 -0.0240  0.3322
  347poe    c23 2002   6.402   2.408   5.056 -0.4971  0.2837 -0.2197
  347poe     o2 2003   6.343   2.478   4.949  0.1462  0.5358 -0.4101
  347poe    c31 2004   6.356   2.617   4.972  0.1923  0.4850 -0.1223
  348poe    c31 2005   4.685   0.414   6.611  0.6155 -0.1616 -0.4987
  348poe     o2 2006   4.546   0.391   6.616  0.5339  0.4344  0.1746
  348poe    c23 2007   4.473   0.397   6.495 -0.2805 -0.3823  0.6108
  348poe    c23 2008   4.323   0.392   6.526 -0.4457  0.0056 -0.1078
  348poe     o2 2009   4.315   0.284   6.616  0.3108 -0.4754 -0.6084
  348poe    c23 2010   4.187   0.273   6.675  0.3163 -0.2321 -0.5500
  348poe    c23 2011   4.193   0.183   6.799  0.2350 -0.0636 -0.4227
  348poe     o2 2012   4.308   0.225   6.870  0.1293  0.0093 -0.2943
  348poe    c23 2013   4.320   0.176   7.002 -0.6071  0.9742  0.1443
  348poe    c23 2014   4.419   0.263   7.083  0.0580  0.3979 -0.0408
  348poe     o2 2015   4.535   0.275   7.004  0.2287 -0.3933  0.0799
  348poe    c31 2016   4.658   0.299   7.068  0.2619 -0.0942 -0.0951
  349poe    c31 2017   5.078   2.026   1.860  0.0749 -0.6472  0.2375
  349poe     o2 2018   5.173   1.996   1.760  0.3026  0.6046  0.0506
  349poe    c23 2019   5.218   2.108   1.688  0.2101  0.8063  0.3048
  349poe    c23 2020   5.347   2.067   1.615 -0.3145 -0.1264 -0.1126
  349poe     o2 2021   5.326   1.949   1.540 -0.0714 -0.1827 -0.0926
  349poe    c23 2022   5.438   1.877   1.493  0.0589 -0.0934  0.0767
  349poe    c23 2023   5.379   1.734   1.499 -0.1729 -0.0256 -0.4642
  349poe     o2 2024   5.337   1.713   1.632  0.8542 -0.1634 -0.1491
  349poe    c23 2025   5.301   1.579   1.654 -0.4954  0.0719 -0.8106
  349poe    c23 2026   5.260   1.579   1.802  0.5695 -0.0338 -0.5052
  349poe     o2 2027   5.170   1.685   1.823  0.1478 -0.4740 -0.0604
  349poe    c31 2028   5.128   1.688   1.958  0.1938 -0.7703 -0.0391
  350poe    c31 2029   0.459   2.840   2.159  0.9003  0.6751 -0.2352
  350poe     o2 2030   0.485   2.785   2.286 -0.3053 -0.0436 -0.2793
  350poe    c23 2031   0.590   2.865   2.336  0.0223 -0.4935 -0.2361
  350poe    c23 2032   0.653   2.790   2.455  0.2497 -0.0757 -0.0875
  350poe     o2 2033   0.542   2.767   2.539  0.4397 -0.9183 -0.0522
  350poe    c23 2034   0.575   2.709   2.663  0.1380  0.1603  0.5443
  350poe    c23 2035   0.439   2.702   2.736 -0.0334 -0.2163  0.1886
  350poe     o2 2036   0.347   2.648   2.643  0.1564  0.2496 -0.2765
  350poe    c23 2037   0.233   2.610   2.716  0.3430 -0.0194 -0.1236
  350poe    c23 2038   0.125   2.555   2.621  0.7518 -0.5053 -0.3062
  350poe     o2 2039   0.084   2.642   2.518  0.0490  0.0457  0.4319
  350poe    c31 2040  -0.022   2.578   2.451 -0.0078 -0.2177  0.7678
  351poe    c31 2041   0.024   6.013   0.349 -0.2817 -0.2578 -0.2483
  351poe     o2 2042   0.083   6.018   0.221  0.5781 -0.3134  0.1391
  351poe    c23 2043   0.216   5.974   0.235  0.5765 -0.2514  0.3596
  351poe    c23 2044   0.274   5.920   0.103  0.3140 -0.3416  0.2807
  351poe     o2 2045   0.196   5.812   0.055 -0.1465  0.0421  0.1633
  351poe    c23 2046   0.265   5.733  -0.038 -0.2952 -0.4391  0.4603
  351poe    c23 2047   0.182   5.607  -0.070  0.0694 -0.5320 -0.1461
  351poe     o2 2048   0.049   5.651  -0.082  0.3375  0.1275 -0.6996
  351poe    c23 2049  -0.009   5.537  -0.140  0.1590  0.1662 -0.5967
  351poe    c23 2050  -0.143   5.561  -0.213 -0.1316  0.1039 -0.0862
  351poe     o2 2051  -0.126   5.650  -0.320  0.3905 -0.0155 -0.1063
  351poe    c31 2052  -0.258   5.674  -0.364  0.3700 -0.5044 -0.3175
  352poe    c31 2053   2.499   5.256   1.030 -0.1049 -0.0222 -0.4495
  352poe     o2 2054   2.425   5.295   0.917 -0.3140 -0.1930 -0.3718
  352poe    c23 2055   2.298   5.335   0.963 -0.2416 -0.0236 -0.3217
  352poe    c23 2056   2.185   5.301   0.864 -0.2562 -0.0483 -0.2964
  352poe     o2 2057   2.245   5.324   0.738  0.4316  0.0368  0.0400
  352poe    c23 2058   2.153   5.302   0.634  0.4814  0.0158  0.0006
  352poe    c23 2059   2.235   5.304   0.504 -0.0887 -0.3152 -0.3722
  352poe     o2 2060   2.366   5.265   0.539 -0.0724 -0.0617 -0.1410
  352poe    c23 2061   2.463   5.346   0.475 -0.1191 -0.0771 -0.2329
  352poe    c23 2062   2.598   5.311   0.541 -0.0748 -0.0417 -0.3056
  352poe     o2 2063   2.577   5.342   0.677 -0.4349 -0.5143 -0.2518
  352poe    c31 2064   2.686   5.387   0.754 -0.4230 -0.8710 -0.0567
  353poe    c31 2065   5.818   6.726   4.930 -0.6303  0.0767 -0.0048
  353poe     o2 2066   5.753   6.602   4.911  0.3880 -0.5016  0.2084
  353poe    c23 2067   5.617   6.636   4.905  0.5552  0.0299 -0.7333
  353poe    c23 2068   5.554   6.496   4.887  0.7227 -0.1363 -0.0513
  353poe     o2 2069   5.618   6.403   4.971  0.5571 -0.3556 -0.1685
  353poe    c23 2070   5.530   6.296   4.998  0.3493 -0.3159 -0.6734
  353poe    c23 2071   5.608   6.164   4.985  0.4334 -0.2931 -0.4158
  353poe     o2 2072   5.723   6.165   5.067  0.1212  0.3554  0.0170
  353poe    c23 2073   5.818   6.074   5.016 -0.1732  0.0071  0.0825
  353poe    c23 2074   5.931   6.058   5.120  0.2944  0.1931 -0.3935
  353poe     o2 2075   6.007   6.177   5.121  0.1806  0.2684 -0.6546
  353poe    c31 2076   6.128   6.162   5.191 -0.2128  0.3978  0.0662
  354poe    c31 2077   2.248   6.329   4.595  0.0461  0.4257  0.2323
  354poe     o2 2078   2.295   6.437   4.518  0.0221  0.2401 -0.0414
  354poe    c23 2079   2.183   6.465   4.436 -0.3698  0.2173  0.4824
  354poe    c23 2080   2.209   6.584   4.341 -0.6016 -0.1062  0.0095
  354poe     o2 2081   2.341   6.560   4.297 -0.2341  0.5323  0.7388
  354poe    c23 2082   2.407   6.662   4.225  0.2983 -0.2076  0.1577
  354poe    c23 2083   2.494   6.747   4.320 -0.0822  0.0991  0.2361
  354poe     o2 2084   2.557   6.660   4.412 -0.2304  0.1841  0.4201
  354poe    c23 2085   2.633   6.736   4.504 -0.0013  0.4114  0.0475
  354poe    c23 2086   2.681   6.636   4.610  0.2170  0.0238 -0.4133
  354poe     o2 2087   2.584   6.539   4.640  0.4897 -0.0310  0.3106
  354poe    c31 2088   2.607   6.468   4.760 -0.0042  0.0835  0.4777
  355poe    c31 2089   3.198   1.372   3.476  0.3947  0.0879 -0.6140
  355poe     o2 2090   3.159   1.237   3.487 -0.1044  0.2433 -0.4426
  355poe    c23 2091   3.254   1.176   3.571 -0.5651 -0.1552 -0.2114
  355poe    c23 2092   3.395   1.144   3.518 -0.4684  0.4028 -0.2929
  355poe     o2 2093   3.408   1.034   3.431 -0.4359 -0.0858  0.3180
  355poe    c23 2094   3.538   0.984   3.410 -0.4548  0.2256 -0.6217
  355poe    c23 2095   3.546   0.862   3.317  0.0737 -0.8186  0.7447
  355poe     o2 2096   3.477   0.892   3.198 -0.1897 -0.4961  0.9778
  355poe    c23 2097   3.506   0.797   3.098  0.1097  0.5163  0.0835
  355poe    c23 2098   3.443   0.861   2.972 -0.4971 -0.7700 -0.2859
  355poe     o2 2099   3.320   0.910   3.020 -0.1376  0.0344 -0.1773
  355poe    c31 2100   3.230   0.935   2.915 -0.2922  0.9574  0.1645
  356poe    c31 2101   2.854   4.410   6.401 -0.0487 -0.1646 -0.3207
  356poe     o2 2102   2.970   4.430   6.478 -0.3305 -0.2198  0.1258
  356poe    c23 2103   3.000   4.316   6.555  0.0193 -0.4275 -0.3135
  356poe    c23 2104   3.148   4.326   6.597 -0.2175  0.2658  0.3894
  356poe     o2 2105   3.161   4.460   6.638 -0.1332  0.4008 -0.0626
  356poe    c23 2106   3.297   4.495   6.656  0.0356 -0.0232 -0.5100
  356poe    c23 2107   3.284   4.638   6.711  0.8982  0.1082 -0.6419
  356poe     o2 2108   3.165   4.693   6.661  0.6676  0.5224  0.3257
  356poe    c23 2109   3.110   4.794   6.742 -0.5379 -0.3020  0.5675
  356poe    c23 2110   2.968   4.808   6.685 -0.2622 -0.5973 -0.2052
  356poe     o2 2111   2.911   4.687   6.640 -0.1389 -0.6557 -0.2030
  356poe    c31 2112   2.783   4.714   6.587 -0.0959 -0.3867 -0.1695
  357poe    c31 2113   6.090   6.187   3.385 -0.0936 -0.2745  0.0958
  357poe     o2 2114   6.163   6.167   3.266  0.2924 -0.0818  0.2943
  357poe    c23 2115   6.231   6.044   3.257  0.2789 -0.0279 -0.6792
  357poe    c23 2116   6.200   5.984   3.119 -0.2973  0.1338 -0.6200
  357poe     o2 2117   6.204   6.101   3.040  0.4643  0.4621 -0.0971
  357poe    c23 2118   6.189   6.068   2.904  0.3020  0.1807 -0.0104
  357poe    c23 2119   6.192   6.209   2.842 -0.4390  0.0842 -0.2747
  357poe     o2 2120   6.134   6.298   2.936 -0.3766  0.2052 -0.3516
  357poe    c23 2121   6.184   6.427   2.908  0.4854 -0.1337 -0.3959
  357poe    c23 2122   6.126   6.512   3.022  0.5306 -0.5423 -0.0669
  357poe     o2 2123   6.162   6.441   3.138  0.2196  0.1072  0.4338
  357poe    c31 2124   6.111   6.511   3.249 -0.3712  0.0285  0.2133
  358poe    c31 2125   0.085   5.408   1.131  0.5733  0.2774 -0.1134
  358poe     o2 2126   0.154   5.286   1.141 -0.2930 -0.1821  0.4091
  358poe    c23 2127   0.108   5.197   1.241  0.3160  0.0411  0.8980
  358poe    c23 2128   0.214   5.097   1.292  0.8289  0.0857 -0.0449
  358poe     o2 2129   0.271   5.053   1.171  0.1221  0.3512 -0.4822
  358poe    c23 2130   0.408   5.025   1.187 -0.0047  0.0796  0.1522
  358poe    c23 2131   0.480   5.021   1.051 -0.2462  0.1249  0.0225
  358poe     o2 2132   0.444   5.150   1.009 -0.2708 -0.0362 -0.4550
  358poe    c23 2133   0.500   5.196   0.888  0.1618  0.0526 -0.2232
  358poe    c23 2134   0.489   5.349   0.897 -0.2362 -0.0225  0.6713
  358poe     o2 2135   0.354   5.370   0.932 -0.4070  0.3077 -0.1515
  358poe    c31 2136   0.309   5.492   0.878 -0.0235  0.4422 -0.1696
  359poe    c31 2137   0.587   4.565   5.262 -0.2867 -0.2198  0.0144
  359poe     o2 2138   0.462   4.529   5.207 -0.1410 -0.3492 -0.2334
  359poe    c23 2139   0.424   4.618   5.105 -0.0001 -0.2291 -0.1825
  359poe    c23 2140   0.271   4.622   5.124  0.0348 -0.1736  0.0826
  359poe     o2 2141   0.204   4.507   5.079 -0.2464 -0.1353  0.4000
  359poe    c23 2142   0.063   4.517   5.084 -0.2637 -0.1171 -0.0728
  359poe    c23 2143   0.001   4.398   5.008  0.4298 -0.0322 -0.7963
  359poe     o2 2144   0.051   4.294   5.090 -0.4682 -0.0401 -0.2390
  359poe    c23 2145   0.017   4.163   5.049 -0.6114 -0.1750  0.2989
  359poe    c23 2146   0.069   4.057   5.147 -0.1272 -0.4596 -0.2580
  359poe     o2 2147   0.199   4.087   5.194 -0.4169 -0.0849  0.3174
  359poe    c31 2148   0.282   3.980   5.234 -0.1650  0.1935  0.5421
  360poe    c31 2149   6.721   0.222   6.363  0.2244 -0.0807 -0.5679
  360poe     o2 2150   6.746   0.346   6.300 -0.0197  0.3535  0.1794
  360poe    c23 2151   6.759   0.332   6.160 -0.8481  0.4573  0.0879
  360poe    c23 2152   6.843   0.455   6.121 -0.7259  0.2623 -0.2622
  360poe     o2 2153   6.791   0.568   6.186  0.1281  0.6415 -0.2246
  360poe    c23 2154   6.853   0.691   6.156  1.4769  0.0536  0.1164
  360poe    c23 2155   6.849   0.784   6.278 -0.0224  0.0010  0.1211
  360poe     o2 2156   6.882   0.699   6.385  0.2042  0.0501  0.0912
  360poe    c23 2157   6.855   0.744   6.516  0.4739  0.4899  0.0003
  360poe    c23 2158   6.851   0.625   6.615 -0.2927  0.1779 -0.3910
  360poe     o2 2159   6.786   0.520   6.547 -0.3076  0.0363 -0.1572
  360poe    c31 2160   6.771   0.413   6.637 -0.1627 -0.2071 -0.4202
  361poe    c31 2161   2.907   4.977   4.957  0.6245  0.2582 -0.0455
  361poe     o2 2162   2.925   4.966   4.817  0.3957 -0.0335 -0.0519
  361poe    c23 2163   2.799   4.951   4.755  0.4694  0.1472 -0.2441
  361poe    c23 2164   2.824   4.914   4.608 -0.2381 -0.1297 -0.2963
  361poe     o2 2165   2.919   4.994   4.541  0.1243 -0.2589  0.0590
  361poe    c23 2166   3.005   4.908   4.469  0.0574 -0.0341 -0.2949
  361poe    c23 2167   3.136   4.988   4.459 -0.3179  0.6041 -0.1863
  361poe     o2 2168   3.176   4.987   4.594  0.1179  0.1020 -0.3130
  361poe    c23 2169   3.288   5.073   4.596  0.4700 -0.3636  0.0610
  361poe    c23 2170   3.321   5.081   4.746 -0.2011 -0.0658  0.1968
  361poe     o2 2171   3.200   5.083   4.819 -0.2690  0.3702  0.0734
  361poe    c31 2172   3.230   5.098   4.956  0.0069  0.8051 -0.0309
  362poe    c31 2173   4.851   4.433   2.098 -0.1005 -0.2957 -0.1285
  362poe     o2 2174   4.854   4.495   2.224 -0.0820 -0.3471 -0.1035
  362poe    c23 2175   4.979   4.554   2.253 -0.0886 -0.5533  0.3499
  362poe    c23 2176   4.962   4.636   2.383 -0.1466 -0.2084  0.1258
  362poe     o2 2177   4.869   4.561   2.457  0.0409 -0.3619  0.2068
  362poe    c23 2178   4.841   4.626   2.579  0.4085 -0.6504  0.4478
  362poe    c23 2179   4.723   4.558   2.651  0.3824 -0.7373  0.3226
  362poe     o2 2180   4.636   4.501   2.556  0.1933  0.0640  0.0028
  362poe    c23 2181   4.525   4.585   2.533  0.3244  0.1561 -0.2892
  362poe    c23 2182   4.485   4.598   2.385 -0.0305  0.5209 -0.1614
  362poe     o2 2183   4.607   4.597   2.314  0.0708  0.1042  0.0184
  362poe    c31 2184   4.576   4.662   2.193 -0.2114 -0.0031  0.0317
  363poe    c31 2185   1.177   1.019   2.275  0.1206  0.0002 -0.6951
  363poe     o2 2186   1.132   1.152   2.264  0.2435  0.1218  0.1957
  363poe    c23 2187   1.215   1.241   2.335  0.2373  0.5064 -0.2689
  363poe    c23 2188   1.135   1.366   2.378 -0.0610  0.1171  0.3353
  363poe     o2 2189   1.072   1.410   2.260 -0.1978  0.1426  0.4183
  363poe    c23 2190   0.964   1.497   2.287 -0.1948  0.2827 -0.0002
  363poe    c23 2191   0.894   1.511   2.151 -0.3528  0.1021  0.0601
  363poe     o2 2192   0.878   1.378   2.108  0.4332  0.0707 -0.1637
  363poe    c23 2193   0.867   1.363   1.968  0.0741  0.2228 -0.1530
  363poe    c23 2194   0.857   1.211   1.949  0.0257  0.2292 -0.1795
  363poe     o2 2195   0.946   1.141   2.033 -0.3772  0.1460  0.1815
  363poe    c31 2196   0.945   1.004   1.996  0.5687  0.2955 -0.4710
  364poe    c31 2197   1.213   0.795   1.023  0.1663  0.0703 -0.2375
  364poe     o2 2198   1.109   0.748   1.105  0.0948 -0.2888 -0.5312
  364poe    c23 2199   1.013   0.671   1.036 -0.2943  0.2888 -0.6378
  364poe    c23 2200   0.885   0.636   1.114 -0.0034  0.0480 -0.2731
  364poe     o2 2201   0.934   0.563   1.225 -0.5647  0.4712  0.2644
  364poe    c23 2202   0.871   0.440   1.250 -0.0357  0.0863 -0.2322
  364poe    c23 2203   0.909   0.389   1.391 -0.4111  0.4541  0.0058
  364poe     o2 2204   0.876   0.487   1.487  0.1788  0.5854  0.0817
  364poe    c23 2205   0.952   0.462   1.603  0.2747  0.1182 -0.0800
  364poe    c23 2206   0.944   0.579   1.702 -0.3269 -0.1090  0.1437
  364poe     o2 2207   0.979   0.695   1.629  0.3420 -0.5012 -0.1648
  364poe    c31 2208   1.071   0.785   1.687 -0.4918  0.3507 -0.1495
  365poe    c31 2209   5.866   4.078   0.597 -0.2788 -0.3552  0.2720
  365poe     o2 2210   5.749   4.154   0.615 -0.3741 -0.4780  0.1777
  365poe    c23 2211   5.657   4.087   0.698 -0.3058 -0.7353  0.0455
  365poe    c23 2212   5.535   4.182   0.700  0.1881 -0.1025  0.2708
  365poe     o2 2213   5.508   4.212   0.565  0.3002  0.3748  0.3511
  365poe    c23 2214   5.403   4.304   0.549 -0.2598 -0.3705 -0.3594
  365poe    c23 2215   5.382   4.305   0.396  0.1216 -0.4244 -0.4122
  365poe     o2 2216   5.501   4.334   0.326  0.0860 -0.0871 -0.3331
  365poe    c23 2217   5.470   4.394   0.202  0.0374  0.3867 -0.0945
  365poe    c23 2218   5.598   4.424   0.122  0.0981 -0.1577 -0.2028
  365poe     o2 2219   5.662   4.515   0.208 -0.4354 -0.3062  0.3537
  365poe    c31 2220   5.769   4.593   0.161 -0.1072  0.0016  1.5625
  366poe    c31 2221   3.192   6.676   2.725 -0.3409  0.4609 -0.0684
  366poe     o2 2222   3.289   6.750   2.794  0.1014  0.0981 -0.2928
  366poe    c23 2223   3.420   6.720   2.753 -0.1135 -0.1878 -0.7715
  366poe    c23 2224   3.504   6.829   2.822  0.2259 -0.6193 -0.4998
  366poe     o2 2225   3.429   6.948   2.816  0.8142 -0.2216 -0.1068
  366poe    c23 2226   3.493   7.061   2.870  0.1629  0.2214 -0.2522
  366poe    c23 2227   3.414   7.192   2.850  0.4246  0.3762 -0.2856
  366poe     o2 2228   3.287   7.184   2.911  0.5232  0.1726 -0.1056
  366poe    c23 2229   3.211   7.299   2.881 -0.0522 -0.1756  0.0004
  366poe    c23 2230   3.072   7.288   2.945  0.2664 -0.1749  0.7041
  366poe     o2 2231   2.998   7.187   2.880  0.3499 -0.1400  0.5550
  366poe    c31 2232   2.865   7.174   2.924  0.0763 -0.0104 -0.2096
  367poe    c31 2233   6.554   4.015   5.327 -0.0806 -0.7847 -0.3682
  367poe     o2 2234   6.458   3.923   5.374 -0.2843 -0.1229  0.5402
  367poe    c23 2235   6.334   3.963   5.319 -0.2011  0.2369  0.6123
  367poe    c23 2236   6.225   3.863   5.363 -0.0850 -0.1578  0.0138
  367poe     o2 2237   6.292   3.740   5.378 -0.0925 -0.1181  0.3744
  367poe    c23 2238   6.201   3.633   5.361 -0.2995  0.1348 -0.1311
  367poe    c23 2239   6.281   3.511   5.313 -0.2452  0.1063  0.0323
  367poe     o2 2240   6.406   3.504   5.378 -0.2181  0.0328 -0.0275
  367poe    c23 2241   6.462   3.376   5.363 -0.2199  0.0231  0.0454
  367poe    c23 2242   6.567   3.310   5.454 -0.4105  0.1755  0.3740
  367poe     o2 2243   6.511   3.265   5.575 -0.2845 -0.3480  0.2401
  367poe    c31 2244   6.610   3.253   5.675 -0.0025 -0.7390 -0.0844
  368poe    c31 2245   1.176   3.402   1.882  0.4235 -0.3879  0.0618
  368poe     o2 2246   1.052   3.463   1.855  0.4507 -0.2266  0.3052
  368poe    c23 2247   1.014   3.405   1.733 -0.0051 -0.3065  0.4839
  368poe    c23 2248   0.886   3.470   1.676  0.2411 -0.3367 -0.1169
  368poe     o2 2249   0.908   3.607   1.697 -0.0248 -0.2944 -0.1021
  368poe    c23 2250   0.866   3.689   1.591 -0.0684 -0.0666  0.0906
  368poe    c23 2251   0.914   3.835   1.601  0.4655 -0.2511  0.2214
  368poe     o2 2252   1.037   3.830   1.669  0.6818  0.6727 -0.0853
  368poe    c23 2253   1.051   3.935   1.762  0.0240  0.3107  0.4344
  368poe    c23 2254   1.128   3.873   1.880  0.6684 -0.2505 -0.2697
  368poe     o2 2255   1.084   3.751   1.933  0.0044 -0.1160 -0.5052
  368poe    c31 2256   1.138   3.722   2.060 -0.7707 -0.3308 -0.2186
  369poe    c31 2257   2.714   1.426   1.882 -0.0386  0.0785 -0.6197
  369poe     o2 2258   2.741   1.288   1.869  0.0686  0.0490 -0.0923
  369poe    c23 2259   2.879   1.278   1.840 -0.0035  0.0213 -0.4275
  369poe    c23 2260   2.912   1.139   1.783 -0.1133 -0.2855  0.2448
  369poe     o2 2261   2.832   1.047   1.854  0.4906 -0.6358  0.4777
  369poe    c23 2262   2.854   0.910   1.829  0.3107 -0.5918  0.0722
  369poe    c23 2263   2.736   0.844   1.904 -0.1073 -0.4429 -0.4436
  369poe     o2 2264   2.625   0.929   1.897  0.0784 -0.1697 -0.0995
  369poe    c23 2265   2.535   0.881   1.994 -0.3509  0.5756 -0.1217
  369poe    c23 2266   2.453   1.007   2.029 -0.6022  0.4688 -0.3267
  369poe     o2 2267   2.538   1.118   2.045 -0.0173  0.0166 -0.2578
  369poe    c31 2268   2.473   1.229   2.104 -0.1404 -0.2472  0.1015
  370poe    c31 2269   4.962   5.027   2.031 -0.6344  0.4598  0.4971
  370poe     o2 2270   4.942   5.099   1.912  0.4440  1.0222  0.6441
  370poe    c23 2271   5.066   5.148   1.867  0.4698  0.5970  0.2431
  370poe    c23 2272   5.050   5.179   1.717  0.4147  0.9775  0.3258
  370poe     o2 2273   4.916   5.219   1.696  0.0684 -0.1531  0.3119
  370poe    c23 2274   4.875   5.193   1.564 -0.2372 -0.1540  0.4067
  370poe    c23 2275   4.724   5.226   1.561 -0.2236 -0.0946  0.3901
  370poe     o2 2276   4.686   5.154   1.676 -0.0495 -0.4725  0.2146
  370poe    c23 2277   4.546   5.152   1.694 -0.1493 -0.4892 -0.5608
  370poe    c23 2278   4.531   5.053   1.810 -0.0512  0.5563  0.3559
  370poe     o2 2279   4.633   5.081   1.904  0.8559 -0.4454 -0.3103
  370poe    c31 2280   4.597   5.005   2.017  0.6199  0.1359  0.0079
  371poe    c31 2281   1.545   5.031   3.462 -0.0071 -0.2591 -0.8103
  371poe     o2 2282   1.685   5.012   3.454  0.1458  0.5514 -0.2078
  371poe    c23 2283   1.713   4.875   3.441  0.2849  0.5736 -0.1430
  371poe    c23 2284   1.859   4.837   3.472  0.1188  0.0124 -0.0311
  371poe     o2 2285   1.909   4.888   3.593  0.2908 -0.2587  0.0142
  371poe    c23 2286   2.032   4.821   3.606  0.4949  0.0917 -0.0863
  371poe    c23 2287   2.101   4.882   3.729 -0.2249 -0.0494  0.3974
  371poe     o2 2288   2.073   5.020   3.720  0.4946  0.1047  0.4229
  371poe    c23 2289   2.119   5.085   3.836  0.8386  0.3670  0.1423
  371poe    c23 2290   2.052   5.223   3.835  0.0561 -0.0074  0.5437
  371poe     o2 2291   1.914   5.195   3.820  0.0834 -0.2240  0.6858
  371poe    c31 2292   1.834   5.304   3.861 -0.0166 -0.1399  0.2767
  372poe    c31 2293   3.686   0.302   0.529  0.1771 -0.5833  0.2132
  372poe     o2 2294   3.656   0.176   0.585  0.0465 -0.4752  0.3890
  372poe    c23 2295   3.765   0.092   0.552  0.4302  0.1169  0.1410
  372poe    c23 2296   3.706  -0.044   0.593  0.2737  0.3096  0.5648
  372poe     o2 2297   3.643  -0.026   0.718 -0.7676  0.6469  0.0027
  372poe    c23 2298   3.529  -0.107   0.734 -0.1625 -0.2917 -0.2993
  372poe    c23 2299   3.405  -0.017   0.717  0.2377  0.3046 -0.1098
  372poe     o2 2300   3.422   0.099   0.795 -0.0427  0.0383  0.3572
  372poe    c23 2301   3.327   0.194   0.752 -0.3738 -0.2360  0.4749
  372poe    c23 2302   3.383   0.331   0.795  0.0414 -0.2452 -0.0246
  372poe     o2 2303   3.524   0.334   0.785  0.0099  0.3098 -0.3463
  372poe    c31 2304   3.563   0.442   0.867  0.1360  0.0587 -0.0736
  373poe    c31 2305   4.613   0.807   3.499 -0.2304  0.3959  0.4033
  373poe     o2 2306   4.695   0.861   3.601  0.3830 -0.2009  0.2325
  373poe    c23 2307   4.832   0.831   3.583  0.4070 -0.0546  0.1703
  373poe    c23 2308   4.899   0.922   3.688  0.6349 -0.3896  0.3130
  373poe     o2 2309   4.834   0.913   3.813 -0.0780  1.1446  0.0734
  373poe    c23 2310   4.903   0.988   3.909  0.4980  0.2897  0.3406
  373poe    c23 2311   4.836   0.976   4.048  0.0144 -0.8038  0.0255
  373poe     o2 2312   4.697   0.965   4.029 -0.0669 -0.1524  0.2121
  373poe    c23 2313   4.635   1.090   4.009  0.3357  0.0109 -0.0202
  373poe    c23 2314   4.505   1.060   3.933  0.2386  0.0053  0.1489
  373poe     o2 2315   4.546   1.021   3.804 -0.5937 -0.5518  0.0419
  373poe    c31 2316   4.451   1.074   3.715 -0.1295  0.4676  0.1398
  374poe    c31 2317   5.350   6.713   6.565 -0.1878 -0.4505  0.3133
  374poe     o2 2318   5.339   6.725   6.425  0.0244 -0.1139  0.3254
  374poe    c23 2319   5.363   6.599   6.366 -0.2441  0.1948 -0.4502
  374poe    c23 2320   5.491   6.587   6.281 -0.5266 -0.7219 -0.7576
  374poe     o2 2321   5.484   6.698   6.194  0.0875 -0.0958 -0.0247
  374poe    c23 2322   5.553   6.701   6.071 -0.3361 -0.8743 -0.2866
  374poe    c23 2323   5.484   6.811   5.988  0.4102 -0.2311 -0.0632
  374poe     o2 2324   5.438   6.918   6.066  0.2880 -0.0553 -0.3750
  374poe    c23 2325   5.312   6.957   6.016  0.1836  0.8459  0.5359
  374poe    c23 2326   5.208   6.978   6.128 -0.0852  0.2383  0.4062
  374poe     o2 2327   5.212   6.874   6.223  0.1822  0.0345  0.1757
  374poe    c31 2328   5.100   6.883   6.309  0.0476 -0.0097  0.0057
  375poe    c31 2329   1.784   2.251   3.986  0.5986 -0.7206  0.1963
  375poe     o2 2330   1.728   2.267   4.114  0.1992  0.6329 -0.1379
  375poe    c23 2331   1.765   2.391   4.171  0.7167  0.2502  0.3766
  375poe    c23 2332   1.673   2.440   4.284  0.1036 -0.0154 -0.0006
  375poe     o2 2333   1.671   2.348   4.391 -0.1435  0.2844  0.2542
  375poe    c23 2334   1.610   2.404   4.505 -0.0851  0.2716  0.2922
  375poe    c23 2335   1.600   2.296   4.614 -0.8795 -0.0236 -0.0637
  375poe     o2 2336   1.721   2.229   4.640 -0.7735 -0.0168 -0.5375
  375poe    c23 2337   1.722   2.163   4.765  0.2574  0.1828 -0.4261
  375poe    c23 2338   1.862   2.101   4.779 -0.0713 -0.4443  0.1412
  375poe     o2 2339   1.858   2.018   4.664 -0.5476  0.2111 -0.3262
  375poe    c31 2340   1.892   1.890   4.714  0.6190  0.4986 -0.3430
  376poe    c31 2341   4.466   1.681   0.439 -0.2511 -0.2766 -0.2314
  376poe     o2 2342   4.459   1.779   0.338  0.4144 -0.1499 -0.1616
  376poe    c23 2343   4.586   1.839   0.336  0.6776 -0.6928 -0.1216
  376poe    c23 2344   4.587   1.985   0.285 -0.1242 -0.4516  0.5427
  376poe     o2 2345   4.534   2.091   0.362 -0.0128 -0.1553  0.2160
  376poe    c23 2346   4.400   2.070   0.402  0.0463 -0.5219  0.2324
  376poe    c23 2347   4.342   2.200   0.462 -0.3228 -0.4025 -0.3756
  376poe     o2 2348   4.385   2.304   0.378  0.2217 -0.3804 -0.0717
  376poe    c23 2349   4.338   2.435   0.401  0.0812 -0.4042 -0.2241
  376poe    c23 2350   4.397   2.518   0.285  0.3496 -0.0368  0.1728
  376poe     o2 2351   4.537   2.501   0.283  0.4054  0.4225  0.1813
  376poe    c31 2352   4.597   2.608   0.213  0.2569  0.1003 -0.4458
  377poe    c31 2353   6.072   6.000   4.639  0.1079  0.0236 -0.7217
  377poe     o2 2354   6.177   5.932   4.705  0.0245  0.6280  0.0526
  377poe    c23 2355   6.223   6.004   4.817  0.6762 -0.1947  0.3214
  377poe    c23 2356   6.333   5.922   4.888  0.8011 -0.2503  0.0677
  377poe     o2 2357   6.279   5.792   4.893 -0.2078  0.1524 -0.0426
  377poe    c23 2358   6.377   5.693   4.914 -0.2579  0.0453 -0.3080
  377poe    c23 2359   6.305   5.569   4.858  0.1325 -0.3247  0.0028
  377poe     o2 2360   6.270   5.587   4.722 -0.5823  0.2428  0.2574
  377poe    c23 2361   6.212   5.471   4.667 -0.4359 -0.1488  0.9106
  377poe    c23 2362   6.148   5.511   4.533  0.2310 -0.2780  0.5465
  377poe     o2 2363   6.088   5.636   4.561 -0.7212 -0.5828 -0.0825
  377poe    c31 2364   6.008   5.671   4.450 -0.4069  0.2742 -0.0449
  378poe    c31 2365   3.144   1.685   3.305 -0.0350  0.3843  0.6843
  378poe     o2 2366   3.010   1.678   3.261  0.3104  0.4821 -0.4279
  378poe    c23 2367   3.018   1.588   3.153 -0.0151  0.1961 -0.2178
  378poe    c23 2368   2.879   1.523   3.144 -0.1003  0.2292  0.8133
  378poe     o2 2369   2.795   1.635   3.131  0.1099  0.2839 -0.0938
  378poe    c23 2370   2.656   1.628   3.108 -0.0387  0.0061  0.8591
  378poe    c23 2371   2.618   1.777   3.092  0.4044  0.0167 -0.1686
  378poe     o2 2372   2.689   1.844   3.194 -0.0688  0.3143 -0.0360
  378poe    c23 2373   2.675   1.983   3.176  0.3525  0.3736  0.0975
  378poe    c23 2374   2.790   2.044   3.259  0.3425  0.3975  0.0944
  378poe     o2 2375   2.903   1.960   3.254  0.1190  0.1204 -0.3360
  378poe    c31 2376   3.029   2.022   3.242  0.3508 -0.3141 -0.1346
  379poe    c31 2377   3.823   1.333   0.525 -0.3640  0.2019 -0.2258
  379poe     o2 2378   3.764   1.446   0.465 -0.0604  0.3869 -0.1772
  379poe    c23 2379   3.624   1.425   0.459  0.0125 -0.1353 -0.1227
  379poe    c23 2380   3.557   1.564   0.454  0.5275  0.1311  0.2321
  379poe     o2 2381   3.627   1.634   0.354 -0.0186 -0.1515 -0.3564
  379poe    c23 2382   3.600   1.772   0.350 -0.1281 -0.1737 -0.3791
  379poe    c23 2383   3.728   1.830   0.286  0.0066 -0.0527 -0.0009
  379poe     o2 2384   3.828   1.778   0.370 -0.0575 -0.2735 -0.0596
  379poe    c23 2385   3.951   1.843   0.342 -0.0871 -0.0804  0.2518
  379poe    c23 2386   4.055   1.734   0.371  0.1504  0.0663 -0.0543
  379poe     o2 2387   3.991   1.610   0.348  0.0430  0.0149  0.5219
  379poe    c31 2388   4.087   1.507   0.350  0.0957  0.0661  0.6993
  380poe    c31 2389   1.452   2.711   6.567  0.2679 -0.2349 -0.2010
  380poe     o2 2390   1.486   2.781   6.450  0.1753  0.1266 -0.0128
  380poe    c23 2391   1.388   2.840   6.368  0.4226 -0.5983 -0.8411
  380poe    c23 2392   1.459   2.906   6.248  0.0005  0.2122 -0.6476
  380poe     o2 2393   1.547   2.812   6.190 -0.1915 -0.4156  0.0603
  380poe    c23 2394   1.648   2.872   6.112  0.3969 -0.5800  0.6875
  380poe    c23 2395   1.766   2.904   6.205  0.1412  0.4433  0.6812
  380poe     o2 2396   1.784   2.792   6.289 -0.0153 -0.0322  0.0855
  380poe    c23 2397   1.858   2.825   6.404  0.0633  0.1602 -0.0200
  380poe    c23 2398   1.882   2.704   6.497  0.0813  0.4341  0.3352
  380poe     o2 2399   1.757   2.640   6.510  0.3683 -0.2697 -0.2990
  380poe    c31 2400   1.745   2.546   6.615 -0.3058 -0.3058 -0.4054
  381poe    c31 2401   6.398   3.897   6.069 -0.3149  0.2282 -0.2695
  381poe     o2 2402   6.380   3.796   5.973 -0.3630  0.0797 -0.1045
  381poe    c23 2403   6.455   3.801   5.853 -0.1692  0.2486  0.0234
  381poe    c23 2404   6.417   3.677   5.771  0.0578 -0.0903  0.4248
  381poe     o2 2405   6.301   3.627   5.833 -0.5194  0.3450 -0.2861
  381poe    c23 2406   6.267   3.502   5.775  0.1285  0.2516 -0.4734
  381poe    c23 2407   6.129   3.474   5.839  0.3746  0.0712 -0.0148
  381poe     o2 2408   6.143   3.520   5.971 -0.1000  0.5190 -0.1195
  381poe    c23 2409   6.026   3.515   6.050  0.0989 -0.4269  0.1294
  381poe    c23 2410   6.075   3.561   6.189 -0.0345 -0.4949  0.1997
  381poe     o2 2411   6.159   3.672   6.170  0.2399 -0.6762  0.3417
  381poe    c31 2412   6.160   3.744   6.292 -0.2337  0.1201 -0.1130
  382poe    c31 2413   0.224   5.812   2.537  0.4864  0.1076 -1.5683
  382poe     o2 2414   0.339   5.733   2.516  0.4337 -0.4067 -0.0234
  382poe    c23 2415   0.308   5.596   2.529 -0.5043 -0.1746  0.2672
  382poe    c23 2416   0.421   5.522   2.455 -0.3314 -0.2517  0.6085
  382poe     o2 2417   0.545   5.580   2.489 -0.1080 -0.1128 -0.4176
  382poe    c23 2418   0.653   5.490   2.474  0.3894  0.4170 -0.0265
  382poe    c23 2419   0.783   5.573   2.475  0.4964  0.2533 -0.3151
  382poe     o2 2420   0.781   5.674   2.573 -0.0213  0.0889 -0.1539
  382poe    c23 2421   0.842   5.785   2.509  0.8541  0.0163  0.5382
  382poe    c23 2422   0.794   5.916   2.573 -0.0390 -0.1445  0.2162
  382poe     o2 2423   0.654   5.918   2.558 -0.0957 -0.1499  0.7302
  382poe    c31 2424   0.618   6.052   2.534 -0.0900 -0.2594  0.1117
  383poe    c31 2425   6.384   0.334   0.135 -0.4785  0.6806 -0.8540
  383poe     o2 2426   6.284   0.383   0.221 -0.2993  0.1281 -0.3228
  383poe    c23 2427   6.301   0.334   0.352 -0.5823 -0.1287 -0.3811
  383poe    c23 2428   6.172   0.325   0.436 -0.4298 -0.3715 -0.1705
  383poe     o2 2429   6.104   0.449   0.442  0.1981 -0.0302 -0.0630
  383poe    c23 2430   6.007   0.443   0.544  0.6269 -0.2766  0.3372
  383poe    c23 2431   5.937   0.579   0.559 -0.0514 -0.5184 -0.5693
  383poe     o2 2432   5.906   0.638   0.434  0.0031 -0.0024 -0.3426
  383poe    c23 2433   5.877   0.776   0.446  0.0919 -0.0189  0.0757
  383poe    c23 2434   5.826   0.812   0.306  0.0199 -0.9925 -0.1603
  383poe     o2 2435   5.882   0.748   0.194  0.2515  0.1535 -0.7238
  383poe    c31 2436   5.871   0.823   0.075 -0.5751  0.1226 -0.6719
  384poe    c31 2437   5.665   4.593   0.804 -0.1143  0.2721 -0.0743
  384poe     o2 2438   5.614   4.663   0.692 -0.1283 -0.1075 -0.3057
  384poe    c23 2439   5.681   4.777   0.645 -0.2639  0.1066  0.0155
  384poe    c23 2440   5.603   4.820   0.519  0.3004  0.0463 -0.3582
  384poe     o2 2441   5.471   4.850   0.558  0.1853 -0.3901 -0.4065
  384poe    c23 2442   5.417   4.912   0.443  0.2228  0.1991 -0.1071
  384poe    c23 2443   5.264   4.896   0.441  0.2223  0.0861  0.4576
  384poe     o2 2444   5.215   4.905   0.573  0.9834  0.2041  0.7363
  384poe    c23 2445   5.078   4.870   0.573  0.9085  0.4752  0.0693
  384poe    c23 2446   5.045   4.862   0.723  0.3072 -0.7651 -0.1214
  384poe     o2 2447   5.161   4.824   0.793  0.2883 -0.5453  0.0317
  384poe    c31 2448   5.132   4.807   0.930 -0.4496  0.5635  0.0273
  385poe    c31 2449   1.866   2.121   0.421 -0.0579 -0.4337 -0.1689
  385poe     o2 2450   1.998   2.112   0.470 -0.1488 -0.2485  0.1112
  385poe    c23 2451   2.020   2.170   0.597  0.5415  0.8183 -0.4752
  385poe    c23 2452   2.161   2.178   0.658  0.7299  0.2383 -0.8281
  385poe     o2 2453   2.225   2.053   0.644  0.3699 -0.0161 -0.2545
  385poe    c23 2454   2.358   2.068   0.689  0.1894  0.0902  0.2487
  385poe    c23 2455   2.423   1.928   0.694 -0.4046 -0.2082 -0.1686
  385poe     o2 2456   2.422   1.892   0.558  0.6312 -0.1164 -0.2157
  385poe    c23 2457   2.482   1.769   0.526  0.3969 -0.1494 -0.5320
  385poe    c23 2458   2.443   1.738   0.380  0.0739 -0.4956 -0.3752
  385poe     o2 2459   2.312   1.783   0.356 -0.0649 -0.5405  0.2780
  385poe    c31 2460   2.261   1.702   0.253 -0.4937  0.0699  0.0057
  386poe    c31 2461   2.441   0.504   0.478  0.6023 -0.1624  0.5780
  386poe     o2 2462   2.434   0.566   0.604  0.1715  0.2376  0.3593
  386poe    c23 2463   2.559   0.565   0.669  0.5234 -0.0438 -0.3129
  386poe    c23 2464   2.553   0.603   0.818 -0.6339 -0.2354 -0.3055
  386poe     o2 2465   2.507   0.735   0.840  0.0411 -0.1071  0.3791
  386poe    c23 2466   2.600   0.840   0.824  0.2769 -0.2748  0.6309
  386poe    c23 2467   2.523   0.969   0.858 -0.2305 -0.3775 -0.0944
  386poe     o2 2468   2.398   0.955   0.794 -0.0509  0.0654 -0.5468
  386poe    c23 2469   2.328   1.076   0.807 -0.0576 -0.0595  0.6092
  386poe    c23 2470   2.175   1.054   0.808 -0.0425 -0.1683  0.5367
  386poe     o2 2471   2.149   0.929   0.868 -0.0789 -0.3639  0.1188
  386poe    c31 2472   2.010   0.935   0.893 -0.1216  0.4486 -0.2556
  387poe    c31 2473   2.633   3.659   3.214  0.0913 -0.3511  0.5098
  387poe     o2 2474   2.513   3.708   3.158  0.2558 -0.0458  0.4171
  387poe    c23 2475   2.501   3.672   3.023  0.2687  0.2954  0.3246
  387poe    c23 2476   2.371   3.739   2.976  0.1520  0.0301  0.2662
  387poe     o2 2477   2.364   3.868   3.031  0.3751  0.0416  0.2704
  387poe    c23 2478   2.244   3.932   2.992  0.5368 -0.0972 -0.4602
  387poe    c23 2479   2.239   4.061   3.076  0.3099 -0.2530 -0.2316
  387poe     o2 2480   2.272   4.030   3.210  0.6647 -0.4564 -0.3645
  387poe    c23 2481   2.234   4.135   3.294  0.3858 -0.8468  0.0003
  387poe    c23 2482   2.269   4.144   3.444  0.2814 -0.1933 -0.0113
  387poe     o2 2483   2.205   4.052   3.529  0.0044  0.2631  0.2845
  387poe    c31 2484   2.256   4.043   3.660  0.1854  0.2645  0.2139
  388poe    c31 2485   1.292   2.211   0.900  0.3730  0.8088 -0.0442
  388poe     o2 2486   1.396   2.117   0.914 -0.1741  0.1633 -0.2496
  388poe    c23 2487   1.463   2.084   0.795  0.1082 -0.0471 -0.0366
  388poe    c23 2488   1.571   1.980   0.827 -0.3240 -0.5920 -0.3170
  388poe     o2 2489   1.521   1.887   0.921 -0.3446 -0.2060  0.0547
  388poe    c23 2490   1.620   1.799   0.969 -0.3842 -0.4651 -0.3379
  388poe    c23 2491   1.563   1.681   1.050 -0.0902 -0.0109  0.5393
  388poe     o2 2492   1.468   1.743   1.134 -0.0006  0.5714  0.2149
  388poe    c23 2493   1.456   1.677   1.258 -0.6110 -0.0629 -0.1786
  388poe    c23 2494   1.332   1.740   1.326 -0.6678 -0.6362  0.2564
  388poe     o2 2495   1.212   1.730   1.253 -0.4256 -0.2593 -0.2022
  388poe    c31 2496   1.154   1.601   1.253 -0.4525 -0.2478 -0.4234
  389poe    c31 2497   2.778   5.124   6.145  0.1667 -0.2121 -0.2476
  389poe     o2 2498   2.841   5.247   6.122 -0.6468  0.2403 -0.1153
  389poe    c23 2499   2.844   5.306   6.250  0.4126  0.1875 -0.0995
  389poe    c23 2500   2.907   5.446   6.245  0.1684  0.2875 -0.4668
  389poe     o2 2501   3.005   5.445   6.143  0.4231 -0.1420 -0.2245
  389poe    c23 2502   3.035   5.574   6.094 -0.3352  0.1224 -0.0173
  389poe    c23 2503   3.158   5.547   6.005 -0.4112  0.1374 -0.1263
  389poe     o2 2504   3.121   5.431   5.933 -0.7219  0.1297  0.0420
  389poe    c23 2505   3.233   5.345   5.932 -0.3625  0.5914  0.3248
  389poe    c23 2506   3.192   5.213   5.864 -0.0166  0.5371  0.2212
  389poe     o2 2507   3.069   5.184   5.926  0.1484  0.0625  0.3325
  389poe    c31 2508   3.004   5.070   5.876 -0.4900  0.3874  0.4111
  390poe    c31 2509   0.699   4.272   4.507 -0.4349 -0.0335  0.5316
  390poe     o2 2510   0.784   4.179   4.571 -0.0033 -0.2694 -0.3690
  390poe    c23 2511   0.753   4.054   4.512 -0.6568 -0.1915 -0.1880
  390poe    c23 2512   0.826   3.939   4.583  0.4069  0.5792 -0.0101
  390poe     o2 2513   0.964   3.944   4.555  0.3818  0.3580 -0.1758
  390poe    c23 2514   1.027   3.854   4.643  0.0841  0.5008  0.1837
  390poe    c23 2515   1.180   3.872   4.637  0.1184  0.1114 -0.1276
  390poe     o2 2516   1.232   3.990   4.694 -0.0227  0.2007 -0.1819
  390poe    c23 2517   1.373   3.978   4.693 -0.0381  0.0233 -0.2942
  390poe    c23 2518   1.417   4.103   4.770 -0.1102  0.0382 -0.2773
  390poe     o2 2519   1.316   4.199   4.748 -0.3862 -0.3023 -0.5051
  390poe    c31 2520   1.347   4.313   4.826 -0.7623 -0.5506  0.0107
  391poe    c31 2521   5.730   1.605   0.820  0.0971  0.3610  0.3706
  391poe     o2 2522   5.767   1.676   0.937  0.1292  0.7567  0.1224
  391poe    c23 2523   5.693   1.629   1.047  0.2829  0.0723 -0.0581
  391poe    c23 2524   5.670   1.737   1.154 -0.1781 -0.2233  0.1433
  391poe     o2 2525   5.798   1.791   1.178 -0.4690  0.3551  0.4413
  391poe    c23 2526   5.816   1.889   1.277  0.3526  0.5038  0.1536
  391poe    c23 2527   5.963   1.906   1.319  0.3475  0.2059  0.2884
  391poe     o2 2528   6.033   1.919   1.198  0.2469  0.5201  0.2640
  391poe    c23 2529   6.167   1.963   1.213  0.2724  0.3792  0.4536
  391poe    c23 2530   6.263   1.959   1.093  0.2188 -0.1521  0.4239
  391poe     o2 2531   6.273   1.827   1.046 -0.1318  0.1359 -0.4875
  391poe    c31 2532   6.363   1.816   0.938  0.3715 -0.0363 -0.0551
  392poe    c31 2533   2.597   4.197   4.696 -0.5969  0.7593 -0.2255
  392poe     o2 2534   2.465   4.161   4.662 -0.5041 -0.1435  0.3367
  392poe    c23 2535   2.398   4.282   4.633 -0.1203 -0.1774 -0.7417
  392poe    c23 2536   2.263   4.232   4.579 -0.3514 -0.6208  0.2262
  392poe     o2 2537   2.292   4.115   4.507  0.6174 -0.3662  0.1934
  392poe    c23 2538   2.173   4.054   4.462  0.4744  0.0605 -0.0166
  392poe    c23 2539   2.199   3.903   4.447  0.2448  0.0425 -0.2424
  392poe     o2 2540   2.289   3.880   4.554 -0.2694 -0.0329  0.1786
  392poe    c23 2541   2.304   3.744   4.587 -0.3503 -0.1020 -0.0600
  392poe    c23 2542   2.394   3.755   4.712 -0.8159  0.1729  0.2543
  392poe     o2 2543   2.493   3.852   4.684 -0.2601 -0.5521 -0.3420
  392poe    c31 2544   2.611   3.844   4.761 -0.4070  0.1134 -0.0445
  393poe    c31 2545   5.970   2.229   3.700 -0.4026  0.2814  0.7863
  393poe     o2 2546   5.990   2.091   3.681  0.4450  0.5553 -0.4660
  393poe    c23 2547   6.049   2.038   3.798 -0.4349  0.0284 -0.2510
  393poe    c23 2548   6.107   1.901   3.759 -0.3922 -0.1773  0.5218
  393poe     o2 2549   6.007   1.837   3.683 -0.0577  0.3417 -0.3632
  393poe    c23 2550   6.051   1.725   3.608  0.2999  0.5758 -0.5070
  393poe    c23 2551   5.950   1.703   3.495 -0.3652 -0.1887  0.2180
  393poe     o2 2552   5.948   1.833   3.438  0.1744 -0.3004 -0.0587
  393poe    c23 2553   5.875   1.838   3.318 -0.2859 -0.4215  0.2142
  393poe    c23 2554   5.888   1.987   3.279  0.1441 -0.5131  0.0044
  393poe     o2 2555   5.904   2.070   3.391 -0.3658 -0.1329 -0.1976
  393poe    c31 2556   5.902   2.208   3.361  0.8337  0.1440  0.8650
  394poe    c31 2557   1.918   5.900   6.674 -0.0978  0.2406  0.1032
  394poe     o2 2558   1.912   5.798   6.771  0.4193 -0.1592 -0.2809
  394poe    c23 2559   2.042   5.768   6.816  0.5197  0.3876 -0.2064
  394poe    c23 2560   2.050   5.646   6.909 -0.1753  0.3966 -0.1287
  394poe     o2 2561   1.942   5.653   7.000 -0.1766 -0.0943 -0.0904
  394poe    c23 2562   1.967   5.721   7.120 -0.7972 -0.3781  0.1992
  394poe    c23 2563   1.828   5.775   7.163 -1.0209 -0.7835 -0.0122
  394poe     o2 2564   1.770   5.848   7.057  0.1757 -0.7415 -0.6585
  394poe    c23 2565   1.636   5.877   7.089  0.3874 -0.0365 -0.3851
  394poe    c23 2566   1.585   5.929   6.954 -0.0519 -0.5137 -0.4063
  394poe     o2 2567   1.641   5.850   6.852  0.6072  0.0336 -0.4705
  394poe    c31 2568   1.587   5.896   6.730  0.1292  0.7191 -0.0059
  395poe    c31 2569   5.037   0.338   5.109 -0.1222 -0.1708  0.2486
  395poe     o2 2570   4.903   0.303   5.085 -0.1799  0.1115  0.1488
  395poe    c23 2571   4.813   0.397   5.140 -0.1246  0.4975 -0.4178
  395poe    c23 2572   4.722   0.443   5.024  0.0489  0.0025 -0.7572
  395poe     o2 2573   4.630   0.343   4.986  0.0733 -0.3998  0.2087
  395poe    c23 2574   4.501   0.400   4.988  0.2466  0.0263 -0.3380
  395poe    c23 2575   4.405   0.281   4.973 -0.1263  0.2885 -0.0423
  395poe     o2 2576   4.438   0.198   4.864 -0.1638  0.0639  0.1167
  395poe    c23 2577   4.356   0.084   4.876  0.0073 -0.0844 -0.0980
  395poe    c23 2578   4.418  -0.022   4.784  0.2964  0.2064 -0.2396
  395poe     o2 2579   4.558  -0.010   4.789  0.2946  0.1432 -0.0509
  395poe    c31 2580   4.612  -0.083   4.680 -0.0004 -0.4653  0.2027
  396poe    c31 2581   5.083   2.828   0.431 -0.4057 -0.0001  0.3824
  396poe     o2 2582   5.150   2.705   0.414 -0.1641  0.2221 -0.2988
  396poe    c23 2583   5.134   2.652   0.284 -0.0510 -0.3744 -0.0676
  396poe    c23 2584   5.284   2.617   0.270  0.0294 -0.0973  0.0995
  396poe     o2 2585   5.319   2.526   0.372 -0.4107 -0.3814  0.0040
  396poe    c23 2586   5.449   2.471   0.378 -0.4377 -0.4202  0.2399
  396poe    c23 2587   5.437   2.393   0.510 -0.1805 -0.7970  0.0412
  396poe     o2 2588   5.359   2.473   0.596  0.0487 -0.0904 -0.4001
  396poe    c23 2589   5.295   2.399   0.698 -0.6457 -0.0177 -0.7722
  396poe    c23 2590   5.205   2.498   0.774 -0.4506 -0.1016 -0.4328
  396poe     o2 2591   5.129   2.553   0.670 -0.3942 -0.1898 -0.5201
  396poe    c31 2592   5.019   2.609   0.739 -0.2358 -0.0368 -0.3926
  397poe    c31 2593   4.002   3.774   3.345  0.2748 -0.6833  0.1011
  397poe     o2 2594   3.963   3.645   3.302 -0.6460 -0.4408  0.1771
  397poe    c23 2595   3.916   3.651   3.169 -0.6279  0.3905  0.1982
  397poe    c23 2596   3.926   3.508   3.113 -0.2658  0.3718  0.3069
  397poe     o2 2597   3.882   3.420   3.214  0.3741 -0.2888  0.0198
  397poe    c23 2598   3.864   3.288   3.167  0.8835 -0.2630 -0.2511
  397poe    c23 2599   3.824   3.207   3.291  0.4630  0.3423  0.0148
  397poe     o2 2600   3.924   3.235   3.386  0.2562  0.6523  0.1416
  397poe    c23 2601   3.899   3.200   3.520 -0.4659  0.5537 -0.0143
  397poe    c23 2602   3.998   3.273   3.613 -0.3455  0.3473  0.0200
  397poe     o2 2603   3.987   3.413   3.623 -0.6080  0.3596 -0.3982
  397poe    c31 2604   4.100   3.474   3.682 -0.7888  0.7197 -0.4159
  398poe    c31 2605   2.925   6.053   5.026 -0.5130  0.1455  0.0009
  398poe     o2 2606   2.993   5.933   5.051  0.0246  0.4203 -0.1379
  398poe    c23 2607   3.106   5.919   4.968 -0.0937  0.0086 -0.2294
  398poe    c23 2608   3.230   5.877   5.050 -0.0991  0.4882  0.0246
  398poe     o2 2609   3.180   5.765   5.120  0.2318  0.1172 -0.3305
  398poe    c23 2610   3.261   5.714   5.223 -0.9873  0.7947  1.0036
  398poe    c23 2611   3.200   5.586   5.283  0.0634 -0.0492  0.3355
  398poe     o2 2612   3.082   5.648   5.331  0.0153  0.0129  0.1370
  398poe    c23 2613   2.967   5.566   5.330 -0.4192  0.6122  0.4418
  398poe    c23 2614   2.839   5.650   5.344 -0.7410  0.1276  0.4339
  398poe     o2 2615   2.836   5.749   5.244 -0.0100 -0.2735  0.0046
  398poe    c31 2616   2.708   5.808   5.237  0.1326  0.0662  0.2468
  399poe    c31 2617   2.304   5.462   2.161  0.4105 -0.2591 -0.2036
  399poe     o2 2618   2.362   5.552   2.069  0.3803  0.1547  0.1773
  399poe    c23 2619   2.287   5.671   2.069  0.2248  0.0575  0.0735
  399poe    c23 2620   2.377   5.775   2.139  0.1665 -0.2252  0.5747
  399poe     o2 2621   2.510   5.753   2.099  0.3493  0.4842  0.7836
  399poe    c23 2622   2.541   5.830   1.985 -0.0788 -0.1249  0.2495
  399poe    c23 2623   2.643   5.760   1.893 -0.2194 -0.3622  0.2728
  399poe     o2 2624   2.581   5.637   1.865 -0.1597 -0.3231 -0.0408
  399poe    c23 2625   2.668   5.574   1.774  0.1345 -0.1926  0.1503
  399poe    c23 2626   2.595   5.440   1.753 -0.0328 -0.0617 -0.0952
  399poe     o2 2627   2.546   5.399   1.878  0.3219 -0.1027  0.0292
  399poe    c31 2628   2.451   5.297   1.857  0.2706 -0.0141 -0.1655
  400poe    c31 2629   5.479   1.652   4.111 -0.1473 -0.0991  0.2763
  400poe     o2 2630   5.339   1.638   4.119 -0.1134 -0.4518  0.2400
  400poe    c23 2631   5.285   1.690   4.000 -0.3435 -0.2040  0.4505
  400poe    c23 2632   5.131   1.686   4.009 -0.3634 -0.1329  0.1523
  400poe     o2 2633   5.105   1.554   4.050  0.2896 -0.2326  0.2566
  400poe    c23 2634   4.967   1.532   4.069  0.1565  0.5715  0.2282
  400poe    c23 2635   4.958   1.418   4.172 -0.6415  0.5326  0.1194
  400poe     o2 2636   5.050   1.449   4.274 -0.0400  0.7503 -0.4861
  400poe    c23 2637   5.006   1.535   4.376 -0.0300 -0.0225  0.1846
  400poe    c23 2638   5.131   1.561   4.462  0.1941 -0.2010 -0.0860
  400poe     o2 2639   5.240   1.573   4.373  0.0808  0.3407 -0.1517
  400poe    c31 2640   5.358   1.607   4.442  0.1861  0.3014 -0.3125
  401poe    c31 2641   3.350   5.727   4.226  0.3584 -0.0908  0.0799
  401poe     o2 2642   3.227   5.788   4.194  0.4722  0.0743 -0.0460
  401poe    c23 2643   3.220   5.922   4.236  0.2029  0.0265  0.0635
  401poe    c23 2644   3.072   5.957   4.211  0.1769 -0.0711  0.0796
  401poe     o2 2645   2.993   5.841   4.213 -0.0461  0.0833  0.3511
  401poe    c23 2646   2.867   5.873   4.158  0.1662  0.2782 -0.0287
  401poe    c23 2647   2.793   5.738   4.157 -0.6446  0.7161 -1.0236
  401poe     o2 2648   2.881   5.637   4.112 -0.4633  0.4421 -0.0729
  401poe    c23 2649   2.813   5.536   4.042  0.2929 -0.0930 -0.0384
  401poe    c23 2650   2.791   5.419   4.140  0.3162 -0.3866 -0.3820
  401poe     o2 2651   2.909   5.361   4.192  0.2847  0.0128  0.1379
  401poe    c31 2652   2.896   5.255   4.284  0.0622  0.0477  0.1480
  402poe    c31 2653   3.656   5.664   0.783 -0.0403 -0.6710 -0.3935
  402poe     o2 2654   3.666   5.528   0.819 -0.2882 -0.5096  0.2938
  402poe    c23 2655   3.552   5.452   0.787 -0.4409 -0.2459  0.2075
  402poe    c23 2656   3.590   5.303   0.800 -0.2419 -0.1672  0.5112
  402poe     o2 2657   3.673   5.289   0.914  0.1288  0.0269  0.2696
  402poe    c23 2658   3.714   5.155   0.934  0.4106 -0.0899 -1.0074
  402poe    c23 2659   3.809   5.166   1.054 -1.1305  0.2441  0.2103
  402poe     o2 2660   3.892   5.277   1.030 -0.0265 -0.6186 -0.0017
  402poe    c23 2661   3.933   5.328   1.155  0.1894 -0.5702 -0.0910
  402poe    c23 2662   3.950   5.479   1.130 -0.2110 -0.5237 -0.0888
  402poe     o2 2663   3.836   5.531   1.065  0.2162 -0.1211 -0.5258
  402poe    c31 2664   3.808   5.666   1.094 -0.2984 -0.3191 -0.0883
  403poe    c31 2665   5.079   2.009   3.612 -0.6120  0.4447  0.3201
  403poe     o2 2666   5.076   2.049   3.477  0.0581 -0.3231  0.0710
  403poe    c23 2667   5.022   1.942   3.402 -0.4316 -0.3740  0.4927
  403poe    c23 2668   4.970   2.007   3.273  0.7124 -0.4054  0.0059
  403poe     o2 2669   5.064   2.105   3.234  0.0374  0.3641  0.2954
  403poe    c23 2670   5.035   2.156   3.106  0.4463  0.0449  0.0741
  403poe    c23 2671   5.168   2.232   3.087  0.4512 -0.0049 -0.0917
  403poe     o2 2672   5.213   2.288   3.208  0.3782  0.4165 -0.2577
  403poe    c23 2673   5.354   2.295   3.213  0.4034 -0.1556 -0.1047
  403poe    c23 2674   5.372   2.333   3.361 -0.2878 -0.1172 -0.0275
  403poe     o2 2675   5.312   2.230   3.435  0.0289 -0.2894 -0.0082
  403poe    c31 2676   5.336   2.257   3.571 -0.1602 -0.1020 -0.0106
  404poe    c31 2677   6.620   6.078   6.123  1.1612 -0.3133 -0.3251
  404poe     o2 2678   6.559   6.136   6.010 -0.1105 -0.7923  0.0936
  404poe    c23 2679   6.433   6.194   6.033  0.3723  0.2567  0.1297
  404poe    c23 2680   6.396   6.271   5.905 -0.2258 -0.1656  0.0427
  404poe     o2 2681   6.424   6.192   5.792  0.0929  0.0390 -0.0221
  404poe    c23 2682   6.417   6.257   5.667  0.0636 -0.3193 -0.2067
  404poe    c23 2683   6.473   6.153   5.568  0.4561 -0.0108 -0.3108
  404poe     o2 2684   6.582   6.105   5.643  0.2338 -0.4267 -0.2496
  404poe    c23 2685   6.646   5.997   5.578  0.2255 -0.4130 -0.2811
  404poe    c23 2686   6.760   5.966   5.677 -0.0178 -0.2172  0.0658
  404poe     o2 2687   6.695   5.940   5.799 -0.4143  0.2678 -0.0373
  404poe    c31 2688   6.746   5.816   5.844  0.0847  0.4951  0.0302
  405poe    c31 2689   4.111   4.078   2.992  0.3381 -0.5171 -0.2411
  405poe     o2 2690   4.207   4.175   2.958  0.1634 -0.1024  0.4385
  405poe    c23 2691   4.294   4.122   2.861  0.1158 -0.3554  0.5331
  405poe    c23 2692   4.429   4.183   2.818 -0.1819 -0.0779 -0.0171
  405poe     o2 2693   4.517   4.172   2.927 -0.3051 -0.0238  0.0888
  405poe    c23 2694   4.628   4.253   2.894 -0.3488  0.0474  0.1173
  405poe    c23 2695   4.726   4.242   3.012 -0.3828  0.0439  0.1451
  405poe     o2 2696   4.741   4.105   3.042 -0.0584  0.0924  0.2113
  405poe    c23 2697   4.865   4.086   3.107 -0.0985 -0.1261  0.2253
  405poe    c23 2698   4.888   3.934   3.110 -0.2252 -0.1600 -0.4642
  405poe     o2 2699   4.919   3.889   2.979 -0.0076  0.1966 -0.5360
  405poe    c31 2700   4.952   3.752   2.982  0.1497  0.2433 -0.0401
  406poe    c31 2701   6.772   1.677   6.553 -0.0069  0.1398  0.4135
  406poe     o2 2702   6.841   1.757   6.460  0.1832  0.0146  0.4470
  406poe    c23 2703   6.888   1.679   6.351  0.1258  0.1246  0.3427
  406poe    c23 2704   6.970   1.782   6.271  0.0740 -0.2506 -0.1929
  406poe     o2 2705   6.887   1.896   6.273  0.2701 -0.1109 -0.0014
  406poe    c23 2706   6.946   2.016   6.228 -0.1637  0.3124  0.5439
  406poe    c23 2707   6.997   2.083   6.357  0.2471  0.6059  0.2293
  406poe     o2 2708   6.889   2.094   6.447  0.3043 -0.2990  0.4140
  406poe    c23 2709   6.908   2.141   6.579  0.1787 -0.4546  0.4880
  406poe    c23 2710   6.775   2.107   6.649 -0.0270 -0.2562  0.1946
  406poe     o2 2711   6.743   1.973   6.621 -0.2095 -0.1203 -0.2633
  406poe    c31 2712   6.631   1.935   6.698 -0.3220  0.2372 -0.2476
  407poe    c31 2713   0.015   3.847   4.299  0.0907 -0.0958 -0.3353
  407poe     o2 2714   0.063   3.979   4.312 -0.1817 -0.0313  0.0437
  407poe    c23 2715   0.188   3.992   4.248 -0.0464  0.6789  0.4279
  407poe    c23 2716   0.258   4.115   4.307  0.6572  0.7005 -0.4211
  407poe     o2 2717   0.154   4.210   4.314 -0.2618 -0.3217  0.2544
  407poe    c23 2718   0.196   4.332   4.373 -0.2634 -0.2371  0.0799
  407poe    c23 2719   0.070   4.386   4.442  0.0060  0.1098  0.3002
  407poe     o2 2720  -0.002   4.269   4.473 -0.1575  0.1080 -0.0784
  407poe    c23 2721  -0.128   4.297   4.528  0.0194 -0.0881  0.4326
  407poe    c23 2722  -0.196   4.161   4.550  0.8539 -0.5648  0.0810
  407poe     o2 2723  -0.190   4.086   4.431 -0.0200  0.1224 -0.4034
  407poe    c31 2724  -0.295   3.993   4.423 -0.2046  0.2909  0.0382
  408poe    c31 2725   5.209   5.351   6.505  0.2058  0.3333  0.1507
  408poe     o2 2726   5.255   5.314   6.633  0.5762 -0.0333 -0.0884
  408poe    c23 2727   5.304   5.434   6.689 -0.4208  0.2233  0.2615
  408poe    c23 2728   5.367   5.402   6.825 -0.1963 -0.0623  0.0935
  408poe     o2 2729   5.439   5.282   6.805 -0.5849 -0.3004  0.1164
  408poe    c23 2730   5.544   5.259   6.897 -0.4151 -0.0459 -0.0119
  408poe    c23 2731   5.559   5.106   6.901 -0.0720 -0.0152 -0.1263
  408poe     o2 2732   5.499   5.068   6.779 -0.0299 -0.1952 -0.0918
  408poe    c23 2733   5.449   4.937   6.777 -0.3661 -0.0644 -0.4297
  408poe    c23 2734   5.356   4.920   6.655 -0.3756 -0.5942 -0.3526
  408poe     o2 2735   5.267   5.029   6.652  0.0720 -0.2127 -0.0091
  408poe    c31 2736   5.164   5.013   6.557 -0.1998 -0.5658  0.3351
  409poe    c31 2737   1.672   3.682   5.861 -0.1044 -0.2693  0.0659
  409poe     o2 2738   1.544   3.627   5.883 -0.4704  0.6176  0.1737
  409poe    c23 2739   1.445   3.716   5.929 -0.1327  0.6984  0.7645
  409poe    c23 2740   1.309   3.643   5.930  0.1464  0.1164 -0.6780
  409poe     o2 2741   1.338   3.512   5.974  0.0092  0.0612 -0.7517
  409poe    c23 2742   1.225   3.430   5.952 -0.1660  0.3339 -0.8672
  409poe    c23 2743   1.283   3.291   5.922 -0.1686  0.0396  0.4090
  409poe     o2 2744   1.389   3.318   5.832 -0.7348  0.0851 -0.2516
  409poe    c23 2745   1.447   3.198   5.785 -0.8708 -0.0761 -0.0117
  409poe    c23 2746   1.563   3.236   5.692 -0.2445 -0.4124  0.6291
  409poe     o2 2747   1.623   3.340   5.767 -0.7038  0.3258 -0.0159
  409poe    c31 2748   1.741   3.377   5.699 -0.2629  0.7470  0.9727
  410poe    c31 2749   3.830   5.464   4.357  0.4806  0.0742  0.8029
  410poe     o2 2750   3.894   5.516   4.243 -0.4582  0.1205  0.2936
  410poe    c23 2751   4.034   5.511   4.260 -0.4421 -0.1564  0.0880
  410poe    c23 2752   4.097   5.516   4.120 -0.6992 -0.3343 -0.0348
  410poe     o2 2753   4.014   5.609   4.054 -0.4162  0.0381  0.1312
  410poe    c23 2754   4.032   5.596   3.915  0.0281  0.2466  0.1663
  410poe    c23 2755   3.929   5.689   3.848 -0.4251 -0.2957  0.1022
  410poe     o2 2756   3.816   5.675   3.933 -0.2105 -0.1358  0.4168
  410poe    c23 2757   3.721   5.774   3.902 -0.4771 -0.5376 -0.0793
  410poe    c23 2758   3.631   5.767   4.027 -0.4793 -0.0760 -0.0528
  410poe     o2 2759   3.705   5.725   4.139  0.1221  0.5895 -0.1899
  410poe    c31 2760   3.714   5.819   4.243  0.1121 -0.4906  0.8043
  411poe    c31 2761   6.333   2.041   5.521 -0.3923  0.0317 -0.2267
  411poe     o2 2762   6.405   1.983   5.415  0.2721  0.0145  0.2286
  411poe    c23 2763   6.498   2.078   5.368  0.0280  0.1932  0.1092
  411poe    c23 2764   6.581   2.011   5.257  0.3091  0.0764  0.3900
  411poe     o2 2765   6.591   1.872   5.281 -0.1074  0.0412  0.3651
  411poe    c23 2766   6.646   1.794   5.177 -0.0634  0.5068  0.0347
  411poe    c23 2767   6.644   1.652   5.235 -0.4830  0.4792 -0.0490
  411poe     o2 2768   6.519   1.645   5.300 -0.3702 -0.1097  0.1148
  411poe    c23 2769   6.491   1.548   5.399 -0.2403 -0.0637  0.1967
  411poe    c23 2770   6.340   1.561   5.427 -0.1747  0.0503  0.5040
  411poe     o2 2771   6.310   1.698   5.446  0.0647  0.1735  0.0193
  411poe    c31 2772   6.176   1.714   5.485 -0.0416 -0.1592 -0.2042
  412poe    c31 2773   1.808   4.227   1.284 -0.0696  0.0808  0.1676
  412poe     o2 2774   1.864   4.267   1.161  0.5529  0.0457  0.4308
  412poe    c23 2775   1.776   4.331   1.071  0.7594 -0.5561 -0.2126
  412poe    c23 2776   1.858   4.411   0.968 -0.4238 -0.2736 -0.9573
  412poe     o2 2777   1.989   4.439   1.011 -0.5418 -0.8340 -0.2018
  412poe    c23 2778   2.078   4.478   0.909 -0.1530 -0.0457  0.4280
  412poe    c23 2779   2.227   4.470   0.949 -0.0272 -0.1271 -0.0462
  412poe     o2 2780   2.219   4.355   1.031  0.1780  0.0040  0.1584
  412poe    c23 2781   2.339   4.303   1.084 -0.1453 -0.4420  0.4515
  412poe    c23 2782   2.310   4.172   1.160  0.5421 -0.8298  0.0524
  412poe     o2 2783   2.173   4.166   1.191  0.4173 -0.1135 -0.3503
  412poe    c31 2784   2.145   4.040   1.246 -0.3812  0.0176 -0.4330
  413poe    c31 2785   5.599   2.995   1.860  0.1412  0.2813 -0.2277
  413poe     o2 2786   5.623   3.123   1.914 -0.0308  0.1530  0.1531
  413poe    c23 2787   5.754   3.164   1.882  0.0377 -0.0348  0.1882
  413poe    c23 2788   5.777   3.298   1.955 -0.3065  0.3175 -0.3335
  413poe     o2 2789   5.748   3.291   2.093  0.3870  0.0785 -0.1947
  413poe    c23 2790   5.766   3.422   2.143 -0.0070 -0.0577  0.3105
  413poe    c23 2791   5.765   3.406   2.296 -0.0255  0.7767  0.4037
  413poe     o2 2792   5.660   3.316   2.328  0.1574  0.2818 -0.3711
  413poe    c23 2793   5.663   3.283   2.465 -0.5636 -0.0566 -0.4365
  413poe    c23 2794   5.532   3.229   2.527 -0.1471 -0.1693  0.3581
  413poe     o2 2795   5.498   3.112   2.457  0.2675 -0.0949  0.0285
  413poe    c31 2796   5.395   3.038   2.518  0.3113 -0.7164 -0.6319
  414poe    c31 2797   4.734   5.143   4.540  0.1809  0.0133  0.3526
  414poe     o2 2798   4.709   5.010   4.581  0.0005 -0.0920 -0.0974
  414poe    c23 2799   4.578   4.964   4.555 -0.2297  0.4344  0.1032
  414poe    c23 2800   4.541   4.834   4.630  0.2100  0.2684  0.0363
  414poe     o2 2801   4.660   4.803   4.700 -0.1335 -0.2836  0.3818
  414poe    c23 2802   4.653   4.677   4.762 -0.4399 -0.2830  0.3527
  414poe    c23 2803   4.746   4.702   4.883 -0.4569  0.1449  0.2777
  414poe     o2 2804   4.852   4.770   4.820 -0.6940  0.3568  0.1008
  414poe    c23 2805   4.922   4.842   4.919  0.2663 -0.3226 -0.0702
  414poe    c23 2806   5.024   4.929   4.842  0.1807  0.0647  0.2509
  414poe     o2 2807   4.962   4.992   4.733  0.0849 -0.1615  0.1734
  414poe    c31 2808   5.042   5.093   4.675 -0.0040 -0.0663  0.2155
  415poe    c31 2809   3.028   6.538   3.493 -0.3342  0.1574 -0.3992
  415poe     o2 2810   3.093   6.574   3.613  0.4326 -0.9487 -0.4668
  415poe    c23 2811   3.232   6.598   3.608  0.2646  0.1598 -0.0952
  415poe    c23 2812   3.281   6.638   3.749  0.0206  0.7724 -0.1817
  415poe     o2 2813   3.195   6.572   3.838  0.0180  0.6564 -0.2698
  415poe    c23 2814   3.264   6.486   3.927 -0.7603 -0.0527 -0.3375
  415poe    c23 2815   3.155   6.400   3.993 -0.5160  0.5508  0.8657
  415poe     o2 2816   3.060   6.371   3.893  0.2284  0.2541  0.2340
  415poe    c23 2817   2.938   6.331   3.952  0.1444  0.2997  0.0882
  415poe    c23 2818   2.842   6.298   3.836  0.4885  0.2082 -0.1725
  415poe     o2 2819   2.847   6.400   3.738 -0.1357 -0.0399 -0.4704
  415poe    c31 2820   2.730   6.386   3.661 -0.7258  0.1720  0.3757
  416poe    c31 2821   1.382   3.034   0.889 -0.9008 -0.2981  0.3294
  416poe     o2 2822   1.509   3.089   0.919 -0.4976 -1.1544  0.2347
  416poe    c23 2823   1.539   3.064   1.054  0.3284 -0.2438  0.2262
  416poe    c23 2824   1.685   3.015   1.047  0.2308 -0.4230 -0.6119
  416poe     o2 2825   1.755   3.102   0.961  0.0386 -0.0300 -0.3728
  416poe    c23 2826   1.887   3.065   0.926  0.0506 -0.1807 -0.1714
  416poe    c23 2827   1.938   3.182   0.840 -0.7157  0.5246  0.3143
  416poe     o2 2828   1.824   3.201   0.759 -0.2552  0.0567 -0.4555
  416poe    c23 2829   1.809   3.332   0.709  0.3783 -0.0467 -0.9333
  416poe    c23 2830   1.671   3.338   0.641  0.1508 -0.2974 -0.4960
  416poe     o2 2831   1.584   3.288   0.740  0.1567 -0.3549 -0.5197
  416poe    c31 2832   1.459   3.337   0.698  0.2872  0.3408 -0.1199
  417poe    c31 2833   2.022   4.903   5.948  0.1481 -0.0270 -0.0409
  417poe     o2 2834   2.088   5.021   5.908  0.4988 -0.3104 -0.3065
  417poe    c23 2835   2.139   5.077   6.027 -0.6955  0.9828 -0.3751
  417poe    c23 2836   2.271   5.152   6.000 -0.3113  0.4002 -0.1474
  417poe     o2 2837   2.269   5.231   5.883  0.1775  0.1028 -0.3588
  417poe    c23 2838   2.372   5.195   5.794  0.3619  0.1500 -0.1653
  417poe    c23 2839   2.312   5.158   5.658 -0.4389 -0.3468  0.3160
  417poe     o2 2840   2.218   5.054   5.669  0.0102 -0.7634  0.2389
  417poe    c23 2841   2.198   4.997   5.541  0.2156 -0.5220  0.1007
  417poe    c23 2842   2.082   4.899   5.562  0.2302 -0.6248 -0.3052
  417poe     o2 2843   1.985   4.977   5.627  0.4032 -0.7385  0.0902
  417poe    c31 2844   1.857   4.919   5.627 -0.2240  0.5624  1.4665
  418poe    c31 2845   1.152   2.895   3.210 -0.3674  0.8510  0.3741
  418poe     o2 2846   1.149   2.875   3.070 -0.2458 -0.2729  0.5203
  418poe    c23 2847   1.281   2.874   3.022 -0.5375  0.3833 -0.3263
  418poe    c23 2848   1.269   2.829   2.876 -0.1969 -0.5014 -0.0916
  418poe     o2 2849   1.150   2.892   2.832  0.2689  0.2571 -0.2803
  418poe    c23 2850   1.125   2.894   2.694  0.0245 -0.5444 -0.2517
  418poe    c23 2851   0.984   2.947   2.658  0.3073  0.2261 -0.2455
  418poe     o2 2852   0.956   3.011   2.780  0.3760  0.1046 -0.1660
  418poe    c23 2853   0.833   3.079   2.767  0.3620  0.0809 -0.1589
  418poe    c23 2854   0.849   3.169   2.891  0.8081 -0.3238  0.0785
  418poe     o2 2855   0.898   3.090   2.998  0.0843 -1.0626 -0.1223
  418poe    c31 2856   0.873   3.142   3.127  0.5787  0.2648 -0.5444
  419poe    c31 2857   0.570   1.748   2.626  0.1224 -0.2905 -0.6085
  419poe     o2 2858   0.521   1.763   2.494 -0.3010  0.3973 -0.3768
  419poe    c23 2859   0.399   1.692   2.489 -0.0054 -0.1547  0.1843
  419poe    c23 2860   0.367   1.665   2.341 -0.1338  0.2500  0.1379
  419poe     o2 2861   0.395   1.787   2.276  0.0628  0.0553 -0.1425
  419poe    c23 2862   0.324   1.814   2.157 -0.2008 -0.2388 -0.0566
  419poe    c23 2863   0.376   1.952   2.113  0.1245 -0.4601 -0.3765
  419poe     o2 2864   0.516   1.951   2.097  0.1669  0.2158 -0.1050
  419poe    c23 2865   0.551   2.072   2.035 -0.0019  0.2201 -0.1906
  419poe    c23 2866   0.685   2.069   1.960  0.0740  0.2014 -0.0535
  419poe     o2 2867   0.797   2.049   2.043  0.2180 -0.7007 -0.4589
  419poe    c31 2868   0.865   2.168   2.076  0.1827 -0.8271  0.0771
  420poe    c31 2869   1.203   0.676   0.095 -0.2019 -0.5879 -0.2793
  420poe     o2 2870   1.152   0.618   0.213 -0.0798  0.0660  0.0986
  420poe    c23 2871   1.013   0.632   0.235 -0.1000 -0.1640  0.1192
  420poe    c23 2872   0.957   0.585   0.370  0.2423  0.8208  0.6133
  420poe     o2 2873   0.825   0.619   0.408 -0.0741  0.5282 -0.2016
  420poe    c23 2874   0.806   0.746   0.465 -0.0054  0.0138  0.9935
  420poe    c23 2875   0.655   0.777   0.473 -0.1711 -0.3354 -0.4875
  420poe     o2 2876   0.596   0.657   0.516  0.1930 -0.1792  0.4709
  420poe    c23 2877   0.464   0.668   0.564  0.1211 -0.0875  0.2533
  420poe    c23 2878   0.432   0.527   0.616 -0.1833 -0.1078  0.0107
  420poe     o2 2879   0.454   0.439   0.508 -0.1095  0.1278 -0.1658
  420poe    c31 2880   0.403   0.309   0.526  0.2234 -0.0178 -0.2748
  421poe    c31 2881   5.148   2.915   3.208 -0.0811  0.2291 -0.3344
  421poe     o2 2882   5.243   2.840   3.135  0.2395 -0.1686  0.4790
  421poe    c23 2883   5.351   2.827   3.224  0.6569  0.9165  0.1505
  421poe    c23 2884   5.473   2.749   3.170  0.0989 -0.0302  0.2382
  421poe     o2 2885   5.418   2.645   3.091 -0.0867  0.5192 -0.3609
  421poe    c23 2886   5.506   2.596   2.994  0.1358  0.4550 -0.1286
  421poe    c23 2887   5.410   2.518   2.902 -0.3379  0.3612  0.4456
  421poe     o2 2888   5.286   2.586   2.896 -0.0472  0.8752  0.2220
  421poe    c23 2889   5.191   2.507   2.829  0.2832  0.1247  0.6193
  421poe    c23 2890   5.062   2.590   2.842 -0.0903 -0.4404  0.5739
  421poe     o2 2891   5.072   2.680   2.950  0.2866 -0.2980  0.4239
  421poe    c31 2892   4.940   2.715   2.984  0.2587 -0.0332  0.0380
  422poe    c31 2893   4.140   4.001   5.579 -0.1321  0.0938 -0.1864
  422poe     o2 2894   4.074   4.122   5.549 -0.5709 -0.1122 -0.0482
  422poe    c23 2895   3.936   4.093   5.536 -0.4825 -0.3843 -0.3911
  422poe    c23 2896   3.860   4.224   5.511  0.2732  0.2489  0.5709
  422poe     o2 2897   3.938   4.307   5.426 -0.0312  0.2170  0.2575
  422poe    c23 2898   3.882   4.429   5.384 -0.0207  0.2028  0.2016
  422poe    c23 2899   3.959   4.532   5.470 -0.4522  0.4081  0.3470
  422poe     o2 2900   4.098   4.508   5.463 -0.6123 -0.4261 -0.0439
  422poe    c23 2901   4.154   4.508   5.592  0.3706  0.8960 -0.4581
  422poe    c23 2902   4.301   4.472   5.561  0.3432  0.1546  0.2312
  422poe     o2 2903   4.289   4.345   5.502 -0.1987 -0.1800  1.0458
  422poe    c31 2904   4.403   4.268   5.533  0.4263  0.2767 -0.0557
  423poe    c31 2905   2.175   5.461   6.574 -0.2205 -0.7860 -0.7750
  423poe     o2 2906   2.147   5.398   6.697  0.0993 -0.0484 -0.3126
  423poe    c23 2907   2.060   5.289   6.678 -0.1657  0.0200  0.4907
  423poe    c23 2908   2.048   5.210   6.810  0.3226  0.1143  0.5898
  423poe     o2 2909   2.167   5.138   6.835  0.2725 -0.3156 -0.3530
  423poe    c23 2910   2.135   5.035   6.925  0.5956 -0.4334 -0.3704
  423poe    c23 2911   2.261   4.946   6.935  0.7537 -0.2008 -0.2972
  423poe     o2 2912   2.368   5.037   6.942  0.2829  0.3387  0.0552
  423poe    c23 2913   2.489   4.965   6.955  0.0749 -0.0954 -0.4189
  423poe    c23 2914   2.592   5.075   6.926  0.1950  0.0701  0.6262
  423poe     o2 2915   2.551   5.146   6.812  0.0041 -0.3614  0.4259
  423poe    c31 2916   2.657   5.224   6.762 -0.4746  0.2748  0.4039
  424poe    c31 2917   4.136   1.394   3.198 -0.5872  0.3955  0.3640
  424poe     o2 2918   4.131   1.320   3.078  0.1742  1.1214 -0.1362
  424poe    c23 2919   3.996   1.279   3.070  0.3989  0.4134 -0.3984
  424poe    c23 2920   3.972   1.194   2.944  0.0283 -0.0643 -0.0063
  424poe     o2 2921   4.034   1.067   2.941  0.2991  0.0738 -0.2275
  424poe    c23 2922   3.951   0.967   2.995 -0.1253  0.4832 -0.1139
  424poe    c23 2923   4.023   0.831   2.994 -0.2565  0.4142 -0.2944
  424poe     o2 2924   4.158   0.867   3.012 -0.1654 -0.1597  0.1720
  424poe    c23 2925   4.240   0.752   3.017  0.2826  0.1629  0.2917
  424poe    c23 2926   4.383   0.799   2.983  0.2173 -0.1687 -0.4614
  424poe     o2 2927   4.379   0.922   2.913 -0.0596  0.1534  0.1145
  424poe    c31 2928   4.511   0.949   2.872  0.3218 -0.2008  1.0882
  425poe    c31 2929   2.027   2.448   5.767 -0.2681 -0.0434  0.5068
  425poe     o2 2930   1.977   2.341   5.690 -0.2223  0.0827  0.2998
  425poe    c23 2931   1.885   2.385   5.593  0.8935 -0.0223 -0.8258
  425poe    c23 2932   1.860   2.276   5.487  0.7206 -0.3402 -0.4640
  425poe     o2 2933   1.869   2.155   5.558 -0.2555 -0.0265  0.1992
  425poe    c23 2934   1.876   2.035   5.485  0.6802  0.4764 -0.5632
  425poe    c23 2935   1.943   1.928   5.573 -0.3673  0.6274  0.4437
  425poe     o2 2936   2.054   2.000   5.623 -0.1837 -0.0092  0.9719
  425poe    c23 2937   2.131   1.940   5.724  0.3148 -0.6712  0.2115
  425poe    c23 2938   2.247   2.026   5.775 -0.1151 -0.0753  0.1911
  425poe     o2 2939   2.189   2.149   5.813  0.1118  0.1194 -0.0957
  425poe    c31 2940   2.294   2.238   5.843  0.1537  0.1072 -0.2056
  426poe    c31 2941   0.024   2.096   5.702  0.0372  0.1329 -0.7203
  426poe     o2 2942   0.154   2.107   5.755 -0.1264  0.1801 -0.3269
  426poe    c23 2943   0.177   2.244   5.780 -0.1933  0.1863 -0.2996
  426poe    c23 2944   0.316   2.244   5.846 -0.4992 -0.6381  0.3759
  426poe     o2 2945   0.397   2.138   5.800 -0.2339 -0.5506  0.6410
  426poe    c23 2946   0.499   2.100   5.890  0.4972  0.4542  0.2419
  426poe    c23 2947   0.533   1.952   5.870 -0.0214  0.4245 -0.4710
  426poe     o2 2948   0.405   1.894   5.858 -0.0829  0.5059 -0.2167
  426poe    c23 2949   0.411   1.759   5.818 -0.4838  0.4447 -0.0769
  426poe    c23 2950   0.261   1.724   5.810 -0.3433 -0.1561 -0.1360
  426poe     o2 2951   0.205   1.828   5.732 -0.2041  0.1417  0.1560
  426poe    c31 2952   0.151   1.769   5.616 -0.0568 -0.3079  0.3112
  427poe    c31 2953   4.558   2.328   2.376 -0.6209 -0.1343  0.0744
  427poe     o2 2954   4.469   2.256   2.459 -0.4226 -0.2662  0.1754
  427poe    c23 2955   4.429   2.129   2.415 -0.3538 -0.0552 -0.5072
  427poe    c23 2956   4.325   2.064   2.508  0.0230  0.2618  0.1346
  427poe     o2 2957   4.388   2.057   2.634 -0.2618  0.8890  0.3124
  427poe    c23 2958   4.305   2.037   2.747 -0.5425 -0.2055 -0.0805
  427poe    c23 2959   4.347   2.143   2.850 -0.6606 -0.1827 -0.0550
  427poe     o2 2960   4.361   2.269   2.789  0.0739 -0.3413 -0.2293
  427poe    c23 2961   4.375   2.376   2.880 -0.4983 -0.4584  0.0010
  427poe    c23 2962   4.372   2.504   2.794  0.3033 -0.0794  0.5334
  427poe     o2 2963   4.442   2.472   2.676 -0.2652  0.1496  0.1318
  427poe    c31 2964   4.426   2.579   2.585  0.3086  0.0175 -0.1279
  428poe    c31 2965   2.990   0.619   0.622  0.2799 -0.1753  0.0406
  428poe     o2 2966   2.904   0.568   0.523 -0.0818  0.3138  0.0981
  428poe    c23 2967   2.890   0.663   0.420 -0.1477  0.0883 -0.1031
  428poe    c23 2968   2.816   0.609   0.296  0.5881  0.4313 -0.7032
  428poe     o2 2969   2.882   0.492   0.252  0.5635  0.1113  0.0833
  428poe    c23 2970   2.817   0.439   0.139  0.6178  0.3287 -0.0514
  428poe    c23 2971   2.921   0.355   0.062  0.7566  0.4255  0.0309
  428poe     o2 2972   2.952   0.247   0.147  0.3188  0.3360  0.0797
  428poe    c23 2973   3.057   0.169   0.096  0.1527  0.1036  0.0932
  428poe    c23 2974   3.067   0.041   0.180  0.2423 -0.0119 -0.0924
  428poe     o2 2975   3.058   0.078   0.316 -0.6823 -0.2858 -0.0755
  428poe    c31 2976   3.111  -0.012   0.411 -0.6225 -0.4672 -0.2781
  429poe    c31 2977   6.192   1.043   5.063 -0.0647  0.2530 -0.2489
  429poe     o2 2978   6.103   1.139   5.116  0.2080  0.2514  0.2170
  429poe    c23 2979   6.145   1.172   5.246 -0.1872  0.1823  0.3638
  429poe    c23 2980   6.091   1.314   5.269 -0.2784  0.2657 -0.3493
  429poe     o2 2981   5.955   1.318   5.230 -0.4267  0.4447  0.1750
  429poe    c23 2982   5.896   1.442   5.263 -0.1691  0.6439 -0.1069
  429poe    c23 2983   5.751   1.427   5.213  0.1887 -0.1155 -0.9467
  429poe     o2 2984   5.688   1.320   5.279 -0.1122  0.3827 -0.4218
  429poe    c23 2985   5.560   1.289   5.227 -0.2177 -0.5091  0.3429
  429poe    c23 2986   5.487   1.182   5.311 -0.0973 -0.5196  0.4346
  429poe     o2 2987   5.496   1.218   5.447  0.7285  0.3825  0.1566
  429poe    c31 2988   5.426   1.140   5.542 -0.0468 -0.1142 -0.8139
  430poe    c31 2989   4.213   6.626   2.846 -0.0690  0.2441 -0.1200
  430poe     o2 2990   4.260   6.628   2.713 -0.1234  0.1491 -0.1405
  430poe    c23 2991   4.223   6.510   2.644 -0.3846 -0.0236  0.2915
  430poe    c23 2992   4.243   6.542   2.495  0.3460 -0.8202  0.2148
  430poe     o2 2993   4.370   6.601   2.483 -0.2491  0.4937  0.2528
  430poe    c23 2994   4.390   6.636   2.347 -0.2017  0.0633  0.1492
  430poe    c23 2995   4.516   6.719   2.316  0.2580 -0.4791  0.5349
  430poe     o2 2996   4.513   6.834   2.397 -0.3614 -0.0440 -0.0916
  430poe    c23 2997   4.568   6.944   2.328 -0.0966 -0.0676  0.0803
  430poe    c23 2998   4.563   7.074   2.411  0.0457  0.0181 -0.0461
  430poe     o2 2999   4.439   7.109   2.467 -0.0122 -0.0347 -0.1416
  430poe    c31 3000   4.454   7.224   2.547  0.0453 -0.4840  0.4929
  431poe    c31 3001   6.779   2.522   3.347  0.5420 -0.4753 -0.2684
  431poe     o2 3002   6.769   2.645   3.416  0.1875 -0.4715 -0.3258
  431poe    c23 3003   6.650   2.653   3.492  0.5274  0.4138  0.1227
  431poe    c23 3004   6.654   2.775   3.587  0.1806  0.4231  0.1269
  431poe     o2 3005   6.782   2.789   3.645  0.2873 -0.1485  0.0424
  431poe    c23 3006   6.817   2.921   3.679 -0.3802 -0.0235  0.2630
  431poe    c23 3007   6.943   2.915   3.767 -0.2197  0.3136  0.0600
  431poe     o2 3008   7.040   2.839   3.698  0.1482  0.4597  0.4135
  431poe    c23 3009   7.170   2.883   3.728  0.3529 -0.3536  0.7650
  431poe    c23 3010   7.292   2.841   3.643 -0.3023  0.1699 -0.4586
  431poe     o2 3011   7.292   2.700   3.637 -0.2515  0.1671 -0.3947
  431poe    c31 3012   7.411   2.658   3.574 -0.2115 -0.3184 -0.0026
  432poe    c31 3013   0.217   0.239   1.009  0.4409  0.1041 -0.6256
  432poe     o2 3014   0.229   0.100   0.995 -0.1919  0.0944 -1.0743
  432poe    c23 3015   0.343   0.080   0.914  0.5030 -0.2571 -0.0241
  432poe    c23 3016   0.366  -0.071   0.902  0.0992 -0.3440  0.2724
  432poe     o2 3017   0.244  -0.140   0.884 -0.1138  0.1947 -0.3838
  432poe    c23 3018   0.234  -0.279   0.903  0.5733  0.1435 -0.3772
  432poe    c23 3019   0.221  -0.306   1.054  0.1947  0.6077 -0.3254
  432poe     o2 3020   0.125  -0.205   1.077 -0.3671 -0.0535  0.2751
  432poe    c23 3021   0.101  -0.201   1.216  0.0592 -0.1550  0.3527
  432poe    c23 3022  -0.024  -0.111   1.217  0.1426 -0.0295 -0.2219
  432poe     o2 3023   0.010   0.004   1.144  0.1569 -0.1031 -0.3310
  432poe    c31 3024  -0.093   0.095   1.176  0.0523 -0.1113 -0.6339
  433poe    c31 3025   2.406   6.300   0.316  0.3712  0.8391  0.2116
  433poe     o2 3026   2.303   6.395   0.331 -0.0603  0.3017  0.7170
  433poe    c23 3027   2.354   6.521   0.294  0.0354  0.0988  0.1442
  433poe    c23 3028   2.230   6.612   0.295 -0.1412 -0.1396 -0.1049
  433poe     o2 3029   2.170   6.583   0.419  0.0777  0.3462  0.1158
  433poe    c23 3030   2.050   6.653   0.441 -0.1918 -0.0641 -0.0533
  433poe    c23 3031   1.991   6.604   0.575 -0.1149 -0.0065  0.0017
  433poe     o2 3032   1.971   6.465   0.557  0.3525 -0.0476 -0.1986
  433poe    c23 3033   1.887   6.410   0.655 -0.1744  0.4121 -0.3841
  433poe    c23 3034   1.857   6.259   0.655  0.3301  0.3097 -0.4351
  433poe     o2 3035   1.962   6.179   0.705 -0.5006 -0.2070  0.5099
  433poe    c31 3036   1.944   6.043   0.670  0.0351 -0.0571 -0.3641
  434poe    c31 3037   0.454   4.514   4.772  0.4284 -0.2610 -0.0112
  434poe     o2 3038   0.501   4.613   4.684 -0.3033 -0.3922 -0.5620
  434poe    c23 3039   0.642   4.621   4.688 -0.3105 -0.4172 -0.2608
  434poe    c23 3040   0.688   4.721   4.580  0.2355 -0.6391 -0.2414
  434poe     o2 3041   0.645   4.854   4.599  0.0193 -0.7323 -0.0751
  434poe    c23 3042   0.763   4.926   4.571 -0.1755 -0.1331  0.6188
  434poe    c23 3043   0.739   5.071   4.620 -0.2519  0.0599  0.0182
  434poe     o2 3044   0.612   5.109   4.572 -0.5756 -0.2323  0.6231
  434poe    c23 3045   0.579   5.239   4.617 -0.2777  0.1477 -0.2230
  434poe    c23 3046   0.453   5.269   4.534 -0.4282  0.2218  0.0310
  434poe     o2 3047   0.356   5.167   4.547 -0.1554 -0.0466 -0.0359
  434poe    c31 3048   0.234   5.202   4.486 -0.0899 -0.0239 -0.1547
  435poe    c31 3049   3.905   5.799   5.324  0.0646  0.9253  0.3774
  435poe     o2 3050   3.800   5.790   5.417  0.1357 -0.1643  0.3609
  435poe    c23 3051   3.760   5.922   5.448 -0.0105 -0.0916 -0.1238
  435poe    c23 3052   3.748   5.915   5.601  0.0777 -0.2686 -0.1245
  435poe     o2 3053   3.659   5.809   5.628 -0.0365 -0.1366  0.0257
  435poe    c23 3054   3.625   5.791   5.764  0.3244 -0.2202  0.1092
  435poe    c23 3055   3.502   5.697   5.761 -0.0063  0.2154 -0.1718
  435poe     o2 3056   3.525   5.578   5.690 -0.1403  0.0313  0.0939
  435poe    c23 3057   3.397   5.525   5.664 -0.0575 -0.2499  0.2530
  435poe    c23 3058   3.413   5.386   5.600  0.4551 -0.1712  0.2058
  435poe     o2 3059   3.443   5.379   5.462 -0.8335  0.1154 -0.1046
  435poe    c31 3060   3.415   5.253   5.406  0.4259 -0.4270  0.4566
  436poe    c31 3061   6.018   1.129   3.106  0.2520 -0.3831 -0.0380
  436poe     o2 3062   6.082   1.184   2.993  0.7152  0.3467  0.5680
  436poe    c23 3063   6.138   1.073   2.926 -0.0377  0.2353  0.1100
  436poe    c23 3064   6.255   1.125   2.840  0.2401  0.1696  0.4491
  436poe     o2 3065   6.203   1.238   2.775 -0.2706 -0.3604 -0.0794
  436poe    c23 3066   6.308   1.325   2.736 -0.3905 -0.4120 -0.5185
  436poe    c23 3067   6.257   1.467   2.706  0.7887  0.2265  0.4385
  436poe     o2 3068   6.164   1.481   2.811  0.4969  0.1869  0.1853
  436poe    c23 3069   6.079   1.594   2.816 -0.1883 -0.2848 -0.4535
  436poe    c23 3070   6.006   1.583   2.951 -0.2839  0.2333 -0.4577
  436poe     o2 3071   5.971   1.446   2.954 -0.0124  0.1647 -0.2706
  436poe    c31 3072   5.853   1.433   3.030  0.0211  0.0999 -0.2311
  437poe    c31 3073   3.429   0.477   4.255 -0.8223 -0.1849  0.4192
  437poe     o2 3074   3.417   0.502   4.116 -0.2345 -0.5516  0.2990
  437poe    c23 3075   3.288   0.478   4.066 -0.2314  0.0259  0.0084
  437poe    c23 3076   3.298   0.498   3.914  0.0582  0.3185  0.0638
  437poe     o2 3077   3.369   0.617   3.887  0.3991  0.0778 -0.1133
  437poe    c23 3078   3.423   0.638   3.759  0.3105 -0.1015 -0.1814
  437poe    c23 3079   3.574   0.610   3.772  0.2925 -0.1815 -0.1455
  437poe     o2 3080   3.605   0.663   3.899 -0.4160  0.1404 -0.1014
  437poe    c23 3081   3.729   0.619   3.951 -0.2728  0.8694  0.1841
  437poe    c23 3082   3.755   0.721   4.064  0.0896  0.3166  0.6028
  437poe     o2 3083   3.645   0.712   4.152 -0.5056  0.2544 -0.1360
  437poe    c31 3084   3.676   0.778   4.272 -1.0060  0.2356  0.0071
  438poe    c31 3085   0.125   4.326   2.960  0.0692 -0.1848 -0.8379
  438poe     o2 3086   0.260   4.287   2.957  0.2418  0.2915  0.2687
  438poe    c23 3087   0.324   4.365   2.859  0.4759  0.1405  0.2989
  438poe    c23 3088   0.449   4.287   2.813 -0.1892 -0.5461 -0.3713
  438poe     o2 3089   0.506   4.265   2.940 -0.1432  0.0292 -0.2866
  438poe    c23 3090   0.606   4.166   2.940 -0.0502  0.1245 -0.0255
  438poe    c23 3091   0.616   4.115   3.086 -0.2135 -0.1154 -0.0964
  438poe     o2 3092   0.487   4.089   3.137 -0.1196  0.1349  0.2710
  438poe    c23 3093   0.518   4.019   3.255 -0.1549 -0.7282 -0.2261
  438poe    c23 3094   0.397   3.983   3.343 -0.0362  0.1824  0.3124
  438poe     o2 3095   0.441   3.868   3.412  0.3172  0.2484  0.2025
  438poe    c31 3096   0.324   3.801   3.455  0.2573  0.2079 -0.0200
  439poe    c31 3097   4.193   0.978   1.312 -0.4718 -0.1097 -0.1441
  439poe     o2 3098   4.266   0.881   1.241  0.0566  0.0738  0.1420
  439poe    c23 3099   4.382   0.943   1.191 -0.1114  0.3350  0.0707
  439poe    c23 3100   4.445   0.861   1.077  0.2201 -0.1054  0.5618
  439poe     o2 3101   4.570   0.811   1.118  0.3211  0.2071  0.6350
  439poe    c23 3102   4.613   0.706   1.034 -0.0855  0.4036  0.1762
  439poe    c23 3103   4.747   0.647   1.079 -0.1807  0.0300 -0.0257
  439poe     o2 3104   4.736   0.570   1.197  0.0391 -0.5249 -0.3638
  439poe    c23 3105   4.838   0.478   1.230  0.5496 -0.0075 -0.4890
  439poe    c23 3106   4.799   0.373   1.336  0.0611  0.7151  0.0668
  439poe     o2 3107   4.702   0.431   1.420  0.4373  0.4791  0.6713
  439poe    c31 3108   4.656   0.329   1.506 -0.4609  0.3944  0.1040
  440poe    c31 3109   2.745   0.041   1.298 -0.4518  0.1576 -0.6264
  440poe     o2 3110   2.626   0.013   1.228 -0.6546 -0.2313 -0.1293
  440poe    c23 3111   2.521  -0.017   1.317 -0.4615  0.7184  0.4394
  440poe    c23 3112   2.413  -0.107   1.255  0.3154  0.1270 -0.0709
  440poe     o2 3113   2.360  -0.065   1.131 -0.0768 -0.1305  0.0072
  440poe    c23 3114   2.265   0.039   1.144  0.0660  0.0313 -0.2219
  440poe    c23 3115   2.208   0.073   1.005  0.1307  0.2327 -0.1994
  440poe     o2 3116   2.297   0.139   0.919  0.3141 -0.0220 -0.2040
  440poe    c23 3117   2.252   0.177   0.791 -0.3612  0.5846  0.2080
  440poe    c23 3118   2.371   0.245   0.720 -0.2365 -0.0672 -0.2211
  440poe     o2 3119   2.496   0.196   0.763 -0.2546  0.1240  0.0555
  440poe    c31 3120   2.589   0.171   0.660 -0.3720  0.1073 -0.0467
  441poe    c31 3121   0.495   4.163   0.271  0.0544 -0.1704  0.2129
  441poe     o2 3122   0.598   4.203   0.183  0.1582 -0.0955  0.3672
  441poe    c23 3123   0.720   4.171   0.246  0.0874 -0.1362  0.4858
  441poe    c23 3124   0.828   4.171   0.136 -0.3463  0.0673  0.0572
  441poe     o2 3125   0.806   4.292   0.065 -0.0045  0.0149 -0.1439
  441poe    c23 3126   0.878   4.303  -0.055  0.6509  0.4916  0.2871
  441poe    c23 3127   0.818   4.430  -0.120 -0.0883 -0.2003 -0.4120
  441poe     o2 3128   0.684   4.425  -0.076  0.1871 -0.3503  0.4186
  441poe    c23 3129   0.589   4.481  -0.163  0.3513 -0.7242 -0.0086
  441poe    c23 3130   0.457   4.406  -0.137 -0.0390  0.1758  0.6941
  441poe     o2 3131   0.450   4.356  -0.005 -0.1542  0.0390  0.6365
  441poe    c31 3132   0.313   4.329   0.015 -0.2203 -0.1679 -0.0383
  442poe    c31 3133   6.660   5.683   4.057  0.1340 -0.2981 -0.9527
  442poe     o2 3134   6.587   5.563   4.045  0.6620 -0.7043 -0.2333
  442poe    c23 3135   6.519   5.574   3.922  0.0161  0.7608  0.2229
  442poe    c23 3136   6.372   5.528   3.924  0.1772  0.2495  0.6342
  442poe     o2 3137   6.361   5.409   3.999 -0.1031  0.0761  0.3201
  442poe    c23 3138   6.234   5.380   4.050 -0.0873  0.2503  0.4595
  442poe    c23 3139   6.267   5.260   4.142 -0.1043 -0.3843 -0.3475
  442poe     o2 3140   6.377   5.295   4.223 -0.4512  0.1189 -0.0890
  442poe    c23 3141   6.426   5.196   4.310 -0.2314  0.6584  0.4105
  442poe    c23 3142   6.576   5.228   4.326  0.1078 -0.3660 -0.5856
  442poe     o2 3143   6.621   5.307   4.218 -0.2117 -0.0308 -0.4763
  442poe    c31 3144   6.760   5.327   4.227 -0.3046  0.2245  0.4003
  443poe    c31 3145   4.706   1.536   2.730 -0.4501  0.3650  0.5472
  443poe     o2 3146   4.709   1.528   2.871  0.2540 -0.0937  0.5082
  443poe    c23 3147   4.580   1.513   2.926  0.3083 -0.2847  0.5839
  443poe    c23 3148   4.574   1.540   3.077 -1.0102 -0.9652  0.6692
  443poe     o2 3149   4.706   1.533   3.128 -0.8381 -0.1073  0.3472
  443poe    c23 3150   4.735   1.564   3.262  0.1223  0.4029  0.0279
  443poe    c23 3151   4.889   1.558   3.268  0.1218  0.2273 -0.1022
  443poe     o2 3152   4.929   1.606   3.142  0.2725 -0.0228 -0.1494
  443poe    c23 3153   5.070   1.616   3.134  0.2816 -0.2342 -0.2567
  443poe    c23 3154   5.109   1.656   2.991  0.0623  0.0222 -0.2454
  443poe     o2 3155   5.023   1.582   2.909  0.4610 -0.2399 -0.4296
  443poe    c31 3156   5.057   1.611   2.775  0.6895 -0.3207 -0.3892
  444poe    c31 3157   0.563   1.308   5.939 -0.3112  0.5322 -0.2312
  444poe     o2 3158   0.660   1.307   5.836  0.1081 -0.2169  0.1593
  444poe    c23 3159   0.767   1.388   5.879  0.0198  0.0482 -0.1108
  444poe    c23 3160   0.837   1.445   5.754  0.7007 -0.1276  0.1879
  444poe     o2 3161   0.827   1.357   5.644 -0.1807  0.2105 -0.0079
  444poe    c23 3162   0.879   1.410   5.524 -0.3077 -0.4339 -0.3485
  444poe    c23 3163   0.889   1.290   5.428  0.6078 -0.4735 -0.2091
  444poe     o2 3164   0.785   1.202   5.463  0.1737  0.1950  0.2024
  444poe    c23 3165   0.667   1.195   5.386 -0.3302  0.2639  0.9602
  444poe    c23 3166   0.583   1.089   5.460 -0.7881 -0.4787 -0.5937
  444poe     o2 3167   0.589   1.110   5.599 -0.0236  0.5207 -0.7692
  444poe    c31 3168   0.510   1.025   5.679  0.3742  0.0899 -0.8293
  445poe    c31 3169   1.227   0.596   5.946 -0.1323  0.4217  0.1811
  445poe     o2 3170   1.364   0.574   5.968 -0.1940 -0.2573 -0.0950
  445poe    c23 3171   1.388   0.451   6.032  0.0368 -0.2752 -0.2176
  445poe    c23 3172   1.539   0.440   6.062 -0.1352 -0.1850  0.6935
  445poe     o2 3173   1.597   0.462   5.935 -0.5572  0.0385  0.5390
  445poe    c23 3174   1.736   0.478   5.951 -0.5499  0.1795  0.3381
  445poe    c23 3175   1.782   0.531   5.814  0.2307 -0.3939  0.3777
  445poe     o2 3176   1.700   0.644   5.796  0.7376 -0.0806  0.0149
  445poe    c23 3177   1.682   0.688   5.663  0.2681  0.1777  0.1626
  445poe    c23 3178   1.564   0.785   5.680  0.2259  0.0846  0.4111
  445poe     o2 3179   1.459   0.709   5.736  0.3738 -0.2163  0.2799
  445poe    c31 3180   1.339   0.776   5.708  0.2901 -0.3946  0.2069
  446poe    c31 3181   4.602   4.634   6.668  0.0489  0.0704 -0.0856
  446poe     o2 3182   4.503   4.637   6.767  0.3117  0.3068  0.1731
  446poe    c23 3183   4.435   4.760   6.779 -1.0763 -0.4032 -0.1112
  446poe    c23 3184   4.474   4.828   6.911 -0.4541 -0.1162 -0.4349
  446poe     o2 3185   4.445   4.726   7.004 -0.0465 -0.2185 -0.4212
  446poe    c23 3186   4.523   4.733   7.122  0.0499  0.3097 -0.5148
  446poe    c23 3187   4.659   4.665   7.098  0.1966  0.3306  0.2474
  446poe     o2 3188   4.625   4.536   7.054 -0.2594  0.3987  0.3989
  446poe    c23 3189   4.728   4.469   6.984 -0.4053 -0.1281  0.6811
  446poe    c23 3190   4.682   4.340   6.913  0.0803 -0.1180  0.3423
  446poe     o2 3191   4.554   4.366   6.858  0.0143 -0.2671  0.4253
  446poe    c31 3192   4.528   4.274   6.754  0.0508  0.5403 -0.3060
  447poe    c31 3193   2.952   2.030   2.342  0.0667  0.7721 -0.3128
  447poe     o2 3194   3.011   1.928   2.264  0.1954  0.2811  0.4150
  447poe    c23 3195   3.002   1.805   2.332 -0.6548  0.0873 -0.0263
  447poe    c23 3196   3.114   1.729   2.258 -0.6043 -0.0430  0.1831
  447poe     o2 3197   3.087   1.756   2.123 -0.7885  0.4444  0.3135
  447poe    c23 3198   3.048   1.637   2.056  0.2033  0.0723  0.3857
  447poe    c23 3199   3.002   1.679   1.916  0.0878  0.0719  0.4235
  447poe     o2 3200   2.925   1.793   1.948 -0.5895 -0.3254  0.2294
  447poe    c23 3201   2.878   1.861   1.834  0.3554  0.1132  0.0985
  447poe    c23 3202   2.828   1.997   1.886  0.2102  0.2129 -0.2984
  447poe     o2 3203   2.907   2.041   1.995  0.2519  0.0306 -0.2554
  447poe    c31 3204   2.887   2.178   2.019 -0.4673 -0.0413 -0.4203
  448poe    c31 3205   2.853   3.190   4.142 -0.4526  0.9169 -0.5868
  448poe     o2 3206   2.725   3.247   4.127 -0.7842  0.3116 -0.1304
  448poe    c23 3207   2.614   3.168   4.165 -0.3218 -0.5198 -0.4900
  448poe    c23 3208   2.490   3.252   4.131  0.1398  0.4314  0.1287
  448poe     o2 3209   2.463   3.282   3.996  0.0526  0.3170  0.1208
  448poe    c23 3210   2.362   3.379   3.981  0.0991  0.3430 -0.0239
  448poe    c23 3211   2.359   3.442   3.840  0.0757 -0.4483 -0.3798
  448poe     o2 3212   2.483   3.501   3.811 -0.0432 -0.1433 -0.2686
  448poe    c23 3213   2.459   3.556   3.683 -0.1242 -0.5546 -0.4316
  448poe    c23 3214   2.577   3.655   3.666 -0.3921 -0.0399  0.6022
  448poe     o2 3215   2.690   3.573   3.686 -0.2506  0.0405  0.1414
  448poe    c31 3216   2.806   3.653   3.674 -0.2101  0.0483  0.5592
  449poe    c31 3217   5.362   1.805   0.960 -0.1167 -0.2291 -0.0519
  449poe     o2 3218   5.243   1.872   0.925  0.4391  0.5244 -0.5390
  449poe    c23 3219   5.204   1.970   1.018  0.1829 -0.0662 -0.0180
  449poe    c23 3220   5.079   2.050   0.978  0.4096  0.1548 -0.2880
  449poe     o2 3221   4.965   1.967   0.980  0.3461  0.2459  0.0457
  449poe    c23 3222   4.853   2.042   0.938  0.1785 -0.0422 -0.0275
  449poe    c23 3223   4.727   1.955   0.952  0.1358  0.1539  0.8802
  449poe     o2 3224   4.755   1.829   0.896 -0.5916  0.4411 -0.1701
  449poe    c23 3225   4.650   1.736   0.894 -0.3154  0.1354 -0.7436
  449poe    c23 3226   4.690   1.607   0.819 -0.4928 -0.5782  0.3612
  449poe     o2 3227   4.821   1.591   0.869 -0.6368 -0.2250  0.8624
  449poe    c31 3228   4.879   1.474   0.816  0.1350  0.2846  0.5734
  450poe    c31 3229   0.997   4.450   0.288 -0.0825  0.0972  0.1586
  450poe     o2 3230   1.020   4.347   0.382 -0.4309  0.0940  0.2416
  450poe    c23 3231   0.989   4.411   0.504 -0.1733  0.0859  0.3126
  450poe    c23 3232   1.019   4.305   0.612 -0.5096 -0.8647 -0.5021
  450poe     o2 3233   1.153   4.263   0.599 -0.1624 -0.0097  0.2323
  450poe    c23 3234   1.195   4.161   0.687 -0.2057 -0.0396  0.2183
  450poe    c23 3235   1.322   4.100   0.625 -0.3397 -0.2774  0.1764
  450poe     o2 3236   1.287   4.100   0.488  0.3156  0.3148  0.0019
  450poe    c23 3237   1.396   4.049   0.414  0.0219 -0.3732  0.0392
  450poe    c23 3238   1.331   4.028   0.276  0.1921  0.0945 -0.1145
  450poe     o2 3239   1.252   4.142   0.250  0.0621  0.1062  0.3259
  450poe    c31 3240   1.191   4.126   0.124 -0.2774  0.0453  0.4964
  451poe    c31 3241   3.359   3.579   6.106 -0.1203 -0.1673  0.2683
  451poe     o2 3242   3.350   3.640   5.979 -0.4383  0.1859  0.4610
  451poe    c23 3243   3.224   3.631   5.917 -0.2896 -0.5019  0.2517
  451poe    c23 3244   3.217   3.711   5.786 -0.0312 -0.6502  0.1467
  451poe     o2 3245   3.281   3.651   5.676 -0.0343  0.1090 -0.2802
  451poe    c23 3246   3.277   3.748   5.574  0.2109  0.8206  0.3746
  451poe    c23 3247   3.330   3.689   5.441 -0.0694  0.3923  0.4502
  451poe     o2 3248   3.444   3.609   5.459 -0.3596 -0.1694 -0.1909
  451poe    c23 3249   3.480   3.564   5.331 -0.2235  0.5106 -0.3920
  451poe    c23 3250   3.611   3.483   5.331 -0.4924  0.0674  0.2553
  451poe     o2 3251   3.598   3.360   5.398  0.3504 -0.3452 -0.3134
  451poe    c31 3252   3.722   3.294   5.410  0.4803 -0.1150 -0.3755
  452poe    c31 3253   0.055   3.210   2.787  0.3659  0.1348  0.4663
  452poe     o2 3254   0.178   3.261   2.742  0.2685  0.0916  0.1453
  452poe    c23 3255   0.270   3.266   2.849  0.4275 -0.0429  0.0156
  452poe    c23 3256   0.401   3.327   2.794  0.2836 -0.2620 -0.5725
  452poe     o2 3257   0.350   3.427   2.709  0.0858 -0.4407 -0.6657
  452poe    c23 3258   0.452   3.515   2.668 -0.4808  0.7967  0.4983
  452poe    c23 3259   0.371   3.610   2.578  0.1895  0.2107 -0.7514
  452poe     o2 3260   0.274   3.543   2.500 -0.5148  0.4693 -0.1048
  452poe    c23 3261   0.307   3.505   2.368  0.0066 -0.2543  0.2222
  452poe    c23 3262   0.245   3.365   2.350 -0.0908 -0.1743 -0.0632
  452poe     o2 3263   0.271   3.289   2.465 -0.0157  0.0255  0.0529
  452poe    c31 3264   0.240   3.154   2.440  0.2199  0.0727 -0.5014
  453poe    c31 3265   0.889   4.846   0.556 -0.5875 -0.8232 -0.1778
  453poe     o2 3266   0.852   4.863   0.421 -0.0606  0.3934 -0.1812
  453poe    c23 3267   0.965   4.864   0.338 -0.0492 -0.6414 -0.1928
  453poe    c23 3268   0.912   4.878   0.194 -0.3211 -0.5640 -0.0851
  453poe     o2 3269   0.797   4.959   0.196 -0.5372 -0.8603 -0.4247
  453poe    c23 3270   0.730   4.963   0.072  0.0113 -0.0424 -0.7019
  453poe    c23 3271   0.599   5.040   0.094  0.1030 -0.1510  0.2665
  453poe     o2 3272   0.567   4.994   0.223 -0.0893  0.1762  0.3358
  453poe    c23 3273   0.457   5.062   0.281 -0.1269  0.1899  0.2490
  453poe    c23 3274   0.445   4.985   0.414 -0.0591  0.0211  0.1589
  453poe     o2 3275   0.567   4.963   0.481 -0.2855 -0.8512  0.2925
  453poe    c31 3276   0.542   4.919   0.612 -0.1675 -0.4149  0.4619
  454poe    c31 3277   1.809   1.475   4.763  0.0736 -0.0198  0.2237
  454poe     o2 3278   1.677   1.520   4.745  0.2095  0.3597  0.1539
  454poe    c23 3279   1.614   1.551   4.867 -0.2009  0.2106 -0.0168
  454poe    c23 3280   1.473   1.604   4.833  0.0320  0.8397 -0.0179
  454poe     o2 3281   1.414   1.522   4.735  0.3815  0.6253 -0.0522
  454poe    c23 3282   1.275   1.542   4.724  0.2368 -0.2267  0.1177
  454poe    c23 3283   1.225   1.479   4.593 -0.6732  0.2605  0.2209
  454poe     o2 3284   1.304   1.507   4.480 -0.6427  0.0496  0.1894
  454poe    c23 3285   1.269   1.429   4.368  0.5721 -0.3689  0.0862
  454poe    c23 3286   1.304   1.514   4.245  0.0260 -0.0263  0.1662
  454poe     o2 3287   1.442   1.506   4.215  0.0210  0.2867  0.0505
  454poe    c31 3288   1.459   1.569   4.091 -0.3860  0.3553  0.0277
  455poe    c31 3289   4.048   3.001   2.842 -0.2701  0.3013  0.2745
  455poe     o2 3290   4.139   3.098   2.889  0.1572  0.0237  0.0313
  455poe    c23 3291   4.104   3.231   2.859 -0.0252 -0.0837 -0.2359
  455poe    c23 3292   4.199   3.312   2.949 -0.4641  0.5359 -0.3198
  455poe     o2 3293   4.334   3.275   2.929 -0.4711  0.2179  0.1911
  455poe    c23 3294   4.412   3.321   3.036 -0.2038 -0.1406  0.1529
  455poe    c23 3295   4.561   3.307   3.001 -0.2093  0.1185  0.0208
  455poe     o2 3296   4.583   3.175   2.954 -0.6639 -0.0142  0.1767
  455poe    c23 3297   4.705   3.180   2.883 -0.6664 -0.0672  0.1689
  455poe    c23 3298   4.762   3.046   2.833  0.3840  0.1673  0.6927
  455poe     o2 3299   4.685   3.017   2.718  0.1819 -0.0749  0.8875
  455poe    c31 3300   4.776   2.965   2.624 -0.2792  0.8053 -0.0637
  456poe    c31 3301   1.138   4.367   2.613 -0.1921 -0.1660 -0.4488
  456poe     o2 3302   1.218   4.278   2.688 -0.1368  0.4341  0.2189
  456poe    c23 3303   1.146   4.164   2.730  0.2027  0.0971 -0.1042
  456poe    c23 3304   1.236   4.049   2.779  0.0795  0.2282  0.4339
  456poe     o2 3305   1.299   3.975   2.676 -0.1414  0.3864  0.1844
  456poe    c23 3306   1.421   4.033   2.638 -0.2520  0.1350 -0.5750
  456poe    c23 3307   1.490   3.954   2.525  0.0089 -0.3041 -0.1110
  456poe     o2 3308   1.479   3.823   2.577  0.1095 -0.0411  0.5875
  456poe    c23 3309   1.536   3.733   2.485  0.1636  0.3715  0.2114
  456poe    c23 3310   1.525   3.589   2.539 -0.1197  0.5311  0.5802
  456poe     o2 3311   1.390   3.559   2.567 -0.2251  0.2147 -0.2373
  456poe    c31 3312   1.337   3.489   2.457 -0.0974 -0.7596  0.3064
  457poe    c31 3313   3.797   5.031   2.040  0.1003  0.0918 -0.1167
  457poe     o2 3314   3.827   5.168   2.062  0.0729  0.1063 -0.1709
  457poe    c23 3315   3.760   5.231   1.955 -0.2789 -0.6136 -0.3892
  457poe    c23 3316   3.709   5.364   2.015  0.4282 -0.3879 -0.2732
  457poe     o2 3317   3.816   5.423   2.086  0.2053 -0.1357 -0.1464
  457poe    c23 3318   3.762   5.549   2.120  0.9764  0.1352  0.0931
  457poe    c23 3319   3.851   5.671   2.149 -0.0017  0.7531  0.5472
  457poe     o2 3320   3.905   5.720   2.029 -0.3694 -0.4944 -0.1418
  457poe    c23 3321   3.865   5.848   1.984  0.7244 -0.1109 -0.0395
  457poe    c23 3322   3.983   5.947   1.979  0.4550  0.2090 -0.0612
  457poe     o2 3323   4.091   5.897   1.903  0.3154 -0.1404 -0.0346
  457poe    c31 3324   4.195   5.991   1.884  0.6093 -0.6261 -0.8283
  458poe    c31 3325   1.660   4.019   2.938  0.2718  0.5764  0.2414
  458poe     o2 3326   1.551   3.931   2.923  0.6119  0.0406  0.8133
  458poe    c23 3327   1.596   3.801   2.895 -0.3625 -0.0496 -0.4430
  458poe    c23 3328   1.472   3.713   2.920 -0.0909 -0.3118 -0.0122
  458poe     o2 3329   1.369   3.728   2.825  0.0594  0.3249 -0.0793
  458poe    c23 3330   1.247   3.683   2.880  0.2075 -0.1185 -0.1072
  458poe    c23 3331   1.154   3.633   2.767 -0.3611 -0.2029  0.3952
  458poe     o2 3332   1.151   3.734   2.669  0.5107 -0.5765 -0.0261
  458poe    c23 3333   1.049   3.724   2.572 -0.0853  0.4007  0.4793
  458poe    c23 3334   1.024   3.859   2.503  0.1744  0.2284  0.0450
  458poe     o2 3335   1.138   3.908   2.438 -0.0001 -0.4133 -0.7653
  458poe    c31 3336   1.110   4.001   2.335 -0.1630  0.0186 -0.3357
  459poe    c31 3337   0.511   3.663   0.136  0.6571  0.4271 -0.8692
  459poe     o2 3338   0.397   3.680   0.054 -0.0385 -0.2365 -0.0659
  459poe    c23 3339   0.401   3.816   0.019 -0.5084 -0.1133  0.3591
  459poe    c23 3340   0.308   3.839  -0.102 -0.2361 -0.3682  0.1015
  459poe     o2 3341   0.191   3.762  -0.092 -0.4280 -0.0696  0.1752
  459poe    c23 3342   0.110   3.747  -0.207 -0.2840 -0.1494  0.0842
  459poe    c23 3343   0.015   3.645  -0.144 -0.0598 -0.0790  0.5449
  459poe     o2 3344   0.099   3.552  -0.079  0.2242 -0.5423 -0.4607
  459poe    c23 3345   0.018   3.465  -0.002 -0.1242  0.2402  0.0730
  459poe    c23 3346   0.107   3.357   0.061 -0.3507  0.2974  0.4965
  459poe     o2 3347   0.228   3.409   0.113  0.0448 -0.0526 -0.0556
  459poe    c31 3348   0.311   3.314   0.177 -0.0567  0.0571  0.2410
  460poe    c31 3349   0.390   4.839   5.480 -0.5732 -0.2995  0.3616
  460poe     o2 3350   0.263   4.831   5.541 -0.8996  0.0955 -0.2559
  460poe    c23 3351   0.179   4.886   5.442 -0.4106  0.0361 -0.7087
  460poe    c23 3352   0.032   4.867   5.483 -0.1162 -0.4587  0.1416
  460poe     o2 3353   0.039   4.905   5.619  0.2710 -0.4902  0.1313
  460poe    c23 3354  -0.085   4.913   5.686  0.0983  0.1745 -0.2633
  460poe    c23 3355  -0.042   4.918   5.833  0.2249  0.9973 -0.3232
  460poe     o2 3356   0.068   4.830   5.845  0.0386  0.8156  0.1077
  460poe    c23 3357   0.137   4.838   5.968  0.1948  0.0862  0.0724
  460poe    c23 3358   0.262   4.748   5.963  0.0577 -0.1063  0.1208
  460poe     o2 3359   0.330   4.772   5.842  0.3154  0.1119  0.3073
  460poe    c31 3360   0.435   4.679   5.846  0.4899  0.2966  0.0617
  461poe    c31 3361   6.700   1.346   1.276 -0.2637  0.2530  0.3206
  461poe     o2 3362   6.612   1.237   1.296 -0.1165  0.0683 -0.0253
  461poe    c23 3363   6.689   1.124   1.265  0.5579  0.3346  0.6445
  461poe    c23 3364   6.628   1.005   1.342 -0.8476  0.5137 -0.1522
  461poe     o2 3365   6.489   1.008   1.324 -0.8443 -0.0515 -0.2795
  461poe    c23 3366   6.412   0.901   1.376 -0.3106 -0.8296 -1.0677
  461poe    c23 3367   6.261   0.928   1.382 -0.1639 -0.1291 -0.2023
  461poe     o2 3368   6.217   1.048   1.440  0.4882 -0.2174  0.4892
  461poe    c23 3369   6.251   1.065   1.576 -0.6900  0.2440  0.7432
  461poe    c23 3370   6.297   1.210   1.597 -0.1633  0.1487  0.3024
  461poe     o2 3371   6.412   1.251   1.528 -0.1210 -0.1472  0.1966
  461poe    c31 3372   6.442   1.387   1.551 -0.2437 -0.0777 -0.0499
  462poe    c31 3373   2.397   4.302   0.628 -0.2468  0.0605  0.3446
  462poe     o2 3374   2.497   4.211   0.667  0.1244  0.1278 -0.4164
  462poe    c23 3375   2.421   4.092   0.662 -0.1158  0.2656 -0.0362
  462poe    c23 3376   2.517   3.995   0.732  0.0542  0.9013  0.6229
  462poe     o2 3377   2.646   4.019   0.678 -0.0965 -0.4279 -0.3725
  462poe    c23 3378   2.733   3.969   0.777 -0.1879  0.7100  0.3034
  462poe    c23 3379   2.866   4.048   0.776  0.0715  0.2795  0.3371
  462poe     o2 3380   2.822   4.181   0.788 -0.6253  0.1650 -0.7789
  462poe    c23 3381   2.921   4.281   0.793 -0.3368 -0.1446 -0.1887
  462poe    c23 3382   2.851   4.414   0.761  0.1465  0.2522  0.3797
  462poe     o2 3383   2.723   4.394   0.705  0.2310  0.3230  0.1631
  462poe    c31 3384   2.642   4.509   0.710  0.3808  0.4721 -0.5783
  463poe    c31 3385   0.115   1.713   0.206  0.1636  0.1367 -0.5240
  463poe     o2 3386   0.196   1.808   0.270 -0.2338  0.2431 -0.1736
  463poe    c23 3387   0.143   1.939   0.279  0.0684  0.3438  0.1589
  463poe    c23 3388   0.240   2.043   0.220 -0.1480  0.4040 -0.0943
  463poe     o2 3389   0.359   2.031   0.295 -0.3075 -0.5187  0.0245
  463poe    c23 3390   0.464   2.119   0.261 -0.3683 -0.3438  0.2925
  463poe    c23 3391   0.575   2.074   0.358  0.0062  0.0473  0.0475
  463poe     o2 3392   0.581   1.933   0.366  0.0365  0.0373 -0.1531
  463poe    c23 3393   0.597   1.881   0.496  0.0907 -0.5183 -0.3817
  463poe    c23 3394   0.565   1.731   0.484 -0.6612 -0.4319  0.5009
  463poe     o2 3395   0.439   1.716   0.421 -0.3927 -0.3190 -0.0657
  463poe    c31 3396   0.394   1.582   0.426 -0.0984 -0.3918  0.8712
  464poe    c31 3397   2.168   1.061   1.319 -0.2077 -0.0653 -0.0081
  464poe     o2 3398   2.180   0.937   1.386 -0.2704  0.0697  0.2539
  464poe    c23 3399   2.059   0.935   1.458 -0.3439  0.1260  0.1335
  464poe    c23 3400   2.042   0.798   1.526 -0.5036  0.0889  0.0176
  464poe     o2 3401   2.169   0.779   1.584 -0.5003  0.1485  0.0300
  464poe    c23 3402   2.181   0.668   1.671  0.0812  0.2121  0.0365
  464poe    c23 3403   2.325   0.690   1.720 -0.0365  0.2314  0.3765
  464poe     o2 3404   2.420   0.743   1.629 -0.3189  0.1379  0.0245
  464poe    c23 3405   2.496   0.644   1.564 -0.5486 -0.0074 -0.0248
  464poe    c23 3406   2.555   0.722   1.445 -0.1659 -0.3619 -0.0687
  464poe     o2 3407   2.459   0.812   1.396  0.0586  0.0665  0.2704
  464poe    c31 3408   2.493   0.858   1.267  0.0450 -1.1544 -0.1788
  465poe    c31 3409   0.604   6.603   3.845 -0.1942 -0.6018  0.2530
  465poe     o2 3410   0.687   6.688   3.921 -0.2367 -0.0741 -0.2845
  465poe    c23 3411   0.816   6.672   3.867 -0.3088  0.0683 -0.4996
  465poe    c23 3412   0.908   6.777   3.932 -0.2495  0.1146 -0.6564
  465poe     o2 3413   0.828   6.892   3.951 -0.4103 -0.2383  0.9669
  465poe    c23 3414   0.886   6.993   4.031 -0.1468  0.0679  0.3974
  465poe    c23 3415   0.769   7.067   4.099 -0.3965  0.5349 -0.5196
  465poe     o2 3416   0.671   6.969   4.124  0.2746 -0.0960 -0.3020
  465poe    c23 3417   0.552   7.022   4.180 -0.1374 -0.4931 -0.7875
  465poe    c23 3418   0.458   6.901   4.192 -0.7824  0.0766 -0.0018
  465poe     o2 3419   0.469   6.833   4.069 -0.1851  0.1031  0.0306
  465poe    c31 3420   0.352   6.754   4.060 -0.0929 -0.0363  0.0475
  466poe    c31 3421   3.005   4.141   4.288 -0.5988 -0.4099  0.1065
  466poe     o2 3422   3.027   4.019   4.356 -0.6671 -0.4605  0.0365
  466poe    c23 3423   3.008   4.059   4.490  0.0811  0.2313 -0.0585
  466poe    c23 3424   3.059   3.949   4.586  0.2678  0.3234 -0.0512
  466poe     o2 3425   2.997   3.827   4.554 -0.0040  0.3836  0.2411
  466poe    c23 3426   3.061   3.721   4.623 -0.1347  0.3380  0.2922
  466poe    c23 3427   3.006   3.598   4.548 -0.2404  0.2449  0.5183
  466poe     o2 3428   2.984   3.638   4.414  0.1245  0.1860  0.4382
  466poe    c23 3429   3.052   3.559   4.320  0.4612  0.5571  0.3676
  466poe    c23 3430   3.044   3.639   4.189  0.5717  0.2403  0.1658
  466poe     o2 3431   3.069   3.777   4.203 -0.1342  0.3684  0.1888
  466poe    c31 3432   3.059   3.839   4.077 -0.3102 -0.0934 -0.0272
  467poe    c31 3433   5.753   1.477   1.753  0.4064 -0.2661  0.8103
  467poe     o2 3434   5.773   1.357   1.683 -0.4477  0.2141 -0.2895
  467poe    c23 3435   5.830   1.270   1.779 -0.5237  0.2997 -0.1679
  467poe    c23 3436   5.813   1.129   1.721 -0.2488  0.1588  0.0956
  467poe     o2 3437   5.833   1.148   1.582  0.0536  0.0716  0.1253
  467poe    c23 3438   5.865   1.027   1.517 -0.1023  0.3451 -0.4647
  467poe    c23 3439   5.869   1.035   1.364 -0.3881  0.2659 -0.4779
  467poe     o2 3440   5.735   1.056   1.326 -0.5714  0.3166  0.1990
  467poe    c23 3441   5.739   1.090   1.189 -0.1829  0.0607  0.1460
  467poe    c23 3442   5.613   1.161   1.136 -0.1681  0.4545  0.6291
  467poe     o2 3443   5.599   1.290   1.192  0.3558  0.3268  1.0600
  467poe    c31 3444   5.481   1.357   1.153  0.5092 -0.2008 -0.3639
  468poe    c31 3445   1.621   3.962   5.377  0.1133 -0.2385 -0.2109
  468poe     o2 3446   1.674   3.858   5.297 -0.1095 -0.1964 -0.4114
  468poe    c23 3447   1.810   3.881   5.269 -0.1577  0.2413 -0.3080
  468poe    c23 3448   1.895   3.760   5.225 -0.5837 -0.1930  0.0557
  468poe     o2 3449   1.803   3.704   5.135 -0.0990  0.0059 -0.5691
  468poe    c23 3450   1.812   3.564   5.116  0.5929 -0.0325  0.0067
  468poe    c23 3451   1.695   3.513   5.030  0.1953 -0.3070  0.7041
  468poe     o2 3452   1.584   3.590   5.072 -0.0306 -0.3526  0.2025
  468poe    c23 3453   1.482   3.607   4.977  0.3411  0.2291 -0.0989
  468poe    c23 3454   1.380   3.706   5.035  0.3238 -0.0263  0.3026
  468poe     o2 3455   1.458   3.806   5.096  0.4291  0.2887 -0.3427
  468poe    c31 3456   1.382   3.925   5.087 -0.1275  0.0077  0.4707
  469poe    c31 3457   4.122   2.932   6.052 -0.4781  0.0304  0.0328
  469poe     o2 3458   4.150   2.838   6.153  0.3980  0.0147 -0.2233
  469poe    c23 3459   4.289   2.836   6.179  0.3893  1.2022 -0.0437
  469poe    c23 3460   4.315   2.785   6.322 -0.5451 -0.0421 -0.3027
  469poe     o2 3461   4.249   2.662   6.340 -0.1229 -0.1612  0.4709
  469poe    c23 3462   4.259   2.623   6.475  0.1536  0.3254  0.5924
  469poe    c23 3463   4.161   2.505   6.490  0.3467  0.1419  0.4162
  469poe     o2 3464   4.036   2.550   6.443  0.3231  0.1741  0.5120
  469poe    c23 3465   3.931   2.465   6.484  0.0258  0.3741  0.1717
  469poe    c23 3466   3.787   2.505   6.446  0.0950 -0.1010 -0.6219
  469poe     o2 3467   3.754   2.633   6.496 -0.2106 -0.3601 -0.1471
  469poe    c31 3468   3.682   2.628   6.617 -0.2407  0.1977 -0.1358
  470poe    c31 3469   0.303   1.590   2.955 -0.5300 -0.6688 -0.2358
  470poe     o2 3470   0.194   1.660   2.899 -0.1268  0.1951  0.0415
  470poe    c23 3471   0.219   1.799   2.901 -0.1422  0.1968  0.1003
  470poe    c23 3472   0.095   1.864   2.836 -0.2091 -0.2556 -0.2281
  470poe     o2 3473  -0.013   1.798   2.899 -0.0736 -0.2987 -0.0403
  470poe    c23 3474  -0.133   1.840   2.838 -0.1862 -0.4052  0.1085
  470poe    c23 3475  -0.241   1.743   2.890 -0.0624 -0.6110 -0.0155
  470poe     o2 3476  -0.184   1.614   2.892  0.2569 -0.4706 -0.1353
  470poe    c23 3477  -0.231   1.532   2.996 -0.1983  0.5601  0.4869
  470poe    c23 3478  -0.162   1.570   3.128  0.1862 -0.5601  0.6184
  470poe     o2 3479  -0.026   1.582   3.092 -0.0623  0.9355  0.1189
  470poe    c31 3480   0.047   1.605   3.210 -0.3346 -0.5371  0.5880
  471poe    c31 3481   1.041   3.147   5.714 -0.8112 -0.8685  0.0322
  471poe     o2 3482   0.955   3.219   5.628 -0.0958  0.1306  0.1359
  471poe    c23 3483   0.951   3.355   5.662  0.3780  0.1774  0.0130
  471poe    c23 3484   0.827   3.436   5.618  0.4533  0.1425 -0.2612
  471poe     o2 3485   0.818   3.447   5.477  0.1952 -0.0208 -0.2573
  471poe    c23 3486   0.693   3.505   5.448 -0.1722 -0.4018  0.5346
  471poe    c23 3487   0.712   3.564   5.307 -0.3585 -0.5554  0.4442
  471poe     o2 3488   0.802   3.482   5.235  0.5453  0.7122  0.1041
  471poe    c23 3489   0.834   3.524   5.104  0.2650 -0.4208 -0.3400
  471poe    c23 3490   0.932   3.417   5.051  0.1367 -0.6383 -0.1365
  471poe     o2 3491   1.005   3.375   5.164  0.1453  0.4488  0.2754
  471poe    c31 3492   1.138   3.361   5.118  0.0820  0.6982  0.0086
  472poe    c31 3493   5.583   5.474   4.601  0.2816  0.0802 -0.0722
  472poe     o2 3494   5.502   5.405   4.508  0.3102 -0.3719  0.2338
  472poe    c23 3495   5.488   5.277   4.567 -0.3074 -0.2306  0.3950
  472poe    c23 3496   5.446   5.168   4.467  0.1137  0.1170 -0.1664
  472poe     o2 3497   5.363   5.251   4.388  0.0521  0.0529 -0.1698
  472poe    c23 3498   5.318   5.187   4.271  0.4454  0.0866 -0.3407
  472poe    c23 3499   5.246   5.293   4.186  0.0969 -0.2164 -0.4217
  472poe     o2 3500   5.335   5.400   4.202 -0.4296  0.1965 -0.2188
  472poe    c23 3501   5.272   5.523   4.176 -0.2351  0.3927  0.2137
  472poe    c23 3502   5.373   5.632   4.216 -0.0496  0.2267  0.1963
  472poe     o2 3503   5.440   5.603   4.336  0.5286  0.5418 -0.0458
  472poe    c31 3504   5.510   5.721   4.368  0.9577  0.3956 -0.4326
  473poe    c31 3505   5.696   4.197   2.356  0.4865 -0.2815  0.2558
  473poe     o2 3506   5.595   4.098   2.370  0.4067 -0.1790  0.4001
  473poe    c23 3507   5.595   4.002   2.268 -0.2170  0.3192 -0.0779
  473poe    c23 3508   5.477   3.903   2.268 -0.1194  0.2002 -0.3697
  473poe     o2 3509   5.462   3.829   2.388  0.2667  0.0060 -0.4389
  473poe    c23 3510   5.359   3.734   2.373 -0.0123  0.2573 -0.1241
  473poe    c23 3511   5.341   3.653   2.503  0.6277  0.1819 -0.0793
  473poe     o2 3512   5.350   3.747   2.608 -0.0776  0.5784 -0.3674
  473poe    c23 3513   5.296   3.693   2.727  0.0944 -0.0277 -0.5635
  473poe    c23 3514   5.288   3.791   2.845 -0.0639  0.3431 -0.8800
  473poe     o2 3515   5.401   3.870   2.818  0.3469  0.1623  0.2678
  473poe    c31 3516   5.405   3.975   2.911  0.3040  0.2457  0.1747
  474poe    c31 3517   4.501   2.157   3.333  0.0453 -0.5422 -0.0263
  474poe     o2 3518   4.443   2.131   3.458 -0.3686 -0.0864 -0.1235
  474poe    c23 3519   4.511   2.029   3.529 -0.0566  0.3786  0.2558
  474poe    c23 3520   4.426   2.004   3.654 -0.7757 -0.0286 -0.3038
  474poe     o2 3521   4.394   2.133   3.701 -0.1468  0.3098 -0.8049
  474poe    c23 3522   4.285   2.138   3.789  1.1784 -0.2527  0.9205
  474poe    c23 3523   4.273   2.290   3.812 -0.4333 -0.1868 -0.1776
  474poe     o2 3524   4.287   2.345   3.683  0.3383 -0.3289 -0.1608
  474poe    c23 3525   4.272   2.484   3.666  0.4694 -0.3126 -0.1386
  474poe    c23 3526   4.250   2.501   3.514 -0.0740  0.7084  0.0478
  474poe     o2 3527   4.366   2.439   3.463 -0.7084 -0.2799 -0.2203
  474poe    c31 3528   4.398   2.469   3.329 -0.3226  0.0406 -0.0583
  475poe    c31 3529   0.668   5.045   2.850  0.1485  0.2284 -0.1656
  475poe     o2 3530   0.634   4.922   2.909 -0.3261  0.3211 -0.2398
  475poe    c23 3531   0.496   4.923   2.939 -0.2796 -0.2021  0.0117
  475poe    c23 3532   0.461   4.819   3.046 -0.4089 -0.1121  0.0558
  475poe     o2 3533   0.524   4.699   3.007 -0.1013  0.0141  0.1669
  475poe    c23 3534   0.570   4.625   3.118 -0.4250 -0.1639  0.1828
  475poe    c23 3535   0.666   4.515   3.070 -0.4132  0.0219 -0.2222
  475poe     o2 3536   0.756   4.565   2.974  0.3553 -0.2418  0.3440
  475poe    c23 3537   0.776   4.493   2.854  0.1180  0.3107 -0.0302
  475poe    c23 3538   0.822   4.583   2.737 -0.0810  0.2818 -0.1309
  475poe     o2 3539   0.799   4.718   2.771  0.0366  0.2136  0.2228
  475poe    c31 3540   0.825   4.795   2.656  0.0484 -0.3165 -0.1299
  476poe    c31 3541   3.492   5.117   6.760  0.5296 -0.1598  0.1824
  476poe     o2 3542   3.422   5.218   6.829  0.1114 -0.3762  0.0835
  476poe    c23 3543   3.416   5.189   6.967 -0.7030 -0.1659  0.0971
  476poe    c23 3544   3.347   5.313   7.027  0.2847  0.2687  0.3595
  476poe     o2 3545   3.420   5.426   6.986 -0.1367  0.2396 -0.4974
  476poe    c23 3546   3.368   5.551   7.026  0.0979  0.1663  0.0462
  476poe    c23 3547   3.398   5.671   6.934 -0.0035 -0.3543 -0.6724
  476poe     o2 3548   3.364   5.635   6.802  0.3715 -0.4652 -0.7395
  476poe    c23 3549   3.371   5.756   6.730 -0.0698 -0.0060 -0.0187
  476poe    c23 3550   3.285   5.772   6.603 -0.0351  0.2726 -0.0082
  476poe     o2 3551   3.152   5.792   6.648 -0.1672  0.3691 -0.4384
  476poe    c31 3552   3.065   5.733   6.554  0.0099  0.2037 -0.5007
  477poe    c31 3553   2.209   5.862   3.873 -0.2616 -0.0167  0.4823
  477poe     o2 3554   2.259   5.989   3.907  0.2653  0.0196 -0.4013
  477poe    c23 3555   2.394   6.008   3.872  0.2159  0.2977 -0.4487
  477poe    c23 3556   2.456   6.143   3.911  0.7399 -0.0200 -0.1679
  477poe     o2 3557   2.360   6.246   3.904  0.3542 -0.3654  0.0399
  477poe    c23 3558   2.418   6.374   3.913 -0.2030 -0.1300  0.3417
  477poe    c23 3559   2.322   6.481   3.859  0.0359  0.2033  0.5776
  477poe     o2 3560   2.201   6.452   3.925  0.0912 -0.0578  0.5616
  477poe    c23 3561   2.109   6.558   3.922  0.3903  0.1907 -1.0881
  477poe    c23 3562   1.971   6.502   3.962  0.7838  0.2661  0.4522
  477poe     o2 3563   1.971   6.363   3.935  0.2661  0.4432 -0.5115
  477poe    c31 3564   1.844   6.313   3.970  0.8336 -0.5224  0.2103
  478poe    c31 3565   5.354   0.741   4.459  0.9258  0.6082 -0.4622
  478poe     o2 3566   5.434   0.653   4.383 -0.1216 -0.4570 -0.3484
  478poe    c23 3567   5.566   0.680   4.424 -0.4832  0.2203  0.3857
  478poe    c23 3568   5.640   0.566   4.353 -0.2292  0.6749 -0.0820
  478poe     o2 3569   5.602   0.570   4.217 -0.2435  0.1917 -0.0947
  478poe    c23 3570   5.682   0.476   4.150 -0.7936 -0.4158  0.0949
  478poe    c23 3571   5.635   0.474   4.003 -0.3071 -0.4034 -0.0628
  478poe     o2 3572   5.508   0.421   3.974 -0.2545 -0.5984  0.0586
  478poe    c23 3573   5.450   0.470   3.855  0.4517 -0.2817 -0.1584
  478poe    c23 3574   5.438   0.365   3.743  0.3997 -0.0103 -0.4094
  478poe     o2 3575   5.347   0.266   3.785 -0.4320  0.6752 -0.5717
  478poe    c31 3576   5.325   0.185   3.672 -0.2014 -0.0843 -0.0852
  479poe    c31 3577   0.521   3.245   3.679  0.4582 -0.4969  0.2226
  479poe     o2 3578   0.503   3.327   3.566  0.6621 -0.2206  0.3860
  479poe    c23 3579   0.631   3.370   3.525  0.2426 -0.1608 -0.8956
  479poe    c23 3580   0.604   3.498   3.443  0.2287  0.1218 -0.4525
  479poe     o2 3581   0.512   3.452   3.346  0.0873 -0.2066 -0.1658
  479poe    c23 3582   0.472   3.551   3.253 -0.2697 -0.2484 -0.0553
  479poe    c23 3583   0.371   3.474   3.166 -0.5534 -0.1315  0.1679
  479poe     o2 3584   0.284   3.407   3.255 -0.1147 -0.4409  0.3671
  479poe    c23 3585   0.157   3.398   3.194 -0.0974 -0.5835  0.3526
  479poe    c23 3586   0.034   3.362   3.280 -0.5995 -0.6970 -0.4038
  479poe     o2 3587   0.047   3.410   3.412 -0.4346 -0.5197 -0.4844
  479poe    c31 3588  -0.035   3.333   3.497 -0.3535 -0.1253 -0.0462
  480poe    c31 3589   2.969   2.987   3.351 -0.0636  0.2656 -0.3305
  480poe     o2 3590   2.935   2.850   3.345  0.3613  0.1501 -0.1421
  480poe    c23 3591   2.980   2.809   3.218  0.3954 -0.4383  0.0601
  480poe    c23 3592   2.927   2.665   3.203 -0.7946  0.0317 -0.4167
  480poe     o2 3593   2.953   2.591   3.321  0.1366  0.0508 -0.6034
  480poe    c23 3594   2.932   2.454   3.294 -0.2973 -0.0361  0.1559
  480poe    c23 3595   2.947   2.375   3.425  0.2903 -0.0894  0.0614
  480poe     o2 3596   2.867   2.420   3.532 -0.3392 -0.2442 -0.3370
  480poe    c23 3597   2.913   2.364   3.653 -0.3368  0.1963 -0.1295
  480poe    c23 3598   2.822   2.409   3.769  0.3054 -0.2119  0.5390
  480poe     o2 3599   2.798   2.547   3.753  0.2937 -0.2770 -0.0227
  480poe    c31 3600   2.691   2.585   3.836  0.3096 -0.0471 -0.1073
  481poe    c31 3601   4.022   1.128   2.108 -0.6305 -0.2922 -0.2185
  481poe     o2 3602   3.936   1.215   2.037 -0.2004 -0.1458 -0.5656
  481poe    c23 3603   4.003   1.304   1.950  0.2099  0.6120  0.4975
  481poe    c23 3604   3.909   1.393   1.866  0.0170  0.3917  0.4756
  481poe     o2 3605   3.810   1.444   1.953  0.3729  0.6007  0.7655
  481poe    c23 3606   3.702   1.503   1.885 -0.1317 -0.2912  0.7744
  481poe    c23 3607   3.613   1.559   1.998 -0.5031  0.1735  0.2609
  481poe     o2 3608   3.598   1.443   2.077 -0.1971 -0.0444  0.0035
  481poe    c23 3609   3.579   1.470   2.214 -0.0526  0.4082 -0.0641
  481poe    c23 3610   3.584   1.339   2.295 -0.3004  0.4230 -0.0240
  481poe     o2 3611   3.683   1.260   2.234  0.0427  0.5776  0.3225
  481poe    c31 3612   3.702   1.134   2.294 -0.0676 -0.1148 -1.0503
  482poe    c31 3613   3.537   2.277   1.045  0.1083  0.5647 -0.1067
  482poe     o2 3614   3.549   2.230   1.177 -0.3026 -0.0216 -0.2702
  482poe    c23 3615   3.648   2.304   1.246 -0.4929  0.4895 -0.5410
  482poe    c23 3616   3.656   2.269   1.396 -0.2400 -0.0290 -0.6748
  482poe     o2 3617   3.727   2.148   1.410 -0.0255  0.1658 -0.0308
  482poe    c23 3618   3.738   2.125   1.548  0.1007 -0.0852 -0.0804
  482poe    c23 3619   3.819   1.999   1.583  0.2858  0.0881  0.1183
  482poe     o2 3620   3.745   1.904   1.511 -0.0165  0.3003  0.1454
  482poe    c23 3621   3.798   1.776   1.540 -0.2119  0.1631 -0.0946
  482poe    c23 3622   3.760   1.696   1.415 -0.0104 -0.2473  0.1043
  482poe     o2 3623   3.794   1.776   1.304 -0.0033 -0.5739 -0.1300
  482poe    c31 3624   3.774   1.712   1.179 -0.3167 -0.4950 -0.1220
  483poe    c31 3625   5.100   2.442   1.868 -0.3529 -0.3200 -0.1396
  483poe     o2 3626   5.019   2.552   1.903 -0.4027 -0.3288 -0.2250
  483poe    c23 3627   4.886   2.509   1.918 -0.3356 -0.4744 -0.0419
  483poe    c23 3628   4.775   2.615   1.937  0.0415 -0.1069  0.1128
  483poe     o2 3629   4.817   2.696   2.044  0.4021 -0.2976  0.1187
  483poe    c23 3630   4.750   2.819   2.063  0.2588 -0.4106  0.3538
  483poe    c23 3631   4.847   2.912   2.138 -0.0034  0.1374  0.0183
  483poe     o2 3632   4.966   2.910   2.062 -0.2352 -0.2223 -0.3384
  483poe    c23 3633   5.077   2.971   2.124 -0.1959  0.0201 -0.6469
  483poe    c23 3634   5.195   2.937   2.031  0.1002  0.3709 -0.4028
  483poe     o2 3635   5.177   2.802   1.994 -0.1735  0.1583  0.4653
  483poe    c31 3636   5.304   2.756   1.955 -0.3316 -0.3300  0.5261
  484poe    c31 3637   2.562   4.177   1.908  0.1038 -0.3893 -0.7722
  484poe     o2 3638   2.666   4.160   1.814  0.7787  0.1633 -0.1424
  484poe    c23 3639   2.713   4.027   1.803  0.2180 -0.0298 -0.2592
  484poe    c23 3640   2.821   4.024   1.693  0.3384  0.4524 -0.1553
  484poe     o2 3641   2.924   4.112   1.733  0.8423 -0.4542  0.5759
  484poe    c23 3642   3.009   4.150   1.627 -0.0510 -0.9774 -0.3475
  484poe    c23 3643   3.147   4.198   1.677 -0.4294 -0.1789 -0.0453
  484poe     o2 3644   3.130   4.237   1.812  0.5116  0.0738  0.0070
  484poe    c23 3645   3.232   4.316   1.867  0.8208 -0.4544  0.1917
  484poe    c23 3646   3.232   4.311   2.021 -0.1381 -0.0551  0.2070
  484poe     o2 3647   3.095   4.317   2.056 -0.1630  0.2214  0.0661
  484poe    c31 3648   3.073   4.347   2.192  1.0437  1.0395  0.1002
  485poe    c31 3649   0.474   1.618   4.479  0.2314  0.4442  0.2455
  485poe     o2 3650   0.418   1.747   4.488 -0.0758  0.3358 -0.0929
  485poe    c23 3651   0.497   1.843   4.421  0.2397  0.1994  0.0854
  485poe    c23 3652   0.442   1.986   4.432 -0.1204 -0.0046  1.1238
  485poe     o2 3653   0.320   1.994   4.363  0.3666 -0.1721  0.2220
  485poe    c23 3654   0.292   2.130   4.334 -0.2198 -0.4746 -0.6904
  485poe    c23 3655   0.158   2.134   4.258 -0.5337  0.0430 -0.1258
  485poe     o2 3656   0.051   2.102   4.344 -0.0169 -0.0846  0.4809
  485poe    c23 3657  -0.075   2.133   4.290  0.2583  0.4776  0.1519
  485poe    c23 3658  -0.170   2.090   4.403 -0.2070 -0.0931 -0.4437
  485poe     o2 3659  -0.124   1.961   4.437  0.3230  0.3046  0.4165
  485poe    c31 3660  -0.194   1.888   4.535 -0.3425 -0.1014 -0.3374
  486poe    c31 3661   2.028   1.537   1.519  0.1491 -0.0017  0.0714
  486poe     o2 3662   2.070   1.619   1.412  0.4353 -0.4907 -0.1941
  486poe    c23 3663   1.985   1.600   1.301  0.0827 -0.4014  0.0592
  486poe    c23 3664   2.029   1.677   1.175 -0.6336 -0.2515 -0.1057
  486poe     o2 3665   2.038   1.816   1.194 -0.7505 -0.2147 -0.3144
  486poe    c23 3666   2.089   1.872   1.075 -0.8751 -0.0298 -0.2813
  486poe    c23 3667   2.060   2.023   1.074 -0.0993  0.1211 -0.2547
  486poe     o2 3668   2.113   2.080   1.192  0.1200 -0.0038 -0.2921
  486poe    c23 3669   2.096   2.215   1.230  0.2623 -0.1917  0.4610
  486poe    c23 3670   2.190   2.240   1.349  0.6465 -0.5305  0.2337
  486poe     o2 3671   2.149   2.151   1.451  0.1692 -0.0728  0.4455
  486poe    c31 3672   2.221   2.178   1.570  1.1661  0.0351 -0.1723
  487poe    c31 3673   0.398   6.145   4.605  0.1537  0.1977  0.3384
  487poe     o2 3674   0.258   6.155   4.594  0.1584  0.0368  0.1091
  487poe    c23 3675   0.214   6.264   4.673 -0.4935  0.2690 -0.5668
  487poe    c23 3676   0.061   6.273   4.687 -0.4260  0.8663 -0.2089
  487poe     o2 3677  -0.005   6.273   4.563  0.1907  0.3340 -0.5425
  487poe    c23 3678  -0.139   6.311   4.585  0.3234  0.4428  0.0821
  487poe    c23 3679  -0.220   6.272   4.460  0.2832  0.0490  0.2277
  487poe     o2 3680  -0.185   6.351   4.349 -0.1641  0.0772  0.1056
  487poe    c23 3681  -0.288   6.362   4.253  0.0604  0.4103 -0.1036
  487poe    c23 3682  -0.239   6.419   4.119  0.0765  0.2298 -0.1763
  487poe     o2 3683  -0.129   6.502   4.148  0.1083  0.2049 -0.2256
  487poe    c31 3684  -0.099   6.567   4.027 -0.9873 -0.0655 -0.6506
  488poe    c31 3685   0.510   0.118   2.111 -0.1826 -0.7900  0.3530
  488poe     o2 3686   0.389   0.165   2.057  0.0868 -0.0073  0.4082
  488poe    c23 3687   0.375   0.305   2.051  0.2365 -0.0280 -0.7486
  488poe    c23 3688   0.236   0.344   1.995 -0.2472 -0.0028  0.4423
  488poe     o2 3689   0.240   0.278   1.871 -0.0677  0.2358  0.3207
  488poe    c23 3690   0.116   0.267   1.803  0.1524 -0.0551 -0.0368
  488poe    c23 3691   0.143   0.159   1.696  0.2013  0.1880 -0.2692
  488poe     o2 3692   0.194   0.056   1.777 -0.3579 -0.2059 -0.4144
  488poe    c23 3693   0.202  -0.080   1.740 -0.0129 -0.3510  0.1796
  488poe    c23 3694   0.251  -0.170   1.855  0.3092 -0.2514  0.1229
  488poe     o2 3695   0.344  -0.096   1.929 -0.1127  0.1080  0.2958
  488poe    c31 3696   0.431  -0.174   2.008 -0.4400 -0.0501  0.5012
  489poe    c31 3697   4.019   4.133   2.643  0.3442 -0.1598  0.7232
  489poe     o2 3698   3.969   4.194   2.526  0.0997 -0.4127  0.6967
  489poe    c23 3699   3.862   4.279   2.560 -0.1295 -0.6822  0.6544
  489poe    c23 3700   3.762   4.256   2.446  0.4347  0.4759 -0.0879
  489poe     o2 3701   3.825   4.276   2.321  0.7168  0.0778 -0.0099
  489poe    c23 3702   3.743   4.237   2.213  0.4934 -0.3245  0.3017
  489poe    c23 3703   3.836   4.239   2.091  0.2704  0.3632  0.1347
  489poe     o2 3704   3.945   4.151   2.112  0.1188 -0.0540 -0.7940
  489poe    c23 3705   3.913   4.014   2.099  0.0718 -0.1218 -0.0239
  489poe    c23 3706   4.011   3.936   2.188  0.2701 -0.0326 -0.1633
  489poe     o2 3707   3.989   3.981   2.319  0.3423 -0.7078  0.0851
  489poe    c31 3708   3.906   3.890   2.387 -0.4016 -0.0774  0.0331
  490poe    c31 3709   0.672   5.986   4.945 -0.2838  0.4606 -0.3205
  490poe     o2 3710   0.677   6.037   5.076 -0.2785 -0.6511  0.1229
  490poe    c23 3711   0.783   5.973   5.144 -0.1736 -0.8901 -0.2672
  490poe    c23 3712   0.767   6.011   5.292 -0.2017  0.4316 -0.5926
  490poe     o2 3713   0.746   6.144   5.334  0.1007  0.3109 -0.0506
  490poe    c23 3714   0.861   6.221   5.362  0.1071  0.2079  0.2077
  490poe    c23 3715   0.821   6.366   5.397  0.0064  0.1844  0.1944
  490poe     o2 3716   0.730   6.419   5.304  0.0947 -0.0498 -0.0262
  490poe    c23 3717   0.688   6.541   5.360  0.6364 -0.0034  0.2834
  490poe    c23 3718   0.612   6.618   5.251  0.0735 -0.1209  0.5867
  490poe     o2 3719   0.525   6.521   5.196 -0.3031  0.5336  0.0131
  490poe    c31 3720   0.415   6.574   5.125 -0.3286 -0.0196 -0.3666
  491poe    c31 3721   6.584   1.366   0.730 -0.0346 -0.3378  0.3209
  491poe     o2 3722   6.641   1.319   0.609  0.2079  0.2157  0.2193
  491poe    c23 3723   6.675   1.422   0.519  0.2640  0.2849  0.3195
  491poe    c23 3724   6.738   1.359   0.394  0.0423  0.2525  0.2245
  491poe     o2 3725   6.857   1.297   0.437 -0.1132  0.0640  0.3876
  491poe    c23 3726   6.932   1.243   0.330  0.2802  0.4708  0.4566
  491poe    c23 3727   7.005   1.121   0.388 -0.1475  0.0451  0.1043
  491poe     o2 3728   7.043   1.130   0.524  0.4878  0.0425 -0.0698
  491poe    c23 3729   7.086   1.007   0.579 -0.6707 -0.0689  0.6123
  491poe    c23 3730   7.155   1.024   0.715  0.3874 -0.0453  0.0796
  491poe     o2 3731   7.084   1.121   0.788  0.1027 -0.1790 -0.0200
  491poe    c31 3732   7.118   1.119   0.925 -0.0756 -0.1032  0.0251
  492poe    c31 3733   3.703   5.140   4.674  0.3757  1.3031 -0.3867
  492poe     o2 3734   3.753   5.057   4.572 -0.0417  0.1569  0.3343
  492poe    c23 3735   3.744   5.104   4.440  0.6315  0.2732  0.3272
  492poe    c23 3736   3.792   4.996   4.340  0.4339  0.6627 -0.1957
  492poe     o2 3737   3.892   4.923   4.407 -0.1780 -0.0575 -0.0617
  492poe    c23 3738   3.979   4.851   4.323 -0.7148 -0.2503 -0.4632
  492poe    c23 3739   4.083   4.783   4.414 -0.3899  0.3970 -0.3414
  492poe     o2 3740   4.017   4.701   4.508 -0.0908  0.7215  0.1539
  492poe    c23 3741   4.114   4.668   4.605  0.3543  0.3323 -0.4157
  492poe    c23 3742   4.060   4.553   4.692  0.4724  0.6409  0.0666
  492poe     o2 3743   3.959   4.609   4.774  0.2406 -0.0008  0.2264
  492poe    c31 3744   3.904   4.509   4.856 -0.2409  0.0743 -0.0040
  493poe    c31 3745   1.817   4.432   0.431 -0.2175  0.0230  0.5318
  493poe     o2 3746   1.792   4.361   0.311 -0.0787  0.4618  0.2417
  493poe    c23 3747   1.735   4.235   0.333  0.1790  0.3337  0.1848
  493poe    c23 3748   1.721   4.181   0.189 -0.4032 -0.2216  0.4420
  493poe     o2 3749   1.642   4.278   0.123 -0.1921 -0.3030  0.0651
  493poe    c23 3750   1.593   4.245  -0.005  0.8351 -0.2415 -0.3470
  493poe    c23 3751   1.557   4.375  -0.078  0.0153 -0.0971  0.3005
  493poe     o2 3752   1.667   4.458  -0.047 -0.0986  0.0452  0.3224
  493poe    c23 3753   1.647   4.591  -0.090  0.1943 -0.0217 -0.0212
  493poe    c23 3754   1.777   4.653  -0.035  0.5544 -0.8145  0.0315
  493poe     o2 3755   1.781   4.615   0.101  0.3517 -0.2636  0.1921
  493poe    c31 3756   1.866   4.693   0.181 -0.4485  0.6270  0.1920
  494poe    c31 3757   2.585   3.149   1.741  0.4174 -0.0599 -0.3677
  494poe     o2 3758   2.514   3.263   1.701 -0.0517 -0.1861  0.1096
  494poe    c23 3759   2.503   3.349   1.813 -0.6731 -0.2675  0.1190
  494poe    c23 3760   2.424   3.476   1.777 -0.0128  0.2405  0.4169
  494poe     o2 3761   2.473   3.530   1.656 -0.1123  0.3295  0.4159
  494poe    c23 3762   2.401   3.644   1.614 -0.1967  0.0783 -0.1234
  494poe    c23 3763   2.466   3.657   1.475 -0.0904  0.2008 -0.0618
  494poe     o2 3764   2.456   3.526   1.424 -0.0966  0.0709  0.2733
  494poe    c23 3765   2.526   3.521   1.302  0.0069 -0.3582  0.3507
  494poe    c23 3766   2.565   3.374   1.275  0.1903 -0.2651  0.1072
  494poe     o2 3767   2.581   3.319   1.404  0.2863  0.2066  0.3002
  494poe    c31 3768   2.673   3.212   1.403  0.0765  0.0249 -0.2144
  495poe    c31 3769   5.900   2.972   6.049  0.4936 -0.2648  0.0766
  495poe     o2 3770   5.990   2.912   6.139  0.5934 -0.0413  0.1260
  495poe    c23 3771   5.928   2.801   6.200 -0.2042  0.5100  0.3376
  495poe    c23 3772   6.040   2.768   6.301 -0.4027  0.3526  0.5060
  495poe     o2 3773   6.084   2.878   6.377 -0.0581  0.4658  0.1433
  495poe    c23 3774   6.159   2.834   6.488  0.2524  0.1381 -0.1951
  495poe    c23 3775   6.136   2.957   6.576 -0.0924 -0.1498  0.1208
  495poe     o2 3776   6.160   3.073   6.498  0.2595 -0.1181  0.2723
  495poe    c23 3777   6.195   3.179   6.584 -0.3311  0.4452 -0.1753
  495poe    c23 3778   6.346   3.212   6.586 -0.1192 -0.4776 -0.3326
  495poe     o2 3779   6.423   3.103   6.630  0.2728 -0.1857 -0.2889
  495poe    c31 3780   6.557   3.144   6.640  0.0446  0.4688  0.1331
  496poe    c31 3781   3.708   6.377   0.724 -0.1594  0.0439  0.3289
  496poe     o2 3782   3.817   6.301   0.676 -0.2645  0.2064 -0.1678
  496poe    c23 3783   3.762   6.181   0.627 -0.3749  0.3884 -0.4915
  496poe    c23 3784   3.852   6.097   0.534 -0.0635 -0.2066  0.3311
  496poe     o2 3785   3.978   6.077   0.594  0.2364 -0.1011 -0.2497
  496poe    c23 3786   4.080   6.032   0.508  0.2756 -0.1565 -0.1739
  496poe    c23 3787   4.210   6.006   0.587 -0.1960 -0.3570  0.5522
  496poe     o2 3788   4.266   6.130   0.624  0.2497 -0.1010 -0.9041
  496poe    c23 3789   4.400   6.106   0.660 -0.0819  0.0396  0.4542
  496poe    c23 3790   4.443   6.243   0.717 -0.0400 -0.0373  0.6077
  496poe     o2 3791   4.341   6.287   0.804 -0.1793 -0.3659  0.6098
  496poe    c31 3792   4.390   6.360   0.914  0.3233  0.2982 -0.0469
  497poe    c31 3793   0.974   0.136   2.765 -0.2755  0.0928  0.0191
  497poe     o2 3794   1.048   0.125   2.646 -0.0664 -0.2254  0.1788
  497poe    c23 3795   1.157   0.037   2.667  0.0084 -0.2774 -0.3991
  497poe    c23 3796   1.255   0.059   2.551  0.1587 -0.5334 -0.3213
  497poe     o2 3797   1.185   0.043   2.430  0.1665  0.3455 -0.4492
  497poe    c23 3798   1.254   0.084   2.314  0.7642  0.4224 -0.0675
  497poe    c23 3799   1.153   0.054   2.202  0.3148  0.4190  0.3331
  497poe     o2 3800   1.031   0.091   2.262  0.3067  0.7199  0.1306
  497poe    c23 3801   0.919   0.029   2.203  0.1762  0.1984  0.9232
  497poe    c23 3802   0.806   0.104   2.276 -0.2237  0.3783  0.1230
  497poe     o2 3803   0.837   0.115   2.413  0.1104  0.1135  0.0700
  497poe    c31 3804   0.722   0.161   2.480  0.0840  0.1419  0.0061
  498poe    c31 3805   6.673   1.229   4.317 -0.5720  0.0650  0.0482
  498poe     o2 3806   6.671   1.252   4.456 -0.1104  0.5188 -0.0164
  498poe    c23 3807   6.711   1.384   4.484  0.6957  0.3017 -0.1256
  498poe    c23 3808   6.688   1.403   4.635  0.3399  0.5939 -0.2160
  498poe     o2 3809   6.760   1.304   4.704 -0.3605  0.2843  0.0801
  498poe    c23 3810   6.722   1.285   4.839  0.9896 -0.0705  0.4260
  498poe    c23 3811   6.786   1.149   4.873 -0.0105 -0.7105 -0.1771
  498poe     o2 3812   6.767   1.058   4.768  0.3573 -0.5119 -0.4203
  498poe    c23 3813   6.879   0.973   4.769  0.4286 -0.4142 -0.0565
  498poe    c23 3814   6.891   0.928   4.622  0.3230 -0.0560 -0.1746
  498poe     o2 3815   6.887   1.039   4.534  0.0941 -0.2940 -0.4677
  498poe    c31 3816   6.931   0.990   4.409 -0.0436  0.0601 -0.6541
  499poe    c31 3817   3.053   3.164   6.551 -0.6575 -0.0536  0.4754
  499poe     o2 3818   3.034   3.256   6.655 -0.1057 -0.0909  0.6115
  499poe    c23 3819   3.143   3.246   6.744  0.1174  0.0835  0.3561
  499poe    c23 3820   3.093   3.289   6.883 -1.2987 -0.4131  0.0162
  499poe     o2 3821   3.025   3.408   6.851 -0.3117  0.0687 -0.3533
  499poe    c23 3822   2.968   3.451   6.972 -0.4636 -0.2237 -0.3197
  499poe    c23 3823   2.902   3.579   6.917 -0.1342  0.3765  0.6553
  499poe     o2 3824   2.836   3.558   6.795  0.5091 -0.3159  0.4174
  499poe    c23 3825   2.843   3.672   6.712 -0.2007 -0.8012 -0.3335
  499poe    c23 3826   2.979   3.663   6.641 -0.0905 -0.3995 -0.1764
  499poe     o2 3827   2.980   3.540   6.573 -0.2282 -0.2891 -0.3778
  499poe    c31 3828   3.040   3.546   6.445  0.1622  0.1723 -0.1759
  500poe    c31 3829   4.921   6.757   0.478 -0.1458 -0.8299 -0.3293
  500poe     o2 3830   5.053   6.755   0.530 -0.1691  0.5062 -0.1766
  500poe    c23 3831   5.142   6.723   0.425 -0.4139  0.9576 -0.5298
  500poe    c23 3832   5.286   6.727   0.480 -0.5897 -0.5695  0.1019
  500poe     o2 3833   5.283   6.683   0.614 -0.1246  0.1974  0.3713
  500poe    c23 3834   5.378   6.735   0.704  0.2682 -0.3767  0.2926
  500poe    c23 3835   5.312   6.851   0.781 -0.1718  0.3026 -1.0638
  500poe     o2 3836   5.192   6.787   0.818  0.0985  0.1970 -0.3566
  500poe    c23 3837   5.103   6.886   0.867  0.3490  0.5005 -0.5135
  500poe    c23 3838   4.963   6.832   0.898  0.3216  0.7571 -0.1887
  500poe     o2 3839   4.897   6.756   0.799 -0.2658  0.4751  0.4093
  500poe    c31 3840   4.757   6.772   0.805 -0.3703 -0.1098 -0.3359
  501poe    c31 3841   0.087   5.609   5.149 -0.1382 -0.3277 -0.3570
  501poe     o2 3842   0.175   5.503   5.117  0.1765 -0.1561 -0.0728
  501poe    c23 3843   0.101   5.408   5.043  0.2762 -0.6772  0.4834
  501poe    c23 3844   0.205   5.353   4.944  0.3575  0.1069  0.1220
  501poe     o2 3845   0.314   5.322   5.028  0.3027  0.0952  0.1884
  501poe    c23 3846   0.431   5.307   4.950  0.2572 -0.1360  0.1619
  501poe    c23 3847   0.551   5.339   5.041  0.1626  0.3614  0.1146
  501poe     o2 3848   0.517   5.463   5.099 -0.1392  0.5241 -0.4017
  501poe    c23 3849   0.616   5.506   5.190 -0.2030  0.2691 -0.2104
  501poe    c23 3850   0.557   5.644   5.227 -0.6185  0.0209  0.0596
  501poe     o2 3851   0.420   5.628   5.258 -0.5613 -0.6115  0.0046
  501poe    c31 3852   0.376   5.746   5.321 -0.6557 -0.4865 -0.2921
  502poe    c31 3853   4.922   4.109   1.865 -0.1667  0.1862  0.0342
  502poe     o2 3854   5.044   4.173   1.897  0.0831  0.0236 -0.5769
  502poe    c23 3855   5.114   4.096   1.992 -0.0652  0.4414 -0.1187
  502poe    c23 3856   5.265   4.096   1.960  0.0828 -0.6722  0.5273
  502poe     o2 3857   5.294   4.072   1.824 -0.1540 -0.6311  0.4685
  502poe    c23 3858   5.412   3.997   1.810 -0.2187 -0.5555 -0.5291
  502poe    c23 3859   5.473   4.036   1.674 -0.4279  0.3527 -0.3696
  502poe     o2 3860   5.475   4.176   1.663 -0.1991  0.3722 -0.0924
  502poe    c23 3861   5.526   4.219   1.539  0.1800 -0.2326 -0.1503
  502poe    c23 3862   5.494   4.364   1.495  0.5499 -0.1739 -0.2305
  502poe     o2 3863   5.357   4.384   1.520  0.5194 -0.1246 -0.4377
  502poe    c31 3864   5.341   4.523   1.501  0.0299 -0.1697 -0.3868
  503poe    c31 3865   4.001   6.500   0.265  0.3678  0.0855 -0.1555
  503poe     o2 3866   3.989   6.497   0.124  0.3293  0.2052 -0.1549
  503poe    c23 3867   3.879   6.575   0.085  0.1158  0.0253  0.0770
  503poe    c23 3868   3.858   6.567  -0.068  0.7929 -0.5161  0.0070
  503poe     o2 3869   3.791   6.449  -0.105 -0.6480  0.1938  0.2643
  503poe    c23 3870   3.806   6.423  -0.243 -0.2689  0.5735  0.2324
  503poe    c23 3871   3.697   6.323  -0.285  0.4014 -0.1817  0.2577
  503poe     o2 3872   3.568   6.343  -0.232  0.2076 -0.3987 -0.1270
  503poe    c23 3873   3.489   6.228  -0.249 -0.0564 -0.2620  0.1646
  503poe    c23 3874   3.347   6.267  -0.205 -0.1068  0.1627 -0.3717
  503poe     o2 3875   3.355   6.340  -0.085  0.1263  0.0346 -0.3093
  503poe    c31 3876   3.226   6.364  -0.032  0.1215  0.0261 -0.3172
  504poe    c31 3877   3.388   2.068   0.589 -0.1116 -0.5325  0.1369
  504poe     o2 3878   3.330   2.136   0.481 -0.1126 -0.5299  0.1391
  504poe    c23 3879   3.218   2.207   0.530  0.2340  0.2854 -0.2329
  504poe    c23 3880   3.182   2.322   0.435 -0.2268  0.3856  0.0597
  504poe     o2 3881   3.134   2.275   0.311 -0.3926  0.0662  0.2427
  504poe    c23 3882   3.086   2.381   0.230 -0.2767  0.1160  0.2393
  504poe    c23 3883   3.139   2.360   0.086 -0.0332 -0.6068  0.4264
  504poe     o2 3884   3.101   2.228   0.053 -0.4607 -0.3504 -0.1235
  504poe    c23 3885   3.127   2.193  -0.081  0.1194  0.5317 -0.2480
  504poe    c23 3886   3.113   2.040  -0.078 -0.3015  0.5798  0.3820
  504poe     o2 3887   3.182   1.998   0.038  0.0112  0.0089 -0.0069
  504poe    c31 3888   3.192   1.858   0.044 -0.1254 -0.0009 -0.0172
  505poe    c31 3889   3.397   0.174   4.533 -0.3913  0.5319 -0.3317
  505poe     o2 3890   3.431   0.245   4.649  0.2530 -0.1715 -0.0838
  505poe    c23 3891   3.315   0.268   4.725  0.4852  0.5776  0.0560
  505poe    c23 3892   3.347   0.216   4.866  0.1578 -0.0460 -0.0923
  505poe     o2 3893   3.468   0.272   4.913 -0.2159  0.5207  0.2053
  505poe    c23 3894   3.503   0.234   5.044  0.0459 -0.1963 -0.0658
  505poe    c23 3895   3.654   0.211   5.058  0.1520  0.2974 -0.3684
  505poe     o2 3896   3.733   0.318   5.011  0.0159  0.2897 -0.6135
  505poe    c23 3897   3.866   0.314   5.057 -0.0432  0.3501 -0.4402
  505poe    c23 3898   3.931   0.448   5.016  0.4202  0.2709  0.0214
  505poe     o2 3899   3.868   0.478   4.893  0.2210 -0.3856 -0.0457
  505poe    c31 3900   3.949   0.563   4.815 -0.3473  0.3510  0.1576
  506poe    c31 3901   3.326   3.580   2.691  0.1512 -0.2533 -0.4591
  506poe     o2 3902   3.259   3.503   2.594  0.2277 -0.5516 -0.2769
  506poe    c23 3903   3.262   3.366   2.627  0.5244 -0.5717 -0.3816
  506poe    c23 3904   3.189   3.288   2.516 -0.3278 -0.1837 -0.1058
  506poe     o2 3905   3.263   3.288   2.396  0.3732  0.0074  0.3158
  506poe    c23 3906   3.201   3.205   2.300  0.0564  0.2927  0.2712
  506poe    c23 3907   3.298   3.182   2.183 -0.0761 -0.2837  0.2707
  506poe     o2 3908   3.347   3.312   2.156 -0.1067 -0.3027  0.1205
  506poe    c23 3909   3.419   3.321   2.036 -0.1259  0.0117  0.1331
  506poe    c23 3910   3.460   3.470   2.031 -0.3636  0.0872  0.4164
  506poe     o2 3911   3.508   3.506   2.158  0.6937 -0.8460  0.3026
  506poe    c31 3912   3.557   3.637   2.175  0.0683 -0.5513 -0.1057
  507poe    c31 3913   2.032   4.188   5.227 -0.3928 -0.1938 -0.5821
  507poe     o2 3914   2.172   4.197   5.222 -0.3389 -0.5481  0.1260
  507poe    c23 3915   2.217   4.307   5.147  0.1256 -0.5479  0.3993
  507poe    c23 3916   2.370   4.312   5.164  0.1734  0.0127 -0.1514
  507poe     o2 3917   2.397   4.177   5.135 -0.5366 -0.3071  0.6214
  507poe    c23 3918   2.537   4.163   5.139 -0.4476  0.3367  0.0507
  507poe    c23 3919   2.570   4.017   5.100 -0.6671  0.2685  0.1233
  507poe     o2 3920   2.476   3.920   5.141  0.0638 -0.4405  0.1425
  507poe    c23 3921   2.516   3.791   5.103 -0.0487 -0.5839  0.5007
  507poe    c23 3922   2.431   3.669   5.145 -0.7789 -0.0716  0.5339
  507poe     o2 3923   2.299   3.673   5.096 -0.6549  0.2838  0.2267
  507poe    c31 3924   2.240   3.546   5.096 -0.0721  0.0074  0.0774
  508poe    c31 3925   4.704   2.468   5.890 -0.4322 -0.2098  0.7983
  508poe     o2 3926   4.808   2.517   5.972  0.3018 -0.1358 -0.1630
  508poe    c23 3927   4.882   2.606   5.890  0.6069 -0.7367 -0.5480
  508poe    c23 3928   5.014   2.639   5.962 -0.0128 -0.8277  0.6536
  508poe     o2 3929   4.972   2.670   6.093 -0.2436 -0.5460  0.5132
  508poe    c23 3930   5.066   2.679   6.197  0.1053  0.3005  0.1313
  508poe    c23 3931   4.985   2.712   6.324 -0.5584  1.1155 -0.4982
  508poe     o2 3932   4.871   2.630   6.326  0.2218  0.0315  0.4576
  508poe    c23 3933   4.765   2.681   6.405 -0.3852 -0.4873 -0.0143
  508poe    c23 3934   4.651   2.580   6.383 -0.2260 -0.6313 -0.1861
  508poe     o2 3935   4.650   2.538   6.248  0.6735 -0.2122 -0.3309
  508poe    c31 3936   4.529   2.467   6.230  0.4159 -0.0054  0.5174
  509poe    c31 3937   4.406   0.699   0.736  0.7053 -0.2329 -0.0588
  509poe     o2 3938   4.293   0.636   0.678  0.5876 -0.3159  0.2602
  509poe    c23 3939   4.310   0.496   0.679 -0.4044 -0.4433 -0.0686
  509poe    c23 3940   4.198   0.443   0.770 -0.3898 -0.1705  0.1093
  509poe     o2 3941   4.077   0.499   0.726 -0.4205 -0.6223 -0.3896
  509poe    c23 3942   3.979   0.489   0.827  0.3191 -0.1334  0.3802
  509poe    c23 3943   3.900   0.620   0.809  0.1895 -0.2437  0.1385
  509poe     o2 3944   3.996   0.717   0.773  0.4606 -0.4816  0.2160
  509poe    c23 3945   3.929   0.840   0.757  0.3336 -0.5378  0.3125
  509poe    c23 3946   4.022   0.938   0.683 -0.3883 -0.1272 -0.0544
  509poe     o2 3947   4.097   0.863   0.591  0.3814  0.3751  0.1538
  509poe    c31 3948   4.169   0.949   0.505  0.3225  0.0379 -0.2342
  510poe    c31 3949   1.209   5.566   0.463  0.1529 -0.5636 -0.1758
  510poe     o2 3950   1.163   5.599   0.593  0.1510 -0.1107 -0.2888
  510poe    c23 3951   1.048   5.677   0.568  0.3061  0.1979 -0.0465
  510poe    c23 3952   0.942   5.663   0.678 -0.3251 -0.0309 -0.6789
  510poe     o2 3953   1.010   5.690   0.799 -1.3949 -0.4189  0.0243
  510poe    c23 3954   0.949   5.666   0.924 -0.9689  0.0705  0.3282
  510poe    c23 3955   1.028   5.549   0.986  0.0937  0.3449 -0.4798
  510poe     o2 3956   1.153   5.558   0.922  0.1514 -0.7022 -0.5264
  510poe    c23 3957   1.228   5.443   0.954 -0.0489 -0.6310  0.2301
  510poe    c23 3958   1.372   5.447   0.898 -0.0589 -0.3484  0.2266
  510poe     o2 3959   1.362   5.509   0.772 -0.3841 -0.3887  0.2317
  510poe    c31 3960   1.488   5.493   0.711 -0.5731 -0.0484 -0.2608
  511poe    c31 3961   1.612   2.974   3.530  0.1363  0.1408  0.0611
  511poe     o2 3962   1.516   3.013   3.625 -0.0898 -0.0898 -0.0692
  511poe    c23 3963   1.454   2.897   3.674 -0.1860 -0.1304 -0.2852
  511poe    c23 3964   1.353   2.959   3.772  0.1153 -0.0014 -0.0547
  511poe     o2 3965   1.429   3.046   3.853  0.5640 -0.6680  0.2528
  511poe    c23 3966   1.352   3.131   3.936 -0.0887 -0.4489 -0.5603
  511poe    c23 3967   1.432   3.209   4.043 -0.2785 -0.1971 -0.6001
  511poe     o2 3968   1.535   3.284   3.983 -0.7190  0.5141 -0.4680
  511poe    c23 3969   1.493   3.393   3.904 -0.4067  0.6294 -0.4761
  511poe    c23 3970   1.594   3.408   3.789  0.6592 -0.0656  0.3506
  511poe     o2 3971   1.582   3.298   3.701  0.5281  0.1933  0.0414
  511poe    c31 3972   1.658   3.345   3.592  0.4063  0.0508 -0.1060
  512poe    c31 3973   4.389   3.522   0.139 -0.1210  0.1140  0.7359
  512poe     o2 3974   4.482   3.611   0.081 -0.7351  0.2131 -0.1188
  512poe    c23 3975   4.471   3.737   0.143  0.1711 -0.0044  0.5086
  512poe    c23 3976   4.579   3.833   0.091  0.0484 -0.2980 -0.3044
  512poe     o2 3977   4.697   3.766   0.128  0.1050  0.1455  0.3318
  512poe    c23 3978   4.809   3.834   0.076  0.3011 -0.3731  0.0697
  512poe    c23 3979   4.928   3.737   0.068  0.0378 -0.7245  0.3594
  512poe     o2 3980   4.866   3.616   0.029 -0.0706 -0.5165 -0.1188
  512poe    c23 3981   4.931   3.502   0.081  0.4142 -0.1838  0.0185
  512poe    c23 3982   4.854   3.378   0.033 -0.0318  0.0781  0.0509
  512poe     o2 3983   4.722   3.419   0.062 -0.0098  0.0198  0.2380
  512poe    c31 3984   4.625   3.317   0.049  0.3233 -0.2655 -0.0385
  513poe    c31 3985   0.500   6.529   6.422 -0.4894  0.0346 -0.5384
  513poe     o2 3986   0.531   6.597   6.541 -0.6658  0.2011 -0.5867
  513poe    c23 3987   0.470   6.723   6.536 -0.5045  0.3054 -0.0138
  513poe    c23 3988   0.522   6.809   6.653  0.2280 -0.5757  0.3129
  513poe     o2 3989   0.662   6.828   6.660  0.2291 -0.5146  0.1272
  513poe    c23 3990   0.683   6.905   6.776  0.2440  0.0225 -0.2313
  513poe    c23 3991   0.833   6.935   6.787  0.3275 -0.3288 -0.4175
  513poe     o2 3992   0.858   6.967   6.652 -0.6547  0.6412 -0.3764
  513poe    c23 3993   0.993   7.005   6.642 -0.5634  0.4897  0.2333
  513poe    c23 3994   1.059   7.009   6.502 -0.7176  0.5188  0.1609
  513poe     o2 3995   1.043   6.889   6.428 -0.2054  0.3054  0.3911
  513poe    c31 3996   1.096   6.900   6.298 -0.1860  0.5819  0.4201
  514poe    c31 3997   5.833   1.693   6.773 -0.2471  0.0374  1.1363
  514poe     o2 3998   5.903   1.729   6.890  0.2523 -0.0730  0.8764
  514poe    c23 3999   5.980   1.847   6.882  0.4456 -0.2509 -0.0662
  514poe    c23 4000   6.012   1.875   7.030  0.8047 -0.0584 -0.1783
  514poe     o2 4001   6.032   1.756   7.103 -0.1307 -0.1189 -0.0030
  514poe    c23 4002   6.073   1.790   7.233 -0.2247  0.3132 -0.0844
  514poe    c23 4003   6.128   1.668   7.309 -0.4824  0.9922  1.2183
  514poe     o2 4004   6.032   1.566   7.319 -0.0003  0.4662  0.5874
  514poe    c23 4005   6.050   1.477   7.427  0.4923  0.0635  0.1748
  514poe    c23 4006   5.965   1.349   7.440  0.0053  0.3844  0.1654
  514poe     o2 4007   5.993   1.227   7.375  0.2103  0.1484  0.6916
  514poe    c31 4008   5.933   1.123   7.449 -0.2544 -0.3336 -0.3501
  515poe    c31 4009   4.897   1.829   6.633  0.2689  0.5212  0.1092
  515poe     o2 4010   4.986   1.766   6.722  0.3218  0.3581 -0.0594
  515poe    c23 4011   5.003   1.841   6.840  0.4068  0.1333  0.0730
  515poe    c23 4012   5.082   1.766   6.948 -0.4112 -1.1324 -0.1849
  515poe     o2 4013   5.194   1.713   6.881 -0.1414 -0.4921 -0.2487
  515poe    c23 4014   5.259   1.614   6.957 -1.1799 -0.7929  0.2753
  515poe    c23 4015   5.349   1.540   6.856 -0.1795  0.6168  0.1059
  515poe     o2 4016   5.262   1.500   6.753 -0.0126  1.4902 -0.3815
  515poe    c23 4017   5.328   1.471   6.631 -0.4491  0.0139 -0.2850
  515poe    c23 4018   5.208   1.473   6.534 -0.5530 -0.0574 -0.1592
  515poe     o2 4019   5.136   1.592   6.561  0.3134  0.5664 -0.5410
  515poe    c31 4020   5.064   1.607   6.441 -0.5193 -0.6883 -0.2249
  516poe    c31 4021   6.463   2.932   3.240  0.2893 -0.0802  0.3658
  516poe     o2 4022   6.340   2.906   3.303 -0.0862 -0.1769 -0.3902
  516poe    c23 4023   6.339   2.765   3.310  1.0759 -0.1687  0.1674
  516poe    c23 4024   6.244   2.739   3.429  0.1739  0.1131 -0.4824
  516poe     o2 4025   6.150   2.844   3.430  0.0761  0.0192  0.0459
  516poe    c23 4026   6.054   2.835   3.534 -0.2661 -0.0203 -0.2731
  516poe    c23 4027   5.990   2.974   3.552 -0.2428 -0.0576  0.1046
  516poe     o2 4028   6.087   3.060   3.496 -0.3560  0.3463  0.5215
  516poe    c23 4029   6.054   3.196   3.476  0.0880  0.3656 -0.1222
  516poe    c23 4030   6.185   3.259   3.426  0.1980 -0.1633 -0.5185
  516poe     o2 4031   6.219   3.187   3.310 -0.7876 -0.0354 -0.8984
  516poe    c31 4032   6.343   3.245   3.275 -0.3840 -0.5604 -0.3657
  517poe    c31 4033   3.012   4.366   5.982  0.1089  0.6749  0.8808
  517poe     o2 4034   3.152   4.352   5.981  0.0271 -0.1753 -0.1598
  517poe    c23 4035   3.189   4.233   6.047 -0.2551  0.0520  0.4113
  517poe    c23 4036   3.340   4.217   6.070 -0.1751 -0.3405 -0.3507
  517poe     o2 4037   3.429   4.223   5.961  0.3556 -0.0148  0.0928
  517poe    c23 4038   3.558   4.240   6.015  0.1945 -0.3769  0.5924
  517poe    c23 4039   3.648   4.316   5.916 -0.1326 -0.4132  0.2620
  517poe     o2 4040   3.590   4.440   5.882 -0.2415 -0.7044 -0.6364
  517poe    c23 4041   3.687   4.516   5.813 -0.2305  0.0887  0.2377
  517poe    c23 4042   3.629   4.655   5.778  0.1727  0.1528 -0.1804
  517poe     o2 4043   3.574   4.700   5.900  0.3780  0.1303 -0.0781
  517poe    c31 4044   3.511   4.824   5.877 -0.2116 -0.1465  0.0127
  518poe    c31 4045   0.628   5.339   3.700 -0.0142  0.0213  0.0716
  518poe     o2 4046   0.645   5.451   3.783 -0.2661 -0.0011  0.1547
  518poe    c23 4047   0.782   5.478   3.803 -0.3189 -0.0892  0.6361
  518poe    c23 4048   0.772   5.629   3.831  0.1110  0.1340 -0.3608
  518poe     o2 4049   0.662   5.658   3.915  0.1734 -0.5698 -0.0242
  518poe    c23 4050   0.611   5.789   3.901  0.4604 -0.4514  0.0421
  518poe    c23 4051   0.472   5.792   3.968  0.6435 -0.2321  0.4213
  518poe     o2 4052   0.426   5.659   3.952 -0.0523  0.0824 -0.2613
  518poe    c23 4053   0.288   5.646   3.979  0.1101 -0.6678  0.2472
  518poe    c23 4054   0.254   5.511   3.913  0.3403 -0.4048 -0.4174
  518poe     o2 4055   0.361   5.420   3.922  0.5792 -0.0724  0.1560
  518poe    c31 4056   0.323   5.287   3.948  0.3414 -0.0282  0.0366
  519poe    c31 4057   4.058   6.475   1.362  0.0089  0.6068  0.1720
  519poe     o2 4058   3.956   6.409   1.290  0.4882  0.1427 -0.0910
  519poe    c23 4059   3.932   6.474   1.168 -0.0210  0.0268 -0.0554
  519poe    c23 4060   3.792   6.435   1.119  0.3662 -0.3861 -0.8630
  519poe     o2 4061   3.779   6.302   1.163  0.7126 -0.2343 -0.2924
  519poe    c23 4062   3.651   6.250   1.136  0.4415 -0.0045  0.5256
  519poe    c23 4063   3.640   6.108   1.195  0.2870 -0.2867 -0.1651
  519poe     o2 4064   3.734   6.105   1.300 -0.2618 -0.1782  0.3380
  519poe    c23 4065   3.774   5.977   1.344  0.6678  0.0423  0.1701
  519poe    c23 4066   3.859   6.015   1.467 -0.1686  0.7536  0.5452
  519poe     o2 4067   3.919   6.141   1.448 -0.0991  0.6557  0.0921
  519poe    c31 4068   4.022   6.172   1.539  0.1217 -0.2039  0.1401
  520poe    c31 4069   5.816   3.990   4.160  0.0688  0.5953 -0.2498
  520poe     o2 4070   5.921   4.084   4.163  0.7148 -0.1135 -0.5365
  520poe    c23 4071   6.035   4.047   4.238  0.3676  0.1533  0.1246
  520poe    c23 4072   6.013   4.027   4.389  0.4561  0.4973  0.1855
  520poe     o2 4073   5.964   4.144   4.451  0.5253  0.3389  0.5420
  520poe    c23 4074   5.920   4.108   4.580  0.0277 -0.4073  0.1718
  520poe    c23 4075   5.886   4.238   4.655  0.0658  0.0356 -0.5700
  520poe     o2 4076   5.792   4.317   4.587  0.0431  0.3598 -0.1646
  520poe    c23 4077   5.791   4.454   4.620  0.3062  0.2631  0.2443
  520poe    c23 4078   5.682   4.540   4.553 -0.2667 -0.4975  0.1953
  520poe     o2 4079   5.670   4.495   4.420  0.2535 -0.2911  0.0763
  520poe    c31 4080   5.571   4.572   4.354  0.8515  0.1897 -0.2692
  521poe    c31 4081   1.177   3.773   4.027 -0.3419 -0.3856  0.6280
  521poe     o2 4082   1.048   3.787   3.973 -0.1876  0.1834  0.3978
  521poe    c23 4083   1.006   3.680   3.891  0.0762 -0.0236  0.5345
  521poe    c23 4084   0.863   3.683   3.836  0.3470 -0.0708 -0.1869
  521poe     o2 4085   0.840   3.808   3.777 -0.2857  0.0131  0.2241
  521poe    c23 4086   0.720   3.800   3.702 -0.3782 -0.1655  0.3905
  521poe    c23 4087   0.653   3.932   3.660 -0.0190 -0.2347 -0.4179
  521poe     o2 4088   0.654   4.010   3.777 -0.4076 -0.1307 -0.4834
  521poe    c23 4089   0.628   4.145   3.749 -0.0510 -0.0770 -0.5595
  521poe    c23 4090   0.486   4.186   3.703 -0.1347 -0.3588 -0.5540
  521poe     o2 4091   0.396   4.174   3.811 -0.1136  0.1075 -0.4826
  521poe    c31 4092   0.269   4.135   3.764 -0.3827 -0.0132  0.3329
  522poe    c31 4093   3.902   3.221   0.994  0.3339  0.6037 -0.0790
  522poe     o2 4094   3.874   3.224   0.856 -0.3292  0.3833  0.0452
  522poe    c23 4095   3.953   3.326   0.797  0.3040 -0.2571 -0.2309
  522poe    c23 4096   3.930   3.315   0.645 -0.5702  0.0230 -0.1236
  522poe     o2 4097   3.794   3.291   0.617 -0.5976 -0.2465  0.2305
  522poe    c23 4098   3.702   3.395   0.591  0.3314  0.4730 -0.2150
  522poe    c23 4099   3.562   3.333   0.598  0.6683 -0.2187  0.4525
  522poe     o2 4100   3.582   3.227   0.690  0.1739 -0.3336  0.4337
  522poe    c23 4101   3.472   3.145   0.718 -0.0229 -0.1743  0.1282
  522poe    c23 4102   3.495   3.094   0.861  0.2674 -0.3137  0.0319
  522poe     o2 4103   3.631   3.059   0.871  0.4041  0.2470  0.2355
  522poe    c31 4104   3.649   2.979   0.986  0.5332  0.0641  0.0885
  523poe    c31 4105   6.632   5.742   2.932 -0.0759  0.5523  0.2868
  523poe     o2 4106   6.680   5.766   3.062 -0.3784  0.6794  0.3768
  523poe    c23 4107   6.807   5.826   3.077  0.0074 -0.0523  0.0783
  523poe    c23 4108   6.781   5.964   3.140 -0.0099 -0.0060 -0.0306
  523poe     o2 4109   6.707   5.962   3.260 -0.2459 -0.5003 -0.1848
  523poe    c23 4110   6.661   6.094   3.269  0.3945 -0.3254  0.5688
  523poe    c23 4111   6.600   6.130   3.406  0.2709 -0.1069  0.4575
  523poe     o2 4112   6.511   6.026   3.440 -0.0607  0.0361  0.0401
  523poe    c23 4113   6.483   6.033   3.578  0.7011 -0.0671  0.2088
  523poe    c23 4114   6.372   5.928   3.601  0.2230  0.3856  0.0077
  523poe     o2 4115   6.406   5.816   3.523 -0.1146  0.0112  0.3951
  523poe    c31 4116   6.304   5.718   3.528  0.3160 -0.4899 -0.3806
  524poe    c31 4117   2.594   1.388   0.637  0.1323  0.2190 -1.0673
  524poe     o2 4118   2.732   1.416   0.632  0.1090  0.5772 -0.0197
  524poe    c23 4119   2.782   1.412   0.763 -0.4546 -0.6582  0.1701
  524poe    c23 4120   2.934   1.386   0.767 -0.3857 -0.2692  0.1336
  524poe     o2 4121   2.993   1.433   0.648 -0.5446 -0.3808  0.0091
  524poe    c23 4122   3.117   1.369   0.630 -0.1846  0.2635  0.1742
  524poe    c23 4123   3.187   1.403   0.496 -0.0991 -0.6910 -0.0298
  524poe     o2 4124   3.127   1.379   0.371  0.1266  0.1526 -0.3055
  524poe    c23 4125   3.079   1.498   0.313 -0.5888  0.1147  0.2070
  524poe    c23 4126   2.937   1.482   0.255 -0.4063 -0.3195 -0.1297
  524poe     o2 4127   2.836   1.491   0.354  0.1892 -0.0579  0.4652
  524poe    c31 4128   2.720   1.504   0.275  0.3254 -0.0165  0.2694
  525poe    c31 4129   3.602   5.895   2.899  0.1774 -0.1892 -0.1230
  525poe     o2 4130   3.632   5.915   3.035 -0.1794 -0.4480 -0.0038
  525poe    c23 4131   3.770   5.891   3.051 -0.1594 -0.5343 -0.3041
  525poe    c23 4132   3.803   5.900   3.201  0.0057 -0.0199 -0.3705
  525poe     o2 4133   3.712   5.815   3.266 -0.1540  0.1754 -0.3362
  525poe    c23 4134   3.688   5.868   3.395  0.8992  0.8355 -0.3984
  525poe    c23 4135   3.543   5.833   3.431  0.9716  0.4211 -0.4954
  525poe     o2 4136   3.470   5.846   3.311  0.1999 -1.0351 -0.2025
  525poe    c23 4137   3.338   5.798   3.324 -0.0415 -0.3275 -0.0440
  525poe    c23 4138   3.263   5.898   3.234 -0.2816 -0.3948  0.0792
  525poe     o2 4139   3.310   5.874   3.104  0.0834  0.0038  0.1349
  525poe    c31 4140   3.242   5.957   3.013  0.4088  0.0882 -0.0355
  526poe    c31 4141   6.762   2.120   1.019 -0.1627  0.1261 -0.1323
  526poe     o2 4142   6.743   2.189   0.898 -0.1135 -0.2272 -0.3419
  526poe    c23 4143   6.606   2.192   0.863 -0.1796 -0.4114 -0.0963
  526poe    c23 4144   6.587   2.209   0.711  0.1424 -0.1602 -0.1089
  526poe     o2 4145   6.672   2.312   0.667  0.2670 -0.2445 -0.0669
  526poe    c23 4146   6.709   2.297   0.532 -0.5859 -0.1818 -0.3157
  526poe    c23 4147   6.842   2.374   0.520 -0.5739 -0.0882  0.4195
  526poe     o2 4148   6.913   2.339   0.637 -0.1867 -0.2573  0.1376
  526poe    c23 4149   7.035   2.408   0.651 -0.1193 -0.3229 -0.1356
  526poe    c23 4150   7.093   2.352   0.782  0.2171  0.8335  0.2130
  526poe     o2 4151   6.992   2.330   0.878  0.3317 -0.0629  0.1305
  526poe    c31 4152   7.069   2.283   0.987  0.1946 -0.3218  0.1167
  527poe    c31 4153   1.741   2.701   4.870 -0.3934 -0.5217 -0.3431
  527poe     o2 4154   1.855   2.704   4.787  0.2823  0.2261  0.5788
  527poe    c23 4155   1.905   2.573   4.801  0.4748  0.2240 -0.0851
  527poe    c23 4156   2.045   2.569   4.737  0.4642 -0.6082 -0.0711
  527poe     o2 4157   2.020   2.586   4.599  0.4990  0.0619  0.0013
  527poe    c23 4158   2.110   2.682   4.548 -0.0267  0.3378 -0.4056
  527poe    c23 4159   2.031   2.795   4.479  0.1364  0.4489 -0.4115
  527poe     o2 4160   1.941   2.857   4.569 -0.0486 -0.2398 -0.1141
  527poe    c23 4161   1.872   2.957   4.498  0.3811 -0.2241 -0.5164
  527poe    c23 4162   1.764   3.035   4.576 -0.0942 -0.8680 -0.5259
  527poe     o2 4163   1.817   3.037   4.707  0.0397  0.3506 -0.5915
  527poe    c31 4164   1.715   3.102   4.780  0.1019  0.4736 -0.6135
  528poe    c31 4165   5.253   5.555   2.023 -0.2188 -1.0301  0.0290
  528poe     o2 4166   5.383   5.535   1.973  0.0198 -0.2080  0.3075
  528poe    c23 4167   5.460   5.455   2.060 -0.5726 -0.6627  0.4264
  528poe    c23 4168   5.594   5.430   1.988 -0.6705  0.3895 -0.1308
  528poe     o2 4169   5.644   5.545   1.923  0.0126  0.2411  0.1237
  528poe    c23 4170   5.740   5.515   1.824  0.1317  0.1183  0.2767
  528poe    c23 4171   5.788   5.651   1.770  0.1275 -0.0024 -0.0317
  528poe     o2 4172   5.678   5.735   1.746  0.3623  0.4428  0.4455
  528poe    c23 4173   5.733   5.851   1.687 -0.2824  0.9452  0.8049
  528poe    c23 4174   5.637   5.954   1.625  0.0414  0.4623 -0.5405
  528poe     o2 4175   5.552   6.015   1.720 -0.3262 -0.4322 -0.2877
  528poe    c31 4176   5.477   6.108   1.645 -0.3541  0.2224  0.5500
  529poe    c31 4177   3.918   1.107   4.950  1.1097 -0.6103  0.6855
  529poe     o2 4178   3.937   1.226   4.877 -0.9909 -0.4480  0.3606
  529poe    c23 4179   3.917   1.346   4.949  0.6819 -0.3311  0.6743
  529poe    c23 4180   3.978   1.463   4.870 -0.0747 -0.3081  0.1051
  529poe     o2 4181   3.927   1.476   4.739  0.2316 -0.0778  0.0078
  529poe    c23 4182   3.946   1.599   4.674 -0.2759 -0.1419 -0.2651
  529poe    c23 4183   3.855   1.597   4.550  0.1346  0.7267 -0.5926
  529poe     o2 4184   3.872   1.471   4.488  0.6342  0.4654  0.0532
  529poe    c23 4185   3.796   1.457   4.370  0.4015 -0.3172  0.2878
  529poe    c23 4186   3.807   1.312   4.321  0.4418 -0.2130 -0.0182
  529poe     o2 4187   3.780   1.235   4.437  0.2054 -0.0074  0.0631
  529poe    c31 4188   3.750   1.105   4.393 -0.5837  0.0037  0.5562
  530poe    c31 4189   1.916   1.249   0.469 -0.7311  0.0619 -0.3029
  530poe     o2 4190   1.988   1.288   0.354 -0.0019  0.4552  0.2721
  530poe    c23 4191   2.122   1.310   0.391 -0.0048  0.7107  0.1362
  530poe    c23 4192   2.215   1.299   0.268 -0.1434 -0.3686  0.1165
  530poe     o2 4193   2.140   1.361   0.167 -0.1161 -0.0853  0.2694
  530poe    c23 4194   2.213   1.364   0.047 -0.2159 -0.5334  0.1940
  530poe    c23 4195   2.114   1.440  -0.043  0.1280  0.4518  0.6344
  530poe     o2 4196   1.985   1.431   0.013 -0.0485 -0.2170  0.1215
  530poe    c23 4197   1.914   1.551  -0.007 -0.0680 -0.2885 -0.2457
  530poe    c23 4198   1.787   1.549   0.081  0.1916  0.2672  0.1405
  530poe     o2 4199   1.806   1.477   0.200 -0.2364  0.3001  0.2305
  530poe    c31 4200   1.697   1.509   0.283 -0.1786  0.5984  0.1922
  531poe    c31 4201   5.950   5.091   3.853 -0.1202 -0.1424 -0.5723
  531poe     o2 4202   5.857   5.197   3.848  0.0381  0.0310  0.0138
  531poe    c23 4203   5.908   5.304   3.771  0.4260 -0.6456 -0.6914
  531poe    c23 4204   5.802   5.413   3.745  0.3684 -0.5096  0.0817
  531poe     o2 4205   5.682   5.351   3.704 -0.2318  0.1934  0.7522
  531poe    c23 4206   5.577   5.442   3.680 -0.3313 -0.0120  0.4033
  531poe    c23 4207   5.455   5.348   3.684 -0.5621  0.2495 -0.3849
  531poe     o2 4208   5.475   5.274   3.802 -0.2953  0.0853 -0.5303
  531poe    c23 4209   5.377   5.172   3.800 -0.0506 -0.1801  0.4319
  531poe    c23 4210   5.434   5.077   3.907 -0.4110 -0.3164  0.5039
  531poe     o2 4211   5.572   5.059   3.880 -0.3932  0.4647  0.0308
  531poe    c31 4212   5.636   4.966   3.964  0.0592  0.5023 -0.2722
  532poe    c31 4213   2.958   2.287   4.210 -0.2557  0.2137  0.6171
  532poe     o2 4214   2.941   2.400   4.293  0.0064  0.2271  0.6516
  532poe    c23 4215   2.837   2.370   4.384 -0.6766  0.1705 -0.1333
  532poe    c23 4216   2.835   2.463   4.507  0.0418  0.2273 -0.1579
  532poe     o2 4217   2.880   2.580   4.443  0.6755  0.0773  0.0059
  532poe    c23 4218   2.835   2.700   4.502 -0.7119 -0.3973 -0.0606
  532poe    c23 4219   2.834   2.802   4.387  0.1962  0.5787  0.7853
  532poe     o2 4220   2.916   2.751   4.284 -0.0378  0.5670  0.6052
  532poe    c23 4221   2.908   2.820   4.161 -0.4429 -0.6746 -0.0754
  532poe    c23 4222   3.020   2.762   4.072  0.3102  0.2842  0.2319
  532poe     o2 4223   3.037   2.624   4.095 -0.8514  0.0486 -0.2172
  532poe    c31 4224   3.125   2.582   3.994  0.1581 -0.0488  0.6806
  533poe    c31 4225   1.316   0.282   4.828 -0.3346 -0.0549 -0.0178
  533poe     o2 4226   1.225   0.182   4.788  0.1415 -0.4690 -0.0770
  533poe    c23 4227   1.297   0.082   4.719 -0.1124 -0.7264  0.0307
  533poe    c23 4228   1.187  -0.014   4.669 -0.3266 -0.6387  0.3282
  533poe     o2 4229   1.081   0.065   4.618  0.2623 -0.0116  0.0563
  533poe    c23 4230   0.989  -0.014   4.547 -0.0834  0.3649  0.0836
  533poe    c23 4231   0.891   0.056   4.452  0.3315  0.6897 -0.1060
  533poe     o2 4232   0.817   0.146   4.531  0.1284 -0.0822  0.5951
  533poe    c23 4233   0.824   0.280   4.485  0.2987 -0.3644 -0.2171
  533poe    c23 4234   0.860   0.378   4.599  0.3018  0.1198 -0.6331
  533poe     o2 4235   0.975   0.351   4.676 -0.5185 -0.4340  0.4243
  533poe    c31 4236   0.983   0.470   4.751 -0.4386 -0.1921  0.0338
  534poe    c31 4237   5.657   4.103   6.366  0.0950  0.2256 -0.5010
  534poe     o2 4238   5.528   4.111   6.308 -0.1834 -0.0854  0.0614
  534poe    c23 4239   5.545   4.120   6.168  0.0248 -0.7287  0.0414
  534poe    c23 4240   5.424   4.035   6.123 -0.6181  0.1574  0.0654
  534poe     o2 4241   5.322   4.042   6.220 -0.2994  0.4220  0.3904
  534poe    c23 4242   5.242   3.927   6.201  0.1998  0.0939  0.2802
  534poe    c23 4243   5.177   3.899   6.338 -0.0123 -0.0181  0.1558
  534poe     o2 4244   5.282   3.920   6.429  0.4551 -0.0608 -0.3687
  534poe    c23 4245   5.228   3.932   6.559  0.5431 -0.1591 -0.3236
  534poe    c23 4246   5.350   3.961   6.648 -0.3409  0.5840  0.6685
  534poe     o2 4247   5.398   4.084   6.597  0.0011 -0.0631 -0.6178
  534poe    c31 4248   5.491   4.147   6.683 -0.2201 -0.1654 -0.2998
  535poe    c31 4249   1.032   5.525   5.031 -0.0219  0.1452  0.1590
  535poe     o2 4250   1.021   5.559   4.895  0.0186 -0.0964  0.0940
  535poe    c23 4251   0.921   5.470   4.850  0.4850 -0.7459  0.3446
  535poe    c23 4252   0.894   5.486   4.699 -0.2284  0.2952  0.5697
  535poe     o2 4253   0.909   5.624   4.676 -0.6197  0.1839 -0.3736
  535poe    c23 4254   0.919   5.645   4.537 -0.2121  0.1980 -0.3430
  535poe    c23 4255   0.953   5.795   4.527 -0.0129  0.1991  0.3227
  535poe     o2 4256   1.029   5.815   4.644  0.1991 -0.1619  0.2478
  535poe    c23 4257   0.999   5.944   4.691  0.2589 -0.1871  0.3573
  535poe    c23 4258   1.083   5.974   4.816  0.5750 -0.2993  0.1731
  535poe     o2 4259   1.064   5.861   4.898 -0.2363 -0.1260  0.2325
  535poe    c31 4260   1.141   5.871   5.016 -0.0418  0.0682  0.0886
  536poe    c31 4261   3.617   2.355   5.146 -0.3251 -0.1240  0.1672
  536poe     o2 4262   3.572   2.284   5.033  0.4883 -0.1896 -0.1209
  536poe    c23 4263   3.575   2.144   5.047 -0.1621 -0.2104 -0.1530
  536poe    c23 4264   3.434   2.083   5.035 -0.1066 -0.4030  0.1396
  536poe     o2 4265   3.387   2.127   4.909  0.1711  0.0476  0.1885
  536poe    c23 4266   3.250   2.102   4.891  0.1616  0.1967  0.0589
  536poe    c23 4267   3.161   2.210   4.954 -0.0013  0.0847  0.0229
  536poe     o2 4268   3.232   2.326   4.918 -0.2973  0.1123 -0.4761
  536poe    c23 4269   3.175   2.435   4.988  0.1870 -0.4110  0.7551
  536poe    c23 4270   3.256   2.560   4.948 -0.6709 -0.3350 -0.7964
  536poe     o2 4271   3.391   2.519   4.952 -0.4790  0.3675 -0.0200
  536poe    c31 4272   3.478   2.615   4.895 -0.0383 -0.0874 -0.1127
  537poe    c31 4273   6.746   5.640   2.229 -0.4796  0.3841  0.4646
  537poe     o2 4274   6.785   5.651   2.094  0.0068 -0.3567  0.5344
  537poe    c23 4275   6.679   5.701   2.015  0.4072  0.4405  0.4794
  537poe    c23 4276   6.717   5.711   1.867 -0.3808  0.1701  0.2515
  537poe     o2 4277   6.767   5.588   1.818 -0.0634  0.5995 -0.5342
  537poe    c23 4278   6.671   5.496   1.772  0.0601  0.2271 -0.0532
  537poe    c23 4279   6.740   5.387   1.688 -0.0519  0.1632 -0.0632
  537poe     o2 4280   6.863   5.357   1.752 -0.0801 -0.0996 -0.1336
  537poe    c23 4281   6.930   5.257   1.679 -0.2671  0.1183 -0.6064
  537poe    c23 4282   7.054   5.231   1.766 -0.5917 -0.5506 -0.3345
  537poe     o2 4283   7.115   5.355   1.792 -0.5501 -0.6893  0.2324
  537poe    c31 4284   7.237   5.339   1.860 -0.0965  0.5054 -0.2817
  538poe    c31 4285   5.402   6.449   4.502 -0.0707  0.7512  0.9783
  538poe     o2 4286   5.263   6.436   4.480  0.0666  0.4299  0.2914
  538poe    c23 4287   5.237   6.298   4.468  0.1797  0.4725 -0.5191
  538poe    c23 4288   5.085   6.275   4.465  0.1845  0.3476  0.0523
  538poe     o2 4289   5.031   6.363   4.369 -0.4550  0.4136  0.4644
  538poe    c23 4290   4.891   6.352   4.383 -0.5420 -0.1831 -0.7424
  538poe    c23 4291   4.842   6.495   4.352 -0.3122  0.0079 -0.2381
  538poe     o2 4292   4.923   6.582   4.427  0.2595 -0.1016 -0.7182
  538poe    c23 4293   4.878   6.716   4.419  0.4167  0.0311  0.3818
  538poe    c23 4294   4.997   6.807   4.453 -0.0066  0.5063  0.5994
  538poe     o2 4295   5.110   6.728   4.422 -0.2303  0.3116  0.2793
  538poe    c31 4296   5.218   6.812   4.454  0.0913  0.0675 -0.1548
  539poe    c31 4297   5.213   3.301   0.455  0.1212 -0.1964  0.9128
  539poe     o2 4298   5.328   3.223   0.434 -0.0891 -0.3768  0.4132
  539poe    c23 4299   5.308   3.146   0.317  0.3919 -0.4856  0.4003
  539poe    c23 4300   5.442   3.155   0.243  0.0126  0.1179 -0.2243
  539poe     o2 4301   5.548   3.135   0.335 -0.2730  0.2908  0.1430
  539poe    c23 4302   5.673   3.174   0.284 -0.4127  0.2040 -0.2744
  539poe    c23 4303   5.765   3.197   0.406 -0.2147  0.1572 -0.4136
  539poe     o2 4304   5.683   3.266   0.498 -0.1870 -0.4168  0.0513
  539poe    c23 4305   5.739   3.277   0.626  0.0276  0.2369 -0.0934
  539poe    c23 4306   5.634   3.345   0.716  0.1285 -0.2214  0.3812
  539poe     o2 4307   5.513   3.288   0.669  0.2335  0.4657 -0.7523
  539poe    c31 4308   5.407   3.357   0.731  0.2559  0.0786 -0.2838
  540poe    c31 4309   0.786   6.244   4.413  0.3579  0.5116 -0.5893
  540poe     o2 4310   0.856   6.144   4.342  0.5310 -0.0595  0.3705
  540poe    c23 4311   0.773   6.035   4.310  0.3490  0.2535 -0.2494
  540poe    c23 4312   0.838   5.958   4.193 -0.4012 -0.4529 -0.2047
  540poe     o2 4313   0.977   5.946   4.214 -0.2891  0.6167 -0.2856
  540poe    c23 4314   1.051   5.867   4.123 -0.1634 -0.3091  0.6052
  540poe    c23 4315   1.188   5.880   4.192  0.1067  0.1325 -0.0014
  540poe     o2 4316   1.200   6.007   4.253 -0.5703  0.1822  0.0275
  540poe    c23 4317   1.309   6.029   4.339 -0.0497  0.2527 -0.6474
  540poe    c23 4318   1.292   6.176   4.380 -0.0572 -0.0181  0.3536
  540poe     o2 4319   1.153   6.180   4.402 -0.1756 -0.4077 -0.2836
  540poe    c31 4320   1.124   6.276   4.502  0.6237 -0.5475  0.0918
  541poe    c31 4321   5.339   1.337   3.741 -0.3600 -0.1212 -0.2725
  541poe     o2 4322   5.352   1.379   3.607 -0.1049  0.4197 -0.0804
  541poe    c23 4323   5.221   1.394   3.556  0.0529  0.9735 -0.3335
  541poe    c23 4324   5.233   1.359   3.406  0.2621  0.4150 -0.1925
  541poe     o2 4325   5.350   1.416   3.352 -0.0429  0.7692 -0.4804
  541poe    c23 4326   5.378   1.360   3.226  0.0049  0.1562 -0.1984
  541poe    c23 4327   5.531   1.357   3.208  0.0387 -0.3103  0.1369
  541poe     o2 4328   5.578   1.335   3.339 -0.0342  0.6648  0.3345
  541poe    c23 4329   5.718   1.345   3.352 -0.0150  0.5240  0.2384
  541poe    c23 4330   5.734   1.305   3.500 -0.6494 -0.3783  0.0705
  541poe     o2 4331   5.637   1.369   3.580 -0.1491 -0.2106  0.5488
  541poe    c31 4332   5.686   1.361   3.712 -0.0802 -0.0726  0.5314
  542poe    c31 4333   6.614   4.010   1.973 -0.2033  0.6727  0.3762
  542poe     o2 4334   6.635   3.871   1.985 -0.4486  0.6005  0.0111
  542poe    c23 4335   6.771   3.835   1.996 -0.6027 -0.0455 -0.1570
  542poe    c23 4336   6.785   3.686   1.959 -0.5574 -0.1152  0.1317
  542poe     o2 4337   6.691   3.617   2.038 -0.1731 -0.7434  0.0445
  542poe    c23 4338   6.724   3.480   2.029  0.1550 -0.6341 -0.4950
  542poe    c23 4339   6.653   3.419   2.152 -0.1734  0.2513 -0.2353
  542poe     o2 4340   6.676   3.514   2.253 -0.1479 -0.4851  0.4544
  542poe    c23 4341   6.585   3.530   2.360 -0.2646  0.0303  0.2795
  542poe    c23 4342   6.590   3.681   2.391 -0.6134  0.1033 -0.0126
  542poe     o2 4343   6.569   3.763   2.278 -0.0253  0.1216 -0.1106
  542poe    c31 4344   6.540   3.895   2.319 -0.0279  0.0582  0.0956
  543poe    c31 4345   2.968   6.658   5.543  0.4994 -0.2630 -0.9503
  543poe     o2 4346   2.892   6.551   5.595 -0.2736  0.7023 -0.0577
  543poe    c23 4347   2.793   6.528   5.498  0.1023 -0.3701 -0.1935
  543poe    c23 4348   2.690   6.423   5.544  0.0688 -0.3585 -0.2411
  543poe     o2 4349   2.764   6.305   5.563 -0.0545 -0.4708 -0.4542
  543poe    c23 4350   2.673   6.202   5.593 -0.4050 -0.0327  0.0055
  543poe    c23 4351   2.743   6.068   5.624 -0.3335  0.0512  0.2097
  543poe     o2 4352   2.830   6.074   5.734  0.3339 -0.0162 -0.3075
  543poe    c23 4353   2.916   5.962   5.737 -0.1869 -0.4181 -0.3249
  543poe    c23 4354   3.002   5.991   5.862 -0.2356 -0.3514 -0.3063
  543poe     o2 4355   3.047   6.124   5.856  0.6066 -0.6311 -0.3440
  543poe    c31 4356   3.101   6.174   5.976  0.1631 -0.1086 -0.3521
  544poe    c31 4357   0.864   5.358   1.233 -0.3978  0.7418  0.3967
  544poe     o2 4358   0.798   5.288   1.336  0.0892  0.0415  0.2391
  544poe    c23 4359   0.799   5.149   1.309 -0.1014  0.0722  0.0606
  544poe    c23 4360   0.731   5.097   1.437 -0.3242  0.0824 -0.0549
  544poe     o2 4361   0.784   5.161   1.551  0.2100 -0.3310 -0.0684
  544poe    c23 4362   0.735   5.130   1.679  0.1991 -0.0768 -0.0101
  544poe    c23 4363   0.792   5.236   1.774  0.0728 -0.0173  0.0001
  544poe     o2 4364   0.761   5.357   1.708  0.3351 -0.0752 -0.2318
  544poe    c23 4365   0.829   5.462   1.773  0.2248 -0.1472  0.0015
  544poe    c23 4366   0.814   5.583   1.679 -0.2760  0.1360  0.4422
  544poe     o2 4367   0.818   5.547   1.543 -0.5255  0.3779  0.3685
  544poe    c31 4368   0.854   5.651   1.456  0.4990 -0.0461  0.2673
  545poe    c31 4369   1.376   0.648   3.736 -0.2735 -0.0306 -0.7926
  545poe     o2 4370   1.341   0.511   3.737  0.4154 -0.2066  0.1055
  545poe    c23 4371   1.305   0.469   3.608 -0.1299  0.1896  0.1211
  545poe    c23 4372   1.226   0.337   3.608  0.1378  0.0255 -0.2307
  545poe     o2 4373   1.280   0.220   3.667  0.2515  0.2387  0.0896
  545poe    c23 4374   1.195   0.111   3.642  0.1790  0.4578 -0.6581
  545poe    c23 4375   1.262  -0.005   3.719 -0.5351  0.2323 -0.3722
  545poe     o2 4376   1.292   0.031   3.852 -0.1231 -0.3635 -0.3024
  545poe    c23 4377   1.391  -0.062   3.888 -0.2162 -0.4037 -0.1454
  545poe    c23 4378   1.445  -0.010   4.022 -0.3894  0.1285 -0.2819
  545poe     o2 4379   1.490   0.124   4.016  0.7294 -0.2304 -0.1353
  545poe    c31 4380   1.526   0.172   4.143  0.0196  0.5824 -0.2295
  546poe    c31 4381   0.838   2.676   1.313  0.7828  0.0142 -0.3033
  546poe     o2 4382   0.785   2.668   1.183 -0.5470  0.2886  0.2079
  546poe    c23 4383   0.646   2.692   1.177 -0.5605  0.2483  0.3621
  546poe    c23 4384   0.594   2.677   1.033  0.2899 -0.2309  0.1020
  546poe     o2 4385   0.668   2.763   0.949  0.3733 -0.3490  0.0545
  546poe    c23 4386   0.659   2.744   0.809 -0.1065  0.1270  0.0193
  546poe    c23 4387   0.771   2.827   0.746  0.3537 -0.0743  0.5599
  546poe     o2 4388   0.890   2.797   0.815  0.6104  0.3897  0.3287
  546poe    c23 4389   0.994   2.798   0.720  0.4418  0.5886  0.1473
  546poe    c23 4390   1.130   2.787   0.790  0.0618  0.0661  0.8061
  546poe     o2 4391   1.133   2.679   0.882 -0.2509  0.0078  0.7487
  546poe    c31 4392   1.262   2.661   0.936  0.0638  0.5328  0.1935
  547poe    c31 4393   1.715   0.242   4.600 -0.4184  0.4144  0.0338
  547poe     o2 4394   1.715   0.359   4.678 -0.2337  0.4712 -0.0515
  547poe    c23 4395   1.842   0.383   4.733 -0.0212 -0.0076 -0.3314
  547poe    c23 4396   1.834   0.393   4.887 -0.5555  0.0209 -0.3595
  547poe     o2 4397   1.755   0.494   4.946  0.0331  0.2636  0.0294
  547poe    c23 4398   1.774   0.488   5.085  0.5798 -0.2075 -0.0626
  547poe    c23 4399   1.752   0.624   5.154 -0.1438 -0.4877  0.2718
  547poe     o2 4400   1.626   0.679   5.125  0.0619 -0.0772  0.1425
  547poe    c23 4401   1.565   0.740   5.236 -0.1686  0.4914 -0.2881
  547poe    c23 4402   1.414   0.733   5.210 -0.1859  0.0784 -0.0908
  547poe     o2 4403   1.391   0.784   5.080 -0.4191 -0.2540 -0.1824
  547poe    c31 4404   1.253   0.772   5.053 -0.4869  0.2393 -0.0797
  548poe    c31 4405   3.748   2.321   0.689 -0.1909 -0.2124 -0.4503
  548poe     o2 4406   3.725   2.359   0.555  0.1373  0.9031 -0.2000
  548poe    c23 4407   3.586   2.358   0.528  0.0398 -0.2050  0.2786
  548poe    c23 4408   3.561   2.490   0.453 -0.0758 -0.2933  0.1624
  548poe     o2 4409   3.649   2.496   0.343 -0.4125 -0.1879 -0.1046
  548poe    c23 4410   3.635   2.594   0.242 -0.3836  0.2822  0.3415
  548poe    c23 4411   3.770   2.581   0.169 -0.1494  0.0396  0.8092
  548poe     o2 4412   3.872   2.569   0.266  0.2491 -0.2577  0.3608
  548poe    c23 4413   3.992   2.528   0.205  0.2005  0.2007 -0.0542
  548poe    c23 4414   3.990   2.375   0.217 -0.4859  0.2393  0.3314
  548poe     o2 4415   3.960   2.332   0.349 -0.3683  0.2076  0.3480
  548poe    c31 4416   3.965   2.192   0.341  0.3623  0.2766 -0.5574
  549poe    c31 4417   3.860   4.103   3.450  0.1452  0.5548 -0.1886
  549poe     o2 4418   3.974   4.186   3.455  0.2243  0.4181  0.3364
  549poe    c23 4419   3.937   4.304   3.389 -0.2843  0.0263 -0.0929
  549poe    c23 4420   4.033   4.328   3.270  0.0108 -0.1743  0.1049
  549poe     o2 4421   4.167   4.322   3.315  0.0734  0.1297 -0.0425
  549poe    c23 4422   4.250   4.363   3.209 -0.0064  0.0130 -0.1498
  549poe    c23 4423   4.392   4.384   3.264  0.1231 -0.2140 -0.3916
  549poe     o2 4424   4.446   4.267   3.321 -0.4118 -0.2756 -0.0074
  549poe    c23 4425   4.565   4.292   3.392 -0.2348 -0.1768 -0.3390
  549poe    c23 4426   4.560   4.186   3.504  0.4085 -0.1923 -0.3209
  549poe     o2 4427   4.590   4.057   3.454  0.0557 -0.0866 -0.8190
  549poe    c31 4428   4.689   4.002   3.538 -0.6020  0.4249  0.3149
  550poe    c31 4429   4.868   1.188   5.179  0.5583 -0.4123  0.3726
  550poe     o2 4430   4.859   1.047   5.190  0.1075 -0.3833  0.3648
  550poe    c23 4431   4.806   1.024   5.319  0.6068 -0.1303  0.6160
  550poe    c23 4432   4.754   0.880   5.329 -0.1569  0.0457 -0.6590
  550poe     o2 4433   4.859   0.794   5.292  0.0260 -0.0223  0.0018
  550poe    c23 4434   4.957   0.770   5.391  0.0009  0.4259  0.1376
  550poe    c23 4435   5.086   0.735   5.313 -0.3461  0.0633 -0.2826
  550poe     o2 4436   5.093   0.826   5.206  0.1817 -0.0953 -0.3852
  550poe    c23 4437   5.189   0.800   5.107 -0.1117 -0.1563 -0.6570
  550poe    c23 4438   5.206   0.920   5.011  0.1343  0.0163 -0.3967
  550poe     o2 4439   5.083   0.983   4.983 -0.0415  0.0065  0.3208
  550poe    c31 4440   5.089   1.076   4.877 -0.7119  0.1777  0.4312
  551poe    c31 4441   3.427   5.164   1.641  0.0873  0.0621 -0.4015
  551poe     o2 4442   3.332   5.263   1.606  0.0991  0.4131  0.5345
  551poe    c23 4443   3.231   5.273   1.705 -0.2648  0.2216  0.1834
  551poe    c23 4444   3.131   5.387   1.679 -0.0093  0.3033 -0.4666
  551poe     o2 4445   3.119   5.383   1.538 -0.2589  0.1862 -0.4428
  551poe    c23 4446   3.043   5.487   1.480 -0.6440  0.1323 -0.0353
  551poe    c23 4447   3.056   5.447   1.332  0.0930 -0.1803  0.1117
  551poe     o2 4448   3.185   5.390   1.325  0.0525 -0.3237  0.4790
  551poe    c23 4449   3.215   5.340   1.196 -0.0961  0.2516  0.2191
  551poe    c23 4450   3.366   5.370   1.200  0.0492 -0.4067 -0.2957
  551poe     o2 4451   3.414   5.320   1.323  0.5530 -0.2632 -0.4332
  551poe    c31 4452   3.551   5.353   1.340  0.5465 -0.0837 -0.7106
  552poe    c31 4453   5.964   0.519   5.169  0.4078  0.1113 -0.1481
  552poe     o2 4454   5.988   0.553   5.034 -0.4043  0.3308 -0.2398
  552poe    c23 4455   6.100   0.637   5.020 -0.0096 -0.0622  0.5044
  552poe    c23 4456   6.113   0.650   4.867 -0.3714  0.3100  0.5012
  552poe     o2 4457   5.990   0.669   4.801 -0.3837 -0.0168  0.4299
  552poe    c23 4458   5.945   0.802   4.797  0.4701  0.2537 -0.3861
  552poe    c23 4459   5.792   0.801   4.775  0.4297  0.3910 -0.1079
  552poe     o2 4460   5.759   0.685   4.848  0.4328  0.2071 -0.3971
  552poe    c23 4461   5.621   0.683   4.881  0.4610 -0.1954 -0.2992
  552poe    c23 4462   5.577   0.551   4.947  0.3313 -0.3311 -0.6559
  552poe     o2 4463   5.691   0.472   4.973  0.3835 -0.0888 -0.1215
  552poe    c31 4464   5.652   0.359   5.048 -0.4123  0.2433 -0.0289
  553poe    c31 4465   4.310   5.313   2.907 -0.9287  0.4240 -0.1843
  553poe     o2 4466   4.342   5.447   2.879 -0.3633  0.4134  0.3949
  553poe    c23 4467   4.479   5.470   2.900 -0.1347 -0.1430 -0.4605
  553poe    c23 4468   4.517   5.618   2.881  0.0419 -0.1924 -0.4954
  553poe     o2 4469   4.463   5.714   2.969 -0.0061 -0.2524 -0.4605
  553poe    c23 4470   4.510   5.702   3.101  0.1291  0.4438 -0.4438
  553poe    c23 4471   4.509   5.834   3.182  0.2952  0.0204  0.2597
  553poe     o2 4472   4.372   5.867   3.181  0.1916 -0.3967 -0.1375
  553poe    c23 4473   4.339   5.969   3.273  0.4343 -0.2621 -0.1993
  553poe    c23 4474   4.243   5.928   3.386  0.0128 -0.1525 -0.5136
  553poe     o2 4475   4.311   5.847   3.479 -0.2032  0.0778 -0.1479
  553poe    c31 4476   4.230   5.826   3.592  0.1447  0.3114  0.1488
  554poe    c31 4477   0.347   2.708   1.467  0.1277  0.5802 -0.0876
  554poe     o2 4478   0.368   2.838   1.516  0.5358  0.4606  0.0520
  554poe    c23 4479   0.294   2.881   1.628  0.8073 -0.1266  0.4616
  554poe    c23 4480   0.300   3.034   1.641 -0.1407 -0.0504  0.0928
  554poe     o2 4481   0.436   3.070   1.637 -0.2023  0.1337 -0.3563
  554poe    c23 4482   0.462   3.204   1.671  0.1343  0.0002 -0.0932
  554poe    c23 4483   0.562   3.192   1.789 -0.0581 -0.3169  0.0409
  554poe     o2 4484   0.686   3.145   1.741  0.0374 -0.0541  0.0258
  554poe    c23 4485   0.759   3.090   1.848  0.1796 -0.1887 -0.1400
  554poe    c23 4486   0.885   3.014   1.805  0.3653  0.1602 -0.2114
  554poe     o2 4487   0.869   2.902   1.721 -0.4659  0.0951  0.0247
  554poe    c31 4488   0.984   2.822   1.739 -0.1890  0.6238  0.6607
  555poe    c31 4489   2.066   0.231   3.503  0.4617 -0.6508  0.2824
  555poe     o2 4490   2.177   0.304   3.456 -0.0010 -0.4422 -0.5104
  555poe    c23 4491   2.287   0.220   3.429  0.4099 -0.2557  0.5514
  555poe    c23 4492   2.406   0.306   3.382 -0.3242  0.3728 -0.1900
  555poe     o2 4493   2.349   0.412   3.310  0.3051  0.2626 -0.8589
  555poe    c23 4494   2.442   0.517   3.296 -0.3560  1.0273  0.2731
  555poe    c23 4495   2.363   0.637   3.239 -0.7716  0.4487 -0.3889
  555poe     o2 4496   2.255   0.649   3.329 -0.4053  0.3058  0.0770
  555poe    c23 4497   2.142   0.673   3.248 -0.1797  0.1795 -0.2751
  555poe    c23 4498   2.029   0.654   3.351 -0.0072 -0.2977 -0.1725
  555poe     o2 4499   2.011   0.519   3.389 -0.2856 -0.1033  0.4023
  555poe    c31 4500   1.875   0.485   3.399 -0.1829 -0.7117 -0.1500
  556poe    c31 4501   2.077   5.211   2.572  0.1447  0.1140 -1.2662
  556poe     o2 4502   2.150   5.309   2.642  0.5626 -1.1480  0.1302
  556poe    c23 4503   2.135   5.310   2.782  0.0821  0.1508  0.0850
  556poe    c23 4504   2.257   5.384   2.842 -0.1305  0.4151  0.1944
  556poe     o2 4505   2.267   5.520   2.807  0.1522  0.4006  0.2138
  556poe    c23 4506   2.379   5.577   2.870  0.2876  0.4401 -0.0656
  556poe    c23 4507   2.403   5.726   2.837 -0.2968  0.4432 -0.4874
  556poe     o2 4508   2.372   5.736   2.699 -0.7537  0.2416 -0.3997
  556poe    c23 4509   2.399   5.864   2.647  0.7814  0.0962 -0.0180
  556poe    c23 4510   2.353   5.830   2.504  0.4188 -0.4344  0.2213
  556poe     o2 4511   2.226   5.770   2.508  0.0779  0.2995  0.4887
  556poe    c31 4512   2.139   5.841   2.424 -0.0226 -0.7099 -0.2762
  557poe    c31 4513   5.452   5.086   1.942 -0.8867 -0.6185 -0.0703
  557poe     o2 4514   5.581   5.050   1.899 -0.4748  0.4799  0.2092
  557poe    c23 4515   5.662   5.009   2.007 -0.3019 -0.5906 -0.3174
  557poe    c23 4516   5.746   4.887   1.963  0.1271 -0.6154  0.5436
  557poe     o2 4517   5.797   4.934   1.840 -0.0377 -0.5904  0.4844
  557poe    c23 4518   5.850   4.822   1.773  0.5931 -0.1090  0.1696
  557poe    c23 4519   5.914   4.897   1.655  0.3346  0.0122  0.1058
  557poe     o2 4520   5.819   4.996   1.620  0.2560 -0.1994 -0.2864
  557poe    c23 4521   5.853   5.110   1.545  0.3943 -0.1004 -0.0754
  557poe    c23 4522   5.715   5.167   1.505  0.1899 -0.0488  0.6793
  557poe     o2 4523   5.630   5.171   1.617 -0.4659 -0.4788  0.1995
  557poe    c31 4524   5.508   5.225   1.572 -0.1006  0.5782  0.4483
  558poe    c31 4525   0.016   4.345   1.924  0.2835  0.4190  0.3409
  558poe     o2 4526   0.129   4.322   2.004  0.2892 -0.1816  0.1653
  558poe    c23 4527   0.101   4.248   2.121 -0.0200 -0.5485 -0.1372
  558poe    c23 4528   0.222   4.263   2.215 -0.3834  0.0019  0.2486
  558poe     o2 4529   0.334   4.260   2.129 -0.3852 -0.1168  0.2500
  558poe    c23 4530   0.448   4.289   2.207 -0.1018 -0.8108  0.0946
  558poe    c23 4531   0.569   4.314   2.116 -0.3733  0.4797  0.0701
  558poe     o2 4532   0.557   4.443   2.062 -0.3759  0.3285 -0.2932
  558poe    c23 4533   0.586   4.458   1.925  0.0261  0.8108 -0.1602
  558poe    c23 4534   0.512   4.367   1.825 -0.4164 -0.0336  0.9091
  558poe     o2 4535   0.372   4.381   1.823 -0.3744  0.4151 -0.3738
  558poe    c31 4536   0.325   4.421   1.696 -0.2881  0.0851 -0.5095
  559poe    c31 4537   1.735   3.512   1.017  0.0276 -1.0966  0.0511
  559poe     o2 4538   1.647   3.479   1.121 -0.4302 -0.0968 -0.0044
  559poe    c23 4539   1.732   3.459   1.232  0.1946  0.4354 -0.3822
  559poe    c23 4540   1.656   3.423   1.361 -0.0364 -0.2998 -0.7214
  559poe     o2 4541   1.568   3.530   1.385  0.1929 -0.2188 -0.2315
  559poe    c23 4542   1.496   3.513   1.505 -0.0589  0.0231 -0.3465
  559poe    c23 4543   1.409   3.636   1.537 -0.2612 -0.1425 -0.2556
  559poe     o2 4544   1.338   3.672   1.421  0.0465 -0.2307 -0.4743
  559poe    c23 4545   1.232   3.763   1.444  0.2741 -0.0515 -0.1357
  559poe    c23 4546   1.165   3.821   1.319  0.4278 -0.1365 -0.2585
  559poe     o2 4547   1.066   3.741   1.258 -0.0694  0.2289  0.0564
  559poe    c31 4548   0.996   3.813   1.159 -0.0503  0.6659  0.3594
  560poe    c31 4549   3.972   5.013   0.097 -0.5071 -0.6941  1.6740
  560poe     o2 4550   4.079   5.017   0.190  0.3736  0.0152  0.6526
  560poe    c23 4551   4.110   4.888   0.236  0.0115 -0.2936  0.0494
  560poe    c23 4552   4.158   4.898   0.382 -0.5862 -0.1140  0.2384
  560poe     o2 4553   4.259   4.996   0.382 -0.6027 -0.0967  0.2812
  560poe    c23 4554   4.288   5.047   0.510  0.0002 -0.0608  0.1325
  560poe    c23 4555   4.385   5.166   0.493  0.1184 -0.1668  0.0653
  560poe     o2 4556   4.312   5.267   0.426 -0.3918 -0.3605  0.3224
  560poe    c23 4557   4.389   5.337   0.331 -1.1585 -0.0373 -0.0650
  560poe    c23 4558   4.311   5.436   0.243 -0.3086  0.0642 -0.7146
  560poe     o2 4559   4.223   5.352   0.170 -0.1702 -0.1746 -0.6056
  560poe    c31 4560   4.153   5.420   0.069  0.4978  0.4852 -0.6369
  561poe    c31 4561   1.644   5.762   3.927  0.5674  0.4380  0.5328
  561poe     o2 4562   1.670   5.810   3.797 -0.0056 -0.7809 -0.0490
  561poe    c23 4563   1.783   5.757   3.732  0.2045  0.3995 -0.6759
  561poe    c23 4564   1.736   5.717   3.590  0.0561 -0.3419 -0.4235
  561poe     o2 4565   1.672   5.826   3.528  0.0778 -0.0759  0.0169
  561poe    c23 4566   1.601   5.787   3.413 -0.8036  0.1665  0.4710
  561poe    c23 4567   1.539   5.921   3.369 -0.0381  0.2506 -0.3850
  561poe     o2 4568   1.495   5.974   3.492  0.4508 -0.8973  0.3027
  561poe    c23 4569   1.449   6.107   3.484  0.1058 -0.9912  0.7182
  561poe    c23 4570   1.409   6.156   3.625 -0.3829  0.5399  0.0720
  561poe     o2 4571   1.483   6.078   3.717  0.0574  0.6831 -0.1592
  561poe    c31 4572   1.461   6.101   3.854 -0.1598  0.0797 -0.0933
  562poe    c31 4573   2.478   6.684   5.233  0.0318  0.5460 -0.1518
  562poe     o2 4574   2.378   6.745   5.155 -0.2634  0.0683 -0.1505
  562poe    c23 4575   2.430   6.772   5.027  0.3513 -0.1400  0.0546
  562poe    c23 4576   2.326   6.751   4.916  0.1955 -0.4392  0.2547
  562poe     o2 4577   2.203   6.784   4.977 -0.0164 -0.0393 -0.3761
  562poe    c23 4578   2.083   6.783   4.902 -0.5359 -0.8265  0.4432
  562poe    c23 4579   1.972   6.815   5.003 -0.3942  0.6990  0.1456
  562poe     o2 4580   2.009   6.748   5.122 -0.1302  0.2127 -0.2082
  562poe    c23 4581   1.948   6.792   5.241  0.1118  0.0523 -0.0244
  562poe    c23 4582   2.008   6.705   5.353  0.1052  0.0675 -0.0095
  562poe     o2 4583   2.148   6.687   5.349  0.0636 -0.2389 -0.0873
  562poe    c31 4584   2.212   6.638   5.465  0.0885 -0.3162 -0.1342
  563poe    c31 4585   0.600   1.152   0.124 -0.1647 -0.5275  0.3535
  563poe     o2 4586   0.534   1.116   0.004  0.2641 -0.4892  0.1031
  563poe    c23 4587   0.416   1.046   0.034 -0.0548 -0.0193 -0.0369
  563poe    c23 4588   0.420   0.923  -0.059  0.4122 -0.0151 -0.0268
  563poe     o2 4589   0.464   0.966  -0.185 -0.3827  0.0717 -0.2789
  563poe    c23 4590   0.451   0.866  -0.284 -0.0162  0.0244 -0.2781
  563poe    c23 4591   0.516   0.886  -0.422 -0.6291 -0.3383 -0.6210
  563poe     o2 4592   0.635   0.809  -0.431 -0.5502 -0.2387 -0.4186
  563poe    c23 4593   0.714   0.863  -0.534  0.3119 -0.0610  0.3222
  563poe    c23 4594   0.861   0.820  -0.526  0.4644  0.4433  0.2633
  563poe     o2 4595   0.871   0.700  -0.452  0.6826 -0.2107 -0.8150
  563poe    c31 4596   1.006   0.659  -0.447  0.7605  0.0643 -0.5923
  564poe    c31 4597   0.422   6.686   6.011 -0.2070  0.1812  0.3347
  564poe     o2 4598   0.366   6.607   5.909 -0.0559  0.3811  0.0958
  564poe    c23 4599   0.464   6.544   5.830 -0.6951 -0.3981 -0.0912
  564poe    c23 4600   0.409   6.509   5.690 -0.0817 -0.1878 -0.3875
  564poe     o2 4601   0.285   6.452   5.724 -0.3088  0.4246 -0.1813
  564poe    c23 4602   0.192   6.441   5.619  0.2018  0.0328 -0.5935
  564poe    c23 4603   0.100   6.351   5.702  0.2562  0.0157 -0.5512
  564poe     o2 4604   0.060   6.444   5.802 -0.0494 -0.3340 -0.3447
  564poe    c23 4605   0.027   6.371   5.918 -0.3877  0.1995 -0.1026
  564poe    c23 4606  -0.006   6.473   6.029  0.6309 -0.4243  0.7886
  564poe     o2 4607   0.104   6.561   6.026  0.1194  0.1953 -0.0486
  564poe    c31 4608   0.112   6.659   6.127 -0.3872  0.7730 -0.5615
  565poe    c31 4609   0.179   2.915   0.419 -0.3630 -0.2087 -0.1456
  565poe     o2 4610   0.112   3.036   0.449 -0.2632 -0.2204  0.1313
  565poe    c23 4611   0.029   3.077   0.343  0.3038 -0.0217 -0.2438
  565poe    c23 4612  -0.079   3.170   0.402  0.4620  0.5100 -0.7696
  565poe     o2 4613  -0.010   3.272   0.470  0.2130  0.1603  0.0345
  565poe    c23 4614  -0.089   3.345   0.560  0.2420  0.2739 -0.0314
  565poe    c23 4615   0.011   3.404   0.661  0.2489  0.3636 -0.0905
  565poe     o2 4616   0.114   3.312   0.689 -0.1987 -0.0897  0.0928
  565poe    c23 4617   0.169   3.344   0.815  0.3572  0.1165 -0.1985
  565poe    c23 4618   0.260   3.243   0.887  0.2150  0.1787  0.0687
  565poe     o2 4619   0.378   3.204   0.821  0.0940  0.1138 -0.1106
  565poe    c31 4620   0.444   3.093   0.878 -0.5307 -0.0665  0.2702
  566poe    c31 4621   3.876   1.748   3.110  0.0868  0.0509 -0.3084
  566poe     o2 4622   3.858   1.777   2.973 -0.0962 -0.1953 -0.3384
  566poe    c23 4623   3.917   1.897   2.925  0.2114 -0.4938 -0.7174
  566poe    c23 4624   3.889   1.891   2.774 -0.1372 -0.0425 -0.6734
  566poe     o2 4625   3.754   1.854   2.760 -0.3075  0.3703 -0.1519
  566poe    c23 4626   3.714   1.860   2.625 -0.4218 -0.2053 -0.1469
  566poe    c23 4627   3.577   1.793   2.642 -0.5738  0.1628  0.0845
  566poe     o2 4628   3.584   1.669   2.709  0.6057 -0.0062 -0.3336
  566poe    c23 4629   3.459   1.610   2.683  0.5821  0.2071 -0.7131
  566poe    c23 4630   3.469   1.464   2.730 -0.1573  0.2446 -0.4274
  566poe     o2 4631   3.572   1.398   2.660 -0.0532 -0.0636  0.0078
  566poe    c31 4632   3.561   1.259   2.679 -0.2372 -0.0415  0.0697
  567poe    c31 4633   6.265   3.552   0.879 -0.1467  0.1011  0.3525
  567poe     o2 4634   6.295   3.686   0.910  0.1473  0.1348 -0.0750
  567poe    c23 4635   6.177   3.753   0.949 -0.3303 -0.9954  0.4658
  567poe    c23 4636   6.229   3.863   1.044  0.0540 -0.4202 -0.4031
  567poe     o2 4637   6.344   3.931   0.997 -0.3208  0.6213  0.1611
  567poe    c23 4638   6.432   3.974   1.098  0.1352 -0.0023  0.0375
  567poe    c23 4639   6.550   4.033   1.018  0.3077 -0.1207  0.2056
  567poe     o2 4640   6.544   3.956   0.900  0.2135  0.4140 -0.1445
  567poe    c23 4641   6.597   4.020   0.787  0.8648  0.1267 -0.0061
  567poe    c23 4642   6.590   3.905   0.685  0.6014  0.2137 -0.0882
  567poe     o2 4643   6.472   3.832   0.706  0.4685  0.3122 -0.4913
  567poe    c31 4644   6.472   3.731   0.608 -0.7078 -0.1067 -0.0869
  568poe    c31 4645   3.910   3.685   3.939  0.2974 -0.1578 -0.2578
  568poe     o2 4646   3.881   3.568   4.012  0.6205 -0.2541 -0.2809
  568poe    c23 4647   3.792   3.484   3.942  0.2315 -0.2166  0.1706
  568poe    c23 4648   3.682   3.427   4.034  0.2826 -0.1548  0.2703
  568poe     o2 4649   3.756   3.386   4.147  0.1149 -0.6685  0.1974
  568poe    c23 4650   3.679   3.335   4.253 -0.0579 -0.0539  0.3736
  568poe    c23 4651   3.775   3.325   4.374 -0.4547 -0.1172  0.6873
  568poe     o2 4652   3.857   3.439   4.377 -0.0444 -0.3726 -0.1923
  568poe    c23 4653   3.978   3.422   4.447 -0.2521 -0.2290  0.2061
  568poe    c23 4654   4.072   3.526   4.384 -0.3328 -0.2397  0.0685
  568poe     o2 4655   4.057   3.518   4.244  0.0295 -0.1428  0.0243
  568poe    c31 4656   4.170   3.563   4.172  0.1463 -0.3341  0.0873
  569poe    c31 4657   3.088   6.359   2.968  0.4724 -0.6611 -0.4121
  569poe     o2 4658   2.961   6.329   2.915  0.4593 -0.5928 -0.4188
  569poe    c23 4659   2.967   6.239   2.806  0.1566 -0.6589 -0.3824
  569poe    c23 4660   2.836   6.249   2.727 -0.1621  0.1032  0.2314
  569poe     o2 4661   2.720   6.238   2.807 -0.2070 -0.7887  0.0533
  569poe    c23 4662   2.602   6.264   2.733 -0.1149 -0.1213  0.1371
  569poe    c23 4663   2.488   6.237   2.833 -0.4883  0.4080 -0.1400
  569poe     o2 4664   2.527   6.305   2.950  0.0845 -0.2515  0.0621
  569poe    c23 4665   2.426   6.356   3.033  0.0748 -0.0074 -0.0975
  569poe    c23 4666   2.316   6.260   3.084 -0.1286  0.5010  0.4306
  569poe     o2 4667   2.214   6.268   2.988 -0.1298 -0.0129  0.3886
  569poe    c31 4668   2.085   6.236   3.035 -0.1614 -0.1998  0.1785
  570poe    c31 4669   1.795   2.270   3.564 -0.0842  0.0856  0.2968
  570poe     o2 4670   1.934   2.265   3.589 -0.0373 -0.1632 -0.0095
  570poe    c23 4671   1.988   2.395   3.590 -0.0840 -0.1432 -0.1700
  570poe    c23 4672   2.140   2.403   3.568 -0.1361 -0.0125 -0.4865
  570poe     o2 4673   2.183   2.529   3.616 -0.1680 -0.1584 -0.0763
  570poe    c23 4674   2.321   2.558   3.619 -0.1893 -0.0349 -0.3251
  570poe    c23 4675   2.365   2.696   3.669  0.2994 -0.4564  0.4127
  570poe     o2 4676   2.324   2.702   3.804  0.0423  0.1322  0.3123
  570poe    c23 4677   2.327   2.841   3.827 -0.4275  0.2220 -0.1586
  570poe    c23 4678   2.305   2.867   3.977 -0.7458  0.3555 -0.2276
  570poe     o2 4679   2.233   2.755   4.023  0.0135 -0.0204  0.0476
  570poe    c31 4680   2.226   2.765   4.164  0.3297  0.4047  0.0343
  571poe    c31 4681   5.356   3.491   4.344 -0.0684 -0.2385 -0.5694
  571poe     o2 4682   5.374   3.412   4.459 -0.2350 -0.0478 -0.4125
  571poe    c23 4683   5.395   3.504   4.565 -0.6104 -0.2320 -0.1776
  571poe    c23 4684   5.396   3.440   4.705  0.0308  0.5977  0.2024
  571poe     o2 4685   5.508   3.356   4.718 -0.3778  0.0304  0.0817
  571poe    c23 4686   5.503   3.273   4.832 -0.1022  0.3195  0.3063
  571poe    c23 4687   5.643   3.213   4.851 -0.1140  0.1478 -0.1294
  571poe     o2 4688   5.687   3.154   4.731  0.0913  0.2469 -0.1033
  571poe    c23 4689   5.820   3.114   4.759  0.0854  0.3421  0.0594
  571poe    c23 4690   5.882   3.059   4.630 -0.7184  0.0746 -0.2220
  571poe     o2 4691   5.847   3.160   4.537 -0.1973  0.2749 -0.2041
  571poe    c31 4692   5.921   3.157   4.417 -0.2082  0.0302 -0.2060
  572poe    c31 4693   3.009   3.080   1.290  0.0782  0.1729 -0.0206
  572poe     o2 4694   3.077   3.203   1.300 -0.0302  0.2563 -0.2938
  572poe    c23 4695   3.194   3.210   1.221 -0.0726 -0.3357 -0.4156
  572poe    c23 4696   3.299   3.295   1.295 -0.4083  0.0800 -0.4143
  572poe     o2 4697   3.286   3.435   1.285 -0.2800  0.1329  0.1153
  572poe    c23 4698   3.331   3.488   1.407  0.1703  0.4360 -0.1772
  572poe    c23 4699   3.308   3.638   1.382  0.4654  0.4710 -0.2347
  572poe     o2 4700   3.175   3.656   1.341  0.2376  0.7607  0.6039
  572poe    c23 4701   3.149   3.792   1.315 -0.1958  0.4344 -0.7779
  572poe    c23 4702   3.005   3.794   1.261 -0.4317 -0.1379 -0.1937
  572poe     o2 4703   2.993   3.691   1.166 -0.2667 -0.6967  0.3896
  572poe    c31 4704   2.864   3.700   1.110 -0.0782 -0.9075 -0.0900
  573poe    c31 4705   5.768   4.014   3.307  0.3382  0.4127  0.5683
  573poe     o2 4706   5.712   3.887   3.284  0.4815  0.4149  0.2103
  573poe    c23 4707   5.721   3.872   3.144  0.3139  0.2647  0.2150
  573poe    c23 4708   5.619   3.767   3.097  0.3069  0.2460  0.2708
  573poe     o2 4709   5.516   3.775   3.193  0.5036 -0.0723  0.5085
  573poe    c23 4710   5.431   3.662   3.194  0.1690  0.1690 -0.0521
  573poe    c23 4711   5.330   3.692   3.306  0.0306  0.0202 -0.1365
  573poe     o2 4712   5.408   3.736   3.415 -0.4078  0.3250  0.0613
  573poe    c23 4713   5.336   3.754   3.535  0.2037 -0.3551  0.5388
  573poe    c23 4714   5.432   3.801   3.646  0.1716 -0.8081  0.7625
  573poe     o2 4715   5.520   3.881   3.569 -0.7803 -0.1151  0.3865
  573poe    c31 4716   5.620   3.931   3.655 -0.2657  0.0755 -0.3248
  574poe    c31 4717   4.075   6.125   5.399 -0.0507 -0.0868  0.6235
  574poe     o2 4718   3.942   6.147   5.442 -0.0269  0.0683  0.6184
  574poe    c23 4719   3.900   6.276   5.402 -0.1520 -0.1121  0.1699
  574poe    c23 4720   3.774   6.330   5.472  0.0386 -0.5451  0.8600
  574poe     o2 4721   3.774   6.349   5.612  0.2415  0.5919  0.7196
  574poe    c23 4722   3.641   6.322   5.650 -0.0311  0.4182 -0.3224
  574poe    c23 4723   3.643   6.315   5.804  0.3517 -0.1922 -0.3496
  574poe     o2 4724   3.735   6.413   5.848 -0.0707  0.0939 -0.0926
  574poe    c23 4725   3.723   6.442   5.985 -0.2528 -0.0177 -0.0847
  574poe    c23 4726   3.829   6.544   6.032 -0.0821 -0.4133  0.4077
  574poe     o2 4727   3.952   6.506   5.973 -0.1068 -0.3508  0.3154
  574poe    c31 4728   4.053   6.581   6.037  0.1051  0.1719 -0.6092
  575poe    c31 4729   0.416   6.137   1.805  0.0519 -0.4280 -0.1836
  575poe     o2 4730   0.514   6.205   1.729 -0.1086 -0.4219 -0.3878
  575poe    c23 4731   0.587   6.284   1.821  0.4167  0.2022 -1.3288
  575poe    c23 4732   0.696   6.357   1.741  0.8048  1.0605 -0.0389
  575poe     o2 4733   0.745   6.264   1.647 -0.0355  0.6831 -0.1111
  575poe    c23 4734   0.874   6.291   1.595  0.1560  0.0021  0.0107
  575poe    c23 4735   0.887   6.178   1.491 -0.0321  0.1808 -0.2047
  575poe     o2 4736   0.776   6.156   1.406 -0.1553 -0.7029  0.1758
  575poe    c23 4737   0.815   6.060   1.310 -0.2182 -0.3635 -0.1908
  575poe    c23 4738   0.695   5.987   1.247 -0.2678 -0.2042 -0.2836
  575poe     o2 4739   0.747   5.882   1.167  0.4900 -0.4804  0.5518
  575poe    c31 4740   0.639   5.808   1.115  0.5824 -0.3210  0.1337
  576poe    c31 4741   1.929   1.426   3.515 -0.1147 -0.0592 -0.2617
  576poe     o2 4742   1.996   1.481   3.627 -0.2542  0.0125 -0.2134
  576poe    c23 4743   2.051   1.372   3.699  0.4825  0.6276  0.1607
  576poe    c23 4744   2.083   1.428   3.839 -0.9855  0.0091  0.7546
  576poe     o2 4745   2.135   1.557   3.818  0.3140 -0.6519 -0.2288
  576poe    c23 4746   2.129   1.643   3.930  0.1114 -0.3185 -0.4948
  576poe    c23 4747   2.207   1.772   3.899  0.1468 -0.1501  0.2858
  576poe     o2 4748   2.192   1.803   3.763  0.0639 -0.1009  0.3057
  576poe    c23 4749   2.243   1.933   3.746 -0.3402 -0.0201 -0.3453
  576poe    c23 4750   2.241   1.960   3.594  0.1091  0.2469 -0.3060
  576poe     o2 4751   2.311   1.864   3.517 -0.0357 -0.1122  0.0083
  576poe    c31 4752   2.343   1.936   3.401 -0.1352 -0.5755 -0.3107
  577poe    c31 4753   1.649   0.409   2.746 -0.0968 -0.1749  0.1946
  577poe     o2 4754   1.544   0.495   2.787 -0.0557 -0.1373  0.2211
  577poe    c23 4755   1.485   0.553   2.673 -0.0550 -0.7684 -0.1037
  577poe    c23 4756   1.374   0.647   2.722  0.2050 -0.6084  0.1852
  577poe     o2 4757   1.428   0.730   2.822 -0.5668 -0.1359  0.2208
  577poe    c23 4758   1.350   0.847   2.838 -0.7822 -0.3432  0.6733
  577poe    c23 4759   1.417   0.928   2.951 -0.1308 -0.2040  0.1898
  577poe     o2 4760   1.436   0.833   3.053 -0.2123 -0.3225  0.0967
  577poe    c23 4761   1.329   0.811   3.141 -0.1769 -0.5364  0.0864
  577poe    c23 4762   1.356   0.676   3.211 -0.1180 -0.4042  0.3214
  577poe     o2 4763   1.395   0.585   3.111  0.0149 -0.5658  0.5204
  577poe    c31 4764   1.403   0.452   3.156  0.4116 -0.4917  0.6733
  578poe    c31 4765   0.568   0.959   1.903  0.1183  0.4812 -0.8431
  578poe     o2 4766   0.526   0.867   1.805  0.5677  0.0878 -0.6680
  578poe    c23 4767   0.521   0.746   1.878 -0.5475  0.7394  0.3635
  578poe    c23 4768   0.490   0.643   1.767  0.1189  0.2866  0.5925
  578poe     o2 4769   0.395   0.710   1.687  0.5836  0.0369 -0.1779
  578poe    c23 4770   0.355   0.632   1.577 -0.0546  0.1228 -0.0062
  578poe    c23 4771   0.241   0.712   1.510 -0.3250 -0.3142 -0.0768
  578poe     o2 4772   0.284   0.846   1.513  0.4027 -0.5261 -0.6009
  578poe    c23 4773   0.183   0.937   1.475  0.4668 -0.0713  0.2900
  578poe    c23 4774   0.260   1.070   1.468 -0.2584  0.3687  0.5386
  578poe     o2 4775   0.361   1.073   1.566 -0.1123 -0.6964  0.4332
  578poe    c31 4776   0.419   1.201   1.579 -0.4673 -0.4503 -0.3278
  579poe    c31 4777   0.062   6.443   0.323 -0.0075  0.2247  0.5513
  579poe     o2 4778   0.173   6.523   0.290 -0.0770 -0.0092 -0.2646
  579poe    c23 4779   0.252   6.548   0.404 -0.3404 -0.1836 -0.0423
  579poe    c23 4780   0.380   6.627   0.370 -0.2750 -0.3366 -0.1470
  579poe     o2 4781   0.415   6.600   0.235  0.2994  0.3602 -0.1415
  579poe    c23 4782   0.516   6.502   0.230  0.0164  0.0418  0.2988
  579poe    c23 4783   0.523   6.457   0.083  0.2739 -0.3160  0.4188
  579poe     o2 4784   0.388   6.439   0.046  0.2859  0.4019 -0.0063
  579poe    c23 4785   0.375   6.354  -0.066 -0.4361  0.1108  0.2921
  579poe    c23 4786   0.236   6.293  -0.041 -0.2057 -0.4013  0.3267
  579poe     o2 4787   0.140   6.382   0.011 -0.1231  0.1829 -0.4937
  579poe    c31 4788   0.013   6.327  -0.013 -0.0946 -0.3353  0.4769
  580poe    c31 4789   4.308   1.171   2.477 -0.1809 -0.1059 -0.3976
  580poe     o2 4790   4.434   1.110   2.461 -0.1806 -0.3183  0.3800
  580poe    c23 4791   4.534   1.195   2.512 -0.6400  0.2922  0.2725
  580poe    c23 4792   4.666   1.117   2.510 -0.5035  0.5362 -0.3618
  580poe     o2 4793   4.714   1.079   2.382 -0.1113 -0.0341 -0.0521
  580poe    c23 4794   4.838   1.013   2.394 -0.2055 -0.1169  0.4931
  580poe    c23 4795   4.849   0.903   2.288  0.4322  0.3512  0.0691
  580poe     o2 4796   4.813   0.961   2.164  0.4843 -0.2355 -0.2258
  580poe    c23 4797   4.784   0.868   2.062 -0.1091 -0.1433 -0.1419
  580poe    c23 4798   4.723   0.939   1.939 -0.0755  0.0904 -0.0243
  580poe     o2 4799   4.627   1.026   1.995 -0.3431 -0.4692  0.3939
  580poe    c31 4800   4.580   1.101   1.886  0.1266 -0.5162  0.1568
  581poe    c31 4801   6.562   6.754   3.227  0.1355  0.5692  0.2683
  581poe     o2 4802   6.544   6.677   3.111 -0.2104  0.4631  0.3911
  581poe    c23 4803   6.499   6.545   3.131 -0.4797  0.4714 -0.1285
  581poe    c23 4804   6.541   6.447   3.020  0.2488  0.0170  0.5322
  581poe     o2 4805   6.550   6.523   2.902 -0.1639 -0.2202  0.3474
  581poe    c23 4806   6.597   6.447   2.793  0.2560 -0.2731  0.5653
  581poe    c23 4807   6.631   6.554   2.688 -0.6316  0.1476  0.6987
  581poe     o2 4808   6.718   6.645   2.750  0.0527  0.2187 -0.3471
  581poe    c23 4809   6.733   6.774   2.695 -0.0322  0.2379 -0.3242
  581poe    c23 4810   6.610   6.855   2.740 -0.4264 -0.6183  0.1757
  581poe     o2 4811   6.591   6.844   2.879 -0.7065  0.3499  0.2186
  581poe    c31 4812   6.536   6.969   2.915 -0.1769  0.6744 -0.0857
  582poe    c31 4813   4.368   4.198   6.344 -0.2107  0.1968  0.3312
  582poe     o2 4814   4.362   4.332   6.388 -0.2086  0.3782 -0.2144
  582poe    c23 4815   4.264   4.346   6.488 -0.1609  0.2345 -0.1477
  582poe    c23 4816   4.222   4.491   6.458 -0.2793  0.3242  0.4253
  582poe     o2 4817   4.336   4.567   6.425 -0.3075 -0.1401 -0.8185
  582poe    c23 4818   4.299   4.699   6.390 -0.6949  0.0497  0.2560
  582poe    c23 4819   4.434   4.770   6.373 -0.4166 -0.4368  0.4239
  582poe     o2 4820   4.510   4.681   6.295  0.1014  0.2141  0.1707
  582poe    c23 4821   4.647   4.709   6.317  0.2356  0.0338 -0.4150
  582poe    c23 4822   4.717   4.574   6.293 -0.2947 -0.1722 -0.8353
  582poe     o2 4823   4.645   4.474   6.360 -0.2925 -0.0176 -0.6012
  582poe    c31 4824   4.719   4.356   6.385  0.1129  0.3357 -0.1161
  583poe    c31 4825   4.183   2.586   1.354  0.5876  0.2755  0.2787
  583poe     o2 4826   4.241   2.573   1.226 -0.0440  0.1676  0.0013
  583poe    c23 4827   4.237   2.697   1.159  0.5374  0.4112  0.4163
  583poe    c23 4828   4.296   2.697   1.017 -0.4103 -0.0069  0.0157
  583poe     o2 4829   4.436   2.683   1.018 -0.4038  0.0501 -0.1159
  583poe    c23 4830   4.497   2.630   0.903 -0.3966 -0.0467 -0.0680
  583poe    c23 4831   4.650   2.609   0.904 -0.3946 -0.0285  0.0447
  583poe     o2 4832   4.681   2.519   1.009  0.3356  0.1765  0.0100
  583poe    c23 4833   4.815   2.498   1.046  0.3420 -0.6106 -0.4500
  583poe    c23 4834   4.823   2.389   1.154  0.3970 -0.4665 -0.3085
  583poe     o2 4835   4.725   2.418   1.250  0.7255 -0.1242 -0.0713
  583poe    c31 4836   4.746   2.358   1.376  0.3949 -0.0477  0.0233
  584poe    c31 4837   4.527   1.565   1.372 -0.5074  0.5796 -0.4610
  584poe     o2 4838   4.553   1.456   1.286 -0.2907  0.2424  0.0282
  584poe    c23 4839   4.460   1.431   1.184 -0.0649  0.6180 -0.2762
  584poe    c23 4840   4.540   1.358   1.075 -0.1940  0.1303 -0.0480
  584poe     o2 4841   4.638   1.288   1.148 -0.0774  0.1319 -0.2029
  584poe    c23 4842   4.700   1.185   1.073  0.1263  0.0082  0.1310
  584poe    c23 4843   4.775   1.099   1.176  0.0095 -0.2414  0.0086
  584poe     o2 4844   4.821   1.193   1.271  0.4538 -0.5056  0.0569
  584poe    c23 4845   4.864   1.139   1.394  0.6020 -0.1917  0.1435
  584poe    c23 4846   4.888   1.259   1.487  0.6586  0.2320 -0.4080
  584poe     o2 4847   4.794   1.357   1.450  0.4631  0.2857  0.2088
  584poe    c31 4848   4.780   1.435   1.566 -0.1525  0.3929  0.0656
  585poe    c31 4849   3.118   2.366   1.646  0.1622 -0.0755  1.1712
  585poe     o2 4850   3.043   2.477   1.690  0.0064  0.2396  0.1396
  585poe    c23 4851   2.909   2.451   1.657  0.0793 -0.5020  0.4093
  585poe    c23 4852   2.824   2.558   1.730  0.3910  0.1358 -0.1501
  585poe     o2 4853   2.887   2.683   1.714  0.0122  0.3475  0.0046
  585poe    c23 4854   2.827   2.784   1.792  0.1504  0.0936  0.4491
  585poe    c23 4855   2.919   2.906   1.769 -0.2980  0.3453 -0.0378
  585poe     o2 4856   3.055   2.874   1.785 -0.5097 -0.4260  0.2928
  585poe    c23 4857   3.151   2.949   1.712 -0.6851 -0.4561  0.0299
  585poe    c23 4858   3.274   2.857   1.724 -0.2061  0.2040  0.2062
  585poe     o2 4859   3.230   2.728   1.690 -0.2142  0.2669 -0.0227
  585poe    c31 4860   3.333   2.654   1.628 -0.3569 -0.1819  0.2694
  586poe    c31 4861   3.722   5.237   2.381  0.3418 -0.0717  0.1745
  586poe     o2 4862   3.840   5.297   2.332  0.2146  0.6358  0.7084
  586poe    c23 4863   3.919   5.346   2.438  0.8909 -0.5173  0.7633
  586poe    c23 4864   4.029   5.436   2.378  0.2579 -0.4645 -0.3595
  586poe     o2 4865   4.055   5.398   2.245 -0.3004 -0.4909 -0.4617
  586poe    c23 4866   4.181   5.440   2.199 -0.3898 -0.0277 -0.2874
  586poe    c23 4867   4.209   5.398   2.054  0.4087  0.2693 -0.2301
  586poe     o2 4868   4.113   5.465   1.975 -0.5589 -0.1240  0.5955
  586poe    c23 4869   4.102   5.419   1.842  0.1766  0.3375  0.3688
  586poe    c23 4870   3.992   5.506   1.779  0.1247 -0.0276 -0.0529
  586poe     o2 4871   4.042   5.637   1.764 -0.0383  0.0464  0.0421
  586poe    c31 4872   3.978   5.706   1.658  0.4449  0.4449  0.0061
  587poe    c31 4873   0.336   2.431   5.456 -0.2107  0.1496  0.3286
  587poe     o2 4874   0.293   2.463   5.326  0.5961 -0.6544 -0.1476
  587poe    c23 4875   0.155   2.471   5.301  0.7366 -0.9815 -1.0832
  587poe    c23 4876   0.120   2.605   5.233 -0.1814 -0.8627 -0.4035
  587poe     o2 4877   0.223   2.605   5.137 -0.2365 -0.2157 -0.4680
  587poe    c23 4878   0.210   2.711   5.046  0.0053 -0.0876 -0.3524
  587poe    c23 4879   0.285   2.675   4.917  0.4105  0.6988 -0.3447
  587poe     o2 4880   0.401   2.616   4.971 -0.0088 -0.0585 -0.2689
  587poe    c23 4881   0.454   2.510   4.895  0.3244  0.2446 -0.4556
  587poe    c23 4882   0.557   2.448   4.991  0.1054 -0.3121 -0.5746
  587poe     o2 4883   0.513   2.434   5.124 -0.0891 -0.0991 -0.6158
  587poe    c31 4884   0.606   2.368   5.207 -0.1910  0.8657  0.2857
  588poe    c31 4885   4.862   5.062   2.509 -0.0749  0.0664  0.0165
  588poe     o2 4886   4.908   5.094   2.638  0.2969 -0.1704 -0.0567
  588poe    c23 4887   5.005   5.196   2.630  0.3279 -0.1718  0.2896
  588poe    c23 4888   5.016   5.250   2.774 -0.5608  0.0411  0.2815
  588poe     o2 4889   5.053   5.132   2.842 -0.4678 -0.2427 -0.2546
  588poe    c23 4890   5.048   5.149   2.982  0.0339 -0.1683 -0.2446
  588poe    c23 4891   5.115   5.029   3.051 -0.0187 -0.0886 -0.0540
  588poe     o2 4892   5.054   4.908   3.013 -0.3655 -0.0240  0.2923
  588poe    c23 4893   5.107   4.796   3.081  0.4668  0.1499 -0.0614
  588poe    c23 4894   5.042   4.670   3.021 -0.1220  0.6400 -0.4621
  588poe     o2 4895   5.083   4.645   2.889 -0.4864 -0.1921 -0.4255
  588poe    c31 4896   5.057   4.512   2.848  0.0877 -0.6122  0.5513
  589poe    c31 4897   0.937   3.090   4.600  0.6401  0.1716  0.0625
  589poe     o2 4898   0.902   3.047   4.471 -0.3123 -0.2358  0.4451
  589poe    c23 4899   1.021   3.029   4.398 -0.5124  0.0919  0.0358
  589poe    c23 4900   0.991   3.075   4.254 -0.2039  0.9758  0.2442
  589poe     o2 4901   0.870   3.014   4.214  0.0228  0.2291  0.6823
  589poe    c23 4902   0.836   3.066   4.088 -0.3109 -0.7007  0.3835
  589poe    c23 4903   0.685   3.070   4.060 -0.1894  0.1878 -0.1981
  589poe     o2 4904   0.646   3.145   4.173  0.0476 -0.4598  0.3265
  589poe    c23 4905   0.512   3.122   4.211 -0.0278 -0.1520  0.2553
  589poe    c23 4906   0.502   3.188   4.349  0.1823  0.2975  0.0560
  589poe     o2 4907   0.602   3.134   4.433 -0.1007 -0.3634 -0.0301
  589poe    c31 4908   0.583   3.173   4.567 -0.1013  0.3118 -0.2240
  590poe    c31 4909   0.800   4.610   0.970 -0.2804  0.2470  0.7906
  590poe     o2 4910   0.928   4.621   1.028 -0.0976 -0.0015  0.4379
  590poe    c23 4911   1.018   4.675   0.935 -0.1560 -0.1367  0.3026
  590poe    c23 4912   1.167   4.654   0.970  0.0434 -0.0130 -0.4540
  590poe     o2 4913   1.181   4.723   1.092 -0.4316 -0.2619 -0.2578
  590poe    c23 4914   1.317   4.738   1.127 -0.5435  0.1675 -0.0053
  590poe    c23 4915   1.319   4.795   1.270 -0.7781  0.3949 -0.0923
  590poe     o2 4916   1.270   4.696   1.357  0.1205 -0.2154 -0.2776
  590poe    c23 4917   1.310   4.731   1.488 -0.0840 -0.8097 -0.0529
  590poe    c23 4918   1.276   4.616   1.584 -0.1982 -0.3807  0.4217
  590poe     o2 4919   1.160   4.548   1.540 -0.2836  0.0043  0.0521
  590poe    c31 4920   1.145   4.444   1.634  0.9669 -0.5593 -0.3430
  591poe    c31 4921   5.581   6.243   2.408 -0.4993  0.3238 -0.3423
  591poe     o2 4922   5.635   6.338   2.498  0.0605 -0.0425 -0.2901
  591poe    c23 4923   5.759   6.394   2.462 -0.3620  0.8499 -0.3714
  591poe    c23 4924   5.803   6.479   2.583 -0.1673  0.0726  0.1138
  591poe     o2 4925   5.685   6.546   2.621 -0.0425  0.4693 -0.1740
  591poe    c23 4926   5.707   6.640   2.724  0.5250  0.3178 -0.1543
  591poe    c23 4927   5.578   6.724   2.732  0.0534 -0.5053  1.0645
  591poe     o2 4928   5.479   6.626   2.711  0.7574 -0.9327 -0.3655
  591poe    c23 4929   5.417   6.588   2.832  0.9283 -0.3860 -0.1033
  591poe    c23 4930   5.356   6.449   2.805  0.2515 -0.1229  0.0767
  591poe     o2 4931   5.447   6.361   2.744  0.1362 -0.1476 -0.0630
  591poe    c31 4932   5.424   6.227   2.780  0.3280 -0.0530  0.4219
  592poe    c31 4933   2.585   6.643   2.492  0.0263  0.2528  0.1416
  592poe     o2 4934   2.543   6.768   2.541 -0.3891  0.2021 -0.0809
  592poe    c23 4935   2.602   6.874   2.468 -0.4602  0.2859 -0.0156
  592poe    c23 4936   2.556   7.010   2.525 -0.0121  0.3270  0.2540
  592poe     o2 4937   2.417   6.990   2.537 -0.0883  0.4769 -0.3307
  592poe    c23 4938   2.353   7.094   2.607 -0.0965  0.4842 -0.3491
  592poe    c23 4939   2.209   7.054   2.642  0.1519  0.3416  0.5276
  592poe     o2 4940   2.211   6.933   2.716  0.4362 -0.2791 -0.4765
  592poe    c23 4941   2.085   6.914   2.776  0.6470 -0.6430 -0.1464
  592poe    c23 4942   2.039   6.767   2.788 -0.8865 -0.1332  0.3895
  592poe     o2 4943   2.139   6.690   2.850 -0.2594 -0.0835 -0.5370
  592poe    c31 4944   2.113   6.552   2.852 -0.4333 -0.0494 -0.4205
  593poe    c31 4945   3.130   4.026   3.280 -0.3728 -0.4518 -0.0911
  593poe     o2 4946   3.131   4.092   3.154  0.4666 -0.0406  0.1194
  593poe    c23 4947   3.063   4.006   3.065  0.0642 -0.0381  0.4160
  593poe    c23 4948   3.108   4.062   2.928 -0.0964  0.1338  0.4326
  593poe     o2 4949   3.107   4.202   2.936  0.6903  0.1614  0.1569
  593poe    c23 4950   3.143   4.258   2.812  0.3501  0.1687  0.0592
  593poe    c23 4951   3.154   4.405   2.856  0.1971  0.2600 -0.2109
  593poe     o2 4952   3.201   4.410   2.988 -0.0745 -0.4025 -0.0820
  593poe    c23 4953   3.161   4.531   3.050  0.0116 -0.2281 -0.3638
  593poe    c23 4954   3.221   4.515   3.191  0.0584 -0.0670 -0.3664
  593poe     o2 4955   3.192   4.387   3.241  0.0777  0.0545 -0.0447
  593poe    c31 4956   3.233   4.381   3.376 -0.1320  0.3469  0.0325
  594poe    c31 4957   2.069   1.230   3.202  0.3251  0.1670  0.3476
  594poe     o2 4958   2.078   1.369   3.186 -0.0737  0.0626 -0.9211
  594poe    c23 4959   2.211   1.415   3.203 -0.3765  0.7000 -0.1922
  594poe    c23 4960   2.209   1.564   3.239  0.5972  0.7274 -0.2343
  594poe     o2 4961   2.117   1.616   3.145  0.3844  0.0836 -0.3816
  594poe    c23 4962   2.105   1.756   3.153 -0.8833 -0.0596  0.7071
  594poe    c23 4963   2.028   1.811   3.031  0.1328  0.5085  0.3110
  594poe     o2 4964   1.912   1.734   3.012  0.2269  0.4422 -0.0001
  594poe    c23 4965   1.915   1.677   2.884 -0.4888 -0.1772  0.2504
  594poe    c23 4966   1.963   1.532   2.862 -0.6099 -0.1062 -0.5079
  594poe     o2 4967   1.897   1.468   2.969 -0.0127  0.1331  0.0098
  594poe    c31 4968   1.826   1.358   2.917 -0.1825  0.0369  0.4459
  595poe    c31 4969   0.657   2.337   6.761  0.1116  0.2159  0.5343
  595poe     o2 4970   0.595   2.455   6.808 -0.2585  0.4377 -0.4999
  595poe    c23 4971   0.476   2.483   6.738 -0.5896 -0.1752 -0.1858
  595poe    c23 4972   0.431   2.626   6.772 -0.1610 -0.0698 -0.0614
  595poe     o2 4973   0.531   2.716   6.729 -0.2410 -0.0890 -0.2842
  595poe    c23 4974   0.482   2.848   6.726  0.0206  0.0138  0.0120
  595poe    c23 4975   0.604   2.932   6.683 -0.2966  0.2385 -0.4630
  595poe     o2 4976   0.715   2.867   6.742 -0.5666  0.5122  0.3704
  595poe    c23 4977   0.826   2.948   6.709 -0.3583  0.0627 -0.0511
  595poe    c23 4978   0.939   2.870   6.778 -0.1472 -0.0224 -0.4920
  595poe     o2 4979   0.922   2.732   6.752  0.0521 -0.0797 -0.3214
  595poe    c31 4980   1.045   2.669   6.780  0.1353  0.0927 -0.2974
  596poe    c31 4981   6.728   4.571   0.274  0.3612  0.2062 -0.8689
  596poe     o2 4982   6.723   4.487   0.161 -0.0231 -0.2798 -0.4970
  596poe    c23 4983   6.769   4.356   0.186  0.4659 -0.0512 -0.1796
  596poe    c23 4984   6.644   4.267   0.194 -0.1253  0.7581 -0.2703
  596poe     o2 4985   6.563   4.297   0.083 -0.1850 -0.3938 -0.5592
  596poe    c23 4986   6.432   4.258   0.119  0.0816 -0.2372  0.6197
  596poe    c23 4987   6.341   4.361   0.050  0.3702 -0.3166  0.1170
  596poe     o2 4988   6.406   4.481   0.084  0.7390 -0.2862 -0.6682
  596poe    c23 4989   6.354   4.598   0.025  0.3699 -0.0532  0.1118
  596poe    c23 4990   6.467   4.702   0.030 -0.2150  0.5694  0.6126
  596poe     o2 4991   6.584   4.643  -0.020 -0.3985  0.2906  0.5122
  596poe    c31 4992   6.690   4.730  -0.053 -0.2106  0.1313  0.6881
  597poe    c31 4993   0.542   6.654   3.243 -0.7337 -0.2669  0.0368
  597poe     o2 4994   0.534   6.580   3.363 -0.1316 -0.4266 -0.0154
  597poe    c23 4995   0.598   6.457   3.339 -0.4260 -0.6778  0.4797
  597poe    c23 4996   0.577   6.376   3.469 -0.0791  0.3598  1.1934
  597poe     o2 4997   0.446   6.350   3.513 -0.3682 -0.0432  0.1387
  597poe    c23 4998   0.452   6.237   3.598 -0.0414 -0.2591 -0.1697
  597poe    c23 4999   0.313   6.194   3.648 -0.0874  0.0585 -0.0199
  597poe     o2 5000   0.256   6.323   3.661  0.1789  0.2137 -0.3612
  597poe    c23 5001   0.116   6.306   3.668  0.2688 -0.3142  0.3239
  597poe    c23 5002   0.038   6.437   3.645  0.6366 -0.0637  0.4748
  597poe     o2 5003   0.080   6.516   3.536  0.2229 -0.8896 -0.2994
  597poe    c31 5004  -0.030   6.602   3.513  0.7659 -0.1545 -0.1804
  598poe    c31 5005   4.528   1.616   1.789 -0.0602  0.2580  0.5625
  598poe     o2 5006   4.490   1.636   1.923  0.0830  0.3574  0.5878
  598poe    c23 5007   4.384   1.557   1.971 -0.0339  0.2410  0.1399
  598poe    c23 5008   4.349   1.635   2.099 -0.0320  0.4119  0.0363
  598poe     o2 5009   4.470   1.648   2.171  0.0170  0.7098 -0.0970
  598poe    c23 5010   4.448   1.683   2.306  0.0542 -0.0857  0.1234
  598poe    c23 5011   4.577   1.709   2.386  0.2969  0.1073 -0.3277
  598poe     o2 5012   4.644   1.822   2.336 -0.2746  0.5637 -0.0790
  598poe    c23 5013   4.760   1.841   2.414  0.0054 -0.2664 -0.2906
  598poe    c23 5014   4.801   1.988   2.395  0.0764 -0.2630 -0.1103
  598poe     o2 5015   4.850   2.007   2.264  0.3740 -0.5602 -0.0449
  598poe    c31 5016   4.901   2.139   2.263 -0.0466 -0.3937  0.0618
  599poe    c31 5017   4.301   4.877   5.265 -0.8328  0.0472  1.1288
  599poe     o2 5018   4.175   4.902   5.207 -0.0073  0.3476 -0.6020
  599poe    c23 5019   4.180   4.887   5.067  0.1484  0.4411 -0.6057
  599poe    c23 5020   4.033   4.867   5.027  0.1378  0.0704 -0.3773
  599poe     o2 5021   3.960   4.973   5.085  0.0201 -0.2587  0.0820
  599poe    c23 5022   3.821   4.961   5.063 -0.0348 -0.2640  0.4231
  599poe    c23 5023   3.759   5.088   5.124  0.1355 -0.0117  0.0707
  599poe     o2 5024   3.834   5.127   5.237  0.3361  0.4635 -0.2222
  599poe    c23 5025   3.851   5.267   5.242 -0.4125  0.5668 -0.3801
  599poe    c23 5026   3.979   5.277   5.327 -0.3283 -0.3247 -0.3875
  599poe     o2 5027   4.081   5.196   5.274 -0.0975 -0.3151  0.0368
  599poe    c31 5028   4.204   5.227   5.335  0.0486  0.0439 -0.4303
  600poe    c31 5029   2.012   3.651   1.580 -0.0574 -0.4357 -0.6143
  600poe     o2 5030   1.951   3.682   1.457  0.0787  0.3877 -0.4829
  600poe    c23 5031   1.867   3.794   1.445 -0.5850 -0.0034  0.3923
  600poe    c23 5032   1.834   3.835   1.300 -0.1799 -0.0846  0.2749
  600poe     o2 5033   1.696   3.848   1.273 -0.1819 -0.2363  0.2135
  600poe    c23 5034   1.668   3.891   1.141 -0.3443  0.3091  0.4238
  600poe    c23 5035   1.519   3.859   1.119 -0.1446 -0.1146 -0.3240
  600poe     o2 5036   1.488   3.722   1.117  0.5150 -0.2923  0.7544
  600poe    c23 5037   1.373   3.699   1.038  0.6626 -0.0011  0.4557
  600poe    c23 5038   1.336   3.551   1.053 -0.2489  0.1432 -0.3069
  600poe     o2 5039   1.333   3.511   1.188  0.2286 -0.2018 -0.3985
  600poe    c31 5040   1.235   3.415   1.219  0.1423  0.0117 -0.0017
  601poe    c31 5041   5.132   4.400   5.522  0.2688  0.8332  0.5289
  601poe     o2 5042   5.270   4.405   5.497  0.2685  0.0821  0.3403
  601poe    c23 5043   5.310   4.524   5.432  0.3763 -0.3500 -0.3919
  601poe    c23 5044   5.458   4.552   5.467  0.3250  0.4892 -0.8229
  601poe     o2 5045   5.521   4.439   5.413  0.5669 -0.1249  0.6838
  601poe    c23 5046   5.659   4.424   5.438  0.6289 -0.1322  0.3437
  601poe    c23 5047   5.678   4.347   5.570  0.3896 -0.4553  0.1911
  601poe     o2 5048   5.580   4.246   5.576 -0.1666  0.0482 -0.2437
  601poe    c23 5049   5.536   4.225   5.708  0.3114  0.5715  0.0050
  601poe    c23 5050   5.435   4.110   5.690 -0.0270  0.7717  0.5643
  601poe     o2 5051   5.358   4.118   5.572 -0.0301  0.0516  0.5097
  601poe    c31 5052   5.269   4.012   5.549 -0.1302  0.2413 -0.0122
  602poe    c31 5053   6.019   2.330   5.881  0.2558 -0.0246  0.2489
  602poe     o2 5054   5.946   2.240   5.801  0.4073 -0.2670  0.3825
  602poe    c23 5055   6.012   2.227   5.677  0.5964 -0.1058  0.4663
  602poe    c23 5056   5.939   2.130   5.582 -0.3434  1.1262 -0.1128
  602poe     o2 5057   5.822   2.159   5.509 -0.6633 -0.3567 -0.2260
  602poe    c23 5058   5.802   2.050   5.423  0.1861 -0.3576 -0.4297
  602poe    c23 5059   5.684   2.101   5.338 -0.1121 -0.2427  0.0506
  602poe     o2 5060   5.575   2.149   5.414 -0.0438  0.0602 -0.0413
  602poe    c23 5061   5.484   2.225   5.337  0.2328  0.4028 -0.0353
  602poe    c23 5062   5.379   2.289   5.430  0.1206  0.3223 -0.1066
  602poe     o2 5063   5.451   2.313   5.548  0.0848 -0.0853 -0.0012
  602poe    c31 5064   5.366   2.342   5.657 -0.2794  0.3007 -0.3860
  603poe    c31 5065   1.924   6.548   1.966 -0.3807  0.6018  0.0826
  603poe     o2 5066   2.054   6.518   1.922 -0.3927  0.0451  0.4156
  603poe    c23 5067   2.139   6.630   1.927 -0.1319 -0.1086 -0.3977
  603poe    c23 5068   2.288   6.594   1.908  0.1150  0.4980  0.3209
  603poe     o2 5069   2.297   6.475   1.983  0.0576 -0.0376 -0.5126
  603poe    c23 5070   2.418   6.407   1.958  0.4728  0.2677  0.6152
  603poe    c23 5071   2.386   6.309   1.843 -0.0639  0.7528  0.3408
  603poe     o2 5072   2.270   6.239   1.881 -0.0159  0.2488 -0.4287
  603poe    c23 5073   2.209   6.154   1.787 -0.3468  0.2469 -0.2134
  603poe    c23 5074   2.068   6.125   1.840 -0.3730  0.1312 -0.3432
  603poe     o2 5075   2.020   6.236   1.913  0.4436  0.2198  0.0650
  603poe    c31 5076   1.882   6.210   1.923  0.5177  0.0800  0.7771
  604poe    c31 5077   4.181   2.580   5.302  0.7616  0.8183 -0.4104
  604poe     o2 5078   4.264   2.471   5.336 -0.2399  0.1627 -0.0022
  604poe    c23 5079   4.374   2.523   5.408  0.3445  0.0584 -0.8058
  604poe    c23 5080   4.474   2.420   5.462  0.1610  0.5916  0.5980
  604poe     o2 5081   4.390   2.316   5.507  0.3893 -0.0073 -0.3228
  604poe    c23 5082   4.465   2.200   5.534  0.4889  0.1501  0.0874
  604poe    c23 5083   4.363   2.111   5.607 -0.0914  0.9931  0.3144
  604poe     o2 5084   4.232   2.118   5.555 -0.0186  0.5087  0.0566
  604poe    c23 5085   4.126   2.070   5.635 -0.1857 -0.4524 -0.7221
  604poe    c23 5086   3.995   2.106   5.562 -0.0797  0.2280 -0.5858
  604poe     o2 5087   4.013   2.224   5.487  0.3796  0.3160 -0.3410
  604poe    c31 5088   3.888   2.276   5.447 -0.1978 -0.9503 -0.2284
  605poe    c31 5089   0.319   3.505   5.295  0.1950 -0.2459  0.6856
  605poe     o2 5090   0.263   3.420   5.197  0.1999  0.6178 -0.0740
  605poe    c23 5091   0.281   3.467   5.065  0.4960  0.0396 -0.2406
  605poe    c23 5092   0.163   3.423   4.976 -0.0137  0.4160  0.2356
  605poe     o2 5093   0.146   3.283   4.989  0.3819  0.3442  0.0205
  605poe    c23 5094   0.013   3.238   5.002  0.3150  0.2896 -0.7876
  605poe    c23 5095   0.018   3.126   5.108 -0.5579  0.5073 -0.5084
  605poe     o2 5096   0.067   3.168   5.234 -0.8616 -0.1266 -0.1741
  605poe    c23 5097   0.063   3.067   5.332 -1.0134 -0.1483 -0.2036
  605poe    c23 5098   0.103   3.157   5.450  0.2887 -0.7088 -0.2034
  605poe     o2 5099   0.224   3.227   5.436  0.0582 -0.2153  0.2092
  605poe    c31 5100   0.301   3.222   5.554 -0.1984 -0.6820  0.3563
  606poe    c31 5101   1.250   1.443   2.843 -0.8724  0.6026 -0.5403
  606poe     o2 5102   1.309   1.524   2.943  0.5804 -0.2557 -0.6669
  606poe    c23 5103   1.446   1.495   2.960  0.4679 -0.3733  0.0701
  606poe    c23 5104   1.508   1.625   3.016 -0.0585  0.1031 -0.4356
  606poe     o2 5105   1.451   1.728   2.939 -0.0724  0.1129 -0.4119
  606poe    c23 5106   1.514   1.849   2.974  0.5044 -0.2187 -0.2982
  606poe    c23 5107   1.418   1.965   2.941  0.5675  0.0038  0.2901
  606poe     o2 5108   1.286   1.933   2.978  0.5841 -0.1962  0.1770
  606poe    c23 5109   1.253   1.952   3.113 -0.4493 -0.0486 -0.0849
  606poe    c23 5110   1.142   1.847   3.130 -0.1428 -0.3441  0.1183
  606poe     o2 5111   1.183   1.719   3.087  0.1788 -0.0099 -0.5783
  606poe    c31 5112   1.089   1.618   3.114 -0.0561  0.1702 -0.7131
  607poe    c31 5113   2.834   5.142   3.873  0.1308 -0.6059 -0.3063
  607poe     o2 5114   2.957   5.188   3.821  0.1129  0.1398  0.2999
  607poe    c23 5115   3.052   5.085   3.836  0.0063  0.0598  0.4278
  607poe    c23 5116   3.195   5.133   3.807 -0.1977  0.4595  0.0504
  607poe     o2 5117   3.224   5.161   3.672 -0.1286 -0.0868 -0.0507
  607poe    c23 5118   3.363   5.156   3.648 -0.1178  0.1481 -0.0389
  607poe    c23 5119   3.392   5.300   3.602  0.0880  0.0084 -0.3469
  607poe     o2 5120   3.290   5.319   3.506 -0.1431 -0.0386 -0.1133
  607poe    c23 5121   3.293   5.451   3.457  0.6643 -0.1166 -0.2977
  607poe    c23 5122   3.204   5.457   3.331  0.3973 -0.2777 -0.1193
  607poe     o2 5123   3.071   5.429   3.367  0.3961 -0.1279 -0.0043
  607poe    c31 5124   2.978   5.429   3.261  0.0242  0.0195  0.3177
  608poe    c31 5125   2.070   5.110   3.229 -0.2463 -0.0545 -0.5635
  608poe     o2 5126   2.062   5.200   3.338  0.2909 -0.3410 -0.2842
  608poe    c23 5127   2.152   5.306   3.315 -0.2124  0.1381 -0.0681
  608poe    c23 5128   2.195   5.375   3.446  0.3476  0.0669 -0.2096
  608poe     o2 5129   2.251   5.504   3.441 -0.1192  0.2786 -0.0414
  608poe    c23 5130   2.154   5.605   3.420 -0.1952  0.1118 -0.5015
  608poe    c23 5131   2.204   5.739   3.475  0.4007 -0.4179  0.2771
  608poe     o2 5132   2.338   5.745   3.431  0.3723  0.6412  0.3103
  608poe    c23 5133   2.422   5.828   3.509  0.5610  0.8558 -0.1147
  608poe    c23 5134   2.567   5.792   3.473  0.3120 -0.1252 -0.1701
  608poe     o2 5135   2.579   5.652   3.460  0.3396 -0.1291 -0.1031
  608poe    c31 5136   2.717   5.631   3.437  0.3060 -0.2865 -0.1582
  609poe    c31 5137   0.719   6.751   1.086  0.5915 -0.0805 -1.0720
  609poe     o2 5138   0.699   6.619   1.042  0.1865 -0.2351 -0.4421
  609poe    c23 5139   0.664   6.546   1.157 -0.4491  0.1341 -0.4005
  609poe    c23 5140   0.622   6.409   1.101 -0.0618 -0.3376  0.4478
  609poe     o2 5141   0.718   6.361   1.010 -0.3706  0.0858 -0.1045
  609poe    c23 5142   0.681   6.233   0.962  0.3405 -0.1455 -0.0403
  609poe    c23 5143   0.812   6.184   0.897  0.2955  0.1035 -0.3241
  609poe     o2 5144   0.843   6.291   0.811 -0.1382  0.0628 -0.5325
  609poe    c23 5145   0.970   6.266   0.755  0.0105  0.2734 -0.2906
  609poe    c23 5146   0.969   6.297   0.604  0.0780 -0.3391 -0.4225
  609poe     o2 5147   0.915   6.427   0.588  0.0067 -0.3266 -0.1018
  609poe    c31 5148   0.873   6.434   0.454  0.4335  0.0597 -0.2185
  610poe    c31 5149   0.630   3.872   4.148 -0.1536  0.7258  0.1731
  610poe     o2 5150   0.721   3.936   4.061  0.1837  0.2895  0.1987
  610poe    c23 5151   0.826   3.988   4.140  0.2212  0.4192  0.0647
  610poe    c23 5152   0.902   4.106   4.078  0.3883  0.2739 -0.0042
  610poe     o2 5153   0.921   4.079   3.940 -0.0961  0.0934 -0.0384
  610poe    c23 5154   1.021   4.164   3.889 -0.2714  0.3347  0.0189
  610poe    c23 5155   1.072   4.129   3.748  0.2198  0.9855  0.0289
  610poe     o2 5156   0.970   4.168   3.658 -0.0851 -0.0834 -0.0982
  610poe    c23 5157   1.006   4.181   3.522  0.0420 -0.2456 -0.0814
  610poe    c23 5158   0.884   4.235   3.446 -0.0033 -0.2956 -0.0437
  610poe     o2 5159   0.849   4.368   3.475 -0.2186 -0.3355 -0.1153
  610poe    c31 5160   0.716   4.387   3.432 -0.3229 -0.3030  0.2123
  611poe    c31 5161   6.399   4.957   5.301  0.1631  0.1096  0.2199
  611poe     o2 5162   6.277   5.020   5.270 -0.0803 -0.3564  0.2122
  611poe    c23 5163   6.170   4.930   5.251 -0.1181 -0.1236 -0.6886
  611poe    c23 5164   6.047   4.998   5.187  0.0202  0.5748 -0.2201
  611poe     o2 5165   6.063   5.033   5.052 -0.2551  0.7617 -0.2049
  611poe    c23 5166   5.944   5.071   4.987 -0.1609  0.6759 -0.4291
  611poe    c23 5167   5.965   5.094   4.836  0.2609  0.1498 -0.4514
  611poe     o2 5168   6.011   4.980   4.766  0.1961 -0.0556 -0.1660
  611poe    c23 5169   6.103   5.014   4.664  0.6718 -0.3773  0.1556
  611poe    c23 5170   6.115   4.898   4.564  1.1539 -0.3556  0.1869
  611poe     o2 5171   6.127   4.787   4.651 -0.0078 -0.5302  0.1305
  611poe    c31 5172   6.140   4.663   4.586  0.8938 -0.3049 -0.1283
  612poe    c31 5173   3.255   2.504   6.253  0.1595  0.2563  0.2326
  612poe     o2 5174   3.146   2.591   6.231 -0.3630 -0.5060 -0.2961
  612poe    c23 5175   3.144   2.684   6.337 -0.2181 -0.2910 -0.4812
  612poe    c23 5176   3.004   2.692   6.400 -0.2329  0.0566 -0.5530
  612poe     o2 5177   2.911   2.708   6.295  0.0597  0.0062 -0.8207
  612poe    c23 5178   2.871   2.842   6.278  0.0241  0.0878 -0.1018
  612poe    c23 5179   2.815   2.849   6.135 -0.1555  0.2405 -0.0258
  612poe     o2 5180   2.903   2.775   6.053  0.1355  0.0631  0.4412
  612poe    c23 5181   2.851   2.715   5.937 -0.2995 -0.2681  0.8040
  612poe    c23 5182   2.966   2.631   5.877 -0.4067 -0.0623  0.2993
  612poe     o2 5183   3.023   2.556   5.982 -0.6488 -0.4722  0.1401
  612poe    c31 5184   3.094   2.445   5.934  0.0785  0.1449 -0.2215
  613poe    c31 5185   5.875   4.742   6.303 -0.0750 -0.1140  0.6929
  613poe     o2 5186   5.735   4.741   6.324 -0.0716  0.2076  0.7403
  613poe    c23 5187   5.702   4.617   6.383  0.4369 -0.4266 -0.2890
  613poe    c23 5188   5.551   4.615   6.408  0.4598 -0.3276 -0.1406
  613poe     o2 5189   5.490   4.693   6.307 -0.0874 -0.4420  0.0943
  613poe    c23 5190   5.356   4.715   6.345 -0.2505 -0.9746 -0.1649
  613poe    c23 5191   5.290   4.810   6.243  0.4751 -0.2688  0.0073
  613poe     o2 5192   5.368   4.925   6.217 -0.1035  0.1117 -0.0732
  613poe    c23 5193   5.293   4.996   6.122 -0.3292 -0.1310 -0.0795
  613poe    c23 5194   5.367   5.125   6.081  0.2973 -0.4464  0.0510
  613poe     o2 5195   5.485   5.097   6.007  0.3603 -0.3319  0.1083
  613poe    c31 5196   5.550   5.214   5.962  0.3682 -0.0561  0.8047
  614poe    c31 5197   4.530   0.962   4.649 -1.2599  0.0058 -0.1904
  614poe     o2 5198   4.505   0.824   4.658 -0.4815 -0.1150  0.2393
  614poe    c23 5199   4.454   0.789   4.784 -0.5437  0.3874  0.3552
  614poe    c23 5200   4.335   0.694   4.759 -0.2641  0.0522  0.2941
  614poe     o2 5201   4.388   0.602   4.666 -0.5155  0.3033 -0.0955
  614poe    c23 5202   4.289   0.524   4.602  0.2255 -0.4720 -0.3163
  614poe    c23 5203   4.348   0.484   4.465  0.6450 -0.1330 -0.2393
  614poe     o2 5204   4.411   0.597   4.411  0.2581  0.0892 -0.2294
  614poe    c23 5205   4.475   0.589   4.285 -0.1161 -0.0260 -0.4143
  614poe    c23 5206   4.569   0.711   4.283 -0.0621 -0.0337  0.6226
  614poe     o2 5207   4.612   0.744   4.413 -0.5941  0.2874  0.7195
  614poe    c31 5208   4.740   0.797   4.389 -0.4888 -0.2912 -0.0671
  615poe    c31 5209   1.132   1.599   3.813 -0.8158 -0.0641 -0.4027
  615poe     o2 5210   1.190   1.492   3.742 -0.2714 -0.1267  0.1340
  615poe    c23 5211   1.325   1.469   3.775 -0.1967  0.1663  0.0375
  615poe    c23 5212   1.355   1.355   3.676  0.0123 -0.0839  0.3871
  615poe     o2 5213   1.239   1.282   3.643 -0.3288  0.2852  0.7585
  615poe    c23 5214   1.273   1.202   3.532 -0.8977  1.0895 -0.0176
  615poe    c23 5215   1.137   1.134   3.511 -0.3270  0.0592 -0.4411
  615poe     o2 5216   1.030   1.226   3.514 -0.4181 -0.0566 -0.0594
  615poe    c23 5217   0.948   1.212   3.400 -0.7781 -0.1247  0.2075
  615poe    c23 5218   0.820   1.295   3.376 -0.5469  0.2302  0.1950
  615poe     o2 5219   0.831   1.436   3.385 -0.2131  0.1943  0.3831
  615poe    c31 5220   0.729   1.500   3.313  0.0638 -0.7589 -0.8892
  616poe    c31 5221   4.105   2.222   1.538 -0.6676  0.2065  0.8485
  616poe     o2 5222   4.144   2.147   1.651  0.2813 -0.0201  0.3805
  616poe    c23 5223   4.216   2.029   1.622 -0.4952 -0.3151 -0.3937
  616poe    c23 5224   4.292   1.972   1.743 -0.2847  0.0157 -0.3689
  616poe     o2 5225   4.196   1.998   1.842 -0.3504  0.0191 -0.4331
  616poe    c23 5226   4.237   1.954   1.970 -0.4136  0.5380 -0.2278
  616poe    c23 5227   4.116   1.999   2.053  0.0085 -0.1673  0.7876
  616poe     o2 5228   4.111   2.138   2.029  0.2068 -0.3203 -0.1794
  616poe    c23 5229   3.998   2.209   2.074  0.3695  0.0074 -0.2877
  616poe    c23 5230   4.000   2.352   2.016 -0.1710  0.1434  0.0194
  616poe     o2 5231   4.034   2.336   1.881 -0.5242 -0.5132  0.0064
  616poe    c31 5232   4.007   2.455   1.810  0.5112  0.0043  0.4505
  617poe    c31 5233   2.147   2.491   0.907 -0.5904 -0.0322 -0.0660
  617poe     o2 5234   2.213   2.599   0.968 -0.4306 -0.2053  0.0694
  617poe    c23 5235   2.205   2.584   1.108  0.1824  0.3772  0.1732
  617poe    c23 5236   2.185   2.720   1.177 -0.2033  0.4782 -0.1350
  617poe     o2 5237   2.286   2.802   1.122  0.0983  0.1856 -0.0166
  617poe    c23 5238   2.262   2.937   1.153  0.1318  0.1418  0.2004
  617poe    c23 5239   2.315   3.014   1.031  0.3488  0.2629  0.3688
  617poe     o2 5240   2.284   2.935   0.918  0.4147  0.4095  0.2488
  617poe    c23 5241   2.346   2.980   0.799  0.2186 -0.5215 -0.2183
  617poe    c23 5242   2.309   2.880   0.688 -0.2695  0.0455 -0.5795
  617poe     o2 5243   2.318   2.748   0.739 -0.3100 -0.0034 -0.7001
  617poe    c31 5244   2.337   2.653   0.636 -0.2684 -0.9715  0.1948
  618poe    c31 5245   4.003   4.869   3.318  0.1716 -0.0614  0.0308
  618poe     o2 5246   3.878   4.839   3.376  0.2100  0.1643  0.2341
  618poe    c23 5247   3.777   4.820   3.280  0.5448 -0.5722  0.0195
  618poe    c23 5248   3.653   4.746   3.335  0.0534  0.1461 -0.1125
  618poe     o2 5249   3.640   4.815   3.458  0.4896  0.0836 -0.0295
  618poe    c23 5250   3.532   4.773   3.538  0.5341 -0.4553 -0.2457
  618poe    c23 5251   3.564   4.812   3.684  0.1234 -0.4615 -0.1527
  618poe     o2 5252   3.705   4.816   3.678  0.1232 -0.0108  0.0752
  618poe    c23 5253   3.751   4.857   3.805 -0.0232  0.1649  0.0714
  618poe    c23 5254   3.904   4.859   3.790 -0.0311  0.0419 -0.0231
  618poe     o2 5255   3.935   4.912   3.663  0.0779  0.4138  0.1566
  618poe    c31 5256   4.063   4.970   3.669  0.6285 -0.7803  0.4477
  619poe    c31 5257   3.471   4.018   0.160 -0.4454  0.5746  0.0866
  619poe     o2 5258   3.586   4.018   0.243 -0.0503  0.4636 -0.4536
  619poe    c23 5259   3.686   4.103   0.192  0.3266  0.2414 -0.0869
  619poe    c23 5260   3.810   4.090   0.282  0.0558 -0.8173  0.1474
  619poe     o2 5261   3.769   4.120   0.413  0.7572  0.7522  0.0241
  619poe    c23 5262   3.862   4.066   0.504  0.1955 -0.1265  0.0892
  619poe    c23 5263   3.778   3.980   0.600  0.6664 -0.7059 -0.0087
  619poe     o2 5264   3.692   3.907   0.516 -0.0860  0.0180  0.1079
  619poe    c23 5265   3.607   3.838   0.605 -0.1580  0.2378  0.2091
  619poe    c23 5266   3.480   3.799   0.526 -0.3658  0.4758  0.4202
  619poe     o2 5267   3.433   3.920   0.471 -0.0721  0.0910 -0.7026
  619poe    c31 5268   3.293   3.928   0.464 -0.1310 -0.5558 -0.3566
  620poe    c31 5269   4.456   1.201   6.072 -0.0875  0.3412 -0.0082
  620poe     o2 5270   4.487   1.067   6.101  0.3647  0.4182 -0.1183
  620poe    c23 5271   4.582   1.054   6.205 -0.6011  0.3332  0.7796
  620poe    c23 5272   4.648   0.916   6.194  0.3428  0.8690 -0.5333
  620poe     o2 5273   4.643   0.889   6.055 -0.1110  0.3968 -0.4260
  620poe    c23 5274   4.732   0.789   6.009 -0.3453  0.1962 -0.4480
  620poe    c23 5275   4.672   0.682   5.917 -0.4661 -0.0725 -0.0603
  620poe     o2 5276   4.633   0.748   5.799  0.0100  0.0145 -0.1703
  620poe    c23 5277   4.524   0.694   5.728 -0.1578  0.0168  0.0853
  620poe    c23 5278   4.490   0.765   5.595  0.5314  0.1868 -0.0059
  620poe     o2 5279   4.455   0.899   5.618 -0.4691 -0.0579 -0.0249
  620poe    c31 5280   4.412   0.963   5.501 -0.8636  0.0500  0.1774
  621poe    c31 5281   6.044   6.706   4.200 -0.5879  0.1565  0.0222
  621poe     o2 5282   6.071   6.844   4.200 -0.5364  0.1472 -0.5079
  621poe    c23 5283   5.953   6.902   4.248 -0.4960 -0.1802 -0.0078
  621poe    c23 5284   5.984   7.052   4.269  0.2118 -0.3722  0.3511
  621poe     o2 5285   6.109   7.063   4.333  0.0358  0.5644  0.5493
  621poe    c23 5286   6.137   7.200   4.342 -0.4075  0.7461 -0.5855
  621poe    c23 5287   6.286   7.179   4.376 -0.7008 -0.0095  0.2872
  621poe     o2 5288   6.326   7.068   4.298 -0.6831  0.3104 -0.1650
  621poe    c23 5289   6.407   7.098   4.187  0.0847 -0.6178  0.1246
  621poe    c23 5290   6.458   6.973   4.114  0.0003 -0.5579 -0.0380
  621poe     o2 5291   6.334   6.906   4.102 -0.1023 -0.3852  0.0597
  621poe    c31 5292   6.349   6.828   3.986 -0.2277  0.5902 -0.6224
  622poe    c31 5293   1.155   5.813   1.238  0.1584  0.3317 -0.1279
  622poe     o2 5294   1.254   5.902   1.283  0.1156 -0.2387  1.1258
  622poe    c23 5295   1.211   6.036   1.285  0.0694 -0.2079 -0.6345
  622poe    c23 5296   1.322   6.133   1.330 -0.6246  0.2089  0.1963
  622poe     o2 5297   1.409   6.066   1.419 -0.2651 -0.0157 -0.3168
  622poe    c23 5298   1.508   6.146   1.480 -0.4293  0.1499 -0.2653
  622poe    c23 5299   1.625   6.057   1.525 -0.0827  0.3823 -0.7050
  622poe     o2 5300   1.652   5.967   1.419  0.1279  0.1610 -0.4641
  622poe    c23 5301   1.791   5.945   1.420 -0.0278 -0.8234 -0.2143
  622poe    c23 5302   1.822   5.830   1.323  0.0395 -0.3969 -0.6970
  622poe     o2 5303   1.755   5.715   1.369 -0.1670  0.0386  0.0993
  622poe    c31 5304   1.823   5.595   1.343 -0.1802  0.1056 -0.2523
  623poe    c31 5305   1.883   4.042   3.221 -0.1539 -0.3044  0.2612
  623poe     o2 5306   1.823   4.011   3.345  0.1377  0.4274  0.5900
  623poe    c23 5307   1.895   4.071   3.451  0.4896  0.1411  0.5145
  623poe    c23 5308   1.879   3.978   3.573 -0.1050  0.1007  0.4097
  623poe     o2 5309   1.741   3.950   3.588  0.0065 -0.6185  0.0942
  623poe    c23 5310   1.730   3.846   3.682 -0.1492 -0.7024 -0.0156
  623poe    c23 5311   1.580   3.814   3.686 -0.3519  0.2009 -0.3096
  623poe     o2 5312   1.548   3.722   3.584  0.0060 -0.0203 -0.2218
  623poe    c23 5313   1.408   3.726   3.572  0.0027 -0.1649 -0.2273
  623poe    c23 5314   1.357   3.643   3.452 -0.0216 -0.5291  0.0340
  623poe     o2 5315   1.431   3.696   3.345 -0.1180  0.1779  0.3155
  623poe    c31 5316   1.347   3.765   3.255  0.8631 -0.1855 -0.9182
  624poe    c31 5317   4.132   4.577   2.498  0.9079 -0.4135 -0.2998
  624poe     o2 5318   4.107   4.702   2.559  0.3229 -0.4717 -0.4131
  624poe    c23 5319   4.180   4.736   2.675  0.0926 -0.7105 -0.1975
  624poe    c23 5320   4.128   4.865   2.741  0.2903 -0.6718 -0.1190
  624poe     o2 5321   3.991   4.851   2.714  0.2529 -0.0426 -0.2821
  624poe    c23 5322   3.929   4.967   2.763  0.3697  0.1866 -0.6719
  624poe    c23 5323   3.788   4.958   2.702  0.1072  0.5378 -0.1248
  624poe     o2 5324   3.802   4.900   2.575 -0.0874  0.4766 -0.1187
  624poe    c23 5325   3.683   4.837   2.532  0.0465  0.2743 -0.1962
  624poe    c23 5326   3.722   4.781   2.394  0.0442  0.3826 -0.2408
  624poe     o2 5327   3.847   4.717   2.409 -0.0486  0.3063  0.2324
  624poe    c31 5328   3.890   4.665   2.285  0.0410  0.1646  0.3229
  625poe    c31 5329   6.510   4.282   1.359 -0.6275  0.1264  0.3853
  625poe     o2 5330   6.404   4.316   1.273 -0.2223  0.0514 -0.1455
  625poe    c23 5331   6.444   4.382   1.155  0.0113  0.2034  0.0189
  625poe    c23 5332   6.315   4.386   1.072 -0.1107 -1.0205  0.1356
  625poe     o2 5333   6.202   4.404   1.154 -0.3446 -0.3092 -0.3296
  625poe    c23 5334   6.097   4.489   1.113 -0.1599  0.2117  0.2638
  625poe    c23 5335   5.977   4.476   1.210 -0.3219 -0.1569  0.0160
  625poe     o2 5336   6.023   4.415   1.328 -0.0127  0.0445 -0.0002
  625poe    c23 5337   5.967   4.456   1.451  0.1415 -0.1874  0.1463
  625poe    c23 5338   6.040   4.373   1.559  0.6548  0.0957  0.0203
  625poe     o2 5339   6.175   4.359   1.518  0.3824 -0.7869 -0.6262
  625poe    c31 5340   6.256   4.302   1.618  0.3372  0.3356  0.0690
  626poe    c31 5341   6.050   2.583   3.839  0.6560  0.0068 -0.2407
  626poe     o2 5342   6.172   2.546   3.900  0.4436  0.3588  0.4089
  626poe    c23 5343   6.271   2.504   3.809 -0.2904 -0.2556 -0.1148
  626poe    c23 5344   6.381   2.450   3.902  0.1170  0.8261  0.0406
  626poe     o2 5345   6.369   2.494   4.035  0.0043 -0.2405  0.3922
  626poe    c23 5346   6.470   2.452   4.124  0.2938  0.1825  0.2668
  626poe    c23 5347   6.482   2.556   4.236  0.0077  0.6458 -0.1319
  626poe     o2 5348   6.348   2.588   4.267 -0.0628 -0.1747  0.4189
  626poe    c23 5349   6.328   2.710   4.334  0.1471  0.0690  0.0394
  626poe    c23 5350   6.184   2.749   4.296  0.3618  0.5796 -0.2586
  626poe     o2 5351   6.154   2.715   4.162  0.3858 -0.8402  0.0762
  626poe    c31 5352   6.023   2.764   4.144  0.3435 -0.9829  0.0010
  627poe    c31 5353   1.178   1.237   6.055 -0.4996 -0.7399 -0.0836
  627poe     o2 5354   1.317   1.216   6.065 -0.4640 -0.3737  0.1862
  627poe    c23 5355   1.394   1.334   6.058 -0.4329 -0.4235 -0.3909
  627poe    c23 5356   1.422   1.393   6.197 -0.1795 -0.2928 -0.4958
  627poe     o2 5357   1.492   1.303   6.280  0.1033  0.4031  0.0383
  627poe    c23 5358   1.512   1.359   6.408  0.0602  0.6423 -0.0594
  627poe    c23 5359   1.612   1.281   6.495 -0.1728 -0.1461 -0.4833
  627poe     o2 5360   1.583   1.145   6.476 -0.6413 -0.1247  0.0455
  627poe    c23 5361   1.678   1.053   6.527 -0.1911  0.3050 -0.0107
  627poe    c23 5362   1.608   0.917   6.537  0.0525  0.2338  0.7894
  627poe     o2 5363   1.578   0.893   6.402  0.3182 -0.4760  0.8491
  627poe    c31 5364   1.572   0.755   6.371 -0.4748 -0.2332 -0.1617
  628poe    c31 5365   6.172   2.066   2.084 -0.0352 -0.1810 -0.0205
  628poe     o2 5366   6.243   2.175   2.139 -0.4288 -0.1675  0.4606
  628poe    c23 5367   6.212   2.282   2.053 -0.0164 -0.1773  0.3024
  628poe    c23 5368   6.264   2.421   2.093 -0.1227  0.0239 -0.2442
  628poe     o2 5369   6.400   2.391   2.115 -0.2455 -0.4290 -0.1070
  628poe    c23 5370   6.471   2.500   2.171  0.0796 -0.4523 -0.4716
  628poe    c23 5371   6.622   2.472   2.161  0.0632 -0.6300 -0.2335
  628poe     o2 5372   6.654   2.343   2.207 -0.0575 -0.4002  0.5119
  628poe    c23 5373   6.779   2.296   2.162 -0.1508  0.1245 -0.3035
  628poe    c23 5374   6.821   2.166   2.231  0.0191  0.3540  0.0266
  628poe     o2 5375   6.766   2.056   2.162 -0.4503  0.0280  0.8956
  628poe    c31 5376   6.795   1.929   2.216 -0.2720 -0.1728  0.3387
  629poe    c31 5377   6.126   5.160   3.175 -0.3675  0.3988  0.1614
  629poe     o2 5378   6.082   5.147   3.309 -0.0987  0.7426  0.2851
  629poe    c23 5379   5.943   5.125   3.314 -0.1661  1.0063 -0.3407
  629poe    c23 5380   5.909   5.056   3.447  0.1674 -0.0951 -0.8085
  629poe     o2 5381   5.967   4.928   3.446  0.1649 -0.1321  0.8768
  629poe    c23 5382   5.930   4.843   3.552 -0.4633 -0.0292  0.7430
  629poe    c23 5383   5.989   4.705   3.516 -0.4093  0.2139 -0.0963
  629poe     o2 5384   6.125   4.722   3.481 -0.2145  0.0333  0.5725
  629poe    c23 5385   6.186   4.595   3.495  0.0802  0.1250  0.1356
  629poe    c23 5386   6.333   4.596   3.538  0.0595 -0.2918  0.2187
  629poe     o2 5387   6.409   4.666   3.442 -0.1796 -0.5240 -0.1404
  629poe    c31 5388   6.550   4.660   3.443 -0.1328  0.4756  0.3514
  630poe    c31 5389   3.967   6.191   5.884 -0.1608 -0.1823 -0.0222
  630poe     o2 5390   4.006   6.309   5.818  0.2994 -0.1051  0.3728
  630poe    c23 5391   4.130   6.300   5.751 -0.0051  0.2671 -0.2546
  630poe    c23 5392   4.175   6.440   5.705  0.2802  0.1318 -0.3902
  630poe     o2 5393   4.059   6.494   5.645  0.0835 -0.3281 -0.4275
  630poe    c23 5394   4.048   6.633   5.625 -0.6615 -0.2544  0.4137
  630poe    c23 5395   3.904   6.673   5.587 -0.5340 -0.0787  0.1079
  630poe     o2 5396   3.815   6.628   5.688 -0.2016 -0.1145  0.3864
  630poe    c23 5397   3.700   6.709   5.696 -0.1002  0.0607  0.0955
  630poe    c23 5398   3.570   6.676   5.621 -0.2220  0.4310  0.1428
  630poe     o2 5399   3.567   6.743   5.497 -0.3358  0.9740  0.4343
  630poe    c31 5400   3.439   6.732   5.437  0.0487  0.0823 -0.2377
  631poe    c31 5401   1.132   6.284   2.283  0.1457 -0.5920  0.5919
  631poe     o2 5402   1.270   6.256   2.292  0.3924  0.3668 -0.1416
  631poe    c23 5403   1.320   6.381   2.335 -0.0497  0.2698  0.6765
  631poe    c23 5404   1.473   6.361   2.334 -0.1502 -0.5140  0.0939
  631poe     o2 5405   1.507   6.233   2.383 -0.3821 -0.2748  0.8917
  631poe    c23 5406   1.640   6.193   2.358 -0.3753 -0.1393  0.7070
  631poe    c23 5407   1.638   6.042   2.388 -0.1215 -0.3960 -0.5028
  631poe     o2 5408   1.519   5.999   2.326 -0.3002  0.3991 -0.7247
  631poe    c23 5409   1.475   5.870   2.361  0.0466  0.5268  0.2285
  631poe    c23 5410   1.359   5.847   2.262  0.2196  0.8383 -0.0503
  631poe     o2 5411   1.263   5.950   2.262  0.0143  0.6529  0.4054
  631poe    c31 5412   1.136   5.897   2.232  0.4496 -0.2679  0.1597
  632poe    c31 5413   4.911   6.345   0.187 -0.2625  0.0651  0.1634
  632poe     o2 5414   5.042   6.303   0.157 -0.3659 -0.1456  0.0073
  632poe    c23 5415   5.137   6.398   0.200 -0.3234 -0.0839 -0.2211
  632poe    c23 5416   5.280   6.354   0.165 -0.1502  0.3190 -0.0285
  632poe     o2 5417   5.323   6.231   0.218  0.5258  0.5700  0.0229
  632poe    c23 5418   5.461   6.213   0.195  0.4342 -0.1224 -0.0341
  632poe    c23 5419   5.495   6.076   0.255 -0.2006 -0.2007  0.1593
  632poe     o2 5420   5.376   6.007   0.286 -0.7399  0.5639 -0.1864
  632poe    c23 5421   5.410   5.878   0.332 -0.3234  0.6314 -0.2981
  632poe    c23 5422   5.299   5.830   0.427  0.1366  0.7931  0.3258
  632poe     o2 5423   5.172   5.840   0.366 -0.0207 -0.2882  0.4584
  632poe    c31 5424   5.095   5.747   0.439  0.0348 -0.4623  0.2937
  633poe    c31 5425   2.708   4.862   2.041  0.0271 -0.2950  0.0545
  633poe     o2 5426   2.815   4.786   1.987  0.3305 -0.0013  0.2404
  633poe    c23 5427   2.898   4.726   2.084 -0.0562 -0.0443  0.5496
  633poe    c23 5428   3.024   4.691   2.003 -0.0540  0.5709  0.2809
  633poe     o2 5429   2.981   4.660   1.872 -0.2200  0.2209  0.4189
  633poe    c23 5430   3.091   4.669   1.785 -0.2997 -0.2456  0.2671
  633poe    c23 5431   3.037   4.578   1.672 -0.1761 -0.3535  0.2939
  633poe     o2 5432   2.902   4.618   1.658 -0.0800 -0.3937 -0.7761
  633poe    c23 5433   2.813   4.517   1.618 -0.1729 -0.2836 -0.8488
  633poe    c23 5434   2.676   4.587   1.616  0.0679  0.2255  0.1801
  633poe     o2 5435   2.654   4.662   1.734 -0.1726  0.0372  0.2548
  633poe    c31 5436   2.521   4.641   1.778  0.0100 -0.3368  0.6340
  634poe    c31 5437   1.218   3.168   6.712  0.2358  0.7839 -0.2291
  634poe     o2 5438   1.134   3.281   6.716 -0.7179  0.0758  0.0182
  634poe    c23 5439   1.041   3.291   6.822 -0.2275 -0.8039  0.5400
  634poe    c23 5440   0.939   3.401   6.788  0.7247  0.0129  0.2693
  634poe     o2 5441   1.011   3.516   6.750 -0.1655  0.2749 -0.6744
  634poe    c23 5442   0.926   3.627   6.730  0.1939  0.6814  0.0238
  634poe    c23 5443   1.012   3.751   6.698 -0.0509  0.6901 -0.6010
  634poe     o2 5444   1.119   3.708   6.616  0.1867 -0.4087  0.2631
  634poe    c23 5445   1.182   3.824   6.567 -0.2303 -0.1819  0.2534
  634poe    c23 5446   1.297   3.800   6.467 -0.4201  0.7556 -0.1965
  634poe     o2 5447   1.262   3.721   6.355 -0.2497  0.3092  0.0669
  634poe    c31 5448   1.371   3.649   6.301 -0.0655  0.4009  0.3096
  635poe    c31 5449   2.193   6.018   1.122 -0.0728  0.2085  0.1180
  635poe     o2 5450   2.215   6.154   1.094  0.3452 -0.0062 -0.6150
  635poe    c23 5451   2.099   6.189   1.022  0.2474  0.3451 -0.2899
  635poe    c23 5452   2.118   6.331   0.965  0.1131  0.3639 -0.2890
  635poe     o2 5453   2.246   6.333   0.905  0.0600  0.5052 -0.3993
  635poe    c23 5454   2.312   6.456   0.890  0.3892  0.3063 -0.5722
  635poe    c23 5455   2.462   6.420   0.899  0.2474 -0.0706  0.3718
  635poe     o2 5456   2.477   6.360   1.026  0.0013 -0.1486  0.3642
  635poe    c23 5457   2.602   6.361   1.090  0.0588 -0.2123  0.2527
  635poe    c23 5458   2.590   6.283   1.222 -0.4401 -0.1817  0.2262
  635poe     o2 5459   2.501   6.175   1.207 -0.7448  0.0988  0.0034
  635poe    c31 5460   2.493   6.119   1.336  0.0181  0.5360  0.2457
  636poe    c31 5461   4.566   0.223   1.054 -0.0010  0.3147 -0.5016
  636poe     o2 5462   4.489   0.289   1.152  0.2013 -0.2079  0.0180
  636poe    c23 5463   4.386   0.376   1.111  0.3132  0.0424  0.2658
  636poe    c23 5464   4.323   0.437   1.237  0.4482 -0.0596  0.3826
  636poe     o2 5465   4.428   0.515   1.289  0.0324  0.6216  0.2260
  636poe    c23 5466   4.385   0.561   1.415 -0.6380  0.2638  0.1300
  636poe    c23 5467   4.444   0.697   1.455  0.3146 -0.1316  0.1048
  636poe     o2 5468   4.583   0.689   1.437  0.3282  0.2446  0.0203
  636poe    c23 5469   4.637   0.812   1.480  0.3870  0.0923  0.3890
  636poe    c23 5470   4.786   0.801   1.518  0.4919  0.4314  0.0861
  636poe     o2 5471   4.864   0.756   1.409 -0.0636  0.1200 -0.1860
  636poe    c31 5472   5.001   0.759   1.441 -0.1673 -0.1827  0.2924
  637poe    c31 5473   5.510   0.050   1.870 -0.1869 -0.2240  0.1027
  637poe     o2 5474   5.449   0.176   1.885 -0.1801 -0.2056 -0.0305
  637poe    c23 5475   5.496   0.244   2.000 -0.3290  0.1914 -0.2023
  637poe    c23 5476   5.463   0.391   1.967 -0.3347  0.2553  0.0922
  637poe     o2 5477   5.327   0.378   1.931 -0.2916 -0.1208  0.0573
  637poe    c23 5478   5.289   0.512   1.908  0.1998  0.1353  0.6950
  637poe    c23 5479   5.139   0.482   1.887  0.2711  0.2322  0.0324
  637poe     o2 5480   5.115   0.371   1.804  0.4057  0.1191  0.1455
  637poe    c23 5481   4.993   0.309   1.837  0.2102  0.0943 -0.6276
  637poe    c23 5482   5.006   0.165   1.783  0.1938 -0.1563  0.0297
  637poe     o2 5483   5.134   0.121   1.824  0.3773  0.1458 -0.2135
  637poe    c31 5484   5.130  -0.019   1.817 -0.4786  0.0880  1.0596
  638poe    c31 5485   0.162   1.924   3.290 -0.2799 -0.2023 -0.1206
  638poe     o2 5486   0.092   1.954   3.409 -0.2123 -0.3608 -0.0410
  638poe    c23 5487   0.029   2.080   3.394 -0.7619 -0.5868  0.3629
  638poe    c23 5488  -0.025   2.132   3.529 -0.1626  0.6747  0.1316
  638poe     o2 5489  -0.124   2.056   3.595 -0.0638  0.0972 -0.3764
  638poe    c23 5490  -0.165   2.118   3.714  0.4597 -0.0540 -0.1119
  638poe    c23 5491  -0.288   2.041   3.766  0.5406  0.2160  0.4935
  638poe     o2 5492  -0.249   1.906   3.754  0.4026  0.2193 -0.0439
  638poe    c23 5493  -0.334   1.813   3.817  0.4760  0.3867  0.3033
  638poe    c23 5494  -0.320   1.667   3.770  0.1328  0.4367  0.0507
  638poe     o2 5495  -0.310   1.677   3.629  0.8371  0.4191  0.1009
  638poe    c31 5496  -0.334   1.552   3.569 -0.6432  0.8306 -0.1840
  639poe    c31 5497   0.744   6.124   6.586 -0.1149  0.4480  0.6024
  639poe     o2 5498   0.850   6.031   6.578 -0.3321  0.2612 -0.2370
  639poe    c23 5499   0.903   6.010   6.449  0.6093  0.5942  0.0842
  639poe    c23 5500   1.038   5.941   6.470  0.3081 -0.2199 -0.6060
  639poe     o2 5501   1.033   5.853   6.580 -0.2928  0.6034  0.0343
  639poe    c23 5502   1.162   5.821   6.628 -0.2773 -0.3066 -0.5877
  639poe    c23 5503   1.125   5.737   6.751  0.2028  0.0665 -0.1795
  639poe     o2 5504   1.018   5.802   6.816 -0.1420 -0.7410  0.0825
  639poe    c23 5505   0.978   5.730   6.931  0.2627  0.0451  0.7273
  639poe    c23 5506   0.850   5.806   6.968 -0.0582 -0.1754  0.0987
  639poe     o2 5507   0.787   5.859   6.854  0.4990  0.0684 -0.0985
  639poe    c31 5508   0.659   5.910   6.883  0.2744  0.1574 -1.2043
  640poe    c31 5509   2.088   3.226   5.785  0.2546 -0.0853 -0.6398
  640poe     o2 5510   2.210   3.256   5.849 -0.2115 -0.9455  0.6651
  640poe    c23 5511   2.186   3.351   5.951 -0.7615 -0.3631  0.0007
  640poe    c23 5512   2.277   3.340   6.074 -0.2894  0.2659 -0.2897
  640poe     o2 5513   2.412   3.336   6.031 -0.1879  0.6305 -0.0118
  640poe    c23 5514   2.484   3.269   6.132 -0.2001  0.2312 -0.2674
  640poe    c23 5515   2.571   3.167   6.057  0.5974  0.6954  0.0073
  640poe     o2 5516   2.506   3.095   5.954  0.3016  0.1028  0.6017
  640poe    c23 5517   2.596   3.042   5.860  0.1258  0.5259  0.1901
  640poe    c23 5518   2.568   3.122   5.732  0.3416  0.1747 -0.0805
  640poe     o2 5519   2.439   3.178   5.728  0.1853 -0.2126 -0.5815
  640poe    c31 5520   2.441   3.267   5.618 -0.6431 -0.0061 -0.4384
  641poe    c31 5521   5.770   4.482   2.911  0.2438  0.2906 -0.3622
  641poe     o2 5522   5.772   4.497   2.771 -0.2879  0.2360 -0.3754
  641poe    c23 5523   5.642   4.484   2.718 -0.2404 -0.3319 -0.3600
  641poe    c23 5524   5.651   4.475   2.565  0.8542 -0.3430 -0.3015
  641poe     o2 5525   5.685   4.594   2.496  0.1244  0.2077  0.2638
  641poe    c23 5526   5.756   4.569   2.377 -0.6055  0.5961 -0.2616
  641poe    c23 5527   5.772   4.709   2.316  0.8566  0.4158 -0.3268
  641poe     o2 5528   5.816   4.803   2.412  0.1275 -0.2795  0.6922
  641poe    c23 5529   5.836   4.930   2.357 -0.0152 -0.5576 -0.0081
  641poe    c23 5530   5.907   4.999   2.475 -0.2162 -0.8297  0.2726
  641poe     o2 5531   5.833   4.970   2.591 -0.0619 -0.3770  0.4868
  641poe    c31 5532   5.864   5.060   2.695 -0.1955  0.2053  0.0274
  642poe    c31 5533   4.340   4.020   1.269  0.4902  0.4389  0.5346
  642poe     o2 5534   4.371   3.896   1.328  0.0104  0.2162  0.3280
  642poe    c23 5535   4.309   3.898   1.454 -0.4683 -0.4734  0.1116
  642poe    c23 5536   4.350   3.779   1.542 -0.6492 -0.2200  0.5426
  642poe     o2 5537   4.321   3.665   1.464 -0.3978 -0.1246  0.3121
  642poe    c23 5538   4.365   3.541   1.513 -0.2215 -0.0086  0.4516
  642poe    c23 5539   4.398   3.459   1.387 -0.0559  0.1440  0.3970
  642poe     o2 5540   4.463   3.557   1.309  0.3508 -0.2533  0.2297
  642poe    c23 5541   4.517   3.515   1.185 -0.1513  0.1305 -0.1244
  642poe    c23 5542   4.477   3.620   1.080 -0.5690 -0.5197 -0.6240
  642poe     o2 5543   4.515   3.743   1.139 -0.3457 -0.6470 -0.5036
  642poe    c31 5544   4.539   3.838   1.038 -0.5293  0.3953  0.4200
  643poe    c31 5545   4.343   5.472   1.240 -0.6744  0.0519 -0.2751
  643poe     o2 5546   4.361   5.500   1.103 -0.1989  0.0365 -0.2174
  643poe    c23 5547   4.332   5.386   1.024  0.8369 -0.5098  0.1724
  643poe    c23 5548   4.307   5.419   0.876 -0.0246  0.4205  0.5169
  643poe     o2 5549   4.396   5.527   0.859 -0.6070  0.8543  0.1636
  643poe    c23 5550   4.416   5.559   0.723  0.1578  0.1773  0.1072
  643poe    c23 5551   4.533   5.658   0.714  0.5603 -0.2968  0.1175
  643poe     o2 5552   4.529   5.738   0.830  0.1244 -0.0750 -0.0520
  643poe    c23 5553   4.643   5.814   0.861  0.3847 -0.5038  0.0411
  643poe    c23 5554   4.612   5.854   1.006  0.1968 -0.4670 -0.0096
  643poe     o2 5555   4.577   5.732   1.067 -0.3525 -0.1660  0.2931
  643poe    c31 5556   4.595   5.753   1.205  0.0289  0.3870  0.1638
  644poe    c31 5557   3.861   0.621   2.111 -0.1033 -0.2658 -0.0630
  644poe     o2 5558   3.950   0.512   2.114 -0.6378 -0.7056 -0.1058
  644poe    c23 5559   3.954   0.482   2.252 -0.6264  0.0035  0.0489
  644poe    c23 5560   4.032   0.353   2.280  0.2847  0.6299  0.4509
  644poe     o2 5561   4.145   0.344   2.196 -0.0470 -0.1488  0.0786
  644poe    c23 5562   4.178   0.211   2.163  0.3413  0.0632 -0.4040
  644poe    c23 5563   4.207   0.201   2.012  0.3915 -0.0597 -0.3874
  644poe     o2 5564   4.102   0.270   1.947 -0.1922 -0.5269  0.0367
  644poe    c23 5565   4.121   0.262   1.807  0.5006  0.2047  0.0783
  644poe    c23 5566   4.027   0.372   1.754  0.2733 -0.0675 -0.0876
  644poe     o2 5567   4.040   0.487   1.835 -0.6857  0.3999 -0.5868
  644poe    c31 5568   3.992   0.605   1.775  0.2181  0.7138 -0.7073
  645poe    c31 5569   3.864   6.648   3.029 -0.8453  0.9708  0.2518
  645poe     o2 5570   3.750   6.565   3.037 -0.2178  0.1117  0.4965
  645poe    c23 5571   3.726   6.489   2.920  0.3987  0.3308  0.2251
  645poe    c23 5572   3.594   6.417   2.950  0.5193 -0.0618 -0.1752
  645poe     o2 5573   3.612   6.372   3.083  0.0010  0.2720  0.0106
  645poe    c23 5574   3.501   6.298   3.130  0.3229 -0.5361 -0.4809
  645poe    c23 5575   3.557   6.253   3.266 -0.1139  0.4175  0.0246
  645poe     o2 5576   3.583   6.373   3.336  0.5320  0.4762 -0.3118
  645poe    c23 5577   3.597   6.341   3.473  0.3984  0.3887 -0.3188
  645poe    c23 5578   3.659   6.451   3.561  0.0077 -0.0644  0.5318
  645poe     o2 5579   3.589   6.573   3.555  0.4078  0.1297 -0.2901
  645poe    c31 5580   3.651   6.669   3.637  0.0237  0.3136 -0.2126
  646poe    c31 5581   5.105   3.910   0.821  0.1863 -0.2160  0.4699
  646poe     o2 5582   5.168   3.970   0.932  0.2466 -0.5336  0.6098
  646poe    c23 5583   5.308   3.959   0.922  0.2925  0.3781  0.1815
  646poe    c23 5584   5.371   3.999   1.056 -0.1800 -0.1981  0.5765
  646poe     o2 5585   5.292   4.101   1.113 -0.1882  0.3682 -0.4398
  646poe    c23 5586   5.282   4.083   1.252  0.3238  0.5840 -0.3764
  646poe    c23 5587   5.197   4.199   1.308  0.1812  0.3615 -0.1291
  646poe     o2 5588   5.074   4.188   1.240 -0.3660  0.1232  0.8924
  646poe    c23 5589   4.969   4.280   1.258 -0.4522  0.2370 -0.1738
  646poe    c23 5590   4.881   4.254   1.381 -0.3548  0.0901 -0.1353
  646poe     o2 5591   4.798   4.140   1.379 -0.0648 -0.1241  0.0537
  646poe    c31 5592   4.714   4.134   1.492  0.2792  0.3306  0.3341
  647poe    c31 5593   3.273   6.314   1.174  0.5540 -0.5676 -0.5326
  647poe     o2 5594   3.162   6.228   1.187  0.2301 -0.1640 -0.5939
  647poe    c23 5595   3.077   6.256   1.078  0.2709  0.7431 -0.4025
  647poe    c23 5596   2.991   6.129   1.065  0.7698  0.3298  0.2509
  647poe     o2 5597   2.949   6.100   1.196  0.1403 -0.3794 -0.1023
  647poe    c23 5598   2.867   5.986   1.212 -0.5873  0.1599  0.0646
  647poe    c23 5599   2.882   5.937   1.357 -0.2723  0.9532  0.3061
  647poe     o2 5600   3.022   5.939   1.378 -0.1923 -0.6365  0.0654
  647poe    c23 5601   3.050   5.888   1.506  0.3404  0.1669  0.2784
  647poe    c23 5602   3.197   5.930   1.525  0.3847 -0.0381  0.3891
  647poe     o2 5603   3.208   6.066   1.493  0.1230 -0.2153 -0.4660
  647poe    c31 5604   3.343   6.087   1.526  0.0780 -0.5344 -0.0794
  648poe    c31 5605   3.318   0.305   5.559  0.2014 -0.4062 -1.1515
  648poe     o2 5606   3.411   0.343   5.658 -0.4972 -0.2829 -0.5276
  648poe    c23 5607   3.405   0.255   5.767 -0.0551  0.4686  0.1172
  648poe    c23 5608   3.537   0.256   5.847 -0.2277 -0.0545  0.4161
  648poe     o2 5609   3.575   0.392   5.846 -0.2544 -0.0475  0.3622
  648poe    c23 5610   3.691   0.406   5.925  0.1751 -0.1541 -0.2380
  648poe    c23 5611   3.733   0.554   5.941 -0.4624  0.0182 -0.1434
  648poe     o2 5612   3.793   0.597   5.821  0.0442 -0.3660 -0.0321
  648poe    c23 5613   3.819   0.733   5.845  0.7968 -0.6243  0.6502
  648poe    c23 5614   3.888   0.802   5.725 -0.0982 -0.1411  0.4054
  648poe     o2 5615   4.020   0.760   5.701 -0.2845 -0.2231 -0.5194
  648poe    c31 5616   4.090   0.834   5.603  0.3183  0.4326  0.3854
  649poe    c31 5617   5.631   2.460   3.965 -0.2461 -0.5592 -0.0752
  649poe     o2 5618   5.504   2.400   3.958 -0.4136 -0.2295  0.0934
  649poe    c23 5619   5.486   2.283   4.036  0.0163 -0.1496  0.3123
  649poe    c23 5620   5.342   2.233   4.018 -0.0955  0.1517  0.3586
  649poe     o2 5621   5.259   2.346   4.032 -0.5631 -0.2024  0.4938
  649poe    c23 5622   5.121   2.324   4.014 -0.4963 -0.4668  0.3057
  649poe    c23 5623   5.053   2.455   4.057 -0.0828 -0.1165 -0.0983
  649poe     o2 5624   5.132   2.563   4.011  0.2744 -0.2813  0.1286
  649poe    c23 5625   5.067   2.678   4.060  0.4226 -0.3174  0.4148
  649poe    c23 5626   5.134   2.811   4.023 -0.4922  0.0990  0.2221
  649poe     o2 5627   5.250   2.834   4.101  0.0678 -0.3136 -0.4825
  649poe    c31 5628   5.310   2.960   4.077  0.0170 -0.1040  0.4704
  650poe    c31 5629   6.404   0.792   3.718 -0.1514 -0.5212  0.6415
  650poe     o2 5630   6.265   0.813   3.710 -0.0889 -0.1310  0.5438
  650poe    c23 5631   6.219   0.796   3.578  0.0646  0.8604  0.3606
  650poe    c23 5632   6.072   0.840   3.576 -0.1391  0.2165  0.8913
  650poe     o2 5633   6.011   0.804   3.698 -0.3184 -0.4701  0.6023
  650poe    c23 5634   5.899   0.885   3.725 -0.0165  0.0689  0.2708
  650poe    c23 5635   5.876   0.875   3.877  0.4282  0.6078  0.3754
  650poe     o2 5636   6.007   0.866   3.930  0.3636  0.0932  0.4585
  650poe    c23 5637   6.013   0.851   4.070 -0.5090 -0.2111  0.4689
  650poe    c23 5638   6.160   0.870   4.113 -0.3327 -0.3306 -0.0657
  650poe     o2 5639   6.238   0.796   4.022 -0.2005  0.0335 -0.2494
  650poe    c31 5640   6.373   0.829   4.049 -0.1834 -0.2598  0.0201
  651poe    c31 5641   6.535   5.686   1.240  0.1867 -0.0394 -0.4775
  651poe     o2 5642   6.598   5.787   1.164 -0.0175  0.2967 -0.1993
  651poe    c23 5643   6.625   5.889   1.257  0.2675  0.3869 -0.3815
  651poe    c23 5644   6.711   5.995   1.186  0.6034 -0.3194 -1.0449
  651poe     o2 5645   6.673   6.001   1.050  0.2962  0.0435 -0.9457
  651poe    c23 5646   6.776   6.058   0.974  0.0866  0.9711 -0.5496
  651poe    c23 5647   6.779   5.979   0.842  0.0272 -0.0347  0.0410
  651poe     o2 5648   6.755   5.844   0.873  0.2663 -0.0815  0.0249
  651poe    c23 5649   6.749   5.764   0.757 -0.5474 -0.0297  0.0278
  651poe    c23 5650   6.702   5.624   0.802  0.0327 -0.3026 -0.2085
  651poe     o2 5651   6.584   5.650   0.875  0.5914 -0.1605  0.6726
  651poe    c31 5652   6.521   5.528   0.904 -0.3545  0.2174  0.2676
  652poe    c31 5653   1.538   0.569   0.918  0.6064  0.2143 -0.0452
  652poe     o2 5654   1.566   0.675   0.830  0.1352  0.2872 -0.1101
  652poe    c23 5655   1.602   0.788   0.907 -0.2825  0.1283  0.3248
  652poe    c23 5656   1.652   0.883   0.796 -0.5652  0.2293  0.2825
  652poe     o2 5657   1.559   0.871   0.690 -0.5384 -0.0175  0.2857
  652poe    c23 5658   1.568   0.973   0.593  0.4121 -0.5621 -0.2171
  652poe    c23 5659   1.433   0.941   0.526  0.1115 -0.2676  0.2368
  652poe     o2 5660   1.432   0.801   0.505 -0.3344 -0.2421  0.0858
  652poe    c23 5661   1.301   0.755   0.483 -0.1937 -0.2515 -0.7825
  652poe    c23 5662   1.328   0.603   0.490 -0.2265 -0.2226  0.1512
  652poe     o2 5663   1.412   0.569   0.598 -0.1061  0.1310  0.1717
  652poe    c31 5664   1.438   0.431   0.610  0.5800  0.3183  0.9514
  653poe    c31 5665   6.628   1.758   1.159 -0.6577  0.1787  0.0738
  653poe     o2 5666   6.754   1.752   1.223 -0.4970  0.0072 -0.2522
  653poe    c23 5667   6.851   1.760   1.122 -0.1851  0.5242  0.0858
  653poe    c23 5668   7.000   1.758   1.164 -0.2453 -0.3091  0.2695
  653poe     o2 5669   7.029   1.859   1.258  0.2897 -0.1513 -0.0677
  653poe    c23 5670   7.144   1.831   1.334  0.3657  0.0285 -0.1143
  653poe    c23 5671   7.158   1.922   1.458 -0.2775 -0.3622  0.2518
  653poe     o2 5672   7.061   1.934   1.560 -0.0917 -0.0682  0.3953
  653poe    c23 5673   7.094   2.017   1.669  0.0133  0.3613  0.0426
  653poe    c23 5674   6.968   2.037   1.755  0.1439  0.1321  0.2916
  653poe     o2 5675   6.886   1.922   1.756  0.1654  0.1193  0.5463
  653poe    c31 5676   6.758   1.942   1.810 -0.3960 -0.6454 -0.4667
  654poe    c31 5677   2.737   4.031   2.413 -0.5297 -0.4410 -0.0223
  654poe     o2 5678   2.701   3.925   2.327 -0.5511 -0.0423 -0.5092
  654poe    c23 5679   2.585   3.962   2.255 -0.7191  0.5155  0.0341
  654poe    c23 5680   2.545   3.853   2.154  0.0561  0.3938 -0.1517
  654poe     o2 5681   2.668   3.806   2.105  0.1705 -0.0314  0.5186
  654poe    c23 5682   2.640   3.685   2.038  0.1315  0.1977  0.1138
  654poe    c23 5683   2.764   3.597   2.064  0.0548  0.0833  0.0935
  654poe     o2 5684   2.783   3.633   2.199  0.2778 -0.5335  0.2277
  654poe    c23 5685   2.880   3.549   2.259  1.1465  0.1341 -0.2153
  654poe    c23 5686   2.878   3.564   2.413 -0.2964  0.0525 -0.2131
  654poe     o2 5687   2.883   3.703   2.432  0.2064 -0.0077  0.1087
  654poe    c31 5688   2.953   3.731   2.551  0.1880 -0.0796  0.1362
  655poe    c31 5689   5.936   2.622   0.156  0.2505 -0.4723 -0.4565
  655poe     o2 5690   6.014   2.727   0.210  0.1128 -0.2169 -0.7545
  655poe    c23 5691   5.975   2.857   0.169  0.3452  0.0334 -0.1888
  655poe    c23 5692   6.064   2.937   0.266  0.3991  0.0558 -0.2577
  655poe     o2 5693   6.196   2.897   0.235  0.3057 -0.0782 -0.4862
  655poe    c23 5694   6.274   2.956   0.336  0.2114 -0.2404 -0.3176
  655poe    c23 5695   6.391   2.863   0.373  0.1786  0.0924  0.6585
  655poe     o2 5696   6.329   2.737   0.380 -0.1836  0.2669  0.6096
  655poe    c23 5697   6.416   2.631   0.413 -0.0139  0.1423 -0.2271
  655poe    c23 5698   6.322   2.512   0.434  0.6877 -0.3901 -0.0623
  655poe     o2 5699   6.221   2.534   0.339  0.2344 -0.0008  0.4985
  655poe    c31 5700   6.152   2.412   0.317  0.2558  0.1481 -0.4646
  656poe    c31 5701   0.844   0.277   5.626  1.0641  0.6385 -0.6790
  656poe     o2 5702   0.788   0.335   5.510 -0.1181  0.3730 -0.2507
  656poe    c23 5703   0.696   0.249   5.446 -0.0684  0.5946 -0.6196
  656poe    c23 5704   0.614   0.339   5.351 -0.3119  0.0804 -0.8971
  656poe     o2 5705   0.657   0.471   5.375 -0.6895  0.0367  0.1147
  656poe    c23 5706   0.609   0.561   5.277 -0.4468 -0.0862 -0.1198
  656poe    c23 5707   0.672   0.700   5.295  0.2568 -0.4717  0.4923
  656poe     o2 5708   0.809   0.674   5.317  0.4782 -0.1510 -0.4420
  656poe    c23 5709   0.883   0.784   5.365  0.0418  0.0716 -0.2768
  656poe    c23 5710   1.011   0.715   5.415  0.0027 -0.3807 -0.7980
  656poe     o2 5711   0.968   0.603   5.489  0.3375 -0.0609 -0.1215
  656poe    c31 5712   1.071   0.547   5.567 -0.0140 -0.1473  0.2877
  657poe    c31 5713   3.812   0.287   3.368 -0.0073 -0.0843 -0.2193
  657poe     o2 5714   3.871   0.291   3.496  0.1771 -0.3220 -0.2949
  657poe    c23 5715   3.771   0.267   3.592 -0.0856  0.5397 -0.3377
  657poe    c23 5716   3.816   0.263   3.739  0.3382 -0.4896 -0.4866
  657poe     o2 5717   3.919   0.358   3.754  0.0713 -0.3459  0.5642
  657poe    c23 5718   3.987   0.358   3.878  0.1102  0.5488  0.5454
  657poe    c23 5719   4.080   0.481   3.881 -0.0570  0.6984 -0.0625
  657poe     o2 5720   4.157   0.483   3.763 -0.0851 -0.2487 -0.1050
  657poe    c23 5721   4.271   0.563   3.781 -0.1391 -0.1789 -0.0722
  657poe    c23 5722   4.359   0.554   3.655  0.7660  0.0404  0.5399
  657poe     o2 5723   4.416   0.427   3.635  0.4226 -0.1002  0.4465
  657poe    c31 5724   4.539   0.435   3.566  0.3174  0.0126  0.2708
  658poe    c31 5725   6.579   0.941   3.399 -0.5604 -0.3720 -0.0501
  658poe     o2 5726   6.712   0.902   3.374 -0.6075 -0.8072  0.3629
  658poe    c23 5727   6.774   0.846   3.487  0.1103  0.2732  0.5207
  658poe    c23 5728   6.888   0.765   3.424 -0.0042  0.6290 -0.1468
  658poe     o2 5729   6.827   0.697   3.316  0.3951  0.6237 -0.3729
  658poe    c23 5730   6.907   0.603   3.247 -0.6967 -0.3829 -0.3077
  658poe    c23 5731   6.857   0.606   3.102 -0.0168 -0.0674 -0.5420
  658poe     o2 5732   6.842   0.744   3.078  0.5777  0.0983  0.0262
  658poe    c23 5733   6.779   0.752   2.952  0.2946  0.2096  0.1740
  658poe    c23 5734   6.773   0.902   2.917  0.3236  0.0484 -0.5340
  658poe     o2 5735   6.705   0.953   3.029 -0.5305 -0.4034 -0.8359
  658poe    c31 5736   6.659   1.084   3.004 -0.0135  0.0454  0.4718
  659poe    c31 5737   4.185   1.437   6.382 -0.1061  0.0863  0.5363
  659poe     o2 5738   4.270   1.358   6.463  0.3666 -0.1215 -0.1521
  659poe    c23 5739   4.269   1.224   6.418  0.6396  0.0403 -0.6508
  659poe    c23 5740   4.361   1.140   6.508 -0.1545 -0.2371 -0.0927
  659poe     o2 5741   4.329   1.172   6.642 -0.0460 -0.5203  0.0019
  659poe    c23 5742   4.402   1.120   6.751  0.1236  0.0781  0.1787
  659poe    c23 5743   4.382   1.228   6.858  0.2229  0.4118 -0.1372
  659poe     o2 5744   4.374   1.359   6.807  0.5988  0.5038  0.0387
  659poe    c23 5745   4.354   1.462   6.902 -0.6721  0.1768  0.1406
  659poe    c23 5746   4.371   1.589   6.817  0.3539 -0.2693 -0.3306
  659poe     o2 5747   4.320   1.571   6.687  0.3316 -0.0989 -0.3459
  659poe    c31 5748   4.318   1.686   6.606  0.2260 -0.2981 -0.6311
  660poe    c31 5749   3.484   0.045   1.238  0.6452  0.8264 -0.2615
  660poe     o2 5750   3.411   0.156   1.192  0.0672  0.5302 -0.0818
  660poe    c23 5751   3.289   0.170   1.261  0.2560  0.2721  0.3020
  660poe    c23 5752   3.241   0.307   1.211 -0.4383  0.0797  0.4421
  660poe     o2 5753   3.317   0.421   1.245 -0.2135 -0.0007  0.2119
  660poe    c23 5754   3.277   0.539   1.180 -0.0471  0.1262  0.3391
  660poe    c23 5755   3.388   0.641   1.211 -0.2435  0.5306 -0.2665
  660poe     o2 5756   3.428   0.631   1.346 -0.1877 -0.6571 -0.3577
  660poe    c23 5757   3.517   0.733   1.386 -0.6331 -0.3373 -0.1780
  660poe    c23 5758   3.545   0.726   1.537  0.2471  0.7331 -0.2828
  660poe     o2 5759   3.573   0.589   1.550  0.1706  0.7784  0.4011
  660poe    c31 5760   3.611   0.557   1.682 -0.0368  0.7626  0.4573
  661poe    c31 5761   0.718   6.057   6.063 -0.1239 -0.3326  0.2557
  661poe     o2 5762   0.631   5.951   6.030 -0.2061 -0.1482 -0.1229
  661poe    c23 5763   0.625   5.845   6.123  0.4974 -0.2779 -0.2186
  661poe    c23 5764   0.591   5.715   6.048  0.3509 -0.4248  0.1023
  661poe     o2 5765   0.466   5.741   5.987  0.1153  0.0268  0.7574
  661poe    c23 5766   0.433   5.642   5.892  0.4528  0.6366 -0.0042
  661poe    c23 5767   0.352   5.708   5.778 -0.1493  0.0037  0.0502
  661poe     o2 5768   0.436   5.816   5.744  0.4375 -0.5212 -0.1947
  661poe    c23 5769   0.407   5.879   5.622 -0.0988 -0.1602  0.1166
  661poe    c23 5770   0.511   5.992   5.621 -0.6731  0.3742  0.3248
  661poe     o2 5771   0.558   6.027   5.750  0.6371 -0.3325  0.0546
  661poe    c31 5772   0.630   6.146   5.727  0.6347 -0.3937 -0.2726
  662poe    c31 5773   6.447   4.241   5.993 -0.4723 -0.2914 -0.1505
  662poe     o2 5774   6.323   4.302   6.021 -0.2974  0.0557 -0.1283
  662poe    c23 5775   6.310   4.343   6.155 -0.4311  0.3507 -0.2321
  662poe    c23 5776   6.167   4.322   6.207 -0.1255 -0.0795  0.4342
  662poe     o2 5777   6.085   4.357   6.098 -0.1313 -0.5296  0.2925
  662poe    c23 5778   5.948   4.349   6.132 -0.0939  0.1190  0.6013
  662poe    c23 5779   5.876   4.423   6.017  0.1126  0.0770  0.4449
  662poe     o2 5780   5.939   4.407   5.892 -0.6112  0.0553  0.0779
  662poe    c23 5781   5.965   4.533   5.833 -0.1084  0.1198  0.4331
  662poe    c23 5782   6.091   4.515   5.747 -0.4013 -1.0416  0.2367
  662poe     o2 5783   6.190   4.443   5.818  0.4218  0.1788  0.3511
  662poe    c31 5784   6.319   4.496   5.797  0.2771  0.4964  0.2508
  663poe    c31 5785   4.609   4.636   0.829  0.1778 -0.6358  0.0382
  663poe     o2 5786   4.471   4.609   0.834  0.1222 -0.3875 -0.1740
  663poe    c23 5787   4.407   4.723   0.781  0.3976 -0.5501 -0.8727
  663poe    c23 5788   4.256   4.696   0.763  0.3042 -0.4693 -0.2166
  663poe     o2 5789   4.248   4.563   0.719 -0.5023 -0.3217 -0.5222
  663poe    c23 5790   4.119   4.506   0.728 -0.6294 -0.0954 -0.8900
  663poe    c23 5791   4.126   4.358   0.687  0.0527 -0.2135 -0.3607
  663poe     o2 5792   4.241   4.304   0.750  0.1310  0.2049 -0.1435
  663poe    c23 5793   4.250   4.166   0.726  0.2482  0.2317 -0.2553
  663poe    c23 5794   4.321   4.126   0.595  0.2441  0.0907 -0.2153
  663poe     o2 5795   4.461   4.142   0.602  0.2571 -0.2323  0.3890
  663poe    c31 5796   4.527   4.052   0.515 -0.5402 -0.1752 -0.2974
  664poe    c31 5797   1.072   2.711   4.150 -0.0231  0.1821  0.1104
  664poe     o2 5798   1.008   2.592   4.108  0.5408 -0.1744  0.2399
  664poe    c23 5799   0.888   2.641   4.053  0.6048  0.0386  0.2884
  664poe    c23 5800   0.830   2.535   3.958  0.4409  0.2240  0.1797
  664poe     o2 5801   0.876   2.415   4.016 -0.4057 -0.1611  0.0665
  664poe    c23 5802   0.874   2.307   3.926  0.0289  0.0311 -0.1733
  664poe    c23 5803   0.921   2.181   4.002 -0.0783 -0.0504 -0.2421
  664poe     o2 5804   1.011   2.243   4.091  0.0492 -0.4854 -0.0637
  664poe    c23 5805   1.059   2.146   4.181  0.0966 -0.1286  0.2977
  664poe    c23 5806   1.180   2.216   4.245 -0.2058  0.0663  0.6605
  664poe     o2 5807   1.138   2.348   4.272  0.2701  0.3363  0.1056
  664poe    c31 5808   1.230   2.412   4.357  0.5263 -0.2535  0.2794
  665poe    c31 5809   3.173   6.531   1.472  0.2305  0.4667  0.4164
  665poe     o2 5810   3.152   6.558   1.609 -0.5016  0.3830  0.3217
  665poe    c23 5811   3.195   6.457   1.697 -0.3507  0.1299 -0.0437
  665poe    c23 5812   3.216   6.514   1.838 -0.7416  0.0314  0.0557
  665poe     o2 5813   3.092   6.552   1.895 -0.9609 -0.5844 -0.0095
  665poe    c23 5814   3.103   6.559   2.036 -0.7385 -0.6019 -0.0246
  665poe    c23 5815   2.972   6.615   2.096 -0.5812 -0.2773  0.0192
  665poe     o2 5816   2.938   6.732   2.025 -0.3506 -0.0700  0.2489
  665poe    c23 5817   2.810   6.780   2.059 -0.6034 -0.7106  0.2137
  665poe    c23 5818   2.773   6.905   1.977  0.4242 -0.6541 -0.1692
  665poe     o2 5819   2.803   6.858   1.847  0.2130  0.3075 -0.5715
  665poe    c31 5820   2.746   6.944   1.751  0.2686  0.4608 -0.4687
  666poe    c31 5821   1.533   5.183   4.159 -0.5329  0.4747 -0.4700
  666poe     o2 5822   1.415   5.153   4.230  0.0104 -0.0311  0.2271
  666poe    c23 5823   1.433   5.062   4.337 -0.4284 -1.2580 -0.7249
  666poe    c23 5824   1.299   5.059   4.413 -0.1400  0.5638 -0.1052
  666poe     o2 5825   1.205   5.022   4.315  0.4449  0.1576 -0.5165
  666poe    c23 5826   1.085   4.968   4.364  0.6129 -0.0173 -0.2979
  666poe    c23 5827   0.993   4.907   4.256  0.2183 -0.1747  0.1232
  666poe     o2 5828   0.994   4.992   4.144  0.4826 -0.6745 -0.2584
  666poe    c23 5829   0.899   4.960   4.045  0.1200  0.3254 -0.2528
  666poe    c23 5830   0.923   5.056   3.927 -0.4596  0.3837 -0.3271
  666poe     o2 5831   1.056   5.067   3.881 -0.2873  0.1275  0.0977
  666poe    c31 5832   1.089   5.183   3.807  0.5279  0.1617  0.5054
  667poe    c31 5833   2.472   2.961   2.674  0.1412  0.5352  0.6313
  667poe     o2 5834   2.591   2.886   2.687  0.1686  0.4333 -0.1544
  667poe    c23 5835   2.545   2.754   2.706  0.1933  0.4074 -0.2682
  667poe    c23 5836   2.670   2.666   2.687 -0.3554 -0.5295  0.3786
  667poe     o2 5837   2.739   2.709   2.573 -1.0917 -0.2453  0.0308
  667poe    c23 5838   2.836   2.614   2.533 -0.4835  0.5376 -0.3758
  667poe    c23 5839   2.926   2.710   2.452 -0.1269 -0.1333 -0.7762
  667poe     o2 5840   2.928   2.827   2.530 -0.0944 -0.7889  0.2286
  667poe    c23 5841   3.017   2.829   2.639  0.1626  0.4481  0.0104
  667poe    c23 5842   2.983   2.964   2.705  0.2178  0.5851 -0.2427
  667poe     o2 5843   2.843   2.968   2.719  0.1945  0.5140 -0.4409
  667poe    c31 5844   2.817   3.090   2.785  0.1871  0.4010 -0.2342
  668poe    c31 5845   6.148   0.154   4.972 -0.2472  0.4368 -0.1141
  668poe     o2 5846   6.254   0.197   5.055  0.0935  0.2767 -0.4623
  668poe    c23 5847   6.310   0.320   5.017  0.4253  0.2871  0.0495
  668poe    c23 5848   6.447   0.328   5.086  0.2315  0.2914  0.4378
  668poe     o2 5849   6.490   0.199   5.122 -0.3780  0.0772  0.3924
  668poe    c23 5850   6.597   0.209   5.214 -0.5863 -0.1133  0.6599
  668poe    c23 5851   6.635   0.066   5.258  0.1254 -0.1832 -0.1550
  668poe     o2 5852   6.523  -0.015   5.282  0.4211 -0.3920  0.5452
  668poe    c23 5853   6.562  -0.151   5.288  0.1434 -0.4746  0.4910
  668poe    c23 5854   6.627  -0.221   5.167  0.3783  0.0220  0.3272
  668poe     o2 5855   6.537  -0.257   5.065  0.6015 -0.0939  0.1690
  668poe    c31 5856   6.592  -0.352   4.977  0.0501 -0.3673  0.1151
  669poe    c31 5857   2.838   1.963   1.491 -0.2064  0.3548 -0.0582
  669poe     o2 5858   2.731   1.881   1.447  0.0681 -0.0190 -0.0335
  669poe    c23 5859   2.604   1.932   1.481  0.0536  0.3604 -0.6242
  669poe    c23 5860   2.503   1.843   1.406 -0.1181  0.2430 -0.2573
  669poe     o2 5861   2.556   1.816   1.278 -0.0743 -0.8110 -0.0277
  669poe    c23 5862   2.474   1.719   1.217 -0.6519 -0.2849 -0.1027
  669poe    c23 5863   2.532   1.718   1.074 -0.0007  0.1177  0.1513
  669poe     o2 5864   2.671   1.699   1.087  0.0910  0.4108 -0.3785
  669poe    c23 5865   2.729   1.805   1.014  0.1747  0.7800  0.2193
  669poe    c23 5866   2.880   1.794   1.045  0.1500  0.3005  0.1655
  669poe     o2 5867   2.893   1.809   1.184 -0.0829 -0.4253  0.2721
  669poe    c31 5868   3.027   1.789   1.222  0.0763 -0.0429 -0.0800
  670poe    c31 5869   4.684   5.503   4.263  0.1304 -0.0263 -0.1121
  670poe     o2 5870   4.606   5.405   4.199 -0.0593 -0.2949  0.5333
  670poe    c23 5871   4.674   5.282   4.191  0.0330 -0.1950 -0.2105
  670poe    c23 5872   4.588   5.165   4.138 -0.4998  0.2414 -0.3131
  670poe     o2 5873   4.526   5.199   4.016  0.0374 -0.0830 -0.6775
  670poe    c23 5874   4.422   5.107   3.990  0.2266 -0.4130 -0.2844
  670poe    c23 5875   4.315   5.177   3.905  0.2083 -0.2837 -0.1564
  670poe     o2 5876   4.377   5.255   3.805 -0.0214  0.4628  0.2743
  670poe    c23 5877   4.298   5.310   3.702 -0.3628  0.4665  0.5380
  670poe    c23 5878   4.387   5.408   3.623 -0.1733  0.5097  0.8042
  670poe     o2 5879   4.482   5.466   3.710  0.7494  0.0567  0.1200
  670poe    c31 5880   4.500   5.604   3.690  0.5749  0.0880  0.1791
  671poe    c31 5881   3.208   0.707   4.566 -0.1008  0.4036  0.9500
  671poe     o2 5882   3.157   0.814   4.643 -0.4657  0.7984  0.1804
  671poe    c23 5883   3.192   0.941   4.592  0.8208  0.3139 -0.1859
  671poe    c23 5884   3.205   1.037   4.711  0.1192  0.8454 -0.5359
  671poe     o2 5885   3.079   1.023   4.775  0.0752 -0.1654 -0.8327
  671poe    c23 5886   3.077   1.084   4.902  0.2267 -0.4841 -0.6761
  671poe    c23 5887   2.987   1.009   5.002  0.2305  0.1962 -0.1573
  671poe     o2 5888   2.994   0.874   4.964  0.0670  0.0508  0.3210
  671poe    c23 5889   2.932   0.780   5.049 -0.5954 -0.1262 -0.3473
  671poe    c23 5890   2.979   0.641   5.000  0.0164  0.0888 -0.3832
  671poe     o2 5891   2.999   0.645   4.860  0.4662  0.2757 -0.3153
  671poe    c31 5892   3.002   0.516   4.805  0.1751 -0.0435  0.3985
  672poe    c31 5893   0.410   1.006   5.139 -0.2534  0.3600  0.2437
  672poe     o2 5894   0.351   0.902   5.213 -0.7075  0.4975  0.0781
  672poe    c23 5895   0.265   0.825   5.132 -0.1310  0.2901 -0.3491
  672poe    c23 5896   0.218   0.698   5.205 -0.1232  0.3829 -0.1820
  672poe     o2 5897   0.146   0.725   5.324 -0.1027  0.3957 -0.1722
  672poe    c23 5898   0.186   0.622   5.412 -0.2773  0.2379 -0.2770
  672poe    c23 5899   0.111   0.632   5.546  0.3988  0.3349  0.0986
  672poe     o2 5900   0.112   0.762   5.600  0.1473  0.3319  0.1098
  672poe    c23 5901   0.017   0.776   5.703  0.2843  0.2415  0.2484
  672poe    c23 5902   0.042   0.918   5.758 -0.2698  0.1787  0.6799
  672poe     o2 5903   0.014   1.004   5.651 -0.5869 -0.1864  0.4666
  672poe    c31 5904  -0.057   1.114   5.703 -0.1561  0.4069 -0.1752
  673poe    c31 5905   1.710   2.063   3.181 -0.3792  0.2818  0.0813
  673poe     o2 5906   1.817   2.131   3.120 -0.6323  0.1774 -0.4770
  673poe    c23 5907   1.933   2.131   3.199 -0.4430 -0.2319 -0.7514
  673poe    c23 5908   2.009   2.265   3.195  0.0021 -0.4532  0.1023
  673poe     o2 5909   1.987   2.316   3.066  0.6242  0.0682  0.1949
  673poe    c23 5910   2.042   2.445   3.056  0.1089  0.2807  0.0724
  673poe    c23 5911   2.048   2.475   2.905  0.2828  0.3952  0.1018
  673poe     o2 5912   1.919   2.437   2.861  0.3797  0.4859 -0.2655
  673poe    c23 5913   1.916   2.425   2.721  0.0679  0.7801 -0.2840
  673poe    c23 5914   1.779   2.354   2.710  0.8202 -0.6788 -0.5667
  673poe     o2 5915   1.762   2.245   2.797 -0.3536  0.2914  0.4491
  673poe    c31 5916   1.741   2.125   2.728  0.6310  0.1138  0.4501
  674poe    c31 5917   5.243   6.078   3.508  0.1599  0.2138 -0.5615
  674poe     o2 5918   5.257   6.074   3.649 -0.3199  0.1845 -0.5114
  674poe    c23 5919   5.356   5.983   3.691 -0.7147  0.0994  0.2495
  674poe    c23 5920   5.372   6.017   3.840  0.4922  0.2330  0.1048
  674poe     o2 5921   5.236   6.034   3.876  0.2500 -0.2694 -0.5483
  674poe    c23 5922   5.216   6.074   4.010 -0.1083  0.1567 -0.7261
  674poe    c23 5923   5.066   6.046   4.026  0.0285 -0.2727 -0.1541
  674poe     o2 5924   5.013   6.097   3.905  0.1553  0.2072 -0.0081
  674poe    c23 5925   4.880   6.053   3.889 -0.1821  1.0593  0.4191
  674poe    c23 5926   4.837   6.112   3.754 -0.3070  0.2456  0.1010
  674poe     o2 5927   4.942   6.096   3.661 -0.3199 -0.0162  0.1321
  674poe    c31 5928   4.889   6.119   3.533 -0.4122 -0.3565  0.1080
  675poe    c31 5929   0.006   4.685   1.833 -0.4774  0.6271  0.0981
  675poe     o2 5930  -0.125   4.657   1.878 -0.2530 -0.5346  0.0413
  675poe    c23 5931  -0.243   4.708   1.820  0.0378  0.0860 -0.0092
  675poe    c23 5932  -0.374   4.633   1.849 -0.0743  0.0378 -0.6259
  675poe     o2 5933  -0.412   4.627   1.985  0.5429 -0.1105 -0.4596
  675poe    c23 5934  -0.551   4.645   1.991  0.5503 -0.2411  0.1909
  675poe    c23 5935  -0.585   4.713   2.125 -0.0638 -0.9550  0.4052
  675poe     o2 5936  -0.524   4.663   2.242  0.4127 -0.1169  0.5197
  675poe    c23 5937  -0.528   4.753   2.351 -0.0870 -0.0306  0.4313
  675poe    c23 5938  -0.433   4.694   2.456  0.3266  0.2808  0.2311
  675poe     o2 5939  -0.323   4.645   2.382  0.0904  0.1768 -0.0521
  675poe    c31 5940  -0.243   4.577   2.476 -0.1631  0.5198  0.4170
  676poe    c31 5941   4.982   5.236   3.320 -0.0294 -0.3276 -0.0830
  676poe     o2 5942   4.849   5.194   3.304 -0.2773  0.1512  0.6907
  676poe    c23 5943   4.763   5.306   3.294 -0.5823 -0.0995  0.4841
  676poe    c23 5944   4.618   5.272   3.256 -0.4255 -0.2395  0.0062
  676poe     o2 5945   4.590   5.166   3.344 -0.4923  0.0545  0.3388
  676poe    c23 5946   4.455   5.129   3.325 -0.5984  0.7064 -0.2328
  676poe    c23 5947   4.431   5.021   3.432 -0.0051 -0.0594 -0.8604
  676poe     o2 5948   4.551   4.947   3.447 -0.0305  0.0972  0.2339
  676poe    c23 5949   4.541   4.833   3.528  0.2239  0.0559  0.2062
  676poe    c23 5950   4.564   4.842   3.680 -0.5938 -0.3719  0.3641
  676poe     o2 5951   4.686   4.913   3.691 -0.8114  0.0049  0.3369
  676poe    c31 5952   4.728   4.882   3.822  0.5611  0.0537 -0.0771
  677poe    c31 5953   1.018   3.422   0.605 -0.1147 -0.2083 -0.2223
  677poe     o2 5954   0.879   3.446   0.597 -0.0523  0.0913 -0.4426
  677poe    c23 5955   0.833   3.373   0.486 -0.5103 -0.7081  0.2576
  677poe    c23 5956   0.691   3.427   0.458 -0.0382  0.4990  0.1465
  677poe     o2 5957   0.641   3.435   0.589  0.3193 -0.4950  0.3458
  677poe    c23 5958   0.519   3.505   0.591  0.4969 -0.1769  0.1168
  677poe    c23 5959   0.494   3.540   0.739  0.3380  0.3526 -0.0356
  677poe     o2 5960   0.618   3.574   0.797  0.5137 -0.2432 -0.0542
  677poe    c23 5961   0.633   3.552   0.936  0.3424 -0.3621 -0.0538
  677poe    c23 5962   0.666   3.405   0.966  0.0568 -0.5052 -0.4242
  677poe     o2 5963   0.762   3.371   0.869  0.2362  0.0100 -0.4281
  677poe    c31 5964   0.811   3.239   0.874 -0.3632 -0.1750  1.1881
  678poe    c31 5965   0.933   5.105   6.599  0.0726  0.7724 -0.0565
  678poe     o2 5966   0.836   5.117   6.497 -0.3799 -0.3303  0.2325
  678poe    c23 5967   0.840   4.999   6.420 -0.1283 -0.2063  0.0546
  678poe    c23 5968   0.769   5.048   6.292  0.1794  0.6558  0.2130
  678poe     o2 5969   0.634   5.083   6.313 -0.1373 -0.3332 -0.1558
  678poe    c23 5970   0.572   5.132   6.196  0.2754  0.8539  0.1136
  678poe    c23 5971   0.433   5.191   6.228 -0.0685  0.1044  0.0093
  678poe     o2 5972   0.444   5.264   6.347  0.2253  0.1871 -0.0673
  678poe    c23 5973   0.322   5.328   6.379 -0.3844 -0.7478 -0.4844
  678poe    c23 5974   0.261   5.432   6.284  0.2966 -0.0381 -0.1640
  678poe     o2 5975   0.190   5.376   6.175 -0.2241  0.0700  0.1168
  678poe    c31 5976   0.123   5.471   6.094 -0.1286 -0.3624 -0.4784
  679poe    c31 5977   1.459   0.847   1.967  0.3310  0.1256  0.7476
  679poe     o2 5978   1.554   0.945   1.933 -0.0478  0.3386  0.2954
  679poe    c23 5979   1.562   1.047   2.030  0.6452  0.2064  0.3791
  679poe    c23 5980   1.673   1.146   1.991  0.7759 -0.0394  0.1274
  679poe     o2 5981   1.642   1.228   1.881  0.3124  0.1655  0.4098
  679poe    c23 5982   1.742   1.326   1.861 -0.0708  0.5792  0.5020
  679poe    c23 5983   1.701   1.424   1.750 -0.6926 -0.1231  0.1006
  679poe     o2 5984   1.645   1.344   1.649  0.6319 -0.4381 -0.3976
  679poe    c23 5985   1.627   1.407   1.524 -0.3832  0.2844  0.1042
  679poe    c23 5986   1.516   1.325   1.454 -0.2702  0.1651  0.0637
  679poe     o2 5987   1.502   1.197   1.512 -0.1509 -0.2264 -0.7670
  679poe    c31 5988   1.417   1.110   1.442 -0.0463 -0.5354 -0.5081
  680poe    c31 5989   4.730   3.373   2.525 -0.5745  0.0672  0.4761
  680poe     o2 5990   4.636   3.451   2.455  0.0679  0.3364 -0.0960
  680poe    c23 5991   4.534   3.470   2.550 -0.0279  0.0570 -0.1421
  680poe    c23 5992   4.435   3.569   2.487 -0.2784 -0.1932 -0.1476
  680poe     o2 5993   4.446   3.561   2.346  0.0519  0.2757 -0.1522
  680poe    c23 5994   4.351   3.637   2.276 -0.3316 -0.0743 -0.0189
  680poe    c23 5995   4.384   3.603   2.129 -0.3577 -1.2487  0.2445
  680poe     o2 5996   4.524   3.602   2.110 -0.3607  0.3658  0.0452
  680poe    c23 5997   4.607   3.714   2.130 -0.5465  0.4118  0.5905
  680poe    c23 5998   4.748   3.651   2.132 -0.6678  0.0791 -0.5053
  680poe     o2 5999   4.770   3.561   2.238 -0.2064  0.6106 -0.1396
  680poe    c31 6000   4.898   3.599   2.283 -0.2716  0.4494  0.1843
  681poe    c31 6001   2.655   4.231   3.866 -0.0794 -0.4790 -0.1834
  681poe     o2 6002   2.732   4.287   3.762 -0.1873 -0.1940 -0.1107
  681poe    c23 6003   2.836   4.361   3.822 -0.5190  0.2819 -0.1155
  681poe    c23 6004   2.933   4.425   3.720  0.1009 -0.0757  0.2431
  681poe     o2 6005   2.877   4.513   3.626  0.1483 -0.4823 -0.1707
  681poe    c23 6006   2.981   4.601   3.589 -0.3246  0.6322  1.0640
  681poe    c23 6007   2.922   4.734   3.539 -0.3177  0.2635  0.0595
  681poe     o2 6008   2.828   4.688   3.445 -0.3636  0.1032  0.1850
  681poe    c23 6009   2.758   4.793   3.381  0.0022  0.1034 -0.2209
  681poe    c23 6010   2.628   4.725   3.335  0.0138 -0.1674  0.1382
  681poe     o2 6011   2.576   4.641   3.436 -0.1079  0.3318  0.4918
  681poe    c31 6012   2.449   4.590   3.400  0.2857  0.0338 -0.5133
  682poe    c31 6013   0.501   1.934   4.043  0.6183  0.3574  0.1065
  682poe     o2 6014   0.465   1.933   3.906 -0.2132 -0.1841  0.3226
  682poe    c23 6015   0.435   2.070   3.895 -0.5659 -0.2825  0.0574
  682poe    c23 6016   0.398   2.098   3.748  0.4826  0.5295 -0.0621
  682poe     o2 6017   0.473   2.010   3.668 -0.3240 -0.8150  0.6128
  682poe    c23 6018   0.407   1.952   3.558 -0.0872  0.4877 -0.2468
  682poe    c23 6019   0.366   1.812   3.609  0.3189  0.1941 -0.7143
  682poe     o2 6020   0.480   1.754   3.667 -0.1129  0.3467  0.3055
  682poe    c23 6021   0.480   1.617   3.702  0.1108  0.2697  0.0083
  682poe    c23 6022   0.614   1.584   3.772  0.0017 -0.2084 -0.0025
  682poe     o2 6023   0.645   1.695   3.852 -0.8255 -0.2648  0.4121
  682poe    c31 6024   0.728   1.640   3.953  0.1887  0.5032  0.0259
  683poe    c31 6025   2.906   1.226   6.701  0.4667 -0.0494 -0.1261
  683poe     o2 6026   2.881   1.090   6.671  0.4840 -0.1839  0.4614
  683poe    c23 6027   2.781   1.035   6.754  0.3592 -0.3913  0.1766
  683poe    c23 6028   2.750   0.886   6.733 -0.1235 -0.2428 -0.1730
  683poe     o2 6029   2.761   0.877   6.593  1.0451 -0.6454 -0.0620
  683poe    c23 6030   2.736   0.753   6.533  0.6719 -0.4945 -0.2204
  683poe    c23 6031   2.738   0.779   6.381  0.2529  0.1241 -0.1236
  683poe     o2 6032   2.846   0.864   6.349 -0.0376  0.3379 -0.5382
  683poe    c23 6033   2.878   0.842   6.213  0.1306 -0.0216 -0.4419
  683poe    c23 6034   2.985   0.944   6.170  0.4387 -0.1201  0.0762
  683poe     o2 6035   2.945   1.079   6.156  0.0961 -0.2053  0.2162
  683poe    c31 6036   2.894   1.119   6.031  0.2371  0.5380  0.3966
  684poe    c31 6037   1.749   0.302   3.079 -0.6499  0.0013 -0.3242
  684poe     o2 6038   1.829   0.186   3.078 -0.7854 -0.0942 -0.0771
  684poe    c23 6039   1.962   0.228   3.094 -0.6995 -0.6349  0.7123
  684poe    c23 6040   2.061   0.113   3.122  0.1884  0.0415  0.4013
  684poe     o2 6041   2.002   0.032   3.221 -0.4332  0.1650  0.1391
  684poe    c23 6042   2.050  -0.100   3.230 -0.2717  0.2181  0.0607
  684poe    c23 6043   1.934  -0.188   3.280 -0.4378  0.4336  0.0571
  684poe     o2 6044   1.830  -0.162   3.188  0.0382 -0.6754 -0.8220
  684poe    c23 6045   1.714  -0.240   3.210 -0.1176 -0.3630 -0.5282
  684poe    c23 6046   1.597  -0.166   3.142 -0.1608 -0.1640 -0.2375
  684poe     o2 6047   1.608  -0.028   3.172  0.1809 -0.1737 -0.3172
  684poe    c31 6048   1.474   0.014   3.165  0.1883 -0.0554  0.2108
  685poe    c31 6049   5.569   6.576   0.111  0.2417  0.3595  0.7638
  685poe     o2 6050   5.673   6.549   0.020 -0.2891 -0.0317  0.2658
  685poe    c23 6051   5.609   6.476  -0.082  0.0913  0.6636 -0.4919
  685poe    c23 6052   5.701   6.419  -0.191  0.5255 -0.0623  0.2397
  685poe     o2 6053   5.758   6.531  -0.256 -0.0223 -0.0624 -0.2448
  685poe    c23 6054   5.866   6.497  -0.341 -0.1920 -0.0350 -0.4733
  685poe    c23 6055   5.914   6.625  -0.412  0.2703 -0.1749 -0.4116
  685poe     o2 6056   5.997   6.694  -0.322  0.2325  0.2175 -0.6769
  685poe    c23 6057   6.061   6.806  -0.380  0.2396  0.4250 -0.2703
  685poe    c23 6058   6.162   6.867  -0.281 -0.3550  0.2271  0.4711
  685poe     o2 6059   6.083   6.872  -0.164 -0.3973 -0.1109  0.4567
  685poe    c31 6060   6.126   6.975  -0.078 -0.3696  0.1550  0.1288
  686poe    c31 6061   2.114   3.217   2.018 -0.0325  0.1222  0.2632
  686poe     o2 6062   2.106   3.244   2.156 -0.5828  0.0943  0.2383
  686poe    c23 6063   2.149   3.126   2.219 -0.5159  0.0662  0.1416
  686poe    c23 6064   2.078   3.114   2.355 -0.4340 -0.0672  0.1732
  686poe     o2 6065   2.071   3.240   2.418 -0.6659 -0.0400  0.0931
  686poe    c23 6066   1.992   3.248   2.535  0.3458 -0.0521  0.7839
  686poe    c23 6067   1.982   3.400   2.558 -0.1530  0.0833 -0.3090
  686poe     o2 6068   1.991   3.463   2.432 -0.4318 -0.2387 -0.4924
  686poe    c23 6069   2.060   3.586   2.442  0.1432 -0.5664 -0.3595
  686poe    c23 6070   2.163   3.604   2.329  0.1045  0.8358 -0.1865
  686poe     o2 6071   2.133   3.526   2.215  0.0319  0.3361  0.1722
  686poe    c31 6072   2.184   3.582   2.096 -0.4181 -0.1151 -0.2359
  687poe    c31 6073   4.065   3.656   0.466 -0.0698 -0.5238 -0.0930
  687poe     o2 6074   4.191   3.599   0.436 -0.0367 -0.8149  0.5770
  687poe    c23 6075   4.294   3.662   0.508  0.0552  0.2837 -0.4926
  687poe    c23 6076   4.409   3.572   0.556  0.0290  0.5125  0.0051
  687poe     o2 6077   4.360   3.457   0.620 -0.4141  0.5488 -0.2670
  687poe    c23 6078   4.423   3.425   0.742  0.2503  0.1653 -0.7011
  687poe    c23 6079   4.363   3.297   0.803  0.7279  0.0087 -0.5604
  687poe     o2 6080   4.377   3.185   0.719  0.4242 -0.2187 -0.3122
  687poe    c23 6081   4.370   3.060   0.785 -0.0325  0.0650  0.1787
  687poe    c23 6082   4.377   2.960   0.668 -0.4322 -0.5159  0.6473
  687poe     o2 6083   4.295   3.011   0.566  0.0332 -0.2571  0.3958
  687poe    c31 6084   4.258   2.903   0.482  0.4624 -0.7043  0.7800
  688poe    c31 6085   3.856   0.007   1.956 -0.4076  0.2771  0.1984
  688poe     o2 6086   3.873  -0.098   2.048 -0.0765 -0.2135 -0.4178
  688poe    c23 6087   4.006  -0.145   2.040 -0.0310 -0.1480 -0.0877
  688poe    c23 6088   4.019  -0.295   2.070  0.1753 -0.0570  0.2775
  688poe     o2 6089   3.916  -0.314   2.165  0.1169 -0.1917  0.1882
  688poe    c23 6090   3.888  -0.448   2.198  0.0756 -0.1937  0.1438
  688poe    c23 6091   3.768  -0.446   2.294 -0.2194 -0.1693 -0.2216
  688poe     o2 6092   3.682  -0.360   2.222 -0.0146  0.2751  0.0559
  688poe    c23 6093   3.558  -0.328   2.280 -0.0999  0.3114 -0.1470
  688poe    c23 6094   3.494  -0.244   2.167 -0.2001  0.0415 -0.2908
  688poe     o2 6095   3.593  -0.154   2.125  0.0448 -0.2072 -0.2529
  688poe    c31 6096   3.535  -0.047   2.053 -0.0083 -0.0188  0.0680
  689poe    c31 6097   2.915   5.008   1.018  0.5003 -0.4437  0.1987
  689poe     o2 6098   2.818   4.909   1.047  0.0539 -0.1840 -0.3845
  689poe    c23 6099   2.885   4.785   1.049  0.2682 -0.0624  0.0149
  689poe    c23 6100   2.772   4.682   1.062  0.3858 -0.1536  0.3318
  689poe     o2 6101   2.684   4.697   1.171 -0.2735 -0.4503 -0.1458
  689poe    c23 6102   2.595   4.588   1.174 -0.6315 -0.1590 -0.1948
  689poe    c23 6103   2.507   4.600   1.300 -0.1283  0.0027  0.1415
  689poe     o2 6104   2.426   4.715   1.307  0.0586  0.1108  0.5336
  689poe    c23 6105   2.382   4.744   1.438  0.7496  0.4344  0.7030
  689poe    c23 6106   2.286   4.865   1.443 -0.0284 -0.1465  0.1005
  689poe     o2 6107   2.346   4.959   1.357 -0.2699  0.1825  0.2880
  689poe    c31 6108   2.266   5.075   1.349 -0.1854  0.2109 -0.2113
  690poe    c31 6109   2.061   1.936   0.075 -1.0697  0.1465  0.1891
  690poe     o2 6110   2.029   1.966  -0.060  0.0810 -0.0047 -0.1304
  690poe    c23 6111   1.913   2.046  -0.054  0.1278  0.0372  0.2926
  690poe    c23 6112   1.855   2.084  -0.192  0.0149 -0.6576  0.1479
  690poe     o2 6113   1.954   2.138  -0.276 -0.1432  0.0287  0.4004
  690poe    c23 6114   1.914   2.109  -0.407  0.0734  0.1484  0.3068
  690poe    c23 6115   2.024   2.157  -0.504 -0.0823  0.0234  0.0662
  690poe     o2 6116   2.133   2.069  -0.515  0.1578  0.3848 -0.4763
  690poe    c23 6117   2.220   2.093  -0.623  0.3211 -0.0057 -0.4314
  690poe    c23 6118   2.338   1.999  -0.592  0.2967  0.1071  0.0034
  690poe     o2 6119   2.287   1.873  -0.554 -0.2673  0.3332 -0.0041
  690poe    c31 6120   2.403   1.794  -0.554 -0.4416  0.0765 -0.3368
  691poe    c31 6121   5.034   5.665   1.170  0.1056 -0.3101 -0.4003
  691poe     o2 6122   5.025   5.579   1.059 -0.6368  0.0697 -0.6443
  691poe    c23 6123   5.082   5.641   0.945 -0.4966  0.3933 -0.3985
  691poe    c23 6124   5.052   5.557   0.819 -0.0294  0.4394 -0.5398
  691poe     o2 6125   5.119   5.433   0.825 -0.0184  0.4743  0.1572
  691poe    c23 6126   5.086   5.327   0.738  0.1620  0.2957  0.3080
  691poe    c23 6127   5.151   5.206   0.809 -0.1316  0.0465  0.1539
  691poe     o2 6128   5.121   5.217   0.947 -0.6402 -0.3581  0.0779
  691poe    c23 6129   5.219   5.163   1.032 -0.3264 -0.0428 -0.0825
  691poe    c23 6130   5.165   5.177   1.175 -0.1028  0.4299 -0.0421
  691poe     o2 6131   5.118   5.310   1.181 -0.4715  0.3199 -0.4533
  691poe    c31 6132   5.115   5.359   1.313 -0.1820 -0.5638 -0.1075
  692poe    c31 6133   3.379   2.682   0.802  0.0074 -0.4554  0.7461
  692poe     o2 6134   3.314   2.806   0.818  0.0012 -0.3988  0.2989
  692poe    c23 6135   3.175   2.784   0.823 -0.2065  0.7287 -0.0729
  692poe    c23 6136   3.096   2.916   0.829 -0.1535  0.7684 -0.2392
  692poe     o2 6137   3.030   2.915   0.704  0.0262 -0.4147 -0.3385
  692poe    c23 6138   2.988   3.046   0.675 -0.4047 -0.4908 -0.0593
  692poe    c23 6139   2.834   3.055   0.676 -0.3993 -0.4005 -0.0704
  692poe     o2 6140   2.809   2.956   0.579  0.3043 -0.4878 -0.1656
  692poe    c23 6141   2.675   2.935   0.542  0.1932 -0.0992  0.0180
  692poe    c23 6142   2.684   2.849   0.414 -0.3532 -0.7289  0.3964
  692poe     o2 6143   2.788   2.755   0.420  0.7706  0.4631  0.0817
  692poe    c31 6144   2.771   2.657   0.320  0.1329 -0.0775  0.7119
  693poe    c31 6145   1.295   5.584   2.019  0.5645  0.7596 -0.1553
  693poe     o2 6146   1.348   5.499   1.920  0.0554 -0.0429  0.2531
  693poe    c23 6147   1.482   5.539   1.905  0.0893 -0.2128  0.1016
  693poe    c23 6148   1.557   5.419   1.845  0.1700 -0.2522  0.2835
  693poe     o2 6149   1.471   5.308   1.865 -0.0312 -0.0443  0.5784
  693poe    c23 6150   1.531   5.181   1.856  0.5165  0.2562 -0.1113
  693poe    c23 6151   1.596   5.135   1.724  0.1007 -0.5318 -0.0488
  693poe     o2 6152   1.720   5.197   1.700  0.1026 -0.7190 -0.5278
  693poe    c23 6153   1.747   5.203   1.561  0.0732  0.2982 -0.4960
  693poe    c23 6154   1.895   5.171   1.534  0.0098 -0.3019 -0.1473
  693poe     o2 6155   1.965   5.229   1.642 -0.3328  0.0428 -0.1087
  693poe    c31 6156   2.103   5.241   1.618 -0.3187  0.6425  0.2521
  694poe    c31 6157   6.474   6.377   0.507 -0.4748 -0.5916 -0.0859
  694poe     o2 6158   6.395   6.473   0.441  0.4631  0.2016 -0.0923
  694poe    c23 6159   6.471   6.558   0.358  0.0184  0.1377 -0.5763
  694poe    c23 6160   6.381   6.672   0.307 -0.0256  0.3681  0.0059
  694poe     o2 6161   6.265   6.619   0.246  0.1583 -0.0863  0.0450
  694poe    c23 6162   6.163   6.714   0.262 -0.1548 -0.3620 -0.3098
  694poe    c23 6163   6.035   6.639   0.302 -0.1389 -0.2116  0.0291
  694poe     o2 6164   6.062   6.537   0.395  0.0700  0.2686  0.4963
  694poe    c23 6165   5.957   6.443   0.397  0.3669 -0.0964 -0.6297
  694poe    c23 6166   5.977   6.328   0.497 -0.2086  0.5819  0.2802
  694poe     o2 6167   6.117   6.315   0.510 -0.2037 -0.0052 -0.2794
  694poe    c31 6168   6.148   6.264   0.638  0.3813 -0.3487 -0.5574
  695poe    c31 6169   3.332   4.222   4.551 -0.2272 -0.2316 -0.0731
  695poe     o2 6170   3.314   4.253   4.414 -0.2959  0.3825  0.0695
  695poe    c23 6171   3.352   4.381   4.372  0.1669  0.0270 -0.6073
  695poe    c23 6172   3.504   4.401   4.355  0.2263  0.1524  0.0455
  695poe     o2 6173   3.552   4.330   4.242  0.2588 -0.0656  0.1951
  695poe    c23 6174   3.679   4.381   4.210  0.2498 -0.2520 -0.1360
  695poe    c23 6175   3.703   4.365   4.059  0.5201 -1.0216 -0.0183
  695poe     o2 6176   3.641   4.245   4.019  0.0128 -0.7596 -0.0276
  695poe    c23 6177   3.675   4.188   3.895 -0.4567  0.2404 -0.6273
  695poe    c23 6178   3.622   4.044   3.912 -0.6957  0.3502 -0.4301
  695poe     o2 6179   3.492   4.041   3.964 -0.4564 -0.3991  0.1289
  695poe    c31 6180   3.422   3.922   3.933 -0.3464 -0.4150 -0.0568
  696poe    c31 6181   5.019   3.195   4.266 -0.0584 -0.5291  0.5608
  696poe     o2 6182   4.879   3.201   4.247  0.0480 -0.3774 -0.2108
  696poe    c23 6183   4.869   3.267   4.122 -0.3392 -0.3893 -0.1859
  696poe    c23 6184   4.761   3.373   4.150 -0.1828 -0.0630 -0.8278
  696poe     o2 6185   4.662   3.292   4.208  0.1925 -0.1655 -0.3292
  696poe    c23 6186   4.548   3.358   4.259  0.0821 -0.6447  0.0565
  696poe    c23 6187   4.470   3.233   4.303 -0.1413 -0.5531 -0.0772
  696poe     o2 6188   4.561   3.160   4.382  0.2759  0.4281  0.3636
  696poe    c23 6189   4.504   3.032   4.397  0.2175  0.4665  0.4731
  696poe    c23 6190   4.608   2.955   4.480  0.0437 -0.1183  0.1530
  696poe     o2 6191   4.734   3.000   4.435 -0.1970  0.7899  0.3695
  696poe    c31 6192   4.833   2.913   4.485 -0.3830  0.3608 -0.0069
  697poe    c31 6193   5.533   0.666   6.675 -0.2644  0.0690 -0.0573
  697poe     o2 6194   5.459   0.755   6.594 -0.1429 -0.3503 -0.6369
  697poe    c23 6195   5.548   0.858   6.555 -0.1209 -0.3123 -0.4873
  697poe    c23 6196   5.473   0.973   6.485  0.1035  0.1507  0.0206
  697poe     o2 6197   5.382   0.910   6.397 -0.3029  0.4337  0.2345
  697poe    c23 6198   5.302   0.994   6.317 -0.4299  0.4533  0.3815
  697poe    c23 6199   5.193   0.898   6.266  0.4113 -0.4577  0.2571
  697poe     o2 6200   5.177   0.783   6.347 -0.7313 -0.1327  0.5222
  697poe    c23 6201   5.196   0.662   6.277  0.3402  0.1079  0.3727
  697poe    c23 6202   5.162   0.550   6.378  0.3443 -0.3991 -0.1796
  697poe     o2 6203   5.243   0.580   6.489 -0.2985  0.5628  0.0485
  697poe    c31 6204   5.223   0.493   6.598  0.2914  0.4739  0.0888
  698poe    c31 6205   3.830   2.469   3.678  0.2922 -0.5385  0.7097
  698poe     o2 6206   3.768   2.461   3.804 -0.3792  0.1507  0.4287
  698poe    c23 6207   3.737   2.327   3.835 -0.7825 -0.0087 -0.6267
  698poe    c23 6208   3.705   2.320   3.985 -0.1121 -0.0873 -0.4834
  698poe     o2 6209   3.617   2.430   3.992 -0.1532 -0.1868  0.7964
  698poe    c23 6210   3.556   2.450   4.117 -0.3600  0.3227  0.6187
  698poe    c23 6211   3.462   2.570   4.099 -0.8652 -0.2546 -0.7317
  698poe     o2 6212   3.530   2.666   4.020 -0.3507  0.2392  0.2920
  698poe    c23 6213   3.607   2.756   4.096 -0.8800  0.6542  0.3397
  698poe    c23 6214   3.675   2.843   3.989  0.0762 -0.5159 -0.0113
  698poe     o2 6215   3.745   2.753   3.906  0.0146 -0.6518  0.0835
  698poe    c31 6216   3.846   2.832   3.846 -0.5126  0.4464  0.6184
  699poe    c31 6217   3.625   1.004   6.203 -0.0094 -0.4647  0.0474
  699poe     o2 6218   3.693   0.997   6.326 -0.7307 -0.0032  0.4827
  699poe    c23 6219   3.740   1.126   6.359 -0.7829  0.2220 -0.3099
  699poe    c23 6220   3.746   1.136   6.512 -0.0259 -0.0791 -0.3188
  699poe     o2 6221   3.772   1.013   6.577 -0.0278 -0.0326 -0.2299
  699poe    c23 6222   3.899   1.014   6.638 -0.1176  0.4911 -0.0386
  699poe    c23 6223   3.943   0.872   6.681 -0.6236  0.1900 -0.5033
  699poe     o2 6224   3.861   0.775   6.620  0.2939 -0.6839 -0.3697
  699poe    c23 6225   3.897   0.648   6.669 -0.3644 -0.4738  0.6883
  699poe    c23 6226   3.797   0.541   6.623 -0.5756 -0.0910  0.2535
  699poe     o2 6227   3.785   0.533   6.483 -0.2047 -0.1088  0.2241
  699poe    c31 6228   3.693   0.436   6.439  0.0417 -0.3815  0.3081
  700poe    c31 6229   6.521   6.107   1.914  0.5425 -0.2896  0.1291
  700poe     o2 6230   6.473   6.213   1.834  0.5362 -0.2450  0.1928
  700poe    c23 6231   6.414   6.322   1.903  0.8556  0.0982 -0.0740
  700poe    c23 6232   6.342   6.420   1.809 -0.2777 -0.1481  0.5285
  700poe     o2 6233   6.308   6.351   1.691  0.6248  0.5635 -0.1646
  700poe    c23 6234   6.222   6.417   1.601  0.3937  0.0006 -0.3625
  700poe    c23 6235   6.202   6.352   1.463  0.2374  0.3149 -0.4884
  700poe     o2 6236   6.315   6.346   1.378  0.1637  0.2167 -0.5805
  700poe    c23 6237   6.279   6.294   1.253  0.2585 -0.4998 -0.3132
  700poe    c23 6238   6.352   6.362   1.136 -0.1068  0.5898  0.0839
  700poe     o2 6239   6.489   6.332   1.149 -0.0770  0.7544  0.1558
  700poe    c31 6240   6.553   6.376   1.031  0.0595  0.2089  0.0264
  701poe    c31 6241   4.565   3.308   5.626  0.6842  0.4751  0.3508
  701poe     o2 6242   4.501   3.402   5.542  0.0576 -0.3130 -0.0704
  701poe    c23 6243   4.448   3.336   5.429  0.2284  0.0844 -0.3834
  701poe    c23 6244   4.351   3.427   5.351 -0.0602  0.3131  0.2335
  701poe     o2 6245   4.434   3.535   5.314  0.2880 -0.1983 -0.5112
  701poe    c23 6246   4.374   3.643   5.245 -0.4595 -0.1785  0.1482
  701poe    c23 6247   4.476   3.748   5.200 -0.0215 -0.6900 -0.0662
  701poe     o2 6248   4.529   3.802   5.319 -0.2222  0.3606 -0.4347
  701poe    c23 6249   4.604   3.918   5.295  0.1258  0.2580  0.1382
  701poe    c23 6250   4.688   3.974   5.412 -0.2199  0.2965  0.3712
  701poe     o2 6251   4.607   4.000   5.524 -0.4371  0.5081  0.1670
  701poe    c31 6252   4.693   4.064   5.615  0.1705  0.5562 -0.4368
  702poe    c31 6253   4.208   6.757   3.767 -0.4496 -0.4729 -0.5965
  702poe     o2 6254   4.289   6.666   3.839  0.3381  0.1492 -0.6757
  702poe    c23 6255   4.226   6.543   3.814  0.6796 -0.1188 -0.2216
  702poe    c23 6256   4.305   6.427   3.879  0.3681 -0.3253 -0.2085
  702poe     o2 6257   4.439   6.440   3.839  0.2575 -0.1920 -0.5411
  702poe    c23 6258   4.528   6.372   3.925 -0.4486 -0.1785  0.2047
  702poe    c23 6259   4.658   6.450   3.900 -0.5571 -0.2349 -0.5661
  702poe     o2 6260   4.636   6.589   3.913  0.0387 -0.1852 -0.0494
  702poe    c23 6261   4.743   6.659   3.853  0.2329 -0.0632  0.4263
  702poe    c23 6262   4.691   6.719   3.721  0.1039 -0.1551  0.4344
  702poe     o2 6263   4.557   6.761   3.726  0.0992 -0.1561  0.3366
  702poe    c31 6264   4.537   6.859   3.627  0.3347  0.0228  0.4669
  703poe    c31 6265   6.505   3.960   3.092 -0.1218  0.2635  0.3727
  703poe     o2 6266   6.501   4.059   2.992  0.1776 -0.0381  0.0543
  703poe    c23 6267   6.470   4.003   2.866 -0.2474 -0.3038  0.2717
  703poe    c23 6268   6.468   4.124   2.770  0.6057 -0.7879 -0.3698
  703poe     o2 6269   6.385   4.221   2.830  0.4479 -0.5250 -1.0072
  703poe    c23 6270   6.385   4.345   2.764  0.0238 -0.0681 -0.1572
  703poe    c23 6271   6.250   4.404   2.808  0.0935 -0.0720  0.0638
  703poe     o2 6272   6.224   4.371   2.942  0.2461 -0.3139  0.0334
  703poe    c23 6273   6.101   4.418   2.995  0.5126  0.0355  0.3448
  703poe    c23 6274   6.072   4.420   3.146 -0.2042 -0.1808  0.2116
  703poe     o2 6275   6.083   4.293   3.204  0.1588 -0.3607 -0.2495
  703poe    c31 6276   6.034   4.310   3.335 -0.2363  0.1961 -0.4657
  704poe    c31 6277   5.023   2.870   1.151  0.0609  0.3722 -0.7454
  704poe     o2 6278   4.969   2.981   1.220 -0.2675 -0.1533 -0.1413
  704poe    c23 6279   4.910   3.069   1.127 -1.0161 -0.0655  0.4094
  704poe    c23 6280   4.881   3.197   1.208 -0.2125  0.3464  0.0596
  704poe     o2 6281   4.832   3.175   1.338  0.1387 -0.0097  0.1323
  704poe    c23 6282   4.834   3.288   1.422  0.1007  0.0937 -0.0078
  704poe    c23 6283   4.766   3.262   1.557  0.4474  0.4595  0.2386
  704poe     o2 6284   4.844   3.172   1.631 -0.1243 -0.5181 -0.3296
  704poe    c23 6285   4.789   3.155   1.760 -0.0933  0.8083 -0.1329
  704poe    c23 6286   4.890   3.188   1.872  0.2860  0.1400 -0.2702
  704poe     o2 6287   4.938   3.320   1.868 -0.3227  0.3619 -0.4822
  704poe    c31 6288   4.851   3.420   1.916  0.0797  0.4988 -0.0230
  705poe    c31 6289   0.097   4.232   5.958  0.1666 -0.0489 -0.2439
  705poe     o2 6290   0.106   4.092   5.979 -0.1472 -0.0279  0.0552
  705poe    c23 6291   0.074   4.063   6.113 -0.2635  0.0527  0.0461
  705poe    c23 6292   0.094   3.914   6.147  0.1824  0.2232  0.5478
  705poe     o2 6293   0.228   3.872   6.143 -0.0595 -0.5124 -0.0436
  705poe    c23 6294   0.264   3.742   6.186 -0.0522 -0.5259 -0.0906
  705poe    c23 6295   0.408   3.707   6.145 -0.1315 -0.6278 -0.2896
  705poe     o2 6296   0.439   3.751   6.015 -0.6205 -0.2231 -0.2754
  705poe    c23 6297   0.553   3.679   5.973 -0.2597  0.1537  0.0466
  705poe    c23 6298   0.618   3.775   5.872 -0.0686  0.0814  0.0995
  705poe     o2 6299   0.530   3.796   5.764  0.2661 -0.5570 -0.3071
  705poe    c31 6300   0.584   3.864   5.653 -0.0547  0.0404 -0.1042
  706poe    c31 6301   1.460   0.779   4.134 -0.1810  0.6670 -0.1061
  706poe     o2 6302   1.562   0.817   4.223  0.4517 -0.0457 -0.5083
  706poe    c23 6303   1.533   0.945   4.275  0.0325 -0.3382 -0.0142
  706poe    c23 6304   1.667   0.995   4.331 -0.2772  0.4149  0.0676
  706poe     o2 6305   1.768   0.934   4.253 -0.2250  0.2203  0.2863
  706poe    c23 6306   1.893   0.998   4.267 -0.1090  0.0425  0.0681
  706poe    c23 6307   2.003   0.921   4.192 -0.6338 -0.1255 -0.5369
  706poe     o2 6308   2.019   0.785   4.229 -0.3685  0.0542  0.0105
  706poe    c23 6309   2.152   0.740   4.242 -0.2118  0.5437  0.1470
  706poe    c23 6310   2.172   0.687   4.385  0.0406 -0.2933 -0.1942
  706poe     o2 6311   2.185   0.794   4.476 -0.3099 -0.1454 -0.3182
  706poe    c31 6312   2.181   0.751   4.610  0.4071  0.1198 -0.2128
  707poe    c31 6313   1.837   0.292   1.456  0.3051 -0.2420 -0.2198
  707poe     o2 6314   1.732   0.224   1.391  0.0461 -0.1276  0.0771
  707poe    c23 6315   1.739   0.272   1.259 -0.0317 -0.0272  0.1094
  707poe    c23 6316   1.670   0.174   1.162 -0.2048  0.0287  0.1742
  707poe     o2 6317   1.536   0.169   1.204 -0.1188 -0.1510  0.4342
  707poe    c23 6318   1.484   0.040   1.183 -0.3070  0.0360 -0.2963
  707poe    c23 6319   1.415  -0.015   1.309 -0.0233  0.4390  0.0364
  707poe     o2 6320   1.496  -0.023   1.424 -0.0311 -0.5611 -0.0217
  707poe    c23 6321   1.425  -0.068   1.537  0.0609  0.1208  0.3128
  707poe    c23 6322   1.542  -0.082   1.636  0.2792  0.1485  0.0599
  707poe     o2 6323   1.617   0.036   1.618  0.5261 -0.0155  0.0002
  707poe    c31 6324   1.651   0.076   1.749  0.3822  0.2066 -0.0295
  708poe    c31 6325   1.864   6.115   4.647  0.7564  0.2898  0.0422
  708poe     o2 6326   1.867   5.997   4.570 -0.0972  0.1424  0.2241
  708poe    c23 6327   1.832   6.028   4.437  0.5400  0.0365  0.0255
  708poe    c23 6328   1.866   5.906   4.350  0.2856 -0.1671  0.2095
  708poe     o2 6329   1.860   5.794   4.435 -0.1475 -0.1298  0.2305
  708poe    c23 6330   1.861   5.676   4.357  0.3086  0.2196 -0.2909
  708poe    c23 6331   1.798   5.576   4.455  0.3407  0.2795 -0.2100
  708poe     o2 6332   1.851   5.605   4.583 -0.1613 -0.3464  0.1419
  708poe    c23 6333   1.986   5.568   4.598 -0.3204 -0.8180  0.4377
  708poe    c23 6334   2.026   5.640   4.728 -0.0203 -0.1504 -0.0210
  708poe     o2 6335   1.992   5.777   4.725 -0.2842 -0.2231 -0.3793
  708poe    c31 6336   2.010   5.831   4.854 -0.5646  0.5134 -0.6404
  709poe    c31 6337   2.599   0.674   2.705  0.0877  0.1890 -0.2438
  709poe     o2 6338   2.578   0.812   2.685  0.6798  0.3674  0.3404
  709poe    c23 6339   2.691   0.855   2.612  0.3388 -0.3127 -0.6040
  709poe    c23 6340   2.704   1.005   2.644 -0.1577 -0.3391 -0.2616
  709poe     o2 6341   2.573   1.056   2.650  0.1739  0.4638  0.3296
  709poe    c23 6342   2.547   1.175   2.579 -0.5768 -0.1630 -0.4749
  709poe    c23 6343   2.394   1.189   2.572 -0.5557  0.3373 -0.0464
  709poe     o2 6344   2.343   1.061   2.541 -0.2880  0.3229 -0.4199
  709poe    c23 6345   2.286   1.071   2.412 -0.5723 -0.2120 -0.3387
  709poe    c23 6346   2.239   0.926   2.389 -0.6566 -0.1809 -0.3645
  709poe     o2 6347   2.346   0.840   2.355 -0.2873  0.0073  0.3088
  709poe    c31 6348   2.343   0.722   2.432 -0.2020  0.0445  0.3693
  710poe    c31 6349   5.153   0.062   2.713 -0.0051 -0.7177 -0.1343
  710poe     o2 6350   5.117   0.184   2.774 -0.0101 -0.4646 -0.6386
  710poe    c23 6351   4.976   0.186   2.783  0.0470  0.0254  0.2436
  710poe    c23 6352   4.937   0.301   2.877 -0.7086  0.1340 -0.1889
  710poe     o2 6353   5.004   0.416   2.829  0.0744  0.0157  0.5878
  710poe    c23 6354   4.947   0.523   2.901 -0.8326 -0.2055  0.2083
  710poe    c23 6355   4.970   0.666   2.847 -0.1034 -0.3190  0.2076
  710poe     o2 6356   5.107   0.695   2.848 -0.1172 -0.2393 -0.0679
  710poe    c23 6357   5.139   0.810   2.773 -0.0616 -0.1022  0.1654
  710poe    c23 6358   5.289   0.841   2.758 -0.1485  0.0946 -0.3149
  710poe     o2 6359   5.359   0.870   2.877  0.1271  0.0363 -0.4628
  710poe    c31 6360   5.499   0.861   2.861  0.1514  0.4706 -0.4886
  711poe    c31 6361   3.643   1.672   6.299  0.1019 -0.0589  0.0714
  711poe     o2 6362   3.728   1.784   6.311  0.1487 -0.1681  0.8618
  711poe    c23 6363   3.862   1.741   6.305  0.1696  0.0182 -0.3775
  711poe    c23 6364   3.958   1.850   6.357 -0.1508  0.0149  0.2272
  711poe     o2 6365   3.916   1.969   6.295  0.0878  0.1274  0.2802
  711poe    c23 6366   3.988   2.085   6.330 -0.3552  0.3870  0.3445
  711poe    c23 6367   3.926   2.187   6.233 -0.0017 -0.2458 -0.5614
  711poe     o2 6368   3.787   2.164   6.236  0.0366 -0.4830 -0.5281
  711poe    c23 6369   3.719   2.204   6.119 -0.1340  0.3378 -0.1555
  711poe    c23 6370   3.622   2.089   6.086  0.3077  0.0552 -0.4753
  711poe     o2 6371   3.698   1.971   6.101 -0.0864 -0.1621 -0.1868
  711poe    c31 6372   3.725   1.900   5.983 -0.3224  0.3071 -0.5252
  712poe    c31 6373   1.029   0.610   3.901  0.2952 -0.3270 -0.6909
  712poe     o2 6374   0.907   0.655   3.956  0.4418 -0.3021 -0.3805
  712poe    c23 6375   0.942   0.753   4.050 -0.6950  0.5413 -0.8220
  712poe    c23 6376   0.826   0.797   4.142 -0.0514  1.0918 -0.2644
  712poe     o2 6377   0.732   0.863   4.060 -0.4355  0.3141 -0.4625
  712poe    c23 6378   0.597   0.829   4.078 -0.2389 -0.2398 -0.0013
  712poe    c23 6379   0.511   0.938   4.010 -0.1556  0.0300  0.3211
  712poe     o2 6380   0.545   0.944   3.873  0.2333  0.4772  0.4330
  712poe    c23 6381   0.489   1.063   3.823  0.8995  0.3586 -0.6265
  712poe    c23 6382   0.470   1.037   3.672  0.0328  0.6395 -0.5747
  712poe     o2 6383   0.592   0.986   3.624  0.1040  0.1926  0.0676
  712poe    c31 6384   0.588   0.974   3.484 -0.3526 -0.3170  0.1234
  713poe    c31 6385   6.331   0.113   3.613 -0.7796 -0.6063  0.5181
  713poe     o2 6386   6.275   0.145   3.487  0.1757  0.0309  0.2474
  713poe    c23 6387   6.268   0.282   3.453 -0.4032 -0.1205 -0.2477
  713poe    c23 6388   6.223   0.315   3.310 -0.4452 -0.2844 -0.2720
  713poe     o2 6389   6.089   0.276   3.286 -0.2740 -1.0212 -0.0678
  713poe    c23 6390   6.075   0.284   3.146  0.0039  0.0349 -0.0491
  713poe    c23 6391   5.921   0.276   3.139  0.0360 -0.3222 -0.4283
  713poe     o2 6392   5.884   0.150   3.192 -0.1170 -0.1896 -0.2171
  713poe    c23 6393   5.773   0.089   3.130  0.2520 -0.9193 -0.1678
  713poe    c23 6394   5.720  -0.010   3.236 -0.6991 -0.4838 -0.2275
  713poe     o2 6395   5.731   0.064   3.355  0.2668 -0.2143 -0.4767
  713poe    c31 6396   5.664  -0.000   3.462 -0.5285 -0.1347 -0.9196
  714poe    c31 6397   0.514   4.198   1.005 -0.0070 -0.0809 -0.3608
  714poe     o2 6398   0.471   4.069   1.042  0.8072 -0.2603 -0.0142
  714poe    c23 6399   0.423   4.009   0.924  0.6701  0.1440 -0.1664
  714poe    c23 6400   0.352   3.884   0.980 -0.1836  0.6730 -0.0698
  714poe     o2 6401   0.428   3.847   1.093  0.1571 -0.1236 -0.5567
  714poe    c23 6402   0.356   3.766   1.183  0.1114  0.2181 -0.2860
  714poe    c23 6403   0.451   3.728   1.298 -0.4318  0.5411  0.2784
  714poe     o2 6404   0.505   3.855   1.328  0.0455  0.3389  0.2937
  714poe    c23 6405   0.532   3.857   1.466  0.5738  0.5346  0.1896
  714poe    c23 6406   0.538   3.994   1.535 -0.7704  0.8289 -0.2426
  714poe     o2 6407   0.636   4.065   1.463 -0.4690  0.2332 -0.4232
  714poe    c31 6408   0.683   4.181   1.527 -0.2302  0.0394 -0.2445
  715poe    c31 6409   5.437   2.113   4.921  0.0021 -0.1214  0.2809
  715poe     o2 6410   5.370   2.236   4.907  0.1342 -0.1267 -0.4004
  715poe    c23 6411   5.269   2.265   5.001  0.0476  0.0675 -0.5527
  715poe    c23 6412   5.188   2.390   4.963 -0.0984  0.2073  0.2075
  715poe     o2 6413   5.142   2.394   4.830  0.0067 -0.5009  0.1498
  715poe    c23 6414   5.103   2.524   4.791 -0.0938 -0.6448 -0.2404
  715poe    c23 6415   5.111   2.524   4.638 -0.0087  0.2664 -0.2396
  715poe     o2 6416   5.235   2.460   4.620 -0.0621  0.1682 -0.2553
  715poe    c23 6417   5.283   2.450   4.488  0.3001  0.5286 -0.1538
  715poe    c23 6418   5.428   2.404   4.512  0.2062  0.2610 -0.0928
  715poe     o2 6419   5.431   2.306   4.613  0.0169 -0.0704 -0.4077
  715poe    c31 6420   5.566   2.271   4.629 -0.0345  0.1390  0.5720
  716poe    c31 6421   0.793   6.155   3.097  0.5266  0.1369  0.1901
  716poe     o2 6422   0.930   6.124   3.112  0.5966  0.1353 -0.4502
  716poe    c23 6423   0.946   5.985   3.128  0.4033  0.1605 -0.0361
  716poe    c23 6424   1.094   5.945   3.120  0.5428  0.5372  0.5925
  716poe     o2 6425   1.143   6.016   3.008 -0.2595 -0.8560 -0.6693
  716poe    c23 6426   1.258   5.946   2.965  0.3814  0.0690 -0.4927
  716poe    c23 6427   1.362   6.042   2.906  0.6544  0.0567 -0.0421
  716poe     o2 6428   1.328   6.082   2.775  0.5297 -0.0520 -0.0434
  716poe    c23 6429   1.412   6.183   2.724  0.2728  0.1228 -0.1269
  716poe    c23 6430   1.409   6.324   2.786 -0.0313  0.3727 -0.7071
  716poe     o2 6431   1.277   6.372   2.785 -0.4073 -0.6184  0.0243
  716poe    c31 6432   1.271   6.502   2.840 -0.3776 -0.2407 -0.8415
  717poe    c31 6433   5.948   0.011   5.903  0.1802 -0.0309  0.3796
  717poe     o2 6434   6.053   0.030   5.810 -0.1686  0.0203 -0.0060
  717poe    c23 6435   6.131  -0.085   5.791  0.0012  0.1584 -0.1465
  717poe    c23 6436   6.282  -0.054   5.784  0.0543  0.0145  0.2691
  717poe     o2 6437   6.294   0.057   5.698 -0.2145 -0.1570  0.0076
  717poe    c23 6438   6.431   0.091   5.691 -0.2526  0.1757  0.7699
  717poe    c23 6439   6.469   0.202   5.592 -0.5297  0.1364  0.6169
  717poe     o2 6440   6.396   0.321   5.614 -0.2143  0.4780 -0.1266
  717poe    c23 6441   6.408   0.413   5.508  0.4128  0.2761 -0.2399
  717poe    c23 6442   6.335   0.548   5.523  0.1905  0.1429 -0.1231
  717poe     o2 6443   6.201   0.533   5.567  0.1399  0.0931 -0.2968
  717poe    c31 6444   6.114   0.631   5.514 -0.2981  0.0089  0.2610
  718poe    c31 6445   6.395   3.733   3.858 -0.3990 -0.3251 -0.3559
  718poe     o2 6446   6.282   3.808   3.822 -0.1081  0.0003 -0.6052
  718poe    c23 6447   6.176   3.773   3.909 -0.1030 -0.0791 -0.6311
  718poe    c23 6448   6.068   3.883   3.907 -0.6455 -0.5884  0.1021
  718poe     o2 6449   6.034   3.904   3.772 -0.5465  0.1965  0.1942
  718poe    c23 6450   5.970   4.027   3.749  0.1049  0.5633  0.3198
  718poe    c23 6451   6.081   4.133   3.757  0.5627  0.0413  0.9334
  718poe     o2 6452   6.183   4.093   3.668  0.0068  0.2933  0.1723
  718poe    c23 6453   6.299   4.171   3.689  0.7589 -0.7790  0.0774
  718poe    c23 6454   6.413   4.110   3.605  1.4566 -0.3475  0.7007
  718poe     o2 6455   6.391   3.972   3.617  0.0728 -0.1346  0.7293
  718poe    c31 6456   6.460   3.907   3.513  0.1307  0.3111  0.4919
  719poe    c31 6457   4.758   6.138   4.803 -0.5964  0.3597 -0.4810
  719poe     o2 6458   4.638   6.099   4.868 -0.2834  0.2998  0.0673
  719poe    c23 6459   4.625   6.171   4.988 -0.0456  0.4420  0.0103
  719poe    c23 6460   4.557   6.078   5.091  0.0533  0.0429 -0.2839
  719poe     o2 6461   4.442   6.024   5.031 -0.4233  0.6198  0.1033
  719poe    c23 6462   4.382   5.922   5.108  0.2045  0.1562 -0.0178
  719poe    c23 6463   4.240   5.898   5.054  0.2304  0.0348 -0.0302
  719poe     o2 6464   4.258   5.882   4.915  0.3193  0.4466 -0.0677
  719poe    c23 6465   4.140   5.824   4.863  0.1423  0.3600  0.4267
  719poe    c23 6466   4.162   5.748   4.731 -0.3824  0.5335  0.2392
  719poe     o2 6467   4.177   5.811   4.605 -0.6517 -0.1494 -0.1367
  719poe    c31 6468   4.152   5.725   4.496  1.1165 -0.1068 -0.6078
  720poe    c31 6469   6.028   3.572   1.641 -0.0087  0.0173 -0.2784
  720poe     o2 6470   5.998   3.514   1.515  0.3282  0.0715 -0.3849
  720poe    c23 6471   6.084   3.406   1.486  0.2084 -0.0234 -0.3828
  720poe    c23 6472   6.104   3.412   1.333 -0.0935 -0.5838 -0.4502
  720poe     o2 6473   5.980   3.434   1.270 -0.2457 -0.7327 -0.2029
  720poe    c23 6474   5.983   3.403   1.133 -0.1632  0.0249 -0.3776
  720poe    c23 6475   5.837   3.404   1.083 -0.2226 -0.2798 -0.2144
  720poe     o2 6476   5.778   3.294   1.147  0.6202 -0.3420  0.4775
  720poe    c23 6477   5.642   3.324   1.128  0.7966  0.0403 -0.1960
  720poe    c23 6478   5.567   3.193   1.094  0.4017  0.0912  0.4669
  720poe     o2 6479   5.427   3.203   1.074  0.4072 -0.2656  0.2421
  720poe    c31 6480   5.344   3.189   1.187  0.1060  0.2663  0.0939
  721poe    c31 6481   2.547   5.088   5.219 -0.4880 -0.2334  0.1466
  721poe     o2 6482   2.524   4.962   5.279  0.2617 -0.2351  0.4337
  721poe    c23 6483   2.536   4.856   5.187 -0.4453  0.0209  0.0370
  721poe    c23 6484   2.491   4.720   5.243  0.2879 -0.1271  0.2869
  721poe     o2 6485   2.550   4.647   5.349 -0.1087 -0.2885  0.4003
  721poe    c23 6486   2.669   4.589   5.301  0.1588  0.5910 -0.0242
  721poe    c23 6487   2.749   4.541   5.424  0.4722 -0.0486 -0.4772
  721poe     o2 6488   2.765   4.640   5.523 -0.2491  0.2215 -0.6286
  721poe    c23 6489   2.837   4.576   5.625 -0.3210  0.5940 -0.3414
  721poe    c23 6490   2.850   4.671   5.745 -0.1607  0.3403 -0.1558
  721poe     o2 6491   2.723   4.730   5.756 -0.2336  0.1016  0.3237
  721poe    c31 6492   2.686   4.757   5.889 -0.4384 -0.2045  0.3313
  722poe    c31 6493   3.191   5.735   2.427 -0.0982 -0.1563 -0.4185
  722poe     o2 6494   3.092   5.833   2.449 -0.0165 -0.1392 -0.1315
  722poe    c23 6495   3.051   5.832   2.584  0.4491 -0.4744  0.0080
  722poe    c23 6496   2.907   5.882   2.603  0.5306 -0.2608  0.0585
  722poe     o2 6497   2.906   6.000   2.525 -0.5306 -0.2073  0.1317
  722poe    c23 6498   2.776   6.032   2.482 -0.1678  0.1957 -0.6787
  722poe    c23 6499   2.750   5.977   2.341  0.3186 -0.0877 -0.6580
  722poe     o2 6500   2.873   5.998   2.275  0.5453  0.4297 -0.0811
  722poe    c23 6501   2.872   5.920   2.157  0.0773  0.0212  0.1877
  722poe    c23 6502   3.004   5.965   2.090 -0.1336  0.3170 -0.0277
  722poe     o2 6503   3.103   5.951   2.190 -0.0251  0.5763 -0.0991
  722poe    c31 6504   3.229   5.965   2.129 -0.0677  0.2592 -0.2621
  723poe    c31 6505   1.501   4.721   4.419  0.1314  0.2838 -0.2768
  723poe     o2 6506   1.554   4.659   4.534 -0.4071 -0.0797 -0.2225
  723poe    c23 6507   1.544   4.518   4.532 -0.2681 -0.0868 -0.5262
  723poe    c23 6508   1.676   4.464   4.473 -0.0112  0.0426 -0.0749
  723poe     o2 6509   1.698   4.470   4.334 -0.2496  0.0041 -0.1147
  723poe    c23 6510   1.835   4.449   4.307 -0.1603  0.3472  0.0601
  723poe    c23 6511   1.870   4.470   4.159 -0.1051  0.6432  0.1141
  723poe     o2 6512   1.806   4.375   4.076  0.2613  0.4790  0.0129
  723poe    c23 6513   1.832   4.404   3.941 -0.1711  0.1833 -0.1380
  723poe    c23 6514   1.756   4.296   3.862 -0.3776  0.0081  0.3004
  723poe     o2 6515   1.630   4.285   3.924 -0.4275  0.2061  0.2319
  723poe    c31 6516   1.556   4.186   3.855 -0.2537 -0.0251  0.3775
  724poe    c31 6517   5.253   3.580   6.374  0.7120 -0.4536  0.1796
  724poe     o2 6518   5.238   3.443   6.342 -0.4040 -0.2495 -0.2184
  724poe    c23 6519   5.220   3.370   6.461  0.2806 -0.0006  0.0411
  724poe    c23 6520   5.217   3.220   6.425  0.0242  0.1328 -0.5020
  724poe     o2 6521   5.323   3.199   6.335  0.4963  0.3527 -0.0086
  724poe    c23 6522   5.308   3.069   6.282  0.1576  0.1961  0.4734
  724poe    c23 6523   5.378   3.060   6.146  0.1198  0.2592  0.4497
  724poe     o2 6524   5.364   3.193   6.102  0.8332  0.1143 -0.2476
  724poe    c23 6525   5.408   3.213   5.969  0.6307 -0.0005 -0.3310
  724poe    c23 6526   5.350   3.350   5.930 -0.1408 -0.2854 -0.2199
  724poe     o2 6527   5.377   3.434   6.041  0.2547 -0.2480 -0.3410
  724poe    c31 6528   5.340   3.563   5.997  0.6658  0.1255  0.4027
  725poe    c31 6529   3.748   2.682   5.415 -0.1456 -0.1926 -0.4502
  725poe     o2 6530   3.679   2.671   5.537  0.0855 -0.8613 -0.3738
  725poe    c23 6531   3.555   2.606   5.524 -0.6126  0.2468  0.5012
  725poe    c23 6532   3.512   2.542   5.657  0.4415  0.1560  0.8060
  725poe     o2 6533   3.572   2.619   5.758  0.5452  0.5132  0.4752
  725poe    c23 6534   3.540   2.561   5.883 -0.0692 -0.2778 -0.0391
  725poe    c23 6535   3.598   2.655   5.990 -0.1301 -0.3668  0.0721
  725poe     o2 6536   3.728   2.691   5.950 -0.4462  0.1305 -0.5132
  725poe    c23 6537   3.766   2.823   5.982 -0.4714 -0.0693  0.3656
  725poe    c23 6538   3.721   2.927   5.877  0.1302 -0.2016 -0.0261
  725poe     o2 6539   3.778   2.883   5.756  0.1749 -0.1705 -0.0163
  725poe    c31 6540   3.855   2.980   5.689  0.8937 -0.4221  0.4371
  726poe    c31 6541   1.325   0.092   6.032  0.2375  0.2834  0.1527
  726poe     o2 6542   1.376  -0.039   6.038  0.0803  0.2143  0.0051
  726poe    c23 6543   1.340  -0.109   5.921  0.4131 -0.1337  0.1082
  726poe    c23 6544   1.419  -0.241   5.928 -0.1346 -0.4909 -0.3705
  726poe     o2 6545   1.550  -0.196   5.955 -0.4161 -0.1510  0.4556
  726poe    c23 6546   1.635  -0.308   5.940  0.0801  0.2689  0.1276
  726poe    c23 6547   1.774  -0.249   5.908  0.1325 -0.0630 -0.2744
  726poe     o2 6548   1.827  -0.180   6.019 -0.1472  0.0874 -0.2333
  726poe    c23 6549   1.954  -0.237   6.040  0.1846  0.7211 -0.4996
  726poe    c23 6550   2.049  -0.148   6.123  0.3889  0.4598 -0.4525
  726poe     o2 6551   1.976  -0.155   6.243  0.0836 -0.0848 -0.6620
  726poe    c31 6552   2.053  -0.210   6.348 -0.2608  0.1581 -0.2778
  727poe    c31 6553   5.688   5.478   3.282 -0.0676  0.9757 -0.5683
  727poe     o2 6554   5.601   5.477   3.171 -0.4244 -0.0532 -0.2929
  727poe    c23 6555   5.591   5.350   3.112  0.1229 -0.3665  0.2775
  727poe    c23 6556   5.509   5.367   2.983  0.7657  0.1448 -0.0707
  727poe     o2 6557   5.525   5.498   2.933  0.1232  0.1088 -0.3908
  727poe    c23 6558   5.438   5.534   2.829 -0.2456  1.0564  0.2301
  727poe    c23 6559   5.485   5.674   2.787  0.3992  0.8151  0.1356
  727poe     o2 6560   5.485   5.733   2.916  0.9243  0.0274  0.5016
  727poe    c23 6561   5.552   5.857   2.917  0.0134  0.5366 -0.2138
  727poe    c23 6562   5.561   5.909   3.061 -0.4259 -0.2673  0.1068
  727poe     o2 6563   5.581   5.795   3.143 -0.2375 -0.4941 -0.2531
  727poe    c31 6564   5.594   5.840   3.276 -0.5772  0.0420 -0.3969
  728poe    c31 6565   3.397   2.968   5.464  0.0255  0.1314 -0.1781
  728poe     o2 6566   3.364   3.065   5.561  0.0542 -0.1477  0.1105
  728poe    c23 6567   3.288   3.169   5.505  0.2299 -0.1812 -0.1901
  728poe    c23 6568   3.256   3.293   5.591 -0.0149 -0.1968 -0.2596
  728poe     o2 6569   3.362   3.374   5.637  0.1930 -0.3899 -0.3985
  728poe    c23 6570   3.430   3.322   5.749  0.5537  0.7804 -0.0644
  728poe    c23 6571   3.564   3.387   5.787  1.0472 -0.3911  0.2298
  728poe     o2 6572   3.549   3.518   5.737  0.3287 -0.6086 -0.1394
  728poe    c23 6573   3.619   3.622   5.802  0.2305 -0.4703 -0.2559
  728poe    c23 6574   3.678   3.739   5.722  0.0138 -0.0628  0.1771
  728poe     o2 6575   3.581   3.816   5.654  0.1738 -0.1233 -0.1240
  728poe    c31 6576   3.556   3.941   5.713  0.2056 -0.2511  0.1626
  729poe    c31 6577   1.333   5.179   5.252 -0.4868  0.1679  0.6648
  729poe     o2 6578   1.330   5.290   5.338 -0.1712  0.6304  0.0917
  729poe    c23 6579   1.269   5.238   5.454  0.5655  0.4907  0.4225
  729poe    c23 6580   1.279   5.348   5.562 -0.7122  0.0452  1.0178
  729poe     o2 6581   1.418   5.371   5.561 -0.5970 -0.6280  0.4274
  729poe    c23 6582   1.450   5.466   5.660  0.1768 -0.7141  0.2640
  729poe    c23 6583   1.581   5.538   5.622 -0.1345  0.1081  0.7326
  729poe     o2 6584   1.579   5.553   5.482 -0.4499  0.1612  0.7404
  729poe    c23 6585   1.539   5.676   5.426  0.9041  0.3076  0.0521
  729poe    c23 6586   1.518   5.662   5.275  0.3261  0.0439  0.1555
  729poe     o2 6587   1.434   5.549   5.261 -0.1744  0.4380 -0.0633
  729poe    c31 6588   1.373   5.563   5.135 -0.3511  0.2725  0.0045
  730poe    c31 6589   1.099   2.283   3.361  0.5701  0.1653 -0.1723
  730poe     o2 6590   1.116   2.392   3.449 -0.2192  0.3439 -0.2386
  730poe    c23 6591   0.999   2.469   3.460 -0.8512 -0.6198 -0.0509
  730poe    c23 6592   1.053   2.583   3.549  0.1196 -0.3820 -0.9234
  730poe     o2 6593   1.101   2.523   3.668  0.3560  0.3125 -0.6663
  730poe    c23 6594   1.181   2.613   3.742 -0.0297 -0.3461  0.5735
  730poe    c23 6595   1.237   2.534   3.862 -0.3256 -0.5880  0.5541
  730poe     o2 6596   1.307   2.423   3.810 -0.6595 -0.4599 -0.1955
  730poe    c23 6597   1.448   2.427   3.813 -0.6571 -0.4666 -0.2945
  730poe    c23 6598   1.466   2.314   3.710 -0.2751 -0.2933 -0.4192
  730poe     o2 6599   1.375   2.335   3.604 -0.3626  0.1877 -0.2527
  730poe    c31 6600   1.427   2.251   3.503  0.3723 -0.4978  0.6843
  731poe    c31 6601   5.773   4.849   5.435 -0.0307  0.0505 -0.1565
  731poe     o2 6602   5.683   4.955   5.418 -0.3142 -0.1888 -0.1483
  731poe    c23 6603   5.746   5.073   5.462 -0.4385 -0.1386 -0.1014
  731poe    c23 6604   5.663   5.199   5.433  0.0108  0.2486  0.2600
  731poe     o2 6605   5.627   5.179   5.298  0.2468 -0.5911  0.3191
  731poe    c23 6606   5.542   5.282   5.252  0.3401 -0.6652 -0.0304
  731poe    c23 6607   5.446   5.218   5.151 -0.0294  0.1554 -0.2031
  731poe     o2 6608   5.390   5.104   5.212 -0.5056  0.1937 -0.5594
  731poe    c23 6609   5.266   5.125   5.276 -0.4592 -0.5589 -0.2000
  731poe    c23 6610   5.257   5.026   5.393 -0.5438 -0.1239  0.1624
  731poe     o2 6611   5.383   4.996   5.449 -0.3568 -0.5303 -0.4697
  731poe    c31 6612   5.372   4.976   5.588  0.2618 -0.4373 -0.4029
  732poe    c31 6613   1.269   2.411   4.874  0.1815  0.9219  0.0318
  732poe     o2 6614   1.156   2.480   4.921 -0.2545  0.4055 -0.2470
  732poe    c23 6615   1.055   2.465   4.824 -0.4581 -0.3153  0.0679
  732poe    c23 6616   0.932   2.540   4.877 -0.2878  0.6188 -0.8235
  732poe     o2 6617   0.978   2.669   4.912 -0.0258  0.1256  0.7366
  732poe    c23 6618   0.879   2.770   4.911 -0.1901 -0.0344 -0.2636
  732poe    c23 6619   0.968   2.895   4.928 -0.1979 -0.1168  0.4028
  732poe     o2 6620   1.048   2.869   5.041  0.1314  0.1394  0.2310
  732poe    c23 6621   1.163   2.951   5.038  0.0729  0.2399  0.6831
  732poe    c23 6622   1.279   2.886   5.114 -0.5404 -0.6034  0.9140
  732poe     o2 6623   1.293   2.756   5.060  0.1533  0.0734 -0.5822
  732poe    c31 6624   1.381   2.674   5.133 -0.2042  0.5110  0.3495
  733poe    c31 6625   3.038   6.707   6.471 -0.1938  0.4194  0.4918
  733poe     o2 6626   3.027   6.815   6.382  0.5785 -0.2790 -0.4835
  733poe    c23 6627   3.094   6.927   6.436  0.4306 -0.3279 -0.2011
  733poe    c23 6628   3.076   7.046   6.340  0.2934 -0.3299 -0.1779
  733poe     o2 6629   2.940   7.052   6.305  0.2342 -0.2804  0.0571
  733poe    c23 6630   2.922   7.155   6.210  0.3323 -0.1908  0.1364
  733poe    c23 6631   2.774   7.152   6.167  0.2826 -0.5178  0.3288
  733poe     o2 6632   2.745   7.015   6.146  0.3142 -0.4295 -0.3025
  733poe    c23 6633   2.606   6.995   6.141  0.1878  0.3266  0.0236
  733poe    c23 6634   2.598   6.842   6.136 -0.1114  0.3475 -0.1632
  733poe     o2 6635   2.680   6.809   6.246 -0.2531 -0.5523 -0.3184
  733poe    c31 6636   2.665   6.679   6.300 -0.4730 -0.2273  0.4103
  734poe    c31 6637   5.863   1.161   2.204  0.0449  0.0646  0.3065
  734poe     o2 6638   5.751   1.084   2.166 -0.0088  0.2110  0.1685
  734poe    c23 6639   5.773   0.945   2.159 -0.2838  0.1536  0.4126
  734poe    c23 6640   5.638   0.874   2.139 -0.1097 -0.1092  0.1521
  734poe     o2 6641   5.550   0.933   2.232 -0.4143 -0.1155 -0.1296
  734poe    c23 6642   5.431   0.857   2.232 -0.0561 -0.6816  0.2956
  734poe    c23 6643   5.352   0.939   2.335  0.1393 -0.1771  0.0487
  734poe     o2 6644   5.367   1.078   2.316 -0.0197 -0.1035  0.4371
  734poe    c23 6645   5.279   1.131   2.219  0.7703 -0.0342 -0.2598
  734poe    c23 6646   5.345   1.255   2.156  0.2848  0.3912  0.0634
  734poe     o2 6647   5.467   1.202   2.111  0.2897 -0.0236  0.5505
  734poe    c31 6648   5.530   1.304   2.037 -0.4692  0.1057  0.0742
  735poe    c31 6649   1.020   1.201   1.365  0.3132  0.0059  0.0059
  735poe     o2 6650   0.932   1.305   1.327  0.4444  0.1984  0.2294
  735poe    c23 6651   0.857   1.355   1.435  0.1458  0.7221 -0.2134
  735poe    c23 6652   0.773   1.475   1.388 -0.0466  0.8480  0.4422
  735poe     o2 6653   0.707   1.434   1.270  1.1324 -0.2652  0.1456
  735poe    c23 6654   0.660   1.544   1.195 -0.3199 -0.8765  0.1283
  735poe    c23 6655   0.698   1.507   1.050  0.3906  0.1465  0.0377
  735poe     o2 6656   0.834   1.470   1.061  0.5005  0.7216  0.6799
  735poe    c23 6657   0.908   1.460   0.941 -0.4777  0.6543  0.0705
  735poe    c23 6658   1.030   1.370   0.962 -0.8247  0.2409  0.3286
  735poe     o2 6659   0.976   1.272   1.048 -0.1247  0.2310  0.7683
  735poe    c31 6660   0.984   1.147   0.983 -0.0143  0.7703 -0.2749
  736poe    c31 6661   1.513   1.697   5.717  0.5084  0.0582 -0.2082
  736poe     o2 6662   1.484   1.835   5.706  0.0247 -0.0314 -0.0885
  736poe    c23 6663   1.550   1.918   5.799 -0.4546  0.5619 -0.2753
  736poe    c23 6664   1.536   2.066   5.757  0.4995  0.7762  0.1153
  736poe     o2 6665   1.403   2.070   5.708  0.3960 -0.3616  0.2725
  736poe    c23 6666   1.366   2.183   5.632  0.1362 -0.7264 -0.1488
  736poe    c23 6667   1.218   2.169   5.593 -0.0798 -0.2728  0.4983
  736poe     o2 6668   1.204   2.035   5.552 -0.3791 -0.1824  0.3007
  736poe    c23 6669   1.075   1.999   5.507 -0.2587 -0.1847 -0.0453
  736poe    c23 6670   1.099   1.858   5.452 -0.0795 -0.2243  0.1295
  736poe     o2 6671   1.206   1.796   5.520  0.1579  0.4797  0.4020
  736poe    c31 6672   1.233   1.671   5.461  0.3109  0.7346 -0.0792
  737poe    c31 6673   1.680   5.070   2.434  0.9873  0.5308 -0.0298
  737poe     o2 6674   1.685   4.930   2.424  0.0767  0.4358  0.7180
  737poe    c23 6675   1.819   4.886   2.425  0.0295  0.2719  0.0141
  737poe    c23 6676   1.830   4.747   2.361  0.4880 -0.0286  0.7315
  737poe     o2 6677   1.749   4.652   2.427 -0.3648 -0.0482 -0.2992
  737poe    c23 6678   1.795   4.519   2.427 -0.0932  0.0371  0.6980
  737poe    c23 6679   1.679   4.430   2.475 -0.3650 -0.0520 -0.1129
  737poe     o2 6680   1.629   4.477   2.598  0.3683  0.0857  0.1427
  737poe    c23 6681   1.533   4.387   2.648  0.0493  0.4281  0.1558
  737poe    c23 6682   1.475   4.446   2.778 -0.7529 -0.0128  0.0069
  737poe     o2 6683   1.502   4.584   2.787 -0.1564 -0.1206 -0.0333
  737poe    c31 6684   1.477   4.623   2.920 -0.3438 -0.5458  0.0567
  738poe    c31 6685   0.388   2.766   6.422  0.0386  0.6460  0.5041
  738poe     o2 6686   0.411   2.819   6.294  0.9473  0.0665  0.4249
  738poe    c23 6687   0.549   2.820   6.261  0.8032 -0.1400 -0.2035
  738poe    c23 6688   0.579   2.881   6.124  0.3295  0.2080 -0.1555
  738poe     o2 6689   0.476   2.975   6.100  0.1840  0.0492 -0.1514
  738poe    c23 6690   0.494   3.038   5.976 -0.2510 -0.1631 -0.3261
  738poe    c23 6691   0.370   3.129   5.968 -0.2075 -0.0756 -0.0164
  738poe     o2 6692   0.255   3.062   6.017 -0.4079  0.3014  0.0289
  738poe    c23 6693   0.146   3.141   6.061 -0.2236  0.3884  0.3312
  738poe    c23 6694   0.052   3.048   6.139  0.0622  0.3204  0.5946
  738poe     o2 6695   0.136   2.980   6.231  0.1427 -0.2841  0.0789
  738poe    c31 6696   0.042   2.931   6.324  0.3507 -0.3378  0.2604
  739poe    c31 6697   5.952   1.765   4.566 -0.1269 -0.0564 -0.0602
  739poe     o2 6698   5.953   1.687   4.448  0.6822  0.7514 -0.5999
  739poe    c23 6699   6.019   1.566   4.479 -0.4672  0.3036  0.1656
  739poe    c23 6700   6.083   1.510   4.351 -0.7205 -0.0447  0.1913
  739poe     o2 6701   5.976   1.520   4.259 -0.4891 -0.6448 -0.1498
  739poe    c23 6702   6.033   1.508   4.130  0.7196  1.0235  0.1820
  739poe    c23 6703   5.939   1.588   4.039 -0.5383 -0.0811  0.4788
  739poe     o2 6704   5.913   1.699   4.122  0.5110  0.2815  0.3366
  739poe    c23 6705   5.848   1.810   4.063 -0.0210 -0.0503  0.2864
  739poe    c23 6706   5.810   1.917   4.168 -0.1693 -0.0420  0.2245
  739poe     o2 6707   5.776   1.837   4.279  0.0670 -0.1652  0.2104
  739poe    c31 6708   5.659   1.895   4.331  0.1691  0.0377  0.2147
  740poe    c31 6709   2.406   3.306   3.088 -0.3797  0.3579  0.1026
  740poe     o2 6710   2.331   3.204   3.149 -0.1871 -0.0525 -0.3389
  740poe    c23 6711   2.260   3.246   3.264  0.2033  0.1675 -0.1788
  740poe    c23 6712   2.224   3.118   3.341  0.3487  0.0081 -0.3748
  740poe     o2 6713   2.125   3.045   3.272 -0.2502 -0.1026  0.5822
  740poe    c23 6714   2.078   2.947   3.361 -0.2478 -0.0502  0.6418
  740poe    c23 6715   2.003   2.836   3.285  0.3800  0.0189 -0.0964
  740poe     o2 6716   1.934   2.880   3.170 -0.1574 -0.1953  0.1379
  740poe    c23 6717   1.875   2.773   3.101  0.2774 -0.2397 -0.1658
  740poe    c23 6718   1.832   2.815   2.959 -0.3948 -0.1922  0.0501
  740poe     o2 6719   1.945   2.882   2.907 -0.2505 -0.7580 -0.3704
  740poe    c31 6720   1.911   2.941   2.784  0.8302 -0.1071 -0.3747
  741poe    c31 6721   3.410   3.759   4.962 -0.5680  0.3370  0.7879
  741poe     o2 6722   3.460   3.890   4.969  0.2434  0.0874 -0.1429
  741poe    c23 6723   3.346   3.973   4.983 -0.2704 -0.6491  0.0809
  741poe    c23 6724   3.411   4.111   5.005 -0.0910 -0.7368  0.1101
  741poe     o2 6725   3.502   4.109   4.897 -0.0852 -0.0079  0.0971
  741poe    c23 6726   3.574   4.229   4.882  0.0856 -0.0636  0.4507
  741poe    c23 6727   3.675   4.221   4.766  0.1306  0.9199  0.4159
  741poe     o2 6728   3.744   4.102   4.795  0.1359  0.8610  0.1659
  741poe    c23 6729   3.880   4.116   4.762  0.3077  0.0828  0.5103
  741poe    c23 6730   3.975   4.001   4.801 -0.1626 -0.0300  1.3326
  741poe     o2 6731   3.953   3.877   4.739  0.4061  0.5943 -0.1479
  741poe    c31 6732   4.076   3.808   4.735  0.4068  0.5677  0.3397
  742poe    c31 6733   6.292   5.835   5.338  0.2642 -0.1156  0.6395
  742poe     o2 6734   6.348   5.711   5.373  0.7538 -0.1185 -0.1361
  742poe    c23 6735   6.486   5.717   5.345  0.7957  0.5086  0.1973
  742poe    c23 6736   6.542   5.574   5.329 -0.6107 -0.0629  0.2491
  742poe     o2 6737   6.470   5.513   5.225  0.1195 -0.1280 -0.2270
  742poe    c23 6738   6.464   5.373   5.237 -0.0272 -0.0830  0.2213
  742poe    c23 6739   6.323   5.318   5.211  0.1150 -0.5470  0.4203
  742poe     o2 6740   6.250   5.377   5.316 -0.1104 -0.2522  0.1021
  742poe    c23 6741   6.119   5.393   5.267 -0.0276 -0.7486 -0.2900
  742poe    c23 6742   6.042   5.438   5.392  0.0746  0.0087 -0.4909
  742poe     o2 6743   6.100   5.546   5.461 -0.0235  0.2323 -0.7551
  742poe    c31 6744   6.011   5.596   5.559  0.0321  0.3198 -0.7481
  743poe    c31 6745   2.471   2.628   2.287 -0.2246  0.0918  0.0809
  743poe     o2 6746   2.391   2.580   2.181  0.1154  0.5088 -0.3689
  743poe    c23 6747   2.406   2.655   2.063  0.0936  0.2719 -0.5248
  743poe    c23 6748   2.400   2.576   1.932  0.1758 -0.6345  0.0094
  743poe     o2 6749   2.279   2.505   1.918  0.1530 -0.5384 -0.2912
  743poe    c23 6750   2.186   2.578   1.840  0.0865 -0.2509  0.0581
  743poe    c23 6751   2.089   2.469   1.791 -0.3210  0.0847  0.1210
  743poe     o2 6752   2.045   2.376   1.886  0.2336  0.0452  0.3398
  743poe    c23 6753   1.971   2.268   1.832 -0.1481  0.3501  0.2514
  743poe    c23 6754   1.923   2.174   1.944 -0.4723  0.1899 -0.0226
  743poe     o2 6755   2.017   2.180   2.048 -0.2586  0.5628 -0.2356
  743poe    c31 6756   1.980   2.107   2.163  0.4356  0.0094 -0.3580
  744poe    c31 6757   3.340   2.339   3.031  0.0491  0.1681 -0.5446
  744poe     o2 6758   3.474   2.310   3.063 -0.1308 -0.0128  0.0622
  744poe    c23 6759   3.513   2.198   2.986  0.1805  0.5081 -0.5444
  744poe    c23 6760   3.665   2.225   2.984  0.2569  0.2141  0.7442
  744poe     o2 6761   3.691   2.362   2.968 -0.1182  0.3022  0.8604
  744poe    c23 6762   3.829   2.389   2.953 -0.1386  0.0245  0.1148
  744poe    c23 6763   3.850   2.541   2.963  0.0544  0.0474 -0.6015
  744poe     o2 6764   3.797   2.587   3.085  0.2863  0.2494 -0.5742
  744poe    c23 6765   3.895   2.659   3.155  0.1778 -0.0605 -0.0989
  744poe    c23 6766   3.839   2.745   3.269  0.0144 -0.5337  0.1818
  744poe     o2 6767   3.784   2.665   3.371  0.9262 -0.3775  0.8105
  744poe    c31 6768   3.686   2.740   3.438  0.8459  0.7570 -0.5512
  745poe    c31 6769   5.518   0.321   5.742  0.7367  0.0680  0.0110
  745poe     o2 6770   5.493   0.446   5.802  0.0754 -0.1442  0.1940
  745poe    c23 6771   5.358   0.477   5.780  0.3377  0.3578 -0.7509
  745poe    c23 6772   5.321   0.601   5.864 -0.1753 -0.2402 -0.0859
  745poe     o2 6773   5.439   0.677   5.851 -0.0725 -0.3736  0.0763
  745poe    c23 6774   5.434   0.804   5.911  0.0705 -0.2921 -0.0846
  745poe    c23 6775   5.574   0.867   5.902  0.0725 -0.1415  0.8278
  745poe     o2 6776   5.659   0.754   5.904  0.4021  0.0821  0.1002
  745poe    c23 6777   5.767   0.760   5.814  0.1383 -0.1116 -0.2358
  745poe    c23 6778   5.856   0.639   5.849  0.4573  0.1692 -0.0699
  745poe     o2 6779   5.768   0.530   5.838  0.4806  0.0975  0.4510
  745poe    c31 6780   5.841   0.409   5.841  0.4275  0.0765  1.0458
  746poe    c31 6781   4.790   2.277   4.921  0.7044  0.2509  0.2766
  746poe     o2 6782   4.740   2.404   4.955  0.2289  0.0040  0.5038
  746poe    c23 6783   4.610   2.382   5.004 -0.2677  0.4279 -0.5967
  746poe    c23 6784   4.558   2.513   5.064  0.0689  0.1955  0.2155
  746poe     o2 6785   4.588   2.627   4.987  0.3267  0.1215  0.2080
  746poe    c23 6786   4.517   2.740   5.032 -0.5697 -0.1009 -0.5972
  746poe    c23 6787   4.547   2.864   4.945 -0.0590  0.0202 -0.2560
  746poe     o2 6788   4.686   2.870   4.920 -0.0312 -0.0595 -0.1278
  746poe    c23 6789   4.716   2.979   4.835  0.1225 -0.3888 -0.4996
  746poe    c23 6790   4.866   3.009   4.851 -0.0855  0.2158  0.4071
  746poe     o2 6791   4.941   2.893   4.819 -0.2465  0.4397 -0.8487
  746poe    c31 6792   5.079   2.919   4.815 -0.0941 -0.0882  0.3563
  747poe    c31 6793   1.938   3.953   6.033  0.3045  0.2384 -0.0563
  747poe     o2 6794   1.965   4.091   6.035 -0.0949  0.3144  0.1340
  747poe    c23 6795   2.078   4.124   6.112  0.3700 -0.7149 -0.0911
  747poe    c23 6796   2.037   4.235   6.211  0.2365 -0.2585 -0.6540
  747poe     o2 6797   2.007   4.334   6.115  0.0751  0.2932 -0.0432
  747poe    c23 6798   1.954   4.452   6.171  0.0360  0.1238  0.2824
  747poe    c23 6799   1.920   4.547   6.055 -0.3417  0.1924  0.4479
  747poe     o2 6800   1.846   4.476   5.958  0.2846 -0.3075  0.3324
  747poe    c23 6801   1.890   4.495   5.825 -0.3378 -0.5806  0.0819
  747poe    c23 6802   1.870   4.369   5.739 -0.4525 -0.3755 -0.1909
  747poe     o2 6803   1.933   4.261   5.803 -0.1445  0.0921  0.3055
  747poe    c31 6804   2.030   4.207   5.715  0.3353  0.5150  0.5712
  748poe    c31 6805   2.684   4.585   4.256 -0.4275 -0.2688 -0.2309
  748poe     o2 6806   2.548   4.603   4.224 -0.5556  0.0817  0.4826
  748poe    c23 6807   2.487   4.479   4.253  0.0538 -0.2630  0.3154
  748poe    c23 6808   2.345   4.521   4.298  0.0725  0.0357  0.0962
  748poe     o2 6809   2.286   4.613   4.208  0.0462  0.0916  0.1708
  748poe    c23 6810   2.161   4.665   4.248 -0.2641  0.0744 -0.7445
  748poe    c23 6811   2.140   4.779   4.147  0.0359  0.7363 -0.0694
  748poe     o2 6812   2.263   4.849   4.142 -0.0596  0.8814 -0.3704
  748poe    c23 6813   2.282   4.952   4.235  0.0034 -0.2387  0.8844
  748poe    c23 6814   2.426   5.002   4.213 -0.1732 -0.3717 -0.6955
  748poe     o2 6815   2.518   4.895   4.213 -0.2699 -0.4597 -0.2641
  748poe    c31 6816   2.649   4.946   4.200 -0.2053 -0.4325  0.4452
  749poe    c31 6817   0.498   5.533   0.201 -0.0646 -0.7552 -0.1670
  749poe     o2 6818   0.362   5.559   0.175  0.0862 -0.1969 -0.4045
  749poe    c23 6819   0.293   5.512   0.288  0.5360 -0.2073 -0.1349
  749poe    c23 6820   0.188   5.608   0.345  0.5478 -0.6743  0.6960
  749poe     o2 6821   0.085   5.629   0.251  0.7710 -0.5294  0.4863
  749poe    c23 6822  -0.040   5.581   0.294  0.4375 -0.3386 -0.2509
  749poe    c23 6823  -0.154   5.678   0.257  0.4310 -0.1280  0.3133
  749poe     o2 6824  -0.137   5.739   0.131 -0.1736 -0.8341 -0.1191
  749poe    c23 6825  -0.231   5.843   0.113  0.9680  0.2016 -0.1821
  749poe    c23 6826  -0.208   5.897  -0.030 -0.0541 -0.6728 -0.6909
  749poe     o2 6827  -0.068   5.893  -0.043  0.0638  0.0925  0.1901
  749poe    c31 6828  -0.033   5.976  -0.152 -0.6631 -0.2494 -0.3110
  750poe    c31 6829   5.061   5.798   6.170 -0.6287  0.2669  0.3796
  750poe     o2 6830   4.973   5.713   6.241 -0.1687 -0.2075  0.3803
  750poe    c23 6831   4.866   5.668   6.161 -0.1749  0.2917  0.1019
  750poe    c23 6832   4.781   5.565   6.237  0.2076 -0.3079 -0.2767
  750poe     o2 6833   4.703   5.599   6.350 -0.0846 -0.5082 -0.4162
  750poe    c23 6834   4.655   5.478   6.406 -0.7940 -0.0828 -0.0970
  750poe    c23 6835   4.601   5.506   6.547 -0.8560  0.6992 -0.2662
  750poe     o2 6836   4.693   5.582   6.622 -0.4072  0.1957 -0.2940
  750poe    c23 6837   4.666   5.563   6.759  0.2495 -0.1101 -0.2059
  750poe    c23 6838   4.803   5.543   6.828 -0.1038  0.4581  0.6784
  750poe     o2 6839   4.891   5.643   6.785  0.0775  0.0290  0.0353
  750poe    c31 6840   5.014   5.626   6.852  0.0482  0.1496  0.1210
  751poe    c31 6841   5.915   6.625   0.876  0.2922 -0.0647  0.1825
  751poe     o2 6842   5.784   6.583   0.908  0.2730 -0.0872  0.0744
  751poe    c23 6843   5.723   6.691   0.976  0.0494 -0.1678  0.0018
  751poe    c23 6844   5.573   6.680   1.010  0.0283  0.0262 -0.0282
  751poe     o2 6845   5.543   6.558   1.074 -0.0029  0.1766  0.2496
  751poe    c23 6846   5.411   6.551   1.121 -0.0243  0.0640  0.1746
  751poe    c23 6847   5.360   6.407   1.102 -0.1323  0.1722 -0.3666
  751poe     o2 6848   5.446   6.329   1.181 -0.5657  0.0189 -0.0478
  751poe    c23 6849   5.433   6.189   1.174 -0.4954  0.0067  0.0572
  751poe    c23 6850   5.546   6.134   1.263 -0.2483  0.0576 -0.2249
  751poe     o2 6851   5.674   6.172   1.217 -0.3320 -0.0353 -0.5364
  751poe    c31 6852   5.773   6.130   1.309 -0.5756 -0.2219 -0.3599
  752poe    c31 6853   2.251   1.324   5.097  0.6327 -0.4532  0.4536
  752poe     o2 6854   2.265   1.184   5.092  0.4538 -0.4792  0.6597
  752poe    c23 6855   2.151   1.113   5.051  0.2757  0.4113 -0.4239
  752poe    c23 6856   2.182   0.970   5.002  0.2819  0.1193  0.4216
  752poe     o2 6857   2.269   0.905   5.092  0.3372 -0.2193  0.1252
  752poe    c23 6858   2.364   0.827   5.023  0.0535 -0.3557 -0.1142
  752poe    c23 6859   2.482   0.836   5.121  0.1855 -0.0166 -0.3031
  752poe     o2 6860   2.492   0.975   5.142  0.0217 -0.0608  0.0878
  752poe    c23 6861   2.604   1.006   5.221  0.1497 -0.0225 -0.1061
  752poe    c23 6862   2.594   1.152   5.271  0.3949 -0.0987  0.1697
  752poe     o2 6863   2.472   1.167   5.340 -0.0062  0.1147 -0.5748
  752poe    c31 6864   2.486   1.286   5.413  0.3532 -0.1268 -0.2446
  753poe    c31 6865   3.788   0.934   0.265  0.2990  0.3703  0.5556
  753poe     o2 6866   3.662   0.996   0.253 -0.0825 -0.4729  0.1121
  753poe    c23 6867   3.673   1.126   0.199 -0.4729 -0.2637  0.5344
  753poe    c23 6868   3.536   1.181   0.154  0.0307  0.6519  0.0970
  753poe     o2 6869   3.434   1.129   0.236  0.4230 -0.1048  0.1203
  753poe    c23 6870   3.306   1.136   0.177  0.3132 -0.4033  0.3243
  753poe    c23 6871   3.218   1.033   0.251 -1.2122  0.0954 -0.7349
  753poe     o2 6872   3.297   0.916   0.251 -0.5950  0.4967  0.5875
  753poe    c23 6873   3.238   0.809   0.321 -0.2110 -0.1213 -0.0219
  753poe    c23 6874   3.329   0.689   0.288 -0.2203 -0.0561 -0.2880
  753poe     o2 6875   3.466   0.721   0.295 -0.2276  0.0079 -0.4287
  753poe    c31 6876   3.537   0.603   0.266 -0.2083 -0.1703  0.3161
  754poe    c31 6877   3.444   2.138   2.407  0.0325 -0.2814  0.5444
  754poe     o2 6878   3.411   2.270   2.440  0.4912 -0.0683  0.1694
  754poe    c23 6879   3.443   2.303   2.574  0.5505  0.1412  0.1045
  754poe    c23 6880   3.450   2.456   2.590 -0.2504  0.2211 -0.2470
  754poe     o2 6881   3.516   2.513   2.480  0.0750  0.0265 -0.1555
  754poe    c23 6882   3.546   2.645   2.521  0.0588 -0.0435  0.0790
  754poe    c23 6883   3.627   2.707   2.405  0.1926 -0.2487  0.0623
  754poe     o2 6884   3.557   2.685   2.285  0.0611  0.0403  0.0867
  754poe    c23 6885   3.638   2.739   2.183 -0.1326  0.5061  0.1767
  754poe    c23 6886   3.587   2.690   2.046 -0.0776 -0.1885  0.4023
  754poe     o2 6887   3.617   2.553   2.032  0.0753 -0.1263  0.1267
  754poe    c31 6888   3.603   2.512   1.898 -0.1381 -0.4109  0.2352
  755poe    c31 6889   4.103   5.694   3.103  0.2789 -0.5545  0.1224
  755poe     o2 6890   4.192   5.761   3.016 -0.4090  0.1033 -0.0834
  755poe    c23 6891   4.150   5.723   2.887  0.1201 -0.0476 -0.2134
  755poe    c23 6892   4.169   5.838   2.787  0.1656  0.1426  0.0124
  755poe     o2 6893   4.293   5.894   2.820  0.2500  0.3196 -0.5863
  755poe    c23 6894   4.314   6.024   2.769  0.0461  0.6390  0.1250
  755poe    c23 6895   4.462   6.064   2.782  0.2644 -0.2872  0.5618
  755poe     o2 6896   4.483   6.079   2.920  0.5814  0.1946  0.4640
  755poe    c23 6897   4.571   6.189   2.933  0.0457  0.7454 -0.4828
  755poe    c23 6898   4.574   6.241   3.078 -0.1155  0.6761 -0.4533
  755poe     o2 6899   4.608   6.144   3.175  0.2162  0.7787 -0.4638
  755poe    c31 6900   4.590   6.201   3.303  0.6527 -0.2278  0.0537
  756poe    c31 6901   2.638   2.209   4.920  0.3404  0.0110 -0.3745
  756poe     o2 6902   2.682   2.180   5.051  0.3845  0.0837 -0.3725
  756poe    c23 6903   2.799   2.244   5.096  0.1534  0.1089  0.2101
  756poe    c23 6904   2.821   2.211   5.245  0.3373 -0.5115  0.0507
  756poe     o2 6905   2.801   2.073   5.263 -0.4593 -0.3659  0.2954
  756poe    c23 6906   2.841   2.029   5.390 -0.2696 -0.2460  0.2780
  756poe    c23 6907   2.769   1.895   5.416 -0.1979 -0.2544  0.4378
  756poe     o2 6908   2.635   1.906   5.372 -0.1422  0.1627  0.3641
  756poe    c23 6909   2.560   1.787   5.385 -0.2727  0.1867 -0.1533
  756poe    c23 6910   2.427   1.823   5.316 -0.4205  0.3991  0.2403
  756poe     o2 6911   2.472   1.860   5.188  0.2360  0.3937  0.4649
  756poe    c31 6912   2.357   1.886   5.110  0.3361 -0.8928 -0.1489
  757poe    c31 6913   1.156   2.598   6.043  0.5278 -0.2972 -0.2315
  757poe     o2 6914   1.065   2.516   5.973  0.0833  0.2114 -0.2630
  757poe    c23 6915   1.102   2.380   5.959  0.0723  0.2513 -0.6883
  757poe    c23 6916   1.001   2.297   5.878 -0.1650  0.0701 -0.2056
  757poe     o2 6917   0.984   2.333   5.743 -0.3150 -0.2073 -0.2623
  757poe    c23 6918   0.866   2.276   5.692 -0.7524  0.0151  0.4939
  757poe    c23 6919   0.780   2.396   5.646  0.1047  0.3605 -0.2300
  757poe     o2 6920   0.784   2.492   5.749 -0.5068 -0.0158  0.1484
  757poe    c23 6921   0.709   2.607   5.716  0.4015  0.5971  0.1975
  757poe    c23 6922   0.728   2.712   5.827 -0.2876  0.1991  0.6964
  757poe     o2 6923   0.868   2.707   5.846 -0.1598 -0.4248 -0.3601
  757poe    c31 6924   0.907   2.833   5.894 -0.0155 -0.6615  0.1478
  758poe    c31 6925   4.576   5.886   6.013  0.1880 -0.4074  0.1215
  758poe     o2 6926   4.667   5.841   5.915  0.4243  0.0578  0.1268
  758poe    c23 6927   4.636   5.708   5.881 -0.3954  0.2943 -0.0922
  758poe    c23 6928   4.717   5.683   5.752  0.1225  0.4246  0.2029
  758poe     o2 6929   4.838   5.747   5.786  0.0953  0.3084  0.5244
  758poe    c23 6930   4.916   5.772   5.672 -0.2695  0.7719  0.3698
  758poe    c23 6931   5.022   5.875   5.714  0.3574  0.0222  0.6492
  758poe     o2 6932   4.942   5.980   5.764 -0.2526 -0.1561  0.0486
  758poe    c23 6933   5.027   6.077   5.821 -0.3904 -0.0033 -0.0060
  758poe    c23 6934   4.929   6.170   5.894 -0.6018  0.0914 -0.4037
  758poe     o2 6935   4.845   6.094   5.978  0.0276 -0.0782  0.0890
  758poe    c31 6936   4.873   6.127   6.112 -0.4751  0.3628  0.0921
  759poe    c31 6937   5.694   0.268   1.226 -0.5206 -0.2971  0.0757
  759poe     o2 6938   5.765   0.345   1.320 -0.0591 -0.3087 -0.2595
  759poe    c23 6939   5.695   0.367   1.440  0.3903  0.3233 -0.1034
  759poe    c23 6940   5.797   0.443   1.526 -0.0607  0.2885  0.4682
  759poe     o2 6941   5.918   0.374   1.503 -0.2382 -0.1155  0.7365
  759poe    c23 6942   6.028   0.440   1.562  0.5840 -0.9850  0.1986
  759poe    c23 6943   6.153   0.367   1.511  1.0532 -0.1987  0.2127
  759poe     o2 6944   6.115   0.368   1.375  0.4690  0.2581  0.3767
  759poe    c23 6945   6.213   0.311   1.292 -0.1699 -0.3267  0.0096
  759poe    c23 6946   6.152   0.323   1.151  0.3552  0.0625 -0.1889
  759poe     o2 6947   6.025   0.263   1.158  0.5393 -0.3317 -0.2291
  759poe    c31 6948   5.992   0.229   1.025  0.6965 -0.0872 -0.3306
  760poe    c31 6949   2.926   1.627   6.592 -0.2092  0.3090  0.1236
  760poe     o2 6950   2.984   1.703   6.488 -0.0118 -0.2485 -0.1793
  760poe    c23 6951   2.896   1.805   6.446 -0.2978 -0.4102  0.0238
  760poe    c23 6952   2.964   1.918   6.366 -0.0873 -0.4919  0.0871
  760poe     o2 6953   3.029   1.852   6.260 -0.2247 -0.3370 -0.0935
  760poe    c23 6954   3.056   1.925   6.142  0.4333  0.2289  0.3976
  760poe    c23 6955   3.158   1.846   6.058  0.4348  0.7964 -0.1440
  760poe     o2 6956   3.246   1.779   6.145  0.0303  0.6552  0.1649
  760poe    c23 6957   3.250   1.646   6.097 -0.6428  0.6764  0.0410
  760poe    c23 6958   3.260   1.540   6.208 -0.6453  0.2725 -0.3405
  760poe     o2 6959   3.146   1.529   6.291 -0.9250 -0.3268 -0.7973
  760poe    c31 6960   3.141   1.394   6.331  0.0781 -0.0678  0.2710
  761poe    c31 6961   2.734   2.470   5.536  0.3717  0.3234  0.5745
  761poe     o2 6962   2.619   2.546   5.506 -0.0272 -0.5746 -0.2402
  761poe    c23 6963   2.514   2.490   5.582  0.2960 -0.2228  0.4793
  761poe    c23 6964   2.392   2.583   5.580  0.1084 -0.4734 -0.1015
  761poe     o2 6965   2.324   2.576   5.457 -0.2313 -0.0362  0.0573
  761poe    c23 6966   2.226   2.677   5.446  0.1583  0.3347 -0.0134
  761poe    c23 6967   2.161   2.680   5.306 -0.1045 -0.1305  0.0981
  761poe     o2 6968   2.261   2.700   5.208 -0.3554 -0.1644 -0.1664
  761poe    c23 6969   2.219   2.766   5.091  0.1989 -0.7734 -0.7199
  761poe    c23 6970   2.338   2.767   4.993  0.1582  0.5446 -0.7752
  761poe     o2 6971   2.391   2.638   5.014 -0.3722  0.4635  0.1300
  761poe    c31 6972   2.466   2.599   4.901  0.0363  0.0673  0.5346
  762poe    c31 6973   0.264   6.750   2.555  0.0162  0.2008 -0.4417
  762poe     o2 6974   0.235   6.664   2.447 -0.2461 -0.2835  0.0100
  762poe    c23 6975   0.181   6.748   2.348 -0.7435  0.0974  0.5996
  762poe    c23 6976   0.104   6.656   2.252  0.0269  0.4883 -0.4096
  762poe     o2 6977   0.176   6.534   2.250 -0.1931  0.3488  0.0951
  762poe    c23 6978   0.094   6.432   2.200  0.3001 -0.3190  0.6371
  762poe    c23 6979   0.163   6.296   2.221  0.3275 -0.5625 -0.9338
  762poe     o2 6980   0.209   6.279   2.353 -0.6306  0.2024 -0.4885
  762poe    c23 6981   0.111   6.253   2.452  0.1367  0.2969  0.3101
  762poe    c23 6982   0.192   6.268   2.582  0.4288  0.0328  0.1616
  762poe     o2 6983   0.234   6.403   2.585  0.2368  0.0894  0.4492
  762poe    c31 6984   0.302   6.444   2.701  0.6343 -0.1574  0.3074
  763poe    c31 6985   2.636   5.915   6.292  0.3188  0.0270  0.1095
  763poe     o2 6986   2.510   5.914   6.356  0.4651  0.6443  0.4147
  763poe    c23 6987   2.432   5.831   6.273  0.3960  0.5809  0.5428
  763poe    c23 6988   2.294   5.826   6.342 -0.0982  0.5141 -0.4324
  763poe     o2 6989   2.273   5.956   6.393  0.0563  0.2899  0.2116
  763poe    c23 6990   2.141   6.006   6.389 -0.0227  0.0501 -0.3702
  763poe    c23 6991   2.155   6.160   6.386 -0.1312  0.0605 -0.3258
  763poe     o2 6992   2.272   6.193   6.456 -0.2359  0.1014 -0.1700
  763poe    c23 6993   2.321   6.325   6.446  0.1666 -0.0693 -0.5042
  763poe    c23 6994   2.460   6.310   6.510 -0.1073  0.0269  0.1185
  763poe     o2 6995   2.532   6.206   6.449 -0.1759 -0.3871  0.7327
  763poe    c31 6996   2.665   6.203   6.495 -0.0346  0.1126  0.3592
  764poe    c31 6997   4.794   3.006   3.363  0.1538 -0.0637  0.1658
  764poe     o2 6998   4.762   3.082   3.478 -0.1568  0.3828 -0.2108
  764poe    c23 6999   4.688   3.191   3.428 -0.8449 -0.1198 -0.3029
  764poe    c23 7000   4.642   3.289   3.537  0.0084 -0.1451  0.0862
  764poe     o2 7001   4.648   3.206   3.650 -0.0664 -0.1299  0.1017
  764poe    c23 7002   4.627   3.269   3.774 -0.7647  0.1436 -0.1504
  764poe    c23 7003   4.585   3.152   3.864  0.3812 -0.2164 -0.0622
  764poe     o2 7004   4.689   3.059   3.844  0.6572 -0.0502  0.5570
  764poe    c23 7005   4.661   2.930   3.894 -0.1951 -0.1536 -0.1697
  764poe    c23 7006   4.747   2.829   3.816 -0.0807 -0.1524 -0.0441
  764poe     o2 7007   4.792   2.886   3.696 -0.1522 -0.3135 -0.1478
  764poe    c31 7008   4.879   2.797   3.629  0.0302 -0.2642  0.0233
  765poe    c31 7009   6.199   2.537   1.671 -0.0690  0.2003 -0.2518
  765poe     o2 7010   6.313   2.618   1.688 -0.0960  0.2896 -0.4927
  765poe    c23 7011   6.432   2.562   1.636 -0.4123 -0.1523 -0.7416
  765poe    c23 7012   6.551   2.659   1.646 -0.0325 -0.6019 -0.8500
  765poe     o2 7013   6.500   2.774   1.581  0.5103 -0.1157 -0.4243
  765poe    c23 7014   6.597   2.876   1.585 -0.0062  0.3528  0.6434
  765poe    c23 7015   6.533   3.009   1.540 -0.6677 -0.2338 -0.1870
  765poe     o2 7016   6.437   3.040   1.639 -0.3920 -0.3637  0.1237
  765poe    c23 7017   6.475   3.145   1.725 -0.1930 -0.3086 -0.0295
  765poe    c23 7018   6.353   3.183   1.810 -0.3447 -0.0680 -0.3503
  765poe     o2 7019   6.309   3.091   1.909  0.6371 -0.0891  0.0729
  765poe    c31 7020   6.240   3.152   2.016 -0.2326 -0.2684 -0.3811
  766poe    c31 7021   4.896   6.126   1.728  0.6086  0.0689  0.0672
  766poe     o2 7022   4.777   6.145   1.655  0.1350 -0.2894  0.7334
  766poe    c23 7023   4.703   6.025   1.659 -0.1095 -0.2172 -0.7675
  766poe    c23 7024   4.579   6.034   1.570 -0.6290 -0.0202 -0.0328
  766poe     o2 7025   4.497   6.135   1.625  0.2695  0.8389 -0.2438
  766poe    c23 7026   4.403   6.198   1.541 -0.3937  0.2384  0.0377
  766poe    c23 7027   4.466   6.267   1.418  0.3899 -0.4423  0.0462
  766poe     o2 7028   4.577   6.330   1.478 -0.0212  0.1944  0.1479
  766poe    c23 7029   4.643   6.416   1.387  0.3699 -0.5915 -0.3258
  766poe    c23 7030   4.725   6.507   1.480 -0.3479 -0.5430  0.2746
  766poe     o2 7031   4.784   6.420   1.575  0.2388 -0.0207  0.4008
  766poe    c31 7032   4.884   6.496   1.638  0.3089  0.0909  0.1544
  767poe    c31 7033   0.969   4.501   6.220 -0.1453  0.4564  0.2918
  767poe     o2 7034   1.010   4.370   6.190 -0.2533  0.5656 -0.3434
  767poe    c23 7035   1.136   4.349   6.250 -0.3704 -0.1008 -0.3301
  767poe    c23 7036   1.159   4.199   6.221  0.1393 -0.0234 -0.3416
  767poe     o2 7037   1.124   4.173   6.087 -0.8081 -0.6667  0.0163
  767poe    c23 7038   1.184   4.053   6.044 -0.1320 -0.2435 -0.2471
  767poe    c23 7039   1.166   4.059   5.891  0.7395  0.5233 -0.3251
  767poe     o2 7040   1.029   4.065   5.860  0.5580 -0.3787  0.2575
  767poe    c23 7041   1.004   4.032   5.725  0.3455 -0.5064  0.3279
  767poe    c23 7042   0.863   4.087   5.695  0.6840 -0.0880 -0.5023
  767poe     o2 7043   0.852   4.228   5.690  0.0720 -0.0924  0.4275
  767poe    c31 7044   0.734   4.265   5.623  0.1861 -0.4071  0.0468
  768poe    c31 7045   5.846   5.690   0.671  0.2904 -0.3996 -0.7629
  768poe     o2 7046   5.850   5.665   0.809 -1.2149  0.4548 -0.5507
  768poe    c23 7047   5.865   5.784   0.884  0.2597 -0.0698  0.0267
  768poe    c23 7048   5.836   5.765   1.034  0.1586 -0.1087  0.0025
  768poe     o2 7049   5.932   5.668   1.069  0.6732  0.4553  0.1695
  768poe    c23 7050   5.919   5.647   1.208  0.2898 -0.0606  0.0607
  768poe    c23 7051   6.044   5.565   1.245  0.3088  0.0209  0.1777
  768poe     o2 7052   6.030   5.447   1.169  0.4863  0.1912 -0.1223
  768poe    c23 7053   6.151   5.376   1.179  0.2910 -0.1174  0.0932
  768poe    c23 7054   6.171   5.267   1.073 -0.3964  0.4677 -0.6486
  768poe     o2 7055   6.212   5.314   0.947  0.3542 -0.2128 -0.6661
  768poe    c31 7056   6.228   5.212   0.851 -0.0053 -0.1033 -0.8456
  769poe    c31 7057   1.327   4.781   5.196 -0.1058  0.4983  0.0444
  769poe     o2 7058   1.252   4.704   5.287  0.4541 -0.4390 -0.2738
  769poe    c23 7059   1.114   4.716   5.261  0.3878  0.1696  0.3237
  769poe    c23 7060   1.041   4.664   5.386 -0.2124  0.2023 -0.0119
  769poe     o2 7061   1.088   4.535   5.419 -0.6212 -0.0210 -0.2896
  769poe    c23 7062   1.047   4.498   5.549 -0.7702 -0.0636 -0.3484
  769poe    c23 7063   1.160   4.408   5.600 -0.3015  0.4885 -0.4005
  769poe     o2 7064   1.276   4.487   5.589  0.1968 -0.1167  0.3324
  769poe    c23 7065   1.298   4.567   5.703 -0.6211  0.4024  0.1381
  769poe    c23 7066   1.419   4.651   5.658 -0.4319  0.0358 -0.0440
  769poe     o2 7067   1.416   4.710   5.530  0.2323 -0.2758 -0.2043
  769poe    c31 7068   1.503   4.822   5.522 -0.8124  0.5537 -0.1179
  770poe    c31 7069   3.463   3.373   4.917  0.0227  0.0383 -0.7091
  770poe     o2 7070   3.598   3.377   4.875  0.3596 -0.4568  0.2686
  770poe    c23 7071   3.695   3.417   4.969  0.1748  0.3677  0.1254
  770poe    c23 7072   3.831   3.440   4.902  0.0336 -0.6955 -0.5620
  770poe     o2 7073   3.886   3.326   4.841  0.0261 -0.9329 -0.1280
  770poe    c23 7074   4.022   3.353   4.820 -0.1553 -0.0508 -0.2143
  770poe    c23 7075   4.080   3.222   4.763 -0.1385 -0.0004 -0.3131
  770poe     o2 7076   3.987   3.196   4.660 -0.1787  0.0428 -0.2874
  770poe    c23 7077   4.017   3.066   4.614 -0.4390 -0.2858  0.4552
  770poe    c23 7078   3.923   3.020   4.501 -0.2945 -0.0889  0.2530
  770poe     o2 7079   3.785   3.046   4.518 -0.3374 -0.1251 -0.0435
  770poe    c31 7080   3.719   2.924   4.491  0.3101 -0.6037  0.4993
  771poe    c31 7081   2.386   0.869   6.622 -0.6614  0.5453 -0.3143
  771poe     o2 7082   2.353   0.742   6.674  0.3304  0.3079 -0.2384
  771poe    c23 7083   2.393   0.734   6.809  0.3901  0.2428 -0.2595
  771poe    c23 7084   2.291   0.650   6.888  0.4038  0.0225 -0.4748
  771poe     o2 7085   2.270   0.525   6.827  0.0063 -0.2315  0.1759
  771poe    c23 7086   2.212   0.426   6.909  0.1272 -0.1055  0.4127
  771poe    c23 7087   2.158   0.328   6.804 -0.0446  0.2837  0.1355
  771poe     o2 7088   2.103   0.403   6.698 -0.5058 -0.3382 -0.0713
  771poe    c23 7089   1.965   0.431   6.705 -0.2623  0.7628  0.3973
  771poe    c23 7090   1.947   0.520   6.580 -0.1011  0.2962  0.0363
  771poe     o2 7091   2.054   0.613   6.585  0.3276 -0.1759 -0.2998
  771poe    c31 7092   2.029   0.711   6.486  0.0318 -0.2497 -0.3006
  772poe    c31 7093   1.252   5.182   0.357  0.0195 -0.1641  0.0847
  772poe     o2 7094   1.328   5.121   0.460 -0.0260  0.4112  0.4636
  772poe    c23 7095   1.259   5.120   0.583  0.0120 -0.3584  0.4851
  772poe    c23 7096   1.350   5.180   0.692  0.1847  0.0934  0.0993
  772poe     o2 7097   1.477   5.129   0.659  0.1766  0.2200 -0.1244
  772poe    c23 7098   1.539   5.039   0.748  0.0733 -0.0138 -0.2884
  772poe    c23 7099   1.687   5.040   0.705  0.2073  0.3352  0.1755
  772poe     o2 7100   1.701   5.021   0.566  0.1686 -0.0717  0.2262
  772poe    c23 7101   1.691   4.886   0.526  0.3839 -0.0494  0.0895
  772poe    c23 7102   1.672   4.888   0.374 -0.3503 -0.3494  0.1729
  772poe     o2 7103   1.560   4.969   0.347  0.0977  0.0991 -0.3731
  772poe    c31 7104   1.530   4.961   0.209 -0.0177 -0.3478 -0.3245
  773poe    c31 7105   2.592   3.902   0.038 -0.3830 -0.3641 -0.4352
  773poe     o2 7106   2.625   3.945  -0.092  0.2226 -0.4410 -0.3095
  773poe    c23 7107   2.534   3.895  -0.188 -0.1475 -0.0946 -0.1426
  773poe    c23 7108   2.558   3.966  -0.323  0.1861  0.5706  0.2560
  773poe     o2 7109   2.541   4.105  -0.315  0.0956  0.5399  0.5889
  773poe    c23 7110   2.587   4.176  -0.428 -0.3634 -0.3111 -0.1430
  773poe    c23 7111   2.485   4.282  -0.474  0.1961  0.3977  0.2210
  773poe     o2 7112   2.483   4.357  -0.355 -0.3034  0.2255  0.3237
  773poe    c23 7113   2.393   4.466  -0.355 -0.1314  0.3786 -0.9044
  773poe    c23 7114   2.431   4.559  -0.239 -0.1257 -0.3024 -0.3519
  773poe     o2 7115   2.448   4.471  -0.130 -0.7362  0.1075  0.0837
  773poe    c31 7116   2.527   4.517  -0.022  0.3589 -0.5330 -0.4222
  774poe    c31 7117   3.216   3.618   3.387  0.2397 -0.0017  0.7532
  774poe     o2 7118   3.187   3.481   3.400 -0.2963  0.0558  0.1942
  774poe    c23 7119   3.140   3.464   3.532 -0.5935  0.3557  0.1292
  774poe    c23 7120   3.134   3.313   3.559  0.1138  0.1923 -0.5798
  774poe     o2 7121   3.208   3.251   3.457  0.4486  0.1424 -0.3076
  774poe    c23 7122   3.298   3.150   3.499  0.3507  0.3967  0.5257
  774poe    c23 7123   3.380   3.100   3.379 -0.4654  0.0780  0.0871
  774poe     o2 7124   3.410   3.221   3.312 -0.5127 -0.0138 -0.0992
  774poe    c23 7125   3.429   3.191   3.175  0.5031 -0.0561  0.0386
  774poe    c23 7126   3.447   3.324   3.101 -0.3653 -0.0505 -0.1796
  774poe     o2 7127   3.361   3.422   3.157  0.2081  0.4234 -0.1123
  774poe    c31 7128   3.411   3.546   3.113  0.4268  0.5078  0.3747
  775poe    c31 7129   5.979   6.169   5.565 -0.4241  0.4026  0.5632
  775poe     o2 7130   5.859   6.106   5.525  0.1110 -0.3593  0.1182
  775poe    c23 7131   5.791   6.024   5.618 -0.0377 -0.0486  0.2873
  775poe    c23 7132   5.651   5.989   5.565  0.0958 -0.3102  0.1089
  775poe     o2 7133   5.563   6.098   5.548  0.3180 -0.1458  0.0122
  775poe    c23 7134   5.432   6.049   5.537  0.3321 -0.0794 -0.4861
  775poe    c23 7135   5.336   6.160   5.491 -0.1862 -0.3226 -0.0076
  775poe     o2 7136   5.397   6.239   5.392  0.0738 -0.1923  0.2545
  775poe    c23 7137   5.333   6.364   5.376  0.4060 -0.1002 -0.3954
  775poe    c23 7138   5.428   6.471   5.319  0.4296  0.1804  0.1707
  775poe     o2 7139   5.560   6.439   5.359  0.5958  0.4345 -0.1718
  775poe    c31 7140   5.662   6.532   5.328  0.0572  0.7452 -1.0496
  776poe    c31 7141   4.539   2.115   4.112  0.0178 -0.0475  0.1758
  776poe     o2 7142   4.487   2.033   4.215  0.2148 -0.3783  0.0118
  776poe    c23 7143   4.359   2.082   4.247  0.2692 -0.4197  0.2887
  776poe    c23 7144   4.317   2.051   4.392 -0.4117 -0.5507  0.0657
  776poe     o2 7145   4.335   1.918   4.436 -0.4034 -0.6708 -0.3011
  776poe    c23 7146   4.279   1.896   4.563  0.2199 -0.1708  0.0618
  776poe    c23 7147   4.363   1.782   4.625 -0.3347 -0.1759  0.8220
  776poe     o2 7148   4.356   1.673   4.535 -0.2591  0.1743  0.3847
  776poe    c23 7149   4.412   1.570   4.614 -0.1462 -0.2410 -0.2331
  776poe    c23 7150   4.419   1.444   4.526 -0.3433 -0.3404 -0.1078
  776poe     o2 7151   4.491   1.473   4.408 -0.5089  0.1886 -0.0816
  776poe    c31 7152   4.502   1.361   4.323  0.3844  0.1826  0.0292
  777poe    c31 7153   1.935   5.622   5.657  0.1518 -0.3746  0.1620
  777poe     o2 7154   2.045   5.695   5.706 -0.4203  0.3271  0.4221
  777poe    c23 7155   2.078   5.658   5.838  0.2620  0.3957  0.2753
  777poe    c23 7156   2.146   5.777   5.909  0.1489  0.2540  0.6237
  777poe     o2 7157   2.065   5.886   5.873 -0.6633 -0.3672  0.5239
  777poe    c23 7158   2.123   6.009   5.913 -0.7704 -0.1851  0.1280
  777poe    c23 7159   2.072   6.114   5.813  0.4333  0.0891 -0.2070
  777poe     o2 7160   2.106   6.059   5.688  0.3592 -0.1961 -0.1033
  777poe    c23 7161   2.226   6.109   5.634  0.3291 -0.3572 -0.3230
  777poe    c23 7162   2.275   6.009   5.528  0.6544  0.1448 -0.6504
  777poe     o2 7163   2.249   5.875   5.563  0.1059  0.3536 -0.2459
  777poe    c31 7164   2.323   5.813   5.460  0.3306 -0.0280  0.1456
  778poe    c31 7165   4.889   3.845   0.488  0.3089 -0.0867  0.3219
  778poe     o2 7166   4.843   3.713   0.468 -0.1453  0.0281  0.5761
  778poe    c23 7167   4.934   3.615   0.515  0.0578  0.0163  0.1632
  778poe    c23 7168   4.895   3.540   0.643 -0.0110  0.0802  0.1798
  778poe     o2 7169   4.912   3.612   0.763  0.1456 -0.1379  0.2901
  778poe    c23 7170   4.855   3.544   0.873  0.0038 -0.0826  0.2512
  778poe    c23 7171   4.912   3.600   1.005  0.3389  0.6598 -0.1999
  778poe     o2 7172   4.861   3.731   1.024 -0.3853  0.3286  0.1786
  778poe    c23 7173   4.917   3.785   1.142 -0.2861 -0.2111  0.3828
  778poe    c23 7174   4.875   3.929   1.176  0.0927  0.0543 -0.2563
  778poe     o2 7175   4.926   4.017   1.078  0.0565 -0.1639 -0.4739
  778poe    c31 7176   4.816   4.069   1.007 -0.2177  0.2381  0.2343
  779poe    c31 7177   5.926   6.133   6.041 -0.0515 -0.7096 -0.1053
  779poe     o2 7178   5.869   6.125   6.170  0.3690  0.5945  0.1754
  779poe    c23 7179   5.740   6.071   6.169  0.4843  0.3178  0.2249
  779poe    c23 7180   5.683   6.064   6.312 -0.0348  0.2474  0.0166
  779poe     o2 7181   5.765   5.995   6.403  0.2463 -0.3227 -0.6571
  779poe    c23 7182   5.740   5.857   6.417  0.0694 -0.2461 -0.1815
  779poe    c23 7183   5.821   5.798   6.535 -0.2441 -0.5007 -0.0924
  779poe     o2 7184   5.950   5.854   6.544 -0.4527 -0.0428  0.1138
  779poe    c23 7185   6.046   5.767   6.600  0.1004  0.2307 -0.3998
  779poe    c23 7186   6.177   5.819   6.540  0.2879 -0.0600 -0.2467
  779poe     o2 7187   6.160   5.957   6.513  0.4088  0.0684  0.3297
  779poe    c31 7188   6.283   5.998   6.458  0.2105 -0.2462 -0.3558
  780poe    c31 7189   3.878   4.304   1.672 -0.8504  0.2099  0.8319
  780poe     o2 7190   3.778   4.277   1.577 -0.3180  0.2653  0.2471
  780poe    c23 7191   3.670   4.363   1.609 -0.3891 -0.0957  0.9925
  780poe    c23 7192   3.572   4.354   1.491 -0.3459  0.3087  0.9261
  780poe     o2 7193   3.579   4.217   1.459  0.3929  0.5520 -0.0142
  780poe    c23 7194   3.549   4.196   1.323  0.2091  0.3519  0.0568
  780poe    c23 7195   3.582   4.047   1.310  0.2685  0.3697  0.0061
  780poe     o2 7196   3.711   4.032   1.366  0.1476  0.0762  0.2132
  780poe    c23 7197   3.792   3.928   1.317  0.3269  0.2860  0.0585
  780poe    c23 7198   3.921   3.984   1.380  0.2807  0.1394  0.2824
  780poe     o2 7199   3.892   4.025   1.512 -0.1258  0.6467  0.0356
  780poe    c31 7200   3.958   3.934   1.597 -0.0234  0.4518 -0.2503
  781poe    c31 7201   5.939   3.054   2.441 -0.4233 -0.1025  0.2625
  781poe     o2 7202   5.884   3.033   2.570 -0.5049  0.2100  0.2796
  781poe    c23 7203   5.788   2.930   2.565 -0.1452 -0.1080 -0.1539
  781poe    c23 7204   5.754   2.885   2.708 -0.0730 -0.2814 -0.1913
  781poe     o2 7205   5.690   3.003   2.751 -0.2837 -0.4693  0.0145
  781poe    c23 7206   5.629   2.976   2.875  0.0143 -0.0168  0.2633
  781poe    c23 7207   5.571   3.102   2.942  0.3846  0.3494 -0.1039
  781poe     o2 7208   5.677   3.186   2.983  0.1398  0.1707  0.9093
  781poe    c23 7209   5.643   3.294   3.067  0.1322  0.7352  0.1886
  781poe    c23 7210   5.770   3.368   3.111  1.0654 -0.8747  0.2815
  781poe     o2 7211   5.854   3.373   2.998  0.3749  0.3798 -0.1925
  781poe    c31 7212   5.946   3.477   3.020 -0.2658  0.9194 -0.0128
  782poe    c31 7213   1.129   2.425   1.433  0.1460  0.4958  0.1379
  782poe     o2 7214   1.130   2.324   1.531  0.5315  0.0164 -0.3521
  782poe    c23 7215   1.167   2.379   1.655 -0.2131  0.1747 -0.1928
  782poe    c23 7216   1.164   2.255   1.747  0.0613  0.2843 -0.0343
  782poe     o2 7217   1.047   2.186   1.707  0.1700  0.0811 -0.0016
  782poe    c23 7218   1.033   2.064   1.776  0.3512 -0.0891 -0.2629
  782poe    c23 7219   0.948   1.977   1.682 -0.0533  0.1217 -0.0953
  782poe     o2 7220   0.993   2.001   1.551  0.5890 -0.4063  0.0220
  782poe    c23 7221   0.936   1.923   1.449 -0.6845  0.7394 -0.1800
  782poe    c23 7222   1.004   1.977   1.322  0.5032 -0.3939 -0.0501
  782poe     o2 7223   1.051   2.108   1.347 -0.0576 -0.2237  0.1276
  782poe    c31 7224   1.110   2.161   1.230 -0.8011 -0.1976 -0.2432
  783poe    c31 7225   4.743   0.088   6.314 -0.6245  0.2087 -0.3349
  783poe     o2 7226   4.654  -0.014   6.354 -0.3808  0.0470 -0.2073
  783poe    c23 7227   4.527   0.024   6.307 -0.4166  0.1076 -0.0646
  783poe    c23 7228   4.421  -0.085   6.330  0.3677 -0.6377  0.0608
  783poe     o2 7229   4.443  -0.118   6.465  0.4624 -0.4575  0.0892
  783poe    c23 7230   4.363  -0.221   6.518 -0.0895 -0.1776 -0.1814
  783poe    c23 7231   4.447  -0.307   6.615 -0.3449  0.0530  0.2434
  783poe     o2 7232   4.568  -0.328   6.547 -0.0359  0.2935  0.7148
  783poe    c23 7233   4.667  -0.394   6.623 -0.0393 -0.1737  0.3126
  783poe    c23 7234   4.782  -0.364   6.525 -0.7406  0.4701 -0.3327
  783poe     o2 7235   4.779  -0.235   6.469  0.2066  0.5514 -0.2229
  783poe    c31 7236   4.897  -0.234   6.392  0.7690 -0.1544  0.6182
  784poe    c31 7237   1.937   3.919   0.300 -0.0313 -0.3352 -0.9491
  784poe     o2 7238   2.036   3.834   0.353  0.0428  0.1425 -0.3077
  784poe    c23 7239   2.164   3.890   0.336  0.1562  0.1116  0.3998
  784poe    c23 7240   2.262   3.801   0.414  0.0447  0.1206  0.5501
  784poe     o2 7241   2.226   3.669   0.379  0.0164  0.2613  0.0402
  784poe    c23 7242   2.303   3.572   0.446 -0.2002  0.2511  0.2751
  784poe    c23 7243   2.271   3.427   0.406 -0.0651  0.3661 -0.2587
  784poe     o2 7244   2.137   3.389   0.432  0.0197  0.1801 -0.0846
  784poe    c23 7245   2.114   3.265   0.369 -0.4623  0.3779 -0.3066
  784poe    c23 7246   1.965   3.230   0.385 -0.3060 -0.1790 -0.0745
  784poe     o2 7247   1.872   3.305   0.311 -0.0333 -0.0437 -0.2801
  784poe    c31 7248   1.751   3.233   0.298 -0.0318 -0.0826 -0.0827
  785poe    c31 7249   1.107   2.447   0.624  0.0420  1.0879 -0.6938
  785poe     o2 7250   1.222   2.470   0.545  0.2154  0.2933 -0.6765
  785poe    c23 7251   1.338   2.415   0.602  0.0490  0.6246  0.0011
  785poe    c23 7252   1.465   2.448   0.522  0.3604 -0.3318  0.0785
  785poe     o2 7253   1.487   2.380   0.400  0.4923 -0.3392  0.1063
  785poe    c23 7254   1.602   2.431   0.335  0.2548 -0.4151 -0.3787
  785poe    c23 7255   1.604   2.357   0.200 -0.4499 -0.7116 -0.2297
  785poe     o2 7256   1.471   2.365   0.153 -0.5107 -0.0416  0.0454
  785poe    c23 7257   1.469   2.284   0.038  0.4480  0.2930 -0.2174
  785poe    c23 7258   1.332   2.319  -0.024  0.2375  0.7802  0.5077
  785poe     o2 7259   1.245   2.299   0.084  0.3096 -0.5214  0.3316
  785poe    c31 7260   1.114   2.330   0.041  0.6668  0.1045 -0.3076
  786poe    c31 7261   6.272   0.826   6.674  0.0137  0.5922  0.1568
  786poe     o2 7262   6.366   0.877   6.582  0.4844 -0.3983  0.0748
  786poe    c23 7263   6.470   0.944   6.650  0.3802 -0.1382 -0.0228
  786poe    c23 7264   6.516   1.060   6.559  0.4970 -0.4283 -0.3332
  786poe     o2 7265   6.500   1.008   6.429  0.1976 -0.5087 -0.2661
  786poe    c23 7266   6.509   1.107   6.328  0.0223 -0.1681  0.0514
  786poe    c23 7267   6.494   1.026   6.198 -0.3616  0.2134 -0.1430
  786poe     o2 7268   6.381   0.944   6.213 -0.0028 -0.2113  0.2728
  786poe    c23 7269   6.270   1.006   6.151  0.2602 -0.1468 -0.1368
  786poe    c23 7270   6.146   0.929   6.203  0.1623  0.0183 -0.1276
  786poe     o2 7271   6.147   0.941   6.343 -0.1469  0.5979 -0.1702
  786poe    c31 7272   6.038   0.866   6.393  0.3005  0.4595  0.6215
  787poe    c31 7273   6.052   5.134   6.206 -0.4716  0.5680  0.3027
  787poe     o2 7274   6.165   5.171   6.130 -0.7399 -0.2626 -0.5247
  787poe    c23 7275   6.175   5.311   6.115 -0.1422 -0.3410 -0.8953
  787poe    c23 7276   6.324   5.350   6.106 -0.2879  0.5355  0.2642
  787poe     o2 7277   6.399   5.275   6.198 -0.0922  0.1107 -0.2380
  787poe    c23 7278   6.531   5.324   6.185 -0.1985  0.4709  0.0281
  787poe    c23 7279   6.629   5.256   6.282  0.1057  0.4894 -0.2659
  787poe     o2 7280   6.589   5.121   6.274  0.3334  0.3999  0.0573
  787poe    c23 7281   6.671   5.021   6.329  0.4810  0.3472 -0.2603
  787poe    c23 7282   6.593   4.891   6.354  0.0843  0.5935 -0.2118
  787poe     o2 7283   6.577   4.822   6.232  0.2459 -0.1776  0.1965
  787poe    c31 7284   6.535   4.689   6.256  0.3885 -0.1693  0.4995
  788poe    c31 7285   1.654   5.262   2.795  0.0906  0.2239 -0.2868
  788poe     o2 7286   1.537   5.340   2.801 -0.2092 -0.2391  0.0043
  788poe    c23 7287   1.463   5.335   2.681  0.0171  0.7482 -0.1844
  788poe    c23 7288   1.334   5.418   2.688 -0.1660  0.4618 -0.1603
  788poe     o2 7289   1.359   5.545   2.743  0.2965 -0.0471  0.8234
  788poe    c23 7290   1.252   5.615   2.804  0.1145  0.2833  0.1413
  788poe    c23 7291   1.195   5.535   2.923  0.5701 -0.6399 -0.2526
  788poe     o2 7292   1.298   5.512   3.016  0.1414  0.2963  0.4613
  788poe    c23 7293   1.265   5.462   3.144 -0.0008 -0.6134  0.0768
  788poe    c23 7294   1.402   5.431   3.208 -0.1354 -0.1363  0.6049
  788poe     o2 7295   1.494   5.379   3.114 -0.4712 -0.0592  0.2329
  788poe    c31 7296   1.607   5.313   3.166 -0.4213 -0.4717 -0.3875
  789poe    c31 7297   2.050   3.661   6.657 -1.2219 -0.5376 -0.5815
  789poe     o2 7298   2.076   3.523   6.650 -0.3830 -0.4021 -0.1932
  789poe    c23 7299   2.207   3.493   6.695 -0.3991 -0.5858 -0.2683
  789poe    c23 7300   2.228   3.341   6.681  0.4823 -0.4899 -0.0351
  789poe     o2 7301   2.115   3.283   6.743  0.1564 -0.0058 -0.1672
  789poe    c23 7302   2.116   3.144   6.717 -0.1334  0.0146 -0.2819
  789poe    c23 7303   1.984   3.077   6.761 -0.3075  0.8270  0.4735
  789poe     o2 7304   1.897   3.146   6.674  0.2040  0.4952 -0.3203
  789poe    c23 7305   1.767   3.090   6.680  0.2526  0.3773 -0.3687
  789poe    c23 7306   1.659   3.158   6.594 -0.7338 -0.4423  0.2099
  789poe     o2 7307   1.649   3.287   6.650  0.1494 -0.4431  0.3812
  789poe    c31 7308   1.543   3.347   6.579  0.2726  0.4861  0.9717
  790poe    c31 7309   6.372   1.358   2.207 -0.8048  0.0497  0.1161
  790poe     o2 7310   6.463   1.251   2.216 -0.0707  0.6544 -0.1123
  790poe    c23 7311   6.417   1.158   2.311  0.3237  0.0313 -0.5195
  790poe    c23 7312   6.469   1.015   2.292  0.1565 -0.1908  0.6172
  790poe     o2 7313   6.609   1.008   2.304  0.1952 -0.2308  0.1644
  790poe    c23 7314   6.650   0.876   2.334  0.3136 -0.3070 -0.3261
  790poe    c23 7315   6.791   0.874   2.395  0.2133 -0.0218 -0.0823
  790poe     o2 7316   6.877   0.947   2.311  0.2821  0.4172  0.3627
  790poe    c23 7317   6.995   0.963   2.387  0.3041  0.1598  0.3845
  790poe    c23 7318   7.085   1.051   2.299  0.4072  0.1715  0.5019
  790poe     o2 7319   7.005   1.160   2.261  0.1215 -0.2251 -0.0392
  790poe    c31 7320   7.091   1.271   2.248  0.0547 -0.1345  0.3032
  791poe    c31 7321   2.697   0.425   5.353  0.2422 -0.3232 -0.6939
  791poe     o2 7322   2.681   0.333   5.459  0.0679  0.0640 -0.3824
  791poe    c23 7323   2.769   0.224   5.443  0.1789  0.0949  0.0005
  791poe    c23 7324   2.719   0.137   5.559 -0.5587  0.0683 -0.3263
  791poe     o2 7325   2.579   0.140   5.572 -0.5366 -0.1810 -0.0006
  791poe    c23 7326   2.549   0.090   5.700 -0.0770  0.8411  0.5248
  791poe    c23 7327   2.398   0.106   5.730 -0.2971 -0.4023  0.1683
  791poe     o2 7328   2.349   0.238   5.740 -0.6164 -0.4753 -0.4089
  791poe    c23 7329   2.249   0.240   5.839 -0.0176 -0.0413  0.1930
  791poe    c23 7330   2.182   0.377   5.816  0.3213  0.1475  0.3234
  791poe     o2 7331   2.273   0.485   5.820  0.0450  0.4157 -0.4987
  791poe    c31 7332   2.216   0.609   5.784 -0.2686  0.2290 -0.6509
  792poe    c31 7333   4.705   3.882   4.912 -0.4703  1.1103  0.5923
  792poe     o2 7334   4.800   3.966   4.850  0.0296 -0.2673 -0.5757
  792poe    c23 7335   4.910   3.897   4.796  0.2706 -0.1207 -0.2753
  792poe    c23 7336   4.979   3.968   4.678 -0.0105  0.1259 -0.2909
  792poe     o2 7337   5.009   4.098   4.724  0.0666 -0.0422  0.1388
  792poe    c23 7338   5.079   4.164   4.621  0.4638 -0.2624  0.2664
  792poe    c23 7339   5.163   4.275   4.688 -0.2913  0.3487  0.2078
  792poe     o2 7340   5.076   4.344   4.774 -0.4570  0.2214  0.1438
  792poe    c23 7341   5.147   4.427   4.864  0.3540 -0.2738 -0.0378
  792poe    c23 7342   5.062   4.510   4.962  0.5514 -0.2693  0.1311
  792poe     o2 7343   4.986   4.423   5.042  0.7005 -0.6801 -0.1667
  792poe    c31 7344   4.951   4.482   5.166  0.4162 -0.3174 -0.4160
  793poe    c31 7345   5.782   2.370   6.719 -0.4161  0.4879  0.1620
  793poe     o2 7346   5.675   2.395   6.630 -0.0234 -0.0831 -0.4788
  793poe    c23 7347   5.666   2.525   6.576  0.0389 -0.0149 -0.3276
  793poe    c23 7348   5.600   2.509   6.437 -0.8455  0.1827  0.0625
  793poe     o2 7349   5.495   2.422   6.473 -0.3753 -0.0294  0.9643
  793poe    c23 7350   5.382   2.436   6.390 -0.3313 -0.2984  0.8554
  793poe    c23 7351   5.253   2.363   6.431 -0.5235 -0.2524  0.3424
  793poe     o2 7352   5.224   2.373   6.569  0.0854  0.2235  0.4379
  793poe    c23 7353   5.085   2.359   6.590 -0.0013 -0.1732 -0.3647
  793poe    c23 7354   5.044   2.421   6.725  0.4074 -0.7784  0.0400
  793poe     o2 7355   5.107   2.385   6.846  0.2891 -0.2491  0.2609
  793poe    c31 7356   5.081   2.259   6.905  0.0661 -0.0917  0.5015
  794poe    c31 7357   5.000   1.248   0.453  0.1823 -0.5856 -0.4178
  794poe     o2 7358   4.968   1.111   0.461 -0.7162 -0.3509  0.2203
  794poe    c23 7359   4.850   1.078   0.392 -0.4160 -0.3557 -0.2961
  794poe    c23 7360   4.820   0.927   0.399 -0.0832 -0.4107 -0.0787
  794poe     o2 7361   4.904   0.849   0.318  0.3603 -0.2690  0.2377
  794poe    c23 7362   4.843   0.723   0.303 -0.1810  0.0326 -0.1306
  794poe    c23 7363   4.931   0.640   0.207  0.4349  0.2670  0.2261
  794poe     o2 7364   5.067   0.666   0.236  0.4108  0.7549 -0.0886
  794poe    c23 7365   5.154   0.580   0.167 -0.0216  0.5159 -0.3429
  794poe    c23 7366   5.296   0.613   0.217 -0.2772 -0.1745  0.8850
  794poe     o2 7367   5.303   0.754   0.223  0.8100 -0.1814  0.1441
  794poe    c31 7368   5.433   0.795   0.259  0.7732 -0.0010  0.0733
  795poe    c31 7369   6.620   4.718   4.523 -0.0963  0.0496 -0.5893
  795poe     o2 7370   6.611   4.682   4.387  0.2814 -0.0743 -0.5831
  795poe    c23 7371   6.507   4.761   4.333 -0.2966 -0.0482  0.5397
  795poe    c23 7372   6.443   4.696   4.209  0.2739 -0.4295  0.4403
  795poe     o2 7373   6.531   4.665   4.104  0.3158  0.1533  0.2961
  795poe    c23 7374   6.458   4.642   3.986  0.2609 -0.5047  0.4514
  795poe    c23 7375   6.532   4.694   3.861 -0.1353 -0.4755  0.2282
  795poe     o2 7376   6.653   4.624   3.843  0.1005  0.0549 -0.2632
  795poe    c23 7377   6.741   4.686   3.751  0.1560  0.0386 -0.2213
  795poe    c23 7378   6.872   4.609   3.777  0.5040  0.5341 -0.5096
  795poe     o2 7379   6.882   4.596   3.917 -0.0791 -0.0729 -0.5203
  795poe    c31 7380   7.019   4.586   3.948 -0.0579  0.1281 -0.5458
  796poe    c31 7381   1.738   3.037   1.530  0.2917 -0.4250 -0.9539
  796poe     o2 7382   1.686   2.924   1.596  0.2410  0.2825  0.2620
  796poe    c23 7383   1.752   2.806   1.555 -0.1953  0.1842 -0.1732
  796poe    c23 7384   1.662   2.685   1.583 -0.5373  0.4524 -0.1035
  796poe     o2 7385   1.610   2.705   1.712  0.1412 -0.0943  0.2634
  796poe    c23 7386   1.499   2.629   1.757 -0.3958  0.2736 -0.4118
  796poe    c23 7387   1.440   2.684   1.889 -0.1301 -0.2642 -0.0660
  796poe     o2 7388   1.445   2.822   1.862 -1.0857 -0.2342 -0.1263
  796poe    c23 7389   1.434   2.889   1.986 -0.0256  0.1168 -0.2123
  796poe    c23 7390   1.484   3.031   1.955  0.0193  0.0582 -0.4140
  796poe     o2 7391   1.601   3.014   1.879  0.3712 -0.2835  0.1940
  796poe    c31 7392   1.679   3.131   1.878 -0.1474  0.0635 -0.3100
  797poe    c31 7393   2.660   0.351   3.668 -0.3947 -0.3385  0.2255
  797poe     o2 7394   2.715   0.452   3.587  0.2078 -0.5675  0.3439
  797poe    c23 7395   2.787   0.403   3.477 -0.1619  0.4667 -0.3716
  797poe    c23 7396   2.812   0.504   3.363  0.6057  0.2264 -0.4209
  797poe     o2 7397   2.858   0.627   3.414 -0.3901  0.3499  0.2120
  797poe    c23 7398   2.990   0.637   3.462 -0.3692  0.4612  0.1332
  797poe    c23 7399   3.009   0.786   3.496  0.1319  0.5263 -0.4211
  797poe     o2 7400   2.911   0.845   3.578  0.3521 -0.0569  0.2663
  797poe    c23 7401   2.937   0.984   3.579  0.1698 -0.0114 -0.6107
  797poe    c23 7402   2.845   1.047   3.685  0.4491  0.0495 -0.4049
  797poe     o2 7403   2.717   0.992   3.668  0.3041  0.1190  0.4190
  797poe    c31 7404   2.628   1.036   3.768 -0.8846 -0.7038 -0.2486
  798poe    c31 7405   5.194   5.979   2.158  0.0204  0.5071 -0.3890
  798poe     o2 7406   5.055   5.992   2.180  0.1598 -0.1257  0.9046
  798poe    c23 7407   4.981   5.899   2.105 -0.0535  0.3954  0.4614
  798poe    c23 7408   4.835   5.880   2.153 -0.1861 -0.4798 -0.2448
  798poe     o2 7409   4.819   5.849   2.290 -0.0766 -0.0076 -0.1210
  798poe    c23 7410   4.855   5.719   2.329  0.0504  0.0553 -0.0317
  798poe    c23 7411   4.794   5.681   2.465  0.1564 -0.1475 -0.0402
  798poe     o2 7412   4.827   5.790   2.548  0.3154 -0.1725 -0.0696
  798poe    c23 7413   4.755   5.781   2.669  0.1754 -0.3399 -0.1638
  798poe    c23 7414   4.828   5.869   2.771  0.5872 -0.3015 -0.4903
  798poe     o2 7415   4.848   6.003   2.731  0.1527 -0.0097  0.2371
  798poe    c31 7416   4.918   6.069   2.834  0.5860 -0.3798  0.1823
  799poe    c31 7417   4.129   6.309   4.948  0.0798  0.4396  0.7437
  799poe     o2 7418   4.192   6.205   4.876 -0.2466  0.3960  0.5192
  799poe    c23 7419   4.248   6.252   4.755 -0.1855  0.0860  0.4272
  799poe    c23 7420   4.285   6.140   4.656  0.3213  0.2545  0.4257
  799poe     o2 7421   4.398   6.068   4.698  0.1318 -0.2677  0.0478
  799poe    c23 7422   4.435   5.983   4.592 -0.1816  0.2403 -0.4693
  799poe    c23 7423   4.535   5.885   4.656 -0.5608 -0.2642 -0.6405
  799poe     o2 7424   4.492   5.845   4.785 -0.1556  0.1960 -0.3567
  799poe    c23 7425   4.573   5.740   4.834 -0.4845  0.1257  0.0309
  799poe    c23 7426   4.495   5.620   4.892 -0.4216  0.1239  0.1125
  799poe     o2 7427   4.470   5.636   5.030 -0.2290  0.3788  0.1189
  799poe    c31 7428   4.429   5.516   5.090 -0.2721  0.0689 -0.5164
  800poe    c31 7429   5.537   6.386   1.862  0.5018  0.1529 -0.3096
  800poe     o2 7430   5.661   6.379   1.929  0.4772 -0.0092 -0.2800
  800poe    c23 7431   5.736   6.263   1.902 -0.0924 -0.5770  0.5072
  800poe    c23 7432   5.835   6.259   2.019 -0.0341  0.2169  0.4922
  800poe     o2 7433   5.918   6.373   2.027 -0.3774  0.4587  0.5988
  800poe    c23 7434   6.005   6.379   2.138 -0.0210  0.1830  0.3327
  800poe    c23 7435   6.079   6.514   2.146  0.2820  0.0240  0.2627
  800poe     o2 7436   5.986   6.619   2.133  0.0285 -0.1932  0.2985
  800poe    c23 7437   6.031   6.744   2.182 -0.5131  0.0856  0.0964
  800poe    c23 7438   5.935   6.846   2.119 -0.6415 -0.2475 -0.2512
  800poe     o2 7439   5.938   6.822   1.980 -0.5842  0.3385 -0.3553
  800poe    c31 7440   5.907   6.933   1.899  0.1480  0.7025 -0.1416
  801poe    c31 7441   3.801   1.679   3.644 -0.3238 -0.2090  0.1318
  801poe     o2 7442   3.888   1.606   3.560 -0.8888 -0.3166 -0.3695
  801poe    c23 7443   3.966   1.692   3.480 -0.3249 -0.4854 -0.0032
  801poe    c23 7444   4.115   1.704   3.516 -0.4606 -0.0711  0.4275
  801poe     o2 7445   4.151   1.568   3.511 -0.5135 -0.0765  0.2061
  801poe    c23 7446   4.266   1.541   3.588 -0.1053  0.1928 -0.3036
  801poe    c23 7447   4.239   1.423   3.684  0.0052  0.4532  0.0496
  801poe     o2 7448   4.106   1.434   3.730  0.4583  0.4561  1.3979
  801poe    c23 7449   4.068   1.330   3.817  0.2029 -0.7250 -0.0757
  801poe    c23 7450   3.923   1.369   3.851  0.2772 -0.4464 -0.0767
  801poe     o2 7451   3.853   1.390   3.730 -0.0306 -0.5250  0.0855
  801poe    c31 7452   3.717   1.383   3.765 -0.0918 -0.0066 -0.0347
  802poe    c31 7453   3.395   0.550   2.457  0.1866 -0.1491  0.5944
  802poe     o2 7454   3.365   0.687   2.442 -0.6573 -0.3492  0.3869
  802poe    c23 7455   3.395   0.759   2.559 -0.1441  0.0611  0.0126
  802poe    c23 7456   3.351   0.905   2.539  0.5986  0.3786  0.6451
  802poe     o2 7457   3.405   0.944   2.415  0.1054  0.0813  0.3329
  802poe    c23 7458   3.345   1.067   2.379 -0.0784 -0.1305 -0.0908
  802poe    c23 7459   3.281   1.039   2.242  0.1619  0.1890 -0.2697
  802poe     o2 7460   3.343   0.928   2.180  0.3763  0.1101  0.0810
  802poe    c23 7461   3.259   0.882   2.076 -0.4062  0.0705  0.7207
  802poe    c23 7462   3.307   0.742   2.031  0.0693  0.4222  0.1228
  802poe     o2 7463   3.339   0.675   2.151 -0.0642  0.1339 -0.0030
  802poe    c31 7464   3.379   0.545   2.115  0.3848  0.2228  0.1693
  803poe    c31 7465   4.873   4.803   5.754 -0.8118 -0.4430  0.2096
  803poe     o2 7466   4.755   4.874   5.786 -0.3432  0.2704  0.3852
  803poe    c23 7467   4.645   4.787   5.777 -0.2181  0.1430  0.0726
  803poe    c23 7468   4.526   4.884   5.761 -0.2766  0.0041 -0.3563
  803poe     o2 7469   4.571   4.984   5.673  0.2099  0.0051 -0.1108
  803poe    c23 7470   4.486   5.093   5.644  0.1288 -0.0850 -0.2051
  803poe    c23 7471   4.580   5.187   5.567  0.5703 -0.5237 -0.2086
  803poe     o2 7472   4.701   5.195   5.637  0.1800 -0.6183  0.4830
  803poe    c23 7473   4.795   5.269   5.563 -0.1389 -0.5774  0.1183
  803poe    c23 7474   4.929   5.268   5.640 -0.1038 -0.3477  0.0610
  803poe     o2 7475   4.951   5.141   5.698  0.1914 -0.2279  0.2108
  803poe    c31 7476   5.081   5.133   5.753  0.3716  0.4745 -0.0936
  804poe    c31 7477   6.487   5.257   3.169 -0.5061 -0.0034  0.2640
  804poe     o2 7478   6.594   5.299   3.251 -0.3674  0.0206  0.0718
  804poe    c23 7479   6.601   5.437   3.275  0.3833 -0.1052  0.6062
  804poe    c23 7480   6.669   5.454   3.413  0.1287  0.3919  0.6742
  804poe     o2 7481   6.761   5.347   3.423  0.0360  0.2290 -0.1404
  804poe    c23 7482   6.823   5.342   3.549 -0.2708 -0.5971 -0.0208
  804poe    c23 7483   6.925   5.227   3.542 -0.1692 -0.5145  0.0982
  804poe     o2 7484   6.867   5.138   3.449  0.2541 -0.2649 -0.4099
  804poe    c23 7485   6.959   5.044   3.400 -0.0991 -0.7260 -0.1914
  804poe    c23 7486   6.871   4.963   3.303 -0.0675 -0.2312 -0.6320
  804poe     o2 7487   6.773   5.049   3.249 -0.6131  0.1316  0.8704
  804poe    c31 7488   6.793   5.032   3.110  0.1579 -0.8599  1.0911
  805poe    c31 7489   3.398   0.409   6.230  0.0651 -0.1123  0.7993
  805poe     o2 7490   3.428   0.493   6.121 -0.4686  0.0971  0.8126
  805poe    c23 7491   3.308   0.521   6.051 -0.1207  0.1117  0.2162
  805poe    c23 7492   3.312   0.642   5.957  0.0396 -0.6153 -0.7331
  805poe     o2 7493   3.341   0.596   5.827  0.2650 -0.1245 -0.8590
  805poe    c23 7494   3.317   0.707   5.742 -0.5796 -0.0127 -0.4824
  805poe    c23 7495   3.389   0.684   5.608  0.0346  0.0030 -0.1627
  805poe     o2 7496   3.513   0.620   5.624  0.0420  0.1502  0.3742
  805poe    c23 7497   3.579   0.623   5.500 -0.4978 -1.1230  0.0401
  805poe    c23 7498   3.704   0.532   5.505  0.5381  0.2962  0.4948
  805poe     o2 7499   3.661   0.403   5.540  0.3178  0.1496 -0.3127
  805poe    c31 7500   3.770   0.314   5.537  0.2409  0.0186  0.6181
  806poe    c31 7501   3.127   1.366   4.452  0.1734 -0.0674  0.6694
  806poe     o2 7502   3.065   1.493   4.460 -0.3667 -0.2538 -0.3236
  806poe    c23 7503   3.151   1.584   4.524 -0.2995 -0.6686  0.1835
  806poe    c23 7504   3.100   1.728   4.504 -0.4152 -0.6693  0.4610
  806poe     o2 7505   3.127   1.761   4.369  0.5941  0.0018  0.8200
  806poe    c23 7506   3.088   1.894   4.343  0.7163 -0.1716 -0.2882
  806poe    c23 7507   3.113   1.933   4.196  0.4500  0.4429 -0.1726
  806poe     o2 7508   3.247   1.901   4.168  0.3297 -0.1848 -0.0449
  806poe    c23 7509   3.315   2.005   4.101 -0.3187  0.2893  0.0262
  806poe    c23 7510   3.450   1.944   4.059 -0.1876  0.2267  0.5398
  806poe     o2 7511   3.429   1.817   4.001  0.3133  0.3481  0.0878
  806poe    c31 7512   3.507   1.792   3.886  0.0555  0.1208 -0.0360
  807poe    c31 7513   5.205   1.945   2.425  0.0344 -0.1266  0.2225
  807poe     o2 7514   5.334   1.897   2.456  0.1429  0.1691  0.2285
  807poe    c23 7515   5.334   1.756   2.447 -0.3290  0.1594  0.3643
  807poe    c23 7516   5.473   1.707   2.494 -0.4254  0.2007  0.6994
  807poe     o2 7517   5.560   1.769   2.402  0.1543 -0.8483  0.5224
  807poe    c23 7518   5.696   1.748   2.430  0.4096  0.4952  0.3707
  807poe    c23 7519   5.771   1.860   2.355  0.3521 -0.0212 -0.4807
  807poe     o2 7520   5.711   1.981   2.397  0.0612 -0.2542 -0.2207
  807poe    c23 7521   5.754   2.101   2.337 -0.3560 -0.0997 -0.2130
  807poe    c23 7522   5.652   2.211   2.371  0.1144  0.2916 -0.0611
  807poe     o2 7523   5.523   2.153   2.369  0.0080  0.5259  0.0000
  807poe    c31 7524   5.429   2.258   2.380 -0.3404  0.2383 -0.2423
  808poe    c31 7525   3.345   1.593   1.181  0.5439 -0.4148 -0.2993
  808poe     o2 7526   3.366   1.454   1.191 -0.4978 -0.5691 -0.1667
  808poe    c23 7527   3.254   1.383   1.142 -0.8658 -0.3075  0.2904
  808poe    c23 7528   3.254   1.236   1.187 -0.1034 -0.3131  0.2838
  808poe     o2 7529   3.387   1.203   1.154 -0.0790  0.6978 -0.6805
  808poe    c23 7530   3.408   1.067   1.186 -0.5443  0.6008 -0.7757
  808poe    c23 7531   3.538   1.009   1.126 -0.4641 -0.1013  0.0629
  808poe     o2 7532   3.642   1.078   1.191  0.2679 -0.4400 -0.7398
  808poe    c23 7533   3.767   1.023   1.155  0.5756 -0.2320 -0.0098
  808poe    c23 7534   3.874   1.125   1.201 -0.2216  0.2793  0.7442
  808poe     o2 7535   3.850   1.251   1.142 -0.0844  0.0512  0.1909
  808poe    c31 7536   3.951   1.344   1.175 -0.1470  0.1021  0.2378
  809poe    c31 7537   1.796   1.754   2.546 -0.2038  0.6672  0.0548
  809poe     o2 7538   1.707   1.678   2.467  0.7865 -0.4275 -0.0339
  809poe    c23 7539   1.591   1.648   2.540  0.2933  0.4616 -0.4261
  809poe    c23 7540   1.473   1.662   2.443 -0.1827  0.3616  0.1340
  809poe     o2 7541   1.518   1.599   2.325 -0.0460  0.1096  0.3181
  809poe    c23 7542   1.459   1.643   2.205 -0.1581 -0.0917  0.2997
  809poe    c23 7543   1.528   1.762   2.136  0.0748 -0.4628 -0.1133
  809poe     o2 7544   1.662   1.718   2.134  0.2808  0.1538 -0.2356
  809poe    c23 7545   1.754   1.789   2.054  0.1407 -0.0289 -0.5616
  809poe    c23 7546   1.892   1.736   2.097  0.0206  0.2452  0.1737
  809poe     o2 7547   1.897   1.717   2.237 -0.0070 -0.1798  0.1195
  809poe    c31 7548   2.031   1.693   2.273 -0.1485 -0.9128  0.1641
  810poe    c31 7549   1.810   3.941   2.045 -0.6212  0.0740  0.5437
  810poe     o2 7550   1.887   4.058   2.034 -0.4240 -0.1119 -0.0834
  810poe    c23 7551   1.926   4.088   2.166  0.0358 -0.3336 -0.1665
  810poe    c23 7552   2.032   4.200   2.152 -0.9014  0.6494  0.4371
  810poe     o2 7553   1.972   4.279   2.052 -0.3392 -0.3631 -0.7342
  810poe    c23 7554   2.065   4.378   2.014 -0.4236 -0.0299 -0.0879
  810poe    c23 7555   2.000   4.473   1.912  0.5794  0.1304 -0.5839
  810poe     o2 7556   1.935   4.388   1.821 -0.1395  0.3654 -0.2932
  810poe    c23 7557   1.800   4.426   1.803 -0.1609  0.4321  0.0028
  810poe    c23 7558   1.720   4.309   1.744 -0.1775  0.2496  0.3882
  810poe     o2 7559   1.712   4.202   1.836  0.1337  0.1933  0.3493
  810poe    c31 7560   1.646   4.093   1.775  0.3134  0.5353 -0.4823
  811lim     li 7561   1.883   2.871   4.736  0.2202  0.9283 -0.0028
  812lim     li 7562   5.008   1.668   5.318 -0.8776 -0.1151 -0.2800
  813lim     li 7563   4.801   2.567   6.145  0.6552  0.8769 -0.9205
  814lim     li 7564   6.336   2.809   1.663 -1.0366 -1.1519 -0.3098
  815lim     li 7565   4.723   3.161   4.340 -1.1418  0.3466 -0.7967
  816lim     li 7566   3.883   4.902   4.569  0.7288 -0.6881  0.0527
  817lim     li 7567   5.525   1.965   2.421  0.4397 -0.3691  0.4408
  818lim     li 7568   0.253   6.482   2.411 -0.3005 -0.2023 -0.1666
  819lim     li 7569   3.848   6.242   1.311 -0.0800 -0.1233 -0.3520
  820lim     li 7570   5.657   5.016   1.731 -0.7441 -1.4734  0.0091
  821lim     li 7571   5.327   4.248   1.732 -2.2366  0.0190  0.5988
  822lim     li 7572   0.705   1.217   5.678  0.4219  0.4174  0.3083
  823lim     li 7573   3.411   3.538   5.617  0.0266  0.6653  0.9630
  824lim     li 7574   5.678   5.205   3.852  0.2880  0.6464 -0.1395
  825lim     li 7575   2.422   4.001   4.596  1.2911  0.3216 -0.7260
  826lim     li 7576   0.371   3.853   5.891  0.1301 -0.6337 -1.3967
  827lim     li 7577   1.523   0.729   4.970 -0.7346  0.9712 -0.7212
  828lim     li 7578   0.686   0.928   3.773  0.3721  1.4752 -0.6821
  829lim     li 7579   0.987   2.401   4.179  1.6695 -0.0621 -0.5831
  830lim     li 7580   2.413   6.061   6.432 -0.3447  0.0174  0.8235
  831lim     li 7581   0.594   5.207   6.439  0.5269  0.3958 -0.4416
  832lim     li 7582   4.798   2.735   4.917  0.1988 -0.3026  0.0815
  833lim     li 7583   3.213   4.529   5.253  0.0899 -1.4962 -0.4638
  834lim     li 7584   6.137   0.777   3.835  0.6512 -0.7049  0.5363
  835lim     li 7585   3.408   2.314   4.903  0.3738 -0.0567 -0.5774
  836lim     li 7586   0.004   1.926   6.437  0.8157 -0.3076 -0.4504
  837lim     li 7587   3.054   5.036   4.718 -0.4187 -0.0182  0.8292
  838lim     li 7588   4.015   5.029   5.245  0.7737  0.5409 -0.7308
  839lim     li 7589   3.248   0.150   2.844 -0.3597 -0.2059  0.5928
  840lim     li 7590   1.568   1.188   1.681 -0.0578 -0.5013  0.2534
  841lim     li 7591   1.084   1.366   3.654 -0.9046 -0.2693  0.0907
  842lim     li 7592   4.510   0.946   5.973 -0.3334 -0.7031 -0.7395
  843lim     li 7593   1.551   1.137   6.296  0.8805  0.2294  0.6438
  844lim     li 7594   4.392   2.254   3.566 -0.8989 -0.5283 -1.2364
  845lim     li 7595   6.315   2.362   4.808 -0.2806  0.5397 -0.4608
  846lim     li 7596   5.117   6.102   3.762  0.3302 -1.0395  0.4203
  847lim     li 7597   5.578   6.285   5.460  0.0287  1.0865 -0.3652
  848lim     li 7598   6.422   1.808   5.341 -0.2637  0.1438  1.3496
  849lim     li 7599   0.368   3.355   3.409 -0.5766  0.0249  0.1567
  850lim     li 7600   2.997   5.778   5.143  0.9461 -0.3571  0.2419
  851lim     li 7601   3.491   4.176   4.096  0.1024  0.3057  0.1358
  852lim     li 7602   3.813   1.601   0.345  0.2516  0.8515 -0.3398
  853lim     li 7603   4.974   4.212   4.867 -0.0709  1.1932 -0.9337
  854lim     li 7604   6.097   4.866   3.349  0.2576 -0.5465 -1.2525
  855lim     li 7605   2.484   1.384   4.401  0.2584 -0.2467 -0.1564
  856lim     li 7606   2.542   2.012   2.538 -0.6912  0.4683 -0.9566
  857lim     li 7607   2.888   3.193   4.937 -0.3339  0.5271  0.3719
  858lim     li 7608   3.732   3.147   0.752  0.2688  0.6597 -0.6137
  859lim     li 7609   5.679   3.247   4.569 -0.0804  0.8811 -0.4259
  860lim     li 7610   6.329   0.886   6.376 -0.2130 -0.0089  0.7918
  861lim     li 7611   4.618   6.632   6.467 -0.4306  0.5345  0.3370
  862lim     li 7612   2.513   5.539   1.993  0.3756  0.5772  0.5390
  863lim     li 7613   0.644   0.487   0.450 -0.0906 -1.2317 -0.5594
  864lim     li 7614   0.733   4.744   2.931 -1.8100  0.0304  0.0021
  865lim     li 7615   1.629   4.336   4.097 -0.1632 -0.5984 -0.4633
  866lim     li 7616   3.339   0.991   3.176  0.1444 -0.8877 -0.0763
  867lim     li 7617   4.174   6.242   0.717 -0.8232  0.2024  0.3223
  868lim     li 7618   4.613   0.546   1.316  0.2790  0.1710 -1.1829
  869lim     li 7619   6.540   5.859   3.409  0.1150  0.4018  0.2581
  870lim     li 7620   1.960   1.348   0.188 -0.1543  0.2409  0.0277
  871lim     li 7621   6.183   3.006   3.340  0.4138 -0.2522 -0.8569
  872lim     li 7622   2.142   6.398   0.453  0.4469 -0.1291 -0.5388
  873lim     li 7623   6.073   1.333   2.878 -0.8044 -0.1519 -0.4723
  874lim     li 7624   5.077   3.387   1.785 -0.3278 -1.2239  0.1412
  875lim     li 7625   6.501   5.386   4.117 -0.9824  0.5600  1.1164
  876lim     li 7626   4.797   5.167   1.818 -0.2358  0.8074  0.2322
  877lim     li 7627   4.792   5.972   5.861 -0.4955  0.1956 -0.1604
  878lim     li 7628   5.625   3.113   3.862 -0.1134  1.3374 -0.2185
  879lim     li 7629   2.475   0.167   0.930 -0.9137  0.7437 -0.9041
  880lim     li 7630   0.083   0.463   3.811  1.0904 -0.4557  0.9160
  881lim     li 7631   2.467   1.086   5.894 -0.1506 -0.0926 -0.6718
  882lim     li 7632   4.320   3.106   2.881 -0.9122  0.2472  0.0150
  883lim     li 7633   0.146   5.027   2.380  0.4231 -0.2049  0.1764
  884lim     li 7634   6.287   5.531   5.422 -0.0482 -0.0352 -0.5887
  885lim     li 7635   1.186   4.240   0.414 -0.6594  0.4304 -0.4041
  886lim     li 7636   1.304   5.344   1.869 -0.2253 -0.1022  1.5810
  887lim     li 7637   2.949   0.232   0.332  0.9764  0.5812  0.6700
  888lim     li 7638   3.163   2.108   0.192 -0.1535  0.4307  0.0873
  889lim     li 7639   5.222   1.505   4.181 -0.4665 -1.5464  0.7858
  890lim     li 7640   3.052   4.579   6.574 -0.1318  0.1037  0.8499
  891lim     li 7641   4.378   3.717   1.294 -0.0532 -0.6295 -1.5017
  892lim     li 7642   5.830   3.222   2.913 -0.2862 -1.3536  0.2890
  893lim     li 7643   0.301   2.934   6.190 -0.5053 -0.9396  0.5127
  894lim     li 7644   3.072   2.663   1.745 -0.3650 -0.9799  0.1212
  895lim     li 7645   5.102   0.825   0.286 -1.0582  0.0652  1.7031
  896lim     li 7646   5.760   4.777   2.574 -0.8129 -0.5678  0.6568
  897lim     li 7647   0.054   1.936   4.418 -1.0977 -0.5393  0.9522
  898lim     li 7648   2.313   4.031   5.182  0.4324 -1.2845 -0.5790
  899lim     li 7649   0.746   3.033   4.373 -1.2808 -1.5108  0.3603
  900lim     li 7650   1.032   6.106   4.276  1.3622  0.2830  0.6355
  901lim     li 7651   3.504   1.327   1.191 -0.7836  1.1299 -0.1436
  902lim     li 7652   4.758   3.056   3.663  0.0339 -1.0933  0.2319
  903lim     li 7653   3.541   5.800   3.142  0.6144 -1.0254 -0.5671
  904lim     li 7654   5.560   3.833   3.364  0.9088 -0.8743  1.2856
  905lim     li 7655   4.199   2.273   5.446 -0.8535  0.5738 -0.4313
  906lim     li 7656   1.562   6.747   6.026  0.5690 -0.1303  0.4692
  907lim     li 7657   5.931   1.960   3.563 -0.4628 -1.3176  0.3700
  908lim     li 7658   1.965   1.509   3.134  0.1215 -0.7155  0.8521
  909lim     li 7659   0.129   6.743   1.007 -0.2770 -1.4999 -0.8696
  910lim     li 7660   0.723   2.698   6.758 -0.2704  0.9920  0.2333
  911lim     li 7661   2.340   1.054   5.202  0.9809 -0.9573  0.2101
  912lim     li 7662   2.240   1.909   0.492 -1.2524  0.4859 -0.0514
  913lim     li 7663   3.141   4.271   3.107  0.2191  0.2109  1.0823
  914lim     li 7664   2.288   0.814   0.858 -0.5118  0.2581 -0.8947
  915lim     li 7665   4.728   1.353   1.284  0.0531  1.5084 -1.9175
  916lim     li 7666   0.556   1.872   2.354  0.4411 -0.2143 -1.5797
  917lim     li 7667   2.071   5.089   5.750 -0.8329 -0.4301  0.3153
  918lim     li 7668   2.003   2.154   5.692  0.1091  0.8659  0.1168
  919lim     li 7669   6.451   2.214   2.171 -1.3569  0.2098 -0.5047
  920lim     li 7670   5.105   5.669   4.929  0.1959 -0.2398  0.2620
  921lim     li 7671   4.973   4.979   2.777  1.0426 -0.1433  0.6780
  922lim     li 7672   3.039   0.838   4.778  0.3485 -0.7214  0.3604
  923lim     li 7673   2.133   6.293   3.910  0.0659  0.6341  0.0410
  924lim     li 7674   0.531   5.771   2.541  0.7421  0.0228 -0.8647
  925lim     li 7675   0.618   4.368   0.080  1.0079 -0.0572 -0.2021
  926lim     li 7676   4.552   2.269   0.302 -0.8930 -0.1525 -0.2040
  927lim     li 7677   1.478   5.934   1.326 -0.4160 -0.0524  0.4932
  928lim     li 7678   5.121   6.687   0.683 -0.3346  1.4301 -0.7699
  929lim     li 7679   2.607   3.854   5.917 -0.1322 -1.1853 -1.2528
  930lim     li 7680   2.376   0.043   2.580 -0.2363  0.8043  0.4455
  931lim     li 7681   6.177   3.475   4.741 -0.3701 -0.6120  1.0674
  932lim     li 7682   3.838   5.587   4.097  0.6934 -0.2384  0.7513
  933lim     li 7683   1.371   5.892   5.986 -1.5261 -0.1783 -0.3658
  934lim     li 7684   6.438   0.561   2.157 -0.2977 -0.6663 -1.7368
  935lim     li 7685   5.953   1.621   0.246 -0.3378  0.6348 -0.6827
  936lim     li 7686   3.254   3.337   3.317 -1.9031  0.6264 -0.5102
  937lim     li 7687   0.250   0.324   4.754 -0.5207  0.3039 -0.3408
  938lim     li 7688   1.071   6.172   3.026 -0.2144 -0.3698 -0.6612
  939lim     li 7689   0.203   4.271   5.187 -0.0794 -0.2440  0.8882
  940lim     li 7690   4.863   1.536   2.984  0.0832  0.7186 -0.7758
  941lim     li 7691   5.141   2.207   3.354  0.5813 -0.0461 -1.1291
  942lim     li 7692   5.356   5.178   6.678  0.4968  0.2479  0.3401
  943lim     li 7693   4.657   3.390   6.304  0.8686  0.5559 -0.2227
  944lim     li 7694   2.230   5.636   2.636  0.6630  0.0302  0.1818
  945lim     li 7695   6.451   2.456   6.263  0.2917 -0.1235  1.1244
  946lim     li 7696   4.829   5.693   6.633  0.4408 -0.0266 -0.0184
  947lim     li 7697   2.849   1.780   3.249 -0.4072  0.9070  0.0212
  948lim     li 7698   6.589   4.473   0.037 -0.3720 -1.8167 -0.3244
  949lim     li 7699   3.621   3.946   4.901 -0.0566 -0.0936  1.1832
  950lim     li 7700   0.128   1.851   1.583 -0.1427  0.4001 -0.2134
  951lim     li 7701   3.732   1.304   2.046  1.5938 -0.8950  0.0211
  952lim     li 7702   1.714   3.594   4.339  0.1955 -1.5863 -0.4852
  953lim     li 7703   5.757   1.298   1.519 -0.3522 -0.1620  0.0306
  954lim     li 7704   0.033   2.324   0.797  0.4867  0.4478  0.3861
  955lim     li 7705   2.080   1.993   1.362  0.7351  0.8914  0.8577
  956lim     li 7706   4.611   2.516   1.177 -0.3667 -0.0180  0.5493
  957lim     li 7707   3.696   0.429   4.885  0.9649  0.1962  0.9955
  958lim     li 7708   4.403   5.989   4.860  0.5406  0.4317  0.1487
  959lim     li 7709   1.403   1.951   1.030 -0.2579  0.2574 -0.2520
  960lim     li 7710   3.440   0.480   1.431  1.0618 -0.4424  0.6808
  961lim     li 7711   5.273   2.610   0.529  0.5477 -0.7088  0.4449
  962lim     li 7712   3.887   6.430   5.758 -0.1891  0.9018  0.1843
  963lim     li 7713   5.110   1.611   6.747  0.0287 -0.4175 -1.2832
  964lim     li 7714   1.276   1.689   2.942  0.3142  0.2232 -1.1579
  965lim     li 7715   5.563   4.845   6.244  0.3964 -0.1461 -0.0234
  966lim     li 7716   0.710   0.606   6.347 -0.2734 -0.0657  0.5565
  967lim     li 7717   1.479   0.667   2.977  0.0218 -0.3220 -0.0888
  968lim     li 7718   0.975   3.629   1.868 -0.0869 -0.4443 -0.4781
  969lim     li 7719   4.076   0.052   4.290  0.7372  0.8751  0.7431
  970lim     li 7720   0.354   4.186   3.053  0.3525 -0.4874  0.1130
  971lim     li 7721   0.070   0.923   5.506 -0.0272 -0.3446 -0.4147
  972lim     li 7722   4.664   1.069   2.197  0.2676  0.0665 -0.1110
  973lim     li 7723   5.365   3.338   6.218 -0.0381  0.4713  0.7041
  974lim     li 7724   4.594   1.681   2.054 -0.6536 -0.7693  0.1433
  975lim     li 7725   1.210   2.376   3.650  0.4630 -0.3678 -0.6821
  976lim     li 7726   6.467   3.743   5.356  0.8284  1.0914 -0.2524
  977lim     li 7727   6.125   6.265   3.120 -0.3704  0.8777  0.0852
  978lim     li 7728   4.344   4.700   1.309 -0.3124 -0.5659  0.6638
  979lim     li 7729   5.894   0.147   3.361 -0.2054 -0.1833 -0.5477
  980lim     li 7730   4.630   0.192   4.856  0.5576  1.0936  0.0728
  981lim     li 7731   2.933   6.734   1.849  0.6090  0.2385 -0.3902
  982lim     li 7732   5.577   1.869   6.078  0.4295  0.0920  0.5736
  983lim     li 7733   3.323   6.559   4.649  0.3586 -0.7377  0.1343
  984lim     li 7734   4.954   0.909   5.106 -0.4822  0.0529  0.0862
  985lim     li 7735   5.562   5.631   3.062  0.4186 -1.1332  0.1871
  986lim     li 7736   2.867   0.432   4.255  0.1756 -0.1356 -0.2979
  987lim     li 7737   6.070   0.561   2.705 -0.5918 -0.3249 -1.1538
  988lim     li 7738   4.460   0.306   0.026 -0.1431 -0.6931 -0.6883
  989lim     li 7739   3.990   4.048   6.241  0.4652  0.6317  0.8445
  990lim     li 7740   4.214   5.174   0.248 -0.3517  0.8044  0.0083
  991lim     li 7741   0.734   1.861   4.983 -0.0375  0.1043 -0.2618
  992lim     li 7742   1.601   5.952   3.630  0.2061 -0.1378 -0.0712
  993lim     li 7743   5.381   4.578   3.455  0.7888  0.2470  0.9173
  994lim     li 7744   4.741   4.486   2.364  0.3159  0.1701  1.2313
  995lim     li 7745   4.547   3.590   5.458  0.5735  1.5457  0.8116
  996lim     li 7746   0.022   5.780   0.059 -0.1837  0.5156  1.0523
  997lim     li 7747   1.534   0.619   5.869  0.1647 -0.5518 -0.4007
  998lim     li 7748   1.417   4.963   6.309  0.5827 -0.1466 -0.5105
  999lim     li 7749   0.201   1.212   0.675  1.0275 -0.7241  1.0017
 1000lim     li 7750   4.456   5.628   0.999  0.5961  0.6672  1.2987
 1001lim     li 7751   1.847   2.297   2.951  0.8930  0.4046 -0.3390
 1002lim     li 7752   0.565   1.853   3.782 -0.2952 -0.5456  0.1586
 1003lim     li 7753   3.711   1.726   2.866  0.3620  0.7726 -0.1379
 1004lim     li 7754   3.419   0.784   2.301  0.1408  1.4424  0.6412
 1005lim     li 7755   6.130   0.166   5.707 -0.0188 -0.6047 -1.0976
 1006lim     li 7756   6.182   5.759   4.667 -0.3920 -0.6497  0.1586
 1007lim     li 7757   6.081   5.252   0.225  0.3660 -1.0054  0.5083
 1008lim     li 7758   1.375   6.107   2.279 -0.5563  0.6001 -0.0244
 1009lim     li 7759   6.232   0.134   4.262  0.1575  0.5103 -0.7949
 1010lim     li 7760   5.638   4.239   0.442  1.0075 -0.5073  0.2888
 1011lim     li 7761   4.088   0.573   5.741  0.3904  0.1139  0.3122
 1012lim     li 7762   0.199   3.400   2.607 -0.0326  0.0319 -0.2475
 1013lim     li 7763   3.110   3.552   1.220  0.4005 -0.0402  0.3448
 1014lim     li 7764   3.599   2.437   3.101  0.0326  0.7064 -0.2481
 1015lim     li 7765   1.449   3.610   1.274 -0.3338 -0.7917  0.1721
 1016lim     li 7766   2.721   6.312   2.974  1.9427  0.5959 -0.1453
 1017lim     li 7767   3.785   5.433   0.930 -0.0343 -0.1415 -0.3777
 1018lim     li 7768   0.012   1.618   2.909  0.0098  1.3353 -0.5411
 1019lim     li 7769   1.154   3.533   6.641  0.1062  0.1596 -0.0788
 1020lim     li 7770   1.677   3.913   3.417  0.9452  0.4006  0.5147
 1021lim     li 7771   5.006   2.743   1.982 -0.4325  0.1231 -0.7849
 1022lim     li 7772   4.328   3.187   0.540  0.2394 -0.0882 -0.1563
 1023lim     li 7773   1.767   5.006   4.833  0.2988  1.5943 -0.9073
 1024lim     li 7774   5.496   1.411   3.488  0.5464  0.2162  0.5310
 1025lim     li 7775   6.612   5.830   0.988  0.1042  0.3576  0.1011
 1026lim     li 7776   5.272   0.234   1.826 -0.3863 -0.2952 -0.1329
 1027lim     li 7777   3.745   1.946   1.322  0.8938  0.4635  0.4913
 1028lim     li 7778   4.252   6.016   6.622  0.8986 -0.6907  0.5212
 1029lim     li 7779   5.606   6.394   1.143  0.4458  0.8104  0.5024
 1030lim     li 7780   0.528   5.506   3.926 -0.4698 -1.2305  0.0257
 1031lim     li 7781   6.606   0.677   0.793 -0.2370  0.2121  0.2489
 1032lim     li 7782   0.344   5.464   5.169 -0.0964 -0.0706  0.1941
 1033lim     li 7783   4.477   6.670   3.880  1.2970 -0.5468 -1.2179
 1034lim     li 7784   4.351   1.369   6.630  0.5921 -0.2766 -0.0032
 1035lim     li 7785   1.625   2.680   6.332 -0.8226  1.1922 -0.4854
 1036lim     li 7786   5.939   5.549   0.938  0.3233 -0.9911 -0.0189
 1037lim     li 7787   1.290   4.590   5.414 -0.0233 -0.2454 -0.9204
 1038lim     li 7788   2.984   2.629   6.136  0.6765  0.7764 -0.8185
 1039lim     li 7789   5.503   3.210   0.503 -0.0382  0.1940  0.1433
 1040lim     li 7790   2.851   0.130   6.252  0.4158 -0.3871 -0.3228
 1041lim     li 7791   2.139   6.376   1.973  0.2385  0.1246  0.0269
 1042lim     li 7792   0.052   1.099   2.237 -0.2849  0.3527  0.0082
 1043lim     li 7793   1.986   3.367   6.648  0.4100  0.7682 -0.0136
 1044lim     li 7794   2.462   4.870   1.246  0.8322 -0.8278  0.0843
 1045lim     li 7795   6.384   5.108   6.228  0.2082  0.1938  0.3142
 1046lim     li 7796   4.446   2.301   2.639  0.8677  0.1320  0.5264
 1047lim     li 7797   2.984   2.592   4.286  1.2888 -0.3934 -0.1842
 1048lim     li 7798   1.106   1.880   6.402 -1.0103  0.3478 -0.3258
 1049lim     li 7799   4.719   5.040   3.393  0.0035  0.0777  1.1465
 1050lim     li 7800   3.737   4.120   1.520  0.1816 -0.2543 -0.5587
 1051lim     li 7801   3.269   5.314   1.445  1.1867  2.2008  0.6857
 1052lim     li 7802   2.516   0.301   5.534 -0.8104  0.1059  0.1000
 1053lim     li 7803   1.746   4.431   0.122  0.0291  1.1136 -0.2731
 1054lim     li 7804   2.616   4.726   5.626  0.3152 -0.2321 -0.8033
 1055lim     li 7805   2.053   3.371   2.281  0.6689 -0.5864  0.0499
 1056lim     li 7806   6.213   6.426   0.408  0.2274  0.6061 -0.5936
 1057lim     li 7807   5.949   1.219   5.080  0.6946 -0.3843 -0.6343
 1058lim     li 7808   0.945   2.533   5.814 -0.4697 -1.1302 -0.2054
 1059lim     li 7809   2.075   1.653   3.694  0.5029 -0.2529  0.4689
 1060lim     li 7810   0.779   0.080   6.527  0.3820  0.3501  0.6319
 1061lim     li 7811   0.763   3.506   0.725  0.8889 -0.3449  0.1178
 1062lim     li 7812   5.094   4.093   1.070 -0.0997 -0.7965 -0.5585
 1063lim     li 7813   3.789   4.880   3.542  0.6148 -0.0354 -0.0813
 1064lim     li 7814   0.232   6.520   0.097 -0.5437 -0.2017 -0.1928
 1065lim     li 7815   3.762   6.592   2.160 -0.8495 -0.0843 -0.4564
 1066lim     li 7816   2.193   2.640   3.904  0.2406 -0.4856 -0.2139
 1067lim     li 7817   5.599   3.778   5.224  0.8101 -1.2164  0.5300
 1068lim     li 7818   4.671   6.289   1.620 -0.6693 -0.7321  0.0300
 1069lim     li 7819   3.730   2.712   5.722  0.2344 -0.4065  0.3185
 1070lim     li 7820   6.312   2.736   1.014 -1.2036 -0.4065 -0.2849
 1071lim     li 7821   5.936   1.802   1.060  0.1368 -0.8551  0.5031
 1072lim     li 7822   5.624   2.268   5.546 -0.3050 -0.4571 -0.6198
 1073lim     li 7823   1.857   5.798   4.611 -0.3399  0.3778  0.8397
 1074lim     li 7824   0.823   0.496   5.451 -0.8857  0.5311  0.6628
 1075lim     li 7825   0.740   1.057   4.707 -0.5314  0.4043 -0.4157
 1076lim     li 7826   0.648   0.515   3.021  0.4580 -0.3710  1.6978
 1077lim     li 7827   5.790   6.432   4.936 -0.2607 -0.6692 -0.1108
 1078lim     li 7828   2.832   4.714   1.818 -0.3001  0.5771  0.0065
 1079lim     li 7829   4.409   1.741   4.379 -0.4702  0.0358  0.1643
 1080lim     li 7830   2.680   4.230   0.656  0.2133 -0.7539  1.2056
 1081lim     li 7831   6.361   2.454   2.719 -0.6961  0.1810  0.6363
 1082lim     li 7832   1.559   3.121   3.766  0.9977 -1.0998  0.5839
 1083lim     li 7833   3.536   0.466   5.682 -0.7714  0.5853 -0.1949
 1084lim     li 7834   1.889   4.191   1.910  0.1776  0.2255 -0.6764
 1085lim     li 7835   3.689   5.673   5.509  1.1380  0.8648  0.1537
 1086lim     li 7836   2.309   2.754   0.938  0.0950 -0.3386 -0.8903
 1087lim     li 7837   2.379   5.175   0.018 -0.2082 -0.4779 -0.5709
 1088lim     li 7838   4.898   3.017   1.389 -1.1835 -0.6308  0.8395
 1089lim     li 7839   5.335   0.667   0.860 -0.7757  0.0818  0.4711
 1090lim     li 7840   5.977   6.035   6.524 -0.9884 -0.5259 -0.3488
 1091lim     li 7841   0.965   4.255   6.050 -0.4356  0.8167  1.4941
 1092lim     li 7842   1.415   6.601   0.677  0.6487 -0.2428  0.6710
 1093lim     li 7843   1.729   0.750   4.235 -1.3882 -0.3812 -0.8675
 1094lim     li 7844   3.954   4.814   2.538 -0.4460  0.0598 -0.9265
 1095lim     li 7845   1.647   3.142   0.808 -1.0748 -0.7828  0.0714
 1096lim     li 7846   5.339   4.832   0.684 -1.0434 -0.6481  0.2000
 1097lim     li 7847   5.407   4.273   5.482 -0.1280 -0.7314 -0.6440
 1098lim     li 7848   5.494   5.654   1.881  0.0197  0.4590 -0.2188
 1099lim     li 7849   4.065   2.480   4.680 -0.6163 -0.7945 -0.2774
 1100lim     li 7850   6.095   3.041   6.335 -0.5415  0.2277  0.0719
 1101lim     li 7851   2.206   0.567   6.660  0.4330 -0.8958  0.6552
 1102lim     li 7852   1.863   5.228   1.802  0.6692 -0.2980 -0.3963
 1103lim     li 7853   4.592   4.415   3.999 -0.9778  0.0569  1.4467
 1104lim     li 7854   0.649   2.217   2.788 -0.9597 -1.0327  0.6501
 1105lim     li 7855   2.810   2.467   1.106  0.6177  0.6921  0.1045
 1106lim     li 7856   2.720   4.558   3.519 -0.5646  0.5940  0.3941
 1107lim     li 7857   0.647   0.079   3.962 -1.0582 -0.0396  0.2773
 1108lim     li 7858   0.326   0.101   1.903 -0.1927  0.9308 -0.8873
 1109lim     li 7859   2.384   3.887   3.218  0.4271 -0.7182  0.8823
 1110lim     li 7860   1.333   2.359   0.260 -0.2238  1.1682  0.1483
 1111lim     li 7861   4.115   5.728   1.909  0.5432 -0.5176  0.7552
 1112lim     li 7862   6.384   0.063   5.139  0.1396  0.5712 -0.1124
 1113lim     li 7863   4.108   0.688   0.630  0.6759 -0.4740  1.2311
 1114lim     li 7864   3.016   1.917   2.065 -0.3254  0.3053 -0.0461
 1115lim     li 7865   6.776   0.859   3.204 -0.6851  0.2374  0.5775
 1116lim     li 7866   4.915   1.744   0.923 -0.0902 -0.1671  0.4272
 1117lim     li 7867   2.474   4.284   6.599 -1.7540 -0.5374 -0.9542
 1118lim     li 7868   3.485   0.926   0.265  0.3288 -0.4826  0.1091
 1119lim     li 7869   4.413   6.712   2.610  0.3361  0.5506 -0.8536
 1120lim     li 7870   3.186   1.518   5.461  0.5738 -0.1331  0.0081
 1121lim     li 7871   5.244   2.730   2.988  0.0188 -0.0642  0.3422
 1122lim     li 7872   4.653   0.885   3.810 -1.3295  0.2346  0.9407
 1123lim     li 7873   6.693   4.793   0.902  0.1562  0.0100 -0.1797
 1124lim     li 7874   1.462   6.530   5.236 -0.2835 -0.2716 -0.3291
 1125lim     li 7875   0.194   6.563   5.869 -0.0585  0.8200  0.1669
 1126lim     li 7876   2.949   6.220   5.744 -0.3537 -1.4534  0.7006
 1127lim     li 7877   1.888   4.273   5.981 -0.7478  0.0703  0.4153
 1128lim     li 7878   0.403   0.886   1.642  0.7235 -0.2162 -0.4818
 1129lim     li 7879   1.362   0.206   3.842  0.0157  0.3563 -0.2013
 1130lim     li 7880   1.620   4.650   2.650 -0.7008  0.5232 -0.5047
 1131lim     li 7881   3.114   1.709   6.346  0.9894  1.4306  0.7486
 1132lim     li 7882   0.770   5.338   1.517 -0.3294  0.5925 -0.4024
 1133lim     li 7883   0.942   0.646   1.404  0.0963  0.4678  0.1805
 1134lim     li 7884   2.663   1.125   1.882  0.4522  1.0090 -0.7808
 1135lim     li 7885   3.009   4.221   1.939 -0.3393  0.7193  0.2051
 1136lim     li 7886   6.165   4.338   5.940  0.5486  0.0677 -0.6854
 1137lim     li 7887   1.508   3.460   5.892  0.7606  0.0508  0.6679
 1138lim     li 7888   6.065   6.166   4.175  0.8540  0.1037 -0.2879
 1139lim     li 7889   0.725   5.463   3.307 -1.0719 -0.5884 -1.3408
 1140lim     li 7890   6.267   3.654   6.004 -0.5481 -0.5558 -0.4019
 1141lim     li 7891   6.551   3.733   2.103 -0.4544  0.9200  0.0162
 1142lim     li 7892   2.434   4.738   4.158  0.1782  0.2588  0.1278
 1143lim     li 7893   3.030   5.932   0.422  0.5033  0.7206  1.4773
 1144lim     li 7894   0.499   3.983   1.196  0.8607 -0.5832  0.5590
 1145lim     li 7895   1.001   1.243   2.180 -0.3132  0.7217 -0.2319
 1146lim     li 7896   5.515   6.481   2.598 -0.2984 -0.6495 -0.0175
 1147lim     li 7897   1.157   5.061   4.138  0.0049 -1.7458 -0.1813
 1148lim     li 7898   6.211   2.695   0.248 -0.1426  1.2507  0.7402
 1149lim     li 7899   2.572   5.662   4.689 -0.5258 -1.0920  0.4707
 1150lim     li 7900   2.031   3.649   0.383  0.0019  0.3888 -1.1186
 1151lim     li 7901   5.731   4.335   4.390  0.2596 -0.0639 -0.0658
 1152lim     li 7902   4.374   4.457   0.781 -0.6202 -0.4488 -0.6821
 1153lim     li 7903   2.859   1.441   0.517 -0.2157  0.8462 -0.6899
 1154lim     li 7904   6.733   6.454   4.323 -0.4309  0.5704 -0.8561
 1155lim     li 7905   0.814   6.500   0.937 -1.0141  0.0192 -0.6941
 1156lim     li 7906   5.882   6.638   1.980 -1.3405 -1.3596 -0.0707
 1157lim     li 7907   1.221   4.659   2.097 -0.8357 -0.3515  0.9878
 1158lim     li 7908   2.069   4.306   1.115  0.0899  0.3440 -0.3563
 1159lim     li 7909   5.293   2.324   4.714  1.2279 -0.2082  0.2314
 1160lim     li 7910   4.751   6.632   5.548  1.0273  0.6782  0.1141
 1161lim     li 7911   0.118   3.161   0.581 -0.7222 -0.6212 -0.6817
 1162lim     li 7912   6.211   3.918   3.676  0.2403 -0.0132 -1.0260
 1163lim     li 7913   1.024   2.185   1.529  0.0325  0.5276 -0.6584
 1164lim     li 7914   5.046   5.384   1.020 -0.2559  0.4974 -1.4668
 1165lim     li 7915   4.335   5.853   2.995 -0.1508  0.6946  0.4070
 1166lim     li 7916   3.835   1.332   4.601  1.0699 -0.2957 -0.3166
 1167lim     li 7917   0.927   4.505   3.571  0.1468  0.3922 -0.1340
 1168lim     li 7918   1.701   1.646   2.296  0.3284 -0.1308  0.7741
 1169lim     li 7919   4.598   3.496   2.289  0.1051 -0.6103  0.1952
 1170lim     li 7920   2.630   1.987   5.202 -1.2272  0.2835  0.5316
 1171lim     li 7921   4.739   5.040   5.731 -0.2149 -0.5418 -1.2180
 1172lim     li 7922   3.586   4.007   0.426 -0.3460  0.2924 -1.1333
 1173lim     li 7923   1.595   1.190   5.224  0.3293  0.4012  0.4426
 1174lim     li 7924   6.547   6.063   5.826 -0.4278  0.2646  0.1117
 1175lim     li 7925   3.891   5.201   6.117  1.0978 -1.2399  0.1707
 1176lim     li 7926   0.794   3.962   3.881  0.7158 -0.7198 -0.0739
 1177lim     li 7927   3.986   4.165   2.333  0.0387 -0.4507 -0.0531
 1178lim     li 7928   0.200   5.498   1.803  0.7075  0.1890 -0.8360
 1179lim     li 7929   2.797   3.793   2.254  0.5007 -0.0295  0.2704
 1180lim     li 7930   6.426   4.616   2.211 -0.4216 -1.0302  0.2530
 1181lim     li 7931   2.289   4.671   2.782  0.7143  0.4812 -0.4588
 1182lim     li 7932   0.391   2.709   2.470 -0.0905  0.3994  1.5718
 1183lim     li 7933   2.073   5.868   5.644 -1.0776  0.7835  0.8157
 1184lim     li 7934   1.610   6.735   6.632  0.7561  0.0979 -0.2167
 1185lim     li 7935   1.319   3.795   2.666 -0.9638  0.6408 -0.7113
 1186lim     li 7936   6.715   1.139   4.599 -0.1247 -0.8555 -0.0496
 1187lim     li 7937   1.035   0.184   4.728  0.3133 -0.6251  0.3860
 1188lim     li 7938   6.628   6.677   2.951 -1.1593 -1.3943 -0.2037
 1189lim     li 7939   3.821   2.474   0.415 -0.4700  0.3086  0.5179
 1190lim     li 7940   2.355   3.165   5.884  0.0164 -1.4041 -0.8581
 1191lim     li 7941   5.196   2.861   5.379  0.3090  0.1103  0.5064
 1192lim     li 7942   4.518   5.348   3.844  1.2476  0.9853 -0.4445
 1193lim     li 7943   0.183   4.810   5.703  0.7153  0.0490  0.1257
 1194lim     li 7944   2.897   0.992   6.509  0.4333  0.4733  0.8421
 1195lim     li 7945   2.438   2.442   6.701 -0.4078 -0.0257 -0.3609
 1196lim     li 7946   4.823   4.895   4.694  1.7971 -0.4589 -0.1281
 1197lim     li 7947   2.316   0.867   1.501  0.6272  0.9328  1.0987
 1198lim     li 7948   1.749   0.598   2.197 -0.3191 -0.6633 -0.7382
 1199lim     li 7949   2.922   3.414   6.699 -0.9032  0.5746  0.5840
 1200lim     li 7950   3.423   5.423   0.013 -0.1786 -0.0853  0.0528
 1201lim     li 7951   5.602   0.575   5.859  0.5753 -0.4574  0.6167
 1202lim     li 7952   3.535   4.614   0.424  0.0295  0.1676 -0.3745
 1203lim     li 7953   0.647   6.152   1.534 -0.1391  0.1997 -0.1890
 1204lim     li 7954   0.515   5.926   5.885 -0.0571  0.9404 -0.0860
 1205lim     li 7955   2.949   2.827   0.569 -0.5308 -2.3850  0.2715
 1206lim     li 7956   5.433   0.626   4.212 -0.5115 -0.1301  0.2875
 1207lim     li 7957   0.280   5.220   1.023  0.8321 -0.0429 -1.1764
 1208lim     li 7958   3.891   3.521   4.196 -1.1827  0.2685  0.5596
 1209lim     li 7959   6.166   2.827   5.479 -0.1161 -0.4717 -0.2735
 1210lim     li 7960   3.731   1.974   6.281  0.3101  0.8164 -0.4965
 1211lim     li 7961   5.445   5.411   4.353  0.1071  0.3873 -0.3604
 1212lim     li 7962   5.373   0.043   6.276 -1.2390  0.7039 -0.0249
 1213lim     li 7963   0.847   1.307   1.167  0.5969 -0.8056  1.3064
 1214lim     li 7964   3.394   3.426   2.286 -0.0235 -0.1841 -0.2781
 1215lim     li 7965   6.075   4.816   4.819  0.4265  1.6721 -0.1342
 1216lim     li 7966   1.321   1.916   5.604  0.1580  0.9866 -1.1076
 1217lim     li 7967   3.820   3.202   4.741 -0.1059  0.7288  0.2094
 1218lim     li 7968   4.211   1.019   2.904  0.0728  1.0588  0.7894
 1219lim     li 7969   0.934   3.399   5.319  0.5277  0.5882  0.3956
 1220lim     li 7970   4.850   5.950   2.463 -0.1180  1.0419 -0.4624
 1221lim     li 7971   4.574   4.028   3.025  0.7208  0.3788  1.0575
 1222lim     li 7972   4.494   4.527   0.143 -0.5271 -0.1701 -0.2620
 1223lim     li 7973   4.458   4.504   6.313 -0.0451  0.4759  0.1898
 1224lim     li 7974   5.501   2.349   6.635 -0.4372  0.1093  0.4170
 1225lim     li 7975   5.885   3.536   1.396  1.2759 -0.8167  0.7830
 1226lim     li 7976   3.700   6.157   4.754 -0.2076  0.4027 -0.3576
 1227lim     li 7977   4.014   0.371   3.605  1.7883 -0.4355  1.0396
 1228lim     li 7978   5.121   4.122   4.056  1.2716 -0.0176  0.0333
 1229lim     li 7979   0.383   2.560   5.188 -0.4989 -0.0925  0.4222
 1230lim     li 7980   1.549   5.087   0.488 -0.0525 -0.4657  0.0565
 1231lim     li 7981   4.127   4.320   5.446 -1.2934 -0.7671  0.8484
 1232lim     li 7982   1.462   5.416   5.385 -0.2430  0.1783  0.0575
 1233lim     li 7983   3.519   6.409   6.714  0.1326  0.0568 -1.0875
 1234lim     li 7984   1.891   5.060   3.669  0.7283  0.6646 -1.5371
 1235lim     li 7985   3.760   3.370   6.670  0.3535  0.8468 -0.1594
 1236lim     li 7986   3.944   3.473   3.377 -0.3434  0.0593 -0.0391
 1237lim     li 7987   6.139   1.435   6.142 -0.2740 -1.2009  0.2004
 1238lim     li 7988   5.938   0.328   1.318  0.5945  0.3648 -0.4650
 1239lim     li 7989   4.109   0.450   2.024 -1.0916  2.0033  1.1345
 1240lim     li 7990   2.761   2.879   2.603  0.1648 -0.1434  0.1184
 1241lim     li 7991   3.480   0.645   4.036 -0.2413 -0.9782  1.0163
 1242lim     li 7992   5.995   0.598   0.273  0.6904  0.5303 -0.0287
 1243lim     li 7993   1.579   2.882   1.755  0.1896 -0.2662 -0.4768
 1244lim     li 7994   1.038   5.700   4.777  0.6297  0.3960 -0.3047
 1245lim     li 7995   6.605   1.849   3.596 -0.2088 -0.1790 -0.6755
 1246lim     li 7996   0.293   1.990   5.753  0.6528 -0.5738  0.4123
 1247lim     li 7997   3.318   1.738   4.106  0.1811 -0.7627 -0.6351
 1248lim     li 7998   3.473   4.568   5.944 -0.1626  0.5093  0.2316
 1249lim     li 7999   2.725   1.794   1.280 -0.4189 -0.0851 -0.0544
 1250lim     li 8000   2.446   0.927   2.707  0.1674  0.8837 -0.0868
 1251lim     li 8001   3.651   2.576   3.880 -0.1086 -0.2217 -0.4399
 1252lim     li 8002   6.420   3.809   0.891  0.4932 -1.6686 -0.3809
 1253lim     li 8003   1.195   5.632   0.770 -0.5065 -0.4883 -0.2075
 1254lim     li 8004   3.079   4.987   2.509  0.1251 -0.0536  0.4384
 1255lim     li 8005   1.142   4.577   1.366  0.6647  0.5604  0.1269
 1256lim     li 8006   5.168   0.360   2.741  0.8462 -1.1953  0.0708
 1257lim     li 8007   2.916   2.729   3.469  0.2857 -0.2918 -0.2263
 1258lim     li 8008   4.138   4.172   3.539  0.3447 -1.0096  0.0431
 1259lim     li 8009   6.398   6.195   1.675  1.0924 -0.2004  0.1539
 1260lim     li 8010   3.030   6.508   3.769  1.3919 -0.8076 -0.0049
 1261lim     li 8011   1.147   4.151   4.675  0.4760  0.5678 -0.4219
 1262lim     li 8012   5.724   2.543   1.226  0.1840 -0.9103  0.3702
 1263lim     li 8013   0.141   2.718   3.543  0.7055  0.3717  0.2947
 1264lim     li 8014   0.908   5.888   6.704  0.6682 -0.2704  0.2740
 1265lim     li 8015   5.282   0.835   3.029 -0.3389 -0.3445 -0.3964
 1266lim     li 8016   3.490   2.403   2.340  0.4734  0.3602  0.1399
 1267lim     li 8017   6.715   5.180   3.346 -0.9927  0.7799 -0.5726
 1268lim     li 8018   3.032   5.981   2.362 -0.3999 -0.1089  0.5356
 1269lim     li 8019   6.097   3.880   2.477 -0.2696  0.5111  0.6947
 1270lim     li 8020   0.500   4.968   4.572 -1.0898 -0.8645  0.2722
 1271lim     li 8021   5.982   6.710   6.634  0.0154 -0.4675  0.7606
 1272lim     li 8022   5.345   2.501   3.990 -0.2016 -0.0278  0.1124
 1273lim     li 8023   6.742   4.576   4.015 -0.5237 -0.3004 -0.2867
 1274lim     li 8024   5.097   6.553   4.470  0.1393  0.0202 -0.4748
 1275lim     li 8025   4.964   6.652   3.255 -0.6408  0.1708  0.5128
 1276lim     li 8026   1.393   2.714   2.387  1.0011 -0.1634 -0.4179
 1277lim     li 8027   2.047   3.003   3.105  0.2655  0.3224 -0.7364
 1278lim     li 8028   5.211   1.831   1.684 -0.3526 -1.4548  0.0160
 1279lim     li 8029   1.790   5.756   0.114 -0.2177  0.8599 -0.5166
 1280lim     li 8030   0.523   2.946   1.527 -0.3521  0.9590  0.3910
 1281lim     li 8031   5.353   0.204   3.948 -0.9217  0.9595 -0.5438
 1282lim     li 8032   6.379   4.211   3.006  0.5744 -0.3849 -0.0963
 1283lim     li 8033   2.362   6.212   1.037  0.0716  0.5184  0.0448
 1284lim     li 8034   2.412   5.577   3.406 -0.4054  0.3272 -0.6107
 1285lim     li 8035   0.236   3.607   0.018  0.7852 -1.3063 -1.3972
 1286lim     li 8036   2.721   0.832   3.560  0.6040  0.5221  0.3209
 1287lim     li 8037   4.518   0.676   4.553  0.7523  0.1746 -0.4329
 1288lim     li 8038   0.832   2.740   0.995 -0.7179  0.1876  0.0343
 1289lim     li 8039   5.619   3.219   2.199  0.7510 -0.5087  0.0982
 1290lim     li 8040   0.309   4.306   1.965  0.9676  0.3273  0.2359
 1291lim     li 8041   1.604   0.122   1.471  1.0708 -0.2862 -1.0374
 1292lim     li 8042   5.547   1.114   2.243  0.7866  0.8397 -0.0288
 1293lim     li 8043   5.874   0.548   4.918  0.3294  0.0263  0.0892
 1294lim     li 8044   3.724   0.880   6.466  0.3194  0.9260 -0.0969
 1295lim     li 8045   6.690   3.399   4.346  1.1969  0.8872 -0.1999
 1296lim     li 8046   6.777   4.136   4.347  0.2345  0.2829 -1.5093
 1297lim     li 8047   5.653   1.314   5.459  0.6980 -1.1282  0.7304
 1298lim     li 8048   0.193   5.999   4.497  0.4801  0.0691 -0.5716
 1299lim     li 8049   4.080   2.684   6.285 -0.2406  0.6332  0.8342
 1300lim     li 8050   6.197   5.597   2.301 -0.1429 -0.3580  0.3482
 1301lim     li 8051   3.596   0.157   0.774 -0.0931 -0.1053 -0.4144
 1302lim     li 8052   2.986   5.318   6.011  1.1958 -0.3923  0.9208
 1303lim     li 8053   0.574   1.110   6.598 -0.1772  1.0598  0.5273
 1304lim     li 8054   0.690   4.929   0.350 -1.4846  0.6308 -0.2954
 1305lim     li 8055   2.473   6.518   4.472  0.8171  0.5348 -0.9060
 1306lim     li 8056   3.690   6.492   3.198  1.0225 -0.0033  0.2019
 1307lim     li 8057   0.269   6.443   3.516  0.2616 -0.0804  0.4215
 1308lim     li 8058   0.627   6.356   5.160  0.3769 -0.3844  0.1895
 1309lim     li 8059   5.231   6.096   0.282 -0.3606  0.6800  0.0383
 1310lim     li 8060   1.777   2.113   4.520  0.7194 -0.3867  0.6108
 1311lim     li 8061   4.689   3.594   0.098  0.2225  0.3285 -0.8701
 1312lim     li 8062   1.565   1.464   4.627  0.4653  0.4689 -1.4662
 1313lim     li 8063   1.611   3.744   5.180 -0.4989  0.8165  1.0696
 1314lim     li 8064   1.006   2.925   2.926 -0.7075  0.2414 -0.0329
 1315lim     li 8065   5.302   0.760   6.508 -0.7155  0.6176  0.5853
 1316lim     li 8066   4.570   1.816   6.034  0.3227  0.9425 -1.0865
 1317lim     li 8067   2.190   6.722   5.154 -0.6627  0.8979 -0.5476
 1318lim     li 8068   6.176   3.657   0.155  1.1909 -0.5293  0.2839
 1319lim     li 8069   0.414   1.851   0.302 -0.0046  0.6808 -0.7525
 1320lim     li 8070   2.993   3.841   4.344  0.1365  1.2404  1.3635
 1321lim     li 8071   1.110   2.679   5.022 -0.2492  1.0743  0.1147
 1322lim     li 8072   2.641   3.437   3.796  0.2639 -0.1022 -0.2922
 1323lim     li 8073   3.077   5.697   4.124  0.4806  0.2283  0.0496
 1324lim     li 8074   4.042   3.063   1.871 -0.0644  0.6506 -0.0110
 1325lim     li 8075   6.465   1.184   1.362  0.5066  0.9703 -0.6595
 1326lim     li 8076   5.857   1.682   4.292 -1.8516  1.0911  0.3096
 1327lim     li 8077   1.179   1.555   0.451  0.6368 -0.0539  0.0298
 1328lim     li 8078   2.134   2.325   2.043  1.0484  0.6470 -0.3959
 1329lim     li 8079   3.896   1.535   5.357  0.5656 -0.4661  0.7347
 1330lim     li 8080   5.374   4.102   6.394 -0.2840  0.8007  0.0182
 1331lim     li 8081   2.421   5.251   0.728 -0.3817 -0.7113 -0.3502
 1332lim     li 8082   3.112   5.219   3.522 -1.2518 -1.0884 -0.1674
 1333lim     li 8083   2.191   0.489   3.428 -1.2311 -0.1709  0.1382
 1334lim     li 8084   3.077   6.113   1.323  0.0720  0.1028 -0.7691
 1335lim     li 8085   2.119   1.871   6.309 -0.5173  0.7435  1.4791
 1336lim     li 8086   3.987   1.470   3.595  0.1946 -0.0315  1.1399
 1337lim     li 8087   1.006   0.094   2.450 -0.2681  0.7169 -0.4739
 1338lim     li 8088   6.197   4.345   1.325 -0.4175 -1.1307  0.3084
 1339lim     li 8089   4.152   2.177   1.831 -0.8611 -0.4408 -0.8475
 1340lim     li 8090   1.461   5.438   2.946 -0.0758  0.2776 -0.2853
 1341lim     li 8091   5.531   4.999   5.323 -0.2779  0.2035 -0.9910
 1342lim     li 8092   2.487   3.392   1.540  0.5980  0.7093 -0.5728
 1343lim     li 8093   1.783   0.031   3.179  0.6886 -0.2161  1.3031
 1344lim     li 8094   0.230   3.254   5.262  0.0298 -0.4132  0.4981
 1345lim     li 8095   5.474   3.876   2.618  0.2477  0.0566 -0.7235
 1346lim     li 8096   6.776   0.530   6.366 -0.5821 -1.3507  0.1315
 1347lim     li 8097   1.525   0.703   0.649 -0.6930 -0.4823 -1.3536
 1348lim     li 8098   2.388   2.577   5.181  0.3784  1.0729  0.1444
 1349lim     li 8099   3.920   5.295   2.170  0.5153  0.5076  0.0829
 1350lim     li 8100   6.226   2.572   4.091  0.9323  0.1008 -0.2546
 1351ntf    cn1 8101   6.167   5.912   5.710 -0.3370 -0.4726  0.4717
 1351ntf    sn2 8102   6.301   5.815   5.786  0.0242 -0.0705  0.3578
 1351ntf    nn3 8103   6.226   5.755   5.911  0.1461 -0.6317  0.1653
 1351ntf    sn2 8104   6.240   5.791   6.063 -0.1387  0.0418  0.0359
 1351ntf    cn1 8105   6.066   5.767   6.110 -0.2514 -0.1868 -0.4837
 1351ntf    fn4 8106   6.058   5.839   5.696 -0.7798  0.1927  0.4069
 1351ntf    fn4 8107   6.131   6.019   5.780  0.1517  0.0287 -0.0257
 1351ntf    fn4 8108   6.197   5.965   5.592 -0.3933 -0.0482  0.6451
 1351ntf    on5 8109   6.329   5.721   5.679  0.1799  0.7902 -0.3694
 1351ntf    on5 8110   6.410   5.903   5.815 -0.0654  0.3564 -0.5563
 1351ntf    on5 8111   6.269   5.929   6.093 -0.1632  0.1595 -0.4790
 1351ntf    on5 8112   6.291   5.687   6.148  0.2619 -0.0967 -0.3692
 1351ntf    fn4 8113   6.043   5.800   6.236 -0.3984 -0.0872 -0.5366
 1351ntf    fn4 8114   5.984   5.837   6.034 -0.0227  0.1713 -0.4055
 1351ntf    fn4 8115   6.022   5.643   6.093 -0.8464 -0.0406 -0.0679
 1352ntf    cn1 8116   1.718   3.264   2.773 -0.6979  0.4239 -0.2966
 1352ntf    sn2 8117   1.561   3.239   2.860 -0.5559 -0.2173 -0.2222
 1352ntf    nn3 8118   1.610   3.296   2.998 -1.1271 -0.3546  0.0427
 1352ntf    sn2 8119   1.583   3.239   3.141 -0.0214  0.0944  0.4400
 1352ntf    cn1 8120   1.509   3.391   3.207  0.1526  0.2617  0.2519
 1352ntf    fn4 8121   1.713   3.200   2.657  0.1760 -0.3844  0.1023
 1352ntf    fn4 8122   1.740   3.390   2.739 -0.5318  0.5099  0.1260
 1352ntf    fn4 8123   1.823   3.215   2.837 -0.7946  0.3447 -0.1979
 1352ntf    on5 8124   1.468   3.331   2.800  0.1527  0.2464 -0.6200
 1352ntf    on5 8125   1.531   3.098   2.856 -0.0467 -0.3256 -0.3173
 1352ntf    on5 8126   1.701   3.211   3.221  0.6308  0.0839 -0.5088
 1352ntf    on5 8127   1.471   3.150   3.160 -0.2384  0.1734 -0.4313
 1352ntf    fn4 8128   1.494   3.384   3.339 -0.5997 -0.2955  0.1393
 1352ntf    fn4 8129   1.568   3.507   3.185 -0.3615  0.4091 -0.3826
 1352ntf    fn4 8130   1.391   3.412   3.151  0.4210  0.0714 -0.3927
 1353ntf    cn1 8131   4.660   5.262   5.174  0.0742 -0.3911  0.2172
 1353ntf    sn2 8132   4.759   5.114   5.136  0.0076 -0.2868 -0.3677
 1353ntf    nn3 8133   4.738   5.042   5.273  0.4845  0.0587 -0.1086
 1353ntf    sn2 8134   4.835   4.935   5.335  0.2173  0.0187  0.2452
 1353ntf    cn1 8135   4.736   4.785   5.309  0.2707 -0.0052  0.1761
 1353ntf    fn4 8136   4.646   5.336   5.065  0.2344 -0.5408  0.0942
 1353ntf    fn4 8137   4.538   5.221   5.206 -0.2784  0.4789  0.0227
 1353ntf    fn4 8138   4.702   5.332   5.278 -0.0078  0.0716 -0.0582
 1353ntf    on5 8139   4.684   5.056   5.027 -0.5660 -0.3860  0.0791
 1353ntf    on5 8140   4.895   5.151   5.104 -0.2383  0.4126 -0.6130
 1353ntf    on5 8141   4.839   4.942   5.479  0.9719 -0.3070  0.2461
 1353ntf    on5 8142   4.959   4.893   5.275 -0.1303 -0.7019  0.0183
 1353ntf    fn4 8143   4.626   4.790   5.382  0.0297 -0.4794 -0.1471
 1353ntf    fn4 8144   4.703   4.753   5.185 -0.2485  0.2438  0.2492
 1353ntf    fn4 8145   4.794   4.680   5.366  0.6529  0.0159 -0.1704
 1354ntf    cn1 8146   6.685   5.446   2.732  0.0347 -0.2120  0.0172
 1354ntf    sn2 8147   6.759   5.376   2.582  0.1160  0.2126 -0.1406
 1354ntf    nn3 8148   6.890   5.321   2.649 -0.1972  0.0382  0.3315
 1354ntf    sn2 8149   6.941   5.174   2.670 -0.2824 -0.0614 -0.1372
 1354ntf    cn1 8150   7.096   5.222   2.752 -0.2619 -0.0828 -0.1630
 1354ntf    fn4 8151   6.759   5.550   2.765 -0.2073 -0.0597  0.0823
 1354ntf    fn4 8152   6.563   5.487   2.702  0.3732  0.3484 -0.6175
 1354ntf    fn4 8153   6.672   5.374   2.843  0.1663 -0.3949 -0.0851
 1354ntf    on5 8154   6.659   5.283   2.538 -0.4044  0.6208  0.1748
 1354ntf    on5 8155   6.795   5.487   2.496  0.3481  0.3130  0.0833
 1354ntf    on5 8156   6.971   5.101   2.549  0.0906 -0.6329  0.2947
 1354ntf    on5 8157   6.883   5.100   2.779 -0.0000  0.4616  0.3726
 1354ntf    fn4 8158   7.196   5.137   2.735  0.0574  0.3903 -0.6844
 1354ntf    fn4 8159   7.146   5.331   2.695  0.9539 -0.2277  0.5745
 1354ntf    fn4 8160   7.091   5.231   2.884  0.0774 -0.0708 -0.1511
 1355ntf    cn1 8161   0.765   0.044   0.524 -0.1881  0.1127  0.0347
 1355ntf    sn2 8162   0.815   0.196   0.440 -0.0420  0.1011  0.1007
 1355ntf    nn3 8163   0.895   0.257   0.560  0.4628 -0.4965  0.0696
 1355ntf    sn2 8164   0.865   0.364   0.671  0.2758 -0.0063 -0.4534
 1355ntf    cn1 8165   0.805   0.250   0.799  0.3233  0.4279 -0.0418
 1355ntf    fn4 8166   0.665   0.075   0.605  0.0317 -0.0157  0.3556
 1355ntf    fn4 8167   0.713  -0.047   0.443 -0.0726  0.1012 -0.0268
 1355ntf    fn4 8168   0.862  -0.007   0.597 -0.2005  0.5260  0.3429
 1355ntf    on5 8169   0.904   0.146   0.338 -0.3427 -0.5937  0.1770
 1355ntf    on5 8170   0.697   0.271   0.405 -0.0802  0.2946  0.6324
 1355ntf    on5 8171   0.749   0.447   0.649  0.3560  0.1390 -0.3305
 1355ntf    on5 8172   0.985   0.419   0.730  0.4938 -0.3165 -0.6057
 1355ntf    fn4 8173   0.680   0.211   0.785  0.3723  0.3231 -0.1937
 1355ntf    fn4 8174   0.875   0.138   0.792 -0.1793  0.0676  0.5550
 1355ntf    fn4 8175   0.815   0.310   0.917  0.3240  0.2427  0.0527
 1356ntf    cn1 8176   6.009   3.991   2.055 -0.2868  0.0548  0.0783
 1356ntf    sn2 8177   5.992   3.832   2.142  0.0924  0.2192  0.4549
 1356ntf    nn3 8178   6.139   3.779   2.133 -0.1846 -0.4045 -0.4641
 1356ntf    sn2 8179   6.222   3.711   2.018  0.0559 -0.1218 -0.4587
 1356ntf    cn1 8180   6.165   3.539   2.037  0.3476 -0.1773 -0.0727
 1356ntf    fn4 8181   5.909   4.076   2.070  0.1665  0.6085 -0.0063
 1356ntf    fn4 8182   6.111   4.060   2.103 -0.0977 -0.1855  0.0299
 1356ntf    fn4 8183   6.013   3.978   1.923 -0.2042 -0.1252  0.0978
 1356ntf    on5 8184   5.968   3.867   2.280  0.7391  0.4238  0.5210
 1356ntf    on5 8185   5.889   3.760   2.072  0.2498  0.3112  0.1299
 1356ntf    on5 8186   6.362   3.706   2.053 -0.0884  0.1266  0.1523
 1356ntf    on5 8187   6.181   3.751   1.886  0.1958  0.6486 -0.2714
 1356ntf    fn4 8188   6.190   3.492   2.158 -0.4847  0.1143  0.2234
 1356ntf    fn4 8189   6.035   3.522   2.018  0.2125  0.1029  0.5750
 1356ntf    fn4 8190   6.233   3.467   1.950  0.6420 -0.1339  0.1177
 1357ntf    cn1 8191   5.355   1.927   6.578  0.2399 -0.2806  0.5537
 1357ntf    sn2 8192   5.510   2.016   6.610  0.1671  0.0300  0.0544
 1357ntf    nn3 8193   5.541   1.958   6.753  0.3746  0.1403  0.0551
 1357ntf    sn2 8194   5.483   2.002   6.892 -0.3395 -0.5508 -0.0176
 1357ntf    cn1 8195   5.624   2.095   6.958 -0.6554  0.1936 -0.3836
 1357ntf    fn4 8196   5.311   1.955   6.456  0.0093  0.2800  0.7587
 1357ntf    fn4 8197   5.356   1.795   6.587  0.5126 -0.2917  0.3562
 1357ntf    fn4 8198   5.251   1.962   6.652 -0.0120  0.0361  0.0545
 1357ntf    on5 8199   5.600   1.972   6.507  0.4071 -0.4393  0.4599
 1357ntf    on5 8200   5.481   2.157   6.599  0.7978  0.1063 -0.7320
 1357ntf    on5 8201   5.486   1.892   6.985 -0.6528 -0.2759  0.3188
 1357ntf    on5 8202   5.375   2.096   6.879 -0.0181 -0.1866 -0.0947
 1357ntf    fn4 8203   5.610   2.124   7.087 -0.3463  0.0482 -0.3153
 1357ntf    fn4 8204   5.740   2.035   6.937 -0.7152 -0.1934  0.3440
 1357ntf    fn4 8205   5.636   2.212   6.898  0.3653  0.3642  0.1336
 1358ntf    cn1 8206   0.130   2.474   6.243  0.2760  0.3719  0.1102
 1358ntf    sn2 8207   0.078   2.491   6.069  0.3799 -0.3096  0.0101
 1358ntf    nn3 8208   0.211   2.521   5.992  0.4231 -0.0771  0.1730
 1358ntf    sn2 8209   0.267   2.663   5.956  0.0721 -0.0300 -0.1914
 1358ntf    cn1 8210   0.174   2.711   5.808  0.0960  0.5521 -0.0231
 1358ntf    fn4 8211   0.164   2.590   6.297  0.1200  0.2279  0.5176
 1358ntf    fn4 8212   0.033   2.419   6.315  0.1475  0.2479 -0.1572
 1358ntf    fn4 8213   0.238   2.400   6.255  0.1003  0.2018  0.6722
 1358ntf    on5 8214   0.035   2.356   6.039  0.5997 -0.1814 -0.9044
 1358ntf    on5 8215  -0.019   2.598   6.066  0.7301  0.0056 -0.0144
 1358ntf    on5 8216   0.400   2.656   5.903  0.0600 -0.1610 -0.2038
 1358ntf    on5 8217   0.235   2.768   6.050  0.8232 -0.1572  0.2140
 1358ntf    fn4 8218   0.242   2.791   5.727  0.0365  0.0743 -0.5546
 1358ntf    fn4 8219   0.132   2.598   5.752 -0.2173  0.5754  0.1650
 1358ntf    fn4 8220   0.069   2.786   5.834 -0.1072  0.2238  0.1108
 1359ntf    cn1 8221   2.275   2.173   2.906  0.1692 -0.2416  0.0646
 1359ntf    sn2 8222   2.166   2.084   2.790 -0.1451  0.1161  0.0848
 1359ntf    nn3 8223   2.212   1.936   2.816 -0.2221  0.0010 -0.4290
 1359ntf    sn2 8224   2.301   1.849   2.720  0.0781  0.1016 -0.2435
 1359ntf    cn1 8225   2.188   1.782   2.594 -0.4809 -0.1880  0.3995
 1359ntf    fn4 8226   2.401   2.137   2.891  0.3748  0.2335  0.6302
 1359ntf    fn4 8227   2.267   2.300   2.871  0.0642 -0.3470 -0.3014
 1359ntf    fn4 8228   2.247   2.156   3.034 -0.1943 -0.5517 -0.0540
 1359ntf    on5 8229   2.039   2.114   2.851 -0.1260 -0.1440  0.2512
 1359ntf    on5 8230   2.187   2.135   2.657  0.3830  0.5538  0.3293
 1359ntf    on5 8231   2.345   1.734   2.795  0.3767  0.0531 -0.4915
 1359ntf    on5 8232   2.411   1.919   2.659  0.4112 -0.0482  0.1785
 1359ntf    fn4 8233   2.110   1.878   2.547 -0.2123 -0.1691 -0.0117
 1359ntf    fn4 8234   2.272   1.749   2.497 -0.1791  0.0755  0.5681
 1359ntf    fn4 8235   2.113   1.680   2.630 -0.3059 -0.4734 -0.0345
 1360ntf    cn1 8236   2.908   1.947   0.626 -0.4373 -0.0964  0.0514
 1360ntf    sn2 8237   2.929   1.808   0.511 -0.0976  0.0410 -0.0531
 1360ntf    nn3 8238   2.834   1.857   0.395  0.2866  0.5835 -0.1399
 1360ntf    sn2 8239   2.860   1.942   0.266  0.0541  0.3957 -0.3104
 1360ntf    cn1 8240   2.717   2.048   0.230 -0.3336  0.0631  0.2453
 1360ntf    fn4 8241   2.788   1.945   0.683 -0.2229 -0.7235  0.4974
 1360ntf    fn4 8242   3.000   1.935   0.720 -0.4140  0.0439  0.0460
 1360ntf    fn4 8243   2.915   2.068   0.575 -0.0259 -0.0217  0.2783
 1360ntf    on5 8244   3.067   1.818   0.472 -0.0773 -1.0068 -0.2863
 1360ntf    on5 8245   2.881   1.698   0.591 -0.2819  0.0248 -0.1839
 1360ntf    on5 8246   2.858   1.850   0.155  0.1545  0.2441 -0.1873
 1360ntf    on5 8247   2.970   2.035   0.273  0.4294 -0.0769  0.0980
 1360ntf    fn4 8248   2.740   2.139   0.137  0.2435 -0.3733 -0.0436
 1360ntf    fn4 8249   2.611   1.976   0.195  0.1806 -0.3709 -0.4508
 1360ntf    fn4 8250   2.678   2.113   0.338  0.1847  0.2545  0.3194
 1361ntf    cn1 8251   3.628   1.045   3.896  0.4690  0.1058 -0.3189
 1361ntf    sn2 8252   3.507   1.146   3.987  0.5313 -0.2185  0.1245
 1361ntf    nn3 8253   3.465   1.031   4.085 -0.2179 -0.1569 -0.1147
 1361ntf    sn2 8254   3.340   0.937   4.092 -0.0297 -0.3846  0.2708
 1361ntf    cn1 8255   3.270   0.963   4.258 -0.2841 -0.3185  0.1547
 1361ntf    fn4 8256   3.586   0.922   3.872  0.8931 -0.0640 -0.1934
 1361ntf    fn4 8257   3.658   1.098   3.778  0.1245  0.3602 -0.2956
 1361ntf    fn4 8258   3.742   1.030   3.962 -0.1473 -0.2710  0.6822
 1361ntf    on5 8259   3.587   1.248   4.049  0.2163 -0.1721  0.4595
 1361ntf    on5 8260   3.407   1.179   3.888 -0.4803 -0.0032  1.1940
 1361ntf    on5 8261   3.379   0.798   4.100  0.2772 -0.3460 -0.4981
 1361ntf    on5 8262   3.232   0.973   4.003 -0.3018 -0.3280  0.6229
 1361ntf    fn4 8263   3.165   0.885   4.277 -0.0503 -0.6319  0.1801
 1361ntf    fn4 8264   3.360   0.939   4.352  0.1519 -0.1914 -0.2234
 1361ntf    fn4 8265   3.228   1.087   4.276  0.4173 -0.1057  0.3435
 1362ntf    cn1 8266   4.048   1.031   6.088  0.2060  0.1711  0.1969
 1362ntf    sn2 8267   4.095   0.896   6.200  0.2373 -0.1081 -0.1531
 1362ntf    nn3 8268   4.108   0.779   6.095  0.0605 -0.3873  0.1339
 1362ntf    sn2 8269   4.236   0.732   6.017  0.4210  0.0470  0.4493
 1362ntf    cn1 8270   4.306   0.614   6.136  0.3946 -0.2820  0.1400
 1362ntf    fn4 8271   3.921   1.029   6.051  0.2131  0.4777  0.1490
 1362ntf    fn4 8272   4.069   1.149   6.145 -0.8880  0.4232  0.1068
 1362ntf    fn4 8273   4.121   1.024   5.978 -0.4889  0.1087 -0.2651
 1362ntf    on5 8274   4.219   0.939   6.260 -0.1943  0.5147  0.2990
 1362ntf    on5 8275   3.985   0.875   6.291  0.5246  0.0643  0.2361
 1362ntf    on5 8276   4.332   0.836   5.991  0.4048 -0.0800 -0.1389
 1362ntf    on5 8277   4.204   0.656   5.898 -0.8963  0.1006  0.7549
 1362ntf    fn4 8278   4.219   0.524   6.179  0.1953 -0.0771  0.1624
 1362ntf    fn4 8279   4.408   0.542   6.091  0.3625 -0.4534  0.3389
 1362ntf    fn4 8280   4.350   0.682   6.240  0.2805  0.0914 -0.0575
 1363ntf    cn1 8281   5.770   0.557   6.227 -0.1431  0.2550 -0.0051
 1363ntf    sn2 8282   5.597   0.510   6.200 -0.1243  0.0542  0.2291
 1363ntf    nn3 8283   5.603   0.357   6.236  0.3620  0.0576  0.1630
 1363ntf    sn2 8284   5.572   0.289   6.374 -0.2808  0.5529  0.2688
 1363ntf    cn1 8285   5.718   0.188   6.414 -0.5019  0.1035 -0.0515
 1363ntf    fn4 8286   5.856   0.477   6.166  0.0414  0.0856  0.4713
 1363ntf    fn4 8287   5.805   0.681   6.198 -0.2805  0.2084 -0.3873
 1363ntf    fn4 8288   5.795   0.544   6.356  0.1340 -0.5608 -0.1314
 1363ntf    on5 8289   5.521   0.591   6.292  0.1547 -0.2813  0.7611
 1363ntf    on5 8290   5.578   0.527   6.058  0.3052 -0.6024  0.0881
 1363ntf    on5 8291   5.473   0.186   6.353  0.0230  0.4216 -0.5742
 1363ntf    on5 8292   5.551   0.367   6.494  0.2627  0.0110  0.7251
 1363ntf    fn4 8293   5.734   0.086   6.331 -0.0265  0.3950 -0.3231
 1363ntf    fn4 8294   5.832   0.254   6.399 -0.1553 -0.3236  0.6276
 1363ntf    fn4 8295   5.735   0.145   6.538 -0.1547  0.0324 -0.1225
 1364ntf    cn1 8296   6.699   3.240   1.149  0.3440  0.6504 -0.1302
 1364ntf    sn2 8297   6.600   3.303   1.010 -0.2213 -0.0660 -0.0569
 1364ntf    nn3 8298   6.677   3.437   0.982  0.2180 -0.2595  0.2266
 1364ntf    sn2 8299   6.639   3.579   1.037  0.1274 -0.1574 -0.0973
 1364ntf    cn1 8300   6.797   3.667   1.041 -0.0156  0.0925  0.0314
 1364ntf    fn4 8301   6.816   3.197   1.105  0.1403  0.0896 -0.1211
 1364ntf    fn4 8302   6.714   3.340   1.234 -0.8015  0.4359  0.3436
 1364ntf    fn4 8303   6.640   3.136   1.206  0.4064  0.2440 -0.7952
 1364ntf    on5 8304   6.618   3.207   0.904  0.1665  0.2659 -0.2953
 1364ntf    on5 8305   6.467   3.310   1.066 -0.1413 -0.5631  0.2024
 1364ntf    on5 8306   6.593   3.584   1.174  0.4753 -0.9858  0.0571
 1364ntf    on5 8307   6.563   3.658   0.944 -0.3842 -0.7593 -0.2024
 1364ntf    fn4 8308   6.904   3.602   1.084  0.1393  0.3871  0.0966
 1364ntf    fn4 8309   6.840   3.718   0.927  0.0134  0.3998  0.1788
 1364ntf    fn4 8310   6.793   3.770   1.125  0.6341  0.1362  0.0155
 1365ntf    cn1 8311   0.519   5.446   1.273 -0.1855  0.0480 -0.5708
 1365ntf    sn2 8312   0.463   5.443   1.446 -0.0380 -0.4530 -0.5319
 1365ntf    nn3 8313   0.456   5.597   1.475 -0.5272 -0.5388 -0.1753
 1365ntf    sn2 8314   0.352   5.688   1.550  0.0787  0.0096  0.0087
 1365ntf    cn1 8315   0.230   5.723   1.420  0.1131  0.3053  0.0571
 1365ntf    fn4 8316   0.632   5.512   1.254  0.1583 -0.4044 -0.1239
 1365ntf    fn4 8317   0.546   5.323   1.234  0.3098 -0.0214 -0.0289
 1365ntf    fn4 8318   0.426   5.502   1.197 -0.2170 -0.2178 -0.7283
 1365ntf    on5 8319   0.333   5.381   1.432 -0.4042  0.0825  0.4156
 1365ntf    on5 8320   0.569   5.371   1.512 -0.2830  0.2390  0.6428
 1365ntf    on5 8321   0.403   5.818   1.585 -0.0033  0.0031  0.1529
 1365ntf    on5 8322   0.272   5.614   1.645 -0.4857  0.2369 -0.2843
 1365ntf    fn4 8323   0.224   5.627   1.330 -0.3821  0.0645  0.3438
 1365ntf    fn4 8324   0.107   5.733   1.467  0.1855 -0.1352  0.3468
 1365ntf    fn4 8325   0.256   5.835   1.354 -0.0382  0.2514 -0.0920
 1366ntf    cn1 8326   5.083   1.055   1.723 -0.0947  0.4619 -0.4830
 1366ntf    sn2 8327   5.240   1.004   1.800 -0.4873 -0.0027  0.0186
 1366ntf    nn3 8328   5.269   0.887   1.700 -0.3325  0.1742 -0.1430
 1366ntf    sn2 8329   5.361   0.876   1.572 -0.0878 -0.0938  0.0551
 1366ntf    cn1 8330   5.470   0.743   1.630 -0.1989 -0.3953 -0.4231
 1366ntf    fn4 8331   5.090   1.072   1.592 -0.6699  0.5346 -0.5063
 1366ntf    fn4 8332   4.987   0.965   1.735  0.4131 -0.0316 -0.0294
 1366ntf    fn4 8333   5.038   1.171   1.766  0.0598  0.2825  0.1813
 1366ntf    on5 8334   5.320   1.123   1.785 -0.6554  0.0167 -0.7471
 1366ntf    on5 8335   5.188   0.963   1.928 -0.0748  0.8078  0.4503
 1366ntf    on5 8336   5.451   0.985   1.545 -0.2341 -0.0385 -0.2153
 1366ntf    on5 8337   5.295   0.808   1.463  0.2655  0.3239 -0.4195
 1366ntf    fn4 8338   5.413   0.646   1.701 -0.2420 -0.0684 -0.0036
 1366ntf    fn4 8339   5.521   0.683   1.524 -0.0547 -0.3326 -0.3891
 1366ntf    fn4 8340   5.569   0.791   1.703 -0.3096 -0.8075  0.0048
 1367ntf    cn1 8341   0.502   4.525   1.409  0.1886  0.2833  0.2173
 1367ntf    sn2 8342   0.579   4.690   1.404  0.1947  0.2664 -0.3470
 1367ntf    nn3 8343   0.533   4.737   1.547  0.2157 -0.2944 -0.1508
 1367ntf    sn2 8344   0.465   4.870   1.595  0.1563 -0.3502 -0.0804
 1367ntf    cn1 8345   0.300   4.812   1.642  0.2225 -0.4234  0.0638
 1367ntf    fn4 8346   0.371   4.535   1.394  0.1473  0.2504  0.5581
 1367ntf    fn4 8347   0.544   4.450   1.308 -0.1085  0.0121  0.2950
 1367ntf    fn4 8348   0.524   4.453   1.517 -0.2147  0.3633  0.3536
 1367ntf    on5 8349   0.720   4.664   1.389  0.1683 -0.2915  0.3071
 1367ntf    on5 8350   0.509   4.754   1.296 -0.5116 -0.0503 -0.0849
 1367ntf    on5 8351   0.449   4.978   1.501  0.1256 -0.5438 -0.2981
 1367ntf    on5 8352   0.521   4.908   1.723 -0.2010 -0.4118  0.0945
 1367ntf    fn4 8353   0.226   4.909   1.695  0.1785 -0.1847 -0.4272
 1367ntf    fn4 8354   0.231   4.773   1.535  0.0602  0.5137 -0.1847
 1367ntf    fn4 8355   0.300   4.711   1.727  0.0293 -0.5203 -0.0492
 1368ntf    cn1 8356   1.958   6.734   1.396  0.0772 -0.3389 -0.0648
 1368ntf    sn2 8357   1.894   6.573   1.340 -0.1848 -0.0702 -0.5442
 1368ntf    nn3 8358   1.961   6.485   1.452 -0.2699  0.3869 -0.1277
 1368ntf    sn2 8359   2.090   6.397   1.443 -0.3363  0.2418  0.3248
 1368ntf    cn1 8360   2.017   6.232   1.421 -0.0569  0.1797 -0.1530
 1368ntf    fn4 8361   2.089   6.732   1.416  0.1172  0.1860 -0.2459
 1368ntf    fn4 8362   1.930   6.828   1.307  0.0622 -0.3047 -0.0245
 1368ntf    fn4 8363   1.907   6.776   1.511 -0.4186 -0.7231 -0.1416
 1368ntf    on5 8364   1.753   6.587   1.365 -0.0800  0.5861 -0.2868
 1368ntf    on5 8365   1.930   6.560   1.201  0.3349  0.1010 -0.4278
 1368ntf    on5 8366   2.164   6.399   1.567  0.0977  0.7970  0.0606
 1368ntf    on5 8367   2.168   6.406   1.322 -0.0990 -0.1185  0.4503
 1368ntf    fn4 8368   1.953   6.205   1.308 -0.3148 -0.6644  0.1871
 1368ntf    fn4 8369   2.106   6.136   1.438  0.1132  0.3504 -0.0754
 1368ntf    fn4 8370   1.930   6.213   1.519  0.0460  0.0098 -0.0948
 1369ntf    cn1 8371   0.263   6.195   5.356 -0.4856  0.0129 -0.1761
 1369ntf    sn2 8372   0.113   6.250   5.270 -0.5356  0.1541  0.0033
 1369ntf    nn3 8373   0.083   6.117   5.192 -0.5243  0.5124 -0.6170
 1369ntf    sn2 8374  -0.038   6.021   5.216  0.0756 -0.0373  0.2626
 1369ntf    cn1 8375  -0.055   5.959   5.046  0.0662  0.2049  0.1766
 1369ntf    fn4 8376   0.340   6.299   5.384  0.0012 -0.2271 -0.5943
 1369ntf    fn4 8377   0.242   6.139   5.474 -0.3736 -0.1984 -0.2556
 1369ntf    fn4 8378   0.345   6.119   5.285 -0.3968 -0.3237  0.2791
 1369ntf    on5 8379   0.026   6.278   5.383 -0.5211 -0.0143  0.0565
 1369ntf    on5 8380   0.162   6.357   5.186 -0.2717  0.0240 -0.0084
 1369ntf    on5 8381  -0.167   6.079   5.242 -0.0009  0.3369 -0.9022
 1369ntf    on5 8382  -0.001   5.899   5.284 -0.2838 -0.3075 -0.0244
 1369ntf    fn4 8383  -0.107   6.048   4.963  0.3110  0.1079 -0.0820
 1369ntf    fn4 8384   0.053   5.904   4.994  0.0321  0.4496 -0.1587
 1369ntf    fn4 8385  -0.149   5.866   5.050  0.4559 -0.2134 -0.2669
 1370ntf    cn1 8386   6.317   3.164   5.970  0.0244 -0.2603  0.0937
 1370ntf    sn2 8387   6.342   3.172   6.150  0.0989  0.0883  0.0698
 1370ntf    nn3 8388   6.337   3.326   6.178  0.1450  0.0658  0.2013
 1370ntf    sn2 8389   6.459   3.424   6.159  0.2400 -0.0842  0.0314
 1370ntf    cn1 8390   6.467   3.477   6.333  0.1293 -0.0902  0.0385
 1370ntf    fn4 8391   6.397   3.244   5.901 -0.3272  0.1562  0.1649
 1370ntf    fn4 8392   6.332   3.037   5.937  0.2696 -0.2971  0.3477
 1370ntf    fn4 8393   6.194   3.201   5.939  0.2505  0.2586 -0.2147
 1370ntf    on5 8394   6.224   3.110   6.203  0.3796 -0.1711  0.3981
 1370ntf    on5 8395   6.467   3.106   6.177 -0.0781 -0.3699 -0.2178
 1370ntf    on5 8396   6.425   3.546   6.091  0.4657  0.1223  0.2900
 1370ntf    on5 8397   6.589   3.366   6.134  0.2242 -0.3304  0.5069
 1370ntf    fn4 8398   6.539   3.587   6.348  0.7257 -0.5101  0.3149
 1370ntf    fn4 8399   6.347   3.497   6.383  0.0267 -0.6684  0.0269
 1370ntf    fn4 8400   6.518   3.386   6.414 -0.3292 -0.1057  0.3122
 1371ntf    cn1 8401   5.954   2.640   3.137  0.3765 -0.0125  0.1680
 1371ntf    sn2 8402   6.011   2.696   2.975  0.3876 -0.3212  0.0640
 1371ntf    nn3 8403   5.953   2.842   2.977  0.4158 -0.3065 -0.1221
 1371ntf    sn2 8404   6.019   2.972   3.036  0.0024 -0.1396 -0.0244
 1371ntf    cn1 8405   6.162   2.999   2.926  0.1715 -0.2152  0.1767
 1371ntf    fn4 8406   6.052   2.653   3.225  0.4874 -0.0254  0.0444
 1371ntf    fn4 8407   5.845   2.697   3.185  0.1295 -0.1604 -0.2132
 1371ntf    fn4 8408   5.931   2.509   3.136  0.8087 -0.0880 -0.0755
 1371ntf    on5 8409   6.155   2.690   2.973  0.3933 -0.1949  0.0896
 1371ntf    on5 8410   5.947   2.609   2.879 -0.2076 -0.0887  0.2467
 1371ntf    on5 8411   6.072   2.964   3.170 -0.2934 -0.2415  0.0863
 1371ntf    on5 8412   5.942   3.092   3.011 -0.4950 -0.3828  0.3345
 1371ntf    fn4 8413   6.192   3.127   2.932 -0.1083 -0.1501  0.2015
 1371ntf    fn4 8414   6.275   2.938   2.957  0.4207 -0.1683 -0.6277
 1371ntf    fn4 8415   6.128   2.974   2.801  0.0868 -0.0381  0.1636
 1372ntf    cn1 8416   5.497   6.020   0.817 -0.3476  0.3477 -0.4541
 1372ntf    sn2 8417   5.605   6.107   0.699 -0.0748  0.3886 -0.1768
 1372ntf    nn3 8418   5.507   6.180   0.601 -0.1566  0.4472 -0.0523
 1372ntf    sn2 8419   5.454   6.328   0.612 -0.1831  0.4502 -0.2011
 1372ntf    cn1 8420   5.584   6.422   0.528 -0.0416  0.2991 -0.1519
 1372ntf    fn4 8421   5.566   5.958   0.912  0.3403  0.5681 -0.7991
 1372ntf    fn4 8422   5.422   6.106   0.883  0.2057  0.2333  0.3366
 1372ntf    fn4 8423   5.420   5.936   0.749 -0.1869  0.1513 -0.3943
 1372ntf    on5 8424   5.685   6.197   0.779  0.0881 -0.2051  0.3340
 1372ntf    on5 8425   5.683   6.005   0.633 -0.1001  0.3516 -0.1494
 1372ntf    on5 8426   5.453   6.384   0.745 -0.7653  0.2007 -0.0994
 1372ntf    on5 8427   5.334   6.355   0.537 -0.3978 -0.1893 -0.0923
 1372ntf    fn4 8428   5.561   6.552   0.516 -0.5932  0.2804  0.6430
 1372ntf    fn4 8429   5.701   6.416   0.590  0.0092 -0.0264 -0.2775
 1372ntf    fn4 8430   5.603   6.374   0.406  0.3253  0.6497 -0.2352
 1373ntf    cn1 8431   1.692   4.841   4.046  0.4364  0.1780  0.2311
 1373ntf    sn2 8432   1.626   4.870   3.879  0.1698 -0.3142  0.2479
 1373ntf    nn3 8433   1.489   4.935   3.919 -0.0966 -0.3715 -0.5658
 1373ntf    sn2 8434   1.355   4.853   3.928 -0.1634 -0.2192 -0.1563
 1373ntf    cn1 8435   1.296   4.873   3.757 -0.2157  0.2003 -0.0913
 1373ntf    fn4 8436   1.693   4.956   4.111 -0.4874  0.2517  0.1294
 1373ntf    fn4 8437   1.616   4.757   4.115 -0.4621  0.2923 -0.5973
 1373ntf    fn4 8438   1.816   4.796   4.044  0.3401 -0.0931  0.3003
 1373ntf    on5 8439   1.721   4.961   3.820 -0.3388  0.1459  0.1279
 1373ntf    on5 8440   1.623   4.734   3.831 -0.6437 -0.3610  0.4085
 1373ntf    on5 8441   1.252   4.921   4.003  0.0956 -0.1453  0.1352
 1373ntf    on5 8442   1.360   4.710   3.946  0.1330 -0.1967 -0.0581
 1373ntf    fn4 8443   1.383   4.809   3.681 -0.2882 -0.2047  0.1621
 1373ntf    fn4 8444   1.176   4.820   3.735 -0.0319  0.0109 -0.6534
 1373ntf    fn4 8445   1.303   4.997   3.711 -0.1038  0.1724 -0.1512
 1374ntf    cn1 8446   5.117   1.520   1.200  0.2382 -0.3926  0.1008
 1374ntf    sn2 8447   4.955   1.600   1.219  0.2936 -0.2382 -0.0736
 1374ntf    nn3 8448   4.957   1.652   1.367  0.0501 -0.5146  0.0290
 1374ntf    sn2 8449   4.980   1.799   1.419 -0.1978 -0.4298 -0.1001
 1374ntf    cn1 8450   4.802   1.836   1.426 -0.1998 -0.4971  0.2084
 1374ntf    fn4 8451   5.128   1.409   1.272  0.1485 -0.3770  0.1391
 1374ntf    fn4 8452   5.143   1.495   1.073  0.1584 -0.5544  0.1160
 1374ntf    fn4 8453   5.215   1.597   1.244  0.2013 -0.5763  0.5121
 1374ntf    on5 8454   4.950   1.693   1.109 -0.3236  0.5294  0.5937
 1374ntf    on5 8455   4.864   1.488   1.212  0.1307 -0.1021 -0.1209
 1374ntf    on5 8456   5.017   1.895   1.318 -0.4184 -0.0891  0.1433
 1374ntf    on5 8457   5.028   1.809   1.554  0.4008 -0.4369 -0.3092
 1374ntf    fn4 8458   4.731   1.813   1.317  0.1612 -0.4392 -0.0392
 1374ntf    fn4 8459   4.756   1.754   1.519  0.1669 -0.3944  0.4822
 1374ntf    fn4 8460   4.767   1.957   1.467  0.4979 -0.1130 -0.3152
 1375ntf    cn1 8461   0.509   2.434   2.167  0.2193 -0.0233  0.1094
 1375ntf    sn2 8462   0.514   2.416   2.348 -0.2541  0.3235  0.1583
 1375ntf    nn3 8463   0.464   2.268   2.368  0.9226 -0.0860  0.1105
 1375ntf    sn2 8464   0.470   2.178   2.497  0.2760  0.0600  0.2455
 1375ntf    cn1 8465   0.296   2.199   2.544  0.3028  0.2146  0.2776
 1375ntf    fn4 8466   0.388   2.424   2.115  0.3017 -0.0363 -0.0796
 1375ntf    fn4 8467   0.561   2.546   2.120 -0.3181  0.2186  0.0777
 1375ntf    fn4 8468   0.564   2.328   2.110 -0.2930 -0.2980  0.1128
 1375ntf    on5 8469   0.651   2.441   2.385 -0.1604  0.1215 -0.0496
 1375ntf    on5 8470   0.421   2.516   2.396 -0.2200  0.3012  0.2712
 1375ntf    on5 8471   0.559   2.222   2.602  0.3490 -0.0958  0.2502
 1375ntf    on5 8472   0.480   2.037   2.470  0.1822  0.0723  0.1472
 1375ntf    fn4 8473   0.258   2.117   2.641  0.1133  0.4642  0.4149
 1375ntf    fn4 8474   0.265   2.322   2.581  0.1916  0.2443  0.0830
 1375ntf    fn4 8475   0.226   2.166   2.437  0.0784 -0.1717  0.5393
 1376ntf    cn1 8476   3.587   3.039   1.733  0.1275  0.0926 -0.3951
 1376ntf    sn2 8477   3.749   2.963   1.699  0.1264 -0.1040  0.0325
 1376ntf    nn3 8478   3.687   2.826   1.655  0.1772 -0.1904  0.2283
 1376ntf    sn2 8479   3.744   2.728   1.546  0.1946  0.0740 -0.0030
 1376ntf    cn1 8480   3.688   2.819   1.399 -0.0368  0.0224  0.0528
 1376ntf    fn4 8481   3.588   3.160   1.786  0.6515  0.1719 -0.5717
 1376ntf    fn4 8482   3.520   3.041   1.619  0.0208 -0.1075 -0.3360
 1376ntf    fn4 8483   3.519   2.967   1.820  0.6280  0.4877  0.3373
 1376ntf    on5 8484   3.794   3.046   1.589  0.2924 -0.0969  0.1041
 1376ntf    on5 8485   3.815   2.976   1.827 -0.0737  0.0263  0.1224
 1376ntf    on5 8486   3.669   2.605   1.542  0.2017  0.0514  0.4572
 1376ntf    on5 8487   3.888   2.720   1.538  0.1909 -0.3465  0.3324
 1376ntf    fn4 8488   3.659   2.735   1.301  0.4103  0.2433 -0.2753
 1376ntf    fn4 8489   3.581   2.894   1.417 -0.2861 -0.1895 -0.5076
 1376ntf    fn4 8490   3.787   2.897   1.358 -0.0620  0.2280  0.3822
 1377ntf    cn1 8491   1.932   3.204   5.245 -0.1831  0.0722  0.2154
 1377ntf    sn2 8492   1.833   3.063   5.188  0.1762 -0.0292 -0.1665
 1377ntf    nn3 8493   1.807   3.005   5.332  0.0347 -0.1598 -0.2428
 1377ntf    sn2 8494   1.811   2.855   5.377  0.1170 -0.1153 -0.1017
 1377ntf    cn1 8495   1.660   2.850   5.479  0.0930  0.2529 -0.1173
 1377ntf    fn4 8496   1.993   3.173   5.357 -0.4684 -0.1877  0.3000
 1377ntf    fn4 8497   2.025   3.241   5.158 -0.3571  0.0046 -0.0025
 1377ntf    fn4 8498   1.864   3.314   5.272 -0.3895  0.1333 -0.5231
 1377ntf    on5 8499   1.717   3.132   5.136  0.5496  0.4661 -0.3452
 1377ntf    on5 8500   1.924   2.988   5.105  0.3186 -0.2052  0.1483
 1377ntf    on5 8501   1.919   2.832   5.470  0.2373 -0.1152 -0.2428
 1377ntf    on5 8502   1.794   2.756   5.274  0.2485  0.1559 -0.3854
 1377ntf    fn4 8503   1.683   2.908   5.596  0.3474  0.2787 -0.1785
 1377ntf    fn4 8504   1.562   2.914   5.419 -0.4873 -0.5938 -0.0859
 1377ntf    fn4 8505   1.614   2.730   5.510  0.3314  0.3262  0.5369
 1378ntf    cn1 8506   2.236   4.922   2.006 -0.3230  0.2203 -0.2524
 1378ntf    sn2 8507   2.081   4.886   2.094  0.0513 -0.1558  0.2584
 1378ntf    nn3 8508   1.982   4.831   1.986  0.1469  0.1207  0.0291
 1378ntf    sn2 8509   1.879   4.916   1.903  0.1708  0.0003 -0.1244
 1378ntf    cn1 8510   1.919   4.832   1.747 -0.0558  0.1694 -0.2749
 1378ntf    fn4 8511   2.206   4.991   1.897 -0.4731  0.1205 -0.2742
 1378ntf    fn4 8512   2.332   4.981   2.074 -0.2916 -0.0265 -0.0819
 1378ntf    fn4 8513   2.292   4.810   1.963 -0.6063  0.0649 -0.2211
 1378ntf    on5 8514   2.114   4.780   2.186  0.2165 -0.3465 -0.0230
 1378ntf    on5 8515   2.047   5.015   2.150 -0.0867 -0.1352  0.1275
 1378ntf    on5 8516   1.923   5.047   1.861  0.1101  0.0645  0.0099
 1378ntf    on5 8517   1.740   4.888   1.933  0.3692 -0.6130  0.2387
 1378ntf    fn4 8518   1.839   4.860   1.645 -0.2080  0.4561 -0.0805
 1378ntf    fn4 8519   2.041   4.860   1.704  0.0085 -0.2483 -0.3613
 1378ntf    fn4 8520   1.904   4.702   1.766  0.4381  0.2704  0.8871
 1379ntf    cn1 8521   1.898   2.602   0.593  0.1953 -0.2937  0.0825
 1379ntf    sn2 8522   1.861   2.698   0.742 -0.0993 -0.0921 -0.1197
 1379ntf    nn3 8523   1.861   2.581   0.847 -0.0328 -0.0669 -0.0916
 1379ntf    sn2 8524   1.750   2.486   0.905 -0.3238  0.2539 -0.1161
 1379ntf    cn1 8525   1.703   2.547   1.069 -0.2411 -0.3911  0.1484
 1379ntf    fn4 8526   1.820   2.496   0.579  0.2351 -0.2389 -0.6289
 1379ntf    fn4 8527   1.891   2.672   0.480  0.5346 -0.7715 -0.2405
 1379ntf    fn4 8528   2.020   2.550   0.592  0.1683 -0.3522 -0.2277
 1379ntf    on5 8529   1.976   2.782   0.765 -0.1178 -0.2155  0.4388
 1379ntf    on5 8530   1.732   2.761   0.721 -0.2153 -0.1333  0.4435
 1379ntf    on5 8531   1.813   2.360   0.933  0.0243  0.4390 -0.0586
 1379ntf    on5 8532   1.628   2.488   0.829 -0.4653  0.3982  0.1146
 1379ntf    fn4 8533   1.796   2.536   1.163  0.1461 -0.3984 -0.2372
 1379ntf    fn4 8534   1.682   2.677   1.064  0.5351 -0.2583  0.3178
 1379ntf    fn4 8535   1.588   2.493   1.108 -0.3092 -0.3085  0.0632
 1380ntf    cn1 8536   4.295   0.394   5.390  0.5803 -0.0169  0.0011
 1380ntf    sn2 8537   4.155   0.507   5.414  0.2456 -0.4647  0.1536
 1380ntf    nn3 8538   4.229   0.637   5.366 -0.7038 -0.0579 -0.2459
 1380ntf    sn2 8539   4.257   0.692   5.222  0.1940 -0.2532 -0.1512
 1380ntf    cn1 8540   4.130   0.821   5.207  0.3175 -0.1701 -0.4991
 1380ntf    fn4 8541   4.397   0.406   5.474  0.2004 -0.2221  0.4953
 1380ntf    fn4 8542   4.269   0.265   5.394  0.2941  0.0625  0.8286
 1380ntf    fn4 8543   4.350   0.409   5.270  0.2244  0.1306 -0.1453
 1380ntf    on5 8544   4.057   0.454   5.323 -0.5343  0.7618  0.2477
 1380ntf    on5 8545   4.115   0.503   5.553 -0.3036  0.1509  0.0199
 1380ntf    on5 8546   4.233   0.603   5.111  0.1818  0.0088 -0.3587
 1380ntf    on5 8547   4.388   0.752   5.232 -0.3205  0.9046 -0.2765
 1380ntf    fn4 8548   4.139   0.912   5.303 -0.7800 -0.5130 -0.0568
 1380ntf    fn4 8549   4.151   0.886   5.094 -0.3312 -0.0142 -0.5310
 1380ntf    fn4 8550   4.007   0.775   5.204  0.2042  0.1003 -0.1337
 1381ntf    cn1 8551   0.644   2.232   1.347 -0.0184  0.2796  0.0497
 1381ntf    sn2 8552   0.682   2.247   1.524 -0.4316 -0.0126  0.1644
 1381ntf    nn3 8553   0.622   2.387   1.564 -0.0221  0.1145  0.3494
 1381ntf    sn2 8554   0.639   2.459   1.702 -0.0249  0.1109  0.3514
 1381ntf    cn1 8555   0.471   2.435   1.766 -0.0689  0.0491  0.2133
 1381ntf    fn4 8556   0.691   2.330   1.271  0.4660  0.3212  0.3935
 1381ntf    fn4 8557   0.686   2.119   1.292 -0.4139 -0.0413  0.4031
 1381ntf    fn4 8558   0.513   2.237   1.336 -0.0587  0.1560  0.4398
 1381ntf    on5 8559   0.618   2.134   1.587 -0.1285 -0.1648  0.2051
 1381ntf    on5 8560   0.827   2.248   1.522 -0.4256 -0.5659  0.0856
 1381ntf    on5 8561   0.641   2.602   1.686 -0.0204  0.1314  0.5292
 1381ntf    on5 8562   0.730   2.395   1.793  0.1417 -0.3634 -0.1394
 1381ntf    fn4 8563   0.453   2.477   1.891 -0.0354  0.3494  0.1172
 1381ntf    fn4 8564   0.378   2.492   1.692 -0.3835 -0.5245  0.1543
 1381ntf    fn4 8565   0.440   2.306   1.764  0.4036 -0.0690  0.4038
 1382ntf    cn1 8566   0.341   1.441   5.590 -0.1877 -0.0344 -0.0356
 1382ntf    sn2 8567   0.260   1.361   5.448 -0.0609  0.0401 -0.1504
 1382ntf    nn3 8568   0.356   1.395   5.329  0.0461 -0.5886 -0.2484
 1382ntf    sn2 8569   0.338   1.398   5.173 -0.3032  0.0906 -0.1961
 1382ntf    cn1 8570   0.291   1.573   5.158 -0.1225  0.1868  0.3472
 1382ntf    fn4 8571   0.343   1.572   5.572  0.2703 -0.0403 -0.0206
 1382ntf    fn4 8572   0.269   1.435   5.701 -0.7225 -0.1899 -0.3874
 1382ntf    fn4 8573   0.466   1.407   5.614 -0.2275  0.2607  0.6058
 1382ntf    on5 8574   0.276   1.224   5.493 -0.0306  0.3851  0.9143
 1382ntf    on5 8575   0.127   1.414   5.439 -0.2276 -0.3917 -0.2723
 1382ntf    on5 8576   0.231   1.326   5.108 -0.1766 -0.2609 -0.0110
 1382ntf    on5 8577   0.466   1.385   5.108 -0.0679  0.7842  0.1116
 1382ntf    fn4 8578   0.163   1.602   5.178 -0.2357 -0.0750  0.0130
 1382ntf    fn4 8579   0.362   1.652   5.237  0.3225  0.0414  0.0943
 1382ntf    fn4 8580   0.320   1.605   5.033  0.4864  0.0140  0.4426
 1383ntf    cn1 8581   2.863   1.067   2.247  0.0698 -0.4052  0.1942
 1383ntf    sn2 8582   2.891   1.241   2.292 -0.2757 -0.3018  0.0139
 1383ntf    nn3 8583   3.003   1.220   2.400  0.3541  0.0924 -0.5551
 1383ntf    sn2 8584   3.066   1.324   2.499 -0.1950  0.0464 -0.1540
 1383ntf    cn1 8585   2.964   1.312   2.649 -0.2696  0.0279 -0.2059
 1383ntf    fn4 8586   2.963   1.000   2.192  0.3259  0.1328  0.0005
 1383ntf    fn4 8587   2.830   0.995   2.353 -0.2767 -0.5230  0.0097
 1383ntf    fn4 8588   2.760   1.060   2.164  0.3378 -0.2276 -0.1533
 1383ntf    on5 8589   2.940   1.300   2.170 -0.2656 -0.4541 -0.0563
 1383ntf    on5 8590   2.761   1.286   2.335 -0.1050  0.5978 -0.3936
 1383ntf    on5 8591   3.042   1.462   2.465 -0.4349 -0.1036 -0.5991
 1383ntf    on5 8592   3.193   1.284   2.555 -0.4523 -0.1399  0.3096
 1383ntf    fn4 8593   2.838   1.343   2.621 -0.2042  0.6368  0.1535
 1383ntf    fn4 8594   2.947   1.191   2.699  0.4954  0.1356  0.3260
 1383ntf    fn4 8595   3.000   1.401   2.740  0.1787 -0.2556 -0.1047
 1384ntf    cn1 8596   3.933   1.650   6.758  0.1108  0.1137 -0.1289
 1384ntf    sn2 8597   3.806   1.521   6.779  0.0045  0.2324 -0.0354
 1384ntf    nn3 8598   3.678   1.591   6.721 -0.1556  0.1900  0.2657
 1384ntf    sn2 8599   3.527   1.553   6.737  0.0094 -0.5920 -0.0046
 1384ntf    cn1 8600   3.531   1.394   6.648 -0.1003 -0.6616  0.1142
 1384ntf    fn4 8601   3.942   1.697   6.635 -0.1487 -0.6581 -0.4504
 1384ntf    fn4 8602   3.913   1.752   6.840  0.1040 -0.2441  0.3217
 1384ntf    fn4 8603   4.052   1.601   6.785 -0.0806 -0.6298 -0.6276
 1384ntf    on5 8604   3.856   1.408   6.705  0.0222  0.4643 -0.3819
 1384ntf    on5 8605   3.807   1.510   6.923 -0.1745  0.1365 -0.0417
 1384ntf    on5 8606   3.438   1.633   6.656 -0.0093  0.2551  0.8345
 1384ntf    on5 8607   3.490   1.510   6.870  1.1202  0.1783  0.5675
 1384ntf    fn4 8608   3.560   1.414   6.520  0.6419  0.2715  0.4155
 1384ntf    fn4 8609   3.620   1.310   6.697  0.8948  0.2406 -0.1227
 1384ntf    fn4 8610   3.416   1.329   6.660 -0.3241 -0.2164  0.4517
 1385ntf    cn1 8611   4.309   6.000   1.165 -0.2893 -0.2031  0.0029
 1385ntf    sn2 8612   4.202   5.874   1.088 -0.2789 -0.2344  0.0397
 1385ntf    nn3 8613   4.144   5.961   0.970  0.5244 -0.1120 -0.2743
 1385ntf    sn2 8614   4.035   6.073   0.975  0.2120 -0.4398  0.5349
 1385ntf    cn1 8615   3.880   6.002   0.912  0.2465  0.0156 -0.0803
 1385ntf    fn4 8616   4.241   6.098   1.223  0.0902  0.0507  0.0228
 1385ntf    fn4 8617   4.385   5.951   1.262  0.3488 -0.0387 -0.4110
 1385ntf    fn4 8618   4.387   6.050   1.071 -0.3052 -0.0672  0.0624
 1385ntf    on5 8619   4.298   5.775   1.045 -0.2813 -0.2246  0.0115
 1385ntf    on5 8620   4.109   5.839   1.192 -0.4205  0.0880  0.0231
 1385ntf    on5 8621   4.056   6.182   0.882 -0.9772  0.0147  0.7795
 1385ntf    on5 8622   4.010   6.117   1.110  1.2175  0.4256  0.4504
 1385ntf    fn4 8623   3.887   5.946   0.793  0.3975  0.2007 -0.1598
 1385ntf    fn4 8624   3.834   5.904   0.988 -0.2208 -0.0406 -0.4305
 1385ntf    fn4 8625   3.780   6.089   0.907  0.2659  0.0265 -0.2780
 1386ntf    cn1 8626   2.345   5.692   1.272 -0.4377  0.1924 -0.3722
 1386ntf    sn2 8627   2.321   5.566   1.401  0.0512  0.0776 -0.3925
 1386ntf    nn3 8628   2.188   5.607   1.474  0.1607 -0.0652 -0.1108
 1386ntf    sn2 8629   2.151   5.618   1.626 -0.3513 -0.0607 -0.2358
 1386ntf    cn1 8630   2.135   5.797   1.649  0.6171  0.0497 -0.3914
 1386ntf    fn4 8631   2.353   5.811   1.330  0.5143  0.2305 -0.5623
 1386ntf    fn4 8632   2.453   5.672   1.199 -0.4287 -0.0778 -0.2843
 1386ntf    fn4 8633   2.243   5.690   1.188 -0.4080  0.4824 -0.4165
 1386ntf    on5 8634   2.312   5.448   1.319  0.0023  0.4025 -0.8617
 1386ntf    on5 8635   2.440   5.593   1.478 -0.3369  0.5425  0.0483
 1386ntf    on5 8636   2.249   5.578   1.724 -0.0101  0.4342 -0.3763
 1386ntf    on5 8637   2.019   5.563   1.646 -0.5409  0.4541 -0.0806
 1386ntf    fn4 8638   2.095   5.862   1.541  0.1328 -0.6424 -0.6349
 1386ntf    fn4 8639   2.047   5.832   1.742  0.7526  0.1012 -0.2823
 1386ntf    fn4 8640   2.252   5.846   1.686  0.5337  0.2130 -0.3435
 1387ntf    cn1 8641   0.376   4.749   2.585  0.2199 -0.0806 -0.2884
 1387ntf    sn2 8642   0.472   4.668   2.454 -0.0814 -0.1744 -0.4538
 1387ntf    nn3 8643   0.354   4.616   2.365 -0.9910 -0.1837  0.7256
 1387ntf    sn2 8644   0.250   4.698   2.279 -0.0846  0.2600  0.0306
 1387ntf    cn1 8645   0.319   4.664   2.114  0.2412  0.0370  0.2110
 1387ntf    fn4 8646   0.305   4.850   2.539  0.0718  0.2163  0.5734
 1387ntf    fn4 8647   0.288   4.672   2.648  0.0161  0.3754 -0.0104
 1387ntf    fn4 8648   0.453   4.786   2.686  0.0717  0.3485 -0.3306
 1387ntf    on5 8649   0.566   4.766   2.405  0.1388  0.0839  0.4537
 1387ntf    on5 8650   0.529   4.554   2.522  0.4407  0.4744  0.2114
 1387ntf    on5 8651   0.248   4.840   2.301  0.5416  0.3269 -0.3168
 1387ntf    on5 8652   0.121   4.638   2.258  0.2466 -0.4066 -0.1450
 1387ntf    fn4 8653   0.237   4.720   2.027  0.0322 -0.4631  0.0797
 1387ntf    fn4 8654   0.443   4.702   2.088  0.3005 -0.1674  0.1895
 1387ntf    fn4 8655   0.314   4.535   2.085 -0.4043  0.1530 -0.1890
 1388ntf    cn1 8656   4.248   1.680   2.764  0.1572  0.3167 -0.4393
 1388ntf    sn2 8657   4.167   1.524   2.714  0.2462 -0.0087  0.4155
 1388ntf    nn3 8658   4.171   1.553   2.560 -0.3937 -0.1280  0.3745
 1388ntf    sn2 8659   4.053   1.585   2.462  0.0786 -0.0079 -0.1608
 1388ntf    cn1 8660   4.051   1.436   2.357 -0.2248 -0.0987 -0.0273
 1388ntf    fn4 8661   4.352   1.702   2.686  0.0089  0.5077 -0.5844
 1388ntf    fn4 8662   4.170   1.786   2.753  0.0504  0.3782  0.7808
 1388ntf    fn4 8663   4.297   1.689   2.886 -0.6757  0.0706 -0.0761
 1388ntf    on5 8664   4.259   1.423   2.759 -0.1189 -0.4226  0.2310
 1388ntf    on5 8665   4.037   1.536   2.775  0.1564  0.5246  0.1246
 1388ntf    on5 8666   4.093   1.687   2.368  0.4416 -0.2246 -0.2406
 1388ntf    on5 8667   3.920   1.591   2.517  0.1481 -0.7750  0.1090
 1388ntf    fn4 8668   4.165   1.427   2.292 -0.4842  0.4640 -0.5739
 1388ntf    fn4 8669   4.047   1.324   2.428  0.1162  0.1888  0.4478
 1388ntf    fn4 8670   3.955   1.437   2.266 -0.3678  1.2064  0.1248
 1389ntf    cn1 8671   4.871   1.315   1.963  0.0229 -0.1676  0.1578
 1389ntf    sn2 8672   4.793   1.395   2.106 -0.1344  0.4417 -0.2692
 1389ntf    nn3 8673   4.919   1.433   2.192 -0.6471  0.5562  0.4321
 1389ntf    sn2 8674   4.935   1.442   2.348 -0.2579  0.3468  0.4059
 1389ntf    cn1 8675   5.070   1.563   2.363  0.0485  0.1210 -0.4788
 1389ntf    fn4 8676   4.790   1.265   1.871 -0.4903 -0.2409  0.6492
 1389ntf    fn4 8677   4.954   1.392   1.894  0.0849 -0.0127  0.4071
 1389ntf    fn4 8678   4.947   1.212   1.998  0.2659 -0.3157 -0.7628
 1389ntf    on5 8679   4.722   1.510   2.056 -0.6018  0.1395 -0.3003
 1389ntf    on5 8680   4.722   1.289   2.172  1.0868 -0.1466  0.1377
 1389ntf    on5 8681   4.983   1.325   2.416  0.0175  0.3094  0.1444
 1389ntf    on5 8682   4.816   1.498   2.408 -0.5932 -0.2112  0.2628
 1389ntf    fn4 8683   5.180   1.528   2.299  0.1169  0.1981 -0.4033
 1389ntf    fn4 8684   5.042   1.681   2.310  0.0755  0.3565  0.0228
 1389ntf    fn4 8685   5.093   1.588   2.491 -0.1881  0.2814 -0.4670
 1390ntf    cn1 8686   4.121   0.034   5.241  0.1356 -0.2200  0.3630
 1390ntf    sn2 8687   4.128  -0.141   5.195  0.0718 -0.1620  0.1295
 1390ntf    nn3 8688   3.980  -0.186   5.223  0.1415 -0.6414 -0.2547
 1390ntf    sn2 8689   3.863  -0.181   5.118  0.0560  0.0959 -0.1290
 1390ntf    cn1 8690   3.733  -0.115   5.226  0.2163 -0.2359  0.2696
 1390ntf    fn4 8691   4.033   0.102   5.169  0.0137 -0.4098  0.3310
 1390ntf    fn4 8692   4.084   0.052   5.367 -0.3702  0.1794  0.1622
 1390ntf    fn4 8693   4.237   0.096   5.230 -0.3100  0.6323  0.3798
 1390ntf    on5 8694   4.175  -0.134   5.060 -0.4135 -0.0495 -0.0364
 1390ntf    on5 8695   4.213  -0.206   5.292  0.1051 -0.4032 -0.0597
 1390ntf    on5 8696   3.807  -0.311   5.091  0.2671 -0.1035  0.3914
 1390ntf    on5 8697   3.855  -0.083   5.012  0.7601  0.4388  0.1270
 1390ntf    fn4 8698   3.678  -0.207   5.303  0.0431 -0.1581  0.2404
 1390ntf    fn4 8699   3.768  -0.012   5.301 -0.1627  0.0564  0.0493
 1390ntf    fn4 8700   3.635  -0.062   5.153  0.5111  0.4513  0.3592
 1391ntf    cn1 8701   3.492   5.369   4.932  0.0888 -0.0595  0.3126
 1391ntf    sn2 8702   3.575   5.521   4.988 -0.0136  0.1201 -0.0245
 1391ntf    nn3 8703   3.685   5.536   4.877 -0.0896  0.4966 -0.0475
 1391ntf    sn2 8704   3.832   5.589   4.884  0.0856  0.0285 -0.1807
 1391ntf    cn1 8705   3.920   5.431   4.863  0.5324  0.2710 -0.1462
 1391ntf    fn4 8706   3.560   5.260   4.964 -0.0426 -0.1009  0.4543
 1391ntf    fn4 8707   3.371   5.364   4.987  0.3542 -0.1123  0.9048
 1391ntf    fn4 8708   3.479   5.363   4.801 -0.0252  0.1872  0.3121
 1391ntf    on5 8709   3.466   5.615   4.976  0.0268  0.1989  0.2197
 1391ntf    on5 8710   3.631   5.488   5.116  0.0308  0.0676 -0.0573
 1391ntf    on5 8711   3.886   5.647   5.005  0.1915 -0.8145  0.1803
 1391ntf    on5 8712   3.870   5.652   4.760 -0.6604  0.0502 -0.3971
 1391ntf    fn4 8713   3.914   5.356   4.972  0.1548 -0.0215 -0.3684
 1391ntf    fn4 8714   3.885   5.358   4.759  0.2744  0.1800  0.0059
 1391ntf    fn4 8715   4.050   5.450   4.842  0.6310 -0.5473 -0.2989
 1392ntf    cn1 8716   2.030   5.565   5.246  0.4575 -0.5307  0.2144
 1392ntf    sn2 8717   2.047   5.384   5.232 -0.1795 -0.5957  0.2571
 1392ntf    nn3 8718   1.896   5.347   5.211 -0.3747  0.4663 -0.3235
 1392ntf    sn2 8719   1.797   5.303   5.325  0.1710  0.2466  0.0692
 1392ntf    cn1 8720   1.817   5.122   5.317  0.5782  0.2871  0.1342
 1392ntf    fn4 8721   1.921   5.613   5.304  0.8834  0.6444  0.0740
 1392ntf    fn4 8722   2.132   5.629   5.301 -0.0662 -0.2948  0.9167
 1392ntf    fn4 8723   2.022   5.622   5.127 -0.1580 -0.0176  0.4961
 1392ntf    on5 8724   2.129   5.369   5.114  0.2029  0.1853  0.4118
 1392ntf    on5 8725   2.110   5.344   5.355 -0.2363  0.7916  0.7548
 1392ntf    on5 8726   1.659   5.329   5.294  0.3477  0.2644 -0.7337
 1392ntf    on5 8727   1.837   5.331   5.461 -0.0630  0.8500  0.0185
 1392ntf    fn4 8728   1.797   5.070   5.197  0.7048 -0.1871  0.3181
 1392ntf    fn4 8729   1.933   5.073   5.357  0.6373  0.0420 -0.3275
 1392ntf    fn4 8730   1.725   5.067   5.395  0.0453  0.6865 -0.2021
 1393ntf    cn1 8731   1.853   1.810   5.188  0.1023 -0.2223  0.1534
 1393ntf    sn2 8732   1.673   1.788   5.172  0.1103  0.1269 -0.4524
 1393ntf    nn3 8733   1.633   1.909   5.263 -0.2598 -0.4654  0.1736
 1393ntf    sn2 8734   1.484   1.945   5.298 -0.2487  0.0564 -0.3079
 1393ntf    cn1 8735   1.493   2.124   5.270 -0.0769  0.0608 -0.2246
 1393ntf    fn4 8736   1.902   1.773   5.305  0.5248 -0.7881 -0.1976
 1393ntf    fn4 8737   1.920   1.742   5.095  0.2716 -0.3204  0.3470
 1393ntf    fn4 8738   1.897   1.933   5.167  0.4960 -0.5520 -1.0571
 1393ntf    on5 8739   1.648   1.827   5.035  0.2825  0.0801 -0.4976
 1393ntf    on5 8740   1.639   1.654   5.213 -0.3956  0.2894 -0.3369
 1393ntf    on5 8741   1.454   1.941   5.439 -0.1544 -0.2495 -0.2954
 1393ntf    on5 8742   1.386   1.900   5.202 -0.4095 -0.1528 -0.0468
 1393ntf    fn4 8743   1.559   2.152   5.159 -0.1103  0.0518 -0.2465
 1393ntf    fn4 8744   1.375   2.182   5.258 -0.2802 -0.4241 -0.5783
 1393ntf    fn4 8745   1.560   2.181   5.370 -0.4724 -0.8360  0.5674
 1394ntf    cn1 8746   3.631   3.023   2.807 -0.0510  0.3620  0.2399
 1394ntf    sn2 8747   3.639   2.872   2.909  0.1411  0.1683 -0.0613
 1394ntf    nn3 8748   3.486   2.836   2.913  0.1716  0.0815  0.4073
 1394ntf    sn2 8749   3.419   2.708   2.973  0.4353 -0.1986  0.1109
 1394ntf    cn1 8750   3.338   2.789   3.114 -0.0376 -0.0130 -0.2670
 1394ntf    fn4 8751   3.518   3.086   2.832 -0.2311 -0.2890  1.1298
 1394ntf    fn4 8752   3.725   3.110   2.839  0.7250 -0.2332 -0.3768
 1394ntf    fn4 8753   3.633   3.011   2.676 -0.3113 -0.4772  0.3060
 1394ntf    on5 8754   3.721   2.783   2.830  0.2792  0.2510 -0.0116
 1394ntf    on5 8755   3.695   2.915   3.034  0.0396 -0.0422  0.0568
 1394ntf    on5 8756   3.504   2.608   3.032  0.4492 -0.0791  0.2966
 1394ntf    on5 8757   3.305   2.671   2.893  0.6049  0.0157 -0.2319
 1394ntf    fn4 8758   3.269   2.704   3.187 -0.2250  0.0614 -0.3549
 1394ntf    fn4 8759   3.422   2.846   3.199 -0.6099 -0.0197  0.3138
 1394ntf    fn4 8760   3.246   2.879   3.082  0.1907  0.1524 -0.4589
 1395ntf    cn1 8761   3.194   2.819   2.097  0.0849 -0.3204 -0.0750
 1395ntf    sn2 8762   3.076   2.684   2.066 -0.2484 -0.0378 -0.0386
 1395ntf    nn3 8763   3.119   2.583   2.178  0.1081  0.0587 -0.0887
 1395ntf    sn2 8764   3.194   2.445   2.163 -0.0480  0.0050 -0.3742
 1395ntf    cn1 8765   3.109   2.370   2.305  0.1584  0.0865 -0.2079
 1395ntf    fn4 8766   3.297   2.786   2.173 -0.3302 -1.0560  0.1740
 1395ntf    fn4 8767   3.249   2.868   1.987  0.2205 -0.2757  0.0129
 1395ntf    fn4 8768   3.133   2.921   2.156 -0.1683 -0.3361 -0.3060
 1395ntf    on5 8769   2.942   2.733   2.087 -0.1581  0.0895  0.2463
 1395ntf    on5 8770   3.114   2.651   1.931  0.3528 -0.0168  0.1262
 1395ntf    on5 8771   3.332   2.448   2.203 -0.2565  0.7254  0.3162
 1395ntf    on5 8772   3.160   2.366   2.047 -0.5233 -0.4844  0.0930
 1395ntf    fn4 8773   2.983   2.339   2.281  0.0972  0.0002  0.2129
 1395ntf    fn4 8774   3.170   2.254   2.326  0.6115  0.3367 -0.1309
 1395ntf    fn4 8775   3.123   2.433   2.421  0.6348 -0.1921 -0.1125
 1396ntf    cn1 8776   0.089   5.184   0.411 -0.4571  0.0903 -0.2345
 1396ntf    sn2 8777   0.134   5.235   0.580 -0.4366  0.0110 -0.2154
 1396ntf    nn3 8778   0.031   5.143   0.654  0.1823 -0.1333  0.4734
 1396ntf    sn2 8779   0.020   5.098   0.804  0.1270  0.0242  0.5160
 1396ntf    cn1 8780  -0.130   5.192   0.845 -0.2214 -0.1423 -0.3584
 1396ntf    fn4 8781  -0.031   5.230   0.380 -0.4159  0.2494 -0.1570
 1396ntf    fn4 8782   0.168   5.247   0.326  0.1211 -0.5521 -0.1894
 1396ntf    fn4 8783   0.101   5.054   0.389  0.7951  0.1819 -0.1747
 1396ntf    on5 8784   0.270   5.188   0.591 -0.4855 -0.1849 -0.4368
 1396ntf    on5 8785   0.099   5.375   0.588  0.1053  0.1175  0.3235
 1396ntf    on5 8786   0.119   5.145   0.898  0.3468 -0.1005  0.3483
 1396ntf    on5 8787  -0.014   4.960   0.824 -0.2233  0.1011  0.4546
 1396ntf    fn4 8788  -0.232   5.123   0.796 -0.2229 -0.3527 -0.0584
 1396ntf    fn4 8789  -0.148   5.195   0.976  0.3348  0.6392 -0.2957
 1396ntf    fn4 8790  -0.133   5.315   0.796  0.3300 -0.1356 -0.3855
 1397ntf    cn1 8791   2.156   4.451   0.095  0.1741  0.3278  0.2330
 1397ntf    sn2 8792   2.060   4.340  -0.013  0.3241 -0.0168  0.4512
 1397ntf    nn3 8793   2.113   4.200   0.032  0.2252 -0.1278  0.2239
 1397ntf    sn2 8794   2.214   4.108  -0.045  0.0103  0.0822 -0.3137
 1397ntf    cn1 8795   2.093   4.045  -0.165 -0.2888  0.4185 -0.1914
 1397ntf    fn4 8796   2.080   4.501   0.191 -0.1836  0.0267  0.1116
 1397ntf    fn4 8797   2.257   4.391   0.155  0.0248 -0.1670 -0.0063
 1397ntf    fn4 8798   2.208   4.554   0.030  0.0810  0.1680 -0.1011
 1397ntf    on5 8799   1.928   4.364   0.040 -0.1408 -0.4693 -0.4795
 1397ntf    on5 8800   2.092   4.381  -0.148 -0.7415 -0.7707 -0.0417
 1397ntf    on5 8801   2.248   3.993   0.036  0.2779  0.8419  0.6744
 1397ntf    on5 8802   2.317   4.176  -0.119  0.2380 -0.1807 -0.2407
 1397ntf    fn4 8803   2.057   4.136  -0.253 -0.6208  0.3531 -0.1261
 1397ntf    fn4 8804   2.155   3.957  -0.243  0.0786  0.6123 -0.1227
 1397ntf    fn4 8805   1.986   3.994  -0.107 -0.0348  0.0881 -0.0126
 1398ntf    cn1 8806   0.184   4.247   1.175  0.1048 -0.2424 -0.4185
 1398ntf    sn2 8807   0.237   4.182   1.336 -0.2639 -0.1969 -0.2772
 1398ntf    nn3 8808   0.101   4.119   1.384 -0.2520 -0.1480 -0.1776
 1398ntf    sn2 8809   0.063   4.066   1.527  0.1071 -0.2474 -0.1167
 1398ntf    cn1 8810   0.079   3.891   1.480 -0.1084 -0.3212  0.0826
 1398ntf    fn4 8811   0.263   4.347   1.139 -0.3002  0.3031  0.1678
 1398ntf    fn4 8812   0.168   4.163   1.074 -0.3104  0.3128 -0.8277
 1398ntf    fn4 8813   0.064   4.302   1.189  0.0808 -0.4498  0.2238
 1398ntf    on5 8814   0.329   4.079   1.294  0.1451  0.1399 -0.2060
 1398ntf    on5 8815   0.291   4.293   1.410  0.3939 -0.8764  0.2768
 1398ntf    on5 8816  -0.077   4.081   1.556  0.2363 -0.1691  0.4624
 1398ntf    on5 8817   0.151   4.084   1.639 -0.2866  0.2188  0.1234
 1398ntf    fn4 8818  -0.015   3.864   1.391  0.1321  0.3205 -0.3784
 1398ntf    fn4 8819   0.196   3.867   1.422 -0.1076  0.0013 -0.0526
 1398ntf    fn4 8820   0.058   3.812   1.584 -0.4548  0.1612  0.3850
 1399ntf    cn1 8821   3.985   4.359   1.213 -0.0207  0.0622  0.3141
 1399ntf    sn2 8822   4.146   4.364   1.298  0.1669 -0.1274 -0.0265
 1399ntf    nn3 8823   4.235   4.328   1.174  0.2445 -0.0626  0.0111
 1399ntf    sn2 8824   4.351   4.416   1.117  0.1467 -0.1727 -0.3627
 1399ntf    cn1 8825   4.495   4.321   1.174  0.0721 -0.2506 -0.3022
 1399ntf    fn4 8826   3.996   4.423   1.098  0.0585 -0.2280  0.1584
 1399ntf    fn4 8827   3.960   4.234   1.180 -0.0346  0.1929 -0.1850
 1399ntf    fn4 8828   3.880   4.418   1.269 -0.1408  0.2047 -0.0567
 1399ntf    on5 8829   4.157   4.501   1.342  0.7634 -0.0265 -0.4784
 1399ntf    on5 8830   4.148   4.256   1.393 -0.0306  0.3085  0.4838
 1399ntf    on5 8831   4.365   4.549   1.171  0.2227 -0.3612  0.0856
 1399ntf    on5 8832   4.371   4.401   0.975  0.0177 -0.2668 -0.3709
 1399ntf    fn4 8833   4.604   4.396   1.160 -0.2651  0.2699 -0.1737
 1399ntf    fn4 8834   4.482   4.297   1.304  0.5481  0.1288 -0.1791
 1399ntf    fn4 8835   4.500   4.205   1.111 -0.5293 -0.3447 -0.1750
 1400ntf    cn1 8836   1.922   6.391   5.464 -0.1290  0.1335 -0.1009
 1400ntf    sn2 8837   1.805   6.260   5.511  0.1402 -0.0024  0.1986
 1400ntf    nn3 8838   1.876   6.138   5.441 -0.1590  0.0829 -0.2587
 1400ntf    sn2 8839   1.820   5.991   5.442 -0.3387  0.1532  0.0389
 1400ntf    cn1 8840   1.807   5.969   5.262  0.0414  0.3430 -0.0138
 1400ntf    fn4 8841   1.909   6.442   5.343 -0.0850 -0.3672 -0.3234
 1400ntf    fn4 8842   1.929   6.481   5.560  0.4004  0.2093 -0.2093
 1400ntf    fn4 8843   2.046   6.345   5.469 -0.1252  0.1148 -0.3702
 1400ntf    on5 8844   1.806   6.266   5.655  0.2266  0.6621  0.1709
 1400ntf    on5 8845   1.689   6.304   5.436  0.7075  0.5661 -0.3586
 1400ntf    on5 8846   1.686   5.971   5.490 -0.5044  0.0696 -0.4524
 1400ntf    on5 8847   1.921   5.901   5.493 -0.0551  0.5382  0.1625
 1400ntf    fn4 8848   1.729   5.867   5.231  0.3838  0.1870 -0.3691
 1400ntf    fn4 8849   1.752   6.072   5.200 -0.6198  0.3279  0.5383
 1400ntf    fn4 8850   1.922   5.937   5.206 -0.2219 -0.6602  0.0041
 1401ntf    cn1 8851   1.124   1.155   0.639  0.0812 -0.1970  0.1526
 1401ntf    sn2 8852   1.028   1.249   0.516  0.0938 -0.1443  0.1831
 1401ntf    nn3 8853   0.896   1.237   0.600  0.1019 -0.3853  0.1620
 1401ntf    sn2 8854   0.748   1.220   0.549  0.0053  0.0869  0.2845
 1401ntf    cn1 8855   0.653   1.329   0.660 -0.1779 -0.2702  0.4785
 1401ntf    fn4 8856   1.252   1.155   0.603 -0.1133 -0.0876 -0.5542
 1401ntf    fn4 8857   1.122   1.198   0.764  0.5073 -0.4303  0.2437
 1401ntf    fn4 8858   1.086   1.028   0.645 -0.2721 -0.1254 -0.4666
 1401ntf    on5 8859   1.088   1.380   0.505 -0.1411 -0.0639 -0.1290
 1401ntf    on5 8860   1.030   1.159   0.403  0.4355 -0.2417  0.2657
 1401ntf    on5 8861   0.696   1.090   0.581  0.3706 -0.2563 -0.4966
 1401ntf    on5 8862   0.718   1.273   0.419 -0.0930 -0.1984  0.1899
 1401ntf    fn4 8863   0.695   1.453   0.643  0.2596 -0.5381 -0.4869
 1401ntf    fn4 8864   0.522   1.321   0.639 -0.2705  0.3513  0.8001
 1401ntf    fn4 8865   0.676   1.307   0.789  0.3976 -0.4462  0.3503
 1402ntf    cn1 8866   6.335   0.970   0.491  0.8740  0.3202  0.2413
 1402ntf    sn2 8867   6.399   0.841   0.379  0.1244 -0.0370  0.2200
 1402ntf    nn3 8868   6.487   0.926   0.280  0.3442  0.3573  0.7471
 1402ntf    sn2 8869   6.641   0.957   0.281  0.4132  0.0932 -0.4110
 1402ntf    cn1 8870   6.705   0.815   0.188 -0.0171 -0.1618 -0.3179
 1402ntf    fn4 8871   6.432   1.026   0.560  1.0121  0.5855 -0.1614
 1402ntf    fn4 8872   6.259   1.062   0.434  1.1116  0.2437 -0.2106
 1402ntf    fn4 8873   6.259   0.915   0.584 -0.0382 -0.0171 -0.6799
 1402ntf    on5 8874   6.466   0.747   0.464  0.0677  0.0660  0.3792
 1402ntf    on5 8875   6.274   0.798   0.321 -0.2243  0.1528  0.8200
 1402ntf    on5 8876   6.709   0.933   0.405  0.0670 -0.5152 -0.3366
 1402ntf    on5 8877   6.669   1.070   0.195 -0.5540  0.4314 -0.2974
 1402ntf    fn4 8878   6.671   0.696   0.236  0.1424 -0.2075 -0.3200
 1402ntf    fn4 8879   6.653   0.817   0.066  0.1635 -0.6787 -0.4072
 1402ntf    fn4 8880   6.836   0.818   0.175  0.0743 -0.7313  0.4224
 1403ntf    cn1 8881   0.658   3.344   6.115 -0.0069 -0.0097  0.0833
 1403ntf    sn2 8882   0.827   3.311   6.056  0.0081 -0.0541  0.1504
 1403ntf    nn3 8883   0.914   3.280   6.183 -0.6486  0.1794  0.6679
 1403ntf    sn2 8884   1.029   3.182   6.224 -0.2453  0.2840 -0.1816
 1403ntf    cn1 8885   0.928   3.060   6.313  0.3360  0.1074  0.2462
 1403ntf    fn4 8886   0.565   3.361   6.023  0.0310 -0.1645  0.0170
 1403ntf    fn4 8887   0.614   3.248   6.195  0.4081 -0.0169  0.3095
 1403ntf    fn4 8888   0.643   3.454   6.188 -0.2346 -0.2467  0.3982
 1403ntf    on5 8889   0.805   3.201   5.966  0.6084 -0.2500  0.2439
 1403ntf    on5 8890   0.856   3.441   5.999  0.6268 -0.0211  0.5308
 1403ntf    on5 8891   1.118   3.243   6.320  0.0097  0.0367 -0.2566
 1403ntf    on5 8892   1.096   3.093   6.132  0.9120  0.2825  0.6364
 1403ntf    fn4 8893   0.862   3.124   6.408 -0.7131 -0.2631 -0.2183
 1403ntf    fn4 8894   0.827   3.013   6.241  0.6233  0.0624 -0.1288
 1403ntf    fn4 8895   0.999   2.966   6.372 -0.0207 -0.4156 -0.1536
 1404ntf    cn1 8896   1.946   5.429   2.278  0.0793  0.1938  0.3815
 1404ntf    sn2 8897   1.772   5.448   2.232  0.1092 -0.0731  0.1556
 1404ntf    nn3 8898   1.775   5.604   2.217  0.3518 -0.1115 -0.2151
 1404ntf    sn2 8899   1.767   5.696   2.090 -0.0952  0.0593 -0.0681
 1404ntf    cn1 8900   1.894   5.821   2.127 -0.0924  0.2313 -0.6417
 1404ntf    fn4 8901   1.983   5.486   2.392  0.1876  0.5503  0.1689
 1404ntf    fn4 8902   1.979   5.301   2.288  0.2335  0.2117  0.1143
 1404ntf    fn4 8903   2.028   5.486   2.192  0.0228 -0.2385  0.0361
 1404ntf    on5 8904   1.756   5.369   2.112 -0.0809 -0.3619  0.3683
 1404ntf    on5 8905   1.710   5.404   2.354  0.0533 -0.2314  0.0715
 1404ntf    on5 8906   1.643   5.768   2.083 -0.0220  0.1461 -0.5045
 1404ntf    on5 8907   1.820   5.636   1.969  0.9712  1.4195 -0.2970
 1404ntf    fn4 8908   2.015   5.769   2.118 -0.1486 -0.0541  0.1630
 1404ntf    fn4 8909   1.891   5.922   2.042  0.1178  0.2808 -0.5899
 1404ntf    fn4 8910   1.884   5.879   2.246 -0.1377 -0.3362 -0.3666
 1405ntf    cn1 8911   1.657   1.000   0.170 -0.2596  0.0392 -0.0772
 1405ntf    sn2 8912   1.836   1.029   0.163 -0.2722  0.1344 -0.0189
 1405ntf    nn3 8913   1.887   0.973   0.301  0.3392  0.1084 -0.2527
 1405ntf    sn2 8914   1.941   0.830   0.337  0.3107  0.1705  0.0380
 1405ntf    cn1 8915   2.116   0.869   0.366  0.4200 -0.0114 -0.3747
 1405ntf    fn4 8916   1.616   0.893   0.237 -0.1399 -0.1289 -0.2712
 1405ntf    fn4 8917   1.587   1.095   0.230 -0.1339  0.0652  0.0285
 1405ntf    fn4 8918   1.608   0.986   0.048 -0.4074 -0.4686  0.0391
 1405ntf    on5 8919   1.880   0.962   0.043  0.4039  0.2430  0.1614
 1405ntf    on5 8920   1.845   1.172   0.154  0.7593  0.0951  0.2797
 1405ntf    on5 8921   1.954   0.730   0.234 -0.3750 -0.2787  0.3794
 1405ntf    on5 8922   1.902   0.783   0.467 -0.3253  0.2076 -0.1364
 1405ntf    fn4 8923   2.139   0.969   0.450 -0.2961 -0.0757 -0.1019
 1405ntf    fn4 8924   2.182   0.766   0.416  0.0583 -0.4372 -0.7758
 1405ntf    fn4 8925   2.177   0.912   0.256 -0.2968  0.6767 -0.5088
 1406ntf    cn1 8926   5.115   4.651   0.068 -0.0407  0.1733  0.1760
 1406ntf    sn2 8927   5.185   4.569  -0.078 -0.3249  0.0127  0.1286
 1406ntf    nn3 8928   5.136   4.422  -0.048  0.3445 -0.2348  0.0352
 1406ntf    sn2 8929   5.020   4.348  -0.123 -0.1582  0.2216  0.3525
 1406ntf    cn1 8930   4.983   4.212  -0.008 -0.2381 -0.4333 -0.4387
 1406ntf    fn4 8931   4.989   4.691   0.059  0.0104  0.1825 -0.5110
 1406ntf    fn4 8932   5.119   4.572   0.174  0.2865 -0.2192 -0.1231
 1406ntf    fn4 8933   5.186   4.758   0.098  0.0937  0.0923  0.1453
 1406ntf    on5 8934   5.132   4.636  -0.193 -0.0405 -0.1459 -0.0960
 1406ntf    on5 8935   5.327   4.581  -0.056 -0.1672  0.4627 -1.0822
 1406ntf    on5 8936   5.069   4.282  -0.242 -0.4697 -0.1588  0.4333
 1406ntf    on5 8937   4.893   4.417  -0.126 -0.1594  0.2394  0.7818
 1406ntf    fn4 8938   5.086   4.129  -0.012  0.2882  0.2079 -0.3384
 1406ntf    fn4 8939   4.961   4.257   0.114 -0.1363 -0.1838 -0.5109
 1406ntf    fn4 8940   4.871   4.149  -0.039 -0.5444 -0.0026 -0.2263
 1407ntf    cn1 8941   6.711   6.686   6.647  0.1510 -0.2472 -0.4807
 1407ntf    sn2 8942   6.855   6.776   6.713 -0.0618 -0.0903 -0.2243
 1407ntf    nn3 8943   6.785   6.872   6.814  0.0826 -0.2360  0.0154
 1407ntf    sn2 8944   6.739   6.852   6.963 -0.1743 -0.0128 -0.0325
 1407ntf    cn1 8945   6.889   6.912   7.047 -0.0644 -0.0089 -0.2292
 1407ntf    fn4 8946   6.651   6.627   6.749 -0.0210  0.4317 -0.1806
 1407ntf    fn4 8947   6.620   6.758   6.585 -0.0907  0.4304  0.6332
 1407ntf    fn4 8948   6.746   6.598   6.555  0.2516 -0.5734 -0.1309
 1407ntf    on5 8949   6.935   6.669   6.768 -0.1018  0.0583  0.1234
 1407ntf    on5 8950   6.905   6.846   6.597  0.4382  0.4788  0.3246
 1407ntf    on5 8951   6.729   6.712   6.998 -0.4709 -0.2104 -0.8690
 1407ntf    on5 8952   6.635   6.945   6.999 -0.0800  0.0791  0.0045
 1407ntf    fn4 8953   7.001   6.856   7.004 -0.0432 -0.2850  0.1739
 1407ntf    fn4 8954   6.897   7.042   7.030  0.2728  0.0040  0.0221
 1407ntf    fn4 8955   6.885   6.877   7.175 -0.1096  0.7100 -0.0302
 1408ntf    cn1 8956   0.648   5.188   4.194  0.3210  0.1699 -0.1510
 1408ntf    sn2 8957   0.699   5.363   4.190  0.1251  0.2330  0.0902
 1408ntf    nn3 8958   0.847   5.356   4.141  0.0441  0.4097 -0.1840
 1408ntf    sn2 8959   0.980   5.361   4.225  0.0446 -0.0798 -0.1490
 1408ntf    cn1 8960   1.023   5.534   4.187 -0.0738  0.0166  0.1547
 1408ntf    fn4 8961   0.530   5.174   4.252  0.5695  0.1176  0.3454
 1408ntf    fn4 8962   0.629   5.146   4.070  0.2400  0.1734 -0.1403
 1408ntf    fn4 8963   0.728   5.102   4.255 -0.2856  0.0411  0.4823
 1408ntf    on5 8964   0.611   5.412   4.087 -0.1354  0.1334  0.2619
 1408ntf    on5 8965   0.682   5.397   4.329 -0.2775 -0.5095  0.2312
 1408ntf    on5 8966   1.081   5.290   4.151  0.2308  0.2093 -0.1740
 1408ntf    on5 8967   0.972   5.342   4.368 -0.1751 -0.5120 -0.2180
 1408ntf    fn4 8968   1.078   5.557   4.069  0.1183  0.0308  0.2462
 1408ntf    fn4 8969   0.911   5.604   4.197  0.0757  0.2270  0.3650
 1408ntf    fn4 8970   1.109   5.586   4.274  0.1326  0.1859 -0.1515
 1409ntf    cn1 8971   0.044   0.616   4.218  0.2036  0.1378 -0.2103
 1409ntf    sn2 8972  -0.079   0.612   4.084 -0.0948  0.0707  0.0654
 1409ntf    nn3 8973  -0.074   0.759   4.028  0.0944  0.0570  0.0493
 1409ntf    sn2 8974  -0.003   0.818   3.901 -0.0996  0.0347 -0.0686
 1409ntf    cn1 8975   0.128   0.924   3.968 -0.1498  0.3496 -0.4628
 1409ntf    fn4 8976   0.165   0.653   4.179  0.1538  0.3448 -0.1685
 1409ntf    fn4 8977  -0.005   0.694   4.313 -0.1955  0.0644 -0.3521
 1409ntf    fn4 8978   0.061   0.496   4.271 -0.2531 -0.0159 -0.4005
 1409ntf    on5 8979  -0.015   0.518   3.995 -0.0132  0.8594 -0.7178
 1409ntf    on5 8980  -0.195   0.572   4.161  0.1131  0.0459  0.3678
 1409ntf    on5 8981  -0.088   0.908   3.826  0.0514  0.1854 -0.0591
 1409ntf    on5 8982   0.066   0.723   3.817 -0.5777  0.1353 -0.5864
 1409ntf    fn4 8983   0.081   1.022   4.042 -0.0196  0.0006  0.0870
 1409ntf    fn4 8984   0.214   0.863   4.049  0.2526  0.4623 -0.8000
 1409ntf    fn4 8985   0.199   0.981   3.872 -0.0416 -0.2959 -0.7731
 1410ntf    cn1 8986   3.706   2.010   6.754 -0.2463 -0.1606  0.1634
 1410ntf    sn2 8987   3.635   2.176   6.733  0.5032  0.1558  0.1190
 1410ntf    nn3 8988   3.505   2.133   6.656  0.5175  0.4262 -0.0574
 1410ntf    sn2 8989   3.493   2.084   6.508  0.2796  0.1914  0.0391
 1410ntf    cn1 8990   3.468   2.250   6.437  0.1826  0.3094  0.3461
 1410ntf    fn4 8991   3.761   1.959   6.645  0.3836  0.4317  0.1990
 1410ntf    fn4 8992   3.808   2.003   6.838  0.2077 -0.2994 -0.3918
 1410ntf    fn4 8993   3.620   1.920   6.799 -0.5683  0.0784  0.0384
 1410ntf    on5 8994   3.594   2.218   6.865  0.0459 -0.1454  0.0738
 1410ntf    on5 8995   3.741   2.245   6.664  0.1408  0.2032 -0.3888
 1410ntf    on5 8996   3.370   2.019   6.471  0.0463  0.4180  0.4103
 1410ntf    on5 8997   3.612   2.030   6.447 -0.3208 -0.3211 -0.7081
 1410ntf    fn4 8998   3.356   2.304   6.480  0.2683  0.8944 -0.1443
 1410ntf    fn4 8999   3.562   2.338   6.467  0.4832  0.0413  0.2119
 1410ntf    fn4 9000   3.466   2.250   6.304  0.5009 -0.0330  0.3387
 1411ntf    cn1 9001   2.760   4.011   3.440 -0.3372  0.1664  0.4099
 1411ntf    sn2 9002   2.648   4.089   3.319  0.0029 -0.1175 -0.0894
 1411ntf    nn3 9003   2.748   4.151   3.215  0.1052  0.0068  0.0830
 1411ntf    sn2 9004   2.811   4.295   3.211  0.0827  0.0140  0.0117
 1411ntf    cn1 9005   2.689   4.387   3.112 -0.1242 -0.4379 -0.1567
 1411ntf    fn4 9006   2.858   3.945   3.381  0.2004  1.2104  0.0931
 1411ntf    fn4 9007   2.825   4.106   3.505 -0.2812  0.4209 -0.0101
 1411ntf    fn4 9008   2.695   3.943   3.532 -0.1331 -0.2459  0.2499
 1411ntf    on5 9009   2.567   3.981   3.268 -0.8724  0.6248 -0.2959
 1411ntf    on5 9010   2.585   4.185   3.405  0.1820 -0.1505  0.0802
 1411ntf    on5 9011   2.930   4.304   3.131  0.5374 -0.2265  0.6549
 1411ntf    on5 9012   2.804   4.369   3.335  0.2221  0.0563 -0.0062
 1411ntf    fn4 9013   2.714   4.516   3.127 -0.3072 -0.4068 -0.1159
 1411ntf    fn4 9014   2.677   4.356   2.984  0.6218 -0.3228 -0.2606
 1411ntf    fn4 9015   2.569   4.370   3.165 -0.0002 -0.1101  0.2267
 1412ntf    cn1 9016   4.692   1.344   3.585 -0.2480  0.5285  0.8324
 1412ntf    sn2 9017   4.701   1.408   3.755 -0.2322  0.1419  0.9790
 1412ntf    nn3 9018   4.774   1.544   3.727  0.0807 -0.1837  0.1796
 1412ntf    sn2 9019   4.712   1.679   3.674  0.1008 -0.0510  0.4892
 1412ntf    cn1 9020   4.730   1.774   3.827  0.1891  0.3280  0.2442
 1412ntf    fn4 9021   4.663   1.215   3.573  0.5861  0.4454 -0.4438
 1412ntf    fn4 9022   4.607   1.402   3.503 -0.4008 -0.4289  0.2969
 1412ntf    fn4 9023   4.809   1.361   3.526 -0.6841  0.5630 -0.0270
 1412ntf    on5 9024   4.566   1.424   3.802 -0.7620 -0.2966 -0.3481
 1412ntf    on5 9025   4.786   1.313   3.823  0.4229 -0.1081 -0.1551
 1412ntf    on5 9026   4.570   1.679   3.649  0.1396 -0.7360  0.2400
 1412ntf    on5 9027   4.795   1.744   3.576  0.0091 -0.5535  0.0724
 1412ntf    fn4 9028   4.858   1.802   3.843  0.3143 -0.1773  0.1400
 1412ntf    fn4 9029   4.668   1.891   3.821  0.0372  0.2092 -0.5745
 1412ntf    fn4 9030   4.679   1.707   3.929 -0.0473  0.3139  0.1186
 1413ntf    cn1 9031   5.895   3.885   6.055  0.3822  0.0978  0.0558
 1413ntf    sn2 9032   5.838   3.889   5.883  0.4493 -0.1318  0.0282
 1413ntf    nn3 9033   5.899   4.027   5.840 -0.1408  0.1466  0.0702
 1413ntf    sn2 9034   6.042   4.062   5.785 -0.1463 -0.0435 -0.0652
 1413ntf    cn1 9035   6.006   4.101   5.611  0.1226 -0.4121 -0.2054
 1413ntf    fn4 9036   5.838   3.984   6.122 -0.1801 -0.0829 -0.1497
 1413ntf    fn4 9037   5.858   3.777   6.122  0.5531  0.2151  0.3411
 1413ntf    fn4 9038   6.026   3.901   6.069  0.4486 -0.1596 -0.2528
 1413ntf    on5 9039   5.890   3.769   5.822  0.3269 -0.0707 -0.1966
 1413ntf    on5 9040   5.697   3.904   5.905  0.4718 -0.3221  0.2953
 1413ntf    on5 9041   6.139   3.955   5.777  0.5728  0.5817  0.1471
 1413ntf    on5 9042   6.091   4.184   5.843  0.1817 -0.1067 -0.2051
 1413ntf    fn4 9043   6.119   4.133   5.548  0.2830 -0.2821  0.1471
 1413ntf    fn4 9044   5.935   4.014   5.542 -0.2494 -0.2401 -0.0373
 1413ntf    fn4 9045   5.928   4.208   5.611 -0.2509 -0.6814  0.3495
 1414ntf    cn1 9046   5.020   4.671   1.821 -0.2583  0.3549  0.1862
 1414ntf    sn2 9047   4.901   4.682   1.684 -0.0176 -0.4294 -0.0966
 1414ntf    nn3 9048   5.006   4.702   1.569 -0.0740  0.3883 -0.0134
 1414ntf    sn2 9049   5.017   4.790   1.440 -0.0657  0.3993 -0.0050
 1414ntf    cn1 9050   5.031   4.658   1.316  0.2596  0.4936 -0.0703
 1414ntf    fn4 9051   4.953   4.647   1.932 -0.3460  0.1386  0.0886
 1414ntf    fn4 9052   5.097   4.563   1.814 -0.3466  0.2750  0.4553
 1414ntf    fn4 9053   5.093   4.781   1.830 -0.1758  0.2873  0.3398
 1414ntf    on5 9054   4.838   4.553   1.691 -0.5583 -0.1913 -0.4586
 1414ntf    on5 9055   4.821   4.799   1.714  0.8242 -0.0064  0.5394
 1414ntf    on5 9056   5.142   4.861   1.423  0.1800 -0.1542 -0.5317
 1414ntf    on5 9057   4.898   4.865   1.411 -0.3211  0.0634  0.1694
 1414ntf    fn4 9058   4.924   4.642   1.240  0.6907  0.0646 -0.5949
 1414ntf    fn4 9059   5.141   4.664   1.243  0.3926  0.2950  0.1139
 1414ntf    fn4 9060   5.050   4.547   1.385  0.4554 -0.1123 -1.0820
 1415ntf    cn1 9061   0.545   3.663   4.563  0.1210  0.0965 -0.0340
 1415ntf    sn2 9062   0.392   3.727   4.487  0.2626  0.0376 -0.3677
 1415ntf    nn3 9063   0.372   3.856   4.574  0.2120 -0.0270 -0.2833
 1415ntf    sn2 9064   0.254   3.888   4.673  0.2342 -0.2023 -0.1984
 1415ntf    cn1 9065   0.323   4.032   4.760 -0.0464 -0.1036 -0.1414
 1415ntf    fn4 9066   0.640   3.755   4.571  0.1680  0.0564 -0.1255
 1415ntf    fn4 9067   0.539   3.625   4.690  0.3976  0.0231 -0.0433
 1415ntf    fn4 9068   0.593   3.565   4.489  0.4466 -0.1981  0.5630
 1415ntf    on5 9069   0.442   3.755   4.355 -0.6805 -0.9859 -0.9606
 1415ntf    on5 9070   0.295   3.621   4.501  0.4794 -0.0993  0.1356
 1415ntf    on5 9071   0.241   3.787   4.774 -0.1373  0.2091  0.1677
 1415ntf    on5 9072   0.134   3.942   4.613 -0.1700 -0.4747  0.3585
 1415ntf    fn4 9073   0.432   4.006   4.830 -0.1478  0.0045  0.0597
 1415ntf    fn4 9074   0.348   4.131   4.677  0.3671  0.1828  0.3203
 1415ntf    fn4 9075   0.229   4.079   4.841  0.1423 -0.1684  0.1181
 1416ntf    cn1 9076   6.410   1.514   4.858 -0.0204  0.2434  0.0629
 1416ntf    sn2 9077   6.281   1.633   4.812 -0.5785 -0.2568  0.3081
 1416ntf    nn3 9078   6.285   1.736   4.930 -0.0663 -0.1036  0.1602
 1416ntf    sn2 9079   6.219   1.723   5.072 -0.3544  0.3256  0.0705
 1416ntf    cn1 9080   6.072   1.828   5.059 -0.4345  0.1845 -0.1850
 1416ntf    fn4 9081   6.366   1.441   4.959 -0.0225 -0.3259 -0.3378
 1416ntf    fn4 9082   6.443   1.430   4.760 -0.3273  0.6414 -0.3881
 1416ntf    fn4 9083   6.522   1.571   4.898  0.5406 -1.0352  0.3825
 1416ntf    on5 9084   6.326   1.698   4.690 -0.6471 -0.1777  0.3248
 1416ntf    on5 9085   6.164   1.550   4.802 -0.3470 -0.5121 -0.4207
 1416ntf    on5 9086   6.300   1.784   5.175  0.2908 -0.7466  0.2228
 1416ntf    on5 9087   6.175   1.588   5.100  0.0223  0.1945  0.0413
 1416ntf    fn4 9088   5.994   1.806   5.163  0.0606  0.4960  0.2607
 1416ntf    fn4 9089   6.104   1.957   5.061  0.4165 -0.0208  0.2743
 1416ntf    fn4 9090   6.003   1.798   4.951 -0.0713  0.3310 -0.4628
 1417ntf    cn1 9091   1.176   5.078   1.527  0.2721 -0.0031 -0.5731
 1417ntf    sn2 9092   1.165   5.253   1.577 -0.2489 -0.1285 -0.2430
 1417ntf    nn3 9093   1.285   5.305   1.490 -0.1557  0.5010  0.2549
 1417ntf    sn2 9094   1.289   5.376   1.350 -0.1818  0.2089  0.1062
 1417ntf    cn1 9095   1.450   5.307   1.302 -0.0873  0.3361  0.2411
 1417ntf    fn4 9096   1.134   5.073   1.401 -1.1210  0.4383 -0.1440
 1417ntf    fn4 9097   1.295   5.023   1.532  0.2473 -0.0002  0.0501
 1417ntf    fn4 9098   1.094   4.999   1.593  0.9291 -0.2600 -0.0582
 1417ntf    on5 9099   1.035   5.305   1.544 -0.1825  0.0070 -0.2915
 1417ntf    on5 9100   1.204   5.263   1.716 -0.4200  0.5832 -0.2418
 1417ntf    on5 9101   1.314   5.518   1.358  0.4003  0.1524 -0.5666
 1417ntf    on5 9102   1.200   5.322   1.250  0.2637 -0.2933 -0.0218
 1417ntf    fn4 9103   1.543   5.332   1.393 -0.1029  0.5955  0.1847
 1417ntf    fn4 9104   1.457   5.176   1.287 -0.6589  0.2866  0.3985
 1417ntf    fn4 9105   1.491   5.352   1.185  0.1940 -0.5981 -0.0260
 1418ntf    cn1 9106   5.413   2.651   6.005 -0.3100 -0.4282 -0.0954
 1418ntf    sn2 9107   5.585   2.597   5.983 -0.0589  0.0706  0.5881
 1418ntf    nn3 9108   5.651   2.724   5.919  0.0659 -0.4326 -0.3002
 1418ntf    sn2 9109   5.676   2.760   5.768  0.1072 -0.0748 -0.2084
 1418ntf    cn1 9110   5.593   2.921   5.744  0.4227  0.1616  0.2581
 1418ntf    fn4 9111   5.341   2.559   6.066 -0.0134 -0.5471  0.0800
 1418ntf    fn4 9112   5.415   2.749   6.095 -0.1121 -0.1054 -0.4462
 1418ntf    fn4 9113   5.365   2.699   5.892 -0.1819  0.9241  0.3986
 1418ntf    on5 9114   5.634   2.577   6.117  0.0840 -0.4653  0.4596
 1418ntf    on5 9115   5.571   2.484   5.895 -0.2828  0.6341 -0.1067
 1418ntf    on5 9116   5.607   2.685   5.666  0.0982 -0.4240  0.0534
 1418ntf    on5 9117   5.816   2.787   5.749  0.2072 -0.0646  0.4942
 1418ntf    fn4 9118   5.642   3.020   5.817  0.3644  0.6279 -0.3305
 1418ntf    fn4 9119   5.612   2.968   5.622 -0.1570 -0.7739 -0.2110
 1418ntf    fn4 9120   5.464   2.915   5.773  0.3735 -0.6249 -0.0947
 1419ntf    cn1 9121   3.735   3.010   5.129 -0.2694 -0.4495  0.1192
 1419ntf    sn2 9122   3.873   2.985   5.013 -0.3272 -0.1294 -0.0202
 1419ntf    nn3 9123   3.983   3.067   5.090  0.0120 -0.6372  0.0439
 1419ntf    sn2 9124   4.118   3.015   5.150  0.2305 -0.1248  0.0021
 1419ntf    cn1 9125   4.054   2.943   5.305  0.2450 -0.2377 -0.0436
 1419ntf    fn4 9126   3.718   3.140   5.148  0.3430 -0.3911  0.2825
 1419ntf    fn4 9127   3.622   2.965   5.077 -0.7237  0.0353  0.6817
 1419ntf    fn4 9128   3.768   2.952   5.243  0.7435 -0.4200 -0.1498
 1419ntf    on5 9129   3.890   2.842   5.004  0.4190 -0.0705  0.3883
 1419ntf    on5 9130   3.842   3.053   4.889  0.3574  0.3087  0.0452
 1419ntf    on5 9131   4.200   3.120   5.206  0.5111 -0.3253 -0.0324
 1419ntf    on5 9132   4.185   2.906   5.084 -0.3040 -0.4297 -0.0450
 1419ntf    fn4 9133   4.155   2.891   5.373 -0.4554 -0.4332  0.8607
 1419ntf    fn4 9134   3.984   3.025   5.381  0.1227 -0.5354  0.1658
 1419ntf    fn4 9135   3.969   2.845   5.283 -0.2261  0.2723 -0.5182
 1420ntf    cn1 9136   6.044   2.265   6.346  0.4864  0.1304  0.2898
 1420ntf    sn2 9137   6.157   2.377   6.435  0.2777  0.3411  0.2896
 1420ntf    nn3 9138   6.202   2.276   6.546 -0.4002 -0.2402  0.0418
 1420ntf    sn2 9139   6.226   2.292   6.700 -0.0333 -0.0508 -0.0330
 1420ntf    cn1 9140   6.350   2.163   6.730  0.3541  0.2942 -0.1493
 1420ntf    fn4 9141   5.962   2.335   6.270 -0.1183 -0.3937  0.4497
 1420ntf    fn4 9142   6.105   2.176   6.269  0.3185  0.5241 -0.3061
 1420ntf    fn4 9143   5.962   2.204   6.430 -0.0267  0.3532 -0.0469
 1420ntf    on5 9144   6.266   2.400   6.343  0.1533  0.1734  0.0995
 1420ntf    on5 9145   6.078   2.491   6.475  0.8031  0.8069  0.0207
 1420ntf    on5 9146   6.110   2.257   6.778 -0.5007  1.0129 -0.2241
 1420ntf    on5 9147   6.289   2.419   6.728  0.1386  0.0943 -1.0426
 1420ntf    fn4 9148   6.412   2.184   6.845  0.0832  0.2570  0.0048
 1420ntf    fn4 9149   6.298   2.042   6.740  0.2022  0.3877  0.2027
 1420ntf    fn4 9150   6.433   2.156   6.627  0.0467 -0.0891 -0.3698
 1421ntf    cn1 9151   5.080   1.406   5.966  0.1480  0.1163  0.3605
 1421ntf    sn2 9152   5.042   1.238   6.026  0.1832 -0.1748 -0.4189
 1421ntf    nn3 9153   5.088   1.151   5.904  0.5935 -0.1464 -0.2869
 1421ntf    sn2 9154   5.005   1.080   5.791  0.0427 -0.1190  0.0950
 1421ntf    cn1 9155   5.072   0.913   5.815  0.2592 -0.0792 -0.2214
 1421ntf    fn4 9156   5.082   1.501   6.059 -0.1345  0.3376  0.1387
 1421ntf    fn4 9157   5.197   1.412   5.904 -0.4419  0.1884 -0.7465
 1421ntf    fn4 9158   4.997   1.450   5.874  0.4701 -0.2772 -0.1261
 1421ntf    on5 9159   5.139   1.230   6.133  0.1359 -0.1546 -0.3745
 1421ntf    on5 9160   4.900   1.238   6.054  0.3346  0.2808  0.3983
 1421ntf    on5 9161   5.059   1.113   5.661  0.0209  0.0779  0.1352
 1421ntf    on5 9162   4.864   1.053   5.798 -0.0386  0.4129  0.5839
 1421ntf    fn4 9163   5.036   0.855   5.929 -0.0857 -0.2802 -0.4316
 1421ntf    fn4 9164   5.037   0.826   5.722 -0.6845 -0.1924  0.2245
 1421ntf    fn4 9165   5.203   0.927   5.811  0.1972  0.4592 -0.3693
 1422ntf    cn1 9166   0.800   0.947   2.423 -0.0706  0.3225 -0.2761
 1422ntf    sn2 9167   0.756   1.123   2.408 -0.3466  0.2736 -0.0402
 1422ntf    nn3 9168   0.716   1.160   2.555 -0.1367 -0.0355  0.0965
 1422ntf    sn2 9169   0.805   1.215   2.672  0.0200  0.1255 -0.0971
 1422ntf    cn1 9170   0.754   1.389   2.657 -0.2002  0.0780  0.0817
 1422ntf    fn4 9171   0.896   0.930   2.512 -0.3215  0.0116 -0.0641
 1422ntf    fn4 9172   0.698   0.878   2.471 -0.2597  0.0855 -1.0043
 1422ntf    fn4 9173   0.837   0.880   2.315  0.2413  0.1188 -0.0443
 1422ntf    on5 9174   0.869   1.192   2.351 -0.0452 -0.2931 -0.1355
 1422ntf    on5 9175   0.642   1.103   2.323 -0.5541 -0.2279  0.3474
 1422ntf    on5 9176   0.949   1.209   2.664  0.0048 -0.2182 -0.1036
 1422ntf    on5 9177   0.746   1.174   2.797  0.1711 -0.4480 -0.2135
 1422ntf    fn4 9178   0.798   1.449   2.547  0.4608  0.1546  0.3822
 1422ntf    fn4 9179   0.622   1.395   2.654 -0.2175 -0.0942  0.4559
 1422ntf    fn4 9180   0.797   1.461   2.759 -0.5917  0.4464 -0.0075
 1423ntf    cn1 9181   6.368   3.240   2.643  0.0238  0.4862 -0.1634
 1423ntf    sn2 9182   6.253   3.377   2.677 -0.1800  0.3578 -0.3396
 1423ntf    nn3 9183   6.335   3.450   2.789  0.0723 -0.4532  0.0095
 1423ntf    sn2 9184   6.442   3.564   2.771 -0.1131 -0.2424  0.2428
 1423ntf    cn1 9185   6.440   3.637   2.937  0.2723  0.0805  0.1077
 1423ntf    fn4 9186   6.348   3.193   2.521 -0.5568  0.0931  0.0792
 1423ntf    fn4 9187   6.496   3.273   2.648  0.0481  0.3582  0.0949
 1423ntf    fn4 9188   6.356   3.130   2.715 -0.1315  0.4109 -0.3066
 1423ntf    on5 9189   6.238   3.439   2.547  0.5742  0.1445 -0.5351
 1423ntf    on5 9190   6.136   3.312   2.731  0.5308 -0.5169  0.1749
 1423ntf    on5 9191   6.404   3.678   2.690  0.5098  0.1731  0.5352
 1423ntf    on5 9192   6.573   3.505   2.761 -0.0281 -0.0746  0.3576
 1423ntf    fn4 9193   6.340   3.719   2.964  0.3043  0.2439 -0.2767
 1423ntf    fn4 9194   6.440   3.548   3.035  0.4338  0.0295  0.0610
 1423ntf    fn4 9195   6.548   3.705   2.970 -0.0937  0.4718  0.5135
 1424ntf    cn1 9196   5.774   2.501   2.099 -0.4361  0.1095  0.2246
 1424ntf    sn2 9197   5.818   2.635   2.214  0.3046  0.0974 -0.0346
 1424ntf    nn3 9198   5.958   2.674   2.154  0.5956  0.0153  0.5827
 1424ntf    sn2 9199   6.016   2.813   2.113 -0.4211  0.2219 -0.2046
 1424ntf    cn1 9200   6.158   2.823   2.226 -0.2767 -0.0382 -0.3612
 1424ntf    fn4 9201   5.747   2.547   1.978  0.4100 -0.5143 -0.2156
 1424ntf    fn4 9202   5.871   2.413   2.083 -0.4663  0.0850  0.1761
 1424ntf    fn4 9203   5.666   2.440   2.144 -0.3612 -0.1815  0.0143
 1424ntf    on5 9204   5.716   2.735   2.192  0.2026 -0.1208 -0.5617
 1424ntf    on5 9205   5.831   2.576   2.345 -0.6353  0.1184  0.0748
 1424ntf    on5 9206   5.941   2.933   2.141 -0.5761  0.2138 -0.5717
 1424ntf    on5 9207   6.077   2.818   1.982  0.5921  0.1634  0.2579
 1424ntf    fn4 9208   6.263   2.744   2.216 -0.0341  0.2789 -0.3312
 1424ntf    fn4 9209   6.201   2.948   2.223 -0.5234  0.0631  0.1498
 1424ntf    fn4 9210   6.118   2.798   2.350 -0.4081  0.0233 -0.3912
 1425ntf    cn1 9211   3.718   5.292   3.826  0.5157 -0.2601 -0.0587
 1425ntf    sn2 9212   3.685   5.284   4.005 -0.0263 -0.0969 -0.1484
 1425ntf    nn3 9213   3.530   5.263   4.012 -0.1071  0.3717 -0.4558
 1425ntf    sn2 9214   3.431   5.285   4.132  0.2039 -0.2204 -0.0849
 1425ntf    cn1 9215   3.418   5.109   4.179 -0.2155 -0.2487 -0.3034
 1425ntf    fn4 9216   3.839   5.330   3.790  0.3307  0.2372 -0.1573
 1425ntf    fn4 9217   3.705   5.171   3.775 -0.2547 -0.3392  0.3158
 1425ntf    fn4 9218   3.636   5.378   3.768 -0.1129 -0.7244  0.1296
 1425ntf    on5 9219   3.761   5.171   4.053 -0.4357 -0.3172 -0.0136
 1425ntf    on5 9220   3.728   5.414   4.051  0.3726 -0.0800 -0.5629
 1425ntf    on5 9221   3.294   5.317   4.099  0.1449  0.0058  0.3694
 1425ntf    on5 9222   3.493   5.345   4.247 -0.1204 -0.4033  0.1897
 1425ntf    fn4 9223   3.534   5.051   4.156  0.0152 -0.2127  0.7268
 1425ntf    fn4 9224   3.397   5.088   4.308 -0.4551  0.2071 -0.2660
 1425ntf    fn4 9225   3.328   5.041   4.109  0.1683 -0.4891 -0.5635
 1426ntf    cn1 9226   0.866   5.325   2.170  0.3772 -0.3893 -0.0793
 1426ntf    sn2 9227   1.025   5.407   2.141  0.3088 -0.1310  0.2778
 1426ntf    nn3 9228   1.125   5.308   2.211 -0.3643 -0.4655  0.7787
 1426ntf    sn2 9229   1.216   5.195   2.151  0.1444  0.2997  0.0921
 1426ntf    cn1 9230   1.363   5.208   2.257  0.0825  0.0602  0.2056
 1426ntf    fn4 9231   0.869   5.198   2.132  0.4645 -0.4598  0.1632
 1426ntf    fn4 9232   0.826   5.339   2.295 -0.0149 -0.3475 -0.2052
 1426ntf    fn4 9233   0.767   5.369   2.094 -0.0558  0.4479  0.9505
 1426ntf    on5 9234   1.042   5.410   1.998  0.9140  0.9024  0.3563
 1426ntf    on5 9235   1.016   5.537   2.203 -0.3077 -0.1961  0.3227
 1426ntf    on5 9236   1.276   5.227   2.024 -0.0703 -0.2631 -0.1531
 1426ntf    on5 9237   1.169   5.061   2.172  0.4056  0.0751 -0.7374
 1426ntf    fn4 9238   1.441   5.101   2.262 -0.0588 -0.0635 -0.2119
 1426ntf    fn4 9239   1.446   5.307   2.228 -0.5768  0.4689 -0.2964
 1426ntf    fn4 9240   1.331   5.229   2.384  0.4378 -0.3915  0.3754
 1427ntf    cn1 9241   1.824   3.211   6.058 -0.1218 -0.4841  0.2722
 1427ntf    sn2 9242   1.678   3.291   6.129 -0.0809 -0.2743  0.1211
 1427ntf    nn3 9243   1.729   3.341   6.269 -0.2625  0.2579  0.0010
 1427ntf    sn2 9244   1.864   3.416   6.301  0.1074 -0.1804 -0.5230
 1427ntf    cn1 9245   1.803   3.587   6.308 -0.0198 -0.2522  0.1978
 1427ntf    fn4 9246   1.896   3.290   5.980 -0.0219 -0.4874  0.3611
 1427ntf    fn4 9247   1.911   3.148   6.136  0.4355  0.0399  0.0866
 1427ntf    fn4 9248   1.788   3.125   5.963  0.2715  0.0399 -0.3611
 1427ntf    on5 9249   1.630   3.398   6.046 -0.5613 -0.2615  0.4115
 1427ntf    on5 9250   1.578   3.191   6.155  0.1907 -0.4266  0.6079
 1427ntf    on5 9251   1.968   3.411   6.201  0.4623 -0.3937 -0.1476
 1427ntf    on5 9252   1.913   3.407   6.436  0.0651  0.5887 -0.4558
 1427ntf    fn4 9253   1.696   3.602   6.384  0.2108  0.3999  0.3986
 1427ntf    fn4 9254   1.891   3.671   6.361  0.2608 -0.2952 -0.1941
 1427ntf    fn4 9255   1.770   3.631   6.188 -0.3258 -0.4891  0.1951
 1428ntf    cn1 9256   5.000   3.014   0.050  0.0984 -0.3001  0.4503
 1428ntf    sn2 9257   5.068   2.909  -0.082  0.0305  0.1148  0.0840
 1428ntf    nn3 9258   5.218   2.889  -0.038  0.1614  1.0071  0.0727
 1428ntf    sn2 9259   5.322   2.802  -0.118 -0.4378  0.0022  0.3556
 1428ntf    cn1 9260   5.457   2.924  -0.128 -0.5335  0.0985  0.2206
 1428ntf    fn4 9261   5.029   2.974   0.173 -0.2709  0.0694  0.6597
 1428ntf    fn4 9262   5.047   3.137   0.047 -0.6085 -0.0232  0.5688
 1428ntf    fn4 9263   4.868   3.022   0.045  0.1146 -0.1669  0.2205
 1428ntf    on5 9264   4.992   2.788  -0.068 -0.0197  0.1591  0.1904
 1428ntf    on5 9265   5.048   2.986  -0.202 -0.5371  0.2640  0.2742
 1428ntf    on5 9266   5.284   2.788  -0.256 -0.0526  0.2745  0.2181
 1428ntf    on5 9267   5.377   2.689  -0.048 -0.0711  0.2439  0.4639
 1428ntf    fn4 9268   5.526   2.931  -0.015 -0.0008  0.3761 -0.1203
 1428ntf    fn4 9269   5.543   2.889  -0.222  0.1012  0.8686  0.5003
 1428ntf    fn4 9270   5.418   3.047  -0.157  0.1614  0.3272  0.2260
 1429ntf    cn1 9271   0.381   4.398   5.507 -0.0850 -0.2090 -0.0431
 1429ntf    sn2 9272   0.235   4.289   5.518 -0.1221 -0.1293  0.2629
 1429ntf    nn3 9273   0.161   4.371   5.629 -0.0575 -0.0747  0.2662
 1429ntf    sn2 9274   0.065   4.493   5.604  0.2480  0.1222  0.0468
 1429ntf    cn1 9275  -0.084   4.421   5.681  0.2428  0.1699  0.0816
 1429ntf    fn4 9276   0.426   4.424   5.629  0.0987 -0.3181 -0.0874
 1429ntf    fn4 9277   0.480   4.344   5.438  0.0290 -0.5420  0.3772
 1429ntf    fn4 9278   0.347   4.511   5.447  0.5498  0.0022 -0.0058
 1429ntf    on5 9279   0.169   4.279   5.391 -0.1662 -0.2316  0.2945
 1429ntf    on5 9280   0.302   4.171   5.568 -0.6762 -0.3231  0.5571
 1429ntf    on5 9281   0.019   4.513   5.469  0.3765  0.2357  0.0207
 1429ntf    on5 9282   0.096   4.607   5.686 -0.5535  0.0256  0.4995
 1429ntf    fn4 9283  -0.121   4.305   5.628 -0.4640  0.2215  0.4523
 1429ntf    fn4 9284  -0.066   4.407   5.811  0.2134 -0.0558  0.0618
 1429ntf    fn4 9285  -0.183   4.508   5.670  0.5473  0.4405 -0.5909
 1430ntf    cn1 9286   1.611   3.925   0.762 -0.1365  0.1553  0.4228
 1430ntf    sn2 9287   1.763   3.985   0.683  0.0240 -0.6010  0.1491
 1430ntf    nn3 9288   1.845   4.002   0.815  0.1689  0.0572 -0.0214
 1430ntf    sn2 9289   1.996   4.044   0.831  0.1175  0.2870 -0.1392
 1430ntf    cn1 9290   2.051   3.897   0.922 -0.2584  0.0573 -0.2799
 1430ntf    fn4 9291   1.631   3.827   0.849  0.6399 -0.3537 -0.3179
 1430ntf    fn4 9292   1.549   4.025   0.822  0.1603  0.3930  0.3366
 1430ntf    fn4 9293   1.527   3.870   0.675 -0.0585  0.3186  0.2441
 1430ntf    on5 9294   1.804   3.863   0.618 -0.1743 -0.7453  0.2958
 1430ntf    on5 9295   1.726   4.105   0.612 -0.4774 -0.6099  0.3901
 1430ntf    on5 9296   2.014   4.154   0.922 -0.4894 -0.0180  0.3654
 1430ntf    on5 9297   2.085   4.044   0.718 -0.1193 -0.1460 -0.3269
 1430ntf    fn4 9298   1.982   3.883   1.034 -0.0153 -0.2473 -0.1668
 1430ntf    fn4 9299   2.030   3.787   0.852  0.2832 -0.5570  0.5072
 1430ntf    fn4 9300   2.179   3.900   0.953 -0.2229  0.3245 -0.4535
 1431ntf    cn1 9301   3.448   1.118   0.671 -0.7828 -0.0604  0.0130
 1431ntf    sn2 9302   3.490   0.951   0.611  0.1826  0.2061 -0.0756
 1431ntf    nn3 9303   3.365   0.873   0.665  0.4507 -0.0620  0.1597
 1431ntf    sn2 9304   3.342   0.793   0.798 -0.2887  0.1747  0.1785
 1431ntf    cn1 9305   3.223   0.900   0.884  0.0059 -0.0131  0.8306
 1431ntf    fn4 9306   3.436   1.127   0.803  0.1367 -0.7717  0.1576
 1431ntf    fn4 9307   3.524   1.218   0.630 -0.4508 -0.2538  0.1497
 1431ntf    fn4 9308   3.331   1.155   0.623 -0.5915  0.6427  0.0770
 1431ntf    on5 9309   3.481   0.967   0.468 -0.6515  0.0965 -0.0395
 1431ntf    on5 9310   3.619   0.928   0.671  0.0540  0.4139  0.2873
 1431ntf    on5 9311   3.456   0.786   0.886  0.5059  0.0807 -0.8372
 1431ntf    on5 9312   3.276   0.665   0.789  0.5039 -0.2140 -0.1849
 1431ntf    fn4 9313   3.185   0.847   0.999  0.2842 -0.9592  0.5035
 1431ntf    fn4 9314   3.271   1.020   0.909  0.2127  0.1031 -0.0692
 1431ntf    fn4 9315   3.111   0.913   0.814  0.1865 -0.7542  0.3843
 1432ntf    cn1 9316   3.422   2.411   3.538  0.2553 -0.2046  0.1035
 1432ntf    sn2 9317   3.399   2.501   3.695  0.0114  0.0136 -0.0571
 1432ntf    nn3 9318   3.259   2.567   3.667 -0.1089 -0.1416  0.1764
 1432ntf    sn2 9319   3.242   2.709   3.601  0.0297 -0.0489  0.3372
 1432ntf    cn1 9320   3.224   2.819   3.745  0.2357 -0.0361  0.3535
 1432ntf    fn4 9321   3.332   2.317   3.513  0.1316  0.0526 -0.4268
 1432ntf    fn4 9322   3.429   2.488   3.431 -0.6646  0.2741  0.3729
 1432ntf    fn4 9323   3.538   2.347   3.533  0.4411  0.1461 -0.0842
 1432ntf    on5 9324   3.394   2.393   3.790  0.0974  0.3471  0.3288
 1432ntf    on5 9325   3.520   2.578   3.711  0.1005 -0.1435  0.0262
 1432ntf    on5 9326   3.111   2.716   3.541  0.0814 -0.1961  0.2066
 1432ntf    on5 9327   3.352   2.770   3.532 -0.3133  0.2225  0.0258
 1432ntf    fn4 9328   3.114   2.803   3.816 -0.1661  0.6778 -0.0992
 1432ntf    fn4 9329   3.325   2.794   3.827  0.0141 -0.3276  0.5402
 1432ntf    fn4 9330   3.233   2.946   3.711 -0.4052 -0.1925 -0.4334
 1433ntf    cn1 9331   3.295   1.029   1.643 -0.2739  0.2149 -0.3725
 1433ntf    sn2 9332   3.418   1.130   1.732  0.1281 -0.4286 -0.1879
 1433ntf    nn3 9333   3.496   1.016   1.807  0.0669 -0.4325 -0.1305
 1433ntf    sn2 9334   3.614   1.016   1.910 -0.0878  0.3907  0.0517
 1433ntf    cn1 9335   3.757   0.953   1.818 -0.4016 -0.0529 -0.1333
 1433ntf    fn4 9336   3.217   0.967   1.730  0.3424  0.0416  0.0682
 1433ntf    fn4 9337   3.204   1.085   1.566 -0.6860  0.2077  0.1041
 1433ntf    fn4 9338   3.359   0.935   1.575 -0.3857 -0.3128  0.2384
 1433ntf    on5 9339   3.484   1.197   1.622 -0.3096 -0.2355 -0.3346
 1433ntf    on5 9340   3.338   1.214   1.818 -0.0668 -0.3150 -0.4750
 1433ntf    on5 9341   3.597   0.914   2.010 -0.7720 -0.2512 -0.6987
 1433ntf    on5 9342   3.662   1.147   1.948  0.0625  0.2706  0.2798
 1433ntf    fn4 9343   3.808   1.029   1.722  0.1866  0.1610  0.3416
 1433ntf    fn4 9344   3.855   0.937   1.906 -0.8581  0.3512  0.4547
 1433ntf    fn4 9345   3.733   0.832   1.770 -0.1985 -0.3427  0.4808
 1434ntf    cn1 9346   1.805   0.204   6.340 -0.0849  0.1019  0.3985
 1434ntf    sn2 9347   1.644   0.121   6.337  0.0457 -0.1406 -0.0420
 1434ntf    nn3 9348   1.556   0.251   6.335  0.3450  0.0647  0.1029
 1434ntf    sn2 9349   1.458   0.311   6.442  0.4433  0.2121  0.1109
 1434ntf    cn1 9350   1.572   0.398   6.553  0.2537  0.2338  0.2906
 1434ntf    fn4 9351   1.814   0.291   6.440  0.5247  0.1566  0.3013
 1434ntf    fn4 9352   1.905   0.117   6.340 -0.3304 -0.1938 -0.7231
 1434ntf    fn4 9353   1.824   0.280   6.232 -0.1762 -0.4197  0.0129
 1434ntf    on5 9354   1.631   0.045   6.215  0.1742 -0.5352  0.1874
 1434ntf    on5 9355   1.642   0.046   6.460  0.2714  0.0953  0.1065
 1434ntf    on5 9356   1.390   0.220   6.531 -0.5449  0.7012 -0.1263
 1434ntf    on5 9357   1.386   0.419   6.379 -0.1540 -0.1163  0.2231
 1434ntf    fn4 9358   1.505   0.460   6.648 -0.7693 -0.5150  0.0663
 1434ntf    fn4 9359   1.654   0.315   6.615 -0.1355 -0.0302  0.4525
 1434ntf    fn4 9360   1.638   0.489   6.482 -0.4144 -0.3403 -1.1086
 1435ntf    cn1 9361   1.617   5.380   6.712 -0.1761  0.1073  0.0471
 1435ntf    sn2 9362   1.593   5.461   6.872  0.0732  0.0527  0.1120
 1435ntf    nn3 9363   1.632   5.346   6.971 -0.3506 -0.3337 -0.1687
 1435ntf    sn2 9364   1.665   5.370   7.123 -0.0121  0.4219 -0.3592
 1435ntf    cn1 9365   1.846   5.355   7.133 -0.0672 -0.1689 -0.2436
 1435ntf    fn4 9366   1.590   5.454   6.606  0.1273  0.0431 -0.0773
 1435ntf    fn4 9367   1.747   5.358   6.702 -0.1615  0.0799  0.3003
 1435ntf    fn4 9368   1.547   5.269   6.696  0.2597 -0.2667  0.7102
 1435ntf    on5 9369   1.689   5.569   6.877  0.5422 -0.3693  0.3258
 1435ntf    on5 9370   1.452   5.493   6.870 -0.0369 -0.4611 -0.4366
 1435ntf    on5 9371   1.611   5.263   7.202  0.5644  0.2259 -0.2231
 1435ntf    on5 9372   1.639   5.504   7.171  0.2930  0.2098  0.4179
 1435ntf    fn4 9373   1.895   5.393   7.250  0.0819 -0.3787 -0.2374
 1435ntf    fn4 9374   1.874   5.226   7.122 -0.1376 -0.2502  0.4836
 1435ntf    fn4 9375   1.912   5.426   7.043 -0.2686  0.2332 -0.0761
 1436ntf    cn1 9376   6.525   0.023   2.236  0.0582 -0.5838  0.0159
 1436ntf    sn2 9377   6.594   0.046   2.070  0.0106 -0.2530  0.0414
 1436ntf    nn3 9378   6.477   0.130   2.007  0.1094 -0.3983 -0.3428
 1436ntf    sn2 9379   6.354   0.104   1.913  0.0617  0.4134 -0.5131
 1436ntf    cn1 9380   6.421   0.153   1.751 -0.0619  0.0204 -0.6832
 1436ntf    fn4 9381   6.612  -0.045   2.309  0.5113 -0.3094 -0.2638
 1436ntf    fn4 9382   6.518   0.137   2.304 -0.2755 -0.3994 -0.3274
 1436ntf    fn4 9383   6.408  -0.039   2.237 -0.1683 -0.1577 -0.0188
 1436ntf    on5 9384   6.721   0.112   2.085 -0.1296  0.2391 -0.8556
 1436ntf    on5 9385   6.600  -0.089   2.022  0.2869 -0.2139 -0.0372
 1436ntf    on5 9386   6.248   0.198   1.937 -0.0307  0.1788  0.0082
 1436ntf    on5 9387   6.309  -0.032   1.903 -0.0479  0.4007  0.1186
 1436ntf    fn4 9388   6.328   0.143   1.657 -0.2318  0.1273 -0.5262
 1436ntf    fn4 9389   6.460   0.279   1.763 -0.3071  0.0633 -0.3200
 1436ntf    fn4 9390   6.526   0.084   1.711  0.0064 -0.2482 -0.0454
 1437ntf    cn1 9391   1.192   1.616   5.941  0.2340  0.4728  0.0221
 1437ntf    sn2 9392   1.103   1.757   5.868 -0.0975  0.2539 -0.0027
 1437ntf    nn3 9393   1.057   1.829   6.000  0.3227 -0.6220  0.6284
 1437ntf    sn2 9394   0.935   1.805   6.097 -0.2833 -0.1234 -0.0022
 1437ntf    cn1 9395   0.836   1.948   6.045 -0.0496  0.1572  0.3239
 1437ntf    fn4 9396   1.229   1.536   5.843 -0.1624 -0.2405  0.4410
 1437ntf    fn4 9397   1.302   1.645   6.007  0.5996 -0.4900 -0.1577
 1437ntf    fn4 9398   1.125   1.542   6.028  0.5776 -0.1799 -0.2683
 1437ntf    on5 9399   1.208   1.831   5.802 -0.1493 -0.0252 -0.3953
 1437ntf    on5 9400   1.000   1.694   5.790 -0.3054  0.4628  0.1012
 1437ntf    on5 9401   0.977   1.842   6.230  0.0104  0.1394 -0.1664
 1437ntf    on5 9402   0.847   1.691   6.083 -0.3951 -0.0407  0.0303
 1437ntf    fn4 9403   0.828   1.952   5.913  0.2152 -0.2224  0.2941
 1437ntf    fn4 9404   0.713   1.935   6.091 -0.4245  0.1639 -0.6454
 1437ntf    fn4 9405   0.889   2.063   6.084  0.9940 -0.2215  0.0538
 1438ntf    cn1 9406   5.453   3.598   0.061  0.2124 -0.3661 -0.2629
 1438ntf    sn2 9407   5.347   3.660   0.195  0.0599 -0.5489 -0.2999
 1438ntf    nn3 9408   5.457   3.727   0.284  0.0446 -0.4452 -0.3589
 1438ntf    sn2 9409   5.544   3.664   0.399 -0.1212 -0.1556 -0.0715
 1438ntf    cn1 9410   5.438   3.697   0.543 -0.0677  0.1522 -0.1016
 1438ntf    fn4 9411   5.392   3.561  -0.050 -0.0082  0.3375 -0.3838
 1438ntf    fn4 9412   5.530   3.696   0.015  0.2636 -0.2064  0.1556
 1438ntf    fn4 9413   5.532   3.502   0.105  0.7795  0.2954  0.1881
 1438ntf    on5 9414   5.248   3.743   0.131 -0.3111 -0.6049  0.1971
 1438ntf    on5 9415   5.293   3.538   0.251 -0.1412  0.0514  0.8345
 1438ntf    on5 9416   5.662   3.741   0.426 -0.0538 -0.3112  0.0774
 1438ntf    on5 9417   5.554   3.520   0.404  0.1595 -0.1217  0.3774
 1438ntf    fn4 9418   5.478   3.631   0.650 -0.5329  0.4237  0.2457
 1438ntf    fn4 9419   5.432   3.827   0.567 -0.7641  0.0783  0.1514
 1438ntf    fn4 9420   5.315   3.654   0.521 -0.1502  0.4280 -0.1779
 1439ntf    cn1 9421   0.314   1.604   0.840 -0.1774  0.0941  0.3636
 1439ntf    sn2 9422   0.178   1.523   0.750  0.0213  0.2260 -0.0556
 1439ntf    nn3 9423   0.142   1.628   0.639 -0.5199 -0.2174 -0.3048
 1439ntf    sn2 9424   0.071   1.766   0.663  0.2616  0.1797 -0.2230
 1439ntf    cn1 9425   0.200   1.893   0.654  0.3415  0.1231  0.1474
 1439ntf    fn4 9426   0.375   1.522   0.924 -0.1329  0.0796  0.3166
 1439ntf    fn4 9427   0.406   1.644   0.754 -0.2533  0.5557  0.4923
 1439ntf    fn4 9428   0.277   1.712   0.907 -0.3352  0.3147 -0.0727
 1439ntf    on5 9429   0.242   1.404   0.699 -0.2971 -0.0114  0.0924
 1439ntf    on5 9430   0.077   1.501   0.850  0.6473  0.0469  0.5434
 1439ntf    on5 9431   0.018   1.788   0.795  0.5787  0.3561 -0.1254
 1439ntf    on5 9432  -0.013   1.804   0.551  0.3639  0.0049 -0.3599
 1439ntf    fn4 9433   0.287   1.875   0.753  0.5030 -0.5402 -0.1134
 1439ntf    fn4 9434   0.264   1.900   0.538 -0.2189  0.0046 -0.1682
 1439ntf    fn4 9435   0.148   2.014   0.670 -0.1786 -0.0858  0.0270
 1440ntf    cn1 9436   2.827   5.146   1.683 -0.2611 -0.1019 -0.0372
 1440ntf    sn2 9437   2.861   4.979   1.620 -0.0120 -0.1253  0.1565
 1440ntf    nn3 9438   3.008   5.001   1.570 -0.0566 -0.2729 -0.0437
 1440ntf    sn2 9439   3.054   5.049   1.428 -0.4334 -0.3150 -0.1798
 1440ntf    cn1 9440   3.106   4.894   1.348 -0.2697 -0.4235  0.1372
 1440ntf    fn4 9441   2.918   5.189   1.769  0.0815 -0.1096 -0.3916
 1440ntf    fn4 9442   2.826   5.236   1.587 -0.0848  0.2286  0.2671
 1440ntf    fn4 9443   2.711   5.138   1.746 -0.2113 -0.0120  0.0664
 1440ntf    on5 9444   2.857   4.896   1.738 -0.1842  0.6308  0.6879
 1440ntf    on5 9445   2.758   4.949   1.523  0.1999  0.0755 -0.1290
 1440ntf    on5 9446   3.178   5.121   1.426 -0.2900 -0.5505  0.1420
 1440ntf    on5 9447   2.944   5.098   1.348 -0.7726 -0.7087  0.0374
 1440ntf    fn4 9448   3.205   4.832   1.410 -0.0872 -0.2919 -0.0230
 1440ntf    fn4 9449   3.002   4.815   1.328 -0.0621 -0.7683  0.3989
 1440ntf    fn4 9450   3.154   4.917   1.227  0.5702 -0.4105  0.4703
 1441ntf    cn1 9451   5.750   5.094   6.570 -0.3692 -0.0468 -0.4027
 1441ntf    sn2 9452   5.624   5.130   6.444 -0.3560  0.5537 -0.2493
 1441ntf    nn3 9453   5.695   5.240   6.356 -0.2529  0.1748 -0.6463
 1441ntf    sn2 9454   5.687   5.394   6.385 -0.3682  0.0486  0.0243
 1441ntf    cn1 9455   5.850   5.448   6.325 -0.4466  0.4217  0.1494
 1441ntf    fn4 9456   5.787   5.199   6.643 -0.8927 -0.1753  0.0528
 1441ntf    fn4 9457   5.711   4.997   6.650  0.0840 -0.0371 -0.1641
 1441ntf    fn4 9458   5.860   5.042   6.518 -0.0114  0.6566 -0.3727
 1441ntf    on5 9459   5.599   5.008   6.372 -0.0272  0.0562  0.4658
 1441ntf    on5 9460   5.513   5.173   6.524 -0.1337  0.6821 -0.0064
 1441ntf    on5 9461   5.691   5.441   6.521  0.6727  0.7034 -0.2238
 1441ntf    on5 9462   5.585   5.455   6.303 -0.1599  0.4620  0.0670
 1441ntf    fn4 9463   5.851   5.579   6.306  0.1599  0.3512 -0.3490
 1441ntf    fn4 9464   5.949   5.419   6.408 -0.5393  0.4048  0.2554
 1441ntf    fn4 9465   5.878   5.391   6.209  0.1067  0.1783  0.4042
 1442ntf    cn1 9466   0.043   6.127   4.107 -0.2618 -0.1122 -0.0582
 1442ntf    sn2 9467   0.171   6.200   4.213 -0.3046 -0.1081 -0.0103
 1442ntf    nn3 9468   0.276   6.243   4.105 -0.6141 -0.9474 -0.6524
 1442ntf    sn2 9469   0.423   6.194   4.085 -0.2548 -0.0701 -0.2245
 1442ntf    cn1 9470   0.512   6.346   4.128 -0.0297 -0.2498 -0.0521
 1442ntf    fn4 9471   0.096   6.039   4.024  0.1814 -0.2475  0.3665
 1442ntf    fn4 9472  -0.053   6.066   4.176  0.1234  0.0061  0.5832
 1442ntf    fn4 9473  -0.021   6.216   4.032 -0.2092 -0.0650 -0.0476
 1442ntf    on5 9474   0.097   6.305   4.279 -0.1378 -0.1938  0.3155
 1442ntf    on5 9475   0.204   6.096   4.307 -0.2616  0.2273  0.3502
 1442ntf    on5 9476   0.446   6.170   3.944 -0.2799  0.6286 -0.3511
 1442ntf    on5 9477   0.485   6.104   4.180  0.2091  0.6046  0.1180
 1442ntf    fn4 9478   0.465   6.444   4.053 -0.1025 -0.4126 -0.2188
 1442ntf    fn4 9479   0.496   6.386   4.254 -0.2379  0.5716 -0.3307
 1442ntf    fn4 9480   0.643   6.338   4.109  0.0001 -0.2572  0.1486
 1443ntf    cn1 9481   5.274   2.671   3.584 -0.1883 -0.0654 -0.3392
 1443ntf    sn2 9482   5.412   2.652   3.700 -0.1687 -0.1889 -0.3830
 1443ntf    nn3 9483   5.509   2.565   3.612  0.0288 -0.2305 -0.1268
 1443ntf    sn2 9484   5.635   2.597   3.524  0.0277 -0.2656 -0.1407
 1443ntf    cn1 9485   5.779   2.580   3.634 -0.1162 -0.2744  0.0459
 1443ntf    fn4 9486   5.308   2.686   3.457 -0.1327  0.3810 -0.2764
 1443ntf    fn4 9487   5.187   2.573   3.599 -0.0582 -0.1095  0.1405
 1443ntf    fn4 9488   5.210   2.782   3.620  0.4528  0.2566 -0.1745
 1443ntf    on5 9489   5.454   2.786   3.730 -1.1266  0.0295  0.0096
 1443ntf    on5 9490   5.351   2.580   3.809 -0.4571  0.1343 -0.3299
 1443ntf    on5 9491   5.639   2.731   3.471 -0.3665 -0.2581 -0.1553
 1443ntf    on5 9492   5.656   2.490   3.428  0.6157 -0.1995 -0.0886
 1443ntf    fn4 9493   5.758   2.654   3.742 -0.2684  0.7242 -0.6548
 1443ntf    fn4 9494   5.792   2.457   3.682  0.3332 -0.2797 -0.0883
 1443ntf    fn4 9495   5.890   2.626   3.579 -0.0860 -0.5049 -0.0898
 1444ntf    cn1 9496   6.072   3.716   3.305 -0.0653  0.0316 -0.0440
 1444ntf    sn2 9497   6.070   3.691   3.485  0.0119 -0.0149 -0.0501
 1444ntf    nn3 9498   5.914   3.694   3.501  0.0008  0.1569 -0.2009
 1444ntf    sn2 9499   5.813   3.577   3.525  0.0169  0.1181 -0.3175
 1444ntf    cn1 9500   5.826   3.573   3.707 -0.0497  0.1491 -0.3115
 1444ntf    fn4 9501   6.196   3.717   3.259 -0.1110  0.0892 -0.1685
 1444ntf    fn4 9502   6.012   3.613   3.246 -0.1110 -0.0090  0.0734
 1444ntf    fn4 9503   6.011   3.824   3.258 -0.1165 -0.1355 -0.3640
 1444ntf    on5 9504   6.147   3.569   3.491  0.3980  0.2415  0.2807
 1444ntf    on5 9505   6.130   3.814   3.529  0.1927 -0.0455 -0.2086
 1444ntf    on5 9506   5.852   3.446   3.477 -0.0480  0.1569 -0.4762
 1444ntf    on5 9507   5.676   3.618   3.503 -0.2209 -0.1463  0.6201
 1444ntf    fn4 9508   5.758   3.670   3.765  0.1553  0.1192 -0.0204
 1444ntf    fn4 9509   5.776   3.457   3.746  0.5378  0.0531  0.1679
 1444ntf    fn4 9510   5.946   3.584   3.761 -0.3444 -0.6620  0.5314
 1445ntf    cn1 9511   0.448   3.052   3.121  0.1162  0.0334 -0.2869
 1445ntf    sn2 9512   0.335   3.048   3.263  0.4541 -0.4562 -0.0280
 1445ntf    nn3 9513   0.198   3.071   3.189  0.1276  0.2879  0.7943
 1445ntf    sn2 9514   0.066   2.987   3.197  0.0848  0.3286  0.4966
 1445ntf    cn1 9515   0.130   2.827   3.141 -0.2406  0.3377  0.0939
 1445ntf    fn4 9516   0.436   3.171   3.065  0.4049 -0.0248 -0.4738
 1445ntf    fn4 9517   0.575   3.037   3.157  0.0049  0.0105  0.1001
 1445ntf    fn4 9518   0.423   2.960   3.029  0.5759 -0.0439 -0.3376
 1445ntf    on5 9519   0.349   2.923   3.334  0.7223 -0.2622  0.2620
 1445ntf    on5 9520   0.381   3.161   3.340  0.1435 -0.2743 -0.1061
 1445ntf    on5 9521  -0.023   3.039   3.095  0.3943  0.1322  0.1269
 1445ntf    on5 9522   0.007   2.962   3.326  0.0743  0.2136  0.4693
 1445ntf    fn4 9523   0.037   2.768   3.067 -0.6264  1.1769 -0.1070
 1445ntf    fn4 9524   0.232   2.820   3.056  0.1297  0.9740  0.4844
 1445ntf    fn4 9525   0.157   2.750   3.244  0.1811  0.2710 -0.0650
 1446ntf    cn1 9526   3.851   1.717   0.714  0.2868 -0.1246 -0.2100
 1446ntf    sn2 9527   3.744   1.860   0.748  0.3309 -0.1596  0.0796
 1446ntf    nn3 9528   3.600   1.798   0.742  0.5530 -0.6648 -0.0439
 1446ntf    sn2 9529   3.525   1.744   0.869 -0.0260  0.3668  0.0636
 1446ntf    cn1 9530   3.371   1.694   0.788  0.1940 -0.5459  0.1958
 1446ntf    fn4 9531   3.822   1.619   0.798  0.2165  0.0956  0.0231
 1446ntf    fn4 9532   3.836   1.658   0.596 -0.0114  0.0932 -0.2842
 1446ntf    fn4 9533   3.978   1.752   0.725  0.1474  0.0520  0.9195
 1446ntf    on5 9534   3.788   1.918   0.872 -0.3176  0.0893  0.2010
 1446ntf    on5 9535   3.763   1.952   0.638 -0.1380  0.1266  0.2330
 1446ntf    on5 9536   3.492   1.848   0.964 -0.2767 -0.0524  0.4387
 1446ntf    on5 9537   3.569   1.620   0.927 -0.1671  0.2671 -0.0445
 1446ntf    fn4 9538   3.390   1.619   0.681  0.4018 -0.3740  0.1113
 1446ntf    fn4 9539   3.299   1.622   0.873  0.0229 -0.2636  0.2929
 1446ntf    fn4 9540   3.298   1.802   0.763 -0.0738 -0.7983 -0.1313
 1447ntf    cn1 9541   6.084   4.279   2.346  0.7440  0.2707 -0.0797
 1447ntf    sn2 9542   6.236   4.184   2.381  0.5977  0.0596 -0.0202
 1447ntf    nn3 9543   6.305   4.172   2.240  0.0795 -0.5157 -0.2340
 1447ntf    sn2 9544   6.417   4.262   2.177 -0.0749  0.0457  0.2833
 1447ntf    cn1 9545   6.381   4.246   2.000 -0.0825 -0.7591  0.3549
 1447ntf    fn4 9546   6.014   4.304   2.456  0.9578  0.5851 -0.0128
 1447ntf    fn4 9547   6.112   4.399   2.298 -0.0644  0.6618  0.4072
 1447ntf    fn4 9548   6.012   4.216   2.255  0.1301  0.0254  0.5656
 1447ntf    on5 9549   6.300   4.271   2.476  0.5541  0.3343 -0.2380
 1447ntf    on5 9550   6.203   4.051   2.425  0.7853  0.0750  0.1653
 1447ntf    on5 9551   6.549   4.208   2.198 -0.1940  0.0626  1.1142
 1447ntf    on5 9552   6.407   4.404   2.201 -0.2673  0.1215 -0.2250
 1447ntf    fn4 9553   6.474   4.319   1.941 -0.5909 -0.4110 -0.0250
 1447ntf    fn4 9554   6.390   4.125   1.947  0.2848 -0.6013  0.0549
 1447ntf    fn4 9555   6.260   4.290   1.967  0.1442 -0.6405 -0.3346
 1448ntf    cn1 9556   0.301   3.221   1.299  0.0665  0.2197 -0.4071
 1448ntf    sn2 9557   0.448   3.325   1.273  0.1404  0.2078 -0.0462
 1448ntf    nn3 9558   0.540   3.227   1.192  0.0615 -0.0308  0.1530
 1448ntf    sn2 9559   0.641   3.120   1.247  0.0733 -0.1149 -0.0313
 1448ntf    cn1 9560   0.768   3.230   1.317  0.0165 -0.0317 -0.0595
 1448ntf    fn4 9561   0.224   3.266   1.396 -0.1827 -0.4593 -0.2793
 1448ntf    fn4 9562   0.239   3.197   1.185  0.3216 -0.8730 -0.3279
 1448ntf    fn4 9563   0.331   3.098   1.339 -0.5318  0.1694 -0.1063
 1448ntf    on5 9564   0.398   3.423   1.179  0.6091  0.1990 -0.3054
 1448ntf    on5 9565   0.499   3.374   1.398  0.6124 -0.0830 -0.1236
 1448ntf    on5 9566   0.724   3.050   1.153  0.0784  0.5821 -0.5460
 1448ntf    on5 9567   0.585   3.048   1.359 -0.4082 -0.3764 -0.4364
 1448ntf    fn4 9568   0.882   3.167   1.339 -0.0641 -0.3742 -0.5967
 1448ntf    fn4 9569   0.795   3.333   1.238  0.0536  0.0656  0.0794
 1448ntf    fn4 9570   0.748   3.291   1.433  0.1402 -0.0273 -0.0404
 1449ntf    cn1 9571   3.069   0.207   5.233 -0.1772  0.1348  0.1014
 1449ntf    sn2 9572   3.061   0.050   5.141 -0.4949  0.0223  0.3173
 1449ntf    nn3 9573   3.037   0.097   4.993 -0.0858  0.0998  0.2740
 1449ntf    sn2 9574   2.930   0.052   4.888  0.0055 -0.0035  0.2247
 1449ntf    cn1 9575   2.785   0.154   4.930 -0.1249 -0.0168 -0.1849
 1449ntf    fn4 9576   3.092   0.192   5.362  0.1877  0.2442  0.0483
 1449ntf    fn4 9577   3.159   0.291   5.187  0.0879  0.2130  0.7512
 1449ntf    fn4 9578   2.954   0.272   5.229 -0.2018  0.0983  0.2266
 1449ntf    on5 9579   3.192  -0.011   5.142 -0.7953 -0.6966 -0.9203
 1449ntf    on5 9580   2.945  -0.013   5.198 -0.2060 -0.6524  0.1764
 1449ntf    on5 9581   2.882  -0.083   4.901 -0.4333  0.1253 -0.0168
 1449ntf    on5 9582   2.976   0.097   4.759 -0.5588  0.4489  0.1791
 1449ntf    fn4 9583   2.694   0.129   4.837  0.1576  0.4871 -0.6040
 1449ntf    fn4 9584   2.730   0.136   5.048 -0.0182  0.5238 -0.0477
 1449ntf    fn4 9585   2.822   0.281   4.931  0.1824 -0.1036 -0.3357
 1450ntf    cn1 9586   0.965   0.054   5.105  0.0138  0.1156 -0.0961
 1450ntf    sn2 9587   0.895   0.184   4.999 -0.2548 -0.0574 -0.1339
 1450ntf    nn3 9588   1.002   0.294   5.032 -0.2295 -0.0115 -0.3669
 1450ntf    sn2 9589   1.002   0.417   5.130  0.3003 -0.1380 -0.2025
 1450ntf    cn1 9590   1.178   0.424   5.175  0.2863 -0.3918 -0.1096
 1450ntf    fn4 9591   0.883  -0.048   5.122 -0.7353  0.6349 -0.5181
 1450ntf    fn4 9592   1.081   0.005   5.065 -0.0260 -0.3975  0.3982
 1450ntf    fn4 9593   0.986   0.105   5.226  0.0349 -0.0977 -0.0103
 1450ntf    on5 9594   0.907   0.140   4.862 -0.0053 -0.4010 -0.0030
 1450ntf    on5 9595   0.763   0.206   5.052 -0.3004  0.4651 -0.4559
 1450ntf    on5 9596   0.933   0.393   5.254 -0.3886  0.1909 -0.5155
 1450ntf    on5 9597   0.982   0.546   5.069  0.0157 -0.0303  0.1193
 1450ntf    fn4 9598   1.198   0.514   5.269  0.1927 -0.3117 -0.1667
 1450ntf    fn4 9599   1.223   0.308   5.220 -0.1557 -0.1819  0.9053
 1450ntf    fn4 9600   1.247   0.466   5.071 -0.0997  0.6866  0.0626
 1451ntf    cn1 9601   2.092   1.210   1.967 -0.3568  0.0083 -0.0067
 1451ntf    sn2 9602   2.151   1.116   1.823 -0.0302 -0.0171  0.1427
 1451ntf    nn3 9603   2.293   1.181   1.800  0.0276 -0.0962  0.2737
 1451ntf    sn2 9604   2.390   1.151   1.681  0.3495 -0.0850  0.5333
 1451ntf    cn1 9605   2.364   1.304   1.585  0.3936 -0.3658  0.0676
 1451ntf    fn4 9606   2.051   1.334   1.943  0.1090  0.0068 -0.8498
 1451ntf    fn4 9607   1.984   1.155   2.019 -0.1420 -0.3767  0.0292
 1451ntf    fn4 9608   2.172   1.217   2.072 -0.1388  0.3460 -0.1901
 1451ntf    on5 9609   2.149   0.984   1.880 -0.1615 -0.2243 -0.3426
 1451ntf    on5 9610   2.058   1.144   1.716 -0.2280 -0.7039  0.1345
 1451ntf    on5 9611   2.356   1.042   1.592  0.3838  0.2110  0.1531
 1451ntf    on5 9612   2.530   1.158   1.715  0.4029 -0.3457  0.3730
 1451ntf    fn4 9613   2.448   1.318   1.485 -0.1943  0.1109 -0.3661
 1451ntf    fn4 9614   2.245   1.317   1.529  0.5168  0.0224 -0.1055
 1451ntf    fn4 9615   2.382   1.409   1.663  0.2779 -0.1295 -0.2243
 1452ntf    cn1 9616   3.567   3.428   3.483 -0.1985  0.0777  0.4248
 1452ntf    sn2 9617   3.618   3.591   3.545 -0.1107  0.2276 -0.0411
 1452ntf    nn3 9618   3.521   3.685   3.464 -0.9366 -0.2938  0.3276
 1452ntf    sn2 9619   3.497   3.840   3.471 -0.1558 -0.1665  0.3337
 1452ntf    cn1 9620   3.575   3.899   3.318  0.0229  0.0069  0.4914
 1452ntf    fn4 9621   3.440   3.395   3.502  0.0237 -0.8207  0.4222
 1452ntf    fn4 9622   3.591   3.415   3.354  0.5075  0.3904  0.5173
 1452ntf    fn4 9623   3.628   3.325   3.539  0.5377 -0.0307 -0.5480
 1452ntf    on5 9624   3.603   3.582   3.688  0.4359 -0.1690 -0.0081
 1452ntf    on5 9625   3.751   3.589   3.491  0.0879  0.2645  0.4419
 1452ntf    on5 9626   3.574   3.914   3.567  0.6462 -0.6117  0.0453
 1452ntf    on5 9627   3.359   3.884   3.468 -0.0802  0.0573  0.0972
 1452ntf    fn4 9628   3.497   3.891   3.211  0.0163 -0.0852  0.5027
 1452ntf    fn4 9629   3.599   4.028   3.328 -0.3263  0.1700 -0.5910
 1452ntf    fn4 9630   3.685   3.832   3.286 -0.5020 -0.8120  0.3648
 1453ntf    cn1 9631   1.567   4.463   5.108  0.4504 -0.2578 -0.0401
 1453ntf    sn2 9632   1.566   4.410   5.282  0.2723 -0.0744  0.0165
 1453ntf    nn3 9633   1.711   4.454   5.322  0.2703  0.0268 -0.0889
 1453ntf    sn2 9634   1.773   4.595   5.354  0.3660 -0.0264 -0.0361
 1453ntf    cn1 9635   1.944   4.584   5.293  0.4288  0.1624  0.1053
 1453ntf    fn4 9636   1.583   4.594   5.092  0.6167 -0.2384  0.2651
 1453ntf    fn4 9637   1.667   4.412   5.039  0.4215 -0.2678 -0.0740
 1453ntf    fn4 9638   1.452   4.444   5.046  0.1511  0.6432  0.2251
 1453ntf    on5 9639   1.453   4.474   5.344  0.0642 -0.2718 -0.1528
 1453ntf    on5 9640   1.561   4.267   5.261  0.1910 -0.1440  0.4988
 1453ntf    on5 9641   1.792   4.621   5.494 -0.2289 -0.0465  0.0507
 1453ntf    on5 9642   1.724   4.704   5.271 -0.2114 -0.2434  0.0108
 1453ntf    fn4 9643   2.018   4.502   5.365 -0.0934 -0.3646  0.0503
 1453ntf    fn4 9644   1.952   4.538   5.170  0.0162  0.2212  0.0552
 1453ntf    fn4 9645   2.003   4.702   5.284  0.1819  0.2480 -0.4750
 1454ntf    cn1 9646   6.640   1.661   4.160  0.6470  0.0511  0.4105
 1454ntf    sn2 9647   6.818   1.699   4.160  0.5724  0.3981  0.0981
 1454ntf    nn3 9648   6.860   1.551   4.189  0.2005  0.2496 -0.1105
 1454ntf    sn2 9649   7.000   1.487   4.156  0.0611 -0.0391 -0.1418
 1454ntf    cn1 9650   6.954   1.380   4.016 -0.3540 -0.2977  0.1905
 1454ntf    fn4 9651   6.591   1.601   4.268 -0.0970  0.2807  0.2029
 1454ntf    fn4 9652   6.564   1.768   4.149  0.4322 -0.1231  0.1910
 1454ntf    fn4 9653   6.606   1.583   4.059  0.1951  0.3511  0.3306
 1454ntf    on5 9654   6.823   1.740   4.022 -0.2116 -0.0134 -0.0590
 1454ntf    on5 9655   6.833   1.797   4.265  0.1115  0.2421  0.3121
 1454ntf    on5 9656   7.033   1.396   4.263  0.1974  0.1997  0.0182
 1454ntf    on5 9657   7.102   1.575   4.105  0.0046  0.2183  0.1881
 1454ntf    fn4 9658   6.858   1.294   4.048 -0.5232 -0.3359 -0.4156
 1454ntf    fn4 9659   6.906   1.459   3.922  0.0166  0.1936  0.4130
 1454ntf    fn4 9660   7.060   1.319   3.967 -0.1275  0.2850 -0.0404
 1455ntf    cn1 9661   2.635   3.174   3.467  0.3499 -0.0033  0.2387
 1455ntf    sn2 9662   2.573   3.148   3.636 -0.2271 -0.0453  0.0224
 1455ntf    nn3 9663   2.634   3.004   3.654  0.1078  0.1108  0.1533
 1455ntf    sn2 9664   2.745   2.954   3.753  0.0282  0.0365  0.2053
 1455ntf    cn1 9665   2.867   3.088   3.761  0.1762 -0.0885  0.0552
 1455ntf    fn4 9666   2.766   3.155   3.454  0.3156 -0.0992  0.0317
 1455ntf    fn4 9667   2.572   3.111   3.369  0.0985  0.3137  0.1942
 1455ntf    fn4 9668   2.615   3.300   3.434 -0.6725 -0.0979  0.4715
 1455ntf    on5 9669   2.626   3.263   3.704 -0.3714  0.0339  0.0002
 1455ntf    on5 9670   2.429   3.153   3.638 -0.2510 -0.6588  0.1038
 1455ntf    on5 9671   2.823   2.844   3.702  0.2823  0.0573  0.5486
 1455ntf    on5 9672   2.689   2.937   3.885  0.3645 -0.2585  0.3103
 1455ntf    fn4 9673   2.913   3.116   3.641  0.1096  0.0910  0.0708
 1455ntf    fn4 9674   2.830   3.206   3.809 -0.0188  0.0468 -0.4272
 1455ntf    fn4 9675   2.976   3.067   3.833  0.4004 -0.3018 -0.3479
 1456ntf    cn1 9676   1.012   2.391   2.942  0.1309 -0.3966  0.3724
 1456ntf    sn2 9677   0.854   2.477   2.920  0.2988 -0.1348  0.1824
 1456ntf    nn3 9678   0.828   2.547   3.058  0.2951 -0.0847  0.1561
 1456ntf    sn2 9679   0.804   2.696   3.101 -0.1791 -0.0676 -0.1602
 1456ntf    cn1 9680   0.623   2.710   3.088 -0.1669  0.2062 -0.0414
 1456ntf    fn4 9681   1.025   2.319   3.052 -0.2139 -0.6003  0.2808
 1456ntf    fn4 9682   1.049   2.318   2.838 -0.0266  0.4495 -0.2861
 1456ntf    fn4 9683   1.107   2.483   2.948  0.1112 -0.3662  0.2250
 1456ntf    on5 9684   0.863   2.572   2.812  0.4269 -0.2867  0.0595
 1456ntf    on5 9685   0.758   2.373   2.895  0.3423 -0.2076  0.3164
 1456ntf    on5 9686   0.865   2.797   3.019  0.1621 -0.6864 -0.6724
 1456ntf    on5 9687   0.827   2.710   3.243 -0.3949  0.5239 -0.1825
 1456ntf    fn4 9688   0.565   2.626   3.172  0.2414  0.3545  0.3982
 1456ntf    fn4 9689   0.575   2.829   3.120 -0.1246  0.1325  0.3110
 1456ntf    fn4 9690   0.588   2.674   2.966  0.6075  0.1562 -0.2585
 1457ntf    cn1 9691   5.394   3.783   4.167 -0.0488  0.1657  0.4209
 1457ntf    sn2 9692   5.336   3.924   4.266 -0.3283  0.2122  0.1933
 1457ntf    nn3 9693   5.471   3.998   4.294 -0.0446 -0.2020 -0.0713
 1457ntf    sn2 9694   5.499   4.099   4.411  0.0219 -0.1423 -0.1378
 1457ntf    cn1 9695   5.547   3.985   4.544  0.2786 -0.1488 -0.2341
 1457ntf    fn4 9696   5.497   3.720   4.220  0.0631  0.0894  0.1118
 1457ntf    fn4 9697   5.301   3.692   4.141 -0.0450  0.4048 -0.4686
 1457ntf    fn4 9698   5.433   3.827   4.049 -0.7645 -0.5166 -0.0815
 1457ntf    on5 9699   5.255   3.999   4.172  0.1933  0.9151  0.2941
 1457ntf    on5 9700   5.284   3.853   4.380 -0.2113 -0.2221 -0.0220
 1457ntf    on5 9701   5.385   4.169   4.464  0.0828 -0.2254  0.1038
 1457ntf    on5 9702   5.615   4.179   4.379 -0.0911 -0.0936 -0.4279
 1457ntf    fn4 9703   5.626   3.886   4.506  0.2299 -0.0651 -0.5521
 1457ntf    fn4 9704   5.597   4.053   4.646  0.1855 -0.7134  0.1950
 1457ntf    fn4 9705   5.442   3.924   4.598  0.2411 -0.0033 -0.1427
 1458ntf    cn1 9706   0.399   4.640   0.280 -0.5385  0.1129  0.0457
 1458ntf    sn2 9707   0.561   4.575   0.333 -0.4318  0.1370 -0.2460
 1458ntf    nn3 9708   0.529   4.462   0.437  0.7150 -0.2699 -0.3218
 1458ntf    sn2 9709   0.540   4.473   0.593  0.2485  0.0842 -0.3118
 1458ntf    cn1 9710   0.424   4.346   0.649  0.2292  0.0576 -0.4118
 1458ntf    fn4 9711   0.312   4.552   0.233 -0.4093 -0.0877  0.1774
 1458ntf    fn4 9712   0.340   4.700   0.382 -0.1193  0.2263  0.2230
 1458ntf    fn4 9713   0.427   4.723   0.181  0.1602  0.0063  0.1418
 1458ntf    on5 9714   0.605   4.527   0.205 -0.1523  0.0460 -0.1167
 1458ntf    on5 9715   0.631   4.690   0.383  0.1080 -0.2049 -0.2043
 1458ntf    on5 9716   0.476   4.589   0.651 -0.0273 -0.1184 -0.2159
 1458ntf    on5 9717   0.657   4.414   0.653  0.0147  0.0814  0.1449
 1458ntf    fn4 9718   0.413   4.331   0.780  0.4986  0.4619 -0.3442
 1458ntf    fn4 9719   0.301   4.366   0.603  0.3524  0.2608 -0.6521
 1458ntf    fn4 9720   0.464   4.229   0.602 -0.5423 -0.3051 -0.1977
 1459ntf    cn1 9721   5.193   4.051   3.296 -0.0555  0.0824 -0.3004
 1459ntf    sn2 9722   5.357   4.119   3.334 -0.0689 -0.1563  0.1861
 1459ntf    nn3 9723   5.377   4.209   3.208 -1.4163 -0.3024 -0.1370
 1459ntf    sn2 9724   5.344   4.362   3.195  0.0308  0.0232 -0.1593
 1459ntf    cn1 9725   5.480   4.406   3.083  0.3313 -0.1855  0.1245
 1459ntf    fn4 9726   5.190   3.983   3.182 -0.2860 -0.7876  0.2143
 1459ntf    fn4 9727   5.150   3.958   3.379 -0.5311 -0.0601 -0.7031
 1459ntf    fn4 9728   5.100   4.143   3.281 -0.5875 -0.4088 -0.0404
 1459ntf    on5 9729   5.334   4.181   3.462 -0.3397  0.3374 -0.0994
 1459ntf    on5 9730   5.443   4.002   3.331  0.3570  0.1623 -0.1962
 1459ntf    on5 9731   5.364   4.441   3.314  0.1787  0.0576 -0.2078
 1459ntf    on5 9732   5.223   4.382   3.119 -0.1443 -0.0714  0.0946
 1459ntf    fn4 9733   5.482   4.528   3.031  0.7985 -0.2497 -0.0146
 1459ntf    fn4 9734   5.590   4.404   3.156 -0.1623 -0.0176  0.8789
 1459ntf    fn4 9735   5.488   4.325   2.978 -0.0954  0.1296 -0.1534
 1460ntf    cn1 9736   6.347   0.444   6.399 -0.0468 -0.1602  0.0654
 1460ntf    sn2 9737   6.438   0.577   6.314 -0.3100 -0.0606 -0.0603
 1460ntf    nn3 9738   6.441   0.512   6.171 -0.1746  0.1399 -0.1484
 1460ntf    sn2 9739   6.364   0.550   6.039  0.3496  0.0337 -0.4859
 1460ntf    cn1 9740   6.506   0.557   5.926  0.4736  0.0463 -0.3289
 1460ntf    fn4 9741   6.387   0.327   6.352  0.1102 -0.1665  0.2115
 1460ntf    fn4 9742   6.379   0.438   6.527  0.5172  0.2436 -0.0503
 1460ntf    fn4 9743   6.215   0.445   6.396 -0.0533 -0.4644  0.2145
 1460ntf    on5 9744   6.364   0.699   6.337  0.0616  0.2864 -0.6674
 1460ntf    on5 9745   6.571   0.571   6.368 -0.2938  0.0729 -0.0852
 1460ntf    on5 9746   6.296   0.676   6.033 -0.2058 -0.2802 -0.8963
 1460ntf    on5 9747   6.285   0.440   5.989  0.4187 -0.2321 -0.0147
 1460ntf    fn4 9748   6.564   0.439   5.917  0.1891 -0.1279  0.0889
 1460ntf    fn4 9749   6.470   0.589   5.803  0.8832 -0.0781 -0.4831
 1460ntf    fn4 9750   6.599   0.645   5.962  0.1361  0.1697  0.2591
 1461ntf    cn1 9751   2.866   4.577   2.480  0.2088  0.2309 -0.2649
 1461ntf    sn2 9752   2.688   4.606   2.461  0.1459 -0.0719 -0.1320
 1461ntf    nn3 9753   2.668   4.585   2.307 -0.1406 -0.5438 -0.0336
 1461ntf    sn2 9754   2.637   4.454   2.225 -0.2337 -0.4425 -0.1612
 1461ntf    cn1 9755   2.455   4.459   2.223 -0.2210  0.3996  0.2719
 1461ntf    fn4 9756   2.902   4.539   2.601 -0.3912 -0.1517 -0.2028
 1461ntf    fn4 9757   2.910   4.480   2.401  0.2725 -0.1336  0.2142
 1461ntf    fn4 9758   2.938   4.686   2.458  0.6367  0.0464  0.1912
 1461ntf    on5 9759   2.622   4.511   2.548 -0.2640 -0.4677 -0.8571
 1461ntf    on5 9760   2.688   4.747   2.487  0.0955 -0.0736 -0.1219
 1461ntf    on5 9761   2.665   4.331   2.294  0.0676 -0.1044  0.3265
 1461ntf    on5 9762   2.677   4.469   2.087  0.4406  0.5463  0.1287
 1461ntf    fn4 9763   2.400   4.467   2.343 -0.3284  0.5157  0.2149
 1461ntf    fn4 9764   2.406   4.565   2.161 -0.0363 -0.0367 -0.6440
 1461ntf    fn4 9765   2.393   4.363   2.158  0.1118  0.3222  0.0644
 1462ntf    cn1 9766   4.839   5.858   4.314 -0.1734 -0.2757  0.4114
 1462ntf    sn2 9767   5.002   5.852   4.396  0.1237  0.1961 -0.1353
 1462ntf    nn3 9768   5.021   5.699   4.425 -1.0144  0.1686  0.5267
 1462ntf    sn2 9769   5.027   5.616   4.558  0.3056 -0.3861  0.1346
 1462ntf    cn1 9770   4.922   5.473   4.521 -0.1092 -0.0565  0.0380
 1462ntf    fn4 9771   4.739   5.848   4.399  0.1143  0.1132  0.8027
 1462ntf    fn4 9772   4.814   5.978   4.265 -0.1614 -0.3089  0.3246
 1462ntf    fn4 9773   4.824   5.765   4.221  0.0145 -0.3121  0.4168
 1462ntf    on5 9774   5.098   5.903   4.302  0.1279  0.3582 -0.0421
 1462ntf    on5 9775   4.992   5.934   4.514  0.2679  0.7705 -0.5151
 1462ntf    on5 9776   4.967   5.673   4.676  0.3468  0.3166 -0.1793
 1462ntf    on5 9777   5.156   5.554   4.578  0.4230 -0.1612  0.0852
 1462ntf    fn4 9778   4.943   5.434   4.396 -0.4082 -0.7583  0.2035
 1462ntf    fn4 9779   4.949   5.371   4.601 -0.7055 -0.0702  0.2317
 1462ntf    fn4 9780   4.792   5.500   4.525 -0.0346  0.2714  0.2528
 1463ntf    cn1 9781   3.553   5.728   1.515 -0.0470 -0.1636  0.3466
 1463ntf    sn2 9782   3.492   5.616   1.644  0.1103 -0.4682  0.1575
 1463ntf    nn3 9783   3.445   5.708   1.762  0.1686 -0.0203 -0.1655
 1463ntf    sn2 9784   3.395   5.657   1.902 -0.3027 -0.0176 -0.3295
 1463ntf    cn1 9785   3.226   5.721   1.890 -0.2790  0.1491  0.2322
 1463ntf    fn4 9786   3.592   5.670   1.402  0.2134  0.0546  0.3236
 1463ntf    fn4 9787   3.460   5.818   1.487  0.2739  0.1017  0.1179
 1463ntf    fn4 9788   3.654   5.801   1.559  0.3003 -0.2108 -0.3518
 1463ntf    on5 9789   3.384   5.554   1.570 -0.4278  0.4040  0.2014
 1463ntf    on5 9790   3.612   5.541   1.672  0.3475 -0.1917 -0.1035
 1463ntf    on5 9791   3.455   5.728   2.012 -0.0139  0.1220 -0.5740
 1463ntf    on5 9792   3.387   5.513   1.913  0.4535 -0.0390  0.0588
 1463ntf    fn4 9793   3.159   5.691   2.000 -0.2642 -0.4734  0.0739
 1463ntf    fn4 9794   3.227   5.853   1.879  0.7699  0.1009 -0.3681
 1463ntf    fn4 9795   3.160   5.675   1.785  0.0586  0.1079  0.0372
 1464ntf    cn1 9796   4.709   3.957   6.310 -0.3545  0.1781  0.0179
 1464ntf    sn2 9797   4.719   3.895   6.480 -0.1441 -0.0391 -0.0733
 1464ntf    nn3 9798   4.589   3.807   6.487 -0.1722  0.0266  0.2159
 1464ntf    sn2 9799   4.593   3.653   6.518  0.0728 -0.0229 -0.0630
 1464ntf    cn1 9800   4.419   3.613   6.548  0.0551  0.0542 -0.0640
 1464ntf    fn4 9801   4.821   4.022   6.281 -0.3011 -0.0220 -0.2326
 1464ntf    fn4 9802   4.669   3.870   6.218 -0.6689  0.3564 -0.0158
 1464ntf    fn4 9803   4.618   4.052   6.293 -0.2956  0.1512 -0.4695
 1464ntf    on5 9804   4.846   3.827   6.476  0.0124  0.2617 -0.2241
 1464ntf    on5 9805   4.709   4.022   6.546  0.1059  0.0402 -0.1874
 1464ntf    on5 9806   4.653   3.614   6.644 -0.1996 -0.2390 -0.0012
 1464ntf    on5 9807   4.628   3.563   6.411 -0.5883 -0.2069 -0.1273
 1464ntf    fn4 9808   4.347   3.604   6.437 -0.4694 -0.4121  0.3087
 1464ntf    fn4 9809   4.414   3.503   6.621  0.3485  0.2331  0.2275
 1464ntf    fn4 9810   4.356   3.708   6.616 -0.1155 -0.0060 -0.1375
 1465ntf    cn1 9811   2.731   0.010   3.764  0.0347 -0.4613 -0.2933
 1465ntf    sn2 9812   2.806  -0.051   3.918  0.0542  0.3348  0.0175
 1465ntf    nn3 9813   2.850   0.085   3.983  0.0136  0.5008 -0.2957
 1465ntf    sn2 9814   2.914   0.112   4.124 -0.0802  0.0563 -0.1669
 1465ntf    cn1 9815   3.091   0.107   4.085 -0.0749  0.0546 -0.1453
 1465ntf    fn4 9816   2.688  -0.082   3.679  0.1850  0.0772 -0.9730
 1465ntf    fn4 9817   2.619   0.075   3.791  0.1686 -0.7684  1.0477
 1465ntf    fn4 9818   2.815   0.084   3.693 -0.3409 -0.1732 -0.4458
 1465ntf    on5 9819   2.691  -0.118   3.972  0.3686 -0.6602 -0.5221
 1465ntf    on5 9820   2.917  -0.127   3.867 -0.1182 -0.1044  0.2967
 1465ntf    on5 9821   2.890   0.017   4.230  0.2525  0.7490  0.5385
 1465ntf    on5 9822   2.893   0.251   4.154  0.0430 -0.0045  0.2076
 1465ntf    fn4 9823   3.142  -0.014   4.065 -0.1081  0.1170 -0.6212
 1465ntf    fn4 9824   3.108   0.177   3.974 -0.0726 -0.4581 -0.4730
 1465ntf    fn4 9825   3.174   0.172   4.165 -0.0736  0.0319 -0.1285
 1466ntf    cn1 9826   0.001   2.881   0.009  0.2356 -0.1077  0.2546
 1466ntf    sn2 9827  -0.113   2.758   0.081 -0.3920  0.1835 -0.2318
 1466ntf    nn3 9828  -0.048   2.629   0.019 -0.0107  0.0329  0.4659
 1466ntf    sn2 9829   0.026   2.514   0.094  0.4799  0.1061  0.0982
 1466ntf    cn1 9830  -0.116   2.405   0.124  0.2237  0.4411  0.1041
 1466ntf    fn4 9831   0.127   2.842   0.013  0.1345 -0.3891  0.7514
 1466ntf    fn4 9832  -0.025   2.893  -0.120 -0.1303  0.0977  0.3450
 1466ntf    fn4 9833  -0.012   3.001   0.064  0.1322 -0.2278  0.4955
 1466ntf    on5 9834  -0.101   2.779   0.223 -0.0540 -0.7267 -0.1208
 1466ntf    on5 9835  -0.242   2.791   0.027 -0.8134 -0.6171  0.2812
 1466ntf    on5 9836   0.078   2.538   0.227  0.0537 -0.0584  0.2971
 1466ntf    on5 9837   0.112   2.440   0.005  0.0425 -0.4348  0.1161
 1466ntf    fn4 9838  -0.199   2.460   0.211 -0.1608 -0.1870  0.1452
 1466ntf    fn4 9839  -0.189   2.371   0.019  0.1527 -0.0637  0.3109
 1466ntf    fn4 9840  -0.083   2.292   0.185 -0.1620  0.0732 -0.3618
 1467ntf    cn1 9841   6.712   2.462   4.570  0.0761 -0.3648 -0.3348
 1467ntf    sn2 9842   6.677   2.388   4.732  0.3033 -0.0925 -0.1617
 1467ntf    nn3 9843   6.750   2.250   4.719  0.0249 -0.3015  0.4366
 1467ntf    sn2 9844   6.872   2.200   4.805  0.1013 -0.1884  0.3956
 1467ntf    cn1 9845   6.773   2.106   4.926 -0.4538 -0.4755 -0.2726
 1467ntf    fn4 9846   6.678   2.588   4.553 -0.0122 -0.3858 -0.3123
 1467ntf    fn4 9847   6.841   2.447   4.543  0.1480 -0.0635 -0.1593
 1467ntf    fn4 9848   6.646   2.399   4.474 -0.3592 -0.1404 -0.1867
 1467ntf    on5 9849   6.726   2.481   4.831 -0.2053  0.0970 -0.0810
 1467ntf    on5 9850   6.534   2.370   4.725  0.4135 -0.8539 -0.5024
 1467ntf    on5 9851   6.948   2.296   4.880  0.2296  0.4403 -0.5329
 1467ntf    on5 9852   6.946   2.101   4.730  0.4114  0.1342  0.2762
 1467ntf    fn4 9853   6.839   2.053   5.028 -0.0503  0.6403  0.0560
 1467ntf    fn4 9854   6.685   2.177   4.993  0.2985 -0.2297  0.4644
 1467ntf    fn4 9855   6.700   2.014   4.864 -0.7411 -0.2431 -0.2783
 1468ntf    cn1 9856   6.391   0.025   4.649 -0.1773  0.0227  0.2317
 1468ntf    sn2 9857   6.342  -0.072   4.503  0.1696 -0.3365  0.3520
 1468ntf    nn3 9858   6.223  -0.151   4.567 -0.0913  0.1925  0.5246
 1468ntf    sn2 9859   6.224  -0.303   4.607 -0.0267  0.0930  0.1512
 1468ntf    cn1 9860   6.334  -0.317   4.751  0.2931  0.1605 -0.0877
 1468ntf    fn4 9861   6.480  -0.042   4.721  0.0343  0.0830  0.0276
 1468ntf    fn4 9862   6.453   0.137   4.615 -0.2048  0.1458  0.5773
 1468ntf    fn4 9863   6.293   0.061   4.730 -0.3369  0.0368  0.0304
 1468ntf    on5 9864   6.292   0.031   4.416  0.4381 -0.3513  0.1802
 1468ntf    on5 9865   6.464  -0.143   4.474  0.1226 -0.4460  0.4188
 1468ntf    on5 9866   6.277  -0.398   4.513  0.0182 -0.1020  0.3734
 1468ntf    on5 9867   6.098  -0.351   4.661 -0.2032 -0.0432 -0.3812
 1468ntf    fn4 9868   6.325  -0.441   4.795 -0.6454  0.1903 -0.1826
 1468ntf    fn4 9869   6.462  -0.292   4.729  0.2887  0.3057  0.0438
 1468ntf    fn4 9870   6.305  -0.230   4.846 -0.0960 -0.4898  0.3900
 1469ntf    cn1 9871   3.501   0.117   0.279  0.1871 -0.2356 -0.4183
 1469ntf    sn2 9872   3.592   0.140   0.123  0.3396 -0.2781 -0.3357
 1469ntf    nn3 9873   3.577   0.002   0.049 -0.7959 -0.6592  0.5737
 1469ntf    sn2 9874   3.469  -0.032  -0.060 -0.3271 -0.1384 -0.0613
 1469ntf    cn1 9875   3.550   0.035  -0.208  0.2866  0.4052  0.5152
 1469ntf    fn4 9876   3.557   0.026   0.358  0.9042  0.4002 -0.1858
 1469ntf    fn4 9877   3.491   0.234   0.339 -0.1690 -0.4140 -0.1270
 1469ntf    fn4 9878   3.377   0.075   0.258  0.0968 -0.1144 -0.1250
 1469ntf    on5 9879   3.519   0.250   0.066 -0.2445 -0.5761 -0.1674
 1469ntf    on5 9880   3.728   0.152   0.170  0.2609 -0.0844 -0.1544
 1469ntf    on5 9881   3.343   0.038  -0.050 -0.2210  0.0829 -0.2597
 1469ntf    on5 9882   3.470  -0.175  -0.079  0.1573 -0.1176 -0.1969
 1469ntf    fn4 9883   3.550   0.168  -0.204 -0.3635  0.4281 -0.1138
 1469ntf    fn4 9884   3.672  -0.010  -0.233  0.3332  0.4266  0.7008
 1469ntf    fn4 9885   3.484   0.003  -0.318  0.0116  0.0243  0.7889
 1470ntf    cn1 9886   6.213   6.050   0.930 -0.2213 -0.2701 -0.0871
 1470ntf    sn2 9887   6.365   6.015   0.836  0.0363  0.1646  0.1637
 1470ntf    nn3 9888   6.306   5.970   0.698  0.4086  0.0527  0.0408
 1470ntf    sn2 9889   6.313   5.831   0.625  0.2004  0.0511  0.0224
 1470ntf    cn1 9890   6.212   5.865   0.478 -0.0830  0.4101  0.2984
 1470ntf    fn4 9891   6.137   5.942   0.920  0.0529 -0.4075 -0.7054
 1470ntf    fn4 9892   6.235   6.087   1.056  0.0663 -0.2401 -0.1452
 1470ntf    fn4 9893   6.143   6.150   0.879  0.5858  0.2027 -0.2787
 1470ntf    on5 9894   6.432   6.141   0.817  0.1923  0.1158  0.3775
 1470ntf    on5 9895   6.437   5.914   0.909 -0.1762 -0.1613 -0.0782
 1470ntf    on5 9896   6.241   5.725   0.691  0.3599 -0.2633 -0.3088
 1470ntf    on5 9897   6.446   5.807   0.575  0.1012  0.1556 -0.2936
 1470ntf    fn4 9898   6.190   5.757   0.405  0.6607  0.3574  0.1453
 1470ntf    fn4 9899   6.097   5.919   0.516 -0.2469  0.2768  0.0028
 1470ntf    fn4 9900   6.271   5.947   0.393  0.5075  0.0651  0.3715
 1471ntf    cn1 9901   2.939   4.723   6.174 -0.1992 -0.3270  0.1145
 1471ntf    sn2 9902   3.100   4.713   6.258 -0.0945  0.0442 -0.0377
 1471ntf    nn3 9903   3.163   4.850   6.215 -0.2037  0.1445  0.1228
 1471ntf    sn2 9904   3.143   4.990   6.283 -0.0186  0.2884 -0.1147
 1471ntf    cn1 9905   3.290   4.993   6.390  0.0056  0.2343 -0.1463
 1471ntf    fn4 9906   2.849   4.640   6.223 -0.1549 -0.1660  0.4693
 1471ntf    fn4 9907   2.883   4.843   6.177 -0.0135 -0.2052 -0.8249
 1471ntf    fn4 9908   2.956   4.690   6.047  0.0911 -0.0431  0.0766
 1471ntf    on5 9909   3.076   4.702   6.399  0.2455 -0.2002  0.0022
 1471ntf    on5 9910   3.158   4.604   6.183 -0.3330 -0.0126 -0.1418
 1471ntf    on5 9911   3.025   5.008   6.365 -0.1027  0.3748 -0.2530
 1471ntf    on5 9912   3.173   5.099   6.194 -0.1139 -0.1010 -0.6276
 1471ntf    fn4 9913   3.399   4.994   6.316 -0.1861  0.5681 -0.4247
 1471ntf    fn4 9914   3.294   5.098   6.470 -0.4674 -0.0877  0.3182
 1471ntf    fn4 9915   3.304   4.883   6.463 -0.0214  0.2179 -0.1652
 1472ntf    cn1 9916   5.715   3.589   6.377  0.2875 -0.4546  0.2640
 1472ntf    sn2 9917   5.686   3.434   6.286  0.2590  0.0009 -0.5162
 1472ntf    nn3 9918   5.792   3.347   6.362  0.2482  0.2264 -0.2415
 1472ntf    sn2 9919   5.790   3.193   6.393  0.1618  0.2101 -0.3291
 1472ntf    cn1 9920   5.767   3.200   6.574 -0.3993  0.1679 -0.3971
 1472ntf    fn4 9921   5.643   3.689   6.327 -0.0592 -0.7562  0.1595
 1472ntf    fn4 9922   5.677   3.587   6.504 -0.2200 -0.4337  0.1136
 1472ntf    fn4 9923   5.843   3.620   6.378  0.2606 -0.3248  0.0076
 1472ntf    on5 9924   5.549   3.409   6.321  0.2367  0.7556 -0.0348
 1472ntf    on5 9925   5.720   3.470   6.151 -0.4358  0.7483 -0.5015
 1472ntf    on5 9926   5.920   3.134   6.372 -0.1071 -0.4439 -0.1915
 1472ntf    on5 9927   5.678   3.118   6.342  0.2123 -0.0116 -0.1195
 1472ntf    fn4 9928   5.882   3.219   6.636 -0.4608  0.1166 -0.2690
 1472ntf    fn4 9929   5.693   3.296   6.627  0.2278  0.5553 -0.2069
 1472ntf    fn4 9930   5.719   3.087   6.623  0.5706 -0.2391 -0.3544
 1473ntf    cn1 9931   4.586   2.927   5.854 -0.1019 -0.1516  0.0460
 1473ntf    sn2 9932   4.678   2.938   6.011  0.3105 -0.0567 -0.1994
 1473ntf    nn3 9933   4.827   2.953   5.964  0.3668 -0.2641 -0.0871
 1473ntf    sn2 9934   4.950   3.031   6.023  0.1118  0.2728 -0.2594
 1473ntf    cn1 9935   4.937   3.191   5.937  0.3573  0.2558 -0.3270
 1473ntf    fn4 9936   4.457   2.908   5.875  0.0182 -0.1329  0.8421
 1473ntf    fn4 9937   4.595   3.041   5.789 -0.0453 -0.2530 -0.1237
 1473ntf    fn4 9938   4.621   2.828   5.773 -0.2555 -0.0386 -0.1555
 1473ntf    on5 9939   4.626   3.058   6.073  0.6656  0.4576 -0.8826
 1473ntf    on5 9940   4.653   2.809   6.069  0.1285 -0.1078 -0.3911
 1473ntf    on5 9941   5.064   2.969   5.961  0.5424  0.4194  0.3720
 1473ntf    on5 9942   4.956   3.066   6.163  0.2300 -0.1449 -0.1599
 1473ntf    fn4 9943   4.836   3.265   5.980 -0.1739 -0.2522 -0.6886
 1473ntf    fn4 9944   5.046   3.264   5.954  0.1503  0.3776  0.5239
 1473ntf    fn4 9945   4.919   3.189   5.806 -0.0284  0.2720 -0.2749
 1474ntf    cn1 9946   2.257   2.239   4.878  0.1218  0.0455 -0.3723
 1474ntf    sn2 9947   2.158   2.256   5.030 -0.2473  0.1681 -0.6232
 1474ntf    nn3 9948   2.259   2.184   5.127 -0.1248  0.5773 -0.4447
 1474ntf    sn2 9949   2.368   2.240   5.224 -0.1379 -0.0087 -0.0857
 1474ntf    cn1 9950   2.279   2.253   5.382  0.2770 -0.0177  0.1529
 1474ntf    fn4 9951   2.285   2.114   4.845 -0.3650 -0.1662  0.0111
 1474ntf    fn4 9952   2.193   2.290   4.774  0.1659 -0.0805 -0.4618
 1474ntf    fn4 9953   2.366   2.313   4.884 -0.0225  0.2008  0.3974
 1474ntf    on5 9954   2.143   2.395   5.062 -0.0035 -0.0333  0.3973
 1474ntf    on5 9955   2.037   2.180   5.012 -0.0845 -0.1296 -0.4827
 1474ntf    on5 9956   2.401   2.378   5.198 -0.2685  0.1762  0.7084
 1474ntf    on5 9957   2.477   2.149   5.248 -0.3330 -0.1171  0.4065
 1474ntf    fn4 9958   2.232   2.135   5.420  0.7328 -0.1916  0.1741
 1474ntf    fn4 9959   2.360   2.299   5.475  0.6311 -0.2851 -0.0226
 1474ntf    fn4 9960   2.174   2.333   5.379  0.6215  0.4367  0.1985
 1475ntf    cn1 9961   6.178   2.190   0.574 -0.1428  0.0531 -0.2374
 1475ntf    sn2 9962   6.218   2.091   0.722 -0.0707  0.3319 -0.0707
 1475ntf    nn3 9963   6.084   2.009   0.732 -0.0680  0.2751 -0.4787
 1475ntf    sn2 9964   5.959   2.036   0.823  0.2195  0.1621 -0.0435
 1475ntf    cn1 9965   5.829   1.981   0.707  0.1029  0.0902  0.1210
 1475ntf    fn4 9966   6.114   2.302   0.600 -0.1662 -0.1242  0.4934
 1475ntf    fn4 9967   6.290   2.238   0.522  0.1059 -0.3159 -0.0551
 1475ntf    fn4 9968   6.126   2.125   0.472  0.3239 -0.1022 -0.3812
 1475ntf    on5 9969   6.322   2.009   0.666 -0.3168 -0.4436  0.5822
 1475ntf    on5 9970   6.252   2.182   0.830  0.4411 -0.4086  0.4005
 1475ntf    on5 9971   5.924   2.174   0.844 -0.7708 -0.1001  0.1195
 1475ntf    on5 9972   5.939   1.942   0.930 -0.5339  0.0173 -0.3044
 1475ntf    fn4 9973   5.825   2.054   0.597  0.3428  0.0637  0.0940
 1475ntf    fn4 9974   5.854   1.857   0.668  0.1822  0.0726  0.2265
 1475ntf    fn4 9975   5.709   1.974   0.762  0.0882 -0.1212  0.0618
 1476ntf    cn1 9976   5.923   5.207   5.786  0.1602  0.1047  0.6912
 1476ntf    sn2 9977   6.077   5.174   5.695 -0.2808  0.2606 -0.1118
 1476ntf    nn3 9978   6.140   5.072   5.796  0.3257  0.0900 -0.6541
 1476ntf    sn2 9979   6.156   4.916   5.792  0.0205  0.0392 -0.0040
 1476ntf    cn1 9980   6.279   4.888   5.662 -0.0197  0.2046 -0.0768
 1476ntf    fn4 9981   5.854   5.306   5.732  0.3349 -0.1566 -0.0085
 1476ntf    fn4 9982   5.837   5.108   5.781  0.0547  0.2134  0.3415
 1476ntf    fn4 9983   5.936   5.242   5.914  0.2448  0.1522  0.6697
 1476ntf    on5 9984   6.023   5.123   5.571  0.3783  0.1915 -0.3742
 1476ntf    on5 9985   6.151   5.297   5.692  0.2887 -0.0707  0.2380
 1476ntf    on5 9986   6.041   4.839   5.752 -0.4497  0.7798 -0.0833
 1476ntf    on5 9987   6.216   4.865   5.913 -0.5120  0.4085  0.4201
 1476ntf    fn4 9988   6.243   4.933   5.542 -0.2302 -0.0241 -0.0994
 1476ntf    fn4 9989   6.395   4.948   5.685  0.1257 -0.0904 -0.0389
 1476ntf    fn4 9990   6.300   4.759   5.641  0.2292  0.2129  0.1171
 1477ntf    cn1 9991   0.575   5.706   6.509 -0.2942  0.2933 -0.1343
 1477ntf    sn2 9992   0.731   5.627   6.556 -0.2323  0.2802 -0.3583
 1477ntf    nn3 9993   0.801   5.593   6.420  0.0274  0.0723 -0.1750
 1477ntf    sn2 9994   0.812   5.456   6.345 -0.0435  0.0002 -0.0540
 1477ntf    cn1 9995   0.959   5.381   6.422 -0.0365  0.2069  0.1334
 1477ntf    fn4 9996   0.497   5.630   6.434  0.5341 -0.6805 -0.0290
 1477ntf    fn4 9997   0.510   5.751   6.615  0.3650  0.2510  0.2900
 1477ntf    fn4 9998   0.607   5.814   6.438  0.2407 -0.1194 -0.5286
 1477ntf    on5 9999   0.797   5.739   6.618 -0.0721 -0.2439  0.4425
 1477ntf    on510000   0.684   5.516   6.636 -0.0549  0.6596  0.2759
 1477ntf    on510001   0.849   5.472   6.207  0.7693 -0.1915  0.1333
 1477ntf    on510002   0.709   5.363   6.384 -0.1000 -0.0354 -0.2872
 1477ntf    fn410003   1.062   5.461   6.398 -0.0269  0.1497 -0.0119
 1477ntf    fn410004   0.943   5.361   6.552  0.0034  0.4671  0.1802
 1477ntf    fn410005   0.977   5.262   6.367 -0.4662  0.3721 -0.3705
 1478ntf    cn110006   4.903   4.446   0.905  0.2997 -0.2497 -0.1009
 1478ntf    sn210007   5.042   4.360   0.825  0.2475 -0.2436 -0.1981
 1478ntf    nn310008   4.962   4.301   0.703 -0.0076 -0.1117 -0.0957
 1478ntf    sn210009   4.940   4.363   0.560 -0.2251 -0.0673 -0.0442
 1478ntf    cn110010   4.961   4.199   0.483  0.3070 -0.0451  0.0485
 1478ntf    fn410011   4.934   4.467   1.032  1.2657 -0.1417 -0.3472
 1478ntf    fn410012   4.885   4.566   0.852 -0.5254 -0.3331 -0.0271
 1478ntf    fn410013   4.795   4.370   0.895  0.3176 -0.2973  0.0667
 1478ntf    on510014   5.144   4.460   0.808  0.4112 -0.3613  0.0904
 1478ntf    on510015   5.071   4.256   0.921  0.4422 -0.0264 -0.0200
 1478ntf    on510016   5.051   4.439   0.507 -0.3579 -0.1738 -0.4756
 1478ntf    on510017   4.807   4.414   0.545 -0.3022 -0.2547 -0.0009
 1478ntf    fn410018   4.876   4.111   0.533 -0.3245  0.2211 -0.5480
 1478ntf    fn410019   4.952   4.216   0.352 -0.4508 -0.5351  0.0358
 1478ntf    fn410020   5.083   4.154   0.505  0.2364 -0.6441 -0.7787
 1479ntf    cn110021   1.581   2.857   0.319  0.4289  0.5355 -0.3367
 1479ntf    sn210022   1.449   2.902   0.202  0.0248  0.3336  0.0381
 1479ntf    nn310023   1.356   2.991   0.292 -0.4499  0.2342 -0.3542
 1479ntf    sn210024   1.308   2.960   0.438  0.0535  0.0963 -0.2179
 1479ntf    cn110025   1.155   3.057   0.441 -0.1313 -0.2098  0.4138
 1479ntf    fn410026   1.647   2.962   0.365 -0.0162  0.3301  0.8105
 1479ntf    fn410027   1.531   2.802   0.428  0.0221  0.1547 -0.7096
 1479ntf    fn410028   1.668   2.769   0.271 -0.3337 -0.1416 -0.4983
 1479ntf    on510029   1.511   2.977   0.096 -0.7523  0.0395 -0.6361
 1479ntf    on510030   1.388   2.774   0.176 -0.6058  0.3955  1.1583
 1479ntf    on510031   1.391   3.025   0.537 -0.2517  0.0809  0.0487
 1479ntf    on510032   1.278   2.824   0.477  0.8862 -0.1254 -0.3246
 1479ntf    fn410033   1.167   3.176   0.385  0.2156 -0.3473  0.1948
 1479ntf    fn410034   1.057   2.999   0.374  0.2035 -0.1509 -0.1324
 1479ntf    fn410035   1.102   3.070   0.562  0.0131 -0.7552  0.5378
 1480ntf    cn110036   0.250   1.236   3.190 -0.0911 -0.0780  0.3359
 1480ntf    sn210037   0.116   1.159   3.285 -0.3537 -0.0643 -0.0209
 1480ntf    nn310038   0.166   1.180   3.433  0.2092 -0.3373 -0.1687
 1480ntf    sn210039   0.168   1.303   3.530  0.0859 -0.3257 -0.1810
 1480ntf    cn110040   0.049   1.240   3.652 -0.1894 -0.6713 -0.6223
 1480ntf    fn410041   0.360   1.163   3.178  0.0107  0.0697  0.3680
 1480ntf    fn410042   0.209   1.267   3.068 -0.3628  0.1305  0.4807
 1480ntf    fn410043   0.285   1.351   3.246 -0.3620  0.0579  0.2269
 1480ntf    on510044   0.004   1.242   3.250 -0.0978  0.2606 -0.0744
 1480ntf    on510045   0.129   1.021   3.245 -0.3720 -0.2513  0.6064
 1480ntf    on510046   0.117   1.434   3.495  0.3615 -0.2311 -0.2272
 1480ntf    on510047   0.293   1.294   3.601 -0.0976 -0.1018  0.1747
 1480ntf    fn410048  -0.074   1.246   3.606 -0.1804  0.2691 -0.5470
 1480ntf    fn410049   0.069   1.114   3.690  0.3582 -0.2057  0.7238
 1480ntf    fn410050   0.044   1.302   3.769  0.0726 -0.7647 -0.5601
 1481ntf    cn110051   2.819   3.538   6.137 -0.4624 -0.3705 -0.2131
 1481ntf    sn210052   2.755   3.700   6.191  0.3004 -0.1057 -0.0833
 1481ntf    nn310053   2.882   3.768   6.252  0.2546 -0.1194  0.0274
 1481ntf    sn210054   2.962   3.882   6.179 -0.0051  0.0475  0.0038
 1481ntf    cn110055   3.107   3.896   6.288 -0.0543  0.1057  0.0625
 1481ntf    fn410056   2.881   3.544   6.020 -0.4561 -0.7186 -0.2291
 1481ntf    fn410057   2.911   3.489   6.218 -0.3042  0.1587 -0.0701
 1481ntf    fn410058   2.724   3.449   6.117 -0.0504 -0.7748 -0.3986
 1481ntf    on510059   2.714   3.771   6.072  0.0643 -0.6917 -0.3603
 1481ntf    on510060   2.650   3.667   6.284  0.1698 -0.4905 -0.3621
 1481ntf    on510061   2.916   4.019   6.179 -0.2337 -0.0258  0.2562
 1481ntf    on510062   3.020   3.839   6.055 -0.3350  0.0401 -0.1502
 1481ntf    fn410063   3.164   3.779   6.315  0.0828  0.1401 -0.0771
 1481ntf    fn410064   3.200   3.977   6.241  0.0841 -0.2120 -0.2203
 1481ntf    fn410065   3.070   3.938   6.408 -0.3434 -0.2490  0.1003
 1482ntf    cn110066   1.685   6.304   6.349  0.2024 -0.0795 -0.0276
 1482ntf    sn210067   1.711   6.145   6.265  0.1259  0.0100 -0.2216
 1482ntf    nn310068   1.564   6.138   6.210  0.1684 -1.0493 -0.2265
 1482ntf    sn210069   1.435   6.066   6.264 -0.3765  0.0113 -0.0750
 1482ntf    cn110070   1.318   6.203   6.286 -0.3984 -0.0064 -0.0839
 1482ntf    fn410071   1.605   6.301   6.454  0.1128 -0.6964 -0.1074
 1482ntf    fn410072   1.800   6.353   6.390  0.0436  0.2918 -0.0244
 1482ntf    fn410073   1.633   6.397   6.271 -0.0756  0.3141  0.6232
 1482ntf    on510074   1.821   6.171   6.176 -0.1331  0.3623 -0.4409
 1482ntf    on510075   1.743   6.059   6.376  0.0059  0.7354  0.3789
 1482ntf    on510076   1.437   6.005   6.395 -0.1481 -0.1503 -0.1514
 1482ntf    on510077   1.374   5.986   6.160 -0.0201  0.0447 -0.3139
 1482ntf    fn410078   1.276   6.237   6.165  0.2305 -0.3438 -0.4075
 1482ntf    fn410079   1.210   6.159   6.347 -0.3478 -0.4694 -0.3232
 1482ntf    fn410080   1.370   6.306   6.352 -0.4213  0.0953 -0.2216
 1483ntf    cn110081   0.302   0.319   2.853  0.0007  0.3698 -0.1736
 1483ntf    sn210082   0.212   0.402   2.717 -0.3072  0.2529 -0.0418
 1483ntf    nn310083   0.334   0.451   2.631 -0.2959 -0.1890 -0.2818
 1483ntf    sn210084   0.359   0.410   2.481  0.1526 -0.2168 -0.1998
 1483ntf    cn110085   0.286   0.557   2.402  0.5612  0.0388 -0.1092
 1483ntf    fn410086   0.220   0.271   2.944  0.7988  0.0767  0.3915
 1483ntf    fn410087   0.386   0.224   2.817  0.1238  0.6516 -0.6402
 1483ntf    fn410088   0.376   0.411   2.912  0.2131  0.1322 -0.0723
 1483ntf    on510089   0.130   0.291   2.674  0.0526 -0.0764  0.1085
 1483ntf    on510090   0.148   0.512   2.784 -0.1514  0.2127  0.1776
 1483ntf    on510091   0.289   0.298   2.425 -0.1084  0.0974 -0.5093
 1483ntf    on510092   0.495   0.415   2.434  0.2102 -0.5656 -0.0742
 1483ntf    fn410093   0.331   0.676   2.437 -0.1279  0.2341  0.1117
 1483ntf    fn410094   0.302   0.549   2.271 -0.4706  0.7928 -0.2875
 1483ntf    fn410095   0.155   0.562   2.422  0.4898  0.1974 -0.6062
 1484ntf    cn110096   4.854   2.532   3.373 -0.2197  0.3109  0.3221
 1484ntf    sn210097   4.884   2.370   3.449 -0.0524  0.1319 -0.1232
 1484ntf    nn310098   4.841   2.402   3.597  0.6007 -0.4381  0.1993
 1484ntf    sn210099   4.705   2.384   3.673  0.2964  0.0066 -0.2317
 1484ntf    cn110100   4.758   2.250   3.783 -0.0998  0.0072 -0.0384
 1484ntf    fn410101   4.741   2.587   3.416 -0.2995  0.3082  0.1186
 1484ntf    fn410102   4.947   2.622   3.399  0.3447 -0.1128 -0.2133
 1484ntf    fn410103   4.859   2.534   3.241 -0.3912 -0.1768  0.3072
 1484ntf    on510104   4.791   2.282   3.384  0.1786 -0.1590 -0.0625
 1484ntf    on510105   5.026   2.345   3.438 -0.1201 -0.3824  0.1249
 1484ntf    on510106   4.592   2.326   3.605 -0.1514  0.0901  0.4298
 1484ntf    on510107   4.673   2.491   3.765 -0.0116  0.0350 -0.3703
 1484ntf    fn410108   4.807   2.153   3.708 -0.5070  0.0188 -0.3231
 1484ntf    fn410109   4.849   2.289   3.871  0.0649 -0.2508 -0.0946
 1484ntf    fn410110   4.651   2.196   3.841  0.2508  0.1274  0.7388
 1485ntf    cn110111   1.658   5.787   2.801 -0.2298 -0.2522  0.0925
 1485ntf    sn210112   1.674   5.712   2.966  0.5483 -0.2280  0.0337
 1485ntf    nn310113   1.827   5.680   2.967  0.6858  0.3850 -0.7656
 1485ntf    sn210114   1.926   5.661   3.088 -0.1468  0.0831 -0.1285
 1485ntf    cn110115   1.951   5.833   3.139  0.0209 -0.0659  0.2956
 1485ntf    fn410116   1.692   5.707   2.702  0.2496 -0.0515  0.0893
 1485ntf    fn410117   1.535   5.830   2.776  0.1813  0.8082 -0.1844
 1485ntf    fn410118   1.739   5.890   2.783  0.0135 -0.4842 -0.1388
 1485ntf    on510119   1.623   5.812   3.056  0.1374 -0.3236 -0.0902
 1485ntf    on510120   1.596   5.592   2.945  0.3644 -0.1540  0.2831
 1485ntf    on510121   2.051   5.619   3.031 -0.0915  0.0545  0.0152
 1485ntf    on510122   1.890   5.593   3.210  0.0122 -0.0803 -0.1717
 1485ntf    fn410123   1.839   5.875   3.198  0.0090 -0.0583  0.2673
 1485ntf    fn410124   2.052   5.859   3.220 -0.1099  0.2433  0.3628
 1485ntf    fn410125   1.974   5.923   3.045  0.3327  0.0637  0.4947
 1486ntf    cn110126   2.456   5.878   4.265  0.0363  0.1661 -0.0209
 1486ntf    sn210127   2.402   6.027   4.353  0.4302  0.0624  0.4063
 1486ntf    nn310128   2.532   6.107   4.389  0.1951  0.4454  0.4112
 1486ntf    sn210129   2.595   6.237   4.327  0.1716  0.1411 -0.2571
 1486ntf    cn110130   2.770   6.209   4.371  0.0790 -0.0369 -0.0001
 1486ntf    fn410131   2.523   5.914   4.157  0.1857  0.4129  0.1531
 1486ntf    fn410132   2.534   5.805   4.344 -0.8881 -0.5594  0.2321
 1486ntf    fn410133   2.351   5.807   4.229  0.2147 -0.2721  0.3096
 1486ntf    on510134   2.316   6.089   4.255  0.1378 -0.3211  0.4193
 1486ntf    on510135   2.334   5.986   4.473 -0.7884 -0.3706 -0.4089
 1486ntf    on510136   2.570   6.356   4.405  0.0992  0.0892 -0.2003
 1486ntf    on510137   2.607   6.248   4.184  0.5687 -0.2791 -0.2586
 1486ntf    fn410138   2.857   6.259   4.286  0.0765  0.3054  0.1982
 1486ntf    fn410139   2.787   6.255   4.493 -0.2538  0.0568  0.0139
 1486ntf    fn410140   2.798   6.080   4.375  0.0392 -0.0340  0.4199
 1487ntf    cn110141   2.025   4.487   3.076 -0.1329  0.2045 -0.4700
 1487ntf    sn210142   2.045   4.658   3.018 -0.0343  0.1477 -0.6033
 1487ntf    nn310143   1.910   4.682   2.942 -0.5652 -0.3267  0.1700
 1487ntf    sn210144   1.867   4.787   2.833 -0.3146 -0.0979  0.2880
 1487ntf    cn110145   1.761   4.894   2.936 -0.0967  0.1433  0.2615
 1487ntf    fn410146   2.135   4.415   3.095 -0.8056 -0.8255 -0.3723
 1487ntf    fn410147   1.945   4.486   3.181 -0.0203 -0.2971 -0.3844
 1487ntf    fn410148   1.960   4.419   2.983  0.1805 -0.7884  0.0129
 1487ntf    on510149   2.040   4.731   3.142  0.1393  0.6027 -0.8620
 1487ntf    on510150   2.168   4.655   2.943 -0.1348 -0.0567 -0.7619
 1487ntf    on510151   1.774   4.735   2.736  0.1012 -0.3446  0.0204
 1487ntf    on510152   1.969   4.875   2.782  0.0924 -0.4173  0.5480
 1487ntf    fn410153   1.654   4.825   2.972 -0.1701  0.2056  0.1631
 1487ntf    fn410154   1.818   4.939   3.046 -0.7299 -0.1966  0.7282
 1487ntf    fn410155   1.710   4.994   2.867  0.0788 -0.2068 -0.3899
 1488ntf    cn110156   6.598   1.738   5.894  0.0797  0.0753  0.3383
 1488ntf    sn210157   6.482   1.834   5.996  0.0405 -0.0143  0.3785
 1488ntf    nn310158   6.375   1.728   6.042 -0.1101 -0.0729 -0.0958
 1488ntf    sn210159   6.341   1.687   6.190 -0.2307  0.6533  0.0825
 1488ntf    cn110160   6.470   1.562   6.219 -0.6153  0.2543  0.0817
 1488ntf    fn410161   6.612   1.612   5.934 -0.1836  0.0099  0.2266
 1488ntf    fn410162   6.562   1.717   5.769  0.0428  1.0091  0.1909
 1488ntf    fn410163   6.720   1.788   5.890  0.1175 -0.0945 -0.6784
 1488ntf    on510164   6.568   1.883   6.100  0.2321  0.2198  0.1128
 1488ntf    on510165   6.425   1.932   5.907  0.0751 -0.2240  0.1242
 1488ntf    on510166   6.219   1.610   6.193  0.3704 -0.3050  0.4732
 1488ntf    on510167   6.359   1.795   6.284 -0.5725  0.0311  0.8749
 1488ntf    fn410168   6.495   1.490   6.111 -0.6727 -0.1154  0.3111
 1488ntf    fn410169   6.586   1.621   6.243 -0.2176 -0.4281 -0.1293
 1488ntf    fn410170   6.443   1.471   6.311  0.2318 -0.0965 -0.0044
 1489ntf    cn110171   1.097   1.183   5.073 -0.0256 -0.0114  0.5119
 1489ntf    sn210172   1.216   1.274   5.176  0.2498  0.2657 -0.0439
 1489ntf    nn310173   1.194   1.189   5.306  0.4908  0.3032  0.0209
 1489ntf    sn210174   1.300   1.095   5.375  0.1993  0.1717  0.2925
 1489ntf    cn110175   1.311   1.188   5.530 -0.3600 -0.1122  0.5053
 1489ntf    fn410176   0.974   1.187   5.122 -0.1936  0.0756  0.0866
 1489ntf    fn410177   1.092   1.241   4.954  0.5884  0.0150  0.4918
 1489ntf    fn410178   1.126   1.055   5.053 -0.5467 -0.0691  0.1204
 1489ntf    on510179   1.341   1.263   5.105  0.2659  0.2524 -0.0139
 1489ntf    on510180   1.150   1.402   5.191  0.0463  0.1407  0.1395
 1489ntf    on510181   1.435   1.093   5.325 -0.0198  0.0850 -0.3062
 1489ntf    on510182   1.246   0.968   5.419 -0.1533  0.3467  0.3711
 1489ntf    fn410183   1.384   1.128   5.623  0.4933 -0.0358 -0.1003
 1489ntf    fn410184   1.357   1.311   5.515 -0.4704 -0.1824 -0.4646
 1489ntf    fn410185   1.190   1.207   5.581 -0.5172  0.1291  0.0444
 1490ntf    cn110186   0.939   3.487   4.410 -0.4317  0.3135 -0.0074
 1490ntf    sn210187   1.119   3.506   4.399 -0.3709 -0.1500  0.1704
 1490ntf    nn310188   1.168   3.417   4.519 -0.0656 -0.2100  0.0032
 1490ntf    sn210189   1.230   3.454   4.658  0.2513 -0.3785 -0.0934
 1490ntf    cn110190   1.303   3.300   4.722  0.3703 -0.2277  0.1336
 1490ntf    fn410191   0.882   3.554   4.509  0.0121  0.8320 -0.1028
 1490ntf    fn410192   0.892   3.536   4.296  0.0105  0.4867 -0.1149
 1490ntf    fn410193   0.908   3.358   4.412  0.3142  0.1226 -0.3633
 1490ntf    on510194   1.153   3.445   4.272 -0.0444 -0.1650  0.2635
 1490ntf    on510195   1.154   3.644   4.416  0.3373 -0.2771 -0.1824
 1490ntf    on510196   1.131   3.480   4.759 -0.2607 -0.4644 -0.5741
 1490ntf    on510197   1.347   3.539   4.652  0.1112 -0.1775  0.0064
 1490ntf    fn410198   1.213   3.208   4.749  0.0397 -0.1898 -0.8097
 1490ntf    fn410199   1.387   3.245   4.636 -0.1503  0.1991 -0.6599
 1490ntf    fn410200   1.360   3.329   4.838 -0.8986  0.4178  0.6071
 1491ntf    cn110201   4.316   3.722   2.951  0.4239 -0.1091 -0.1773
 1491ntf    sn210202   4.497   3.706   2.964  0.3944 -0.3427 -0.0482
 1491ntf    nn310203   4.489   3.622   3.096  0.3113 -0.1370  0.0793
 1491ntf    sn210204   4.481   3.672   3.245  0.1012  0.0709 -0.0033
 1491ntf    cn110205   4.643   3.613   3.303  0.1682 -0.2108 -0.4713
 1491ntf    fn410206   4.278   3.805   2.856 -0.2520 -0.6671 -0.4014
 1491ntf    fn410207   4.268   3.605   2.911 -0.7274  0.1477  0.4280
 1491ntf    fn410208   4.247   3.761   3.056 -0.2686 -1.0437 -0.2710
 1491ntf    on510209   4.523   3.626   2.848  0.1498  0.0831 -0.3992
 1491ntf    on510210   4.545   3.842   2.969  0.0220 -0.1915 -0.4885
 1491ntf    on510211   4.389   3.584   3.311  0.0883  0.5043  0.5606
 1491ntf    on510212   4.472   3.814   3.268  0.5925  0.0920  0.0745
 1491ntf    fn410213   4.679   3.504   3.238 -0.2262 -0.8753  0.4000
 1491ntf    fn410214   4.742   3.700   3.291  0.0441  0.0542  0.3283
 1491ntf    fn410215   4.636   3.584   3.432 -0.2723  0.1993 -0.3977
 1492ntf    cn110216   6.360   5.088   3.646  0.1945  0.1325 -0.0944
 1492ntf    sn210217   6.540   5.075   3.618  0.2279  0.4354 -0.0168
 1492ntf    nn310218   6.607   5.159   3.732  0.1194 -0.2665  0.5710
 1492ntf    sn210219   6.603   5.132   3.886 -0.3085  0.1843  0.6409
 1492ntf    cn110220   6.778   5.094   3.918 -0.2698 -0.1368  0.0479
 1492ntf    fn410221   6.322   5.212   3.622  0.2532  0.0550 -0.6071
 1492ntf    fn410222   6.299   5.006   3.562  0.2264 -0.0201  0.0290
 1492ntf    fn410223   6.312   5.049   3.763  0.9359  0.1955  0.2404
 1492ntf    on510224   6.556   4.932   3.623  0.1746  0.4306  0.0075
 1492ntf    on510225   6.553   5.136   3.488 -0.6210  0.2638 -0.1891
 1492ntf    on510226   6.526   5.017   3.930 -0.2672 -0.0799  0.0239
 1492ntf    on510227   6.579   5.258   3.952 -0.8780  0.3578  0.1147
 1492ntf    fn410228   6.845   5.207   3.927 -0.5746 -0.0006  0.5945
 1492ntf    fn410229   6.791   5.028   4.032  0.3215  0.2435  0.2003
 1492ntf    fn410230   6.835   5.023   3.821 -0.5374  0.5849 -0.6483
 1493ntf    cn110231   1.345   6.513   1.986 -0.5227 -0.4177  0.0242
 1493ntf    sn210232   1.357   6.406   1.840  0.1897 -0.1801 -0.0964
 1493ntf    nn310233   1.334   6.266   1.907  0.0602 -0.0328  0.1675
 1493ntf    sn210234   1.436   6.153   1.949  0.1016 -0.0567  0.0044
 1493ntf    cn110235   1.362   5.999   1.886 -0.1651 -0.0074  0.1951
 1493ntf    fn410236   1.331   6.641   1.953  0.3362 -0.3451 -0.0926
 1493ntf    fn410237   1.243   6.471   2.058 -0.4274  0.4847  0.7024
 1493ntf    fn410238   1.447   6.505   2.071 -0.4154  0.0924 -0.0532
 1493ntf    on510239   1.246   6.445   1.758 -0.3700 -0.2839  0.6077
 1493ntf    on510240   1.491   6.435   1.795  0.3734 -0.2215  0.4172
 1493ntf    on510241   1.429   6.139   2.092 -0.0548  0.2351  0.0269
 1493ntf    on510242   1.570   6.147   1.897  0.0575  0.5222 -0.1881
 1493ntf    fn410243   1.388   5.887   1.952 -0.4127 -0.2003 -0.0336
 1493ntf    fn410244   1.230   5.994   1.892 -0.1633 -0.3527 -0.0413
 1493ntf    fn410245   1.401   5.983   1.761  0.3717 -0.3405  0.3983
 1494ntf    cn110246   4.962   5.364   3.905  0.3734  0.4588 -0.3798
 1494ntf    sn210247   4.844   5.403   3.773 -0.1211 -0.0617 -0.0961
 1494ntf    nn310248   4.867   5.558   3.767  0.1127 -0.0899  0.0819
 1494ntf    sn210249   4.990   5.635   3.706 -0.0100 -0.1458 -0.2324
 1494ntf    cn110250   4.935   5.657   3.534 -0.3125  0.0868 -0.1071
 1494ntf    fn410251   5.000   5.238   3.890 -0.1312  0.2948 -0.2983
 1494ntf    fn410252   5.073   5.435   3.906  0.5969  0.1089  0.0934
 1494ntf    fn410253   4.913   5.391   4.025 -0.6589 -0.0201 -0.6856
 1494ntf    on510254   4.896   5.330   3.661  0.5874  0.0512  0.1547
 1494ntf    on510255   4.709   5.371   3.815 -0.0218 -0.1361  0.1730
 1494ntf    on510256   5.117   5.568   3.706 -0.1474 -0.4169  0.5726
 1494ntf    on510257   4.986   5.770   3.754 -0.3366 -0.0201 -0.5989
 1494ntf    fn410258   4.807   5.689   3.532 -0.4232 -0.3409 -0.0346
 1494ntf    fn410259   4.992   5.759   3.471 -0.2404  0.1687  0.0905
 1494ntf    fn410260   4.946   5.545   3.464  1.2356  0.0409  0.1627
 1495ntf    cn110261   1.374   0.422   1.701 -0.1917 -0.4824 -0.2933
 1495ntf    sn210262   1.429   0.417   1.528  0.2480 -0.0029 -0.1692
 1495ntf    nn310263   1.531   0.536   1.522  0.1045  0.0919 -0.7970
 1495ntf    sn210264   1.518   0.680   1.462  0.5949  0.4659 -0.0226
 1495ntf    cn110265   1.625   0.675   1.316  0.0315 -0.1944 -0.4187
 1495ntf    fn410266   1.263   0.491   1.721 -0.0914 -0.3139 -0.3223
 1495ntf    fn410267   1.358   0.298   1.743  0.2073 -0.6175 -0.5346
 1495ntf    fn410268   1.473   0.474   1.771  0.0496 -0.7208 -0.4578
 1495ntf    on510269   1.499   0.291   1.529 -0.4815 -0.4134  0.5230
 1495ntf    on510270   1.306   0.429   1.455  0.1338  0.1373  0.0457
 1495ntf    on510271   1.591   0.781   1.535  0.1797  0.5570  0.2755
 1495ntf    on510272   1.387   0.714   1.412  0.4475  0.3157  0.2599
 1495ntf    fn410273   1.655   0.799   1.282 -0.5647  0.0146 -0.1908
 1495ntf    fn410274   1.740   0.612   1.335 -0.3108 -0.5762  0.4220
 1495ntf    fn410275   1.569   0.625   1.207  0.6375  0.2740 -0.9514
 1496ntf    cn110276   6.697   3.582   3.967 -0.3781 -0.4627 -0.0037
 1496ntf    sn210277   6.829   3.487   4.050 -0.0103  0.2290  0.2068
 1496ntf    nn310278   6.942   3.592   4.019 -0.0789  0.3169  0.2516
 1496ntf    sn210279   7.041   3.598   3.897 -0.1419  0.7807  0.2212
 1496ntf    cn110280   7.196   3.546   3.977 -0.0448  0.0267 -0.4459
 1496ntf    fn410281   6.580   3.521   3.978 -0.4180 -0.3964 -0.0589
 1496ntf    fn410282   6.689   3.700   4.025 -0.4418 -0.4038 -0.1323
 1496ntf    fn410283   6.729   3.596   3.839  0.1572 -1.0713  0.0521
 1496ntf    on510284   6.789   3.490   4.188 -0.1669 -0.0699  0.1689
 1496ntf    on510285   6.831   3.361   3.980 -0.1488 -0.0942  0.7773
 1496ntf    on510286   7.064   3.735   3.860  0.3005  0.6408 -0.0244
 1496ntf    on510287   7.023   3.501   3.792 -0.1214  0.2026  0.7437
 1496ntf    fn410288   7.199   3.426   4.034 -0.3082  0.1513 -0.1656
 1496ntf    fn410289   7.298   3.547   3.893  0.4788  0.0552  0.1794
 1496ntf    fn410290   7.239   3.624   4.075  0.3937 -0.2652 -0.4019
 1497ntf    cn110291   1.895   4.331   4.838 -0.0479  0.1030 -0.0134
 1497ntf    sn210292   1.882   4.150   4.833 -0.1844  0.1156 -0.1095
 1497ntf    nn310293   2.001   4.112   4.928 -0.3671 -0.3347 -0.0551
 1497ntf    sn210294   2.118   4.008   4.915  0.0629  0.1562 -0.1710
 1497ntf    cn110295   2.029   3.860   4.858  0.5829 -0.3378  0.2924
 1497ntf    fn410296   2.003   4.380   4.780  0.3453 -0.3212  0.3464
 1497ntf    fn410297   1.785   4.381   4.785 -0.3551 -0.2851  0.2436
 1497ntf    fn410298   1.896   4.367   4.966  0.5877  0.1301 -0.0233
 1497ntf    on510299   1.752   4.122   4.890 -0.2041  0.0616 -0.1792
 1497ntf    on510300   1.895   4.108   4.695 -0.0289  0.6456 -0.2561
 1497ntf    on510301   2.180   3.974   5.041 -0.2609 -0.2943 -0.1285
 1497ntf    on510302   2.214   4.047   4.815 -0.0010  0.4656 -0.1112
 1497ntf    fn410303   1.926   3.823   4.933 -0.2382 -0.0776 -0.6936
 1497ntf    fn410304   1.990   3.867   4.732 -0.1648  0.0604  0.5456
 1497ntf    fn410305   2.113   3.759   4.877  0.7513 -0.1520  0.5316
 1498ntf    cn110306   4.409   3.266   1.982  0.3284 -0.0959 -0.2100
 1498ntf    sn210307   4.512   3.208   2.120  0.3972  0.3737 -0.0619
 1498ntf    nn310308   4.394   3.162   2.213  0.4848  0.2410 -0.0151
 1498ntf    sn210309   4.399   3.102   2.358 -0.3562  0.4056  0.0901
 1498ntf    cn110310   4.385   2.924   2.326 -0.2644  0.3766  0.2135
 1498ntf    fn410311   4.484   3.324   1.889  0.5786 -0.0966 -0.0096
 1498ntf    fn410312   4.333   3.174   1.926 -0.3211  0.1243  0.2982
 1498ntf    fn410313   4.318   3.353   2.022  0.3551 -0.1230 -0.0893
 1498ntf    on510314   4.585   3.105   2.050  0.9636  0.6160  0.1661
 1498ntf    on510315   4.586   3.320   2.173  0.3700  0.1485  0.4562
 1498ntf    on510316   4.279   3.120   2.435 -0.5325 -0.6546  0.0822
 1498ntf    on510317   4.530   3.109   2.419 -0.2590 -0.1180 -0.0500
 1498ntf    fn410318   4.457   2.872   2.228 -0.3630 -0.2023  0.4391
 1498ntf    fn410319   4.416   2.850   2.432  0.3356  0.0252 -0.1990
 1498ntf    fn410320   4.260   2.888   2.305 -0.1336  0.0168  0.0388
 1499ntf    cn110321   5.851   2.201   4.863  0.0049  0.0516  0.0050
 1499ntf    sn210322   5.946   2.324   4.957  0.3077 -0.2633  0.1105
 1499ntf    nn310323   5.851   2.449   4.965 -0.6075 -0.9396 -0.0048
 1499ntf    sn210324   5.752   2.488   5.080 -0.1857  0.3204 -0.0524
 1499ntf    cn110325   5.740   2.665   5.040 -0.1682  0.3617  0.1237
 1499ntf    fn410326   5.816   2.250   4.745  0.8048 -0.1215 -0.3094
 1499ntf    fn410327   5.927   2.096   4.839 -0.2980 -0.1535 -0.0563
 1499ntf    fn410328   5.745   2.157   4.928  0.1105 -0.2564 -0.0303
 1499ntf    on510329   5.959   2.250   5.080  0.2711 -0.5857 -0.0789
 1499ntf    on510330   6.063   2.356   4.880  0.4438  0.1688  0.4935
 1499ntf    on510331   5.801   2.492   5.216  0.2182  0.5897 -0.2031
 1499ntf    on510332   5.615   2.450   5.059 -0.1752  0.3521 -0.1779
 1499ntf    fn410333   5.852   2.732   5.019  0.1703 -0.0426  0.6112
 1499ntf    fn410334   5.667   2.684   4.931  0.2824 -0.0480 -0.2531
 1499ntf    fn410335   5.677   2.735   5.134 -0.3594  0.1910  0.1256
 1500ntf    cn110336   1.609   6.295   0.083  0.2768 -0.4083  0.1293
 1500ntf    sn210337   1.734   6.343   0.206  0.1821  0.4233 -0.0938
 1500ntf    nn310338   1.858   6.269   0.145 -0.0373  0.1891 -0.2616
 1500ntf    sn210339   1.993   6.217   0.209 -0.2126 -0.2983 -0.2849
 1500ntf    cn110340   2.105   6.255   0.071  0.0568  0.1299  0.0518
 1500ntf    fn410341   1.552   6.186   0.130  0.4354 -0.4312  0.2684
 1500ntf    fn410342   1.513   6.384   0.063 -0.2271 -0.8652  0.5257
 1500ntf    fn410343   1.659   6.259  -0.035  0.2347  0.1654 -0.0681
 1500ntf    on510344   1.745   6.487   0.200  0.0879  0.4257 -0.1971
 1500ntf    on510345   1.691   6.282   0.329 -0.5781 -0.3246 -0.7160
 1500ntf    on510346   2.011   6.075   0.221  0.0502 -0.2569 -0.1832
 1500ntf    on510347   2.051   6.304   0.308 -0.5386 -0.3853 -0.0178
 1500ntf    fn410348   2.062   6.213  -0.046  0.7945  0.0153 -0.1843
 1500ntf    fn410349   2.127   6.386   0.064  0.0015  0.1179 -0.3712
 1500ntf    fn410350   2.223   6.198   0.090 -0.4635 -0.8480  0.3896
 1501ntf    cn110351   0.788   0.235   6.101 -0.1449 -0.0071 -0.1837
 1501ntf    sn210352   0.713   0.284   6.260 -0.2162 -0.3080 -0.1232
 1501ntf    nn310353   0.564   0.305   6.213 -0.2885 -0.3223  0.0992
 1501ntf    sn210354   0.474   0.433   6.213  0.3315  0.1171  0.3212
 1501ntf    cn110355   0.340   0.386   6.325  0.0651  0.0888 -0.0067
 1501ntf    fn410356   0.726   0.268   5.989 -0.1857 -0.0506 -0.1742
 1501ntf    fn410357   0.908   0.287   6.086 -0.2056  0.0952 -0.3142
 1501ntf    fn410358   0.798   0.103   6.107 -0.2144 -0.0214 -0.3969
 1501ntf    on510359   0.723   0.182   6.361 -0.4748  0.1554  0.3774
 1501ntf    on510360   0.786   0.401   6.303 -0.9641  0.1576 -0.0997
 1501ntf    on510361   0.408   0.449   6.086 -0.1799 -0.4260  0.5165
 1501ntf    on510362   0.522   0.552   6.279 -0.3653  0.6474 -0.1147
 1501ntf    fn410363   0.280   0.278   6.276 -0.3680  0.5052 -0.4019
 1501ntf    fn410364   0.379   0.360   6.449  0.2285  0.6341  0.0577
 1501ntf    fn410365   0.241   0.472   6.340 -0.1046 -0.1294  0.1522
 1502ntf    cn110366   2.885   4.534   4.644 -0.1077  0.0253  0.1998
 1502ntf    sn210367   2.823   4.515   4.814 -0.5196 -0.0190  0.0446
 1502ntf    nn310368   2.831   4.358   4.821  0.4732  0.0089 -0.2843
 1502ntf    sn210369   2.860   4.264   4.943  0.0787  0.3043  0.0435
 1502ntf    cn110370   3.039   4.234   4.930  0.0726  0.2116  0.1740
 1502ntf    fn410371   2.790   4.505   4.557  0.2388  0.2087 -0.2419
 1502ntf    fn410372   2.916   4.662   4.626 -0.3241 -0.0292 -0.5989
 1502ntf    fn410373   2.990   4.460   4.614 -0.1303 -0.0149  0.2206
 1502ntf    on510374   2.917   4.590   4.893 -0.4477  0.3706 -0.4058
 1502ntf    on510375   2.692   4.575   4.801 -0.4206  0.3153  0.5653
 1502ntf    on510376   2.807   4.131   4.926 -0.1127  0.3739  0.0940
 1502ntf    on510377   2.836   4.316   5.075  0.6160  0.5968  0.0263
 1502ntf    fn410378   3.075   4.140   5.016  0.0964  0.2095  0.1621
 1502ntf    fn410379   3.084   4.205   4.809  0.1202 -0.1583  0.2792
 1502ntf    fn410380   3.111   4.337   4.972 -0.0342  0.0353  0.7989
 1503ntf    cn110381   0.393   3.595   1.919 -0.3593  0.1639  0.3694
 1503ntf    sn210382   0.488   3.738   1.859  0.2934 -0.3779  0.0982
 1503ntf    nn310383   0.600   3.752   1.969 -0.3202 -0.8393  0.7964
 1503ntf    sn210384   0.607   3.848   2.093  0.3464 -0.0402  0.1500
 1503ntf    cn110385   0.686   3.996   2.022  0.1126 -0.0009 -0.0304
 1503ntf    fn410386   0.301   3.558   1.831 -0.4818 -0.0351  0.5786
 1503ntf    fn410387   0.460   3.482   1.936 -0.5300  0.0452  0.2661
 1503ntf    fn410388   0.335   3.600   2.037 -0.3093 -0.6489  0.4365
 1503ntf    on510389   0.551   3.699   1.735 -0.1438  0.9020 -0.5386
 1503ntf    on510390   0.390   3.843   1.855 -0.3350 -0.9541  0.0767
 1503ntf    on510391   0.712   3.800   2.180 -0.0494 -0.5093  0.3709
 1503ntf    on510392   0.480   3.888   2.148  0.1277  0.2796 -0.5719
 1503ntf    fn410393   0.747   4.070   2.113 -0.3441  0.2359  0.0845
 1503ntf    fn410394   0.772   3.960   1.927  0.4442  0.2743  0.1621
 1503ntf    fn410395   0.596   4.073   1.964  0.2770  0.0295 -0.2494
 1504ntf    cn110396   2.404   1.792   1.851 -0.0052  0.1111  0.1772
 1504ntf    sn210397   2.251   1.891   1.862  0.0305  0.1551  0.2780
 1504ntf    nn310398   2.310   2.032   1.828 -0.1995  0.0492 -0.5843
 1504ntf    sn210399   2.378   2.131   1.929 -0.3504 -0.2231 -0.2125
 1504ntf    cn110400   2.499   2.214   1.820  0.2695 -0.7265  0.0875
 1504ntf    fn410401   2.469   1.814   1.738 -0.2562  0.0179  0.0135
 1504ntf    fn410402   2.488   1.812   1.950 -0.2836  0.3157  0.3754
 1504ntf    fn410403   2.385   1.662   1.857  0.5699  0.0314  0.2670
 1504ntf    on510404   2.173   1.845   1.749  0.4788 -0.2395  0.1243
 1504ntf    on510405   2.193   1.867   1.992 -0.3489 -0.2760  0.0331
 1504ntf    on510406   2.465   2.075   2.029 -0.0930 -0.3582 -0.5072
 1504ntf    on510407   2.287   2.234   1.972  0.3783  0.4292 -0.1978
 1504ntf    fn410408   2.440   2.277   1.720  0.1965 -0.5481  0.2415
 1504ntf    fn410409   2.563   2.299   1.898 -0.4076 -0.3210  0.2127
 1504ntf    fn410410   2.596   2.138   1.771  0.4576 -0.3373 -0.1414
 1505ntf    cn110411   2.185   3.559   3.440  0.6708  0.2135 -0.5431
 1505ntf    sn210412   2.155   3.678   3.306  0.1689  0.1173 -0.5183
 1505ntf    nn310413   2.129   3.587   3.181  0.5700 -0.8631  0.1050
 1505ntf    sn210414   1.994   3.545   3.114  0.2100  0.3228  0.0564
 1505ntf    cn110415   1.996   3.662   2.975 -0.3049  0.5930  0.2762
 1505ntf    fn410416   2.076   3.484   3.446  0.0948  1.0762  0.0188
 1505ntf    fn410417   2.294   3.484   3.435 -0.0520 -0.8811 -0.1975
 1505ntf    fn410418   2.191   3.619   3.558  0.2687  0.0585 -0.4410
 1505ntf    on510419   2.040   3.756   3.347  0.0150 -0.3449 -0.0608
 1505ntf    on510420   2.283   3.745   3.302 -0.0450  0.5715 -0.0070
 1505ntf    on510421   1.874   3.579   3.186 -0.4745 -0.2051 -0.8083
 1505ntf    on510422   2.003   3.416   3.050 -0.7737  0.4838 -0.4222
 1505ntf    fn410423   2.001   3.785   3.023 -0.1315  0.5362  0.4060
 1505ntf    fn410424   2.102   3.640   2.899 -0.2671  0.4813  0.3605
 1505ntf    fn410425   1.891   3.660   2.894 -0.2196 -0.7506  0.1853
 1506ntf    cn110426   6.149   1.246   1.066  0.2111  0.0996  0.4516
 1506ntf    sn210427   6.230   1.356   1.186  0.7700  0.1240  0.0588
 1506ntf    nn310428   6.129   1.355   1.306  0.8941  0.3195  0.1654
 1506ntf    sn210429   6.020   1.461   1.346  0.2874 -0.1981 -0.1040
 1506ntf    cn110430   6.111   1.565   1.464  0.0688  0.1439 -0.2339
 1506ntf    fn410431   6.232   1.173   0.992 -0.3595 -0.3813  0.2827
 1506ntf    fn410432   6.067   1.164   1.130  0.0853  0.1728  0.3842
 1506ntf    fn410433   6.069   1.306   0.979 -0.1897 -0.1646  0.6363
 1506ntf    on510434   6.344   1.278   1.228  0.5036 -0.3972 -0.1781
 1506ntf    on510435   6.255   1.481   1.119  0.1818  0.0178 -0.3654
 1506ntf    on510436   5.909   1.399   1.413  0.2323  0.3432  0.3132
 1506ntf    on510437   5.982   1.558   1.246  0.4888 -0.3298 -0.3096
 1506ntf    fn410438   6.034   1.655   1.522 -0.4173 -0.1236 -0.4539
 1506ntf    fn410439   6.166   1.491   1.559 -0.1857  0.3125  0.0479
 1506ntf    fn410440   6.212   1.638   1.421  0.2407 -0.0365 -0.1369
 1507ntf    cn110441   5.328   0.947   3.688 -0.0883  0.0610 -0.1082
 1507ntf    sn210442   5.477   0.871   3.616 -0.0827 -0.1380  0.1133
 1507ntf    nn310443   5.437   0.829   3.470  0.2399 -0.2206  0.0469
 1507ntf    sn210444   5.477   0.886   3.330  0.1652 -0.4156 -0.0551
 1507ntf    cn110445   5.621   0.792   3.270  0.2241 -0.3244 -0.0591
 1507ntf    fn410446   5.350   1.018   3.797 -0.0955 -0.3391  0.1534
 1507ntf    fn410447   5.272   1.031   3.602  0.4412  0.2476 -0.2784
 1507ntf    fn410448   5.233   0.861   3.717 -0.5654  0.5331 -0.2544
 1507ntf    on510449   5.570   0.980   3.634 -0.3489  0.0363  0.4358
 1507ntf    on510450   5.492   0.764   3.711 -0.9125 -0.0898  0.3029
 1507ntf    on510451   5.528   1.021   3.336 -0.4948 -0.1541 -0.2067
 1507ntf    on510452   5.384   0.855   3.224  0.2749  0.2316 -0.3511
 1507ntf    fn410453   5.580   0.675   3.224 -0.0005 -0.2807  0.0261
 1507ntf    fn410454   5.689   0.849   3.172  0.9575 -0.4108  0.3927
 1507ntf    fn410455   5.707   0.771   3.369  0.3588  0.3038 -0.0420
 1508ntf    cn110456   4.903   3.597   5.267 -0.6225  0.1433 -0.0452
 1508ntf    sn210457   4.896   3.528   5.435 -0.1292  0.1497 -0.0199
 1508ntf    nn310458   4.991   3.627   5.511 -0.3287  0.1960  0.1691
 1508ntf    sn210459   5.039   3.605   5.659 -0.2373 -0.1646  0.0872
 1508ntf    cn110460   4.975   3.753   5.743 -0.2260 -0.1353  0.0438
 1508ntf    fn410461   4.839   3.527   5.175  0.0090  0.0135 -0.3911
 1508ntf    fn410462   4.839   3.712   5.260 -0.4061  0.3024  0.5117
 1508ntf    fn410463   5.026   3.620   5.224 -0.6318  0.3069  0.0140
 1508ntf    on510464   4.755   3.542   5.460  0.0257  0.0551  0.9418
 1508ntf    on510465   4.948   3.396   5.409 -0.5091 -0.1752  0.8290
 1508ntf    on510466   5.181   3.619   5.680 -0.2709  0.0395  0.1745
 1508ntf    on510467   4.963   3.511   5.739 -0.0831 -0.2841  0.0923
 1508ntf    fn410468   5.026   3.867   5.699  0.4407 -0.3796  0.1668
 1508ntf    fn410469   4.845   3.765   5.724 -0.1798  0.3095 -0.0095
 1508ntf    fn410470   4.990   3.750   5.874 -0.1793  0.3789  0.0508
 1509ntf    cn110471   6.497   3.026   3.896 -0.1880 -0.0807  0.0962
 1509ntf    sn210472   6.377   3.038   3.760  0.1035 -0.3104 -0.1811
 1509ntf    nn310473   6.278   3.134   3.835 -0.0379 -0.4518 -0.1860
 1509ntf    sn210474   6.132   3.104   3.886  0.0472 -0.6287 -0.0483
 1509ntf    cn110475   6.161   3.110   4.066 -0.3300  0.1684 -0.0129
 1509ntf    fn410476   6.580   2.927   3.870 -0.2005 -0.1961  0.4865
 1509ntf    fn410477   6.577   3.130   3.915  0.0194 -0.3313  0.6209
 1509ntf    fn410478   6.435   2.994   4.009  0.2203  0.2465  0.4144
 1509ntf    on510479   6.452   3.105   3.657 -0.8468  0.4750 -0.3736
 1509ntf    on510480   6.341   2.901   3.732 -0.8858 -0.2041  0.5146
 1509ntf    on510481   6.071   2.974   3.870 -0.0003 -0.6290  0.1340
 1509ntf    on510482   6.048   3.219   3.869  0.5993 -0.1962  0.0972
 1509ntf    fn410483   6.214   2.994   4.101  0.3974  0.4668 -0.1135
 1509ntf    fn410484   6.239   3.212   4.098 -0.4334  0.1011  0.4552
 1509ntf    fn410485   6.049   3.128   4.133 -0.1889 -0.1961  0.3258
 1510ntf    cn110486   6.345   6.367   2.410 -0.1118 -0.0513 -0.1011
 1510ntf    sn210487   6.409   6.217   2.330  0.0418  0.0975 -0.2591
 1510ntf    nn310488   6.386   6.099   2.431  0.3074  0.3777  0.1360
 1510ntf    sn210489   6.465   6.074   2.564  0.3808 -0.2259 -0.0160
 1510ntf    cn110490   6.597   5.966   2.500  0.5571 -0.3899  0.6238
 1510ntf    fn410491   6.415   6.402   2.517 -0.1250  0.0722 -0.1324
 1510ntf    fn410492   6.349   6.474   2.331  0.2008  0.6235  0.8091
 1510ntf    fn410493   6.222   6.345   2.454  0.0369  0.5328  0.6267
 1510ntf    on510494   6.330   6.200   2.211  0.4321  0.0442 -0.5130
 1510ntf    on510495   6.549   6.243   2.306  0.0447  0.2708 -0.0528
 1510ntf    on510496   6.395   5.973   2.639  0.0246  0.3178  0.3846
 1510ntf    on510497   6.536   6.178   2.635  0.0237 -0.1868  0.2858
 1510ntf    fn410498   6.556   5.872   2.417  0.2297  0.2435  0.0587
 1510ntf    fn410499   6.684   6.034   2.428  0.0497 -0.8476 -0.4421
 1510ntf    fn410500   6.666   5.919   2.603  0.7065 -0.6415  0.4102
 1511ntf    cn110501   5.146   2.738   1.611  0.3391  0.1936 -0.1897
 1511ntf    sn210502   5.048   2.883   1.658  0.0682 -0.0038 -0.1441
 1511ntf    nn310503   5.162   2.990   1.666 -0.0124  0.1180 -0.5927
 1511ntf    sn210504   5.172   3.123   1.582  0.2056  0.3173 -0.2588
 1511ntf    cn110505   5.349   3.126   1.544  0.2547  0.1737 -0.0381
 1511ntf    fn410506   5.079   2.626   1.589 -0.1084  0.4230  0.0098
 1511ntf    fn410507   5.215   2.754   1.499  0.0040  0.2536 -0.3887
 1511ntf    fn410508   5.237   2.716   1.705 -0.0334  0.0225  0.1345
 1511ntf    on510509   4.955   2.897   1.549  0.0751 -0.1524 -0.1699
 1511ntf    on510510   4.983   2.846   1.781 -0.2109  0.1629 -0.2405
 1511ntf    on510511   5.161   3.245   1.657 -0.1728  0.3590 -0.3757
 1511ntf    on510512   5.107   3.117   1.453 -0.9283  0.1681  0.3021
 1511ntf    fn410513   5.393   3.026   1.469  0.4997  0.1369  0.1515
 1511ntf    fn410514   5.380   3.229   1.468 -0.7204  0.2221 -0.3812
 1511ntf    fn410515   5.423   3.132   1.654  0.2134 -0.5533  0.0387
 1512ntf    cn110516   0.875   6.251   3.640 -0.1789  0.0461 -0.0428
 1512ntf    sn210517   0.866   6.196   3.813  0.2300 -0.0344 -0.0457
 1512ntf    nn310518   0.924   6.324   3.883 -0.1910  0.1844 -0.0928
 1512ntf    sn210519   1.008   6.327   4.015 -0.1965  0.0064 -0.0854
 1512ntf    cn110520   1.177   6.341   3.949 -0.1391  0.1928  0.0982
 1512ntf    fn410521   0.807   6.170   3.561 -0.1450  0.3285 -0.3598
 1512ntf    fn410522   0.842   6.376   3.613 -0.6420 -0.0733 -0.0397
 1512ntf    fn410523   1.000   6.239   3.598 -0.2560 -0.1990 -0.2019
 1512ntf    on510524   0.724   6.184   3.836  0.1539  0.2145 -0.3740
 1512ntf    on510525   0.949   6.079   3.815  0.1009 -0.1313 -0.3686
 1512ntf    on510526   1.020   6.211   4.101  0.6998  0.1583  0.0077
 1512ntf    on510527   0.983   6.450   4.087 -0.1871 -0.1732  0.2299
 1512ntf    fn410528   1.194   6.259   3.846 -0.7705  0.2895 -0.0882
 1512ntf    fn410529   1.208   6.462   3.905  0.7883 -0.0654  0.0223
 1512ntf    fn410530   1.271   6.311   4.037 -0.1093 -0.4274 -0.1389
 1513ntf    cn110531   4.791   2.969   0.779 -0.2157 -0.0022 -0.3408
 1513ntf    sn210532   4.820   3.128   0.695 -0.1658  0.1399 -0.0560
 1513ntf    nn310533   4.681   3.138   0.622 -0.0850 -0.1552 -0.2522
 1513ntf    sn210534   4.652   3.185   0.475 -0.2999  0.0683 -0.1378
 1513ntf    cn110535   4.680   3.026   0.392  0.3454  0.1726 -0.1253
 1513ntf    fn410536   4.887   2.936   0.863 -0.6678 -0.0867  0.1519
 1513ntf    fn410537   4.679   2.970   0.850 -0.0248  0.5511 -0.0404
 1513ntf    fn410538   4.778   2.861   0.704 -0.1509  0.0719 -0.4594
 1513ntf    on510539   4.828   3.216   0.808 -0.3045 -1.1869  1.0139
 1513ntf    on510540   4.942   3.114   0.620  0.0547 -0.2326  0.3682
 1513ntf    on510541   4.753   3.272   0.419 -0.5717  0.6534  0.2627
 1513ntf    on510542   4.512   3.217   0.458 -0.2003  0.1510 -0.8083
 1513ntf    fn410543   4.797   2.967   0.410  0.1750 -0.1681 -0.1170
 1513ntf    fn410544   4.592   2.930   0.417  0.0594  0.3894 -0.2833
 1513ntf    fn410545   4.662   3.051   0.264 -0.0156  0.7341  0.0324
 1514ntf    cn110546   2.214   0.217   1.737 -0.2872  0.1462 -0.3940
 1514ntf    sn210547   2.073   0.243   1.849 -0.4713 -0.0785 -0.5731
 1514ntf    nn310548   2.142   0.198   1.982 -0.8628  0.1398 -0.2919
 1514ntf    sn210549   2.144   0.265   2.124 -0.1549  0.0930 -0.2733
 1514ntf    cn110550   2.305   0.349   2.115 -0.0234 -0.1395 -0.0950
 1514ntf    fn410551   2.325   0.275   1.779  0.2079 -0.5458 -0.7245
 1514ntf    fn410552   2.245   0.091   1.711 -0.1969  0.1976 -0.5364
 1514ntf    fn410553   2.197   0.267   1.615 -0.0110  0.3218 -0.3612
 1514ntf    on510554   2.039   0.382   1.837 -0.3193  0.0062 -0.0350
 1514ntf    on510555   1.972   0.153   1.798 -0.1875 -0.9199  0.3255
 1514ntf    on510556   2.166   0.175   2.235 -0.3010 -0.0993 -0.3989
 1514ntf    on510557   2.051   0.373   2.144  0.4742  0.6167 -0.1739
 1514ntf    fn410558   2.409   0.270   2.092 -0.3567 -0.5635 -0.1608
 1514ntf    fn410559   2.310   0.437   2.017  0.1332  0.1475  0.1690
 1514ntf    fn410560   2.334   0.423   2.221 -0.6677  0.2768 -0.2019
 1515ntf    cn110561   0.619   0.661   4.903 -0.0346  0.1246  0.2480
 1515ntf    sn210562   0.472   0.700   4.803 -0.0084  0.1592  0.2226
 1515ntf    nn310563   0.531   0.654   4.665 -0.1593  0.0695  0.1895
 1515ntf    sn210564   0.604   0.741   4.557 -0.1479  0.0288  0.1637
 1515ntf    cn110565   0.459   0.784   4.457 -0.0603 -0.2715 -0.0947
 1515ntf    fn410566   0.625   0.534   4.938 -0.1161  0.1292  0.2775
 1515ntf    fn410567   0.729   0.687   4.833 -0.1854  0.6238  0.1909
 1515ntf    fn410568   0.624   0.726   5.018 -0.0491  0.3783  0.1077
 1515ntf    on510569   0.370   0.610   4.848  0.2610 -0.2525  0.0170
 1515ntf    on510570   0.439   0.839   4.826 -0.3465  0.1310 -0.0832
 1515ntf    on510571   0.684   0.665   4.464  0.0572 -0.2157  0.5357
 1515ntf    on510572   0.671   0.854   4.617  0.3042  0.1360 -0.5249
 1515ntf    fn410573   0.485   0.821   4.333 -0.1990 -0.0401 -0.0559
 1515ntf    fn410574   0.374   0.684   4.438 -0.0526 -0.3450  0.2483
 1515ntf    fn410575   0.399   0.887   4.514  0.0107 -0.4155  0.2431
 1516ntf    cn110576   1.625   6.321   4.299 -0.0923 -0.3205  0.1365
 1516ntf    sn210577   1.699   6.487   4.306 -0.1332 -0.2917 -0.0782
 1516ntf    nn310578   1.594   6.538   4.410 -0.0911  0.4181 -0.3803
 1516ntf    sn210579   1.613   6.578   4.561 -0.4702 -0.0127 -0.2143
 1516ntf    cn110580   1.454   6.532   4.636 -0.2079 -0.0147  0.3504
 1516ntf    fn410581   1.504   6.314   4.246 -0.1363  0.7378  0.0800
 1516ntf    fn410582   1.705   6.237   4.234  0.6274  0.2054  0.3323
 1516ntf    fn410583   1.614   6.270   4.420  0.0424 -0.0200  0.2758
 1516ntf    on510584   1.835   6.456   4.344 -0.2379 -0.4351  0.1849
 1516ntf    on510585   1.670   6.533   4.173  0.1602  0.1962  0.0261
 1516ntf    on510586   1.626   6.721   4.573 -0.0566 -0.0488 -0.1969
 1516ntf    on510587   1.714   6.505   4.634 -0.3412 -0.1628 -0.5390
 1516ntf    fn410588   1.432   6.601   4.746  0.4568 -0.1430  0.5657
 1516ntf    fn410589   1.360   6.556   4.546  0.2733 -0.2110 -0.2143
 1516ntf    fn410590   1.461   6.403   4.665  0.3513 -0.1162 -0.2130
 1517ntf    cn110591   3.051   5.072   5.395 -0.6433 -0.1970 -0.0662
 1517ntf    sn210592   2.978   4.908   5.426 -0.2394 -0.2834  0.4505
 1517ntf    nn310593   3.073   4.859   5.541 -0.1089 -0.1548  0.3978
 1517ntf    sn210594   3.176   4.740   5.544 -0.0666 -0.1461 -0.4259
 1517ntf    cn110595   3.321   4.840   5.500 -0.0700  0.0250 -0.0548
 1517ntf    fn410596   2.994   5.132   5.292 -0.1702 -0.2651 -0.3713
 1517ntf    fn410597   3.035   5.152   5.499  0.2280 -0.4190  0.2507
 1517ntf    fn410598   3.182   5.074   5.377 -0.5908  0.7022  0.3695
 1517ntf    on510599   2.850   4.941   5.483 -0.6288 -0.2968 -0.3963
 1517ntf    on510600   2.979   4.845   5.297  0.1725 -0.3545  0.4879
 1517ntf    on510601   3.161   4.641   5.440  0.1989 -0.3774 -0.2449
 1517ntf    on510602   3.197   4.700   5.681 -0.3293 -0.4857 -0.4818
 1517ntf    fn410603   3.436   4.774   5.501 -0.2262 -0.2710 -0.6844
 1517ntf    fn410604   3.313   4.892   5.379  0.4792 -0.3780 -0.2716
 1517ntf    fn410605   3.344   4.938   5.585 -1.0435  0.3210 -0.1243
 1518ntf    cn110606   4.577   2.509   4.107 -0.3290  0.0629  0.0596
 1518ntf    sn210607   4.639   2.574   4.265 -0.1519  0.0040  0.0155
 1518ntf    nn310608   4.657   2.437   4.340  0.9357  0.5264  0.7450
 1518ntf    sn210609   4.604   2.392   4.481 -0.4526 -0.1829  0.0177
 1518ntf    cn110610   4.703   2.242   4.508 -0.2450 -0.0404  0.0545
 1518ntf    fn410611   4.547   2.597   4.014 -0.1706 -0.2402 -0.2838
 1518ntf    fn410612   4.658   2.432   4.036 -0.1000  0.0799  0.2988
 1518ntf    fn410613   4.464   2.443   4.127 -0.6219  0.5122 -0.1197
 1518ntf    on510614   4.761   2.638   4.223  0.0307 -0.1892  0.2467
 1518ntf    on510615   4.527   2.652   4.312  0.1758  0.6138 -0.2092
 1518ntf    on510616   4.469   2.342   4.490 -0.6314  0.3689  0.3844
 1518ntf    on510617   4.639   2.482   4.587 -0.0937 -0.3322  0.0262
 1518ntf    fn410618   4.648   2.175   4.609  0.2889 -0.2608  0.2028
 1518ntf    fn410619   4.705   2.163   4.402 -0.0614 -0.1083  0.1086
 1518ntf    fn410620   4.825   2.268   4.551 -0.3896 -0.2164  0.5823
 1519ntf    cn110621   2.535   1.217   3.031 -0.2072 -0.3494 -0.0870
 1519ntf    sn210622   2.553   1.037   3.022  0.2548 -0.3170  0.1517
 1519ntf    nn310623   2.709   1.022   3.006  0.1910 -0.4945 -0.3346
 1519ntf    sn210624   2.824   1.002   3.111  0.0136  0.0308 -0.0366
 1519ntf    cn110625   2.855   0.828   3.069 -0.0102  0.0164  0.0062
 1519ntf    fn410626   2.581   1.262   3.147 -0.4218  0.4302 -0.2965
 1519ntf    fn410627   2.599   1.278   2.933 -0.8228  0.1747 -0.1665
 1519ntf    fn410628   2.408   1.252   3.025 -0.0733  0.2623  0.4461
 1519ntf    on510629   2.507   0.980   3.146  0.4915 -0.0129  0.3825
 1519ntf    on510630   2.481   1.001   2.902  0.1817 -0.4887  0.2467
 1519ntf    on510631   2.784   0.993   3.249  0.2276  0.3574  0.0501
 1519ntf    on510632   2.947   1.074   3.087 -0.0418  0.1352 -0.0095
 1519ntf    fn410633   2.854   0.793   2.942  0.2931 -0.1029  0.0364
 1519ntf    fn410634   2.972   0.791   3.119  0.1156 -0.3623 -0.5539
 1519ntf    fn410635   2.767   0.746   3.124 -0.2536  0.2376 -0.0488
 1520ntf    cn110636   3.778   5.866   6.234 -0.0754  0.3032  0.2433
 1520ntf    sn210637   3.629   5.854   6.339 -0.0084  0.3276  0.3412
 1520ntf    nn310638   3.513   5.916   6.254 -0.3159  0.0207  0.5374
 1520ntf    sn210639   3.412   5.847   6.155  0.0788 -0.0286  0.1681
 1520ntf    cn110640   3.411   5.970   6.021 -0.1193 -0.3202 -0.0973
 1520ntf    fn410641   3.882   5.843   6.312  0.0618 -0.0740 -0.0462
 1520ntf    fn410642   3.782   5.779   6.135 -0.1523  0.3231  0.2216
 1520ntf    fn410643   3.805   5.981   6.175  0.2133  0.1552  0.0879
 1520ntf    on510644   3.626   5.711   6.356 -0.4791  0.2310 -0.5020
 1520ntf    on510645   3.668   5.934   6.452  0.2109 -0.6762  0.9878
 1520ntf    on510646   3.274   5.850   6.197  0.1632  0.5102  0.4242
 1520ntf    on510647   3.463   5.728   6.092 -0.3518 -0.2867  0.3059
 1520ntf    fn410648   3.531   5.986   5.968 -0.1403  0.0334 -0.0402
 1520ntf    fn410649   3.329   5.937   5.923 -0.0591 -0.5027 -0.0859
 1520ntf    fn410650   3.372   6.088   6.066  0.1429 -0.2152 -0.1428
 1521ntf    cn110651   3.351   4.083   2.339 -0.3559  0.1474 -0.0762
 1521ntf    sn210652   3.198   3.989   2.367 -0.0957 -0.3515 -0.3272
 1521ntf    nn310653   3.127   4.031   2.233 -0.5700  0.2446  0.1047
 1521ntf    sn210654   3.054   3.952   2.118  0.5059 -0.3844 -0.1638
 1521ntf    cn110655   3.195   3.884   2.025  0.7098 -0.4463  0.1903
 1521ntf    fn410656   3.403   4.053   2.221  0.2482  0.3465  0.1366
 1521ntf    fn410657   3.332   4.214   2.344 -0.1608  0.1831 -0.2635
 1521ntf    fn410658   3.438   4.059   2.435 -0.4000  0.0140 -0.0698
 1521ntf    on510659   3.235   3.850   2.363  0.3587 -0.2357 -0.0854
 1521ntf    on510660   3.143   4.047   2.486  0.1588  0.1652 -0.4598
 1521ntf    on510661   2.986   4.035   2.021 -0.2116 -0.8404 -0.0543
 1521ntf    on510662   2.983   3.838   2.168 -0.9391  0.3023 -0.5958
 1521ntf    fn410663   3.162   3.845   1.903 -0.1955 -0.8657  0.5576
 1521ntf    fn410664   3.285   3.976   1.993 -0.0097 -0.0121 -0.6327
 1521ntf    fn410665   3.250   3.786   2.095  0.3206 -0.3177  0.6857
 1522ntf    cn110666   5.263   1.948   4.630  0.4668  0.2425 -0.4899
 1522ntf    sn210667   5.102   2.033   4.634  0.2624 -0.1505 -0.3067
 1522ntf    nn310668   5.050   2.007   4.488  0.1329 -0.0769 -0.2740
 1522ntf    sn210669   5.093   2.088   4.360  0.0058  0.1099 -0.1981
 1522ntf    cn110670   5.101   1.937   4.260 -0.1145 -0.1928  0.2447
 1522ntf    fn410671   5.369   2.016   4.670  0.1922  0.3838  0.0109
 1522ntf    fn410672   5.261   1.847   4.716 -0.3031  0.2296 -0.5141
 1522ntf    fn410673   5.291   1.886   4.516 -0.3325 -0.9823 -0.0462
 1522ntf    on510674   5.022   1.965   4.733 -0.0098 -0.1561 -0.5261
 1522ntf    on510675   5.149   2.164   4.668 -0.1302 -0.0533 -0.1351
 1522ntf    on510676   5.228   2.139   4.363  0.1420 -0.2809  1.0881
 1522ntf    on510677   4.990   2.164   4.295 -0.0897  0.1913  0.0473
 1522ntf    fn410678   4.995   1.858   4.257 -0.0926 -0.2053 -0.2836
 1522ntf    fn410679   5.130   1.962   4.133  0.4234 -0.6962  0.2667
 1522ntf    fn410680   5.202   1.865   4.306  0.1188  0.2576  0.4412
 1523ntf    cn110681   2.580   2.414   3.055  0.3355  0.1209 -0.3076
 1523ntf    sn210682   2.482   2.454   3.203  0.2892 -0.2033 -0.2508
 1523ntf    nn310683   2.400   2.559   3.121  0.6861 -0.0193 -0.4153
 1523ntf    sn210684   2.364   2.707   3.161  0.3691 -0.1895 -0.0724
 1523ntf    cn110685   2.521   2.786   3.116  0.2527 -0.0064 -0.1573
 1523ntf    fn410686   2.492   2.414   2.955 -0.0180 -0.0804 -0.0015
 1523ntf    fn410687   2.682   2.493   3.026  0.1842  0.2727 -0.4284
 1523ntf    fn410688   2.618   2.288   3.060 -0.5209 -0.1272  0.2385
 1523ntf    on510689   2.419   2.326   3.224 -0.2925  0.0955 -0.1497
 1523ntf    on510690   2.582   2.512   3.289  0.1055 -0.5225  0.1805
 1523ntf    on510691   2.343   2.725   3.303  0.0722  0.2664 -0.1709
 1523ntf    on510692   2.276   2.778   3.071  0.4827  0.2911  0.1908
 1523ntf    fn410693   2.623   2.770   3.199  0.0217 -0.2361  0.0848
 1523ntf    fn410694   2.564   2.746   2.998 -0.3025  0.0028 -0.3680
 1523ntf    fn410695   2.515   2.918   3.109 -0.0175 -0.0063  0.0390
 1524ntf    cn110696   0.562   0.687   5.795  0.0060  0.3464 -0.1257
 1524ntf    sn210697   0.742   0.681   5.766  0.0013 -0.5602  0.0188
 1524ntf    nn310698   0.761   0.832   5.731  0.6394 -0.6897 -0.2142
 1524ntf    sn210699   0.841   0.937   5.816 -0.1533  0.1998 -0.5454
 1524ntf    cn110700   1.012   0.897   5.770 -0.0198  0.2400 -0.0921
 1524ntf    fn410701   0.508   0.582   5.854 -0.3112  0.6303  0.0950
 1524ntf    fn410702   0.522   0.787   5.871  0.6211  0.3625  0.1883
 1524ntf    fn410703   0.489   0.714   5.688 -0.0819 -0.2361 -0.2184
 1524ntf    on510704   0.797   0.638   5.893  0.1387  0.6822  0.3858
 1524ntf    on510705   0.746   0.598   5.648  0.0893 -0.5736  0.0313
 1524ntf    on510706   0.833   0.927   5.960 -0.1411 -0.9263 -0.6142
 1524ntf    on510707   0.827   1.065   5.751 -0.5455  0.2942 -0.2810
 1524ntf    fn410708   1.035   0.766   5.767  0.4462  0.3158  0.0595
 1524ntf    fn410709   1.053   0.940   5.652 -0.3368  0.0728 -0.2667
 1524ntf    fn410710   1.094   0.952   5.858 -0.3609  0.1709  0.2735
 1525ntf    cn110711   0.561   2.393   6.228 -0.1641 -0.0951  0.1043
 1525ntf    sn210712   0.743   2.399   6.225 -0.1791  0.3747  0.0637
 1525ntf    nn310713   0.751   2.518   6.327  0.3817  0.3761  0.0203
 1525ntf    sn210714   0.832   2.542   6.459  0.4189  0.0641  0.0558
 1525ntf    cn110715   0.915   2.699   6.421  0.1658  0.2383  0.2185
 1525ntf    fn410716   0.512   2.301   6.146  0.0857 -0.1209 -0.0164
 1525ntf    fn410717   0.525   2.357   6.350  0.2746 -0.4811  0.1244
 1525ntf    fn410718   0.496   2.503   6.195 -0.2741 -0.2833 -0.3184
 1525ntf    on510719   0.785   2.272   6.279 -0.7648 -0.0233 -0.4001
 1525ntf    on510720   0.763   2.427   6.085  0.1886  0.0806  0.0567
 1525ntf    on510721   0.939   2.452   6.494  0.2890 -0.0489  0.1652
 1525ntf    on510722   0.757   2.590   6.572 -0.4510 -0.6425 -0.2146
 1525ntf    fn410723   0.986   2.686   6.310 -0.2947  0.1006 -0.0596
 1525ntf    fn410724   0.827   2.795   6.398 -0.1543 -0.2124 -0.4903
 1525ntf    fn410725   1.000   2.747   6.510 -0.0663 -0.0251  0.5857
 1526ntf    cn110726   5.473   6.265   5.967  0.0829 -0.2918 -0.2288
 1526ntf    sn210727   5.443   6.422   5.879 -0.0377 -0.3225 -0.2432
 1526ntf    nn310728   5.584   6.488   5.860 -0.2398  0.1101 -0.2468
 1526ntf    sn210729   5.677   6.480   5.734 -0.3020 -0.3093 -0.2674
 1526ntf    cn110730   5.840   6.433   5.801 -0.3333  0.2159  0.1866
 1526ntf    fn410731   5.516   6.290   6.089  0.3144 -0.1178 -0.3466
 1526ntf    fn410732   5.363   6.194   5.990 -0.1413  0.0649 -0.1960
 1526ntf    fn410733   5.568   6.192   5.911  0.4356 -0.0072  0.0027
 1526ntf    on510734   5.381   6.377   5.757  0.1407 -0.3839 -0.3111
 1526ntf    on510735   5.364   6.489   5.979  0.7925  0.2810  0.0182
 1526ntf    on510736   5.691   6.610   5.673 -0.0499 -0.3069 -0.2032
 1526ntf    on510737   5.652   6.371   5.643  0.3607 -0.4203 -0.3226
 1526ntf    fn410738   5.859   6.466   5.927 -0.4477 -0.0147  0.2651
 1526ntf    fn410739   5.861   6.302   5.797 -0.4797  0.1928  0.1144
 1526ntf    fn410740   5.935   6.493   5.732 -0.2700  0.0658  0.1439
 1527ntf    cn110741   4.115   4.795   1.678 -0.2253 -0.2460  0.3354
 1527ntf    sn210742   4.202   4.882   1.543 -0.1728  0.0742  0.5742
 1527ntf    nn310743   4.087   4.977   1.495 -0.0197  0.2630  0.5785
 1527ntf    sn210744   4.031   5.117   1.539 -0.0672  0.3870  0.1247
 1527ntf    cn110745   4.147   5.231   1.459  0.3425 -0.2043 -0.1287
 1527ntf    fn410746   4.091   4.869   1.785 -0.2513 -0.4346  0.4582
 1527ntf    fn410747   3.999   4.743   1.645 -0.4850  0.5199 -0.0020
 1527ntf    fn410748   4.193   4.695   1.715 -0.0893 -0.2975 -0.0837
 1527ntf    on510749   4.324   4.942   1.593  0.5268 -0.3677 -0.5552
 1527ntf    on510750   4.224   4.777   1.447 -0.0255  0.4864  0.1532
 1527ntf    on510751   4.042   5.146   1.679  0.4803  0.2400  0.1118
 1527ntf    on510752   3.908   5.151   1.470 -0.2174  0.7236  0.5579
 1527ntf    fn410753   4.174   5.203   1.332  0.3423  0.2379 -0.2264
 1527ntf    fn410754   4.099   5.354   1.464 -0.1785 -0.4423  0.8566
 1527ntf    fn410755   4.268   5.230   1.513  0.0345 -0.1917  0.5674
 1528ntf    cn110756   4.037   0.637   1.201  0.2528 -0.2390  0.4344
 1528ntf    sn210757   3.865   0.653   1.257  0.0486 -0.0798 -0.2188
 1528ntf    nn310758   3.832   0.517   1.327  0.0056  0.1321  0.1793
 1528ntf    sn210759   3.747   0.397   1.272  0.1165  0.2882 -0.3318
 1528ntf    cn110760   3.827   0.258   1.358  0.0161  0.2668 -0.2734
 1528ntf    fn410761   4.048   0.526   1.131 -0.3557  0.2459 -0.4598
 1528ntf    fn410762   4.072   0.736   1.120 -0.2659 -0.4724 -0.0877
 1528ntf    fn410763   4.122   0.641   1.301  0.2444 -0.0636  0.4362
 1528ntf    on510764   3.876   0.766   1.347  0.9558  0.2231 -0.7067
 1528ntf    on510765   3.792   0.680   1.136  0.4661 -0.7747 -0.6257
 1528ntf    on510766   3.769   0.367   1.132 -0.0333 -0.8742 -0.1167
 1528ntf    on510767   3.613   0.405   1.323  0.0266  0.0625 -0.5274
 1528ntf    fn410768   3.812   0.263   1.489  0.1857 -0.7245 -0.2057
 1528ntf    fn410769   3.774   0.144   1.314 -0.1001  0.0865  0.3297
 1528ntf    fn410770   3.955   0.256   1.324 -0.0461 -0.2776 -0.4921
 1529ntf    cn110771   2.212   1.000   3.776  0.5695 -0.0579  0.1352
 1529ntf    sn210772   2.212   0.926   3.611 -0.2095 -0.2630  0.2235
 1529ntf    nn310773   2.177   0.779   3.654 -0.1793 -0.3159  0.0694
 1529ntf    sn210774   2.282   0.669   3.695  0.1419 -0.1753 -0.3610
 1529ntf    cn110775   2.211   0.622   3.856 -0.0940  0.3340 -0.3143
 1529ntf    fn410776   2.311   0.948   3.846  0.4211 -0.1716  0.2629
 1529ntf    fn410777   2.237   1.130   3.767  0.7893 -0.0837  0.3388
 1529ntf    fn410778   2.097   0.985   3.840  0.4012  0.1497 -0.1205
 1529ntf    on510779   2.099   0.995   3.553  0.2775  0.1083 -0.3032
 1529ntf    on510780   2.345   0.961   3.566 -0.3555  0.0458  0.0300
 1529ntf    on510781   2.415   0.710   3.731 -0.1706 -0.1601  0.8164
 1529ntf    on510782   2.268   0.552   3.612  0.1778  0.0732 -0.7176
 1529ntf    fn410783   2.187   0.721   3.941  0.3146  0.2176 -0.0642
 1529ntf    fn410784   2.100   0.554   3.831  0.0707  0.0596 -0.2903
 1529ntf    fn410785   2.299   0.539   3.909 -0.1267  0.4711 -0.0459
 1530ntf    cn110786   6.349   4.512   5.356 -0.3127  0.0996  0.3079
 1530ntf    sn210787   6.323   4.466   5.182  0.4048  0.4946  0.0897
 1530ntf    nn310788   6.244   4.333   5.208  0.2069  0.5277 -0.3375
 1530ntf    sn210789   6.090   4.309   5.226  0.3488 -0.2062 -0.0692
 1530ntf    cn110790   6.047   4.280   5.051  0.1277 -0.2009 -0.0174
 1530ntf    fn410791   6.422   4.622   5.370  0.1903 -0.2167  0.2109
 1530ntf    fn410792   6.237   4.531   5.423 -0.3020  0.1031  0.3253
 1530ntf    fn410793   6.421   4.425   5.425  0.5658  0.3555 -0.2667
 1530ntf    on510794   6.246   4.577   5.132  0.1073 -0.0286 -0.6285
 1530ntf    on510795   6.454   4.442   5.127  0.2932  0.3377 -0.1090
 1530ntf    on510796   5.996   4.412   5.262  0.2899 -0.3181  0.0974
 1530ntf    on510797   6.072   4.184   5.296 -0.1283  0.0578  0.2878
 1530ntf    fn410798   5.918   4.296   5.029  0.2980  0.7842 -0.3689
 1530ntf    fn410799   6.116   4.359   4.970 -0.2144  0.3311  0.2055
 1530ntf    fn410800   6.070   4.156   5.011  0.2791 -0.0810 -0.3080
 1531ntf    cn110801   0.193   3.335   6.345  0.3333 -0.4208 -0.0199
 1531ntf    sn210802   0.316   3.241   6.441  0.3101  0.0541  0.4769
 1531ntf    nn310803   0.428   3.349   6.464 -0.1239  0.6878 -0.3492
 1531ntf    sn210804   0.473   3.438   6.585 -0.2252 -0.0311  0.2227
 1531ntf    cn110805   0.563   3.569   6.497  0.2635 -0.2632  0.3729
 1531ntf    fn410806   0.079   3.272   6.326  0.4254 -0.6030  0.0193
 1531ntf    fn410807   0.161   3.454   6.393  0.3744 -0.2834 -0.3302
 1531ntf    fn410808   0.241   3.342   6.222  0.7528  0.4917  0.1889
 1531ntf    on510809   0.246   3.188   6.556 -0.1137  0.4881  0.4200
 1531ntf    on510810   0.360   3.148   6.340  0.4414  0.0805  0.5095
 1531ntf    on510811   0.573   3.381   6.671  0.6377  0.1986 -0.6193
 1531ntf    on510812   0.355   3.499   6.642 -0.4899  0.0034 -0.3582
 1531ntf    fn410813   0.694   3.554   6.491  0.3284  0.1923  0.5560
 1531ntf    fn410814   0.512   3.594   6.378 -0.1116 -0.4110  0.4997
 1531ntf    fn410815   0.562   3.683   6.565 -0.0517 -0.1002  0.0969
 1532ntf    cn110816   0.651   0.933   1.049  0.3042  0.0279 -0.1498
 1532ntf    sn210817   0.633   1.048   1.189  0.0880 -0.1434 -0.0360
 1532ntf    nn310818   0.727   0.989   1.301  0.3551  0.2420 -0.0543
 1532ntf    sn210819   0.705   0.894   1.424  0.0406  0.0638 -0.2453
 1532ntf    cn110820   0.794   0.986   1.553 -0.2242  0.1031 -0.0905
 1532ntf    fn410821   0.615   0.810   1.083 -0.4943  0.2047 -0.3335
 1532ntf    fn410822   0.589   0.975   0.939 -0.1678  0.1436  0.1599
 1532ntf    fn410823   0.779   0.924   1.019  0.4086  0.0696  0.2883
 1532ntf    on510824   0.689   1.171   1.139 -0.4587 -0.0299 -0.3701
 1532ntf    on510825   0.492   1.039   1.215  0.0049 -0.0344 -0.4380
 1532ntf    on510826   0.788   0.777   1.411 -0.1997 -0.1246 -0.0780
 1532ntf    on510827   0.577   0.884   1.488 -0.0875 -0.3950 -0.5706
 1532ntf    fn410828   0.924   0.977   1.529 -0.0363  0.3740  0.7884
 1532ntf    fn410829   0.760   1.113   1.554 -0.0808  0.1400  0.2457
 1532ntf    fn410830   0.770   0.940   1.675  0.6322 -0.4150 -0.1078
 1533ntf    cn110831   4.761   3.833   2.606 -0.2750 -0.2466 -0.0627
 1533ntf    sn210832   4.828   3.955   2.489  0.2655 -0.0315  0.4639
 1533ntf    nn310833   4.976   3.962   2.543  0.4148 -0.5190  0.1272
 1533ntf    sn210834   5.062   4.093   2.553  0.0534 -0.2648 -0.0678
 1533ntf    cn110835   5.045   4.151   2.725  0.0454  0.4304 -0.3016
 1533ntf    fn410836   4.769   3.866   2.734 -0.0380  0.1441 -0.1757
 1533ntf    fn410837   4.632   3.822   2.582 -0.2877 -0.4026  0.0761
 1533ntf    fn410838   4.816   3.715   2.585  0.1640 -0.0526 -0.0247
 1533ntf    on510839   4.808   3.886   2.364  0.7047  0.2125  0.2553
 1533ntf    on510840   4.744   4.068   2.516 -0.3838 -0.2185 -0.7080
 1533ntf    on510841   5.023   4.204   2.469  0.0156 -0.1911  0.0471
 1533ntf    on510842   5.204   4.068   2.549  0.0748 -0.1100 -0.3227
 1533ntf    fn410843   5.108   4.265   2.746  0.4148  0.1517  0.1218
 1533ntf    fn410844   4.920   4.171   2.762  0.2232  0.5499  0.2383
 1533ntf    fn410845   5.088   4.058   2.808  0.4009  1.1339  0.3058
 1534ntf    cn110846   1.410   4.095   2.177 -0.0242  0.1090  0.1685
 1534ntf    sn210847   1.377   4.273   2.197 -0.0543  0.1182  0.0412
 1534ntf    nn310848   1.227   4.277   2.151  0.0643 -0.2333 -0.3785
 1534ntf    sn210849   1.163   4.335   2.020  0.0146  0.1862 -0.1691
 1534ntf    cn110850   0.987   4.290   2.037  0.0829 -0.1856 -0.4423
 1534ntf    fn410851   1.535   4.058   2.198 -0.1542 -0.2515  0.3013
 1534ntf    fn410852   1.355   4.007   2.258 -0.4025  0.4520  0.2868
 1534ntf    fn410853   1.371   4.053   2.057 -0.1119 -0.4923  0.4080
 1534ntf    on510854   1.393   4.281   2.340 -0.7302 -0.1768  0.1361
 1534ntf    on510855   1.472   4.339   2.111  0.0741  0.2940  0.3175
 1534ntf    on510856   1.215   4.262   1.907  0.4465 -0.4290  0.4204
 1534ntf    on510857   1.169   4.479   2.020  0.2506  0.1766 -0.3976
 1534ntf    fn410858   0.974   4.159   2.028  0.0574 -0.2267  0.1942
 1534ntf    fn410859   0.928   4.324   2.150 -0.2686  0.0333 -0.6915
 1534ntf    fn410860   0.918   4.349   1.940  0.1884  0.7691  0.0489
 1535ntf    cn110861   1.908   3.921   2.541 -0.0075 -0.0840  0.3118
 1535ntf    sn210862   2.019   4.053   2.599 -0.0551 -0.0709  0.3737
 1535ntf    nn310863   2.161   3.987   2.598  0.0741  0.2096  0.1149
 1535ntf    sn210864   2.285   3.990   2.502  0.1428 -0.0393  0.1943
 1535ntf    cn110865   2.372   4.135   2.568 -0.2885  0.1887  0.2660
 1535ntf    fn410866   1.884   3.832   2.636 -0.7479 -0.2892 -0.0604
 1535ntf    fn410867   1.789   3.971   2.512  0.2389  0.0254 -0.5466
 1535ntf    fn410868   1.943   3.843   2.440 -0.3706 -0.2067  0.2791
 1535ntf    on510869   1.998   4.150   2.495  0.3312 -0.1281  0.2432
 1535ntf    on510870   1.976   4.082   2.734 -0.3050  0.0335  0.2732
 1535ntf    on510871   2.258   4.035   2.367  0.1080 -0.3064  0.1118
 1535ntf    on510872   2.374   3.877   2.509  0.1924  0.0233  0.5902
 1535ntf    fn410873   2.500   4.133   2.536 -0.3658  0.1787 -0.0457
 1535ntf    fn410874   2.321   4.249   2.525  0.2779  0.1760 -0.4487
 1535ntf    fn410875   2.371   4.142   2.701 -0.3143 -0.1541  0.2848
 1536ntf    cn110876   5.545   5.537   5.593 -0.2570  0.5671  0.2121
 1536ntf    sn210877   5.378   5.465   5.576  0.0242 -0.1095  0.2930
 1536ntf    nn310878   5.342   5.487   5.425  0.4609  0.3351  0.2486
 1536ntf    sn210879   5.249   5.585   5.346  0.0100 -0.3844 -0.1196
 1536ntf    cn110880   5.086   5.521   5.395  0.2208 -0.5881  0.3111
 1536ntf    fn410881   5.602   5.509   5.708 -0.2564  0.8055  0.2707
 1536ntf    fn410882   5.616   5.491   5.491 -0.4999 -0.3794  0.4572
 1536ntf    fn410883   5.548   5.669   5.585 -0.3081  0.5431 -0.2728
 1536ntf    on510884   5.396   5.325   5.604 -0.5888 -0.2880 -0.1995
 1536ntf    on510885   5.303   5.544   5.671  0.0030  0.5865 -0.2961
 1536ntf    on510886   5.256   5.574   5.202  0.4305  0.0479 -0.1326
 1536ntf    on510887   5.258   5.721   5.393 -0.1777 -0.3876 -0.0707
 1536ntf    fn410888   4.990   5.556   5.312  0.5749 -0.5705 -0.0922
 1536ntf    fn410889   5.080   5.389   5.384 -0.3971 -0.4972 -0.4851
 1536ntf    fn410890   5.040   5.551   5.515 -0.1374  0.2578 -0.0377
 1537ntf    cn110891   2.483   2.592   6.158 -0.1092  0.0058 -0.6660
 1537ntf    sn210892   2.341   2.613   6.047 -0.3918  0.2144 -0.2672
 1537ntf    nn310893   2.337   2.770   6.047  0.1457  0.2351  0.6529
 1537ntf    sn210894   2.215   2.865   6.017  0.1705 -0.0259 -0.2942
 1537ntf    cn110895   2.194   2.927   6.186  0.0876 -0.1975 -0.2411
 1537ntf    fn410896   2.506   2.467   6.196  0.4060  0.3410  0.1417
 1537ntf    fn410897   2.595   2.640   6.108  0.1104 -0.0178 -0.2025
 1537ntf    fn410898   2.450   2.660   6.267 -0.0151  0.5806 -0.9910
 1537ntf    on510899   2.376   2.552   5.921 -0.2453 -0.2781  0.0136
 1537ntf    on510900   2.238   2.547   6.123 -0.1108  0.4349  0.3140
 1537ntf    on510901   2.093   2.798   5.979 -0.1436  0.2989  0.1454
 1537ntf    on510902   2.253   2.982   5.941  0.2074  0.0667 -0.1323
 1537ntf    fn410903   2.280   3.022   6.221  0.0314 -0.3511  0.3259
 1537ntf    fn410904   2.077   2.979   6.217  0.1634 -0.0667 -0.1739
 1537ntf    fn410905   2.216   2.837   6.280 -0.1045 -0.2246 -0.2220
 1538ntf    cn110906   1.441   2.364   2.992  0.2322  0.1850 -0.0387
 1538ntf    sn210907   1.570   2.488   3.024  0.1204  0.1381  0.6023
 1538ntf    nn310908   1.507   2.562   3.147 -0.5549  0.0998  0.2814
 1538ntf    sn210909   1.558   2.583   3.294 -0.0568  0.1504  0.1022
 1538ntf    cn110910   1.400   2.609   3.380  0.0371 -0.1467  0.3648
 1538ntf    fn410911   1.334   2.409   2.929  0.3588 -0.0809 -0.4482
 1538ntf    fn410912   1.480   2.269   2.908 -0.2217 -0.1248  0.0975
 1538ntf    fn410913   1.401   2.303   3.103 -0.3563  0.2986 -0.1846
 1538ntf    on510914   1.694   2.415   3.035  0.2678  0.3780  0.5420
 1538ntf    on510915   1.565   2.570   2.906  0.5503 -0.7872 -0.0765
 1538ntf    on510916   1.622   2.711   3.316 -0.0295  0.0198  0.8141
 1538ntf    on510917   1.618   2.468   3.357 -0.0252  0.2519  0.2572
 1538ntf    fn410918   1.349   2.730   3.362 -0.1699 -0.2553  0.2274
 1538ntf    fn410919   1.309   2.523   3.337  0.2602 -0.1289 -0.1444
 1538ntf    fn410920   1.405   2.593   3.511 -0.2659  0.4919  0.4588
 1539ntf    cn110921   3.451   6.134   2.528 -0.2969  0.3513 -0.2136
 1539ntf    sn210922   3.372   6.286   2.591 -0.1551  0.2504  0.2125
 1539ntf    nn310923   3.310   6.342   2.458 -0.2828  0.5021  0.3768
 1539ntf    sn210924   3.188   6.282   2.380  0.0066  0.2352  0.1230
 1539ntf    cn110925   3.071   6.403   2.448 -0.2767 -0.1016  0.2351
 1539ntf    fn410926   3.512   6.166   2.415  0.2823 -0.3185 -0.0964
 1539ntf    fn410927   3.536   6.089   2.618 -0.2086  0.1755 -0.3843
 1539ntf    fn410928   3.364   6.037   2.502 -0.6016  0.5536  0.0364
 1539ntf    on510929   3.278   6.233   2.687 -0.2629 -0.2685 -0.1735
 1539ntf    on510930   3.487   6.362   2.632  0.1589  0.0237 -0.2353
 1539ntf    on510931   3.147   6.148   2.410  0.1992  0.2106  0.2731
 1539ntf    on510932   3.179   6.316   2.240  0.4640 -0.1640 -0.0035
 1539ntf    fn410933   3.088   6.515   2.380 -0.1897 -0.2963 -0.0618
 1539ntf    fn410934   2.945   6.362   2.448 -0.2597 -0.1538  0.2248
 1539ntf    fn410935   3.096   6.433   2.575  0.1566  0.2867  0.0607
 1540ntf    cn110936   5.195   1.124   6.748  0.0328  0.1717  0.0130
 1540ntf    sn210937   5.123   0.957   6.748 -0.1010  0.2296  0.1133
 1540ntf    nn310938   4.982   0.970   6.679 -0.1007  0.0554  0.0802
 1540ntf    sn210939   4.899   0.866   6.596  0.3267 -0.1033 -0.1529
 1540ntf    cn110940   4.737   0.881   6.677  0.3578  0.2547 -0.1524
 1540ntf    fn410941   5.322   1.128   6.787 -0.1610  0.2000  0.6582
 1540ntf    fn410942   5.191   1.190   6.634  0.5773  0.2242  0.0188
 1540ntf    fn410943   5.126   1.197   6.834  0.4009 -0.0934  0.5395
 1540ntf    on510944   5.208   0.873   6.668  0.0105  0.0156  0.4541
 1540ntf    on510945   5.106   0.927   6.888  0.6948  0.0886  0.1836
 1540ntf    on510946   4.940   0.733   6.633 -0.3496 -0.1453  0.4710
 1540ntf    on510947   4.871   0.902   6.459  0.3910  0.1583 -0.0987
 1540ntf    fn410948   4.649   0.816   6.602  0.2765 -0.1461  0.2880
 1540ntf    fn410949   4.735   0.823   6.796 -0.2554 -0.2880 -0.4178
 1540ntf    fn410950   4.689   1.003   6.693  0.1060  0.1153  0.1739
 1541ntf    cn110951   4.326   6.619   1.627 -0.2783  0.3986  0.0790
 1541ntf    sn210952   4.445   6.690   1.745 -0.1593  0.3129  0.0111
 1541ntf    nn310953   4.548   6.572   1.761 -0.4236  0.0768 -0.0376
 1541ntf    sn210954   4.546   6.458   1.868 -0.1314  0.2338  0.1343
 1541ntf    cn110955   4.669   6.525   1.984  0.0505 -0.2605  0.2282
 1541ntf    fn410956   4.290   6.498   1.667  0.1134  0.3692  0.3560
 1541ntf    fn410957   4.213   6.686   1.613 -0.3580  0.1351 -0.5352
 1541ntf    fn410958   4.382   6.606   1.508 -0.4058  0.3617  0.0226
 1541ntf    on510959   4.500   6.794   1.661  0.2121 -0.0832 -0.2423
 1541ntf    on510960   4.360   6.725   1.856 -0.4580  0.5678 -0.2955
 1541ntf    on510961   4.616   6.344   1.816 -0.1324  0.1181  0.3846
 1541ntf    on510962   4.424   6.434   1.941 -0.2421 -0.0333 -0.1374
 1541ntf    fn410963   4.672   6.470   2.104 -0.4305 -0.5585  0.1050
 1541ntf    fn410964   4.797   6.529   1.948  0.0748 -0.1859  0.3225
 1541ntf    fn410965   4.634   6.652   1.998  0.4472 -0.1020 -0.1901
 1542ntf    cn110966   4.160   2.752   4.088 -0.4785  0.1974 -0.1477
 1542ntf    sn210967   4.090   2.880   4.198 -0.3431  0.1808 -0.0420
 1542ntf    nn310968   4.066   3.002   4.103 -0.2125  0.2860  0.0594
 1542ntf    sn210969   4.171   3.111   4.059  0.0641 -0.0391 -0.0885
 1542ntf    cn110970   4.110   3.127   3.888 -0.1819  0.5650  0.0525
 1542ntf    fn410971   4.154   2.628   4.134 -0.1978  0.1372 -0.2763
 1542ntf    fn410972   4.091   2.747   3.975  0.1121  0.7502 -0.5387
 1542ntf    fn410973   4.286   2.770   4.055 -0.3633 -0.3319 -0.0084
 1542ntf    on510974   3.972   2.814   4.248 -0.1574 -0.2637 -0.1800
 1542ntf    on510975   4.194   2.912   4.293  0.0033 -0.6093 -0.1442
 1542ntf    on510976   4.303   3.059   4.036  0.1237 -0.0153  0.2026
 1542ntf    on510977   4.149   3.241   4.117  0.0400 -0.1228  0.0900
 1542ntf    fn410978   4.102   3.009   3.828  0.6514  0.3161  0.4035
 1542ntf    fn410979   3.991   3.180   3.870 -0.3125  0.2322 -0.0795
 1542ntf    fn410980   4.190   3.202   3.813  0.0128  0.3932  0.0861
 1543ntf    cn110981   3.450   1.557   5.773 -0.2261 -0.0935 -0.4041
 1543ntf    sn210982   3.489   1.442   5.638  0.3506  0.1769 -0.4688
 1543ntf    nn310983   3.470   1.314   5.726  0.1869 -0.0555 -0.8397
 1543ntf    sn210984   3.544   1.176   5.711 -0.0636 -0.3041  0.1310
 1543ntf    cn110985   3.683   1.204   5.825  0.3138 -0.2756 -0.3322
 1543ntf    fn410986   3.319   1.566   5.789 -0.1610  0.6406 -0.2458
 1543ntf    fn410987   3.500   1.507   5.885  0.1989  0.1344 -0.4898
 1543ntf    fn410988   3.503   1.677   5.759  0.6135 -0.4208 -0.0904
 1543ntf    on510989   3.385   1.473   5.543 -0.1193  0.1416  0.0350
 1543ntf    on510990   3.626   1.466   5.600  0.5353  0.3756  0.2966
 1543ntf    on510991   3.598   1.146   5.581 -0.1699 -0.2031  0.0639
 1543ntf    on510992   3.465   1.076   5.779 -0.6155  0.2235  0.2736
 1543ntf    fn410993   3.648   1.262   5.939  0.0757 -0.5640 -0.2551
 1543ntf    fn410994   3.732   1.083   5.849  0.3760 -0.1640  0.1230
 1543ntf    fn410995   3.780   1.274   5.770  0.1666 -0.1570 -0.4433
 1544ntf    cn110996   5.228   5.556   3.372  0.0059  0.1801 -0.0297
 1544ntf    sn210997   5.231   5.541   3.191 -0.4666  0.1236 -0.0348
 1544ntf    nn310998   5.086   5.591   3.158 -0.4298  0.3920  0.2057
 1544ntf    sn210999   5.019   5.676   3.045 -0.1034  0.1200 -0.1947
 1544ntf    cn111000   4.975   5.824   3.141  0.6249  0.2414 -0.0381
 1544ntf    fn411001   5.168   5.454   3.433  0.1540 -0.0492 -0.2649
 1544ntf    fn411002   5.347   5.568   3.429  0.0495  0.1945 -0.1248
 1544ntf    fn411003   5.183   5.671   3.420 -0.2369  0.0619  0.0295
 1544ntf    on511004   5.334   5.635   3.151  0.2485 -0.4036  0.5368
 1544ntf    on511005   5.248   5.400   3.168 -0.1562  0.1545 -0.0056
 1544ntf    on511006   4.890   5.625   3.006 -0.2875  0.0869  0.4586
 1544ntf    on511007   5.106   5.732   2.944 -0.1913  0.2261 -0.2119
 1544ntf    fn411008   4.874   5.803   3.224  0.2251 -0.4322 -0.6741
 1544ntf    fn411009   5.075   5.877   3.209  0.3662 -0.7319  1.1306
 1544ntf    fn411010   4.916   5.909   3.058 -0.1595  0.3253  0.5932
 1545ntf    cn111011   4.321   5.197   6.454  0.3964 -0.2505 -0.0092
 1545ntf    sn211012   4.183   5.102   6.525  0.2164 -0.2456 -0.3533
 1545ntf    nn311013   4.089   5.224   6.557 -0.0495 -0.5955  0.2053
 1545ntf    sn211014   3.959   5.258   6.477  0.0969  0.0783  0.2426
 1545ntf    cn111015   3.967   5.438   6.498 -0.0833  0.0868  0.2410
 1545ntf    fn411016   4.377   5.276   6.544 -0.6559  0.2141  0.2480
 1545ntf    fn411017   4.411   5.107   6.416  0.4270 -0.1497 -0.1785
 1545ntf    fn411018   4.287   5.270   6.350 -0.1462 -0.6510 -0.1149
 1545ntf    on511019   4.156   5.009   6.418  0.0533 -0.2297 -0.3262
 1545ntf    on511020   4.241   5.050   6.646 -0.1324 -0.1765 -0.1555
 1545ntf    on511021   3.842   5.212   6.548 -0.1025 -0.2085 -0.2575
 1545ntf    on511022   3.957   5.236   6.334 -0.8590  0.3641  0.2076
 1545ntf    fn411023   4.073   5.486   6.435  0.2433  0.0142  0.7234
 1545ntf    fn411024   3.870   5.508   6.442 -0.2004 -0.4651 -0.2515
 1545ntf    fn411025   3.972   5.480   6.624  0.2947 -0.0519  0.2721
 1546ntf    cn111026   1.127   4.612   4.920  0.3970  0.0290  0.2690
 1546ntf    sn211027   1.138   4.761   4.817  0.0149 -0.2155 -0.1298
 1546ntf    nn311028   1.132   4.879   4.921  0.0221 -0.2520 -0.0879
 1546ntf    sn211029   1.095   5.030   4.898 -0.4000 -0.3314  0.0766
 1546ntf    cn111030   0.931   5.034   4.977 -0.1588  0.0081  0.5659
 1546ntf    fn411031   1.116   4.503   4.845 -0.2571 -0.0679  0.5052
 1546ntf    fn411032   1.239   4.588   4.988  0.5333  0.4566  0.1958
 1546ntf    fn411033   1.026   4.613   5.005  0.2127  0.5295  0.0467
 1546ntf    on511034   1.259   4.750   4.739  0.2441  0.0461  0.1818
 1546ntf    on511035   1.014   4.751   4.744  0.1584  0.0507 -0.4103
 1546ntf    on511036   1.082   5.065   4.759  0.5378  0.8733  0.2829
 1546ntf    on511037   1.177   5.123   4.971 -0.1831 -0.5508  0.1124
 1546ntf    fn411038   0.859   4.926   4.951 -0.1844  0.2283 -0.3202
 1546ntf    fn411039   0.938   5.041   5.109  0.6995 -0.4904  0.5495
 1546ntf    fn411040   0.856   5.138   4.942  0.2578 -0.0687 -0.6149
 1547ntf    cn111041   6.458   5.188   4.786 -0.2134  0.0990 -0.5497
 1547ntf    sn211042   6.483   5.008   4.770 -0.6090 -0.0483  0.3993
 1547ntf    nn311043   6.639   5.025   4.765 -0.6164  0.0750  0.5623
 1547ntf    sn211044   6.741   5.018   4.883 -0.3302 -0.1744  0.3010
 1547ntf    cn111045   6.771   4.838   4.885  0.4240 -0.0520  0.4073
 1547ntf    fn411046   6.528   5.258   4.699  0.5909  0.3938  0.3228
 1547ntf    fn411047   6.331   5.223   4.772 -0.2408  0.2388  0.0074
 1547ntf    fn411048   6.500   5.233   4.903 -0.4212  0.2127 -0.5185
 1547ntf    on511049   6.426   4.930   4.877  0.0610 -0.5452  0.4001
 1547ntf    on511050   6.436   4.985   4.636  0.4791  0.8230 -0.1449
 1547ntf    on511051   6.693   5.053   5.014  0.4972  0.3103  0.4819
 1547ntf    on511052   6.872   5.063   4.843 -0.4603  0.1007  0.1849
 1547ntf    fn411053   6.842   4.799   4.990  0.3925 -0.0233  0.4391
 1547ntf    fn411054   6.658   4.770   4.872  0.4298  0.0044  0.0489
 1547ntf    fn411055   6.844   4.807   4.779  0.0351 -0.1728  0.1727
 1548ntf    cn111056   0.673   3.923   6.456 -0.2824  0.2504 -0.3840
 1548ntf    sn211057   0.780   4.035   6.360  0.0340  0.4177  0.1574
 1548ntf    nn311058   0.665   4.108   6.282  0.3184  0.2208 -0.4543
 1548ntf    sn211059   0.654   4.146   6.130 -0.1838  0.4571 -0.3629
 1548ntf    cn111060   0.543   4.288   6.152 -0.2426  0.3726 -0.1063
 1548ntf    fn411061   0.601   3.992   6.544 -0.6329 -0.2342 -0.2883
 1548ntf    fn411062   0.588   3.863   6.374 -0.2537  0.0279 -0.2501
 1548ntf    fn411063   0.732   3.831   6.530 -0.0286  0.4452 -0.3417
 1548ntf    on511064   0.836   4.122   6.460 -0.5680  0.6985  0.2555
 1548ntf    on511065   0.869   3.949   6.285 -0.2602  0.3227 -0.0863
 1548ntf    on511066   0.577   4.059   6.045  0.2650 -0.0735 -0.2397
 1548ntf    on511067   0.776   4.208   6.084  0.3256  0.0455  0.3945
 1548ntf    fn411068   0.531   4.357   6.040 -0.2157 -0.7561 -0.8203
 1548ntf    fn411069   0.421   4.245   6.179 -0.1806  0.0142 -0.3842
 1548ntf    fn411070   0.572   4.368   6.254 -0.3024 -0.3672  0.4983
 1549ntf    cn111071   0.929   1.674   2.683  0.4209 -0.1377 -0.1046
 1549ntf    sn211072   1.064   1.796   2.685  0.2962  0.0010 -0.0580
 1549ntf    nn311073   0.993   1.926   2.736 -0.4853 -0.6238  0.4796
 1549ntf    sn211074   0.917   2.030   2.646 -0.1868 -0.2450  0.6603
 1549ntf    cn111075   1.059   2.135   2.603 -0.4074 -0.3209 -0.2841
 1549ntf    fn411076   0.850   1.687   2.789  0.4064 -0.1382 -0.1155
 1549ntf    fn411077   0.846   1.688   2.581  0.2928  0.2525  0.0484
 1549ntf    fn411078   0.973   1.550   2.675 -0.2258 -0.4055  0.3268
 1549ntf    on511079   1.147   1.738   2.789 -0.1224 -0.2251  0.1557
 1549ntf    on511080   1.129   1.804   2.557  0.0513 -0.1382 -0.1914
 1549ntf    on511081   0.819   2.110   2.715  0.1602  0.2919  0.5361
 1549ntf    on511082   0.871   1.980   2.519 -0.1272  0.0938  0.5052
 1549ntf    fn411083   1.112   2.094   2.489  0.8644  0.1422  0.1237
 1549ntf    fn411084   1.020   2.261   2.592 -0.0406 -0.1595  0.1907
 1549ntf    fn411085   1.157   2.126   2.692 -0.3027  0.3523 -0.3225
 1550ntf    cn111086   0.948   5.125   0.819  0.2273  0.2280  0.2920
 1550ntf    sn211087   0.894   5.282   0.744  0.4578  0.1570 -0.0285
 1550ntf    nn311088   0.810   5.244   0.617  0.7237 -0.1911 -0.1017
 1550ntf    sn211089   0.834   5.278   0.466  0.3346 -0.2234 -0.1722
 1550ntf    cn111090   0.726   5.423   0.454  0.3453 -0.2106 -0.1234
 1550ntf    fn411091   0.988   5.132   0.945  0.4703 -0.0658  0.2312
 1550ntf    fn411092   0.853   5.034   0.809  0.2103  0.1706  0.9579
 1550ntf    fn411093   1.048   5.081   0.745 -0.1817  0.4809 -0.4274
 1550ntf    on511094   0.811   5.349   0.842 -0.4870 -0.4041 -0.4366
 1550ntf    on511095   1.014   5.356   0.714  0.7733 -0.1657  0.4285
 1550ntf    on511096   0.774   5.174   0.387  0.4339 -0.2680 -0.1898
 1550ntf    on511097   0.966   5.321   0.428  0.5570 -0.7857 -0.0491
 1550ntf    fn411098   0.603   5.379   0.473  0.3658 -0.1319  0.1900
 1550ntf    fn411099   0.754   5.506   0.553 -0.4252 -0.2868  0.1659
 1550ntf    fn411100   0.731   5.480   0.334  0.1479 -0.5427 -0.2907
 1551ntf    cn111101   5.466   2.892   0.814 -0.0411 -0.1015 -0.1597
 1551ntf    sn211102   5.490   2.863   0.636  0.2793  0.2969 -0.1834
 1551ntf    nn311103   5.630   2.793   0.642  0.3336  0.4527  0.3738
 1551ntf    sn211104   5.728   2.767   0.522 -0.4164 -0.2948 -0.0786
 1551ntf    cn111105   5.890   2.759   0.603 -0.5323 -0.3033  0.1519
 1551ntf    fn411106   5.563   2.975   0.850 -0.0206 -0.4371  0.5713
 1551ntf    fn411107   5.353   2.958   0.834 -0.0416  0.0151 -0.5287
 1551ntf    fn411108   5.477   2.785   0.891 -0.0085  0.2038  0.2630
 1551ntf    on511109   5.387   2.768   0.602  0.6427 -0.2605  0.2651
 1551ntf    on511110   5.502   2.994   0.576 -0.1267  0.5423  0.2666
 1551ntf    on511111   5.733   2.873   0.425  0.1922  0.0493  0.3269
 1551ntf    on511112   5.719   2.630   0.476 -0.2897 -0.2511 -0.2342
 1551ntf    fn411113   5.988   2.755   0.514 -0.3515 -0.3870  0.3529
 1551ntf    fn411114   5.908   2.873   0.668 -0.5071  0.0192 -0.4116
 1551ntf    fn411115   5.898   2.658   0.688 -0.1907 -0.1918  0.2550
 1552ntf    cn111116   4.669   5.281   1.159 -0.1212 -0.0079 -0.3098
 1552ntf    sn211117   4.700   5.345   0.992 -0.2235  0.2045 -0.2489
 1552ntf    nn311118   4.624   5.241   0.901 -0.1358 -0.1962  0.1304
 1552ntf    sn211119   4.671   5.113   0.823 -0.2489 -0.4081  0.4082
 1552ntf    cn111120   4.729   5.178   0.663 -0.6032 -0.1910  0.3650
 1552ntf    fn411121   4.542   5.271   1.196 -0.2097 -0.3686 -0.7104
 1552ntf    fn411122   4.726   5.163   1.173 -0.4595 -0.1173  0.1974
 1552ntf    fn411123   4.734   5.349   1.253  0.2960 -0.2880 -0.3960
 1552ntf    on511124   4.643   5.477   0.992  0.8689  0.6889 -0.3339
 1552ntf    on511125   4.844   5.344   0.986 -0.2464  0.2653 -0.8970
 1552ntf    on511126   4.564   5.028   0.777 -0.4796  0.4182 -0.6110
 1552ntf    on511127   4.785   5.042   0.875  0.0851 -0.4341 -0.3522
 1552ntf    fn411128   4.631   5.227   0.590 -0.1270 -0.0030 -0.1543
 1552ntf    fn411129   4.809   5.279   0.691 -0.3097 -0.3905  0.2542
 1552ntf    fn411130   4.793   5.093   0.585  0.2274  0.4247  0.3642
 1553ntf    cn111131   3.787   0.382   4.302  0.2957  0.0579 -0.1087
 1553ntf    sn211132   3.962   0.359   4.345  0.3326  0.1261 -0.2213
 1553ntf    nn311133   3.950   0.325   4.498  0.1568  0.0774 -0.2456
 1553ntf    sn211134   3.951   0.183   4.566  0.0693  0.1382 -0.1161
 1553ntf    cn111135   4.076   0.191   4.698  0.1208  0.5290 -0.1869
 1553ntf    fn411136   3.715   0.278   4.342  0.0428  0.0231 -0.6495
 1553ntf    fn411137   3.735   0.487   4.364 -0.2945 -0.1920 -0.1739
 1553ntf    fn411138   3.770   0.402   4.173  0.3916 -0.0638 -0.1399
 1553ntf    on511139   4.010   0.253   4.259  0.0029 -0.1452 -0.0754
 1553ntf    on511140   4.030   0.483   4.318 -0.3004  0.4974 -0.1170
 1553ntf    on511141   4.001   0.082   4.476 -0.3413  0.1718 -0.3845
 1553ntf    on511142   3.826   0.161   4.634  0.1643  0.0677  0.0373
 1553ntf    fn411143   4.194   0.222   4.647  0.4970 -0.2246  0.2168
 1553ntf    fn411144   4.039   0.274   4.794 -0.1508  0.2057 -0.0107
 1553ntf    fn411145   4.081   0.073   4.756  0.1878  0.7400  0.2386
 1554ntf    cn111146   5.436   1.492   0.650 -0.0396  0.1695  0.2979
 1554ntf    sn211147   5.458   1.313   0.673 -0.0881  0.1064 -0.1458
 1554ntf    nn311148   5.540   1.270   0.546 -0.0208  0.1650 -0.1220
 1554ntf    sn211149   5.487   1.171   0.437  0.2447 -0.2874  0.1579
 1554ntf    cn111150   5.382   1.271   0.327  0.5008 -0.2332 -0.0353
 1554ntf    fn411151   5.358   1.548   0.741 -0.6788  0.1704 -0.2457
 1554ntf    fn411152   5.549   1.561   0.642  0.0523  0.0435  0.4961
 1554ntf    fn411153   5.385   1.510   0.530  0.4063  0.4269  0.1431
 1554ntf    on511154   5.532   1.304   0.796  0.2525 -0.0587 -0.3601
 1554ntf    on511155   5.323   1.263   0.681  0.0535 -0.2545  0.0482
 1554ntf    on511156   5.408   1.058   0.481  0.1361 -0.1858  0.2246
 1554ntf    on511157   5.602   1.133   0.358  0.0938 -0.5761  0.0714
 1554ntf    fn411158   5.456   1.367   0.273 -0.0614  0.3250  0.1765
 1554ntf    fn411159   5.333   1.199   0.226  0.9026 -0.1283 -0.3095
 1554ntf    fn411160   5.286   1.331   0.394  0.2797 -0.3832 -0.2135
 1555ntf    cn111161   4.301   3.101   1.239  0.3962  0.3902 -0.0519
 1555ntf    sn211162   4.481   3.076   1.239  0.3548  0.0855 -0.0691
 1555ntf    nn311163   4.490   2.919   1.241 -0.0025  0.0637 -0.1524
 1555ntf    sn211164   4.595   2.835   1.322 -0.3200  0.0523  0.2504
 1555ntf    cn111165   4.523   2.830   1.489 -0.1304 -0.3307  0.3219
 1555ntf    fn411166   4.250   3.063   1.355  0.2796  0.0105 -0.2230
 1555ntf    fn411167   4.271   3.229   1.228 -0.2148  0.3049  0.5628
 1555ntf    fn411168   4.237   3.032   1.146  0.4701  0.3936 -0.1051
 1555ntf    on511169   4.527   3.133   1.114  0.0332 -0.0972 -0.2705
 1555ntf    on511170   4.526   3.142   1.358 -0.0042 -0.1463  0.1968
 1555ntf    on511171   4.715   2.910   1.346 -0.2613 -0.0929  0.4146
 1555ntf    on511172   4.615   2.697   1.285  0.9467  0.3294 -0.1260
 1555ntf    fn411173   4.605   2.781   1.580  0.4644 -0.0430 -0.0512
 1555ntf    fn411174   4.503   2.953   1.533 -0.3604 -0.2307 -0.0642
 1555ntf    fn411175   4.406   2.769   1.487 -0.2145 -0.1595 -0.4231
 1556ntf    cn111176   1.874   1.179   6.017  0.1382 -0.0271  0.1001
 1556ntf    sn211177   1.777   1.054   6.105  0.1252 -0.1431 -0.0780
 1556ntf    nn311178   1.894   0.961   6.154  0.2418 -0.0997 -0.2761
 1556ntf    sn211179   1.951   0.828   6.093 -0.2104 -0.3509 -0.1568
 1556ntf    cn111180   2.128   0.869   6.109 -0.2000 -0.2671 -0.4838
 1556ntf    fn411181   1.801   1.257   5.939 -0.0584 -0.2812  0.0291
 1556ntf    fn411182   1.945   1.257   6.097  0.0693 -0.1194  0.2506
 1556ntf    fn411183   1.957   1.123   5.930 -0.3648  0.0925 -0.4659
 1556ntf    on511184   1.728   1.135   6.214  0.2496  0.2458 -0.3111
 1556ntf    on511185   1.684   0.998   6.011  0.1823  0.2337 -0.3592
 1556ntf    on511186   1.933   0.820   5.950  0.0374  0.1211 -0.2150
 1556ntf    on511187   1.938   0.713   6.179 -0.3440 -0.6047 -0.5166
 1556ntf    fn411188   2.162   0.918   6.227 -0.2141  0.1907 -0.6652
 1556ntf    fn411189   2.206   0.765   6.084 -0.0185 -0.2969  0.1868
 1556ntf    fn411190   2.162   0.967   6.026 -0.8956 -0.0499 -0.5256
 1557ntf    cn111191   0.660   6.547   2.745 -0.2062  0.4652  0.1791
 1557ntf    sn211192   0.773   6.481   2.618 -0.5771  0.0861  0.0454
 1557ntf    nn311193   0.662   6.432   2.518 -0.5390 -0.5211  0.2939
 1557ntf    sn211194   0.587   6.502   2.399 -0.3749 -0.0048  0.4875
 1557ntf    cn111195   0.665   6.409   2.263 -0.8459  0.0389  0.1845
 1557ntf    fn411196   0.621   6.451   2.827  0.0703  0.2994  0.1179
 1557ntf    fn411197   0.712   6.635   2.830  0.6495 -0.2054  0.3685
 1557ntf    fn411198   0.552   6.603   2.695 -0.4277  0.0755  0.2206
 1557ntf    on511199   0.850   6.594   2.574 -0.6228  0.0495 -0.1317
 1557ntf    on511200   0.840   6.374   2.688  0.0940  0.4878  0.0269
 1557ntf    on511201   0.609   6.643   2.379  0.0062 -0.1390 -0.0497
 1557ntf    on511202   0.448   6.461   2.391 -0.3731  0.1631 -0.4848
 1557ntf    fn411203   0.648   6.279   2.284 -0.2931 -0.0320  0.2028
 1557ntf    fn411204   0.618   6.444   2.145 -0.7114 -0.0692  0.0995
 1557ntf    fn411205   0.794   6.435   2.250 -0.6716 -0.7524  0.3078
 1558ntf    cn111206   4.384   0.098   0.662  0.2609 -0.2319  0.1190
 1558ntf    sn211207   4.216   0.033   0.642  0.0496  0.4179 -0.2694
 1558ntf    nn311208   4.149   0.065   0.781  0.3249 -0.3440  0.0456
 1558ntf    sn211209   4.086  -0.032   0.887 -0.1253  0.2214  0.3034
 1558ntf    cn111210   4.177  -0.001   1.041  0.0917 -0.0025  0.2204
 1558ntf    fn411211   4.388   0.217   0.719 -0.8542 -0.0882 -0.0780
 1558ntf    fn411212   4.459   0.025   0.743 -0.0354 -0.4246  0.2183
 1558ntf    fn411213   4.448   0.108   0.546  0.1997 -0.4182  0.0690
 1558ntf    on511214   4.152   0.109   0.537 -0.1032  1.0718  0.2900
 1558ntf    on511215   4.244  -0.106   0.618  0.2329  0.4457 -0.2214
 1558ntf    on511216   4.115  -0.172   0.867  0.1486  0.2164  0.7269
 1558ntf    on511217   3.952   0.015   0.908 -0.1547  0.3921 -0.2376
 1558ntf    fn411218   4.299  -0.052   1.030 -0.0374 -0.2471 -0.1166
 1558ntf    fn411219   4.193   0.128   1.064 -0.4841 -0.0012  0.6341
 1558ntf    fn411220   4.124  -0.052   1.151 -0.2773  0.3361  0.1987
 1559ntf    cn111221   3.196   3.565   0.784  0.0834  0.1115 -0.0410
 1559ntf    sn211222   3.229   3.437   0.909  0.2444  0.0116 -0.1847
 1559ntf    nn311223   3.383   3.447   0.936  0.1268 -0.1064  0.5694
 1559ntf    sn211224   3.461   3.578   0.972  0.5234 -0.1696 -0.0365
 1559ntf    cn111225   3.599   3.512   1.071  0.5551  0.2328  0.1908
 1559ntf    fn411226   3.069   3.597   0.769  0.0505 -0.2338 -0.5115
 1559ntf    fn411227   3.256   3.682   0.804  0.1914  0.0841 -0.2090
 1559ntf    fn411228   3.250   3.528   0.669 -0.7056 -0.0810 -0.3501
 1559ntf    on511229   3.154   3.483   1.024  0.4388  0.3495 -0.1907
 1559ntf    on511230   3.188   3.317   0.840 -0.3458  0.4924 -0.6822
 1559ntf    on511231   3.394   3.672   1.059 -0.1138 -0.1879 -0.4996
 1559ntf    on511232   3.521   3.634   0.854 -0.1187 -0.0640 -0.3116
 1559ntf    fn411233   3.694   3.603   1.062  0.2049  0.5483 -0.3769
 1559ntf    fn411234   3.570   3.496   1.199  0.2765  0.1885  0.1228
 1559ntf    fn411235   3.653   3.401   1.025  0.0542  0.1416 -0.1865
 1560ntf    cn111236   5.726   3.055   5.269  0.0554  0.6818 -0.2563
 1560ntf    sn211237   5.627   3.199   5.320 -0.2065  0.4260 -0.0348
 1560ntf    nn311238   5.734   3.273   5.408  0.0813 -0.1641  0.1205
 1560ntf    sn211239   5.821   3.399   5.372 -0.1453 -0.0666 -0.0929
 1560ntf    cn111240   5.838   3.480   5.534 -0.1776  0.0508 -0.1484
 1560ntf    fn411241   5.747   2.978   5.375 -0.8389  0.7651 -0.0084
 1560ntf    fn411242   5.667   2.982   5.176 -0.5897  0.3093  0.4355
 1560ntf    fn411243   5.843   3.087   5.218  0.6132 -0.6762  0.1101
 1560ntf    on511244   5.600   3.263   5.194 -0.1799  0.2830 -0.1142
 1560ntf    on511245   5.516   3.141   5.392  0.1042  0.3654  0.3976
 1560ntf    on511246   5.764   3.496   5.282  0.3179  0.5112  0.2305
 1560ntf    on511247   5.958   3.361   5.346 -0.2702 -0.8217  0.2959
 1560ntf    fn411248   5.909   3.409   5.620 -0.0621  0.5508  0.1743
 1560ntf    fn411249   5.896   3.598   5.521  0.3379 -0.1737  0.0874
 1560ntf    fn411250   5.717   3.510   5.579 -0.0369 -0.3409  0.5112
 1561ntf    cn111251   4.536   0.367   1.976  0.4358 -0.2271  0.4179
 1561ntf    sn211252   4.503   0.505   1.862  0.1766 -0.2505  0.4635
 1561ntf    nn311253   4.483   0.623   1.964 -0.2654  0.2008 -0.1400
 1561ntf    sn211254   4.350   0.687   2.017 -0.2588 -0.0372  0.1638
 1561ntf    cn111255   4.317   0.808   1.886  0.2759 -0.4668 -0.3753
 1561ntf    fn411256   4.652   0.387   2.036  0.6388 -0.7542  0.2098
 1561ntf    fn411257   4.441   0.361   2.068 -0.3882 -0.2228 -0.4126
 1561ntf    fn411258   4.539   0.248   1.918  0.2102 -0.0150 -0.0359
 1561ntf    on511259   4.627   0.523   1.789 -0.5737 -0.1653 -0.8229
 1561ntf    on511260   4.391   0.471   1.778  0.2441 -0.2843  0.3866
 1561ntf    on511261   4.377   0.764   2.136  0.0768  0.4909 -0.2543
 1561ntf    on511262   4.233   0.603   2.016 -0.0038 -0.3964  0.1740
 1561ntf    fn411263   4.379   0.795   1.770  0.3676  0.5928 -0.4599
 1561ntf    fn411264   4.189   0.832   1.862  0.2955 -0.1046 -0.1316
 1561ntf    fn411265   4.363   0.923   1.933 -0.0568 -0.4889  0.0107
 1562ntf    cn111266   3.663   5.976   0.160  0.1680  0.1070 -0.2320
 1562ntf    sn211267   3.508   6.063   0.196  0.0346 -0.2641  0.0949
 1562ntf    nn311268   3.557   6.179   0.289 -0.4760  0.1046 -0.0922
 1562ntf    sn211269   3.578   6.331   0.257 -0.3179  0.1796  0.3585
 1562ntf    cn111270   3.428   6.397   0.335 -0.3716  0.3388  0.1215
 1562ntf    fn411271   3.722   5.935   0.271  0.3483  0.6128 -0.1375
 1562ntf    fn411272   3.643   5.873   0.079  0.4983 -0.1428 -0.0008
 1562ntf    fn411273   3.756   6.043   0.093  0.9055 -0.3595  0.3051
 1562ntf    on511274   3.455   6.104   0.068  0.4838 -0.1052 -0.0413
 1562ntf    on511275   3.428   5.965   0.265  0.0860  0.1131  0.6979
 1562ntf    on511276   3.566   6.376   0.120  0.8451  0.2925  0.2785
 1562ntf    on511277   3.669   6.408   0.338  0.1467  0.2251 -0.2011
 1562ntf    fn411278   3.428   6.362   0.462 -0.2339  0.3049  0.1119
 1562ntf    fn411279   3.415   6.529   0.333  0.3805  0.4135 -0.1560
 1562ntf    fn411280   3.314   6.349   0.287 -0.2918  0.2044  0.0660
 1563ntf    cn111281   2.558   2.093   1.108  0.2790  0.2723 -0.0743
 1563ntf    sn211282   2.539   2.273   1.108  0.1408  0.2590  0.3042
 1563ntf    nn311283   2.517   2.300   1.261  0.1992  0.4508  0.2801
 1563ntf    sn211284   2.622   2.361   1.360  0.3262  0.4629  0.1382
 1563ntf    cn111285   2.503   2.464   1.451  0.1810  0.3238  0.1069
 1563ntf    fn411286   2.559   2.047   0.983  0.4871  0.0129  0.0210
 1563ntf    fn411287   2.678   2.061   1.154  0.3784  0.5820 -0.1179
 1563ntf    fn411288   2.467   2.030   1.180  0.4376 -0.4483 -0.4904
 1563ntf    on511289   2.655   2.326   1.040  0.1990  0.3545  0.4786
 1563ntf    on511290   2.418   2.290   1.031  0.1144  0.6653  0.4302
 1563ntf    on511291   2.718   2.450   1.300 -0.0663  0.7281 -0.1003
 1563ntf    on511292   2.666   2.270   1.463  0.7574 -0.0825 -0.5198
 1563ntf    fn411293   2.565   2.507   1.560  0.0727  0.7034  0.0219
 1563ntf    fn411294   2.461   2.576   1.395 -0.2378  0.1557  0.0862
 1563ntf    fn411295   2.392   2.403   1.488  0.4758 -0.5382 -0.3895
 1564ntf    cn111296   5.409   5.555   1.218  0.0668 -0.0664 -0.3849
 1564ntf    sn211297   5.448   5.611   1.387 -0.3993 -0.5201 -0.1240
 1564ntf    nn311298   5.326   5.543   1.458 -0.6209 -0.0883 -0.0865
 1564ntf    sn211299   5.297   5.547   1.612 -0.1489 -0.2096  0.0068
 1564ntf    cn111300   5.210   5.707   1.620  0.1719 -0.0580  0.5373
 1564ntf    fn411301   5.408   5.424   1.208 -0.2494 -0.0662 -0.3487
 1564ntf    fn411302   5.294   5.603   1.175 -0.1329 -0.0868  0.1147
 1564ntf    fn411303   5.499   5.601   1.132  0.5604 -0.5077 -0.1131
 1564ntf    on511304   5.577   5.547   1.401 -0.4444 -0.5646  0.0818
 1564ntf    on511305   5.432   5.754   1.373 -0.6301 -0.5619 -0.3006
 1564ntf    on511306   5.409   5.573   1.700 -0.2764 -0.6514  0.3022
 1564ntf    on511307   5.204   5.446   1.654  0.3747 -0.6691  0.0776
 1564ntf    fn411308   5.106   5.723   1.539  0.4632  0.0069  0.1745
 1564ntf    fn411309   5.169   5.712   1.746 -0.5611  0.3947  0.2840
 1564ntf    fn411310   5.300   5.803   1.609  0.1368 -0.0877 -0.0658
 1565ntf    cn111311   6.736   0.112   4.368  0.2315 -0.0104  0.4224
 1565ntf    sn211312   6.837  -0.018   4.445  0.2535 -0.0059  0.4010
 1565ntf    nn311313   6.781  -0.018   4.592 -0.0250 -0.2675  0.2959
 1565ntf    sn211314   6.843   0.010   4.733  0.0587 -0.0269  0.2130
 1565ntf    cn111315   6.936  -0.145   4.756 -0.2639 -0.2847 -0.2111
 1565ntf    fn411316   6.760   0.132   4.240 -1.0025  0.1770  0.2080
 1565ntf    fn411317   6.610   0.072   4.376  0.1876  0.1433  0.5011
 1565ntf    fn411318   6.760   0.226   4.431 -0.3393  0.6529 -0.5475
 1565ntf    on511319   6.796  -0.137   4.375 -0.0651 -0.5116  1.4138
 1565ntf    on511320   6.969   0.039   4.433 -0.0125  0.5662  0.1446
 1565ntf    on511321   6.751   0.013   4.844  0.1623  0.8383  0.2807
 1565ntf    on511322   6.944   0.113   4.731  0.2361 -0.2023  0.0542
 1565ntf    fn411323   6.853  -0.241   4.792 -0.0890 -0.5639 -0.5422
 1565ntf    fn411324   7.009  -0.183   4.652 -0.1852 -0.3691 -0.1245
 1565ntf    fn411325   7.015  -0.135   4.862 -0.6168  0.5975 -0.0265
 1566ntf    cn111326   1.787   0.228   0.496 -0.0083  0.0854 -0.2387
 1566ntf    sn211327   1.800   0.248   0.676 -0.4256  0.2786 -0.2280
 1566ntf    nn311328   1.814   0.403   0.696 -0.1829  0.1276  0.8953
 1566ntf    sn211329   1.921   0.487   0.774  0.4166  0.0714  0.1539
 1566ntf    cn111330   1.902   0.418   0.941  0.1707 -0.1758  0.0238
 1566ntf    fn411331   1.781   0.101   0.458  0.1162  0.0361 -0.0973
 1566ntf    fn411332   1.680   0.283   0.442 -0.1728 -0.1627 -0.1721
 1566ntf    fn411333   1.889   0.283   0.434 -0.1266  0.4003 -0.1549
 1566ntf    on511334   1.676   0.194   0.725 -0.4483  0.2795 -0.2850
 1566ntf    on511335   1.917   0.170   0.710 -0.8961 -0.1706  0.3836
 1566ntf    on511336   1.879   0.624   0.788  0.2920 -0.0104  0.5974
 1566ntf    on511337   2.056   0.459   0.730  0.4247 -0.0925  0.2782
 1566ntf    fn411338   1.775   0.408   0.978  0.1680  0.1065  0.0966
 1566ntf    fn411339   1.946   0.293   0.951  0.4385 -0.0512  0.4680
 1566ntf    fn411340   1.962   0.490   1.035 -0.4739  0.3718  0.0277
 1567ntf    cn111341   4.206   2.220   0.876 -0.2701 -0.1112 -0.4570
 1567ntf    sn211342   4.345   2.109   0.915 -0.1496  0.1807 -0.0530
 1567ntf    nn311343   4.279   2.009   1.016  0.0975 -0.0661 -0.1371
 1567ntf    sn211344   4.268   2.020   1.172 -0.0588 -0.0865 -0.1470
 1567ntf    cn111345   4.414   1.918   1.206  0.0884  0.1501 -0.0694
 1567ntf    fn411346   4.133   2.185   0.771 -0.0609  0.2107 -0.7121
 1567ntf    fn411347   4.124   2.251   0.975 -0.1476 -0.3416 -0.2817
 1567ntf    fn411348   4.254   2.337   0.838 -0.5196  0.1116 -0.0980
 1567ntf    on511349   4.379   2.046   0.790 -0.9103 -0.1123 -0.1176
 1567ntf    on511350   4.443   2.195   0.977  0.2574 -0.2998 -0.0271
 1567ntf    on511351   4.172   1.925   1.224  0.3290 -0.0946  0.5763
 1567ntf    on511352   4.287   2.139   1.251  0.2404 -0.2829  0.0822
 1567ntf    fn411353   4.420   1.816   1.122 -0.2190  0.1424 -0.0806
 1567ntf    fn411354   4.526   1.986   1.188  0.3261 -0.2352 -0.0591
 1567ntf    fn411355   4.415   1.869   1.329  0.6453 -0.0112 -0.1346
 1568ntf    cn111356   0.592   2.868   5.426  0.1190 -0.1092  0.1877
 1568ntf    sn211357   0.494   2.853   5.274  0.4013 -0.3295  0.0267
 1568ntf    nn311358   0.571   2.961   5.190 -0.1230  0.2771  0.3151
 1568ntf    sn211359   0.551   3.116   5.186 -0.2697  0.2530  0.1394
 1568ntf    cn111360   0.604   3.156   5.016 -0.5465 -0.0586 -0.0214
 1568ntf    fn411361   0.575   2.763   5.504 -0.2099 -0.4614 -0.3528
 1568ntf    fn411362   0.721   2.881   5.396  0.1903 -0.4112  0.3613
 1568ntf    fn411363   0.560   2.978   5.492  0.4410  0.2986 -0.3251
 1568ntf    on511364   0.497   2.713   5.239 -0.0632 -0.4901  0.6124
 1568ntf    on511365   0.363   2.886   5.323  0.7095  0.3592  0.4040
 1568ntf    on511366   0.648   3.173   5.277  0.1465 -0.2254 -0.0019
 1568ntf    on511367   0.413   3.156   5.199 -0.3802 -0.2131  0.4151
 1568ntf    fn411368   0.589   3.284   4.989 -0.2177 -0.0537 -0.1828
 1568ntf    fn411369   0.732   3.125   4.998 -0.3270  0.9054 -0.1409
 1568ntf    fn411370   0.533   3.095   4.923 -0.2284  0.1948 -0.4346
 1569ntf    cn111371   3.883   1.979   4.407  0.2061  0.2504 -0.2821
 1569ntf    sn211372   3.873   2.022   4.230  0.0741 -0.2016 -0.3867
 1569ntf    nn311373   3.962   1.903   4.177  0.9582  0.4807 -0.4615
 1569ntf    sn211374   3.936   1.811   4.053  0.0031  0.2294 -0.0864
 1569ntf    cn111375   3.878   1.942   3.940  0.0532  0.5593  0.2681
 1569ntf    fn411376   4.002   1.995   4.461  0.2230  0.0627 -0.2624
 1569ntf    fn411377   3.798   2.044   4.484  0.1068  0.1433 -0.3007
 1569ntf    fn411378   3.847   1.852   4.416 -0.6503  0.4827 -0.2968
 1569ntf    on511379   3.733   2.026   4.197 -0.0093  0.7456  0.0696
 1569ntf    on511380   3.939   2.150   4.227 -0.1726 -0.0629  0.0036
 1569ntf    on511381   3.822   1.723   4.066  0.2488 -0.0911 -0.0959
 1569ntf    on511382   4.058   1.759   3.997  0.0282  0.0144  0.1696
 1569ntf    fn411383   3.899   1.908   3.814 -0.3821 -0.3659  0.4341
 1569ntf    fn411384   3.750   1.971   3.947 -0.0130  0.3761 -0.1674
 1569ntf    fn411385   3.945   2.054   3.960  0.1445  0.5094  0.2424
 1570ntf    cn111386   5.526   0.500   2.558 -0.4903 -0.0530 -0.0530
 1570ntf    sn211387   5.415   0.388   2.468 -0.2557 -0.1753 -0.1913
 1570ntf    nn311388   5.309   0.492   2.416 -0.0387  0.1361 -0.0108
 1570ntf    sn211389   5.158   0.508   2.455 -0.0855 -0.2635 -0.0262
 1570ntf    cn111390   5.084   0.390   2.338 -0.3624  0.2778 -0.4003
 1570ntf    fn411391   5.468   0.574   2.651  0.1926  0.0717  0.2834
 1570ntf    fn411392   5.622   0.448   2.633 -0.2913 -0.2788 -0.4632
 1570ntf    fn411393   5.592   0.591   2.488 -0.3358 -0.2055 -0.1059
 1570ntf    on511394   5.493   0.341   2.356  0.0140 -0.1162 -0.0300
 1570ntf    on511395   5.368   0.292   2.566 -0.4026 -0.4515 -0.5294
 1570ntf    on511396   5.105   0.637   2.419 -0.3429 -0.3847 -0.0795
 1570ntf    on511397   5.121   0.456   2.584  0.1917 -0.4552 -0.0228
 1570ntf    fn411398   4.977   0.320   2.372  0.2392 -0.3185  0.2862
 1570ntf    fn411399   5.050   0.439   2.219 -0.3246  0.3943 -0.3624
 1570ntf    fn411400   5.176   0.301   2.302 -0.4908  0.0645 -0.2033
 1571ntf    cn111401   4.351   1.293   4.931  0.2588 -0.1806  0.3097
 1571ntf    sn211402   4.382   1.191   5.078  0.0448 -0.2616  0.2990
 1571ntf    nn311403   4.511   1.250   5.144 -0.1338 -0.2213  0.6121
 1571ntf    sn211404   4.524   1.391   5.213  0.0261  0.1821 -0.2257
 1571ntf    cn111405   4.546   1.338   5.386 -0.3167  0.3775 -0.1216
 1571ntf    fn411406   4.313   1.231   4.820  0.3304 -0.2285  0.3117
 1571ntf    fn411407   4.261   1.382   4.968 -0.1161 -0.1926 -0.5360
 1571ntf    fn411408   4.452   1.367   4.889 -0.4010  0.1770 -0.6800
 1571ntf    on511409   4.264   1.203   5.160 -0.2941  0.0511 -0.2303
 1571ntf    on511410   4.418   1.060   5.028 -0.1381 -0.1309 -0.1770
 1571ntf    on511411   4.413   1.484   5.219  0.2725  0.4916 -0.4434
 1571ntf    on511412   4.653   1.452   5.192  0.3675 -0.1892  0.7334
 1571ntf    fn411413   4.658   1.270   5.398 -0.2937  0.4415  0.0244
 1571ntf    fn411414   4.553   1.442   5.467 -0.4367  0.2385  0.0693
 1571ntf    fn411415   4.448   1.257   5.424  0.1538 -0.3833 -0.5151
 1572ntf    cn111416   4.751   1.518   0.160  0.0723  0.1287 -0.1463
 1572ntf    sn211417   4.845   1.407   0.051  0.2755 -0.0410  0.2022
 1572ntf    nn311418   4.721   1.359  -0.032  0.5955  0.0395 -0.3246
 1572ntf    sn211419   4.681   1.427  -0.168 -0.1416 -0.0884 -0.1787
 1572ntf    cn111420   4.762   1.319  -0.290 -0.1536  0.1658 -0.4136
 1572ntf    fn411421   4.672   1.451   0.242  0.3724  0.1984  0.2023
 1572ntf    fn411422   4.833   1.589   0.236 -0.2280  0.8025 -0.4357
 1572ntf    fn411423   4.685   1.609   0.089  0.2539  0.3037 -0.0927
 1572ntf    on511424   4.943   1.490  -0.013  0.5443 -0.0356  0.6199
 1572ntf    on511425   4.894   1.304   0.140 -0.3911 -0.4097  0.1536
 1572ntf    on511426   4.715   1.563  -0.202  0.1889 -0.0542  0.2819
 1572ntf    on511427   4.546   1.387  -0.201 -0.0978 -0.1495 -0.2858
 1572ntf    fn411428   4.747   1.192  -0.255 -0.0380  0.1392 -0.4601
 1572ntf    fn411429   4.710   1.339  -0.409 -0.2106  0.2801 -0.3694
 1572ntf    fn411430   4.893   1.335  -0.288 -0.2497  0.9009  0.3682
 1573ntf    cn111431   2.528   0.187   0.219  0.1011 -0.2350  0.2217
 1573ntf    sn211432   2.655   0.067   0.271  0.3473 -0.0631  0.0226
 1573ntf    nn311433   2.700   0.001   0.136  0.3317 -0.4290  0.1941
 1573ntf    sn211434   2.698  -0.151   0.098 -0.2026 -0.4524  0.3012
 1573ntf    cn111435   2.799  -0.153  -0.053 -0.4875  0.1578  0.0999
 1573ntf    fn411436   2.415   0.131   0.179 -0.0130  0.2496 -0.1248
 1573ntf    fn411437   2.491   0.272   0.313 -0.4345  0.5248 -0.6688
 1573ntf    fn411438   2.570   0.260   0.117  0.1970 -0.1268  0.3377
 1573ntf    on511439   2.757   0.152   0.328  0.2213  0.1270 -0.0349
 1573ntf    on511440   2.581  -0.020   0.360  0.1273  0.3728  0.2677
 1573ntf    on511441   2.571  -0.201   0.052 -0.0449 -0.3410 -0.2586
 1573ntf    on511442   2.782  -0.228   0.186  0.4284 -0.2324 -0.0987
 1573ntf    fn411443   2.819  -0.279  -0.091 -0.1089  0.2046  0.1415
 1573ntf    fn411444   2.742  -0.083  -0.150  0.2613  1.0572  0.2936
 1573ntf    fn411445   2.919  -0.101  -0.037 -0.3663 -0.3496  0.9059
 1574ntf    cn111446   0.373   0.638   3.624  0.0640  0.1440 -0.2305
 1574ntf    sn211447   0.421   0.526   3.759  0.1212  0.3254 -0.0999
 1574ntf    nn311448   0.505   0.413   3.688  0.2473  0.0991  0.4058
 1574ntf    sn211449   0.516   0.258   3.712  0.0672  0.0009 -0.1386
 1574ntf    cn111450   0.658   0.238   3.600 -0.1027 -0.1367 -0.3299
 1574ntf    fn411451   0.292   0.731   3.674 -0.3247 -0.3979  0.1630
 1574ntf    fn411452   0.471   0.700   3.561  0.0205  0.3557 -0.0934
 1574ntf    fn411453   0.305   0.574   3.531  0.0913  0.3867 -0.4180
 1574ntf    on511454   0.513   0.594   3.847  0.0461 -0.0021  0.2358
 1574ntf    on511455   0.292   0.484   3.808 -0.0677  0.4325 -0.4999
 1574ntf    on511456   0.410   0.179   3.654 -0.1473  0.4212 -0.3277
 1574ntf    on511457   0.573   0.209   3.835  0.0918 -0.1205 -0.1988
 1574ntf    fn411458   0.760   0.309   3.645 -0.3759  0.0559 -0.0047
 1574ntf    fn411459   0.697   0.112   3.601  0.5713  0.0642 -0.6662
 1574ntf    fn411460   0.628   0.263   3.473 -0.1061  0.4936 -0.2083
 1575ntf    cn111461   3.579   4.644   5.110  0.0979  0.0267 -0.4537
 1575ntf    sn211462   3.419   4.695   5.040 -0.2543 -0.2828  0.1214
 1575ntf    nn311463   3.434   4.598   4.917 -0.7732 -0.3761  0.1301
 1575ntf    sn211464   3.457   4.633   4.766 -0.0370  0.0437  0.3387
 1575ntf    cn111465   3.284   4.652   4.716  0.0371 -0.2031 -0.0176
 1575ntf    fn411466   3.606   4.694   5.229  0.1393 -0.2587 -0.3412
 1575ntf    fn411467   3.585   4.516   5.141 -0.3137 -0.0408 -0.6409
 1575ntf    fn411468   3.669   4.670   5.017  0.3374  0.1195 -0.1942
 1575ntf    on511469   3.329   4.648   5.143 -0.0127 -0.3868  0.2862
 1575ntf    on511470   3.419   4.838   5.022  0.5432 -0.1714  0.9732
 1575ntf    on511471   3.511   4.527   4.684 -0.0392  0.5022 -0.2592
 1575ntf    on511472   3.514   4.764   4.743  0.3862 -0.0337  0.9195
 1575ntf    fn411473   3.233   4.747   4.794 -0.0958 -0.4286  0.1737
 1575ntf    fn411474   3.261   4.684   4.590 -0.0598  0.2542  0.1149
 1575ntf    fn411475   3.208   4.546   4.740  0.3235 -0.4323 -0.1231
 1576ntf    cn111476   0.800   4.830   5.990 -0.7105 -0.3213 -0.4476
 1576ntf    sn211477   0.903   4.755   5.860  0.0412  0.0608 -0.0790
 1576ntf    nn311478   0.881   4.861   5.746 -0.0913  0.4623  0.3203
 1576ntf    sn211479   0.963   4.986   5.698  0.0052  0.1471 -0.3447
 1576ntf    cn111480   0.832   5.110   5.682 -0.0674  0.1813  0.4492
 1576ntf    fn411481   0.833   4.956   6.013 -0.2026 -0.5390  0.0469
 1576ntf    fn411482   0.674   4.828   5.951 -0.8330 -0.1446 -0.0655
 1576ntf    fn411483   0.799   4.768   6.106  0.9072 -0.0344 -0.2506
 1576ntf    on511484   1.033   4.740   5.920 -0.1746 -0.2953  0.2970
 1576ntf    on511485   0.832   4.632   5.836  0.0174 -0.0427  0.5195
 1576ntf    on511486   1.026   4.953   5.572  0.1883 -0.4284 -0.1078
 1576ntf    on511487   1.045   5.032   5.808  0.2144 -0.7040 -0.1318
 1576ntf    fn411488   0.883   5.226   5.643  0.1025  0.0093  0.1517
 1576ntf    fn411489   0.743   5.064   5.595  0.1495 -0.0001  0.3223
 1576ntf    fn411490   0.769   5.136   5.795 -0.3470 -1.0542  0.5893
 1577ntf    cn111491   3.147   1.867   2.718  0.4459 -0.2311  0.4340
 1577ntf    sn211492   3.132   1.940   2.884 -0.3274  0.0925  0.2294
 1577ntf    nn311493   3.131   2.092   2.845 -0.4327  0.0459  0.0549
 1577ntf    sn211494   3.005   2.183   2.824 -0.2932  0.2079 -0.0819
 1577ntf    cn111495   3.072   2.298   2.701 -0.1052  0.0572 -0.1203
 1577ntf    fn411496   3.226   1.943   2.644  0.4441 -0.2599  0.4029
 1577ntf    fn411497   3.202   1.747   2.717  0.7742 -0.0805 -0.0550
 1577ntf    fn411498   3.032   1.865   2.652  0.5845 -0.0596  0.1887
 1577ntf    on511499   3.010   1.889   2.942 -0.2655 -0.0678  0.2210
 1577ntf    on511500   3.259   1.910   2.946  0.0572  0.1107 -0.5484
 1577ntf    on511501   2.971   2.258   2.942  0.3283 -0.2552  0.3996
 1577ntf    on511502   2.893   2.118   2.760 -0.0287  0.1869 -0.5318
 1577ntf    fn411503   3.094   2.243   2.582 -0.0258 -0.7718  0.2763
 1577ntf    fn411504   2.995   2.402   2.672 -0.5032 -0.2178 -0.0449
 1577ntf    fn411505   3.190   2.341   2.743 -0.3033 -0.1462  0.6512
 1578ntf    cn111506   0.866   1.523   4.577 -0.2468 -0.0476  0.0590
 1578ntf    sn211507   0.850   1.704   4.582  0.1571 -0.0154  0.2522
 1578ntf    nn311508   0.821   1.733   4.430  0.1226 -0.0352  0.2550
 1578ntf    sn211509   0.872   1.852   4.341 -0.2980  0.0118  0.0704
 1578ntf    cn111510   1.024   1.783   4.268 -0.0700  0.4751  0.1020
 1578ntf    fn411511   0.748   1.468   4.555 -0.2947  0.2892 -0.5585
 1578ntf    fn411512   0.947   1.484   4.480 -0.0050 -0.2416  0.3393
 1578ntf    fn411513   0.923   1.471   4.685  0.0612 -0.0415 -0.0990
 1578ntf    on511514   0.738   1.723   4.671  0.6743 -0.8034  1.0798
 1578ntf    on511515   0.981   1.740   4.629  0.4239 -0.3299 -0.2397
 1578ntf    on511516   0.915   1.968   4.416  0.2558 -0.1688  0.0354
 1578ntf    on511517   0.795   1.868   4.221  0.2031 -0.2406 -0.2896
 1578ntf    fn411518   1.068   1.861   4.172 -0.4229  0.1475 -0.3295
 1578ntf    fn411519   1.121   1.776   4.358  0.0391 -0.0772 -0.0535
 1578ntf    fn411520   1.010   1.663   4.215  0.3452  0.5262 -0.1190
 1579ntf    cn111521   4.001   2.217   5.130  0.1095 -0.4096 -0.1375
 1579ntf    sn211522   4.182   2.203   5.119  0.1627  0.2104 -0.0968
 1579ntf    nn311523   4.198   2.057   5.063 -0.0668  0.2423 -0.2486
 1579ntf    sn211524   4.218   2.017   4.912 -0.1126  0.3400 -0.2806
 1579ntf    cn111525   4.399   2.035   4.898 -0.0592 -0.0008 -0.0362
 1579ntf    fn411526   3.971   2.340   5.168  0.2126 -0.3634 -0.2033
 1579ntf    fn411527   3.942   2.181   5.017  0.5986 -0.6239 -0.3279
 1579ntf    fn411528   3.946   2.132   5.215 -0.5525  0.0645 -0.0845
 1579ntf    on511529   4.225   2.314   5.038  0.0946  0.6544  0.4746
 1579ntf    on511530   4.213   2.207   5.259 -0.4591  0.2046  0.0464
 1579ntf    on511531   4.174   2.120   4.822 -0.0897  0.4851 -0.1277
 1579ntf    on511532   4.183   1.881   4.881 -0.8655  0.4416  0.0962
 1579ntf    fn411533   4.448   2.038   5.021 -0.3976  0.0064  0.1001
 1579ntf    fn411534   4.450   1.926   4.842 -0.4798 -0.0838 -0.2633
 1579ntf    fn411535   4.446   2.140   4.833 -0.3306  0.0882 -0.0900
 1580ntf    cn111536   4.441   0.410   2.980  0.4374  0.3066 -0.1094
 1580ntf    sn211537   4.486   0.253   3.059 -0.1300 -0.0052 -0.4008
 1580ntf    nn311538   4.378   0.257   3.173  0.1669 -0.3809 -0.1020
 1580ntf    sn211539   4.296   0.139   3.236  0.2248 -0.3204  0.0869
 1580ntf    cn111540   4.138   0.131   3.147  0.0717  0.2343  0.3102
 1580ntf    fn411541   4.319   0.414   2.929  0.3237  0.3734  0.1673
 1580ntf    fn411542   4.448   0.510   3.066 -0.3219  0.3370 -0.0787
 1580ntf    fn411543   4.522   0.439   2.879  0.1723  0.1858 -0.3584
 1580ntf    on511544   4.445   0.153   2.964 -1.1440  0.0885 -0.0803
 1580ntf    on511545   4.620   0.269   3.109 -0.5752  0.2871  0.7577
 1580ntf    on511546   4.226   0.176   3.357 -0.0686  0.5492 -0.3482
 1580ntf    on511547   4.359   0.009   3.233  0.6988 -0.0879 -0.0725
 1580ntf    fn411548   4.150   0.070   3.030  0.4259  0.1581  0.3867
 1580ntf    fn411549   4.043   0.072   3.217 -0.2799  0.4796  0.0423
 1580ntf    fn411550   4.093   0.251   3.110  0.3321  0.3448  0.3496
 1581ntf    cn111551   6.631   3.757   4.915  0.3527  0.0092 -0.2175
 1581ntf    sn211552   6.497   3.685   5.014  0.4971  0.1287  0.0663
 1581ntf    nn311553   6.375   3.777   4.976  0.1764 -0.5370 -0.5440
 1581ntf    sn211554   6.265   3.743   4.870 -0.4187  0.1585 -0.1565
 1581ntf    cn111555   6.151   3.881   4.902  0.1319  0.5648  0.0547
 1581ntf    fn411556   6.735   3.676   4.916  0.3265 -0.0234  0.2202
 1581ntf    fn411557   6.588   3.769   4.791  0.2100  0.1840 -0.1513
 1581ntf    fn411558   6.659   3.884   4.943  0.2053  0.1056 -0.4953
 1581ntf    on511559   6.497   3.545   4.982 -0.0995 -0.0098  0.6408
 1581ntf    on511560   6.539   3.718   5.148  1.0834  0.1706 -0.1281
 1581ntf    on511561   6.193   3.619   4.882 -0.6587  0.2851 -0.2663
 1581ntf    on511562   6.309   3.782   4.738  0.4105 -0.1435  0.0242
 1581ntf    fn411563   6.215   3.989   4.944 -0.1618  0.5014  0.6848
 1581ntf    fn411564   6.087   3.915   4.791  0.0713  0.2096 -0.0179
 1581ntf    fn411565   6.062   3.862   4.998 -0.0368  0.2410 -0.1661
 1582ntf    cn111566   4.021   0.988   3.668 -0.1756  0.0497 -0.1247
 1582ntf    sn211567   4.037   0.973   3.487  0.1759  0.2833 -0.1118
 1582ntf    nn311568   4.063   0.819   3.481 -0.1754  0.2087  0.2159
 1582ntf    sn211569   3.951   0.709   3.482  0.2519 -0.2333  0.1326
 1582ntf    cn111570   3.911   0.701   3.305  0.0476 -0.3550  0.1833
 1582ntf    fn411571   3.963   0.883   3.724 -0.1845  0.2460  0.2387
 1582ntf    fn411572   4.142   0.979   3.720 -0.2602  0.1036  0.0797
 1582ntf    fn411573   3.960   1.098   3.708 -0.1435  0.1600 -0.3780
 1582ntf    on511574   3.911   1.014   3.431 -0.2506 -0.2006  0.4810
 1582ntf    on511575   4.151   1.057   3.458  0.2752  0.1864 -0.0068
 1582ntf    on511576   3.827   0.741   3.549 -0.0299 -0.0577 -0.4709
 1582ntf    on511577   4.001   0.576   3.505 -0.0663 -0.4696 -0.5248
 1582ntf    fn411578   3.853   0.811   3.261 -0.2136 -0.5059  0.1515
 1582ntf    fn411579   4.023   0.682   3.236  0.4702  0.5775  0.5922
 1582ntf    fn411580   3.825   0.603   3.285 -0.3601  0.0576 -0.0975
 1583ntf    cn111581   5.824   4.657   3.910  0.0647 -0.1973 -0.0217
 1583ntf    sn211582   5.820   4.481   3.863 -0.0413 -0.2157  0.0592
 1583ntf    nn311583   5.695   4.485   3.767 -0.1745  0.0651  0.2416
 1583ntf    sn211584   5.665   4.464   3.615  0.2716 -0.1413  0.1792
 1583ntf    cn111585   5.623   4.288   3.625 -0.2518 -0.0178  0.2159
 1583ntf    fn411586   5.839   4.739   3.808 -0.4113 -0.2018 -0.0971
 1583ntf    fn411587   5.710   4.691   3.968  0.0727 -0.0497 -0.0916
 1583ntf    fn411588   5.922   4.681   3.996 -0.2440  0.1856  0.2246
 1583ntf    on511589   5.946   4.454   3.800  0.0100  0.0965  0.0279
 1583ntf    on511590   5.785   4.429   3.993  0.5338 -0.1316  0.2498
 1583ntf    on511591   5.781   4.464   3.529  0.0159  0.2651 -0.1745
 1583ntf    on511592   5.546   4.526   3.561  0.2419 -0.6541 -0.3552
 1583ntf    fn411593   5.593   4.240   3.505 -0.6221  0.2353  0.2070
 1583ntf    fn411594   5.731   4.226   3.670 -0.2975 -0.4252 -0.2224
 1583ntf    fn411595   5.528   4.253   3.710 -0.0084  0.0047  0.4983
 1584ntf    cn111596   5.056   6.720   1.332  0.2472 -0.0839 -0.3396
 1584ntf    sn211597   5.152   6.870   1.294  0.4372 -0.0968  0.0917
 1584ntf    nn311598   5.171   6.934   1.436 -0.1736  0.0081  0.1276
 1584ntf    sn211599   5.272   7.050   1.471 -0.2089  0.0860 -0.0266
 1584ntf    cn111600   5.153   7.186   1.489 -0.0776  0.1716  0.1924
 1584ntf    fn411601   5.139   6.630   1.379 -0.0819 -0.0863  0.2402
 1584ntf    fn411602   4.965   6.737   1.426  0.6049  0.5561 -0.1037
 1584ntf    fn411603   5.007   6.667   1.221  0.3757 -0.2510 -0.3159
 1584ntf    on511604   5.271   6.805   1.242  0.1866 -0.1067 -0.4806
 1584ntf    on511605   5.063   6.943   1.208 -0.3578 -0.5123  0.5474
 1584ntf    on511606   5.366   7.102   1.375  0.4542 -0.4646  0.3107
 1584ntf    on511607   5.316   7.024   1.606 -0.2904  0.0763 -0.0022
 1584ntf    fn411608   5.204   7.286   1.559 -0.3479  0.2757  0.2423
 1584ntf    fn411609   5.118   7.249   1.378 -0.3929  0.4542  0.4497
 1584ntf    fn411610   5.041   7.152   1.550  0.0413 -0.1610  0.2292
 1585ntf    cn111611   0.236   4.553   3.321 -0.0490  0.2117 -0.0883
 1585ntf    sn211612   0.277   4.379   3.352  0.1741  0.2654 -0.0853
 1585ntf    nn311613   0.135   4.330   3.398 -0.1139  0.1492 -1.0660
 1585ntf    sn211614   0.039   4.228   3.327 -0.2468 -0.2994 -0.2586
 1585ntf    cn111615  -0.036   4.156   3.476  0.2406 -0.3235 -0.0210
 1585ntf    fn411616   0.333   4.617   3.258  0.0124  0.2360  0.0323
 1585ntf    fn411617   0.130   4.570   3.243 -0.0259  0.4219 -0.0734
 1585ntf    fn411618   0.220   4.623   3.432 -0.3753  0.4046 -0.2549
 1585ntf    on511619   0.326   4.333   3.224 -0.2961  0.4710 -0.3427
 1585ntf    on511620   0.373   4.381   3.460  0.3559 -0.1075 -0.2373
 1585ntf    on511621   0.097   4.116   3.257  0.4414 -0.2842  0.2708
 1585ntf    on511622  -0.073   4.301   3.272 -0.1490  0.0750  0.0342
 1585ntf    fn411623  -0.142   4.231   3.503  0.3025 -0.3796  0.3841
 1585ntf    fn411624  -0.071   4.030   3.458  0.0742 -0.1744 -0.7695
 1585ntf    fn411625   0.036   4.162   3.587  0.4006  0.1836 -0.1485
 1586ntf    cn111626   6.036   5.212   1.923  0.1576 -0.1197  0.1074
 1586ntf    sn211627   6.092   5.155   2.087 -0.2040  0.0990  0.3080
 1586ntf    nn311628   6.246   5.177   2.065 -0.3571  0.4485 -0.4788
 1586ntf    sn211629   6.347   5.072   2.006 -0.4605 -0.1415  0.3612
 1586ntf    cn111630   6.474   5.177   1.930 -0.3669 -0.3732  0.1941
 1586ntf    fn411631   6.065   5.138   1.817 -0.7556 -0.1349 -0.1409
 1586ntf    fn411632   5.905   5.230   1.919  0.1338 -0.1074  0.8336
 1586ntf    fn411633   6.090   5.327   1.889 -0.5036  0.2201  0.1878
 1586ntf    on511634   6.034   5.246   2.182  0.0294  0.0250  0.5203
 1586ntf    on511635   6.031   5.024   2.094 -0.1324  0.0306 -0.2979
 1586ntf    on511636   6.290   5.015   1.886 -0.3240 -0.0937  0.2736
 1586ntf    on511637   6.418   4.992   2.102 -0.4966 -0.0741  0.4439
 1586ntf    fn411638   6.548   5.100   1.852  0.2460  0.2767  0.1151
 1586ntf    fn411639   6.424   5.272   1.853  0.5502  0.0604  0.1266
 1586ntf    fn411640   6.551   5.228   2.025 -0.2381 -0.5458  0.1814
 1587ntf    cn111641   2.349   5.502   3.795  0.2232 -0.0819  0.2442
 1587ntf    sn211642   2.405   5.531   3.966  0.0120  0.3514  0.2400
 1587ntf    nn311643   2.272   5.548   4.048 -0.0688  0.1211  0.1577
 1587ntf    sn211644   2.200   5.455   4.152  0.0394  0.0435  0.1630
 1587ntf    cn111645   2.215   5.558   4.301 -0.0343  0.1133  0.1231
 1587ntf    fn411646   2.221   5.525   3.773  0.0293 -1.0524  0.3050
 1587ntf    fn411647   2.410   5.585   3.711  0.6345 -0.4340  0.1919
 1587ntf    fn411648   2.384   5.383   3.748 -0.6140  0.0083 -0.6371
 1587ntf    on511649   2.487   5.418   4.000  0.4983  0.5530 -0.2518
 1587ntf    on511650   2.478   5.654   3.947 -0.3076  0.5917  0.5542
 1587ntf    on511651   2.267   5.334   4.194 -0.2382 -0.0084  0.4575
 1587ntf    on511652   2.059   5.448   4.123  0.0770  0.0370 -0.0233
 1587ntf    fn411653   2.197   5.489   4.413  0.8404 -0.3289  0.0016
 1587ntf    fn411654   2.338   5.605   4.308 -0.0285  0.2135 -0.5529
 1587ntf    fn411655   2.137   5.664   4.292  0.0547  0.1345 -0.4507
 1588ntf    cn111656   5.872   0.869   5.421  0.2090  0.4019 -0.3622
 1588ntf    sn211657   5.741   0.824   5.304  0.0487 -0.1255  0.0196
 1588ntf    nn311658   5.720   0.673   5.343 -0.1788 -0.1324 -0.1287
 1588ntf    sn211659   5.603   0.618   5.430 -0.1041  0.1701  0.1641
 1588ntf    cn111660   5.466   0.592   5.314 -0.2925  0.0236  0.4170
 1588ntf    fn411661   5.995   0.869   5.372  0.1753  0.3114 -0.4458
 1588ntf    fn411662   5.860   0.995   5.462 -0.1461  0.1758  0.2472
 1588ntf    fn411663   5.876   0.799   5.533 -0.9848  0.2555 -0.4015
 1588ntf    on511664   5.629   0.913   5.323 -0.2258 -0.4456 -0.0852
 1588ntf    on511665   5.802   0.835   5.174 -0.1960  0.0368 -0.0831
 1588ntf    on511666   5.546   0.708   5.527 -0.2208  0.1278  0.1360
 1588ntf    on511667   5.634   0.487   5.484  0.0629  0.2573  0.2795
 1588ntf    fn411668   5.361   0.528   5.363 -0.0580  0.1785  1.1250
 1588ntf    fn411669   5.408   0.703   5.271  0.2979  0.3970  0.5754
 1588ntf    fn411670   5.499   0.516   5.210 -0.6013  0.1267  0.2424
 1589ntf    cn111671   5.698   1.417   6.025 -0.2617  0.0154 -0.2273
 1589ntf    sn211672   5.852   1.488   5.959 -0.1415  0.0081  0.0436
 1589ntf    nn311673   5.814   1.640   5.945 -0.4162 -0.0181  0.4781
 1589ntf    sn211674   5.745   1.722   5.830 -0.0959  0.2395  0.4675
 1589ntf    cn111675   5.898   1.800   5.769 -0.0528  0.2467  0.5822
 1589ntf    fn411676   5.696   1.455   6.151  0.6618  0.1424 -0.2428
 1589ntf    fn411677   5.586   1.456   5.965 -0.4712  0.2181  0.2865
 1589ntf    fn411678   5.699   1.285   6.033 -0.0251  0.0009 -0.4652
 1589ntf    on511679   5.955   1.463   6.056  0.4759  0.5161 -0.4684
 1589ntf    on511680   5.870   1.413   5.837  0.2780 -0.0592  0.1485
 1589ntf    on511681   5.664   1.827   5.886 -0.1963  0.3988  0.0251
 1589ntf    on511682   5.687   1.650   5.720  0.1228  0.0775  0.4566
 1589ntf    fn411683   5.955   1.884   5.853 -0.1055  0.4241  0.4409
 1589ntf    fn411684   5.993   1.711   5.743 -0.0384  0.3987  0.1001
 1589ntf    fn411685   5.878   1.868   5.657  0.5145 -0.3216  0.1238
 1590ntf    cn111686   4.203   4.140   0.045  0.3734 -0.0227  0.1994
 1590ntf    sn211687   4.219   4.149   0.226 -0.0865  0.1394  0.2334
 1590ntf    nn311688   4.137   4.281   0.248 -0.1528  0.1254  0.0682
 1590ntf    sn211689   4.191   4.428   0.252 -0.0625  0.0883  0.2406
 1590ntf    cn111690   4.078   4.485   0.121 -0.2688 -0.3788  0.2149
 1590ntf    fn411691   4.251   4.244  -0.021  0.0754 -0.1634 -0.2471
 1590ntf    fn411692   4.267   4.038  -0.010  0.1576  0.4455 -0.9549
 1590ntf    fn411693   4.076   4.130   0.011  0.3645  0.6751  0.0081
 1590ntf    on511694   4.139   4.042   0.281 -0.3549  0.1935 -0.0545
 1590ntf    on511695   4.359   4.142   0.258 -0.0514  0.4208  0.1460
 1590ntf    on511696   4.327   4.440   0.206  0.1449 -0.1618  0.7803
 1590ntf    on511697   4.150   4.514   0.360 -0.5143  0.0300  0.1177
 1590ntf    fn411698   4.107   4.611   0.092 -0.3338 -0.3626  0.2193
 1590ntf    fn411699   4.075   4.421   0.005 -0.1330 -0.0879  0.0506
 1590ntf    fn411700   3.953   4.501   0.159 -0.2167  0.0046  0.2261
 1591ntf    cn111701   5.001   1.241   2.788  0.1467 -0.2314  0.3490
 1591ntf    sn211702   4.874   1.215   2.916 -0.1443 -0.3210  0.0466
 1591ntf    nn311703   4.941   1.082   2.967 -0.0704 -0.1939  0.2833
 1591ntf    sn211704   5.034   1.057   3.090  0.7614  0.1340 -0.2725
 1591ntf    cn111705   4.923   0.986   3.215  0.3170  0.5587 -0.4252
 1591ntf    fn411706   5.124   1.262   2.831  0.4506 -0.1737 -0.5369
 1591ntf    fn411707   5.016   1.133   2.712  0.1371 -0.4571  0.6673
 1591ntf    fn411708   4.982   1.348   2.713 -0.3111 -0.4768  0.1089
 1591ntf    on511709   4.891   1.335   2.995 -0.2374 -0.2499 -0.0406
 1591ntf    on511710   4.752   1.196   2.843 -0.2857  0.5815  0.0386
 1591ntf    on511711   5.085   1.173   3.159  0.1223 -0.1358  0.6848
 1591ntf    on511712   5.125   0.948   3.062  0.7513  0.1572 -0.3928
 1591ntf    fn411713   4.850   0.883   3.175  0.2938  0.3466  0.1487
 1591ntf    fn411714   4.997   0.953   3.320 -0.0499 -0.1981 -0.3960
 1591ntf    fn411715   4.836   1.074   3.261 -0.3523  0.0476 -0.6904
 1592ntf    cn111716   3.585   0.802   4.773 -0.4388 -0.3856 -0.2681
 1592ntf    sn211717   3.500   0.705   4.901  0.1362 -0.1231  0.3197
 1592ntf    nn311718   3.513   0.791   5.031  0.2956  0.0488  0.1911
 1592ntf    sn211719   3.403   0.875   5.106 -0.1559 -0.3152 -0.0572
 1592ntf    cn111720   3.501   0.957   5.234 -0.3066 -0.3821  0.1009
 1592ntf    fn411721   3.553   0.930   4.783  0.1540 -0.2661  0.1333
 1592ntf    fn411722   3.716   0.792   4.791 -0.5619 -0.4095  0.6541
 1592ntf    fn411723   3.563   0.771   4.646  0.1982  0.0469 -0.4876
 1592ntf    on511724   3.368   0.690   4.844  0.0930 -0.4920  0.5115
 1592ntf    on511725   3.574   0.581   4.912  0.2567 -0.1171 -0.3243
 1592ntf    on511726   3.307   0.804   5.187 -0.0625  0.0962  0.4165
 1592ntf    on511727   3.355   0.987   5.029  0.1835 -0.2606 -0.1930
 1592ntf    fn411728   3.564   1.061   5.182 -0.4868 -0.5080 -0.3664
 1592ntf    fn411729   3.436   1.006   5.339  0.1950  0.3573  0.0826
 1592ntf    fn411730   3.586   0.871   5.287  0.7643  0.7230  0.2415
 1593ntf    cn111731   3.778   3.230   2.432  0.2901 -0.0459  0.0211
 1593ntf    sn211732   3.694   3.391   2.447 -0.2858 -0.3342 -0.1080
 1593ntf    nn311733   3.694   3.414   2.602 -0.1419 -0.0832 -0.1457
 1593ntf    sn211734   3.802   3.487   2.690 -0.0664 -0.3847  0.0131
 1593ntf    cn111735   3.731   3.651   2.723  0.4109 -0.0908 -0.4111
 1593ntf    fn411736   3.733   3.142   2.519 -0.0957  0.3047  0.1796
 1593ntf    fn411737   3.764   3.183   2.309  0.0802  0.3957 -0.1261
 1593ntf    fn411738   3.910   3.237   2.448  0.2934 -0.6995  0.2889
 1593ntf    on511739   3.777   3.487   2.380  0.5094  0.0060  1.3177
 1593ntf    on511740   3.565   3.375   2.385 -0.1800 -0.3302 -0.3315
 1593ntf    on511741   3.923   3.513   2.617 -0.2363 -0.1603 -0.1894
 1593ntf    on511742   3.823   3.428   2.820  0.9200 -0.1286 -0.0225
 1593ntf    fn411743   3.813   3.729   2.791 -0.1262 -0.0103  0.1511
 1593ntf    fn411744   3.697   3.728   2.621  0.7260  0.2507 -0.2562
 1593ntf    fn411745   3.624   3.639   2.800  0.4180 -0.2692 -0.4269
 1594ntf    cn111746   3.085   4.402   1.329 -0.5469  0.2250 -0.0120
 1594ntf    sn211747   3.075   4.254   1.224  0.1276  0.2233 -0.0750
 1594ntf    nn311748   2.929   4.218   1.270  0.2852 -0.1505  0.1386
 1594ntf    sn211749   2.796   4.249   1.194  0.4336 -0.1559 -0.1241
 1594ntf    cn111750   2.775   4.089   1.111  0.0031 -0.1700  0.0081
 1594ntf    fn411751   3.001   4.396   1.431 -0.6815 -0.4406 -0.1585
 1594ntf    fn411752   3.201   4.416   1.390 -0.3368  0.4288 -0.4560
 1594ntf    fn411753   3.067   4.520   1.271  0.4889  0.2628 -0.2689
 1594ntf    on511754   3.103   4.291   1.088 -0.3966  0.1598 -0.1999
 1594ntf    on511755   3.162   4.159   1.288  0.3050  0.2391 -0.2910
 1594ntf    on511756   2.796   4.345   1.087 -0.3611  0.2240  0.2063
 1594ntf    on511757   2.683   4.255   1.284  0.3555 -0.0122 -0.2314
 1594ntf    fn411758   2.744   3.995   1.199 -0.2009 -0.1302 -0.0207
 1594ntf    fn411759   2.679   4.095   1.019  0.5711 -0.3458 -0.6090
 1594ntf    fn411760   2.885   4.048   1.049 -0.0394 -0.2009 -0.0473
 1595ntf    cn111761   6.652   1.075   1.820  0.0395  0.3937 -0.0267
 1595ntf    sn211762   6.766   0.966   1.911 -0.0202  0.2539 -0.1199
 1595ntf    nn311763   6.664   0.855   1.955  0.2778 -0.1176 -0.3596
 1595ntf    sn211764   6.688   0.701   1.971 -0.0725 -0.1118  0.2734
 1595ntf    cn111765   6.639   0.639   1.807 -0.3489  0.1206  0.2691
 1595ntf    fn411766   6.607   1.005   1.717 -0.4433  0.0479  0.4126
 1595ntf    fn411767   6.545   1.110   1.889  0.1412  0.3293  0.1637
 1595ntf    fn411768   6.705   1.184   1.767  1.1519 -0.2048 -0.1823
 1595ntf    on511769   6.868   0.921   1.820 -0.1506 -0.3353  0.0218
 1595ntf    on511770   6.807   1.051   2.020 -0.2744  0.0368  0.1472
 1595ntf    on511771   6.591   0.636   2.056 -0.2902  0.3803  0.4012
 1595ntf    on511772   6.826   0.661   1.987  0.0342  0.0581 -0.2112
 1595ntf    fn411773   6.648   0.508   1.799  0.3846  0.1618  0.3996
 1595ntf    fn411774   6.511   0.672   1.792 -0.3058  0.4020  0.4940
 1595ntf    fn411775   6.718   0.685   1.711 -0.0455  0.2902  0.5976
 1596ntf    cn111776   3.681   4.669   1.911  0.0068  0.3023 -0.2156
 1596ntf    sn211777   3.523   4.646   1.998 -0.1382  0.2730 -0.4835
 1596ntf    nn311778   3.514   4.778   2.083 -0.1310  0.0329 -0.1103
 1596ntf    sn211779   3.396   4.859   2.147 -0.1218  0.0644 -0.1334
 1596ntf    cn111780   3.368   4.957   1.996 -0.1974 -0.0199 -0.1747
 1596ntf    fn411781   3.694   4.778   1.837 -0.4461  0.4318 -0.1077
 1596ntf    fn411782   3.782   4.661   1.995 -0.2489  0.1256  0.0771
 1596ntf    fn411783   3.691   4.567   1.827  0.6838  0.1001  0.1092
 1596ntf    on511784   3.424   4.631   1.895  0.1380  0.7079 -0.8157
 1596ntf    on511785   3.559   4.535   2.083 -0.1999  0.4771 -0.1865
 1596ntf    on511786   3.437   4.962   2.239  0.3684  0.0708 -0.3581
 1596ntf    on511787   3.278   4.781   2.176 -0.0726  0.2335  0.5397
 1596ntf    fn411788   3.482   4.955   1.929  0.0417 -0.3000  0.2357
 1596ntf    fn411789   3.285   4.906   1.908 -0.1447  0.1120 -0.3000
 1596ntf    fn411790   3.346   5.086   2.013 -0.3727 -0.1420  0.5774
 1597ntf    cn111791   2.901   1.431   4.967 -0.4508 -0.1091  0.1858
 1597ntf    sn211792   2.770   1.509   5.067 -0.4817 -0.0841  0.1261
 1597ntf    nn311793   2.764   1.644   4.988 -0.6934 -0.1651  0.0048
 1597ntf    sn211794   2.825   1.785   5.019 -0.3656 -0.2918 -0.0608
 1597ntf    cn111795   2.864   1.854   4.855 -0.1920  0.3269  0.2400
 1597ntf    fn411796   3.003   1.515   4.957 -0.1808 -0.4204  0.3347
 1597ntf    fn411797   2.949   1.331   5.039  0.5141  0.3112  0.1420
 1597ntf    fn411798   2.862   1.395   4.846  0.1422 -0.3589  0.0678
 1597ntf    on511799   2.650   1.432   5.044 -0.4185  0.0457 -0.6515
 1597ntf    on511800   2.830   1.515   5.198 -0.0238 -0.4228 -0.0637
 1597ntf    on511801   2.949   1.792   5.091 -0.1414 -0.0103 -0.4691
 1597ntf    on511802   2.722   1.877   5.061  0.0729  0.2962 -0.2604
 1597ntf    fn411803   2.761   1.855   4.772  0.2116 -0.2902 -0.2766
 1597ntf    fn411804   2.922   1.973   4.852  0.0142  0.2267  0.2749
 1597ntf    fn411805   2.947   1.772   4.795  0.2695  0.6832  0.3838
 1598ntf    cn111806   3.123   5.461   0.846  0.0326  0.2281  0.2181
 1598ntf    sn211807   3.122   5.373   0.687 -0.1547  0.2553  0.2039
 1598ntf    nn311808   3.152   5.229   0.742 -0.1146  0.0841 -0.2625
 1598ntf    sn211809   3.209   5.105   0.664  0.0664  0.1728 -0.2734
 1598ntf    cn111810   3.062   5.000   0.679  0.1749 -0.0004 -0.4297
 1598ntf    fn411811   3.104   5.591   0.836 -0.5986  0.1826  0.7351
 1598ntf    fn411812   3.015   5.428   0.915 -0.4955  0.7227 -0.3610
 1598ntf    fn411813   3.233   5.435   0.915  0.2006 -0.0598 -0.1546
 1598ntf    on511814   2.987   5.380   0.638 -0.0689  0.7826  0.0300
 1598ntf    on511815   3.231   5.439   0.618  0.2916 -0.0402  0.6190
 1598ntf    on511816   3.321   5.039   0.727 -0.0387 -0.1154 -0.3861
 1598ntf    on511817   3.222   5.113   0.520  0.0927  0.3230 -0.2627
 1598ntf    fn411818   3.062   4.912   0.579  0.1340 -0.3183 -0.1524
 1598ntf    fn411819   3.056   4.925   0.787  0.1673  0.3429 -0.1918
 1598ntf    fn411820   2.943   5.050   0.650 -0.0803 -0.7059 -0.6227
 1599ntf    cn111821   3.343   2.068   1.804  0.3474  0.0914  0.0183
 1599ntf    sn211822   3.331   1.942   1.933 -0.1348 -0.1299 -0.2397
 1599ntf    nn311823   3.427   1.995   2.045  0.1385 -0.4520 -0.3193
 1599ntf    sn211824   3.582   2.018   2.030  0.0952  0.1245  0.0788
 1599ntf    cn111825   3.645   1.901   2.154 -0.1831 -0.1493 -0.0373
 1599ntf    fn411826   3.246   2.051   1.716 -0.0888 -0.6521  0.6341
 1599ntf    fn411827   3.334   2.193   1.845 -0.6008 -0.1045  0.4247
 1599ntf    fn411828   3.452   2.063   1.728  0.6970  0.1757  0.5136
 1599ntf    on511829   3.193   1.959   1.970 -0.1443 -0.1181 -0.2814
 1599ntf    on511830   3.379   1.819   1.876  0.7100  0.1129 -0.0621
 1599ntf    on511831   3.620   2.149   2.078  0.0992  0.2890 -0.3696
 1599ntf    on511832   3.644   1.975   1.907 -0.1628  0.0597 -0.0314
 1599ntf    fn411833   3.596   1.917   2.276 -0.6122 -0.6141 -0.1465
 1599ntf    fn411834   3.609   1.780   2.115 -0.2853 -0.1396  0.0252
 1599ntf    fn411835   3.777   1.909   2.154 -0.1983  0.1526 -0.5002
 1600ntf    cn111836   1.570   3.851   6.710  0.2771  0.1414  0.3603
 1600ntf    sn211837   1.609   3.754   6.859 -0.1487 -0.4067  0.1187
 1600ntf    nn311838   1.505   3.642   6.821  0.0646 -0.5027 -0.1891
 1600ntf    sn211839   1.363   3.619   6.885  0.1872 -0.2472  0.1816
 1600ntf    cn111840   1.388   3.516   7.033 -0.0052 -0.5259  0.0207
 1600ntf    fn411841   1.666   3.936   6.678  0.4946 -0.3445 -0.2940
 1600ntf    fn411842   1.540   3.771   6.609  0.0901  0.1229  0.4294
 1600ntf    fn411843   1.458   3.919   6.730  0.1547 -0.1553  0.7209
 1600ntf    on511844   1.744   3.706   6.841  0.0681 -0.0337  0.7221
 1600ntf    on511845   1.590   3.845   6.969 -0.1934 -0.2855  0.0116
 1600ntf    on511846   1.287   3.529   6.801  0.0940 -0.0636  0.0691
 1600ntf    on511847   1.305   3.744   6.927  0.3352 -0.2921  0.5226
 1600ntf    fn411848   1.477   3.418   7.021  0.7693  0.1271  0.3321
 1600ntf    fn411849   1.431   3.585   7.137  0.1204  0.0249 -0.3948
 1600ntf    fn411850   1.276   3.455   7.067  0.3286 -0.8651  0.5289
 1601ntf    cn111851   3.265   2.579   1.123  0.1739  0.2060  0.2430
 1601ntf    sn211852   3.133   2.501   1.220 -0.0088  0.4356  0.1810
 1601ntf    nn311853   3.176   2.356   1.176 -0.1779  0.1144  1.0471
 1601ntf    sn211854   3.088   2.233   1.135  0.5323 -0.0516 -0.0164
 1601ntf    cn111855   3.142   2.189   0.967  0.3732 -0.1200 -0.0500
 1601ntf    fn411856   3.271   2.534   0.999 -0.0513 -0.1535  0.3599
 1601ntf    fn411857   3.251   2.711   1.117 -0.2852  0.1761  0.5882
 1601ntf    fn411858   3.387   2.555   1.169  0.3487  0.7068  0.0472
 1601ntf    on511859   3.162   2.533   1.357 -0.0612  0.0786  0.2773
 1601ntf    on511860   3.009   2.549   1.163 -0.0943 -0.4230 -0.3906
 1601ntf    on511861   2.945   2.248   1.128  0.5362  0.0018  0.0281
 1601ntf    on511862   3.127   2.118   1.212 -0.9225 -0.1239  0.6359
 1601ntf    fn411863   3.118   2.284   0.879  0.2498  0.1277  0.2496
 1601ntf    fn411864   3.271   2.162   0.951  0.2735 -0.4725 -0.2652
 1601ntf    fn411865   3.077   2.083   0.922  0.2776 -0.1210  0.0905
 1602ntf    cn111866   4.798   6.618   2.570  0.4729  0.0029 -0.2518
 1602ntf    sn211867   4.708   6.569   2.720  0.0041  0.1118 -0.4984
 1602ntf    nn311868   4.784   6.638   2.838 -0.9243  0.2688  0.0204
 1602ntf    sn211869   4.851   6.574   2.965 -0.1166  0.9118 -0.0746
 1602ntf    cn111870   4.996   6.503   2.881 -0.3915 -0.0180  0.2240
 1602ntf    fn411871   4.805   6.748   2.550 -0.0853  0.0699 -0.0286
 1602ntf    fn411872   4.925   6.578   2.574  0.5473  0.2729  0.0891
 1602ntf    fn411873   4.746   6.572   2.457 -0.0216  0.9056 -0.3963
 1602ntf    on511874   4.578   6.628   2.699 -0.0158  0.3662  0.3252
 1602ntf    on511875   4.715   6.425   2.720 -0.4581  0.0817  0.1490
 1602ntf    on511876   4.792   6.459   3.029  0.1283  0.2459 -1.0187
 1602ntf    on511877   4.911   6.668   3.056  0.1258  0.3541  0.3508
 1602ntf    fn411878   5.095   6.475   2.965 -0.3726  0.2202  0.2821
 1602ntf    fn411879   4.972   6.396   2.808 -0.3075 -0.0976  0.3113
 1602ntf    fn411880   5.044   6.591   2.794 -0.0237  0.0943  0.5357
 1603ntf    cn111881   5.106   5.245   0.164  0.1446 -0.0991 -0.2938
 1603ntf    sn211882   4.968   5.179   0.261  0.2054  0.2291  0.0189
 1603ntf    nn311883   4.848   5.235   0.177 -0.0592 -0.1497  0.1414
 1603ntf    sn211884   4.712   5.162   0.148 -0.1657  0.2572 -0.4010
 1603ntf    cn111885   4.734   5.075  -0.010 -0.1174  0.1322 -0.3256
 1603ntf    fn411886   5.093   5.217   0.035 -0.2282  0.3166 -0.3491
 1603ntf    fn411887   5.108   5.377   0.172 -0.4340 -0.1130  0.0951
 1603ntf    fn411888   5.227   5.204   0.200 -0.0562  0.1359  0.6837
 1603ntf    on511889   4.992   5.037   0.260  0.7724  0.3213 -0.0335
 1603ntf    on511890   4.978   5.250   0.386  0.1990  0.5285 -0.1497
 1603ntf    on511891   4.603   5.252   0.118  0.0150  0.6022 -0.0313
 1603ntf    on511892   4.683   5.049   0.233 -0.0571  0.0902 -0.5834
 1603ntf    fn411893   4.832   4.987   0.002 -0.0741  0.2561  0.2436
 1603ntf    fn411894   4.622   5.008  -0.034 -0.1381 -0.2296  0.7485
 1603ntf    fn411895   4.763   5.154  -0.112 -0.0430  0.2944 -0.1781
 1604ntf    cn111896   0.592   2.712   4.629  0.0139  0.4895 -0.1137
 1604ntf    sn211897   0.716   2.726   4.497 -0.1328 -0.1707 -0.3282
 1604ntf    nn311898   0.697   2.586   4.428 -0.1546  0.0682 -0.8181
 1604ntf    sn211899   0.781   2.455   4.449 -0.1724  0.1287 -0.3545
 1604ntf    cn111900   0.645   2.336   4.467  0.0490 -0.0963 -0.1576
 1604ntf    fn411901   0.659   2.683   4.740 -0.3088 -0.2379 -0.1025
 1604ntf    fn411902   0.521   2.821   4.648 -0.1187  0.4936 -0.6119
 1604ntf    fn411903   0.512   2.609   4.604  0.3360  0.3377 -0.5441
 1604ntf    on511904   0.683   2.845   4.422  0.1874  0.3359  0.3223
 1604ntf    on511905   0.838   2.728   4.574  0.3923 -1.1379 -1.1122
 1604ntf    on511906   0.844   2.437   4.578 -0.2429  0.6050 -0.2509
 1604ntf    on511907   0.848   2.413   4.329 -0.0648 -0.3503 -0.1283
 1604ntf    fn411908   0.573   2.364   4.575  0.5041  0.4602  0.0130
 1604ntf    fn411909   0.561   2.338   4.366  0.1925  0.0580 -0.2755
 1604ntf    fn411910   0.684   2.210   4.479 -0.1276 -0.1246  0.1446
 1605ntf    cn111911   2.068   2.738   2.514 -0.1024 -0.4917 -0.3442
 1605ntf    sn211912   1.938   2.666   2.410 -0.2495 -0.4735 -0.1735
 1605ntf    nn311913   1.947   2.770   2.292  0.2641  0.0871  0.3549
 1605ntf    sn211914   1.837   2.821   2.192  0.1252 -0.1338  0.3940
 1605ntf    cn111915   1.911   2.775   2.032 -0.4322  0.4267 -0.0275
 1605ntf    fn411916   2.040   2.867   2.524 -0.0789 -0.4858 -0.3540
 1605ntf    fn411917   2.100   2.692   2.634 -0.5398 -0.4416 -0.2065
 1605ntf    fn411918   2.182   2.731   2.446  0.0565 -0.0882 -0.1217
 1605ntf    on511919   2.004   2.541   2.379  0.5037 -0.1272  0.0158
 1605ntf    on511920   1.831   2.675   2.506 -0.2136 -0.0376 -0.1722
 1605ntf    on511921   1.822   2.964   2.186  0.2080 -0.1511 -0.4046
 1605ntf    on511922   1.717   2.741   2.185  0.1371 -0.0840 -0.5347
 1605ntf    fn411923   2.019   2.846   2.003 -0.0636  0.0402  0.3752
 1605ntf    fn411924   1.956   2.651   2.030 -0.8061  0.2684  0.7898
 1605ntf    fn411925   1.823   2.786   1.934 -0.8135  0.1716  0.2800
 1606ntf    cn111926   1.931   1.443   4.267 -0.0647  0.1882 -0.0720
 1606ntf    sn211927   1.976   1.593   4.359  0.0870 -0.0268  0.2062
 1606ntf    nn311928   2.072   1.532   4.466 -0.1698 -0.1961  0.3417
 1606ntf    sn211929   2.219   1.571   4.505 -0.1788  0.2026 -0.0127
 1606ntf    cn111930   2.218   1.516   4.678 -0.1697  0.3255  0.0255
 1606ntf    fn411931   2.036   1.366   4.243 -0.2537 -0.1868  0.3053
 1606ntf    fn411932   1.838   1.376   4.332 -0.0269  0.1451 -0.0616
 1606ntf    fn411933   1.879   1.470   4.148 -0.4983 -0.3352 -0.0023
 1606ntf    on511934   2.032   1.685   4.262 -0.1417 -0.1052 -0.0020
 1606ntf    on511935   1.850   1.626   4.422 -0.0289  0.1271 -0.1003
 1606ntf    on511936   2.240   1.713   4.510  0.1808  0.1519 -0.0299
 1606ntf    on511937   2.319   1.493   4.436 -0.1333  0.1742  0.0853
 1606ntf    fn411938   2.313   1.571   4.752  0.2008  0.4301 -0.5226
 1606ntf    fn411939   2.099   1.532   4.733 -0.0961 -0.1387  0.3309
 1606ntf    fn411940   2.249   1.388   4.677  0.5092  0.4902 -0.2543
 1607ntf    cn111941   1.912   1.646   5.965 -0.3282 -0.1834 -0.4896
 1607ntf    sn211942   1.888   1.776   6.090 -0.2839 -0.1134 -0.5533
 1607ntf    nn311943   1.771   1.718   6.179 -0.0309  0.5985  0.2583
 1607ntf    sn211944   1.784   1.673   6.329  0.0206  0.0965  0.1035
 1607ntf    cn111945   1.884   1.523   6.303  0.3930  0.2307  0.7567
 1607ntf    fn411946   2.001   1.695   5.880 -0.0711  0.5780  0.1955
 1607ntf    fn411947   1.954   1.532   6.016 -0.2764  0.0134 -0.0841
 1607ntf    fn411948   1.801   1.617   5.900 -0.6353  0.0025 -0.0555
 1607ntf    on511949   2.013   1.782   6.162 -0.2590 -0.6380 -0.5441
 1607ntf    on511950   1.851   1.894   6.016  0.5406  0.6604  0.2452
 1607ntf    on511951   1.650   1.639   6.369  0.0378 -0.0597  0.0320
 1607ntf    on511952   1.855   1.760   6.419  0.0123  0.5050 -0.2786
 1607ntf    fn411953   1.838   1.450   6.203  0.2310  0.9645  0.2885
 1607ntf    fn411954   2.012   1.532   6.270  0.2192 -0.5620 -0.1621
 1607ntf    fn411955   1.880   1.438   6.404 -0.1904 -0.1627  0.4085
 1608ntf    cn111956   3.294   1.112   6.450  0.1509 -0.2219 -0.1001
 1608ntf    sn211957   3.246   0.941   6.490 -0.4954  0.0641  0.3681
 1608ntf    nn311958   3.315   0.917   6.628 -0.4224 -0.7409  0.1980
 1608ntf    sn211959   3.452   0.846   6.660 -0.2411 -0.4171  0.1478
 1608ntf    cn111960   3.397   0.679   6.706  0.0201 -0.4936  0.1826
 1608ntf    fn411961   3.240   1.197   6.536  0.4023 -0.1681  0.0080
 1608ntf    fn411962   3.423   1.138   6.468  0.0222 -0.0513  0.6185
 1608ntf    fn411963   3.266   1.145   6.325 -0.4324 -0.5373 -0.0557
 1608ntf    on511964   3.104   0.954   6.513 -0.5527 -0.1161  0.1266
 1608ntf    on511965   3.300   0.864   6.380 -0.4102  0.1884  0.3220
 1608ntf    on511966   3.504   0.882   6.790  0.7157  0.0364 -0.3554
 1608ntf    on511967   3.547   0.839   6.552 -0.2222  0.2427  0.1178
 1608ntf    fn411968   3.288   0.680   6.781 -0.0524  0.0946  0.0763
 1608ntf    fn411969   3.362   0.613   6.597 -0.3890  0.4911 -0.3013
 1608ntf    fn411970   3.498   0.618   6.766  0.1774  0.1070  0.5375
 1609ntf    cn111971   4.631   6.713   0.106 -0.1229 -0.1282 -0.2567
 1609ntf    sn211972   4.685   6.833  -0.019  0.0735  0.0511 -0.0020
 1609ntf    nn311973   4.821   6.866   0.052 -0.0439  0.6672 -0.0610
 1609ntf    sn211974   4.967   6.814   0.026 -0.3486 -0.0826 -0.2819
 1609ntf    cn111975   5.067   6.958   0.075 -0.5116 -0.0827  0.0510
 1609ntf    fn411976   4.507   6.672   0.087 -0.0609 -0.3536 -0.1816
 1609ntf    fn411977   4.704   6.602   0.104 -0.0426 -0.0803 -0.0437
 1609ntf    fn411978   4.635   6.762   0.229  0.0203 -0.8134  0.0192
 1609ntf    on511979   4.694   6.746  -0.134  0.0504 -0.1468  0.1458
 1609ntf    on511980   4.576   6.927  -0.010 -0.3244 -0.4063  0.0025
 1609ntf    on511981   5.008   6.788  -0.110  0.3282  0.5610 -0.2049
 1609ntf    on511982   5.007   6.710   0.117  0.3400  0.0220 -0.4614
 1609ntf    fn411983   5.060   6.974   0.206 -0.6271  1.2557 -0.1122
 1609ntf    fn411984   5.194   6.951   0.042 -0.5447  0.1646 -0.1300
 1609ntf    fn411985   5.028   7.074   0.025 -0.3019 -0.0822 -0.1092
 1610ntf    cn111986   2.073   6.278   5.113 -0.0071  0.1261 -0.6183
 1610ntf    sn211987   2.221   6.382   5.098  0.2423 -0.0921  0.3234
 1610ntf    nn311988   2.331   6.302   5.176  0.4342  0.0766  0.2261
 1610ntf    sn211989   2.418   6.179   5.131 -0.0323 -0.1789  0.0231
 1610ntf    cn111990   2.582   6.245   5.092 -0.1197  0.1435  0.1975
 1610ntf    fn411991   1.973   6.346   5.057  0.3991  0.5616 -0.8236
 1610ntf    fn411992   2.095   6.160   5.058  0.0269  0.0882 -0.5233
 1610ntf    fn411993   2.042   6.252   5.239  0.7769  0.3777 -0.3724
 1610ntf    on511994   2.241   6.391   4.956  0.4321  0.1237  0.3623
 1610ntf    on511995   2.177   6.505   5.160  0.5931  0.3888 -0.3665
 1610ntf    on511996   2.377   6.117   5.007 -0.0954  0.3357 -0.2136
 1610ntf    on511997   2.442   6.091   5.243  0.0735  0.3424  0.4110
 1610ntf    fn411998   2.625   6.335   5.179 -0.2374  0.6400 -0.2501
 1610ntf    fn411999   2.673   6.149   5.100 -0.4599 -0.1801  0.2377
 1610ntf    fn412000   2.587   6.301   4.972  0.2424  0.1230  0.2018
 1611ntf    cn112001   5.926   6.088   0.160  0.4021  0.7787  0.1764
 1611ntf    sn212002   6.020   6.187   0.040  0.0359  0.6588 -0.2097
 1611ntf    nn312003   6.167   6.137   0.063 -0.0733  0.3143 -0.2481
 1611ntf    sn212004   6.275   6.212   0.149  0.0494 -0.1335 -0.0074
 1611ntf    cn112005   6.336   6.332   0.027 -0.0837 -0.0085  0.0497
 1611ntf    fn412006   5.899   5.960   0.139 -0.1403  0.6855  1.3241
 1611ntf    fn412007   5.985   6.079   0.279 -0.1232 -0.0408  0.3817
 1611ntf    fn412008   5.805   6.140   0.177 -0.1657 -0.5122  0.2122
 1611ntf    on512009   5.967   6.143  -0.087 -0.2570  0.3940  0.0036
 1611ntf    on512010   5.989   6.322   0.081 -0.6730  0.4141  0.0851
 1611ntf    on512011   6.391   6.128   0.168 -0.2587 -0.6171 -0.2381
 1611ntf    on512012   6.236   6.289   0.264 -0.1199 -0.3057  0.0507
 1611ntf    fn412013   6.239   6.403  -0.028  0.1659  0.1413 -0.2017
 1611ntf    fn412014   6.425   6.413   0.082 -0.1391 -0.0593  0.2130
 1611ntf    fn412015   6.400   6.274  -0.073 -0.6552  0.0417 -0.3496
 1612ntf    cn112016   3.892   2.927   0.396  0.3138  0.1492  0.4589
 1612ntf    sn212017   3.837   2.877   0.562 -0.2008 -0.2362  0.1752
 1612ntf    nn312018   3.969   2.809   0.615  0.2014 -0.0610 -0.5983
 1612ntf    sn212019   4.005   2.657   0.631  0.1773  0.0149  0.1684
 1612ntf    cn112020   3.923   2.621   0.790  0.1899  0.1599  0.2083
 1612ntf    fn412021   3.794   2.980   0.326  0.1073 -0.1376  0.5270
 1612ntf    fn412022   3.988   3.017   0.400  0.4495  0.0495 -0.3454
 1612ntf    fn412023   3.938   2.824   0.327  0.1374  0.2620  0.1746
 1612ntf    on512024   3.817   2.994   0.643  0.8548 -0.1331  0.3028
 1612ntf    on512025   3.727   2.786   0.537  0.1101 -0.5873  0.0718
 1612ntf    on512026   4.146   2.641   0.653  0.2998  0.6474 -0.1166
 1612ntf    on512027   3.940   2.562   0.545 -0.5389  0.6703 -0.0290
 1612ntf    fn412028   3.965   2.690   0.894  0.9741 -0.0406  0.0341
 1612ntf    fn412029   3.793   2.645   0.780  0.0084 -0.7105  0.3761
 1612ntf    fn412030   3.928   2.496   0.833  0.2477  0.2027  0.3254
 1613ntf    cn112031   0.130   0.041   3.771 -0.0462 -0.4288 -0.5692
 1613ntf    sn212032  -0.023   0.139   3.767  0.0686 -0.2150  0.1514
 1613ntf    nn312033  -0.029   0.169   3.613  0.2973 -0.0798  0.1690
 1613ntf    sn212034  -0.002   0.301   3.532  0.0798 -0.0510  0.1435
 1613ntf    cn112035  -0.175   0.339   3.492  0.0264 -0.2535  0.1777
 1613ntf    fn412036   0.179   0.008   3.653  0.4132 -0.1439 -0.4608
 1613ntf    fn412037   0.220   0.113   3.835 -0.5708 -0.6353  0.4241
 1613ntf    fn412038   0.126  -0.072   3.841 -0.3117  0.0948  0.2740
 1613ntf    on512039  -0.133   0.052   3.802 -0.3079  0.1210 -0.1875
 1613ntf    on512040  -0.000   0.258   3.844  0.6100  0.2075 -0.6490
 1613ntf    on512041   0.050   0.287   3.398 -0.2995 -0.2134  0.0111
 1613ntf    on512042   0.044   0.411   3.614  0.4949 -0.0869 -0.0378
 1613ntf    fn412043  -0.181   0.453   3.424 -0.6323 -0.2362  0.2556
 1613ntf    fn412044  -0.240   0.243   3.428  0.4738 -0.1107 -0.4906
 1613ntf    fn412045  -0.243   0.365   3.603 -0.1631  0.5042 -0.1066
 1614ntf    cn112046   2.071   4.811   6.366  0.2304  0.1656  0.3383
 1614ntf    sn212047   2.091   4.899   6.524  0.2487 -0.0278  0.4440
 1614ntf    nn312048   2.199   5.004   6.481 -0.3002  0.1213 -0.6048
 1614ntf    sn212049   2.350   5.022   6.520 -0.5055  0.3242  0.0979
 1614ntf    cn112050   2.437   5.052   6.363  0.0922  0.1134  0.3839
 1614ntf    fn412051   1.976   4.718   6.375  0.3954 -0.0746 -0.3584
 1614ntf    fn412052   2.033   4.891   6.268 -0.2554 -0.2142  0.2114
 1614ntf    fn412053   2.182   4.756   6.321  0.2850  0.4040  0.1847
 1614ntf    on512054   1.968   4.973   6.534  0.1991 -0.1104  0.4533
 1614ntf    on512055   2.117   4.796   6.622 -0.1293 -0.4585  0.0983
 1614ntf    on512056   2.408   4.904   6.579 -0.1637  0.0256 -0.8258
 1614ntf    on512057   2.368   5.148   6.589 -0.2458  0.5810 -0.4351
 1614ntf    fn412058   2.408   4.946   6.290  0.3278  0.1350  0.2589
 1614ntf    fn412059   2.390   5.160   6.303 -0.6573 -0.2376  0.3171
 1614ntf    fn412060   2.569   5.058   6.366  0.1039 -0.0297  0.0948
 1615ntf    cn112061   1.030   4.231   1.089  0.0189  0.2863 -0.0902
 1615ntf    sn212062   1.084   4.257   1.261  0.0518 -0.1758 -0.0311
 1615ntf    nn312063   1.206   4.161   1.285  0.1007 -0.1184 -0.0506
 1615ntf    sn212064   1.349   4.195   1.339 -0.0263 -0.1324  0.3037
 1615ntf    cn112065   1.426   4.256   1.185 -0.5105 -0.1714  0.0449
 1615ntf    fn412066   1.125   4.270   1.006  0.3141 -0.1210  0.0529
 1615ntf    fn412067   1.005   4.104   1.064 -0.0967  0.2963 -0.0233
 1615ntf    fn412068   0.920   4.295   1.053 -0.0238  0.1731 -0.1609
 1615ntf    on512069   1.110   4.398   1.265  0.2680 -0.2069 -0.2857
 1615ntf    on512070   0.970   4.213   1.338 -0.2116 -0.1670 -0.4099
 1615ntf    on512071   1.426   4.075   1.364 -0.6086 -0.5268  0.2293
 1615ntf    on512072   1.358   4.307   1.428  0.1058  0.5533 -0.5519
 1615ntf    fn412073   1.541   4.312   1.221 -0.1868 -0.7909 -0.0198
 1615ntf    fn412074   1.462   4.159   1.103 -0.2605  0.0420 -0.0977
 1615ntf    fn412075   1.355   4.344   1.117  0.0148 -0.0754 -0.3815
 1616ntf    cn112076   2.646   2.162   6.510  0.4949 -0.0455 -0.4007
 1616ntf    sn212077   2.722   2.327   6.503  0.2432  0.0946  0.1242
 1616ntf    nn312078   2.708   2.361   6.350 -0.2396 -0.1458  0.1115
 1616ntf    sn212079   2.816   2.346   6.237 -0.0575  0.0102  0.2612
 1616ntf    cn112080   2.719   2.245   6.120  0.4532 -0.1348 -0.0411
 1616ntf    fn412081   2.522   2.164   6.466  0.3821  0.3411 -0.0773
 1616ntf    fn412082   2.710   2.078   6.430 -0.0448 -0.2432 -0.6256
 1616ntf    fn412083   2.654   2.110   6.631  0.3665  0.2994 -0.2437
 1616ntf    on512084   2.633   2.402   6.589  0.1163 -0.1781  0.2298
 1616ntf    on512085   2.857   2.312   6.550  0.0154 -0.5135  0.5892
 1616ntf    on512086   2.928   2.257   6.256 -0.2796 -0.1899  0.6445
 1616ntf    on512087   2.846   2.466   6.163 -0.3878  0.4047  0.7659
 1616ntf    fn412088   2.788   2.206   6.014 -0.3252 -0.0654 -0.5824
 1616ntf    fn412089   2.668   2.143   6.187  0.2692  0.2449  0.4030
 1616ntf    fn412090   2.615   2.309   6.068 -0.0007 -0.6056  0.2748
 1617ntf    cn112091   5.994   4.462   6.651  0.3653  0.1978  0.0154
 1617ntf    sn212092   5.920   4.305   6.598  0.2605  0.2550 -0.0081
 1617ntf    nn312093   5.989   4.224   6.712 -0.4235 -0.1205  0.1440
 1617ntf    sn212094   5.922   4.127   6.816 -0.2317  0.1414  0.5108
 1617ntf    cn112095   5.925   3.964   6.736 -0.2399  0.2896  0.2073
 1617ntf    fn412096   5.998   4.478   6.782  0.1971  0.4402 -0.0080
 1617ntf    fn412097   6.122   4.460   6.620  0.4470 -0.0023  0.3611
 1617ntf    fn412098   5.939   4.567   6.592 -0.0457 -0.0662 -0.0791
 1617ntf    on512099   5.780   4.339   6.610  0.1923 -0.1244  0.2828
 1617ntf    on512100   5.982   4.283   6.470  0.6652  0.0740  0.2201
 1617ntf    on512101   5.784   4.151   6.849 -0.3520  0.3311 -0.1220
 1617ntf    on512102   6.009   4.105   6.929 -0.0848 -0.0246  0.3665
 1617ntf    fn412103   5.833   3.948   6.642  0.0881  0.5695 -0.1617
 1617ntf    fn412104   6.039   3.944   6.673 -0.1589  0.1061  0.4080
 1617ntf    fn412105   5.924   3.856   6.813 -0.3113  0.3177  0.2466
 1618ntf    cn112106   6.622   2.733   0.822 -0.0384 -0.1127  0.0727
 1618ntf    sn212107   6.787   2.662   0.850 -0.0070 -0.1364 -0.1772
 1618ntf    nn312108   6.819   2.707   0.997  0.0526  0.0126 -0.2354
 1618ntf    sn212109   6.922   2.819   1.033  0.2773 -0.1680 -0.3167
 1618ntf    cn112110   6.886   2.823   1.211  0.2124 -0.4316 -0.3236
 1618ntf    fn412111   6.532   2.693   0.911 -0.6111 -0.1097 -0.5041
 1618ntf    fn412112   6.621   2.865   0.830  0.4899 -0.0883 -0.2303
 1618ntf    fn412113   6.574   2.712   0.701  0.0492  0.2748 -0.0318
 1618ntf    on512114   6.763   2.520   0.842 -0.8084 -0.0102 -0.0464
 1618ntf    on512115   6.876   2.719   0.752 -0.0422  0.8709  0.3634
 1618ntf    on512116   6.886   2.950   0.984  0.0504 -0.0531  0.1580
 1618ntf    on512117   7.059   2.774   1.040  0.3660  0.2461  0.6779
 1618ntf    fn412118   6.782   2.898   1.242  0.4875 -0.0269 -0.3754
 1618ntf    fn412119   6.875   2.705   1.269 -0.1108 -0.2300  0.0230
 1618ntf    fn412120   6.982   2.884   1.278 -0.0622  0.0395 -0.3515
 1619ntf    cn112121   4.928   6.042   0.705 -0.3011  0.4474  0.1526
 1619ntf    sn212122   4.997   6.093   0.865 -0.0678  0.0947  0.1660
 1619ntf    nn312123   4.861   6.092   0.943 -0.3685 -0.4544 -0.3545
 1619ntf    sn212124   4.807   6.195   1.048 -0.2653 -0.8725  0.1157
 1619ntf    cn112125   4.942   6.213   1.167  0.2316 -0.2652 -0.5317
 1619ntf    fn412126   5.017   6.012   0.611 -0.6061 -0.2250  0.0723
 1619ntf    fn412127   4.857   5.932   0.722 -0.5463  0.6682  0.5660
 1619ntf    fn412128   4.847   6.137   0.661 -0.3527  0.0813 -0.5575
 1619ntf    on512129   5.077   5.982   0.910 -0.3501  0.0492  0.5559
 1619ntf    on512130   5.069   6.213   0.829 -0.4522  0.3859  0.3678
 1619ntf    on512131   4.706   6.139   1.135 -0.0773 -0.2985  0.7098
 1619ntf    on512132   4.786   6.328   0.996 -1.2047 -0.9754  0.2047
 1619ntf    fn412133   5.058   6.251   1.116  0.3687 -0.1641 -0.1507
 1619ntf    fn412134   4.916   6.310   1.255  0.2968 -0.3140 -0.4586
 1619ntf    fn412135   4.975   6.106   1.237 -0.3530 -0.1893 -0.1323
 1620ntf    cn112136   4.903   2.310   2.749  0.0489  0.1272  0.2831
 1620ntf    sn212137   4.740   2.252   2.804  0.1293 -0.1151  0.2680
 1620ntf    nn312138   4.786   2.115   2.865  0.5401 -0.0179  0.1831
 1620ntf    sn212139   4.778   1.969   2.806  0.0560  0.1432 -0.1542
 1620ntf    cn112140   4.730   1.874   2.953  0.0150 -0.3504 -0.4867
 1620ntf    fn412141   4.958   2.224   2.664 -0.3990  0.1492 -0.0346
 1620ntf    fn412142   4.904   2.423   2.680  0.6408 -0.1033 -0.0966
 1620ntf    fn412143   4.992   2.321   2.846  0.0772 -0.0637  0.2791
 1620ntf    on512144   4.706   2.342   2.912  0.7745  0.4773 -0.0174
 1620ntf    on512145   4.666   2.246   2.681  0.0775  0.2465  0.2807
 1620ntf    on512146   4.909   1.918   2.777  0.1984  0.4212 -0.0051
 1620ntf    on512147   4.672   1.948   2.710 -0.4503  0.1646  0.3895
 1620ntf    fn412148   4.740   1.743   2.933  0.0159 -0.4167 -0.0706
 1620ntf    fn412149   4.791   1.902   3.068 -0.1635  0.1191 -0.5047
 1620ntf    fn412150   4.607   1.906   2.988  0.3612  0.2796  0.1913
 1621ntf    cn112151   0.398   5.727   4.829  0.1390  0.1600 -0.4988
 1621ntf    sn212152   0.507   5.687   4.689  0.4834 -0.3344 -0.0923
 1621ntf    nn312153   0.415   5.623   4.580  0.2634 -0.0299 -0.0882
 1621ntf    sn212154   0.336   5.685   4.459 -0.2619 -0.0794  0.2272
 1621ntf    cn112155   0.460   5.712   4.329  0.0657 -0.1750  0.5204
 1621ntf    fn412156   0.464   5.774   4.933  0.2628 -0.0017 -0.5050
 1621ntf    fn412157   0.319   5.832   4.807  0.2093  0.3275  0.0345
 1621ntf    fn412158   0.332   5.621   4.873  0.3061  0.1492 -0.2724
 1621ntf    on512159   0.572   5.813   4.662  0.2015 -0.0612  0.4872
 1621ntf    on512160   0.587   5.584   4.750  0.4373 -0.0427  0.4759
 1621ntf    on512161   0.281   5.814   4.491 -0.2213  0.1002 -0.4039
 1621ntf    on512162   0.253   5.587   4.392 -0.2138 -0.5236  0.8094
 1621ntf    fn412163   0.484   5.606   4.255 -0.6674  0.0440 -0.0420
 1621ntf    fn412164   0.427   5.803   4.239 -0.1572 -0.3461  0.4309
 1621ntf    fn412165   0.576   5.744   4.385  0.3700  0.3087 -0.3685
 1622ntf    cn112166   4.011   0.498   0.242  0.3854  0.0800 -0.3148
 1622ntf    sn212167   4.127   0.624   0.304 -0.2373  0.3985  0.2109
 1622ntf    nn312168   4.263   0.571   0.245 -0.2940  0.5853 -0.0852
 1622ntf    sn212169   4.342   0.616   0.117  0.1566  0.1511  0.0405
 1622ntf    cn112170   4.440   0.755   0.180  0.0033  0.2870 -0.0205
 1622ntf    fn412171   4.024   0.474   0.112 -0.6267  0.4940 -0.5018
 1622ntf    fn412172   4.034   0.384   0.305  0.1751  0.0307 -0.3267
 1622ntf    fn412173   3.883   0.527   0.257  0.3982  0.0984 -0.2450
 1622ntf    on512174   4.064   0.742   0.251 -0.1560  0.2333 -0.2557
 1622ntf    on512175   4.113   0.614   0.447  0.3532  0.1296  0.2538
 1622ntf    on512176   4.261   0.674   0.013 -0.1279 -0.4431 -0.0738
 1622ntf    on512177   4.429   0.509   0.075  0.6120  0.5647 -0.0795
 1622ntf    fn412178   4.374   0.854   0.238  0.0746  0.1323  0.3301
 1622ntf    fn412179   4.522   0.704   0.271  0.2349  0.0676 -0.3499
 1622ntf    fn412180   4.510   0.817   0.087  0.2266  0.6340  0.3703
 1623ntf    cn112181   2.251   6.208   3.501  0.4981  0.1128 -0.0288
 1623ntf    sn212182   2.102   6.172   3.597  0.3803 -0.0261 -0.2628
 1623ntf    nn312183   1.992   6.234   3.504 -0.1213 -0.2898  0.1464
 1623ntf    sn212184   1.837   6.212   3.510 -0.2108  0.3353  0.2281
 1623ntf    cn112185   1.784   6.368   3.588 -0.3889  0.2119  0.3546
 1623ntf    fn412186   2.260   6.136   3.390  0.0206  0.1835 -0.1163
 1623ntf    fn412187   2.256   6.331   3.452  0.0663  0.2119  0.1800
 1623ntf    fn412188   2.356   6.187   3.578  0.5745  0.0948 -0.1373
 1623ntf    on512189   2.090   6.028   3.600 -0.9421  0.0778  0.2303
 1623ntf    on512190   2.122   6.246   3.719  0.6468 -0.2921 -0.1428
 1623ntf    on512191   1.796   6.107   3.600  0.1512  0.3063  0.3587
 1623ntf    on512192   1.782   6.203   3.377 -0.4454 -0.5780  0.3806
 1623ntf    fn412193   1.809   6.474   3.513  0.4729 -0.4006 -0.2394
 1623ntf    fn412194   1.657   6.379   3.625 -0.3622 -0.0181  0.5156
 1623ntf    fn412195   1.860   6.393   3.692 -0.2134  0.3329  0.1970
 1624ntf    cn112196   6.133   4.648   0.552 -0.2135  0.0710  0.0739
 1624ntf    sn212197   6.152   4.497   0.453  0.1527  0.1105  0.0850
 1624ntf    nn312198   6.216   4.395   0.555  0.2492  0.3028  0.2160
 1624ntf    sn212199   6.362   4.349   0.585  0.2636  0.0504 -0.2353
 1624ntf    cn112200   6.347   4.176   0.529 -0.2531  0.1565 -0.4279
 1624ntf    fn412201   6.254   4.686   0.588 -0.1868 -0.3588  0.4415
 1624ntf    fn412202   6.075   4.738   0.473  0.1866  0.2468 -0.0194
 1624ntf    fn412203   6.057   4.636   0.660  0.0728  0.0831  0.2760
 1624ntf    on512204   6.019   4.456   0.415  0.2225 -0.6769  0.6565
 1624ntf    on512205   6.238   4.533   0.343 -0.0136 -0.1871 -0.1439
 1624ntf    on512206   6.377   4.349   0.729 -0.2009 -0.2326 -0.1847
 1624ntf    on512207   6.467   4.406   0.504 -0.2190 -0.2049 -1.0485
 1624ntf    fn412208   6.255   4.161   0.436 -0.1941 -0.1793 -0.4333
 1624ntf    fn412209   6.457   4.121   0.479 -0.0481  0.3899 -0.2418
 1624ntf    fn412210   6.312   4.090   0.622 -0.7563  0.5786 -0.2209
 1625ntf    cn112211   2.642   4.016   4.200  0.2524 -0.3403  0.1108
 1625ntf    sn212212   2.646   3.900   4.340  0.2384 -0.4222  0.0436
 1625ntf    nn312213   2.533   3.796   4.309 -0.2050  0.0428  0.0836
 1625ntf    sn212214   2.546   3.651   4.250  0.1725  0.0541  0.1414
 1625ntf    cn112215   2.587   3.562   4.404 -0.0009  0.1949  0.2683
 1625ntf    fn412216   2.526   4.076   4.181 -0.0544 -0.9647 -0.0041
 1625ntf    fn412217   2.730   4.114   4.214  0.0818 -0.0770 -0.6246
 1625ntf    fn412218   2.674   3.955   4.087  0.2968 -0.0918 -0.0110
 1625ntf    on512219   2.781   3.850   4.331  0.3283 -0.0573 -0.7099
 1625ntf    on512220   2.607   3.987   4.449  0.0900 -0.6679  0.1880
 1625ntf    on512221   2.654   3.616   4.161 -0.1844 -0.0612 -0.2449
 1625ntf    on512222   2.418   3.594   4.219  0.3164 -0.3982  0.3636
 1625ntf    fn412223   2.656   3.451   4.386 -0.5298 -0.0667 -0.1655
 1625ntf    fn412224   2.661   3.638   4.483  0.0913  0.3089  0.0744
 1625ntf    fn412225   2.478   3.531   4.473  0.0165 -0.2375  0.1044
 1626ntf    cn112226   6.500   0.707   4.606 -0.0592 -0.2527  0.1512
 1626ntf    sn212227   6.376   0.811   4.523 -0.2716 -0.2838  0.4272
 1626ntf    nn312228   6.349   0.900   4.649 -0.0254  0.1203  0.1962
 1626ntf    sn212229   6.415   1.041   4.670 -0.1811  0.1683  0.3634
 1626ntf    cn112230   6.299   1.144   4.575 -0.3181 -0.2906  0.0292
 1626ntf    fn412231   6.459   0.664   4.724  0.4546 -0.2055  0.3496
 1626ntf    fn412232   6.535   0.606   4.528  0.0318 -0.1872  0.1058
 1626ntf    fn412233   6.618   0.764   4.627 -0.1919  0.1176 -0.0980
 1626ntf    on512234   6.443   0.867   4.408 -0.0942 -0.3169  0.5134
 1626ntf    on512235   6.265   0.724   4.491 -0.3334  0.1392 -0.5338
 1626ntf    on512236   6.544   1.052   4.606 -0.4994  0.3556 -0.2552
 1626ntf    on512237   6.402   1.089   4.806  0.2955  0.4194  0.3231
 1626ntf    fn412238   6.367   1.240   4.513 -0.3457 -0.5955 -0.4749
 1626ntf    fn412239   6.233   1.079   4.481 -0.3875  0.4057 -0.4157
 1626ntf    fn412240   6.213   1.200   4.658  0.1098  0.5430 -0.0772
 1627ntf    cn112241   2.986   3.698   1.711  0.3803 -0.0440  0.1005
 1627ntf    sn212242   2.855   3.576   1.680  0.1143  0.2645  0.0009
 1627ntf    nn312243   2.900   3.474   1.790  0.4113  0.1768 -0.1964
 1627ntf    sn212244   2.985   3.344   1.771  0.2837  0.1305 -0.4501
 1627ntf    cn112245   2.971   3.266   1.934 -0.0650  0.8871 -0.1151
 1627ntf    fn412246   3.109   3.657   1.686  0.1864 -0.3276 -0.3871
 1627ntf    fn412247   2.974   3.805   1.634 -0.1920  0.0385  0.3015
 1627ntf    fn412248   2.976   3.741   1.836 -0.6624  0.3294 -0.1028
 1627ntf    on512249   2.733   3.648   1.703  0.1958  0.2562  0.4511
 1627ntf    on512250   2.881   3.535   1.544 -0.2924  0.7241 -0.2176
 1627ntf    on512251   3.128   3.364   1.780  0.2546 -0.0429  0.4489
 1627ntf    on512252   2.936   3.247   1.676 -0.7680  0.5969 -0.3964
 1627ntf    fn412253   2.847   3.252   1.977  0.2067  0.0792  0.4327
 1627ntf    fn412254   3.034   3.150   1.946 -0.3434  0.7919  0.4391
 1627ntf    fn412255   3.025   3.344   2.027  1.1606  0.1192 -0.1516
 1628ntf    cn112256   4.171   1.603   1.417 -0.2027  0.3094  0.1599
 1628ntf    sn212257   4.146   1.504   1.568 -0.2490  0.0469 -0.0194
 1628ntf    nn312258   4.288   1.448   1.603 -0.4285 -0.6161 -0.3274
 1628ntf    sn212259   4.361   1.316   1.563  0.1906 -0.3670 -0.0331
 1628ntf    cn112260   4.279   1.206   1.682 -0.0281  0.1434  0.2874
 1628ntf    fn412261   4.081   1.698   1.400  0.0127  0.5163  0.1733
 1628ntf    fn412262   4.286   1.669   1.410  0.1116 -0.2417  0.0267
 1628ntf    fn412263   4.158   1.527   1.309  0.2293  0.3275  0.0942
 1628ntf    on512264   4.105   1.605   1.662 -0.6704  0.3310 -0.4957
 1628ntf    on512265   4.041   1.411   1.532  0.0010 -0.2967  0.1378
 1628ntf    on512266   4.495   1.313   1.616  0.2169  0.2296 -0.0640
 1628ntf    on512267   4.339   1.255   1.434  0.3607 -0.1473 -0.1671
 1628ntf    fn412268   4.308   1.258   1.800 -0.1278 -0.1528  0.4444
 1628ntf    fn412269   4.148   1.208   1.669 -0.0670 -0.4980  0.5197
 1628ntf    fn412270   4.304   1.076   1.682 -0.2032  0.1070 -0.3172
 1629ntf    cn112271   5.113   3.329   2.702  0.2763  0.2189  0.0066
 1629ntf    sn212272   5.221   3.242   2.819  0.0149  0.1327  0.1862
 1629ntf    nn312273   5.151   3.261   2.958 -0.7340  0.0689 -0.1810
 1629ntf    sn212274   5.182   3.377   3.059  0.0026  0.1664 -0.5144
 1629ntf    cn112275   5.030   3.383   3.158  0.1504 -0.1151 -0.2723
 1629ntf    fn412276   5.016   3.401   2.756  0.0618 -0.0404 -0.0280
 1629ntf    fn412277   5.179   3.421   2.633  0.2403  0.0051 -0.3141
 1629ntf    fn412278   5.063   3.246   2.612  0.9571  0.0771 -0.2474
 1629ntf    on512279   5.223   3.103   2.781  0.8217  0.3676 -0.7033
 1629ntf    on512280   5.342   3.321   2.812 -0.2285  0.4557 -0.5055
 1629ntf    on512281   5.195   3.512   3.007 -0.1488  0.3161 -0.1653
 1629ntf    on512282   5.281   3.336   3.155 -0.3004 -0.3529 -0.4223
 1629ntf    fn412283   5.008   3.268   3.220  0.7193 -0.1265 -0.0831
 1629ntf    fn412284   5.040   3.461   3.264  0.1550 -0.0442 -0.3251
 1629ntf    fn412285   4.924   3.419   3.087 -0.2018 -0.4408  0.0789
 1630ntf    cn112286   4.147   6.330   3.005 -0.0392  0.4600 -0.5596
 1630ntf    sn212287   4.045   6.197   3.074  0.4238  0.3058 -0.1654
 1630ntf    nn312288   4.059   6.215   3.229 -0.0395  0.0821 -0.0969
 1630ntf    sn212289   3.963   6.293   3.326 -0.1524  0.1285 -0.2463
 1630ntf    cn112290   4.080   6.376   3.437 -0.3442 -0.2623  0.2485
 1630ntf    fn412291   4.270   6.314   3.051 -0.3513 -0.0073  0.1205
 1630ntf    fn412292   4.132   6.351   2.875  0.1338  0.1551 -0.6298
 1630ntf    fn412293   4.112   6.448   3.055  0.0187  0.5136 -0.6419
 1630ntf    on512294   3.914   6.218   3.017  0.3197 -0.1327 -0.0962
 1630ntf    on512295   4.117   6.080   3.030  0.8073  0.1564  0.8378
 1630ntf    on512296   3.891   6.209   3.418 -0.6421  1.0010  0.1827
 1630ntf    on512297   3.886   6.402   3.272 -0.2451  0.3660  0.3541
 1630ntf    fn412298   4.157   6.466   3.380  0.2080 -0.2276  1.0217
 1630ntf    fn412299   4.016   6.438   3.535 -0.1088 -0.1912  0.3601
 1630ntf    fn412300   4.170   6.292   3.486  0.2316  0.2088  0.0130
 1631ntf    cn112301   3.982   3.297   6.000  0.5174 -0.1899 -0.3739
 1631ntf    sn212302   4.030   3.465   6.052 -0.4219 -0.0655  0.1092
 1631ntf    nn312303   4.137   3.487   5.940 -0.4875 -0.0493  0.0496
 1631ntf    sn212304   4.154   3.597   5.830  0.1653  0.0386  0.2326
 1631ntf    cn112305   4.103   3.502   5.683  0.2352  0.2820  0.0484
 1631ntf    fn412306   3.908   3.224   6.083  0.1689  0.0007 -0.5138
 1631ntf    fn412307   3.909   3.293   5.890  0.1562  0.0984 -0.1482
 1631ntf    fn412308   4.084   3.215   5.984  0.2663 -0.4208 -0.7989
 1631ntf    on512309   3.911   3.545   6.034 -0.0663  0.3411 -0.4327
 1631ntf    on512310   4.084   3.456   6.186 -0.4989 -0.1051  0.1382
 1631ntf    on512311   4.294   3.621   5.806 -0.0027  0.6433 -0.1536
 1631ntf    on512312   4.065   3.710   5.834  0.2314  0.1248 -0.4711
 1631ntf    fn412313   4.158   3.382   5.671 -0.0374  0.1982 -0.3803
 1631ntf    fn412314   3.972   3.485   5.673  0.2495  0.0615  0.2094
 1631ntf    fn412315   4.132   3.569   5.573 -0.3656 -0.4364 -0.5578
 1632ntf    cn112316   5.917   6.433   3.624  0.2017 -0.5679  0.2515
 1632ntf    sn212317   6.035   6.548   3.699 -0.1840  0.0592 -0.0956
 1632ntf    nn312318   6.167   6.517   3.621 -0.0074  0.1775  0.1536
 1632ntf    sn212319   6.280   6.418   3.666 -0.1523 -0.0218  0.0801
 1632ntf    cn112320   6.397   6.536   3.739  0.0534 -0.0786 -0.1558
 1632ntf    fn412321   5.880   6.477   3.505  0.3222 -0.4119  0.2713
 1632ntf    fn412322   5.971   6.313   3.606  0.4605 -0.3680 -0.3184
 1632ntf    fn412323   5.807   6.429   3.696  0.0995  0.0801  0.1379
 1632ntf    on512324   5.983   6.676   3.657  0.3777  0.3874  0.2000
 1632ntf    on512325   6.030   6.514   3.839  0.1070  0.0477 -0.0881
 1632ntf    on512326   6.350   6.360   3.554  0.1888  0.0656  0.2456
 1632ntf    on512327   6.253   6.330   3.777  0.0462 -0.3288 -0.1122
 1632ntf    fn412328   6.350   6.609   3.839 -0.7969 -0.1936 -0.4678
 1632ntf    fn412329   6.509   6.485   3.788 -0.0312 -0.0937  0.0228
 1632ntf    fn412330   6.432   6.627   3.649 -0.3027  0.2420  0.0251
 1633ntf    cn112331   4.009   5.505   0.558 -0.2125  0.1899 -0.4646
 1633ntf    sn212332   3.978   5.360   0.663 -0.2498  0.4708 -0.0838
 1633ntf    nn312333   3.855   5.286   0.599  0.2715 -0.4156 -0.0694
 1633ntf    sn212334   3.875   5.182   0.483 -0.1060 -0.1283 -0.3926
 1633ntf    cn112335   3.736   5.233   0.377 -0.2730  0.0450 -0.0923
 1633ntf    fn412336   4.053   5.471   0.438  0.3604 -0.2641 -0.1304
 1633ntf    fn412337   3.894   5.569   0.544 -0.0250  0.5000 -0.5923
 1633ntf    fn412338   4.100   5.582   0.617  0.1814 -0.3400 -0.3787
 1633ntf    on512339   4.092   5.272   0.663 -0.3857  0.2916  0.1508
 1633ntf    on512340   3.933   5.422   0.785 -0.2497  0.6645 -0.1819
 1633ntf    on512341   3.822   5.054   0.523  0.1090 -0.2828 -0.6017
 1633ntf    on512342   3.988   5.184   0.393  0.0671  0.5707 -0.1661
 1633ntf    fn412343   3.728   5.365   0.375  0.2765  0.0843  0.2337
 1633ntf    fn412344   3.752   5.190   0.253  0.5127 -0.3589  0.1453
 1633ntf    fn412345   3.618   5.191   0.420 -0.0855 -0.3871  0.0077
 1634ntf    cn112346   0.562   5.865   0.767  0.4250 -0.1855 -0.4654
 1634ntf    sn212347   0.417   5.898   0.663  0.0602 -0.0819  0.0717
 1634ntf    nn312348   0.430   6.054   0.646 -0.4660 -0.0757 -0.3004
 1634ntf    sn212349   0.357   6.177   0.711  0.2458 -0.0362  0.4402
 1634ntf    cn112350   0.203   6.196   0.617  0.3382  0.0676  0.3076
 1634ntf    fn412351   0.553   5.755   0.839 -0.0643  0.0209 -0.2124
 1634ntf    fn412352   0.671   5.857   0.692  0.3970 -0.0341 -0.5231
 1634ntf    fn412353   0.586   5.966   0.849  0.0368 -0.4560 -0.0140
 1634ntf    on512354   0.439   5.818   0.545 -0.6102 -0.3758  0.1414
 1634ntf    on512355   0.317   5.855   0.757 -0.2233  0.0909 -0.1483
 1634ntf    on512356   0.434   6.296   0.682  0.3884 -0.1367  0.4055
 1634ntf    on512357   0.314   6.165   0.848 -0.1383 -0.1063  0.3144
 1634ntf    fn412358   0.157   6.078   0.579  0.8937  0.0153 -0.1981
 1634ntf    fn412359   0.099   6.238   0.689 -0.2269  0.3651 -0.6594
 1634ntf    fn412360   0.214   6.270   0.508 -0.1415  0.0723  0.2564
 1635ntf    cn112361   5.287   6.450   3.648 -0.0596 -0.2167 -0.0972
 1635ntf    sn212362   5.121   6.468   3.719  0.0957  0.2999  0.1364
 1635ntf    nn312363   5.126   6.571   3.838 -0.5053  0.9432 -0.3895
 1635ntf    sn212364   5.060   6.573   3.980 -0.2846 -0.0157 -0.2727
 1635ntf    cn112365   5.188   6.530   4.102 -0.2433  0.0122 -0.3055
 1635ntf    fn412366   5.331   6.562   3.593  0.3715 -0.1816  0.3075
 1635ntf    fn412367   5.384   6.412   3.730 -0.3666 -0.0935  0.3255
 1635ntf    fn412368   5.284   6.362   3.549  0.0762 -0.6664  0.2958
 1635ntf    on512369   5.027   6.511   3.619  0.3711  0.1478 -0.1887
 1635ntf    on512370   5.110   6.334   3.772  0.2955  0.1526 -0.1963
 1635ntf    on512371   4.959   6.472   4.002 -0.2757 -0.0171 -0.2398
 1635ntf    on512372   5.032   6.708   4.022 -0.0765  0.0488 -0.3398
 1635ntf    fn412373   5.297   6.604   4.087  0.2749 -0.5901  0.3734
 1635ntf    fn412374   5.145   6.525   4.227  0.0919  0.0939 -0.1847
 1635ntf    fn412375   5.224   6.405   4.078 -0.2070  0.0218 -0.3024
 1636ntf    cn112376   0.009   2.458   3.880 -0.5335  0.4021  0.0834
 1636ntf    sn212377   0.174   2.492   3.811 -0.2385 -0.5354  0.3157
 1636ntf    nn312378   0.227   2.592   3.920  0.2550 -0.2317 -0.2020
 1636ntf    sn212379   0.332   2.566   4.034  0.2253  0.2243 -0.0677
 1636ntf    cn112380   0.253   2.655   4.171  0.0797  0.1511 -0.1043
 1636ntf    fn412381  -0.020   2.334   3.843  0.7617  0.0651  0.1324
 1636ntf    fn412382   0.005   2.454   4.012 -0.4712 -0.3342  0.0676
 1636ntf    fn412383  -0.080   2.540   3.827 -0.1427  0.5277 -0.3910
 1636ntf    on512384   0.239   2.366   3.788  0.7228  0.0464 -0.2132
 1636ntf    on512385   0.127   2.566   3.697 -0.1733 -0.3303  0.4206
 1636ntf    on512386   0.452   2.645   4.022  0.4343 -0.0611  0.1375
 1636ntf    on512387   0.336   2.428   4.076  0.2732  0.1100 -0.4468
 1636ntf    fn412388   0.246   2.787   4.155 -0.2692  0.1713  0.1936
 1636ntf    fn412389   0.128   2.612   4.176  0.0994  0.0390 -0.5151
 1636ntf    fn412390   0.306   2.623   4.288 -0.2012 -0.1058 -0.0448
 1637ntf    cn112391   2.709   1.489   6.159  0.2724 -0.0818  0.1023
 1637ntf    sn212392   2.780   1.530   5.997 -0.4835  0.0366 -0.2033
 1637ntf    nn312393   2.715   1.668   5.963 -0.4910  0.1040  0.0776
 1637ntf    sn212394   2.640   1.711   5.831 -0.2671  0.1090 -0.0487
 1637ntf    cn112395   2.688   1.886   5.817  0.1907 -0.0204 -0.1231
 1637ntf    fn412396   2.578   1.477   6.143  0.2228 -0.2920  0.6199
 1637ntf    fn412397   2.758   1.375   6.207  0.1989 -0.2315 -0.1786
 1637ntf    fn412398   2.723   1.583   6.251 -0.2564 -0.0118  0.1137
 1637ntf    on512399   2.920   1.541   6.031 -0.4944  0.2133 -0.2153
 1637ntf    on512400   2.739   1.414   5.922  0.0458 -0.3455  0.0876
 1637ntf    on512401   2.497   1.721   5.846 -0.1984  0.0369  0.6971
 1637ntf    on512402   2.686   1.654   5.707  0.0937  0.2343  0.0256
 1637ntf    fn412403   2.812   1.906   5.779  0.2772  0.1874  0.2603
 1637ntf    fn412404   2.622   1.956   5.727  0.0279 -0.2588 -0.1894
 1637ntf    fn412405   2.671   1.958   5.927 -0.2652 -0.2097 -0.0656
 1638ntf    cn112406   3.546   3.686   6.476 -0.0750 -0.1999  0.2277
 1638ntf    sn212407   3.618   3.682   6.643  0.0615 -0.1972  0.1694
 1638ntf    nn312408   3.499   3.730   6.735  0.2574  0.3189  0.1588
 1638ntf    sn212409   3.379   3.638   6.777  0.0839  0.2432 -0.4895
 1638ntf    cn112410   3.447   3.611   6.943 -0.0721  0.3564 -0.4078
 1638ntf    fn412411   3.453   3.594   6.458 -0.7800  0.5024  0.2042
 1638ntf    fn412412   3.484   3.802   6.461 -0.1186 -0.2329  0.1514
 1638ntf    fn412413   3.637   3.677   6.381 -0.3016 -0.6421  0.0534
 1638ntf    on512414   3.648   3.542   6.658 -0.1703 -0.2497  0.1561
 1638ntf    on512415   3.726   3.777   6.634 -0.0612 -0.1141 -0.4664
 1638ntf    on512416   3.372   3.504   6.724 -1.3656 -0.0203  0.3233
 1638ntf    on512417   3.256   3.703   6.813  0.3210  0.7195 -0.5277
 1638ntf    fn412418   3.399   3.502   7.001  0.4799 -0.0888 -0.7771
 1638ntf    fn412419   3.579   3.603   6.945 -0.0894 -0.0072 -0.5602
 1638ntf    fn412420   3.422   3.708   7.030  0.2095 -0.2358  0.3427
 1639ntf    cn112421   6.338   5.726   1.537 -0.1194  0.0466 -0.0074
 1639ntf    sn212422   6.260   5.756   1.699  0.0067  0.0606  0.0507
 1639ntf    nn312423   6.133   5.839   1.660 -0.4183 -0.3604  0.5372
 1639ntf    sn212424   6.129   5.995   1.674 -0.2472 -0.2858 -0.2146
 1639ntf    cn112425   6.115   6.018   1.854 -0.0621 -0.4343 -0.1804
 1639ntf    fn412426   6.456   5.669   1.552 -0.2335 -0.2618 -0.2978
 1639ntf    fn412427   6.263   5.652   1.458 -0.1860 -0.0682  0.1627
 1639ntf    fn412428   6.353   5.838   1.468  0.3819 -0.0057  0.0165
 1639ntf    on512429   6.225   5.627   1.753  0.2811 -0.1037 -0.1598
 1639ntf    on512430   6.362   5.823   1.776  0.1710 -0.1210 -0.0060
 1639ntf    on512431   6.006   6.050   1.622 -0.2135 -0.2779 -0.2853
 1639ntf    on512432   6.249   6.064   1.634  0.2442 -0.7888  0.3759
 1639ntf    fn412433   6.084   6.145   1.875  0.4473 -0.3230 -0.1088
 1639ntf    fn412434   6.030   5.941   1.920 -0.0981  0.2655  0.6055
 1639ntf    fn412435   6.233   6.008   1.911 -0.3320  0.0275  0.4769
 1640ntf    cn112436   5.637   0.383   0.099 -0.0882  0.1846  0.1107
 1640ntf    sn212437   5.781   0.331   0.197 -0.1772 -0.0180  0.1333
 1640ntf    nn312438   5.716   0.311   0.339 -0.6727  0.4093 -0.0288
 1640ntf    sn212439   5.652   0.186   0.409 -0.0754  0.0495 -0.1182
 1640ntf    cn112440   5.780   0.117   0.519  0.2297  0.2947 -0.3176
 1640ntf    fn412441   5.543   0.290   0.106  0.4631 -0.3939 -0.1628
 1640ntf    fn412442   5.578   0.494   0.143 -0.2352  0.4715 -0.8037
 1640ntf    fn412443   5.673   0.410  -0.025  0.0145  0.5506  0.2195
 1640ntf    on512444   5.833   0.213   0.134 -0.3193  0.1561 -0.3108
 1640ntf    on512445   5.867   0.446   0.211 -0.1000 -0.0685  0.0738
 1640ntf    on512446   5.622   0.079   0.317  0.3556 -0.3180  0.1657
 1640ntf    on512447   5.540   0.224   0.491 -0.0696  0.5851 -0.3540
 1640ntf    fn412448   5.894   0.100   0.454  0.2053  0.0181 -0.2894
 1640ntf    fn412449   5.801   0.191   0.626  1.1569 -0.1338 -0.2036
 1640ntf    fn412450   5.745  -0.000   0.569  0.1931  0.5024  0.1462
 1641ntf    cn112451   1.617   3.317   2.256 -0.1507  0.5459  0.0172
 1641ntf    sn212452   1.733   3.437   2.184  0.2514 -0.0559 -0.3416
 1641ntf    nn312453   1.690   3.417   2.034  0.6880 -0.4781 -0.4139
 1641ntf    sn212454   1.615   3.515   1.937 -0.0005 -0.1272  0.4543
 1641ntf    cn112455   1.763   3.592   1.864  0.1315 -0.4321  0.3971
 1641ntf    fn412456   1.599   3.210   2.181  0.0653  0.4029  0.1685
 1641ntf    fn412457   1.664   3.273   2.371  0.0775 -0.3092 -0.3952
 1641ntf    fn412458   1.496   3.367   2.278 -0.0834  0.6255  0.1994
 1641ntf    on512459   1.706   3.563   2.248 -0.1870 -0.1473 -0.3440
 1641ntf    on512460   1.858   3.370   2.211 -0.1238 -0.6182  0.0340
 1641ntf    on512461   1.544   3.624   1.999 -0.5368 -0.1411 -0.1279
 1641ntf    on512462   1.548   3.449   1.827  0.3422  0.5451 -0.1700
 1641ntf    fn412463   1.742   3.675   1.763 -0.3682 -0.1025  0.7674
 1641ntf    fn412464   1.833   3.662   1.952 -0.0352  0.5401 -0.2259
 1641ntf    fn412465   1.841   3.493   1.824 -0.0736 -0.5669  0.3321
 1642ntf    cn112466   2.795   4.599   0.217 -0.3022 -0.1756 -0.3958
 1642ntf    sn212467   2.908   4.460   0.183  0.0542  0.0345 -0.0792
 1642ntf    nn312468   2.894   4.367   0.308  0.0299 -0.5108 -0.4839
 1642ntf    sn212469   2.798   4.245   0.331 -0.4392 -0.0714 -0.0826
 1642ntf    cn112470   2.924   4.115   0.352 -0.3472  0.0046 -0.1646
 1642ntf    fn412471   2.674   4.558   0.249 -0.4001 -0.0209 -0.5655
 1642ntf    fn412472   2.842   4.672   0.316  0.3564 -0.2841 -0.6202
 1642ntf    fn412473   2.776   4.676   0.112 -0.0032 -0.4213 -0.6344
 1642ntf    on512474   2.873   4.410   0.052 -0.3309 -0.0508  0.0550
 1642ntf    on512475   3.038   4.523   0.187 -0.1492  0.4110  0.6453
 1642ntf    on512476   2.717   4.198   0.221 -0.5944  0.2628 -0.1125
 1642ntf    on512477   2.734   4.258   0.460  0.1499 -0.1868  0.2241
 1642ntf    fn412478   2.870   4.000   0.316  0.3974 -0.4757  0.2347
 1642ntf    fn412479   3.033   4.131   0.279 -0.2157 -0.5361 -0.0898
 1642ntf    fn412480   2.957   4.118   0.480 -0.3758 -0.5314 -0.1423
 1643ntf    cn112481   3.776   5.280   2.820 -0.0364 -0.4049 -0.4226
 1643ntf    sn212482   3.742   5.458   2.805 -0.2854 -0.4122  0.0382
 1643ntf    nn312483   3.629   5.456   2.696 -0.1284  0.3019 -0.1432
 1643ntf    sn212484   3.497   5.539   2.677 -0.1592  0.3116  0.1092
 1643ntf    cn112485   3.578   5.671   2.582  0.3221 -0.2335 -0.2433
 1643ntf    fn412486   3.665   5.217   2.852 -0.0934 -0.4257 -0.6630
 1643ntf    fn412487   3.817   5.227   2.706  0.5648 -0.2234 -0.2974
 1643ntf    fn412488   3.858   5.250   2.920  0.0512  0.7521 -0.1239
 1643ntf    on512489   3.692   5.493   2.936  0.2421 -0.2642  0.2028
 1643ntf    on512490   3.871   5.503   2.761 -0.4332 -0.2440 -0.2275
 1643ntf    on512491   3.442   5.610   2.790 -0.5422  0.3738 -0.1147
 1643ntf    on512492   3.407   5.475   2.584  0.1444 -0.1830  0.1516
 1643ntf    fn412493   3.605   5.628   2.460  0.3023 -0.5856 -0.1225
 1643ntf    fn412494   3.497   5.774   2.566  0.8579  0.1928 -0.2621
 1643ntf    fn412495   3.689   5.721   2.634  0.0130  0.0146  0.1842
 1644ntf    cn112496   3.956   3.542   1.225 -0.1932 -0.5089  0.3012
 1644ntf    sn212497   4.095   3.587   1.116 -0.1652 -0.5080  0.3374
 1644ntf    nn312498   4.027   3.647   0.988  0.3644 -0.3588  0.1234
 1644ntf    sn212499   4.075   3.755   0.885 -0.3638 -0.0854  0.0652
 1644ntf    cn112500   4.031   3.912   0.966 -0.2366 -0.3169  0.5892
 1644ntf    fn412501   4.004   3.491   1.337  1.0118 -0.1978 -0.0592
 1644ntf    fn412502   3.889   3.648   1.266  0.4934  0.1457 -0.2425
 1644ntf    fn412503   3.870   3.454   1.176 -0.0591 -0.0011 -0.8762
 1644ntf    on512504   4.176   3.680   1.191  0.1542 -0.3873 -0.1580
 1644ntf    on512505   4.161   3.460   1.095  0.3478 -0.2097  0.1329
 1644ntf    on512506   3.985   3.750   0.772  0.0502 -0.1607 -0.2643
 1644ntf    on512507   4.217   3.770   0.869 -0.4545 -0.5289 -1.2596
 1644ntf    fn412508   3.911   3.915   1.021 -0.3513 -0.1461  0.3329
 1644ntf    fn412509   4.118   3.931   1.063  0.1952 -0.4589  0.2367
 1644ntf    fn412510   4.033   4.014   0.882  0.4686 -0.5834  0.2737
 1645ntf    cn112511   3.489   5.250   3.125 -0.2278  0.0730  0.1937
 1645ntf    sn212512   3.460   5.096   3.217  0.0161 -0.0289  0.1011
 1645ntf    nn312513   3.307   5.117   3.244  0.0673  0.3381  0.1062
 1645ntf    sn212514   3.207   5.013   3.305  0.0644 -0.0155 -0.4961
 1645ntf    cn112515   3.121   4.955   3.155 -0.3430  0.2061 -0.3503
 1645ntf    fn412516   3.475   5.238   2.994  0.1749 -0.0749  0.1626
 1645ntf    fn412517   3.413   5.348   3.170 -0.1967  0.1693  0.0372
 1645ntf    fn412518   3.615   5.292   3.136 -0.0946 -0.0809 -0.6776
 1645ntf    on512519   3.486   4.988   3.125  0.3570  0.1648 -0.0315
 1645ntf    on512520   3.544   5.102   3.334 -0.1126  0.4810  0.1688
 1645ntf    on512521   3.107   5.078   3.386 -0.0356 -0.6849 -0.0721
 1645ntf    on512522   3.253   4.884   3.352 -0.0288  0.0676 -0.1768
 1645ntf    fn412523   3.194   4.872   3.082  0.1693  0.2169  0.1408
 1645ntf    fn412524   3.009   4.890   3.181 -0.2034  0.0208 -0.2043
 1645ntf    fn412525   3.092   5.058   3.077 -0.1828  0.4728 -0.0565
 1646ntf    cn112526   6.478   5.140   1.299  0.2374  0.2144 -0.2466
 1646ntf    sn212527   6.569   5.021   1.402  0.1639  0.2653 -0.1240
 1646ntf    nn312528   6.451   4.937   1.462  0.0162  0.5525 -0.0115
 1646ntf    sn212529   6.389   4.804   1.406  0.3462  0.3682  0.0560
 1646ntf    cn112530   6.213   4.852   1.406  0.2239 -0.0796 -0.0895
 1646ntf    fn412531   6.555   5.232   1.243  0.4913  0.0735 -0.1332
 1646ntf    fn412532   6.404   5.087   1.203 -0.0950  0.2918 -0.0309
 1646ntf    fn412533   6.388   5.206   1.369  0.0129 -0.1006 -0.2345
 1646ntf    on512534   6.656   4.952   1.310  0.2987  0.2316  0.0279
 1646ntf    on512535   6.634   5.110   1.495  0.2266  0.6178 -0.5020
 1646ntf    on512536   6.381   4.699   1.505  0.2197  0.1619 -0.1710
 1646ntf    on512537   6.421   4.777   1.269 -0.6048  0.1762 -0.1393
 1646ntf    fn412538   6.175   4.878   1.530  0.0164  0.1285 -0.1958
 1646ntf    fn412539   6.192   4.965   1.340 -0.2563 -0.2086 -0.1625
 1646ntf    fn412540   6.130   4.765   1.350  0.0683 -0.0945  0.1629
 1647ntf    cn112541   6.206   1.928   4.171 -0.2588  0.1159  0.3750
 1647ntf    sn212542   6.224   2.106   4.141  0.0673 -0.0116 -0.2102
 1647ntf    nn312543   6.074   2.154   4.137  0.0627 -0.0071 -0.0306
 1647ntf    sn212544   6.014   2.299   4.133  0.0792 -0.0027 -0.1166
 1647ntf    cn112545   5.908   2.296   4.280  0.5024  0.2476  0.1969
 1647ntf    fn412546   6.124   1.868   4.087 -0.1461  0.0546  0.3082
 1647ntf    fn412547   6.321   1.862   4.170 -0.3942 -0.1185  0.2994
 1647ntf    fn412548   6.153   1.905   4.290 -0.2137  0.3496  0.4417
 1647ntf    on512549   6.290   2.157   4.259 -0.3841 -0.1403  0.1022
 1647ntf    on512550   6.283   2.120   4.010 -0.5192 -0.3067 -0.5086
 1647ntf    on512551   5.921   2.313   4.024  0.5561 -0.1121 -0.5438
 1647ntf    on512552   6.099   2.414   4.151  0.2341 -0.0872 -0.3009
 1647ntf    fn412553   5.887   2.419   4.324 -0.5615  0.2296 -0.2322
 1647ntf    fn412554   5.785   2.250   4.263  0.5727  0.0544  0.2111
 1647ntf    fn412555   5.959   2.225   4.380 -0.3358 -0.4362  0.1610
 1648ntf    cn112556   5.412   4.646   5.095  0.0872  0.7850 -0.2958
 1648ntf    sn212557   5.521   4.789   5.068  0.2001  0.6997 -0.2950
 1648ntf    nn312558   5.425   4.861   4.967 -0.1715  0.1794 -0.3168
 1648ntf    sn212559   5.474   4.937   4.838  0.0495  0.2488 -0.1920
 1648ntf    cn112560   5.452   4.801   4.720  0.2849 -0.0121  0.0634
 1648ntf    fn412561   5.290   4.691   5.118  0.0841  0.3345  0.5898
 1648ntf    fn412562   5.404   4.560   4.994 -0.5231 -0.1639  0.5413
 1648ntf    fn412563   5.453   4.572   5.197  0.0018 -0.0693 -0.8642
 1648ntf    on512564   5.528   4.841   5.202 -0.4038 -0.0452  0.0317
 1648ntf    on512565   5.637   4.722   5.014  0.1662  0.6678 -0.3285
 1648ntf    on512566   5.614   4.968   4.824  0.1549  0.2748  0.8118
 1648ntf    on512567   5.380   5.040   4.799 -0.2014 -0.0825 -0.4723
 1648ntf    fn412568   5.516   4.688   4.747  0.0988 -0.1181  0.0589
 1648ntf    fn412569   5.325   4.767   4.709  0.4214 -0.6316  0.3259
 1648ntf    fn412570   5.493   4.842   4.601 -0.6584  0.7952  0.0100
 1649ntf    cn112571   2.473   6.757   3.207 -0.5751 -0.0445 -0.1804
 1649ntf    sn212572   2.646   6.786   3.160 -0.4757 -0.0152  0.1989
 1649ntf    nn312573   2.648   6.756   3.006 -0.1491 -0.0940  0.2169
 1649ntf    sn212574   2.705   6.632   2.928 -0.0427  0.1434 -0.0853
 1649ntf    cn112575   2.859   6.700   2.860  0.0199  0.0717 -0.0152
 1649ntf    fn412576   2.390   6.828   3.133 -0.4321  0.1471 -0.1572
 1649ntf    fn412577   2.428   6.633   3.201  0.0874 -0.2935 -0.0932
 1649ntf    fn412578   2.447   6.795   3.331  0.3584  0.0827 -0.0144
 1649ntf    on512579   2.676   6.924   3.190 -0.0946  0.0644 -0.5289
 1649ntf    on512580   2.717   6.693   3.244  0.4379  0.1905 -0.3266
 1649ntf    on512581   2.612   6.601   2.822 -0.3992  0.0034  0.2633
 1649ntf    on512582   2.737   6.510   2.997 -0.0914  0.3844  0.3663
 1649ntf    fn412583   2.943   6.752   2.948  0.2843 -0.1055 -0.1627
 1649ntf    fn412584   2.928   6.613   2.789  0.1373  0.1401  0.0160
 1649ntf    fn412585   2.827   6.800   2.779  0.5645  0.3499  0.1129
 1650ntf    cn112586   0.553   1.872   6.457  0.5696 -0.3587  0.0978
 1650ntf    sn212587   0.477   1.864   6.622 -0.2671 -0.0137 -0.2649
 1650ntf    nn312588   0.551   1.743   6.688  0.2778  0.4640  0.0070
 1650ntf    sn212589   0.523   1.662   6.819 -0.0844 -0.1139 -0.4225
 1650ntf    cn112590   0.406   1.529   6.776 -0.4413  0.0160  0.1294
 1650ntf    fn412591   0.679   1.912   6.456  0.4701 -0.0420 -0.2434
 1650ntf    fn412592   0.551   1.757   6.392 -0.6467 -0.4167  0.2019
 1650ntf    fn412593   0.490   1.965   6.385  0.2001 -0.4098  0.3499
 1650ntf    on512594   0.510   1.991   6.682 -0.6543 -0.0508  0.0331
 1650ntf    on512595   0.337   1.834   6.603 -0.1128 -0.7446 -0.2974
 1650ntf    on512596   0.450   1.742   6.915 -0.1730 -0.4145 -0.2365
 1650ntf    on512597   0.638   1.593   6.871 -0.4001  0.0951  0.5758
 1650ntf    fn412598   0.371   1.476   6.892  0.5121  0.4407  0.6199
 1650ntf    fn412599   0.293   1.565   6.719 -0.1367  0.6019 -0.1141
 1650ntf    fn412600   0.468   1.430   6.712  0.0508  0.4684 -0.1005
 1651ntf    cn112601   0.070   3.807   5.445  0.3207  0.1086 -0.1259
 1651ntf    sn212602  -0.038   3.689   5.532  0.1246  0.1340 -0.3341
 1651ntf    nn312603   0.015   3.694   5.680 -0.0457 -0.6433 -0.2441
 1651ntf    sn212604   0.139   3.619   5.740  0.2552  0.1378  0.1187
 1651ntf    cn112605   0.051   3.542   5.879 -0.0580  0.1653 -0.0642
 1651ntf    fn412606   0.063   3.796   5.314  0.7883 -0.0795 -0.1358
 1651ntf    fn412607   0.028   3.931   5.468 -0.3420 -0.0802 -0.2989
 1651ntf    fn412608   0.198   3.804   5.479  0.2312  0.2589  0.2382
 1651ntf    on512609  -0.172   3.738   5.512 -0.0678 -0.6026 -0.8792
 1651ntf    on512610  -0.016   3.563   5.465  0.3174  0.1356 -0.2748
 1651ntf    on512611   0.229   3.708   5.809  0.4629  0.0510 -0.0365
 1651ntf    on512612   0.197   3.511   5.663  0.0475  0.2119 -0.1447
 1651ntf    fn412613   0.044   3.618   5.987  0.1536 -0.1824  0.1967
 1651ntf    fn412614  -0.069   3.495   5.848 -0.1652  0.1408  0.3759
 1651ntf    fn412615   0.113   3.434   5.922 -0.0367  0.0182 -0.4601
 1652ntf    cn112616   2.121   2.837   0.366  0.4761  0.0771 -0.2075
 1652ntf    sn212617   2.139   2.744   0.211  0.1599  0.0187 -0.2090
 1652ntf    nn312618   2.127   2.595   0.259  0.8351 -0.0143 -0.1341
 1652ntf    sn212619   2.104   2.469   0.168  0.3261  0.0271 -0.0676
 1652ntf    cn112620   1.933   2.434   0.217  0.1971  0.3675 -0.2650
 1652ntf    fn412621   2.080   2.752   0.459 -0.5268  0.2865 -0.4535
 1652ntf    fn412622   2.233   2.897   0.402  0.4589  0.1766 -0.3188
 1652ntf    fn412623   2.029   2.931   0.354  0.1364 -0.1593  0.5019
 1652ntf    on512624   2.029   2.803   0.139  0.0252  0.5630  0.4382
 1652ntf    on512625   2.275   2.773   0.174  0.3490 -0.1482  0.3451
 1652ntf    on512626   2.173   2.349   0.206 -0.4294 -0.2880  0.3208
 1652ntf    on512627   2.102   2.498   0.026  0.5225 -0.0058 -0.0780
 1652ntf    fn412628   1.881   2.332   0.150  0.1920 -0.0431  0.3562
 1652ntf    fn412629   1.908   2.421   0.346  0.1629 -0.3253 -0.3329
 1652ntf    fn412630   1.860   2.538   0.181  0.2365  0.5209  0.1026
 1653ntf    cn112631   1.704   4.044   6.322  0.0808 -0.1489  0.0702
 1653ntf    sn212632   1.586   4.182   6.325 -0.1200 -0.3124 -0.2386
 1653ntf    nn312633   1.511   4.174   6.187 -0.1202 -0.0294 -0.2549
 1653ntf    sn212634   1.563   4.193   6.040  0.0829 -0.1138 -0.1946
 1653ntf    cn112635   1.459   4.335   5.993  0.1276 -0.0242 -0.0204
 1653ntf    fn412636   1.772   4.038   6.435 -0.2214 -0.0813  0.2572
 1653ntf    fn412637   1.644   3.926   6.307 -0.0023 -0.0586 -0.3023
 1653ntf    fn412638   1.799   4.048   6.230 -0.0003  0.5687  0.0136
 1653ntf    on512639   1.503   4.147   6.437 -0.1687  0.5366 -0.0049
 1653ntf    on512640   1.661   4.304   6.344 -0.2276 -0.1964 -0.5564
 1653ntf    on512641   1.521   4.079   5.961  0.7365 -0.2786 -0.3072
 1653ntf    on512642   1.699   4.233   6.018 -0.1377  0.5383 -0.3948
 1653ntf    fn412643   1.331   4.306   5.984  0.2450 -0.4830 -0.2629
 1653ntf    fn412644   1.467   4.430   6.085 -0.4401 -0.3513  0.3715
 1653ntf    fn412645   1.489   4.387   5.875  0.1591 -0.0577 -0.0275
 1654ntf    cn112646   6.671   0.564   1.364  0.1715 -0.3453 -0.0414
 1654ntf    sn212647   6.708   0.530   1.190  0.2229 -0.3365 -0.0325
 1654ntf    nn312648   6.822   0.632   1.156 -0.1919  0.1541  0.0278
 1654ntf    sn212649   6.829   0.748   1.051  0.2676  0.2209  0.1290
 1654ntf    cn112650   6.995   0.716   0.984  0.1735 -0.3224  0.1452
 1654ntf    fn412651   6.781   0.573   1.437 -0.0676 -0.2136  0.3060
 1654ntf    fn412652   6.605   0.679   1.374 -0.2132 -0.5671 -0.0397
 1654ntf    fn412653   6.595   0.474   1.423 -0.0018 -0.2407 -0.1027
 1654ntf    on512654   6.750   0.392   1.190  0.0134 -0.4016 -0.0475
 1654ntf    on512655   6.577   0.545   1.131  0.4539 -0.1908 -0.5138
 1654ntf    on512656   6.844   0.880   1.107  0.3257  0.6563 -0.8926
 1654ntf    on512657   6.746   0.723   0.936 -0.2336  0.0195  0.5323
 1654ntf    fn412658   7.004   0.602   0.917 -0.1029  0.0095 -0.4698
 1654ntf    fn412659   7.026   0.815   0.900  0.2404 -0.5361 -0.0837
 1654ntf    fn412660   7.085   0.713   1.081  0.3043 -0.2833  0.0261
 1655ntf    cn112661   3.462   0.072   4.116  0.0515  0.2249 -0.5008
 1655ntf    sn212662   3.605   0.109   4.010  0.2949 -0.3114 -0.3650
 1655ntf    nn312663   3.725   0.058   4.098  0.2421  0.2076  0.0087
 1655ntf    sn212664   3.830  -0.049   4.053 -0.2166 -0.3227  0.1845
 1655ntf    cn112665   3.739  -0.206   4.050  0.0958 -0.4993 -0.2157
 1655ntf    fn412666   3.470  -0.048   4.172  0.0785  0.1647 -0.6336
 1655ntf    fn412667   3.449   0.163   4.211  0.6723 -0.2064  0.0118
 1655ntf    fn412668   3.346   0.075   4.054 -0.1864 -0.5549 -0.1077
 1655ntf    on512669   3.573   0.024   3.898  0.0429 -0.4352 -0.2005
 1655ntf    on512670   3.599   0.252   3.994 -0.0922 -0.1844  0.8138
 1655ntf    on512671   3.917  -0.061   4.168 -0.7719  0.4624  0.6932
 1655ntf    on512672   3.889  -0.031   3.923  0.0658 -0.4085  0.2992
 1655ntf    fn412673   3.667  -0.215   3.940 -0.2373 -0.3705 -0.0103
 1655ntf    fn412674   3.821  -0.310   4.053  0.5796 -0.1123  0.0900
 1655ntf    fn412675   3.654  -0.216   4.151 -0.1094 -0.0065 -0.3370
 1656ntf    cn112676   3.442   3.880   1.759  0.1296 -0.1612 -0.4856
 1656ntf    sn212677   3.620   3.912   1.747  0.1213  0.0287 -0.1237
 1656ntf    nn312678   3.677   3.784   1.675 -0.1352 -0.0843 -0.1255
 1656ntf    sn212679   3.736   3.649   1.728 -0.6118 -0.2889 -0.1083
 1656ntf    cn112680   3.672   3.533   1.603 -0.5891  0.2889 -0.6577
 1656ntf    fn412681   3.381   3.842   1.648 -0.0917  0.1040 -0.4573
 1656ntf    fn412682   3.420   3.785   1.848 -0.5874  0.0237 -0.4570
 1656ntf    fn412683   3.376   3.989   1.796  0.1916 -0.3622  0.2458
 1656ntf    on512684   3.625   4.029   1.663 -0.1076 -0.1123 -0.3350
 1656ntf    on512685   3.655   3.921   1.887 -0.2066  0.2396 -0.0543
 1656ntf    on512686   3.683   3.608   1.856  0.1474  0.2903  0.4017
 1656ntf    on512687   3.879   3.648   1.708 -0.5518 -0.2851  0.3063
 1656ntf    fn412688   3.543   3.542   1.574 -0.7384 -0.3365 -0.1969
 1656ntf    fn412689   3.745   3.543   1.493  0.3243 -0.0613 -0.0976
 1656ntf    fn412690   3.693   3.417   1.661  0.1220  0.6362 -0.2085
 1657ntf    cn112691   4.140   1.485   0.767  0.5318 -0.0138 -0.2110
 1657ntf    sn212692   4.155   1.304   0.787 -0.1482 -0.0923 -0.4090
 1657ntf    nn312693   4.234   1.266   0.657 -0.0295 -0.2451 -0.2906
 1657ntf    sn212694   4.381   1.309   0.622 -0.0831  0.2415  0.0750
 1657ntf    cn112695   4.483   1.161   0.651 -0.0189  0.1959 -0.3788
 1657ntf    fn412696   4.068   1.527   0.870  0.6022 -0.0921 -0.1298
 1657ntf    fn412697   4.254   1.551   0.779  0.2899  0.2991  0.3810
 1657ntf    fn412698   4.084   1.524   0.654  0.0298 -0.0497  0.0233
 1657ntf    on512699   4.220   1.275   0.912 -0.4032 -0.3212 -0.3287
 1657ntf    on512700   4.018   1.261   0.777 -0.1612 -0.1945  0.2187
 1657ntf    on512701   4.447   1.395   0.717  0.2602  0.7458 -0.6059
 1657ntf    on512702   4.403   1.324   0.480 -0.2337  0.0349  0.0289
 1657ntf    fn412703   4.566   1.173   0.753 -0.1336 -0.5946 -0.1909
 1657ntf    fn412704   4.416   1.048   0.660 -0.6822  0.5851 -0.3284
 1657ntf    fn412705   4.565   1.140   0.549  0.5008 -0.6179  0.2005
 1658ntf    cn112706   6.057   5.733   4.049  0.0792 -0.2343 -0.4576
 1658ntf    sn212707   6.091   5.900   3.987 -0.1504 -0.1349 -0.3177
 1658ntf    nn312708   5.971   5.911   3.886 -0.6308 -0.2629  0.2406
 1658ntf    sn212709   5.961   5.893   3.731  0.3399  0.1000  0.1333
 1658ntf    cn112710   5.793   5.955   3.697  0.3398 -0.0050 -0.0641
 1658ntf    fn412711   5.927   5.709   4.052  0.0949 -0.2789 -0.1123
 1658ntf    fn412712   6.096   5.643   3.960  0.5701 -0.1557 -0.3229
 1658ntf    fn412713   6.118   5.702   4.162 -0.0474  0.0530 -0.3087
 1658ntf    on512714   6.078   5.986   4.102 -0.4659  0.0625 -0.4990
 1658ntf    on512715   6.219   5.887   3.922 -0.2804  0.4147 -0.6948
 1658ntf    on512716   5.955   5.757   3.686 -0.2337  0.0268  0.4310
 1658ntf    on512717   6.046   5.981   3.654 -0.5794  0.4882 -0.4562
 1658ntf    fn412718   5.706   5.922   3.791 -0.5710  0.4023 -0.7519
 1658ntf    fn412719   5.786   6.086   3.680 -0.4390 -0.0139  0.1710
 1658ntf    fn412720   5.744   5.900   3.587  0.3018 -0.2028  0.0512
 1659ntf    cn112721   1.419   5.932   0.624 -0.4879  0.1725 -0.2760
 1659ntf    sn212722   1.336   5.943   0.785 -0.0204  0.2984 -0.0426
 1659ntf    nn312723   1.457   5.966   0.883  0.2826 -0.0606 -0.3322
 1659ntf    sn212724   1.516   5.870   0.993 -0.1071  0.1708  0.0797
 1659ntf    cn112725   1.687   5.847   0.935 -0.2836  0.0413 -0.3963
 1659ntf    fn412726   1.537   5.989   0.607 -0.4603  0.2364  0.1281
 1659ntf    fn412727   1.438   5.805   0.593  0.1409  0.2551 -0.2534
 1659ntf    fn412728   1.339   5.976   0.528 -0.5707  0.0633 -0.2573
 1659ntf    on512729   1.261   6.065   0.766  0.4157  0.5183 -0.3656
 1659ntf    on512730   1.264   5.819   0.798  0.0364  0.3006  0.3202
 1659ntf    on512731   1.464   5.736   0.986  0.0348  0.1208 -0.0400
 1659ntf    on512732   1.521   5.931   1.123 -0.0168 -0.1415  0.2227
 1659ntf    fn412733   1.766   5.803   1.032 -0.1253  0.2762 -0.4186
 1659ntf    fn412734   1.699   5.760   0.836 -0.1718 -0.0290 -0.3205
 1659ntf    fn412735   1.743   5.960   0.893  0.1621 -0.0338 -0.0165
 1660ntf    cn112736   2.200   0.134   4.147  0.2654  0.1884  0.4116
 1660ntf    sn212737   2.176   0.265   4.272  0.0437  0.1500  0.4092
 1660ntf    nn312738   2.273   0.217   4.385  0.3187 -0.6680 -0.1629
 1660ntf    sn212739   2.249   0.225   4.540  0.0489  0.0680 -0.2389
 1660ntf    cn112740   2.407   0.286   4.606 -0.0815 -0.1132  0.2492
 1660ntf    fn412741   2.323   0.138   4.099  0.0944  0.2916 -0.0152
 1660ntf    fn412742   2.199   0.018   4.210 -0.2675 -0.1503 -0.2138
 1660ntf    fn412743   2.107   0.123   4.054  0.5092  0.0525  0.1841
 1660ntf    on512744   2.226   0.380   4.200  0.1066  0.0328  0.2637
 1660ntf    on512745   2.039   0.254   4.316 -0.1155 -0.1058 -0.1351
 1660ntf    on512746   2.238   0.089   4.589  0.4338  0.1621  0.1111
 1660ntf    on512747   2.146   0.315   4.586 -0.0719 -0.3502  0.3293
 1660ntf    fn412748   2.411   0.267   4.737 -0.5106  0.2939  0.3227
 1660ntf    fn412749   2.505   0.210   4.559 -0.1670  0.1412 -0.3522
 1660ntf    fn412750   2.435   0.410   4.569 -0.1739 -0.1586  0.0250
 1661ntf    cn112751   0.132   2.729   1.971 -0.4932 -0.7050 -0.0737
 1661ntf    sn212752   0.051   2.891   1.985  0.3985 -0.2565 -0.0649
 1661ntf    nn312753  -0.065   2.870   2.089  0.2205  0.2243 -0.1620
 1661ntf    sn212754  -0.114   2.966   2.203 -0.2059 -0.0470 -0.1153
 1661ntf    cn112755  -0.257   2.878   2.272 -0.6137  0.8455  0.1952
 1661ntf    fn412756   0.166   2.686   2.091 -0.1059 -0.2035 -0.0037
 1661ntf    fn412757   0.057   2.630   1.925 -0.4320 -0.6569 -0.2776
 1661ntf    fn412758   0.240   2.730   1.895 -0.1690 -0.1498  0.3878
 1661ntf    on512759   0.158   2.974   2.034  0.4074 -0.1854 -0.2037
 1661ntf    on512760   0.006   2.915   1.850  0.2297 -0.1770  0.0064
 1661ntf    on512761  -0.162   3.094   2.158  0.0216  0.1906  0.3165
 1661ntf    on512762  -0.027   2.969   2.317 -0.6253 -0.0408  0.2054
 1661ntf    fn412763  -0.234   2.754   2.313  0.0122  0.8161 -0.2298
 1661ntf    fn412764  -0.317   2.938   2.373  0.1700  0.5181  0.8642
 1661ntf    fn412765  -0.353   2.865   2.181 -0.3348 -0.5180  0.0637
 1662ntf    cn112766   2.938   2.807   5.371 -0.0859 -0.0373  0.1839
 1662ntf    sn212767   2.958   2.686   5.238 -0.0615  0.1130  0.0506
 1662ntf    nn312768   2.978   2.787   5.119  0.0106  0.0144 -0.0216
 1662ntf    sn212769   2.882   2.844   5.009 -0.0591  0.0024  0.0335
 1662ntf    cn112770   2.927   2.734   4.872 -0.1436  0.0508 -0.0339
 1662ntf    fn412771   3.046   2.883   5.385 -0.3964  0.5577 -0.5722
 1662ntf    fn412772   2.836   2.890   5.359 -0.2940 -0.1730  0.9276
 1662ntf    fn412773   2.926   2.749   5.490 -0.2419  0.0819  0.2266
 1662ntf    on512774   3.084   2.629   5.278 -0.3435 -0.4045  0.2045
 1662ntf    on512775   2.838   2.607   5.234 -0.1360  0.2137  0.3057
 1662ntf    on512776   2.917   2.977   4.965  1.4735 -0.5773 -0.5489
 1662ntf    on512777   2.744   2.808   5.029 -0.0013 -0.3104 -0.1300
 1662ntf    fn412778   2.836   2.745   4.777 -0.2029 -0.1346  0.0026
 1662ntf    fn412779   3.047   2.763   4.824 -0.3437  0.0301 -0.5544
 1662ntf    fn412780   2.919   2.611   4.918  0.1780  0.0352 -0.0190
 1663ntf    cn112781   6.066   6.693   1.271 -0.5698  0.0139 -0.1574
 1663ntf    sn212782   5.965   6.760   1.407  0.0081  0.1214  0.2216
 1663ntf    nn312783   5.829   6.688   1.380  0.0777  0.0932 -0.0584
 1663ntf    sn212784   5.762   6.559   1.440  0.0854  0.1325  0.0362
 1663ntf    cn112785   5.637   6.639   1.544  0.0129  0.0098  0.0431
 1663ntf    fn412786   6.083   6.563   1.281  0.1288  0.1596  0.6439
 1663ntf    fn412787   6.010   6.723   1.155 -0.0027  0.0503 -0.4209
 1663ntf    fn412788   6.186   6.748   1.277 -0.4706 -0.2004 -0.2017
 1663ntf    on512789   6.041   6.732   1.527  0.1189  0.1864  0.1671
 1663ntf    on512790   5.950   6.898   1.366  0.5386  0.1462  0.0967
 1663ntf    on512791   5.834   6.474   1.531 -0.5100  0.2608  0.6312
 1663ntf    on512792   5.673   6.498   1.344  0.1866  0.6843 -0.4140
 1663ntf    fn412793   5.578   6.552   1.626 -0.4964  0.2507 -0.0617
 1663ntf    fn412794   5.691   6.731   1.622 -0.7815  0.4660  0.0619
 1663ntf    fn412795   5.545   6.695   1.467  0.2310  0.1946 -0.0826
 1664ntf    cn112796   2.205   0.579   1.261  0.1381 -0.1177  0.1257
 1664ntf    sn212797   2.288   0.564   1.100 -0.0212 -0.3287  0.0615
 1664ntf    nn312798   2.438   0.544   1.143  0.1481 -0.1236 -0.4316
 1664ntf    sn212799   2.519   0.411   1.165  0.1569 -0.0272  0.1207
 1664ntf    cn112800   2.691   0.469   1.179  0.1929 -0.0980 -0.0255
 1664ntf    fn412801   2.215   0.466   1.329 -0.3271 -0.2549 -0.0282
 1664ntf    fn412802   2.254   0.675   1.338 -0.6471 -0.0735  0.5885
 1664ntf    fn412803   2.077   0.609   1.247  0.0448 -0.5606 -0.0002
 1664ntf    on512804   2.229   0.451   1.034 -0.6018  0.1946 -0.3297
 1664ntf    on512805   2.268   0.694   1.042 -0.4077 -0.3461  0.1545
 1664ntf    on512806   2.522   0.327   1.048  0.0491  0.0522  0.0615
 1664ntf    on512807   2.501   0.355   1.296  0.3240 -0.5264 -0.0677
 1664ntf    fn412808   2.702   0.531   1.295 -0.0020  0.2758 -0.2041
 1664ntf    fn412809   2.779   0.370   1.179  0.0243 -0.2496  0.2471
 1664ntf    fn412810   2.730   0.549   1.082 -0.0664 -0.3591 -0.3464
 1665ntf    cn112811   6.331   1.232   3.743 -0.0467 -0.1744 -0.5279
 1665ntf    sn212812   6.162   1.296   3.722  0.0765  0.3045 -0.0722
 1665ntf    nn312813   6.166   1.351   3.574  0.3752 -0.1323 -0.2263
 1665ntf    sn212814   6.114   1.294   3.437 -0.0651  0.2358 -0.2135
 1665ntf    cn112815   6.269   1.231   3.365 -0.2701  0.2325 -0.6527
 1665ntf    fn412816   6.338   1.154   3.850  0.1801  0.3389 -0.1700
 1665ntf    fn412817   6.367   1.149   3.646  0.3553  0.2105 -0.7079
 1665ntf    fn412818   6.424   1.323   3.764 -0.4034  0.1343 -0.2736
 1665ntf    on512819   6.072   1.186   3.747  0.0301  0.3174 -0.1803
 1665ntf    on512820   6.160   1.410   3.810  0.6372 -0.5032  0.9986
 1665ntf    on512821   6.078   1.397   3.343 -0.4191  0.1159 -0.2093
 1665ntf    on512822   6.034   1.175   3.436  1.2249 -0.6517  0.0070
 1665ntf    fn412823   6.361   1.325   3.361 -0.1263  0.1577  0.5236
 1665ntf    fn412824   6.316   1.131   3.437 -0.2702  0.1831 -0.7209
 1665ntf    fn412825   6.252   1.190   3.240 -0.0083 -0.4439 -0.4682
 1666ntf    cn112826   3.892   5.600   3.491  0.4699 -0.7282  0.2043
 1666ntf    sn212827   3.835   5.450   3.406 -0.1266 -0.3008 -0.1634
 1666ntf    nn312828   3.950   5.436   3.300  0.0120 -0.3361 -0.0086
 1666ntf    sn212829   4.086   5.359   3.313  0.3826  0.3456  0.2220
 1666ntf    cn112830   4.052   5.218   3.203 -0.2927  0.3541  0.4182
 1666ntf    fn412831   3.977   5.575   3.589 -0.2465  0.2678  1.1094
 1666ntf    fn412832   3.946   5.693   3.415 -0.4559 -0.1924  0.1816
 1666ntf    fn412833   3.787   5.652   3.553  0.3992 -0.1425 -0.3968
 1666ntf    on512834   3.837   5.351   3.511 -0.3150  0.2210  0.3338
 1666ntf    on512835   3.710   5.494   3.351  0.1625 -0.1945 -0.7431
 1666ntf    on512836   4.114   5.300   3.442 -0.9818 -0.1528  0.3070
 1666ntf    on512837   4.199   5.428   3.256  0.4686  0.3269  0.3675
 1666ntf    fn412838   3.953   5.139   3.241 -0.3086  0.2662  0.1940
 1666ntf    fn412839   4.013   5.268   3.087  0.2045 -0.1425  0.0304
 1666ntf    fn412840   4.147   5.132   3.172 -0.4019  0.3754  0.0138
 1667ntf    cn112841   5.472   2.866   4.709 -0.3338 -0.3902 -0.1038
 1667ntf    sn212842   5.418   2.867   4.535  0.0089  0.1182 -0.2070
 1667ntf    nn312843   5.513   2.754   4.480  0.3176 -0.0770  0.7143
 1667ntf    sn212844   5.645   2.761   4.395 -0.0456 -0.2411  0.1309
 1667ntf    cn112845   5.747   2.661   4.508  0.1984 -0.2518 -0.0967
 1667ntf    fn412846   5.385   2.935   4.781  0.0328  0.0274 -0.0632
 1667ntf    fn412847   5.457   2.744   4.758  0.1750 -0.5024 -0.2261
 1667ntf    fn412848   5.599   2.896   4.728 -0.4085 -0.2917  0.2343
 1667ntf    on512849   5.285   2.813   4.546  0.0880  0.0654  0.5305
 1667ntf    on512850   5.443   2.999   4.483 -0.1749  0.0446 -0.4857
 1667ntf    on512851   5.711   2.889   4.399 -0.0479 -0.2180 -0.4953
 1667ntf    on512852   5.640   2.684   4.273 -0.2634  0.4958 -0.3289
 1667ntf    fn412853   5.697   2.540   4.533  0.0499 -0.0931  0.3984
 1667ntf    fn412854   5.861   2.632   4.448  0.3512 -0.1950  0.1654
 1667ntf    fn412855   5.780   2.716   4.624 -0.9457  0.4833 -0.0991
 1668ntf    cn112856   3.695   2.001   3.381  0.0747  0.0119  0.2091
 1668ntf    sn212857   3.827   2.105   3.448  0.2503 -0.0193 -0.0841
 1668ntf    nn312858   3.952   2.037   3.382  0.2298 -0.3028  0.1663
 1668ntf    sn212859   4.098   2.094   3.382  0.0867  0.0659  0.3979
 1668ntf    cn112860   4.098   2.193   3.229 -0.1381 -0.1800  0.2384
 1668ntf    fn412861   3.572   2.041   3.410  0.0321 -0.0513  0.1187
 1668ntf    fn412862   3.716   1.995   3.250 -0.1627  0.1812  0.1629
 1668ntf    fn412863   3.706   1.875   3.422  0.2466  0.0882  0.3987
 1668ntf    on512864   3.784   2.230   3.392  0.1666 -0.2093 -0.4456
 1668ntf    on512865   3.804   2.067   3.586 -1.1235  0.9268 -0.0372
 1668ntf    on512866   4.197   1.992   3.356  0.2262  0.1311  0.6666
 1668ntf    on512867   4.124   2.189   3.487 -0.1663  0.1519  0.3827
 1668ntf    fn412868   4.206   2.268   3.217  0.2510 -0.7969 -0.2495
 1668ntf    fn412869   4.095   2.122   3.117  0.3094  0.4240 -0.1649
 1668ntf    fn412870   3.990   2.268   3.219  0.0507 -0.0140 -0.6768
 1669ntf    cn112871   0.327   6.275   6.106 -0.1580 -0.1758  0.0553
 1669ntf    sn212872   0.302   6.095   6.088 -0.0540 -0.2260  0.3935
 1669ntf    nn312873   0.368   6.035   6.216  0.6233 -0.3156  0.0046
 1669ntf    sn212874   0.301   6.013   6.356 -0.1369 -0.1156 -0.3234
 1669ntf    cn112875   0.219   5.853   6.329  0.0887 -0.2465 -0.2424
 1669ntf    fn412876   0.454   6.307   6.121 -0.0842 -0.4425  0.0156
 1669ntf    fn412877   0.290   6.330   5.992  0.4211 -0.0654 -0.0811
 1669ntf    fn412878   0.259   6.330   6.205 -0.0332  0.9804 -0.4938
 1669ntf    on512879   0.160   6.078   6.071 -0.0737 -0.3875  0.7359
 1669ntf    on512880   0.377   6.049   5.974  0.3426 -0.6746  0.8341
 1669ntf    on512881   0.186   6.091   6.395 -0.1711 -0.2579 -0.1370
 1669ntf    on512882   0.400   5.976   6.455 -0.5590  0.0470  0.1634
 1669ntf    fn412883   0.214   5.824   6.200 -0.0814  0.3113 -0.3647
 1669ntf    fn412884   0.267   5.746   6.390 -0.1936  0.1025  0.5946
 1669ntf    fn412885   0.095   5.854   6.375  0.2934  0.2707  0.3040
 1670ntf    cn112886   4.398   5.498   1.647  0.0331 -0.1261  0.0997
 1670ntf    sn212887   4.537   5.612   1.670 -0.0577  0.0011  0.0192
 1670ntf    nn312888   4.644   5.509   1.720 -0.1971  0.0185  0.3531
 1670ntf    sn212889   4.685   5.491   1.871 -0.1593  0.2312  0.3682
 1670ntf    cn112890   4.835   5.593   1.880 -0.1625  0.3113 -0.3696
 1670ntf    fn412891   4.287   5.568   1.627  0.5729  0.5719 -0.5000
 1670ntf    fn412892   4.399   5.417   1.542  0.0343 -0.4343  0.3351
 1670ntf    fn412893   4.386   5.414   1.749  0.4177 -0.6549 -0.2845
 1670ntf    on512894   4.554   5.658   1.534 -0.1800  0.7497  0.2507
 1670ntf    on512895   4.482   5.710   1.759 -0.4054  0.3088 -0.5287
 1670ntf    on512896   4.738   5.358   1.886  0.4688  0.4077 -0.2100
 1670ntf    on512897   4.597   5.542   1.973 -0.4134  0.7371 -0.0969
 1670ntf    fn412898   4.902   5.580   1.994 -0.0266  0.5353 -0.4239
 1670ntf    fn412899   4.918   5.576   1.779 -0.1705 -0.3553 -0.2702
 1670ntf    fn412900   4.806   5.721   1.862 -0.8170  0.2114 -0.0584
 1671ntf    cn112901   4.558   2.786   3.119  0.1276 -0.2205  0.2906
 1671ntf    sn212902   4.389   2.853   3.104  0.2072 -0.0664  0.0763
 1671ntf    nn312903   4.372   2.922   3.244 -0.3954 -0.4024  0.1718
 1671ntf    sn212904   4.290   3.041   3.304  0.1708  0.0292  0.0979
 1671ntf    cn112905   4.191   2.962   3.434 -0.2186 -0.1093 -0.2811
 1671ntf    fn412906   4.652   2.876   3.142  0.1144  0.2298 -1.2862
 1671ntf    fn412907   4.562   2.715   3.230  0.1126 -0.1983  0.3053
 1671ntf    fn412908   4.586   2.704   3.019  0.0328  0.2612 -0.1396
 1671ntf    on512909   4.401   2.929   2.982 -0.5875 -0.0013  0.0336
 1671ntf    on512910   4.307   2.735   3.097 -0.2028  0.1990  0.3653
 1671ntf    on512911   4.184   3.085   3.217  0.0336  0.1430  0.3203
 1671ntf    on512912   4.362   3.138   3.383  0.0436 -0.2867  0.6054
 1671ntf    fn412913   4.242   2.848   3.478 -0.0053  0.3372  0.6470
 1671ntf    fn412914   4.171   3.038   3.540  0.7151  0.3133 -0.4036
 1671ntf    fn412915   4.069   2.936   3.390 -0.7176  0.5112  0.6924
 1672ntf    cn112916   1.133   4.475   4.384 -0.0846 -0.1117 -0.0983
 1672ntf    sn212917   1.115   4.294   4.374 -0.5227 -0.0865  0.2212
 1672ntf    nn312918   1.222   4.272   4.261 -0.0163 -0.0026  0.6816
 1672ntf    sn212919   1.363   4.205   4.273 -0.0082 -0.1443 -0.1815
 1672ntf    cn112920   1.330   4.047   4.189  0.0732 -0.3152  0.1067
 1672ntf    fn412921   1.210   4.526   4.289 -0.1688 -0.0095 -0.1119
 1672ntf    fn412922   1.015   4.535   4.382 -0.1025 -0.1200  0.4569
 1672ntf    fn412923   1.175   4.523   4.500 -0.1950 -0.0188 -0.0970
 1672ntf    on512924   1.146   4.241   4.504 -0.1676 -0.2580  0.0668
 1672ntf    on512925   0.980   4.279   4.325 -0.3742 -0.2040 -0.1550
 1672ntf    on512926   1.410   4.161   4.401 -0.0689  0.1280 -0.0657
 1672ntf    on512927   1.464   4.259   4.185  0.1409 -0.5801 -0.2795
 1672ntf    fn412928   1.304   3.946   4.270 -0.3898  0.1210  0.5076
 1672ntf    fn412929   1.226   4.063   4.109  0.2417  0.0478 -0.0430
 1672ntf    fn412930   1.430   4.011   4.111 -0.1332 -0.0309 -0.2968
 1673ntf    cn112931   0.997   0.411   2.039  0.1975  0.2561 -0.0611
 1673ntf    sn212932   0.929   0.539   2.148  0.3050  0.0537  0.2437
 1673ntf    nn312933   0.934   0.469   2.289 -0.5614  0.8434  0.6788
 1673ntf    sn212934   1.056   0.458   2.387 -0.2072 -0.1575  0.1411
 1673ntf    cn112935   1.005   0.552   2.534 -0.0801 -0.1312  0.1688
 1673ntf    fn412936   1.115   0.370   2.081  0.2480  0.1162 -0.3326
 1673ntf    fn412937   0.923   0.301   2.027  0.0549  0.3167  0.2533
 1673ntf    fn412938   1.015   0.449   1.913 -0.2843  0.1420 -0.1659
 1673ntf    on512939   1.016   0.653   2.130  0.5759 -0.2146 -0.1597
 1673ntf    on512940   0.791   0.556   2.111  0.2803 -0.2251  0.2058
 1673ntf    on512941   1.181   0.517   2.347  0.0031 -0.5323  0.2345
 1673ntf    on512942   1.065   0.322   2.436 -0.2333 -0.0769  0.3699
 1673ntf    fn412943   1.106   0.581   2.615  0.1162  0.3847 -0.2537
 1673ntf    fn412944   0.951   0.667   2.496  0.0805 -0.0793  0.0991
 1673ntf    fn412945   0.917   0.488   2.610  0.2399 -0.3117  0.3887
 1674ntf    cn112946   0.075   1.474   1.763 -0.1022 -0.0459  0.4317
 1674ntf    sn212947   0.194   1.519   1.633  0.0318 -0.2242  0.4912
 1674ntf    nn312948   0.330   1.471   1.695 -0.1024 -0.2968  0.7279
 1674ntf    sn212949   0.409   1.540   1.812  0.0576  0.3146  0.2640
 1674ntf    cn112950   0.564   1.564   1.719 -0.1165  0.3658 -0.0137
 1674ntf    fn412951   0.096   1.543   1.874  1.0338 -0.1949  0.3283
 1674ntf    fn412952  -0.051   1.504   1.737 -0.0552 -0.4107 -0.2584
 1674ntf    fn412953   0.085   1.348   1.801 -0.2668 -0.1704  0.0638
 1674ntf    on512954   0.141   1.442   1.523 -0.4390  0.1115  0.4801
 1674ntf    on512955   0.186   1.663   1.618  0.2153 -0.2218  0.4144
 1674ntf    on512956   0.442   1.451   1.921 -0.0032  0.1780  0.1718
 1674ntf    on512957   0.376   1.677   1.842  0.2359  0.4297 -0.0548
 1674ntf    fn412958   0.666   1.585   1.800  0.5899 -0.1484 -0.7635
 1674ntf    fn412959   0.599   1.457   1.650 -0.1379 -0.0269  0.5773
 1674ntf    fn412960   0.566   1.671   1.641  0.4166  0.4283  0.0840
 1675ntf    cn112961   2.616   6.533   1.651 -0.3106 -0.3962 -0.0363
 1675ntf    sn212962   2.780   6.470   1.700 -0.1952 -0.0162  0.0680
 1675ntf    nn312963   2.736   6.338   1.773  0.5604 -0.0302  0.5094
 1675ntf    sn212964   2.759   6.191   1.724 -0.2065 -0.0150  0.0769
 1675ntf    cn112965   2.929   6.162   1.783 -0.1678  0.0044 -0.0245
 1675ntf    fn412966   2.561   6.439   1.575  0.4074 -0.3312 -0.6551
 1675ntf    fn412967   2.538   6.569   1.751  0.7025  0.8906  0.3176
 1675ntf    fn412968   2.635   6.635   1.569 -0.1259 -0.1278  0.3384
 1675ntf    on512969   2.851   6.456   1.575 -0.2260 -0.2131  0.0720
 1675ntf    on512970   2.822   6.577   1.787  0.0355 -0.0611  0.0122
 1675ntf    on512971   2.770   6.169   1.582  0.1866 -0.1252  0.1217
 1675ntf    on512972   2.673   6.103   1.799  0.0248 -0.1755  0.1572
 1675ntf    fn412973   3.023   6.237   1.728  0.1830 -0.8715 -0.6544
 1675ntf    fn412974   2.937   6.189   1.912 -0.0594 -0.3599  0.0453
 1675ntf    fn412975   2.954   6.033   1.767  0.5635  0.2040 -0.5531
 1676ntf    cn112976   0.316   4.983   4.148  0.4434  0.2488 -0.2569
 1676ntf    sn212977   0.337   4.854   4.275 -0.3392  0.2981 -0.0722
 1676ntf    nn312978   0.406   4.733   4.202 -0.1052 -0.0411  0.7005
 1676ntf    sn212979   0.552   4.682   4.224 -0.0621 -0.0510  0.3977
 1676ntf    cn112980   0.581   4.659   4.046 -0.3005  0.1221  0.3353
 1676ntf    fn412981   0.238   4.942   4.050  0.3251 -0.5233  0.1529
 1676ntf    fn412982   0.261   5.095   4.192 -0.0929 -0.2905  0.4594
 1676ntf    fn412983   0.430   5.008   4.086  0.9026 -0.3487  0.3236
 1676ntf    on512984   0.408   4.917   4.384 -0.3782 -0.0873  0.1750
 1676ntf    on512985   0.202   4.817   4.307 -0.1227 -0.1797  0.2977
 1676ntf    on512986   0.558   4.550   4.284  0.6243 -0.1010  0.2336
 1676ntf    on512987   0.643   4.786   4.265 -0.4340  0.1029  0.8448
 1676ntf    fn412988   0.538   4.544   3.996 -0.2190  0.3370 -0.2358
 1676ntf    fn412989   0.528   4.750   3.967  0.8608  0.3683 -0.1793
 1676ntf    fn412990   0.708   4.681   4.017 -0.3421  0.3147  0.2995
 1677ntf    cn112991   6.328   1.434   5.772  0.1286  0.0105 -0.0334
 1677ntf    sn212992   6.308   1.297   5.890 -0.6195  0.0943 -0.0589
 1677ntf    nn312993   6.194   1.212   5.823 -0.3988 -0.2691  0.0245
 1677ntf    sn212994   6.184   1.128   5.690 -0.3312 -0.1596 -0.0495
 1677ntf    cn112995   6.186   0.958   5.755  0.1309  0.0448  0.4910
 1677ntf    fn412996   6.390   1.390   5.664 -0.0882 -0.0350 -0.1414
 1677ntf    fn412997   6.211   1.487   5.738  0.1080 -0.0383 -0.0378
 1677ntf    fn412998   6.397   1.534   5.823 -0.0497  0.0273  0.1784
 1677ntf    on512999   6.433   1.225   5.890 -0.5437  0.2252  0.1098
 1677ntf    on513000   6.262   1.371   6.005 -0.8296  0.1989 -0.2089
 1677ntf    on513001   6.307   1.133   5.615 -0.2195 -0.3691  0.1181
 1677ntf    on513002   6.061   1.146   5.618 -0.0761  0.6293 -0.3057
 1677ntf    fn413003   6.166   0.869   5.659  0.2432  0.1878  0.3348
 1677ntf    fn413004   6.305   0.924   5.801  0.3490 -0.1840 -0.2216
 1677ntf    fn413005   6.092   0.934   5.845  0.1654 -0.2412  0.4506
 1678ntf    cn113006   0.186   3.990   2.543 -0.2445  0.0840  0.1177
 1678ntf    sn213007   0.054   3.932   2.653 -0.1044 -0.0025  0.2402
 1678ntf    nn313008   0.111   3.985   2.789  0.2106  0.6761 -0.1517
 1678ntf    sn213009   0.226   3.911   2.867 -0.3397 -0.0251  0.0037
 1678ntf    cn113010   0.123   3.807   2.974 -0.4248  0.0025 -0.0507
 1678ntf    fn413011   0.159   3.968   2.415  0.1571  0.2849 -0.0056
 1678ntf    fn413012   0.202   4.121   2.552 -0.0810  0.0799 -0.1024
 1678ntf    fn413013   0.306   3.938   2.562 -0.1311  0.2036 -0.2455
 1678ntf    on513014  -0.062   4.002   2.605  0.2782  0.5289  0.0857
 1678ntf    on513015   0.063   3.789   2.634 -0.4060  0.0401 -0.2412
 1678ntf    on513016   0.302   4.000   2.950 -0.3816 -0.3628  0.4091
 1678ntf    on513017   0.306   3.819   2.789 -0.0183  0.3756 -0.1398
 1678ntf    fn413018   0.197   3.746   3.066 -0.2832  0.3747  0.0818
 1678ntf    fn413019   0.029   3.881   3.030 -0.2200 -0.0422  0.3608
 1678ntf    fn413020   0.062   3.712   2.904  0.0683 -0.0451 -0.4209
 1679ntf    cn113021   5.469   1.740   3.000 -0.4180 -0.0548 -0.0528
 1679ntf    sn213022   5.579   1.884   3.001 -0.1126 -0.2857 -0.2877
 1679ntf    nn313023   5.571   1.915   2.848  0.2340  0.2980 -0.1918
 1679ntf    sn213024   5.478   2.019   2.775  0.0566  0.1539 -0.1731
 1679ntf    cn113025   5.554   2.181   2.807 -0.1551  0.2572 -0.1952
 1679ntf    fn413026   5.457   1.673   2.887  0.4489 -0.0166 -0.1760
 1679ntf    fn413027   5.493   1.649   3.094  0.5894  0.6084  0.3491
 1679ntf    fn413028   5.346   1.783   3.023 -0.3712  0.0422  0.0177
 1679ntf    on513029   5.524   1.983   3.091 -0.1373 -0.2164 -0.3788
 1679ntf    on513030   5.705   1.828   3.043 -0.0868  0.4897  0.7209
 1679ntf    on513031   5.349   2.035   2.838 -0.0700 -0.1827 -0.3403
 1679ntf    on513032   5.497   2.001   2.633  0.5989  0.4348 -0.1371
 1679ntf    fn413033   5.485   2.272   2.739 -0.4304 -0.0778 -0.3647
 1679ntf    fn413034   5.545   2.218   2.934  0.1761 -0.6215  0.0877
 1679ntf    fn413035   5.683   2.188   2.783 -0.0725 -0.1767  0.1205
 1680ntf    cn113036   4.956   0.383   3.594 -0.0679 -0.1240  0.0970
 1680ntf    sn213037   4.941   0.411   3.773  0.1665  0.0376  0.0919
 1680ntf    nn313038   4.792   0.459   3.770  0.3053  0.4497 -0.2293
 1680ntf    sn213039   4.730   0.554   3.879  0.3164  0.1097  0.0716
 1680ntf    cn113040   4.601   0.449   3.952 -0.0741  0.1604 -0.5401
 1680ntf    fn413041   5.076   0.334   3.564 -0.2600  0.1017 -1.0827
 1680ntf    fn413042   4.871   0.289   3.556 -0.0422 -0.1004 -0.0188
 1680ntf    fn413043   4.927   0.489   3.522  0.4470  0.0714  0.1703
 1680ntf    on513044   4.954   0.278   3.827  0.0774  0.1025  0.2748
 1680ntf    on513045   5.046   0.509   3.790  0.3654 -0.0891 -0.3737
 1680ntf    on513046   4.660   0.670   3.831  0.1570  0.0669  0.1977
 1680ntf    on513047   4.818   0.575   3.992 -0.0191  0.0561  0.3465
 1680ntf    fn413048   4.644   0.370   4.049 -0.2609  0.4372 -0.2301
 1680ntf    fn413049   4.506   0.525   4.004 -0.1623 -0.5188  0.3316
 1680ntf    fn413050   4.539   0.374   3.863 -0.4420  0.2210 -0.3366
 1681ntf    cn113051   4.154   1.381   5.890  0.0711 -0.1522 -0.3839
 1681ntf    sn213052   4.072   1.542   5.911  0.2308 -0.1390  0.1430
 1681ntf    nn313053   4.205   1.624   5.923  0.0083  0.2945 -0.3522
 1681ntf    sn213054   4.251   1.721   6.038  0.4091 -0.2497 -0.0511
 1681ntf    cn113055   4.186   1.880   5.977  0.3454 -0.1783  0.2036
 1681ntf    fn413056   4.083   1.282   5.838 -0.0366  0.0563 -0.6374
 1681ntf    fn413057   4.261   1.384   5.812  0.1069 -0.4343 -0.3452
 1681ntf    fn413058   4.185   1.334   6.009  0.6017  0.5297 -0.2471
 1681ntf    on513059   4.008   1.576   5.786  0.1033  0.0685  0.2645
 1681ntf    on513060   3.982   1.539   6.024 -0.2352  0.6737 -0.1957
 1681ntf    on513061   4.395   1.729   6.039  0.4086 -0.0783 -0.6519
 1681ntf    on513062   4.194   1.694   6.167 -0.1103 -0.2208 -0.2707
 1681ntf    fn413063   4.265   1.941   5.891 -0.2226  0.0245 -0.1771
 1681ntf    fn413064   4.068   1.866   5.918  0.2971  0.3960  0.1647
 1681ntf    fn413065   4.171   1.961   6.081 -0.8345  0.2571 -0.2884
 1682ntf    cn113066   1.387   5.620   4.527 -0.5570 -0.2106 -0.0719
 1682ntf    sn213067   1.377   5.647   4.707  0.1153  0.0491 -0.0708
 1682ntf    nn313068   1.415   5.800   4.713 -0.0724  0.0970 -0.0733
 1682ntf    sn213069   1.555   5.867   4.735 -0.0491  0.0490 -0.0727
 1682ntf    cn113070   1.552   5.859   4.916  0.3098  0.3518 -0.0516
 1682ntf    fn413071   1.509   5.620   4.477 -0.5316 -0.4448 -0.0084
 1682ntf    fn413072   1.320   5.511   4.494 -0.0089 -0.5823  0.0444
 1682ntf    fn413073   1.324   5.719   4.464 -0.2713 -0.0620 -0.1243
 1682ntf    on513074   1.237   5.633   4.738  0.2953 -0.0108  0.7309
 1682ntf    on513075   1.465   5.548   4.762 -0.2237  0.1807  0.7182
 1682ntf    on513076   1.550   6.009   4.711  0.5946  0.0809 -0.0273
 1682ntf    on513077   1.670   5.789   4.697 -0.4667 -0.6032 -0.0093
 1682ntf    fn413078   1.517   5.743   4.968 -0.2678  0.6005  0.1173
 1682ntf    fn413079   1.671   5.898   4.959  0.0846  0.7240  0.2421
 1682ntf    fn413080   1.460   5.941   4.964  0.0407  0.2205 -0.3383
 1683ntf    cn113081   1.040   3.745   0.382  0.2555 -0.0991 -0.0270
 1683ntf    sn213082   0.936   3.879   0.448  0.4255  0.1768 -0.3189
 1683ntf    nn313083   0.986   3.893   0.596 -0.7973  0.5933  0.0714
 1683ntf    sn213084   0.945   3.818   0.728  0.1846 -0.3961 -0.1689
 1683ntf    cn113085   0.855   3.962   0.791  0.0603 -0.5414 -0.0152
 1683ntf    fn413086   1.042   3.723   0.251 -0.1250  0.1146 -0.0721
 1683ntf    fn413087   1.160   3.778   0.425  0.3499  0.1606 -0.4897
 1683ntf    fn413088   1.018   3.627   0.437 -0.5388  0.1176  0.1361
 1683ntf    on513089   0.986   3.994   0.376  0.5222  0.4215  0.1336
 1683ntf    on513090   0.799   3.837   0.429  0.4256  0.1050 -0.1573
 1683ntf    on513091   1.059   3.795   0.813  0.2344 -0.1627 -0.1723
 1683ntf    on513092   0.843   3.716   0.725 -0.1694 -0.0546  0.2522
 1683ntf    fn413093   0.829   3.935   0.918 -0.3490 -0.1414 -0.0095
 1683ntf    fn413094   0.933   4.067   0.811 -0.1225 -0.3384 -0.3490
 1683ntf    fn413095   0.749   4.010   0.727  0.3668 -0.1920 -0.2621
 1684ntf    cn113096   2.504   4.890   3.768 -0.4496  0.3654  0.3172
 1684ntf    sn213097   2.527   4.719   3.823 -0.2519  0.3073  0.0572
 1684ntf    nn313098   2.396   4.650   3.771  0.3861 -0.4663 -0.5564
 1684ntf    sn213099   2.310   4.530   3.826 -0.2448  0.2655  0.0880
 1684ntf    cn113100   2.272   4.447   3.669  0.0059  0.2569  0.0303
 1684ntf    fn413101   2.503   4.907   3.637 -0.0463 -0.8556  0.1434
 1684ntf    fn413102   2.390   4.943   3.810 -0.6463  0.1532  0.0487
 1684ntf    fn413103   2.604   4.961   3.817 -0.0701 -0.3078  0.5213
 1684ntf    on513104   2.654   4.690   3.760  0.1589  0.3443  0.8519
 1684ntf    on513105   2.529   4.735   3.967  0.0075 -0.0174  0.0917
 1684ntf    on513106   2.179   4.557   3.878 -0.1854 -0.0756  0.4149
 1684ntf    on513107   2.385   4.424   3.888 -0.2208  0.2403  0.0168
 1684ntf    fn413108   2.380   4.399   3.610  0.2312  0.4656  0.2733
 1684ntf    fn413109   2.193   4.343   3.695  0.4263 -0.1254 -0.2131
 1684ntf    fn413110   2.215   4.521   3.576  0.6644 -0.1190 -0.6828
 1685ntf    cn113111   5.410   1.822   5.199  0.1515 -0.1251  0.0693
 1685ntf    sn213112   5.355   1.717   5.336 -0.0100 -0.5310 -0.3047
 1685ntf    nn313113   5.429   1.779   5.460 -0.6178 -0.3370 -0.0363
 1685ntf    sn213114   5.374   1.880   5.567  0.2968  0.3262 -0.1829
 1685ntf    cn113115   5.326   1.763   5.698  0.6573 -0.2013 -0.5176
 1685ntf    fn413116   5.539   1.803   5.173  0.2086  0.5813 -0.1850
 1685ntf    fn413117   5.345   1.790   5.088  0.1631  0.2528 -0.0492
 1685ntf    fn413118   5.392   1.953   5.200  0.3511 -0.0998  0.5584
 1685ntf    on513119   5.212   1.735   5.338  0.1139  0.5414 -0.5415
 1685ntf    on513120   5.402   1.585   5.300 -0.4551 -0.6787 -0.3467
 1685ntf    on513121   5.250   1.945   5.535 -0.1968 -0.2850  0.4638
 1685ntf    on513122   5.475   1.967   5.624 -0.3870  0.5874  0.6490
 1685ntf    fn413123   5.417   1.743   5.792  0.1417 -0.2223 -0.0243
 1685ntf    fn413124   5.214   1.805   5.754  0.7944  0.3759 -0.6629
 1685ntf    fn413125   5.299   1.644   5.647 -0.1479 -0.4947  0.5496
 1686ntf    cn113126   2.707   2.888   1.036  0.0316 -0.1173  0.4124
 1686ntf    sn213127   2.648   2.727   0.977 -0.1543 -0.0330  0.3700
 1686ntf    nn313128   2.711   2.721   0.833  0.5912 -0.1445  0.6988
 1686ntf    sn213129   2.801   2.611   0.766  0.0919 -0.2195  0.1474
 1686ntf    cn113130   2.678   2.513   0.675  0.2903  0.0546 -0.4204
 1686ntf    fn413131   2.695   2.908   1.166 -0.3751  0.5144  0.2830
 1686ntf    fn413132   2.834   2.909   1.004 -0.1166 -0.3923 -0.3856
 1686ntf    fn413133   2.641   2.989   0.982 -0.2723 -0.3969  0.2552
 1686ntf    on513134   2.698   2.639   1.079  0.5118 -0.0934 -0.0067
 1686ntf    on513135   2.507   2.758   0.977 -0.0369  0.5361 -0.3891
 1686ntf    on513136   2.860   2.515   0.856  0.3828 -0.1946 -0.0175
 1686ntf    on513137   2.893   2.668   0.671 -0.0528 -0.2707 -0.0247
 1686ntf    fn413138   2.620   2.580   0.577 -0.1508 -0.1664 -0.3137
 1686ntf    fn413139   2.732   2.408   0.613  0.2769 -0.3790  0.2906
 1686ntf    fn413140   2.583   2.471   0.757  0.0750  0.2055 -0.5910
 1687ntf    cn113141   3.127   2.955   5.808 -0.0616  0.2745  0.0771
 1687ntf    sn213142   3.243   2.952   5.948 -0.0204  0.0796  0.0393
 1687ntf    nn313143   3.150   2.997   6.066 -0.3865  0.0173 -0.2239
 1687ntf    sn213144   3.126   3.143   6.119  0.2905  0.0012  0.1338
 1687ntf    cn113145   3.274   3.176   6.220  0.2658  0.1870  0.1088
 1687ntf    fn413146   3.000   2.924   5.834  0.0808 -0.4665 -0.0815
 1687ntf    fn413147   3.120   3.076   5.756  0.4617  0.4921  0.4984
 1687ntf    fn413148   3.168   2.869   5.717  0.0937 -0.1137  0.5062
 1687ntf    on513149   3.267   2.810   5.962 -0.0710 -0.0209 -0.8595
 1687ntf    on513150   3.353   3.040   5.919 -0.1166  0.2155  0.0821
 1687ntf    on513151   3.018   3.152   6.213  0.0585  0.1952 -0.1476
 1687ntf    on513152   3.123   3.239   6.010  0.5599  0.3132  0.3977
 1687ntf    fn413153   3.273   3.086   6.317 -0.4598 -0.4844 -0.5082
 1687ntf    fn413154   3.389   3.162   6.158 -0.1013 -0.2026 -0.4908
 1687ntf    fn413155   3.276   3.296   6.277  0.5008  0.0565  0.3786
 1688ntf    cn113156   6.141   5.510   3.317 -0.1054  0.1402 -0.4270
 1688ntf    sn213157   6.163   5.545   3.140 -0.0292 -0.2702 -0.5011
 1688ntf    nn313158   6.010   5.552   3.105 -0.2493 -0.4475  0.4079
 1688ntf    sn213159   5.940   5.637   2.993  0.1463 -0.1769  0.3650
 1688ntf    cn113160   5.949   5.510   2.863  0.6076  0.0672  0.1535
 1688ntf    fn413161   6.076   5.604   3.383 -0.3185 -0.1490 -0.2221
 1688ntf    fn413162   6.089   5.393   3.351 -0.0454  0.2458  0.0221
 1688ntf    fn413163   6.262   5.491   3.366 -0.2601 -0.8103 -0.3860
 1688ntf    on513164   6.233   5.670   3.152  0.1597 -0.4568  0.3962
 1688ntf    on513165   6.236   5.431   3.090 -0.3316 -0.6356 -0.1097
 1688ntf    on513166   6.014   5.746   2.934  0.0360 -0.2258  0.1345
 1688ntf    on513167   5.797   5.645   3.006  0.1305  0.0096  0.0922
 1688ntf    fn413168   6.068   5.457   2.845  0.3650 -0.3525 -0.2485
 1688ntf    fn413169   5.871   5.408   2.897 -0.1671  0.2800 -0.9425
 1688ntf    fn413170   5.909   5.546   2.742 -0.1158 -0.3825  0.2513
 1689ntf    cn113171   2.769   5.351   5.624 -0.0113  0.2824 -0.0557
 1689ntf    sn213172   2.784   5.459   5.769 -0.0362 -0.0942  0.2293
 1689ntf    nn313173   2.636   5.506   5.790  0.0083  0.2206 -0.1551
 1689ntf    sn213174   2.575   5.648   5.819  0.3539  0.3454 -0.0386
 1689ntf    cn113175   2.455   5.590   5.942  0.0633 -0.0374 -0.4980
 1689ntf    fn413176   2.858   5.255   5.611  0.0112  0.2604  0.2570
 1689ntf    fn413177   2.653   5.287   5.616 -0.2559  0.7388 -0.2192
 1689ntf    fn413178   2.778   5.427   5.516  0.0151  0.5550  0.1349
 1689ntf    on513179   2.838   5.373   5.872  0.1739  0.3614  0.5049
 1689ntf    on513180   2.877   5.559   5.722 -0.3681  0.2147  0.2251
 1689ntf    on513181   2.478   5.701   5.727  0.2432 -0.2584 -0.2749
 1689ntf    on513182   2.665   5.732   5.895  0.2493  0.4768 -0.0601
 1689ntf    fn413183   2.396   5.694   6.000  0.8228 -0.1028  0.4272
 1689ntf    fn413184   2.362   5.512   5.891  0.1857 -0.7310  0.3234
 1689ntf    fn413185   2.507   5.508   6.032  0.3024  0.5783 -0.0615
 1690ntf    cn113186   5.276   6.132   6.305  0.2847 -0.0858  0.0310
 1690ntf    sn213187   5.319   6.120   6.481  0.0050 -0.0507  0.1026
 1690ntf    nn313188   5.352   5.967   6.491 -0.7546 -0.2336 -0.1780
 1690ntf    sn213189   5.286   5.863   6.588 -0.1184  0.0204  0.5322
 1690ntf    cn113190   5.444   5.806   6.659  0.1986  0.2032 -0.0190
 1690ntf    fn413191   5.298   6.252   6.254 -0.2464  0.0802  0.1900
 1690ntf    fn413192   5.358   6.051   6.240  0.1047  0.0219 -0.3364
 1690ntf    fn413193   5.152   6.095   6.275  0.3041  0.2248 -0.4386
 1690ntf    on513194   5.436   6.205   6.486  0.1616 -0.2719  0.2087
 1690ntf    on513195   5.212   6.180   6.556 -0.2425  0.1028 -0.3696
 1690ntf    on513196   5.240   5.746   6.518  0.3978  0.1817 -0.0834
 1690ntf    on513197   5.223   5.916   6.706  0.3148  0.3050  0.6369
 1690ntf    fn413198   5.510   5.908   6.711 -0.0305  0.2529  0.1761
 1690ntf    fn413199   5.432   5.717   6.756  0.2164  0.3624  0.1295
 1690ntf    fn413200   5.534   5.758   6.575  0.2468  0.3603 -0.0573
 1691ntf    cn113201   1.603   2.263   6.371 -0.3698 -0.3181 -0.2371
 1691ntf    sn213202   1.496   2.373   6.274  0.0319  0.1974 -0.0974
 1691ntf    nn313203   1.558   2.342   6.133 -0.4147  0.6666 -0.4019
 1691ntf    sn213204   1.666   2.428   6.058 -0.1509  0.4704 -0.2496
 1691ntf    cn113205   1.573   2.522   5.933 -0.2518  0.3533 -0.2632
 1691ntf    fn413206   1.717   2.325   6.395 -0.7199  0.1006  0.3832
 1691ntf    fn413207   1.551   2.239   6.491  0.6726  0.0714  0.3033
 1691ntf    fn413208   1.630   2.143   6.322  0.2973 -0.4373  0.3976
 1691ntf    on513209   1.365   2.316   6.288  0.2250  0.0179  1.0808
 1691ntf    on513210   1.524   2.506   6.322  0.4238  0.1580 -0.2095
 1691ntf    on513211   1.750   2.346   5.974 -0.0493 -0.2173  0.5130
 1691ntf    on513212   1.736   2.523   6.141 -0.0327  0.0375  0.1513
 1691ntf    fn413213   1.478   2.591   5.993  0.0190  0.2078  0.3477
 1691ntf    fn413214   1.653   2.606   5.869  0.4420 -0.0651  0.0361
 1691ntf    fn413215   1.511   2.446   5.845  0.4301 -0.5181  0.0001
 1692ntf    cn113216   4.148   0.672   2.568  0.2501  0.1727 -0.2413
 1692ntf    sn213217   4.085   0.838   2.607  0.3974  0.2442 -0.3048
 1692ntf    nn313218   3.955   0.802   2.689  0.3493  0.4302 -0.2974
 1692ntf    sn213219   3.803   0.792   2.653  0.2745  0.2360  0.0729
 1692ntf    cn113220   3.770   0.634   2.736 -0.0599  0.3975  0.2506
 1692ntf    fn413221   4.164   0.613   2.685  0.0640  0.4168 -0.0914
 1692ntf    fn413222   4.059   0.604   2.498 -0.2443  0.3027  0.2515
 1692ntf    fn413223   4.258   0.669   2.495  0.7681  0.0712  0.5357
 1692ntf    on513224   4.183   0.895   2.697  0.5337  0.2689 -0.4697
 1692ntf    on513225   4.064   0.903   2.480 -0.1581 -0.1461 -0.4170
 1692ntf    on513226   3.758   0.764   2.519 -0.4067 -0.5104  0.4454
 1692ntf    on513227   3.723   0.888   2.726 -0.2605 -0.1176 -0.0445
 1692ntf    fn413228   3.870   0.551   2.712 -0.3088  0.2230 -0.1869
 1692ntf    fn413229   3.757   0.648   2.867 -0.1876 -0.8683  0.3841
 1692ntf    fn413230   3.654   0.579   2.703  0.4341 -0.2622 -0.4174
 1693ntf    cn113231   4.237   0.171   5.778  0.3089  0.3457 -0.0925
 1693ntf    sn213232   4.099   0.252   5.865 -0.0375 -0.1934 -0.1340
 1693ntf    nn313233   4.149   0.240   6.013  0.0728 -1.0560 -0.2372
 1693ntf    sn213234   4.084   0.171   6.139  0.1881 -0.0839  0.3606
 1693ntf    cn113235   4.120   0.302   6.261 -0.1557  0.5045 -0.1667
 1693ntf    fn413236   4.205   0.150   5.651  0.5425  0.2802 -0.1411
 1693ntf    fn413237   4.344   0.248   5.780  0.0215  0.7380  0.3062
 1693ntf    fn413238   4.269   0.054   5.830  0.4757  0.2310 -0.4499
 1693ntf    on513239   4.096   0.386   5.812 -0.1661 -0.3879 -0.6284
 1693ntf    on513240   3.987   0.166   5.836 -0.1720  0.0774 -0.4185
 1693ntf    on513241   4.156   0.058   6.192  0.1776 -0.4167 -0.3280
 1693ntf    on513242   3.940   0.177   6.149  0.1316 -0.2063 -0.3778
 1693ntf    fn413243   4.243   0.349   6.266  0.2933 -0.6317 -0.2233
 1693ntf    fn413244   4.039   0.407   6.256 -0.5260  0.2253 -0.1265
 1693ntf    fn413245   4.096   0.260   6.384  0.4592 -0.1325 -0.2582
 1694ntf    cn113246   6.118   3.289   0.539 -0.1389  0.0084 -0.5770
 1694ntf    sn213247   6.294   3.327   0.516 -0.0920  0.2557  0.1589
 1694ntf    nn313248   6.308   3.273   0.369 -0.5100  0.0608  0.1891
 1694ntf    sn213249   6.274   3.350   0.236 -0.1184 -0.1569 -0.0381
 1694ntf    cn113250   6.444   3.333   0.173 -0.0615 -0.0270  0.0787
 1694ntf    fn413251   6.034   3.369   0.475 -0.0391  0.3200 -0.3231
 1694ntf    fn413252   6.093   3.165   0.502 -0.2473  0.0277 -0.5691
 1694ntf    fn413253   6.099   3.297   0.670 -0.1068  0.3487 -0.5930
 1694ntf    on513254   6.315   3.468   0.539 -0.0809  0.2154  0.3943
 1694ntf    on513255   6.345   3.233   0.612  0.3102 -0.1366 -0.4339
 1694ntf    on513256   6.257   3.493   0.242 -0.1919 -0.1619 -0.1344
 1694ntf    on513257   6.207   3.281   0.129  0.1103 -0.5243  0.0511
 1694ntf    fn413258   6.488   3.208   0.170 -0.1946 -0.0759  0.1563
 1694ntf    fn413259   6.455   3.384   0.052 -0.3894  0.1883  0.1380
 1694ntf    fn413260   6.528   3.397   0.253  0.0093  0.3080 -0.2643
 1695ntf    cn113261   3.136   0.250   2.308  0.1414 -0.1012 -0.0647
 1695ntf    sn213262   2.972   0.293   2.372  0.1162 -0.1043 -0.1261
 1695ntf    nn313263   3.008   0.424   2.450 -0.3365 -0.2448  0.3258
 1695ntf    sn213264   2.910   0.542   2.486 -0.1112 -0.0089  0.1616
 1695ntf    cn113265   2.944   0.668   2.359  0.2650 -0.3522 -0.0828
 1695ntf    fn413266   3.211   0.352   2.270  0.2344 -0.1552 -0.0268
 1695ntf    fn413267   3.207   0.181   2.396 -0.8097 -0.2839  0.5686
 1695ntf    fn413268   3.139   0.169   2.203  0.3757 -0.0692 -0.0844
 1695ntf    on513269   2.876   0.305   2.265  0.2459 -0.1526 -0.2474
 1695ntf    on513270   2.959   0.186   2.469 -0.4554 -0.0183 -0.1039
 1695ntf    on513271   2.954   0.607   2.607 -1.1174  0.0033  0.5246
 1695ntf    on513272   2.769   0.512   2.482 -0.1322  0.0758  0.2721
 1695ntf    fn413273   2.915   0.630   2.236  0.1606 -0.3634 -0.0545
 1695ntf    fn413274   2.872   0.777   2.383  0.3895 -0.5243  1.1471
 1695ntf    fn413275   3.070   0.709   2.360  0.1419  0.0275  0.7318
 1696ntf    cn113276   5.623   5.662   5.153 -0.5504 -0.1048  0.1365
 1696ntf    sn213277   5.805   5.654   5.163 -0.5243  0.3779  0.0868
 1696ntf    nn313278   5.845   5.715   5.024  0.5783 -0.1826  0.1483
 1696ntf    sn213279   5.884   5.655   4.885 -0.1827 -0.4162  0.0309
 1696ntf    cn113280   5.766   5.755   4.789  0.0672 -0.0712  0.0818
 1696ntf    fn413281   5.563   5.639   5.269  0.0293 -0.1551  0.4313
 1696ntf    fn413282   5.578   5.778   5.108  0.3558  0.3214  0.2973
 1696ntf    fn413283   5.583   5.576   5.062  0.0541  0.0845 -0.3157
 1696ntf    on513284   5.839   5.745   5.270 -0.1920  0.1016  0.2176
 1696ntf    on513285   5.824   5.512   5.182 -0.3086  0.3499 -0.3457
 1696ntf    on513286   5.844   5.518   4.862 -0.4369 -0.3469  0.0578
 1696ntf    on513287   6.007   5.706   4.829 -0.4070  0.1044  0.0070
 1696ntf    fn413288   5.731   5.702   4.673 -0.2253  0.5650 -0.1237
 1696ntf    fn413289   5.649   5.762   4.850 -0.0410 -0.1166 -0.1180
 1696ntf    fn413290   5.804   5.879   4.762  0.0537  0.0333  0.5393
 1697ntf    cn113291   0.294   6.285   3.131 -0.1634  0.0311  0.1445
 1697ntf    sn213292   0.171   6.405   3.190 -0.0931  0.1302  0.0892
 1697ntf    nn313293   0.239   6.533   3.130  0.1742 -0.1123 -0.1317
 1697ntf    sn213294   0.177   6.660   3.061  0.3739 -0.0866 -0.2632
 1697ntf    cn113295   0.201   6.791   3.185  0.0053  0.0503 -0.3353
 1697ntf    fn413296   0.418   6.303   3.173 -0.2007 -0.0188  0.2775
 1697ntf    fn413297   0.263   6.161   3.166  0.1022 -0.1649 -0.3011
 1697ntf    fn413298   0.299   6.277   2.999  0.0753 -0.1585  0.1643
 1697ntf    on513299   0.037   6.373   3.145  0.0431 -0.5485  0.1624
 1697ntf    on513300   0.193   6.392   3.332  0.5078  0.0663 -0.0108
 1697ntf    on513301   0.036   6.658   3.029  0.2694  0.0368  0.1823
 1697ntf    on513302   0.260   6.715   2.957 -0.3642  0.5138 -0.5431
 1697ntf    fn413303   0.144   6.753   3.299 -0.1479  0.4344 -0.2823
 1697ntf    fn413304   0.327   6.817   3.212  0.1299 -0.5530 -0.3121
 1697ntf    fn413305   0.142   6.905   3.152 -0.0328 -0.0352 -0.5637
 1698ntf    cn113306   1.976   4.070   4.116  0.3037 -0.1689  0.0770
 1698ntf    sn213307   1.821   3.993   4.170  0.2815 -0.2078 -0.0433
 1698ntf    nn313308   1.802   3.877   4.066  0.6922 -0.3015 -0.0134
 1698ntf    sn213309   1.822   3.721   4.071 -0.0057 -0.3964 -0.1015
 1698ntf    cn113310   1.982   3.710   3.986  0.0448 -0.4266 -0.0029
 1698ntf    fn413311   1.964   4.097   3.988 -0.1128 -0.0564  0.1400
 1698ntf    fn413312   2.010   4.185   4.172 -0.1473 -0.3724  0.7839
 1698ntf    fn413313   2.084   3.993   4.122 -0.0666 -0.6789  0.2563
 1698ntf    on513314   1.859   3.946   4.301 -0.0870  0.0780  0.1678
 1698ntf    on513315   1.725   4.101   4.166  0.2535 -0.2130  0.4019
 1698ntf    on513316   1.735   3.663   3.971 -0.6298  0.1649  0.1042
 1698ntf    on513317   1.841   3.662   4.201  0.3906 -0.7560 -0.3240
 1698ntf    fn413318   1.989   3.760   3.863  0.7040 -0.0792  0.1698
 1698ntf    fn413319   2.081   3.777   4.041 -0.3313  0.2584 -0.1524
 1698ntf    fn413320   2.029   3.588   3.967  0.0145 -0.4372 -0.0112
 1699ntf    cn113321   4.931   2.503   2.384  0.0550 -0.3000  0.1294
 1699ntf    sn213322   5.078   2.526   2.280  0.0533  0.0630  0.2065
 1699ntf    nn313323   5.184   2.547   2.394  0.4411 -0.0826 -0.1228
 1699ntf    sn213324   5.260   2.679   2.432  0.2236  0.0232 -0.0508
 1699ntf    cn113325   5.412   2.667   2.333  0.1518 -0.0926 -0.1476
 1699ntf    fn413326   4.895   2.615   2.445  0.5103  0.1779 -0.4685
 1699ntf    fn413327   4.828   2.459   2.313 -0.4381  0.2123  0.5184
 1699ntf    fn413328   4.956   2.408   2.472 -0.5481 -0.3151  0.2919
 1699ntf    on513329   5.093   2.402   2.209 -0.0239  0.1110  0.1061
 1699ntf    on513330   5.047   2.638   2.195  0.3486  0.2068  0.2874
 1699ntf    on513331   5.313   2.675   2.567  0.0491 -1.2120 -0.0104
 1699ntf    on513332   5.196   2.802   2.393 -0.3790 -0.3920 -0.3849
 1699ntf    fn413333   5.490   2.774   2.344 -0.0586  0.0064  0.4534
 1699ntf    fn413334   5.475   2.558   2.375 -0.9734 -0.5820  0.2984
 1699ntf    fn413335   5.392   2.650   2.204  0.2967 -0.3032 -0.1423
 1700ntf    cn113336   6.474   0.741   4.999 -0.2071  0.1918 -0.0342
 1700ntf    sn213337   6.566   0.703   5.151  0.2845 -0.1632 -0.4207
 1700ntf    nn313338   6.619   0.845   5.193  0.0638 -0.3223  0.4153
 1700ntf    sn213339   6.565   0.938   5.307  0.0199 -0.1352  0.2423
 1700ntf    cn113340   6.563   1.095   5.215  0.0009 -0.2221  0.0938
 1700ntf    fn413341   6.545   0.823   4.924 -0.1386  0.3335  0.1844
 1700ntf    fn413342   6.440   0.631   4.934 -0.0602 -0.0793  0.3459
 1700ntf    fn413343   6.355   0.797   5.017  0.0451  0.5667  0.5036
 1700ntf    on513344   6.461   0.654   5.236  0.5248 -0.2804 -0.1868
 1700ntf    on513345   6.669   0.609   5.114  0.5360  0.2479 -0.7778
 1700ntf    on513346   6.671   0.957   5.403 -0.5190  0.0126  0.8124
 1700ntf    on513347   6.426   0.929   5.344 -0.1095  0.0254 -0.1945
 1700ntf    fn413348   6.516   1.200   5.280  0.1179 -0.1520  0.0659
 1700ntf    fn413349   6.687   1.119   5.175 -0.0981 -0.2675 -0.2497
 1700ntf    fn413350   6.491   1.091   5.104  0.0805  0.1944  0.0264
 1701ntf    cn113351   3.683   3.912   5.324 -0.3261  0.3862  0.4568
 1701ntf    sn213352   3.801   3.946   5.189 -0.3547  0.1293  0.3671
 1701ntf    nn313353   3.866   3.805   5.167  0.1350  0.3794  0.1882
 1701ntf    sn213354   4.010   3.748   5.192 -0.1108 -0.2579  0.1747
 1701ntf    cn113355   3.970   3.585   5.262 -0.2750 -0.0598  0.5415
 1701ntf    fn413356   3.568   3.861   5.284 -0.0456 -0.1290  0.3084
 1701ntf    fn413357   3.732   3.830   5.415  0.2421 -0.2010 -0.3615
 1701ntf    fn413358   3.650   4.026   5.382 -0.3084  0.8818 -0.4813
 1701ntf    on513359   3.710   3.981   5.082  0.2332 -0.5474 -0.3623
 1701ntf    on513360   3.889   4.054   5.225 -0.1739  0.2070 -0.2928
 1701ntf    on513361   4.080   3.812   5.300 -0.5856  0.4041  0.0966
 1701ntf    on513362   4.092   3.724   5.077  0.2542  0.1257  0.3507
 1701ntf    fn413363   4.069   3.529   5.329  0.1513  0.6478  0.5102
 1701ntf    fn413364   3.870   3.588   5.349 -0.5957 -0.2803  0.1823
 1701ntf    fn413365   3.937   3.507   5.161 -0.1642  0.1259  0.3626
 1702ntf    cn113366   5.168   2.419   1.323  0.2072 -0.0979  0.0152
 1702ntf    sn213367   5.238   2.403   1.156 -0.2265  0.1684 -0.1953
 1702ntf    nn313368   5.330   2.277   1.174 -0.3914  0.1563  0.5972
 1702ntf    sn213369   5.487   2.284   1.164 -0.4353  0.0720 -0.2000
 1702ntf    cn113370   5.503   2.242   0.987 -0.0032  0.1988 -0.1918
 1702ntf    fn413371   5.260   2.397   1.414  0.3504  0.1957 -0.0579
 1702ntf    fn413372   5.116   2.539   1.344 -0.2086 -0.2012 -0.3766
 1702ntf    fn413373   5.075   2.328   1.345  0.1211 -0.0679 -0.2180
 1702ntf    on513374   5.120   2.385   1.075 -0.1894  0.1409 -0.2433
 1702ntf    on513375   5.306   2.527   1.125  0.2603 -0.1301 -0.3354
 1702ntf    on513376   5.546   2.170   1.229  0.2975  0.4560 -0.1885
 1702ntf    on513377   5.551   2.412   1.175  0.0738 -0.2139  0.1705
 1702ntf    fn413378   5.408   2.157   0.950 -0.3009  0.4155  0.0602
 1702ntf    fn413379   5.480   2.349   0.913  0.2952  0.1760 -0.3178
 1702ntf    fn413380   5.615   2.189   0.943 -0.0685 -0.0741 -0.0318
 1703ntf    cn113381   2.845   0.807   5.459  0.2829 -0.0586 -0.1444
 1703ntf    sn213382   2.896   0.868   5.623 -0.3948  0.1574 -0.0114
 1703ntf    nn313383   2.927   0.738   5.705  0.3336  0.0225 -0.4879
 1703ntf    sn213384   2.828   0.631   5.765  0.0488  0.2652 -0.5228
 1703ntf    cn113385   2.919   0.476   5.736 -0.2951 -0.0477  0.0550
 1703ntf    fn413386   2.829   0.676   5.464  0.2555 -0.0549 -0.1350
 1703ntf    fn413387   2.727   0.859   5.433  0.0790 -0.2471  0.3880
 1703ntf    fn413388   2.935   0.835   5.366  0.2423 -0.2763 -0.2495
 1703ntf    on513389   3.018   0.944   5.606 -0.6870  0.5239 -0.4890
 1703ntf    on513390   2.789   0.945   5.682  0.2465  0.6167  0.5659
 1703ntf    on513391   2.699   0.620   5.701 -0.7745  0.5196  1.0446
 1703ntf    on513392   2.820   0.625   5.908  0.9168  0.2323 -0.4698
 1703ntf    fn413393   3.041   0.477   5.785 -0.3397 -0.0906  0.1662
 1703ntf    fn413394   2.853   0.370   5.779  0.0600 -0.3792 -0.2111
 1703ntf    fn413395   2.936   0.450   5.607  0.2047  0.5062  0.0037
 1704ntf    cn113396   2.313   0.428   6.266 -0.5861 -0.2247  0.3334
 1704ntf    sn213397   2.413   0.483   6.408  0.0390 -0.2192 -0.1035
 1704ntf    nn313398   2.527   0.375   6.420  0.2654 -0.0318 -0.5841
 1704ntf    sn213399   2.601   0.329   6.550 -0.7281 -0.0827 -0.0319
 1704ntf    cn113400   2.489   0.198   6.607  0.0278 -0.6875  0.0724
 1704ntf    fn413401   2.288   0.298   6.271 -0.1994 -0.3215 -0.2343
 1704ntf    fn413402   2.192   0.483   6.265 -0.4370  0.1088 -0.5535
 1704ntf    fn413403   2.373   0.460   6.153 -0.8186  0.0025  0.2721
 1704ntf    on513404   2.464   0.612   6.372 -0.4986  0.1015  0.2665
 1704ntf    on513405   2.319   0.482   6.518 -0.2359  0.9558 -0.3214
 1704ntf    on513406   2.604   0.429   6.655 -0.5892 -0.6217  0.4805
 1704ntf    on513407   2.724   0.258   6.528 -0.3907  0.4563  0.0864
 1704ntf    fn413408   2.390   0.185   6.520 -0.0928  0.6873 -0.0244
 1704ntf    fn413409   2.555   0.083   6.610  0.2605 -0.5514  0.1964
 1704ntf    fn413410   2.431   0.219   6.724 -0.2579 -0.0715 -0.1757
 1705ntf    cn113411   0.534   0.239   1.323 -0.0680  0.0733 -0.4157
 1705ntf    sn213412   0.607   0.146   1.461 -0.1728  0.1398 -0.3154
 1705ntf    nn313413   0.612   0.251   1.578 -0.7871 -0.4697  0.2641
 1705ntf    sn213414   0.601   0.220   1.732 -0.1508 -0.3135  0.3449
 1705ntf    cn113415   0.741   0.106   1.747 -0.0173 -0.1560  0.2939
 1705ntf    fn413416   0.434   0.314   1.368 -0.0746  0.1437 -0.5474
 1705ntf    fn413417   0.614   0.332   1.271  0.3866  0.2295  0.5401
 1705ntf    fn413418   0.480   0.178   1.219  0.0678 -0.3870 -0.2181
 1705ntf    on513419   0.517   0.036   1.484 -0.1285  0.2197  0.2505
 1705ntf    on513420   0.733   0.104   1.406  0.2621  0.1271  0.6695
 1705ntf    on513421   0.487   0.144   1.779 -0.2014 -0.5820 -0.2020
 1705ntf    on513422   0.639   0.332   1.814 -0.7001 -0.1196  0.3439
 1705ntf    fn413423   0.859   0.145   1.701 -0.2456  0.0729 -0.1025
 1705ntf    fn413424   0.751   0.084   1.877 -0.2890  0.3917  0.4122
 1705ntf    fn413425   0.711  -0.005   1.681 -0.6105  0.0559  0.2043
 1706ntf    cn113426   2.577   5.565   6.501 -0.1759 -0.7712  0.0559
 1706ntf    sn213427   2.627   5.614   6.669 -0.3075 -0.2200 -0.0632
 1706ntf    nn313428   2.598   5.768   6.662  0.1293 -0.1397 -0.1189
 1706ntf    sn213429   2.461   5.841   6.688  0.1181 -0.2422  0.1150
 1706ntf    cn113430   2.467   5.882   6.865 -0.1257 -0.1069  0.0911
 1706ntf    fn413431   2.571   5.435   6.482 -1.0368 -0.7535  0.1516
 1706ntf    fn413432   2.465   5.623   6.463  0.2987  0.2488  0.1665
 1706ntf    fn413433   2.669   5.601   6.413 -0.1690 -0.3434  0.2321
 1706ntf    on513434   2.536   5.546   6.758 -0.2090 -0.4033 -0.1027
 1706ntf    on513435   2.768   5.585   6.669 -0.1211  0.6636 -0.5137
 1706ntf    on513436   2.344   5.758   6.680  0.3774 -0.6235  0.2352
 1706ntf    on513437   2.456   5.970   6.624 -0.3303  0.1333  0.8938
 1706ntf    fn413438   2.433   5.785   6.948 -0.5791 -0.0747 -0.0520
 1706ntf    fn413439   2.585   5.929   6.901 -0.1040 -0.2114  0.1549
 1706ntf    fn413440   2.375   5.974   6.892 -0.0300  0.0760 -0.2045
 1707ntf    cn113441   3.377   6.043   5.572 -0.3389  0.0143 -0.1530
 1707ntf    sn213442   3.368   6.164   5.437 -0.1060  0.0827 -0.1085
 1707ntf    nn313443   3.245   6.108   5.358 -0.0513 -0.1103 -0.0576
 1707ntf    sn213444   3.094   6.139   5.388  0.0108 -0.2238  0.3663
 1707ntf    cn113445   3.069   6.280   5.277  0.2246 -0.2272  0.3148
 1707ntf    fn413446   3.404   5.920   5.531 -0.4251  0.0839 -0.4189
 1707ntf    fn413447   3.460   6.085   5.667 -0.3426 -0.4009  0.0378
 1707ntf    fn413448   3.258   6.036   5.628 -0.1960  0.0830  0.1666
 1707ntf    on513449   3.344   6.293   5.495  0.4627  0.1701 -0.0633
 1707ntf    on513450   3.492   6.151   5.363  0.3707  0.7501  0.5690
 1707ntf    on513451   3.054   6.179   5.521 -0.2081  0.4016  0.1152
 1707ntf    on513452   3.013   6.033   5.333 -0.0846 -0.1638  0.3907
 1707ntf    fn413453   3.108   6.258   5.153 -0.0180  0.1609  0.1663
 1707ntf    fn413454   2.944   6.321   5.282  0.1585 -0.4484  0.4784
 1707ntf    fn413455   3.139   6.388   5.309 -0.1333  0.1714 -0.2305
 1708ntf    cn113456   4.898   2.122   6.280  0.2108 -0.0169  0.1523
 1708ntf    sn213457   4.903   2.216   6.125  0.1227  0.1454  0.2478
 1708ntf    nn313458   4.782   2.156   6.044  0.2530  0.0917  0.0938
 1708ntf    sn213459   4.790   2.039   5.939  0.3579  0.0751  0.1204
 1708ntf    cn113460   4.784   2.133   5.784 -0.4425  0.0323  0.1208
 1708ntf    fn413461   4.791   2.149   6.353  0.0601  0.0967 -0.1109
 1708ntf    fn413462   4.903   1.991   6.265 -0.0537  0.0520 -0.5630
 1708ntf    fn413463   4.997   2.151   6.364 -0.2278 -0.2872  0.7712
 1708ntf    on513464   4.873   2.347   6.178 -0.1210  0.1467  0.1112
 1708ntf    on513465   5.033   2.192   6.069  0.0805 -0.5512  0.4435
 1708ntf    on513466   4.667   1.964   5.939  0.6009 -0.3310 -0.4692
 1708ntf    on513467   4.909   1.957   5.940  0.1773 -0.1990 -0.4828
 1708ntf    fn413468   4.815   2.064   5.676 -0.5068 -0.1772  0.2357
 1708ntf    fn413469   4.665   2.184   5.755 -0.3776  0.2011  0.1461
 1708ntf    fn413470   4.866   2.237   5.797  0.0041 -0.2616 -0.3162
 1709ntf    cn113471   1.827   1.155   5.607  0.1341  0.0012 -0.4925
 1709ntf    sn213472   1.847   1.177   5.428 -0.0493  0.3835 -0.4671
 1709ntf    nn313473   1.843   1.333   5.417 -0.4913  0.3560 -0.7013
 1709ntf    sn213474   1.968   1.427   5.413 -0.2362  0.0528  0.0267
 1709ntf    cn113475   1.916   1.555   5.531  0.2250  0.2079  0.0660
 1709ntf    fn413476   1.713   1.206   5.651  0.1324 -0.1663 -0.2992
 1709ntf    fn413477   1.815   1.027   5.639  0.3220  0.0981 -0.0193
 1709ntf    fn413478   1.925   1.207   5.680 -0.3856  0.2979  0.0009
 1709ntf    on513479   1.969   1.102   5.408  0.2059  0.5334  0.4740
 1709ntf    on513480   1.731   1.118   5.365 -0.4196  1.1203 -0.4841
 1709ntf    on513481   1.972   1.487   5.281 -0.3672  0.0767  0.0334
 1709ntf    on513482   2.089   1.375   5.473 -0.1687 -0.3733 -0.4638
 1709ntf    fn413483   1.884   1.504   5.649 -0.4380  0.6855  0.0929
 1709ntf    fn413484   2.007   1.648   5.554  0.6429 -0.1006 -0.3148
 1709ntf    fn413485   1.806   1.617   5.491  0.0250 -0.3455 -0.2672
 1710ntf    cn113486   2.420   6.435   5.782  0.1626 -0.2548 -0.4535
 1710ntf    sn213487   2.362   6.429   5.954 -0.3962  0.1122 -0.6279
 1710ntf    nn313488   2.480   6.361   6.031 -0.4531 -0.0772 -0.7080
 1710ntf    sn213489   2.495   6.207   6.062 -0.1273  0.1015  0.0505
 1710ntf    cn113490   2.676   6.194   6.061 -0.1402 -0.0762 -0.1757
 1710ntf    fn413491   2.543   6.485   5.775  0.0200  0.1865  0.1359
 1710ntf    fn413492   2.422   6.315   5.725 -0.7065 -0.3891 -0.2109
 1710ntf    fn413493   2.350   6.520   5.708 -0.1129  0.2700  0.4019
 1710ntf    on513494   2.353   6.571   5.976  0.0707  0.1129 -0.4477
 1710ntf    on513495   2.234   6.361   5.952 -0.2967 -0.1214  0.4913
 1710ntf    on513496   2.461   6.123   5.949  0.3284  0.1536 -0.1279
 1710ntf    on513497   2.451   6.167   6.193  0.0210  0.0447  0.0830
 1710ntf    fn413498   2.747   6.236   6.165 -0.1277 -0.4747 -0.0217
 1710ntf    fn413499   2.720   6.071   6.043 -0.4166 -0.1668 -0.2269
 1710ntf    fn413500   2.730   6.266   5.964 -0.0576  0.4893  0.2882
 1711ntf    cn113501   3.027   5.465   4.592 -0.2150  0.1566  0.1557
 1711ntf    sn213502   2.907   5.370   4.691  0.1535 -0.1427  0.3178
 1711ntf    nn313503   2.923   5.447   4.827  0.3134  0.0547  0.1872
 1711ntf    sn213504   2.822   5.539   4.905 -0.1093 -0.4770  0.2736
 1711ntf    cn113505   2.743   5.428   5.024 -0.4248 -0.4113  0.1245
 1711ntf    fn413506   3.053   5.398   4.481  0.0068 -0.3662  0.5153
 1711ntf    fn413507   2.977   5.580   4.551 -0.2541 -0.0053 -0.2571
 1711ntf    fn413508   3.144   5.499   4.643 -0.1471  0.0663  0.0602
 1711ntf    on513509   2.779   5.388   4.627  0.2379 -0.3268  0.0961
 1711ntf    on513510   2.957   5.235   4.695 -0.2234 -0.3294 -0.8500
 1711ntf    on513511   2.708   5.595   4.837  0.3678  0.0523 -0.1079
 1711ntf    on513512   2.895   5.632   4.988  0.4097 -0.2075 -0.4677
 1711ntf    fn413513   2.838   5.370   5.095 -0.2565 -0.4437 -0.1277
 1711ntf    fn413514   2.666   5.487   5.115  0.2755  0.1883  0.3329
 1711ntf    fn413515   2.681   5.322   4.975  0.4443 -0.9400  0.1571
 1712ntf    cn113516   2.406   4.210   1.515  0.0584  0.0742  0.2395
 1712ntf    sn213517   2.274   4.283   1.618 -0.0817  0.2021 -0.0305
 1712ntf    nn313518   2.252   4.163   1.717 -0.3612 -0.1856 -0.5561
 1712ntf    sn213519   2.132   4.062   1.721 -0.3828 -0.1315  0.2946
 1712ntf    cn113520   2.200   3.926   1.820  0.0337 -0.2886 -0.2052
 1712ntf    fn413521   2.377   4.094   1.460  0.3661  0.1777 -0.1398
 1712ntf    fn413522   2.417   4.292   1.412  0.0969  0.0949  0.2595
 1712ntf    fn413523   2.525   4.195   1.571  0.3090  0.4201 -0.1963
 1712ntf    on513524   2.337   4.401   1.673 -0.2344  0.4379 -0.3561
 1712ntf    on513525   2.177   4.305   1.513 -0.0269  0.0966 -0.1041
 1712ntf    on513526   2.093   4.013   1.591 -0.7124  0.1194  0.2967
 1712ntf    on513527   2.021   4.110   1.801 -0.0748 -0.1720  0.7488
 1712ntf    fn413528   2.120   3.821   1.824 -0.2528 -0.0737 -0.2651
 1712ntf    fn413529   2.318   3.884   1.778 -0.0245  0.1152 -0.7856
 1712ntf    fn413530   2.217   3.971   1.943 -0.7999  0.0257 -0.1948
 1713ntf    cn113531   2.506   3.095   0.165 -0.0461 -0.0990  0.0343
 1713ntf    sn213532   2.577   3.245   0.093  0.0354 -0.0073  0.3038
 1713ntf    nn313533   2.558   3.199  -0.056  0.6260  0.4305  0.0883
 1713ntf    sn213534   2.646   3.234  -0.181  0.1697  0.1193 -0.3234
 1713ntf    cn113535   2.521   3.330  -0.272 -0.2973 -0.1219  0.0610
 1713ntf    fn413536   2.593   2.997   0.143  0.0223  0.1502 -0.8204
 1713ntf    fn413537   2.497   3.108   0.297 -0.0596  0.3092 -0.0069
 1713ntf    fn413538   2.389   3.050   0.121 -0.0153 -0.2351  0.0900
 1713ntf    on513539   2.492   3.357   0.126  0.4260  0.4459 -0.1997
 1713ntf    on513540   2.710   3.246   0.150  0.1881 -0.4520 -0.0362
 1713ntf    on513541   2.670   3.115  -0.260 -0.2142 -0.0578 -0.1741
 1713ntf    on513542   2.755   3.324  -0.152  0.0068  0.3354 -0.3796
 1713ntf    fn413543   2.428   3.249  -0.318 -0.4576  0.2316 -0.2409
 1713ntf    fn413544   2.456   3.420  -0.200  0.1468 -0.0243  0.3438
 1713ntf    fn413545   2.577   3.396  -0.372  0.4859 -0.4347  0.2846
 1714ntf    cn113546   3.638   4.278   6.611 -0.2263 -0.1447  0.3990
 1714ntf    sn213547   3.649   4.383   6.462 -0.2357 -0.0242  0.4824
 1714ntf    nn313548   3.729   4.505   6.521 -0.1952  0.0961  0.1769
 1714ntf    sn213549   3.688   4.656   6.510 -0.0065  0.1534  0.2625
 1714ntf    cn113550   3.847   4.743   6.522  0.0942 -0.0351  0.3153
 1714ntf    fn413551   3.758   4.252   6.659 -0.2114 -0.1603  0.3534
 1714ntf    fn413552   3.568   4.334   6.708 -0.5035  0.1532  0.0300
 1714ntf    fn413553   3.585   4.160   6.585 -0.2066 -0.1725  0.4857
 1714ntf    on513554   3.733   4.312   6.368 -0.0438 -0.0007  0.6339
 1714ntf    on513555   3.512   4.402   6.424  0.0484 -0.4343 -0.8012
 1714ntf    on513556   3.609   4.713   6.616  0.0853 -0.1199  0.4790
 1714ntf    on513557   3.640   4.684   6.377  0.1871 -0.1802  0.1202
 1714ntf    fn413558   3.840   4.874   6.504 -0.1569 -0.1194 -0.2332
 1714ntf    fn413559   3.919   4.731   6.632  0.0589  0.1751  0.3623
 1714ntf    fn413560   3.929   4.700   6.427  0.0880 -0.3754  0.4657
 1715ntf    cn113561   1.133   0.992   6.626  0.1588  0.0635 -0.3757
 1715ntf    sn213562   1.129   1.091   6.473  0.3978  0.1245 -0.3423
 1715ntf    nn313563   0.973   1.099   6.452  0.3987  0.3309 -0.2760
 1715ntf    sn213564   0.882   1.216   6.503 -0.1603 -0.0966 -0.2868
 1715ntf    cn113565   0.845   1.309   6.351 -0.2272  0.4741  0.0741
 1715ntf    fn413566   1.080   0.871   6.619  0.3699 -0.0585  0.1117
 1715ntf    fn413567   1.257   0.970   6.664 -0.1137 -0.7477  0.0678
 1715ntf    fn413568   1.073   1.052   6.727  0.1805 -0.0167 -0.3150
 1715ntf    on513569   1.198   1.215   6.499  0.1134  0.2400 -0.1327
 1715ntf    on513570   1.190   1.014   6.368  0.1039  0.0197 -0.4378
 1715ntf    on513571   0.944   1.314   6.589 -0.4810  0.2407 -0.4384
 1715ntf    on513572   0.758   1.161   6.552 -0.0345 -0.4523 -0.3636
 1715ntf    fn413573   0.776   1.419   6.377 -0.0027  0.6564 -0.1067
 1715ntf    fn413574   0.950   1.351   6.283 -0.5747 -0.1236 -0.8480
 1715ntf    fn413575   0.769   1.236   6.271  0.1995 -0.5834  0.6069
 1716ntf    cn113576   4.418   4.473   5.162 -0.0316  0.1099 -0.0266
 1716ntf    sn213577   4.490   4.332   5.072  0.1955 -0.0386  0.3798
 1716ntf    nn313578   4.492   4.377   4.921  0.2886 -0.8624  0.1292
 1716ntf    sn213579   4.378   4.345   4.818 -0.0749  0.1563  0.2035
 1716ntf    cn113580   4.463   4.209   4.733 -0.2327  0.3403 -0.2499
 1716ntf    fn413581   4.479   4.588   5.139  0.2237  0.0701  0.4303
 1716ntf    fn413582   4.290   4.497   5.139 -0.0785  0.3017  0.4176
 1716ntf    fn413583   4.422   4.459   5.294 -0.7435  0.8132  0.0746
 1716ntf    on513584   4.625   4.325   5.121  0.4262  0.3859 -0.1820
 1716ntf    on513585   4.405   4.221   5.105 -0.0630 -0.0252 -0.2108
 1716ntf    on513586   4.378   4.454   4.723 -0.0604 -0.3678 -0.4025
 1716ntf    on513587   4.249   4.301   4.867  0.0304 -0.2024  0.1553
 1716ntf    fn413588   4.383   4.151   4.645 -0.2589 -0.5275  0.3359
 1716ntf    fn413589   4.572   4.237   4.663  0.0871 -0.0247  0.0972
 1716ntf    fn413590   4.495   4.118   4.823  0.0412  0.5462 -0.1384
 1717ntf    cn113591   6.395   4.054   6.560 -0.2825 -0.0707  0.2725
 1717ntf    sn213592   6.550   4.059   6.466 -0.1908  0.1876  0.4371
 1717ntf    nn313593   6.625   4.176   6.540  0.0483  0.4033 -0.1404
 1717ntf    sn213594   6.626   4.330   6.510 -0.0711  0.4108 -0.1066
 1717ntf    cn113595   6.791   4.344   6.433  0.0587  0.1849  0.1294
 1717ntf    fn413596   6.312   3.967   6.505 -0.2955 -0.2334  0.5434
 1717ntf    fn413597   6.421   4.007   6.682 -0.1205 -0.3662  0.1264
 1717ntf    fn413598   6.324   4.165   6.564 -0.1650 -0.0023  0.4935
 1717ntf    on513599   6.605   3.927   6.481 -0.3027  0.0301 -0.4867
 1717ntf    on513600   6.506   4.100   6.335 -0.2070 -0.1419  0.3376
 1717ntf    on513601   6.632   4.403   6.634  1.1195  0.1282  0.0218
 1717ntf    on513602   6.535   4.379   6.409  0.2279  0.5190 -0.3273
 1717ntf    fn413603   6.789   4.268   6.325  0.1133  0.0233  0.2399
 1717ntf    fn413604   6.809   4.470   6.397  0.6642  0.1013  0.1315
 1717ntf    fn413605   6.896   4.316   6.508 -0.1636  0.2911  0.4829
 1718ntf    cn113606   0.890   6.367   6.114 -0.3298 -0.0214 -0.6583
 1718ntf    sn213607   0.935   6.539   6.076 -0.1228  0.1254  0.2216
 1718ntf    nn313608   0.851   6.571   5.947  0.3736  0.5333 -0.0051
 1718ntf    sn213609   0.899   6.554   5.799 -0.0987  0.1081 -0.1121
 1718ntf    cn113610   0.952   6.724   5.761  0.4137  0.0343  0.2671
 1718ntf    fn413611   0.919   6.283   6.016  0.4239 -0.2863 -0.2185
 1718ntf    fn413612   0.951   6.323   6.223 -0.4208  0.2182 -0.5086
 1718ntf    fn413613   0.761   6.354   6.136 -0.1835  0.1268  0.3157
 1718ntf    on513614   0.895   6.611   6.194 -0.5529  0.6209 -0.2206
 1718ntf    on513615   1.077   6.529   6.053 -0.2275 -0.3902 -0.2086
 1718ntf    on513616   0.791   6.530   5.706 -0.0503  0.2792 -0.2137
 1718ntf    on513617   1.014   6.468   5.783 -0.3411 -0.2218 -0.0889
 1718ntf    fn413618   0.861   6.819   5.779  0.0700 -0.1846 -0.2879
 1718ntf    fn413619   1.057   6.750   5.837  0.6643 -0.0422 -0.0549
 1718ntf    fn413620   0.992   6.741   5.636 -0.9708  0.0667 -0.1871
 1719ntf    cn113621   4.754   2.348   0.631  0.1450  0.3313  0.0208
 1719ntf    sn213622   4.834   2.341   0.468 -0.3967  0.0749 -0.2364
 1719ntf    nn313623   4.954   2.243   0.496 -0.1879  0.2434 -0.5335
 1719ntf    sn213624   4.946   2.088   0.478  0.1577  0.1100  0.3744
 1719ntf    cn113625   5.124   2.052   0.477  0.1127 -0.1145  0.5083
 1719ntf    fn413626   4.665   2.445   0.631 -0.0906  0.1180 -0.0337
 1719ntf    fn413627   4.681   2.241   0.656  0.0659  0.2607 -0.5077
 1719ntf    fn413628   4.840   2.362   0.731  0.3308  0.5093 -0.1626
 1719ntf    on513629   4.736   2.286   0.378 -0.4504 -0.5112  0.1746
 1719ntf    on513630   4.874   2.479   0.457  0.2779 -0.1498 -0.7188
 1719ntf    on513631   4.899   2.030   0.354  0.1294 -0.3705  0.6068
 1719ntf    on513632   4.900   2.021   0.597 -0.1551  0.2432  0.3301
 1719ntf    fn413633   5.185   2.093   0.367 -0.5488 -0.5378 -0.0244
 1719ntf    fn413634   5.176   2.116   0.581  0.3406  0.0761  0.2779
 1719ntf    fn413635   5.147   1.922   0.489  0.7012 -0.0634 -0.0039
 1720ntf    cn113636   0.723   3.381   2.331 -0.4661  0.2607 -0.5441
 1720ntf    sn213637   0.746   3.241   2.217 -0.0895  0.1276 -0.3082
 1720ntf    nn313638   0.857   3.165   2.297 -0.1642  0.0314 -0.2952
 1720ntf    sn213639   0.998   3.112   2.251 -0.1435  0.0061 -0.2017
 1720ntf    cn113640   1.093   3.248   2.327 -0.3174  0.1624 -0.2631
 1720ntf    fn413641   0.690   3.339   2.452  1.1791  0.2199 -0.0919
 1720ntf    fn413642   0.837   3.447   2.345 -0.2478 -0.1429 -0.3828
 1720ntf    fn413643   0.631   3.466   2.290 -0.7578  0.1651 -0.0996
 1720ntf    on513644   0.620   3.170   2.221  0.1059 -0.1879  0.2210
 1720ntf    on513645   0.782   3.309   2.095  0.4184 -0.3125 -0.4043
 1720ntf    on513646   1.026   3.128   2.111  0.2324  0.8637 -0.0351
 1720ntf    on513647   1.042   2.998   2.327  0.1428  0.3946  0.2302
 1720ntf    fn413648   1.076   3.245   2.458 -0.2916  0.1238 -0.2607
 1720ntf    fn413649   1.224   3.241   2.314 -0.2479 -0.0280  0.4800
 1720ntf    fn413650   1.047   3.366   2.289 -0.6762  0.1997  0.2779
 1721ntf    cn113651   4.624   5.937   0.394  0.0162 -0.0059 -0.2572
 1721ntf    sn213652   4.509   5.887   0.262  0.2626 -0.3785 -0.3318
 1721ntf    nn313653   4.420   6.014   0.239  0.2698 -0.4043 -0.5026
 1721ntf    sn213654   4.451   6.125   0.132 -0.2543  0.2854  0.0482
 1721ntf    cn113655   4.382   6.279   0.200  0.1433  0.2951  0.4363
 1721ntf    fn413656   4.558   6.005   0.486 -0.0830 -0.3737 -0.0585
 1721ntf    fn413657   4.682   5.833   0.451 -0.2833  0.1340  0.3033
 1721ntf    fn413658   4.728   6.011   0.356 -0.0449  0.4000  0.3456
 1721ntf    on513659   4.595   5.857   0.150 -0.2645  0.7661 -1.0627
 1721ntf    on513660   4.435   5.781   0.325 -0.3025  0.3126  0.1785
 1721ntf    on513661   4.375   6.100   0.012  0.3379  0.0227 -0.2754
 1721ntf    on513662   4.590   6.161   0.119 -0.1165 -0.0748  0.4689
 1721ntf    fn413663   4.250   6.279   0.187  0.1112  0.0894  0.7388
 1721ntf    fn413664   4.415   6.304   0.326 -0.2292  0.1618  0.5636
 1721ntf    fn413665   4.403   6.390   0.131 -0.2177  0.0454 -0.0834
 1722ntf    cn113666   2.030   0.602   5.448 -0.0588 -0.0278  0.1727
 1722ntf    sn213667   2.168   0.604   5.330 -0.2032 -0.0429  0.0025
 1722ntf    nn313668   2.242   0.472   5.371  0.5714  0.3197 -0.1900
 1722ntf    sn213669   2.285   0.347   5.286  0.0584 -0.0582  0.0968
 1722ntf    cn113670   2.373   0.422   5.146 -0.4985 -0.1351 -0.2973
 1722ntf    fn413671   2.065   0.605   5.576 -0.4190  0.2041  0.2685
 1722ntf    fn413672   1.941   0.699   5.436 -0.3729 -0.3028  0.2569
 1722ntf    fn413673   1.973   0.484   5.430  0.2001 -0.1609  0.2140
 1722ntf    on513674   2.096   0.608   5.205 -0.2725 -0.1814  0.0383
 1722ntf    on513675   2.237   0.726   5.365 -0.3981  0.3711 -1.0169
 1722ntf    on513676   2.174   0.269   5.237  0.3312 -0.5065  0.1874
 1722ntf    on513677   2.386   0.278   5.362  0.1242 -0.0238  0.0410
 1722ntf    fn413678   2.480   0.494   5.176 -0.3249 -0.5624  0.1208
 1722ntf    fn413679   2.411   0.329   5.060 -0.0082  0.1925 -0.4410
 1722ntf    fn413680   2.304   0.519   5.087  0.4333  0.5383 -0.3049
 1723ntf    cn113681   2.564   5.840   0.964 -0.1114  0.5355 -0.3314
 1723ntf    sn213682   2.560   5.984   0.853  0.0047  0.4029 -0.5083
 1723ntf    nn313683   2.541   5.913   0.714 -0.6022 -0.4394  0.0002
 1723ntf    sn213684   2.413   5.899   0.624 -0.4522  0.0903 -0.3001
 1723ntf    cn113685   2.487   5.852   0.465  0.2640 -0.0806  0.0757
 1723ntf    fn413686   2.454   5.766   0.961  0.5352 -0.4621  0.0950
 1723ntf    fn413687   2.665   5.761   0.931 -0.1058  0.5094 -0.2519
 1723ntf    fn413688   2.575   5.879   1.090  0.3120  0.1961 -0.2636
 1723ntf    on513689   2.458   6.066   0.913  0.1533  0.4817 -0.3615
 1723ntf    on513690   2.690   6.043   0.875  0.0282  0.0474  0.3543
 1723ntf    on513691   2.351   6.026   0.597 -0.1748  0.3019  0.0376
 1723ntf    on513692   2.328   5.785   0.651 -0.5480  0.1859 -0.1961
 1723ntf    fn413693   2.553   5.957   0.418  0.0864  0.1108  0.2532
 1723ntf    fn413694   2.567   5.748   0.480 -0.3900 -0.5382  0.4758
 1723ntf    fn413695   2.393   5.817   0.378 -0.0391 -0.0684  0.3962
 1724ntf    cn113696   0.055   6.246   1.720 -0.0832 -0.2200 -0.1856
 1724ntf    sn213697   0.105   6.253   1.546  0.6225 -0.1619  0.0150
 1724ntf    nn313698   0.260   6.232   1.541  0.5025 -0.8765 -0.9076
 1724ntf    sn213699   0.363   6.276   1.431  0.2041  0.1200 -0.7909
 1724ntf    cn113700   0.285   6.198   1.287 -0.3636  0.2944 -0.5804
 1724ntf    fn413701   0.143   6.294   1.807 -0.2993  0.6372 -0.4385
 1724ntf    fn413702  -0.061   6.305   1.743  0.3247  0.4033  0.3302
 1724ntf    fn413703   0.038   6.125   1.771 -0.4165 -0.2138 -0.2828
 1724ntf    on513704   0.033   6.145   1.483 -0.6833  0.7169 -0.0383
 1724ntf    on513705   0.055   6.385   1.514 -0.0389 -0.3560  0.2370
 1724ntf    on513706   0.492   6.211   1.431  0.2919  0.2850 -0.1743
 1724ntf    on513707   0.357   6.417   1.399 -0.3944  0.2300 -0.2036
 1724ntf    fn413708   0.275   6.066   1.292  0.1147  0.2790  0.1170
 1724ntf    fn413709   0.161   6.244   1.275 -0.6035 -0.1394  0.1639
 1724ntf    fn413710   0.351   6.228   1.176  0.7792  0.2354  0.0678
 1725ntf    cn113711   5.793   3.673   4.629 -0.0453 -0.1911 -0.4222
 1725ntf    sn213712   5.873   3.527   4.556  0.4488 -0.0090 -0.2484
 1725ntf    nn313713   5.889   3.579   4.409 -0.1530 -0.1659 -0.3719
 1725ntf    sn213714   6.013   3.574   4.312  0.1787  0.0840  0.0363
 1725ntf    cn113715   5.918   3.537   4.161  0.1302  0.3739 -0.0046
 1725ntf    fn413716   5.861   3.782   4.598  0.3065 -0.2252  0.2172
 1725ntf    fn413717   5.671   3.692   4.582 -0.1006 -0.4767 -0.3931
 1725ntf    fn413718   5.802   3.667   4.761  0.2637  0.4588 -0.4095
 1725ntf    on513719   5.992   3.517   4.637  0.4658  0.0696 -0.2633
 1725ntf    on513720   5.776   3.423   4.577  0.3964 -0.0509 -0.6981
 1725ntf    on513721   6.097   3.458   4.326  0.0580  0.0218  0.2512
 1725ntf    on513722   6.073   3.699   4.274 -0.7718  0.4884 -0.1565
 1725ntf    fn413723   5.992   3.525   4.052  0.5722  0.0677  0.3248
 1725ntf    fn413724   5.841   3.431   4.177  0.5249  0.0222 -0.3767
 1725ntf    fn413725   5.840   3.641   4.137  0.0514  0.2809 -0.1490
 1726ntf    cn113726   2.881   3.636   2.965  0.0155  0.1622  0.0059
 1726ntf    sn213727   3.045   3.559   2.980 -0.0391  0.0494  0.0212
 1726ntf    nn313728   3.019   3.468   3.105 -0.3534 -0.2985 -0.2956
 1726ntf    sn213729   3.003   3.312   3.113 -0.3615 -0.2765  0.1327
 1726ntf    cn113730   2.833   3.302   3.178 -0.4073 -0.1439  0.0333
 1726ntf    fn413731   2.785   3.551   3.000  0.2058 -0.1111 -0.1304
 1726ntf    fn413732   2.866   3.738   3.048 -0.2891 -0.1102  0.2891
 1726ntf    fn413733   2.853   3.681   2.843 -0.6412  0.2456  0.1807
 1726ntf    on513734   3.040   3.493   2.852 -0.2309  0.3804 -0.1425
 1726ntf    on513735   3.129   3.673   3.006 -0.0116  0.2376 -0.8637
 1726ntf    on513736   3.091   3.252   3.210 -0.0130  0.2966  0.1706
 1726ntf    on513737   2.985   3.239   2.990 -0.1893  0.1916 -0.1722
 1726ntf    fn413738   2.824   3.356   3.298 -0.0831  0.4300 -0.1990
 1726ntf    fn413739   2.739   3.356   3.102  0.3407  0.8169 -0.2323
 1726ntf    fn413740   2.801   3.174   3.190  0.1479 -0.2704  0.2074
 1727ntf    cn113741   4.132   2.688   5.648  0.3563 -0.1078  0.1945
 1727ntf    sn213742   4.037   2.552   5.722 -0.0128 -0.1504 -0.3558
 1727ntf    nn313743   4.083   2.576   5.870  0.4319 -0.5360 -0.4307
 1727ntf    sn213744   4.047   2.484   5.992 -0.3015  0.1852 -0.0996
 1727ntf    cn113745   4.189   2.370   5.997 -0.4899 -0.0443  0.0221
 1727ntf    fn413746   4.110   2.804   5.707 -0.0387  0.0272 -0.2111
 1727ntf    fn413747   4.262   2.669   5.633  0.3569  0.3039 -0.3498
 1727ntf    fn413748   4.094   2.720   5.526  0.7054 -0.2434  0.0477
 1727ntf    on513749   3.898   2.583   5.697 -0.0308 -0.0587 -0.1430
 1727ntf    on513750   4.102   2.440   5.658 -0.0175 -0.4017  0.0814
 1727ntf    on513751   3.932   2.400   5.975 -0.6158  0.5937 -0.0145
 1727ntf    on513752   4.053   2.558   6.116 -0.2164 -0.2918  0.1850
 1727ntf    fn413753   4.197   2.293   5.890  0.1849  0.0093  0.0288
 1727ntf    fn413754   4.302   2.439   5.997 -0.0086 -0.8266 -0.1268
 1727ntf    fn413755   4.188   2.287   6.100 -0.3964 -0.1757 -0.0850
 1728ntf    cn113756   2.158   1.446   0.868 -0.1316 -0.2655  0.1986
 1728ntf    sn213757   2.186   1.557   0.727 -0.3251 -0.0824  0.3045
 1728ntf    nn313758   2.047   1.567   0.653 -0.4846  0.4526  0.6738
 1728ntf    sn213759   1.992   1.696   0.582 -0.1229  0.2431  0.0112
 1728ntf    cn113760   1.875   1.757   0.706 -0.2647 -0.0608  0.0293
 1728ntf    fn413761   2.058   1.475   0.949  0.0848 -0.2520  0.4643
 1728ntf    fn413762   2.138   1.319   0.834 -0.0794 -0.1644 -0.2122
 1728ntf    fn413763   2.264   1.453   0.948 -0.1262 -0.1875  0.1837
 1728ntf    on513764   2.225   1.671   0.805 -0.4136  0.1736 -0.0258
 1728ntf    on513765   2.288   1.486   0.654 -0.5912 -0.3248  0.1651
 1728ntf    on513766   1.903   1.662   0.474  0.0494  0.4915 -0.2115
 1728ntf    on513767   2.084   1.805   0.560 -0.0969  0.1011 -0.6006
 1728ntf    fn413768   1.807   1.866   0.672  0.5687  0.5099  0.1699
 1728ntf    fn413769   1.788   1.662   0.734 -0.1402 -0.1467  0.1262
 1728ntf    fn413770   1.938   1.781   0.820 -0.5916 -0.2733  0.2587
 1729ntf    cn113771   4.582   5.028   2.870 -0.0362 -0.4431  0.1992
 1729ntf    sn213772   4.694   4.891   2.910  0.3465 -0.2557 -0.2193
 1729ntf    nn313773   4.593   4.773   2.885  0.7509 -0.6189 -0.1546
 1729ntf    sn213774   4.540   4.663   2.983 -0.2742  0.0493  0.0573
 1729ntf    cn113775   4.449   4.750   3.114 -0.0385  0.0273  0.2364
 1729ntf    fn413776   4.494   5.054   2.965 -0.1189  0.1972 -0.0486
 1729ntf    fn413777   4.650   5.141   2.858 -0.7570 -0.0805 -0.5707
 1729ntf    fn413778   4.522   5.011   2.754 -0.2499 -0.2011  0.2717
 1729ntf    on513779   4.792   4.912   2.807  0.1797  0.7500 -0.1844
 1729ntf    on513780   4.725   4.919   3.049 -0.6406  0.4158 -0.1257
 1729ntf    on513781   4.646   4.588   3.047 -0.0709  0.1481 -0.1634
 1729ntf    on513782   4.435   4.589   2.918  0.1468 -0.3487 -0.1745
 1729ntf    fn413783   4.525   4.838   3.177  0.0823 -0.2487  0.4804
 1729ntf    fn413784   4.355   4.821   3.056 -0.1345  0.1812  0.5766
 1729ntf    fn413785   4.391   4.680   3.210 -0.5894 -0.1274 -0.2068
 1730ntf    cn113786   0.809   5.585   5.694  0.0229  0.2966  0.1452
 1730ntf    sn213787   0.844   5.752   5.633  0.1044  0.1376 -0.2527
 1730ntf    nn313788   1.000   5.737   5.622  0.1571  0.3469  0.1860
 1730ntf    sn213789   1.086   5.740   5.491 -0.1810 -0.0429 -0.0488
 1730ntf    cn113790   1.093   5.919   5.462 -0.2173  0.0306  0.3829
 1730ntf    fn413791   0.858   5.492   5.614 -0.0014  0.3484  0.0692
 1730ntf    fn413792   0.866   5.573   5.812 -0.1339  0.0368  0.1955
 1730ntf    fn413793   0.680   5.563   5.716  0.0866  0.1122  0.3322
 1730ntf    on513794   0.758   5.754   5.517 -1.1610  0.4120  0.6657
 1730ntf    on513795   0.813   5.839   5.745 -0.6395 -0.3343 -0.0866
 1730ntf    on513796   1.031   5.687   5.369  0.1426 -0.6243  0.0549
 1730ntf    on513797   1.224   5.704   5.509 -0.3065 -0.3701  0.2826
 1730ntf    fn413798   1.104   5.947   5.333  0.3420 -0.5259  0.3068
 1730ntf    fn413799   0.976   5.966   5.501 -0.3314  0.2565 -0.2169
 1730ntf    fn413800   1.190   5.985   5.523 -0.0548 -0.1541  0.3257
 1731ntf    cn113801   0.713   3.042   0.376 -0.0764 -0.2288 -0.1671
 1731ntf    sn213802   0.610   2.894   0.394 -0.0302 -0.2145  0.2250
 1731ntf    nn313803   0.722   2.788   0.420  0.4437  0.2202 -0.0324
 1731ntf    sn213804   0.789   2.682   0.325 -0.0939  0.2077 -0.4024
 1731ntf    cn113805   0.711   2.533   0.394  0.3625  0.1017 -0.1116
 1731ntf    fn413806   0.639   3.150   0.356 -0.3039 -0.3501  0.0187
 1731ntf    fn413807   0.778   3.049   0.491  0.2174 -0.0720 -0.3407
 1731ntf    fn413808   0.794   3.035   0.272  0.3459 -0.2257  0.1583
 1731ntf    on513809   0.522   2.924   0.505 -0.3055 -0.3046  0.0333
 1731ntf    on513810   0.542   2.882   0.268  0.0490 -0.5969  0.2190
 1731ntf    on513811   0.930   2.666   0.354 -0.1394 -0.2519 -0.4324
 1731ntf    on513812   0.751   2.682   0.186  0.0702 -0.2544 -0.4516
 1731ntf    fn413813   0.777   2.423   0.360  0.2811  0.2306 -0.7054
 1731ntf    fn413814   0.701   2.523   0.525 -0.3549 -0.4156 -0.2001
 1731ntf    fn413815   0.589   2.515   0.346  0.1700  0.3514  0.2755
 1732ntf    cn113816   0.929   0.835   3.342 -0.1325  0.1793 -0.3199
 1732ntf    sn213817   0.984   0.662   3.349 -0.4500  0.0839 -0.1802
 1732ntf    nn313818   1.042   0.648   3.204 -0.7882  1.2212 -0.4345
 1732ntf    sn213819   0.975   0.605   3.069 -0.1320  0.3855 -0.5020
 1732ntf    cn113820   0.976   0.761   2.974 -0.0887  0.5258 -0.2716
 1732ntf    fn413821   0.909   0.892   3.459  0.3503  0.2278 -0.2618
 1732ntf    fn413822   1.025   0.911   3.291  0.2293  0.0123  0.1146
 1732ntf    fn413823   0.821   0.838   3.265 -0.3398 -0.9224 -0.0896
 1732ntf    on513824   1.086   0.663   3.451 -0.0448  0.2167 -0.5886
 1732ntf    on513825   0.862   0.591   3.381 -0.3764  0.0065 -0.0721
 1732ntf    on513826   0.835   0.573   3.072 -0.0108 -0.1201 -0.2319
 1732ntf    on513827   1.060   0.522   2.987 -0.0379 -0.0012 -0.0113
 1732ntf    fn413828   1.100   0.802   2.957  0.0888  0.4419  0.7464
 1732ntf    fn413829   0.922   0.744   2.855 -0.1225 -0.6847 -0.1012
 1732ntf    fn413830   0.917   0.864   3.033  0.1015  0.5297 -0.0837
 1733ntf    cn113831   1.790   0.044   2.371 -0.2518  0.2165 -0.1584
 1733ntf    sn213832   1.652   0.090   2.481 -0.0843  0.2785  0.0255
 1733ntf    nn313833   1.731   0.074   2.616 -0.1057  0.0871  0.0161
 1733ntf    sn213834   1.664   0.003   2.739 -0.1471  0.2887  0.1106
 1733ntf    cn113835   1.698  -0.173   2.712 -0.5815  0.2258 -0.0472
 1733ntf    fn413836   1.851  -0.063   2.418 -0.0488  0.0205 -0.8477
 1733ntf    fn413837   1.754   0.035   2.244  0.5526 -0.3870 -0.3452
 1733ntf    fn413838   1.882   0.139   2.375  0.2757 -0.3124  0.3352
 1733ntf    on513839   1.620   0.227   2.450 -0.2535  0.2149 -0.0826
 1733ntf    on513840   1.553  -0.009   2.450 -0.6115  0.8026  0.0252
 1733ntf    on513841   1.523   0.008   2.769 -0.0059  0.4825  0.7478
 1733ntf    on513842   1.739   0.027   2.860  0.3755 -0.2685 -0.0969
 1733ntf    fn413843   1.652  -0.217   2.596 -0.8856  0.2233  0.0739
 1733ntf    fn413844   1.831  -0.176   2.708 -0.5783  0.4157 -0.0716
 1733ntf    fn413845   1.667  -0.263   2.805 -0.1070 -0.0236 -0.1261
 1734ntf    cn113846   4.856   0.337   0.655 -0.1784  0.4822 -0.0135
 1734ntf    sn213847   4.751   0.477   0.703 -0.3552  0.2792  0.1989
 1734ntf    nn313848   4.862   0.557   0.781 -0.1393  0.1866 -0.0108
 1734ntf    sn213849   4.969   0.663   0.735 -0.2692  0.4497  0.2912
 1734ntf    cn113850   4.880   0.818   0.769 -0.3736  0.4540 -0.0042
 1734ntf    fn413851   4.895   0.271   0.763  0.0822 -0.0847 -0.4468
 1734ntf    fn413852   4.781   0.250   0.590  0.0455  0.1473  0.1689
 1734ntf    fn413853   4.970   0.371   0.598 -0.1588 -0.1496 -0.3565
 1734ntf    on513854   4.702   0.543   0.584 -0.1952 -0.0059 -0.0266
 1734ntf    on513855   4.649   0.429   0.792  0.4478 -0.5567  0.6835
 1734ntf    on513856   4.998   0.656   0.594  0.5126  0.1563  0.4638
 1734ntf    on513857   5.087   0.667   0.818 -0.0759  0.9099 -0.0054
 1734ntf    fn413858   4.856   0.836   0.897 -0.2739  0.1585  0.0571
 1734ntf    fn413859   4.946   0.924   0.724 -0.3185  0.5977  0.4174
 1734ntf    fn413860   4.759   0.821   0.716 -0.3910 -0.3107 -0.0157
 1735ntf    cn113861   3.272   3.028   4.388  0.5957 -0.4546  0.3335
 1735ntf    sn213862   3.339   3.197   4.386  0.0009 -0.2208 -0.2677
 1735ntf    nn313863   3.384   3.189   4.236  0.0958  0.0233 -0.2519
 1735ntf    sn213864   3.301   3.211   4.105 -0.3864  0.3669  0.1068
 1735ntf    cn113865   3.407   3.124   3.985 -0.4308 -0.1143  0.4165
 1735ntf    fn413866   3.361   2.948   4.332  0.7637 -0.2578  0.3189
 1735ntf    fn413867   3.252   2.984   4.511  0.5258 -0.0871  0.4568
 1735ntf    fn413868   3.152   3.015   4.333  0.5852 -0.3375  0.3267
 1735ntf    on513869   3.237   3.295   4.418  0.1501 -0.2321  0.2546
 1735ntf    on513870   3.457   3.186   4.468 -0.5237 -0.9494  0.4030
 1735ntf    on513871   3.308   3.349   4.064  0.4210  0.3283  0.0884
 1735ntf    on513872   3.177   3.137   4.100  0.2126 -0.6600  0.1999
 1735ntf    fn413873   3.407   3.167   3.860 -0.5545 -0.5718  0.2546
 1735ntf    fn413874   3.532   3.124   4.028 -0.2906  0.1638  0.0179
 1735ntf    fn413875   3.363   2.999   3.985 -0.0231 -0.2610 -0.1142
 1736ntf    cn113876   4.232   2.097   6.607 -0.2507  0.2304  0.2083
 1736ntf    sn213877   4.288   2.121   6.779  0.3311  0.0820  0.0429
 1736ntf    nn313878   4.443   2.130   6.759  0.2850 -0.0972 -0.4094
 1736ntf    sn213879   4.538   2.255   6.752 -0.0546  0.1995  0.2012
 1736ntf    cn113880   4.667   2.192   6.640 -0.0047 -0.1956  0.4817
 1736ntf    fn413881   4.260   1.975   6.565  0.2802  0.3199  0.2874
 1736ntf    fn413882   4.101   2.100   6.594 -0.2214  0.3736 -0.0510
 1736ntf    fn413883   4.285   2.183   6.521 -0.2987  0.1157  0.0646
 1736ntf    on513884   4.233   2.250   6.813  0.4212  0.1066  0.0954
 1736ntf    on513885   4.245   2.006   6.854  0.5918 -0.2214 -0.2722
 1736ntf    on513886   4.603   2.292   6.875  0.6449  0.1084 -0.1346
 1736ntf    on513887   4.491   2.364   6.669  0.4592  0.4827  0.2745
 1736ntf    fn413888   4.757   2.284   6.609 -0.0760 -0.2730  0.0346
 1736ntf    fn413889   4.727   2.082   6.681  0.1343 -0.2450  0.1412
 1736ntf    fn413890   4.612   2.158   6.525  0.4938  0.0368  0.1755
 1737ntf    cn113891   6.155   0.332   3.894  0.1318 -0.0814  0.0702
 1737ntf    sn213892   6.052   0.467   3.829 -0.0991 -0.3599 -0.1474
 1737ntf    nn313893   6.017   0.406   3.689 -0.1545 -0.0010 -0.2894
 1737ntf    sn213894   5.877   0.355   3.640 -0.3718  0.0128  0.3175
 1737ntf    cn113895   5.806   0.503   3.562  0.0906  0.0543 -0.0246
 1737ntf    fn413896   6.086   0.220   3.914  0.2349 -0.2278 -0.3813
 1737ntf    fn413897   6.265   0.302   3.827 -0.0217  0.3083 -0.3593
 1737ntf    fn413898   6.200   0.353   4.017 -0.4870 -0.0729  0.2998
 1737ntf    on513899   5.944   0.481   3.925  0.3166 -0.7038  0.3791
 1737ntf    on513900   6.150   0.571   3.814 -0.2249 -0.2181  0.0013
 1737ntf    on513901   5.779   0.314   3.737 -0.0803 -0.3630  0.4564
 1737ntf    on513902   5.888   0.265   3.528 -0.5710 -0.0126  0.3185
 1737ntf    fn413903   5.761   0.595   3.645  0.3541  0.2726 -0.1195
 1737ntf    fn413904   5.895   0.572   3.492  0.2500 -0.0681  0.0560
 1737ntf    fn413905   5.711   0.481   3.473  0.0504 -0.2126  0.0833
 1738ntf    cn113906   5.966   4.116   2.746  0.0117  0.2178  0.1253
 1738ntf    sn213907   6.014   3.946   2.788 -0.0200  0.1712 -0.0264
 1738ntf    nn313908   5.871   3.881   2.778 -0.0002  0.1255 -0.0152
 1738ntf    sn213909   5.813   3.801   2.656  0.0822 -0.1883  0.1527
 1738ntf    cn113910   5.817   3.632   2.724  0.0314 -0.4362 -0.4585
 1738ntf    fn413911   5.918   4.136   2.624 -0.0288  0.5230  0.1894
 1738ntf    fn413912   5.873   4.156   2.832 -0.4324 -0.2034 -0.1511
 1738ntf    fn413913   6.063   4.205   2.761  0.1351  0.1886 -0.4615
 1738ntf    on513914   6.111   3.904   2.691 -0.0276  0.2072 -0.0496
 1738ntf    on513915   6.064   3.958   2.923  0.2233  0.7903 -0.1710
 1738ntf    on513916   5.903   3.794   2.543 -0.4774 -0.5506 -0.2767
 1738ntf    on513917   5.672   3.813   2.633  0.1372 -0.1699 -0.1753
 1738ntf    fn413918   5.757   3.541   2.648 -0.1814 -0.5828 -0.1170
 1738ntf    fn413919   5.935   3.577   2.749 -0.0485 -0.4039 -0.0030
 1738ntf    fn413920   5.753   3.633   2.840  0.3432  0.6263 -0.2858
 1739ntf    cn113921   5.913   5.169   0.580  0.4888 -0.1380 -0.1165
 1739ntf    sn213922   5.809   5.219   0.439  0.1073  0.0428  0.2286
 1739ntf    nn313923   5.716   5.329   0.503  0.1452  0.0886  0.2055
 1739ntf    sn213924   5.595   5.334   0.602  0.0678  0.0386  0.1140
 1739ntf    cn113925   5.473   5.441   0.521  0.1592  0.1022  0.0605
 1739ntf    fn413926   5.843   5.103   0.671 -0.2940  0.4041 -0.3140
 1739ntf    fn413927   6.016   5.097   0.539  0.4748  0.0700 -0.5186
 1739ntf    fn413928   5.966   5.267   0.650  0.0743 -0.0341  0.0580
 1739ntf    on513929   5.903   5.268   0.341 -0.1157 -0.0323 -0.0232
 1739ntf    on513930   5.741   5.095   0.410  0.2826  0.0849 -0.3828
 1739ntf    on513931   5.620   5.391   0.732 -0.2849  0.1912  0.1162
 1739ntf    on513932   5.533   5.204   0.599 -0.2490  0.1944 -0.1400
 1739ntf    fn413933   5.383   5.480   0.609  0.4063 -0.0907  0.3981
 1739ntf    fn413934   5.523   5.547   0.459  0.6081 -0.0097  0.2268
 1739ntf    fn413935   5.410   5.375   0.425 -0.1771  0.4118  0.0654
 1740ntf    cn113936   6.613   2.130   2.553 -0.0228 -0.0933  0.2342
 1740ntf    sn213937   6.444   2.185   2.517  0.0964  0.2313  0.1711
 1740ntf    nn313938   6.359   2.079   2.595 -0.2624  0.1227 -0.3623
 1740ntf    sn213939   6.291   1.954   2.528 -0.0983 -0.2096  0.0786
 1740ntf    cn113940   6.127   2.028   2.500 -0.0426 -0.0970  0.0483
 1740ntf    fn413941   6.698   2.227   2.525  0.1524 -0.1087  0.7019
 1740ntf    fn413942   6.639   2.095   2.678 -0.6377 -0.3309  0.2983
 1740ntf    fn413943   6.655   2.031   2.476 -0.4898  0.4337 -0.7162
 1740ntf    on513944   6.434   2.315   2.580 -0.6126  0.0636  0.4149
 1740ntf    on513945   6.438   2.187   2.373 -0.2214 -0.4690  0.1720
 1740ntf    on513946   6.265   1.843   2.616 -0.1234 -0.6036 -0.4212
 1740ntf    on513947   6.328   1.910   2.396 -0.1458  0.0736 -0.0303
 1740ntf    fn413948   6.130   2.139   2.429  0.2424 -0.3028 -0.2714
 1740ntf    fn413949   6.048   1.955   2.423 -0.0072 -0.0374 -0.0458
 1740ntf    fn413950   6.061   2.039   2.613  0.3784 -0.0983  0.2978
 1741ntf    cn113951   3.386   2.647   4.542  0.1126 -0.2094 -0.3007
 1741ntf    sn213952   3.248   2.536   4.500  0.0543 -0.3226  0.1859
 1741ntf    nn313953   3.332   2.416   4.444 -0.2792 -0.3085 -0.3510
 1741ntf    sn213954   3.408   2.303   4.522  0.0587  0.4416  0.4265
 1741ntf    cn113955   3.287   2.170   4.494  0.2962  0.3435 -0.1468
 1741ntf    fn413956   3.454   2.680   4.434  0.0678  0.3189 -0.1725
 1741ntf    fn413957   3.346   2.759   4.600  0.0322 -0.4494  0.1160
 1741ntf    fn413958   3.470   2.595   4.630 -0.1157 -0.1219 -0.0283
 1741ntf    on513959   3.177   2.507   4.622  0.0402  0.2204  0.3089
 1741ntf    on513960   3.178   2.603   4.393  0.1535 -0.1722  0.2147
 1741ntf    on513961   3.421   2.318   4.665 -0.7506  0.1153  0.5395
 1741ntf    on513962   3.526   2.253   4.456 -0.2736  0.0760  0.1036
 1741ntf    fn413963   3.193   2.158   4.586  0.1466 -0.5957 -0.4068
 1741ntf    fn413964   3.214   2.174   4.383  0.2952 -0.1713 -0.1691
 1741ntf    fn413965   3.356   2.058   4.504 -0.0399  0.1609  0.1759
 1742ntf    cn113966   0.273   4.859   6.419 -0.2738  0.0130  0.3467
 1742ntf    sn213967   0.336   4.933   6.572 -0.2037 -0.0994  0.3723
 1742ntf    nn313968   0.208   4.993   6.640 -0.0475  0.0496  0.5383
 1742ntf    sn213969   0.175   5.140   6.684  0.1190  0.0930  0.5198
 1742ntf    cn113970   0.078   5.100   6.833  0.2391 -0.0841  0.5519
 1742ntf    fn413971   0.190   4.756   6.433  0.3486 -0.5040  0.2872
 1742ntf    fn413972   0.202   4.946   6.349  0.1739  0.1120  0.0142
 1742ntf    fn413973   0.368   4.824   6.334 -0.4811 -0.1362  0.1731
 1742ntf    on513974   0.380   4.816   6.645 -0.0429 -0.3369 -0.0973
 1742ntf    on513975   0.437   5.023   6.522 -0.1658 -0.5566 -0.3992
 1742ntf    on513976   0.088   5.203   6.588  0.2160  0.0636  0.4126
 1742ntf    on513977   0.291   5.208   6.735  0.9022 -0.3069 -0.6922
 1742ntf    fn413978   0.146   5.066   6.941  0.4172  0.1672  0.5200
 1742ntf    fn413979   0.012   5.210   6.867  0.0431 -0.1663  0.4469
 1742ntf    fn413980  -0.012   5.004   6.814  0.2363  0.0738 -0.3129
 1743ntf    cn113981   2.976   3.376   5.334  0.1731  0.0413 -0.4399
 1743ntf    sn213982   3.067   3.351   5.178  0.1737 -0.2383 -0.3945
 1743ntf    nn313983   3.110   3.495   5.133  0.2718 -0.1772 -0.1067
 1743ntf    sn213984   3.042   3.593   5.031 -0.0744 -0.4433 -0.1309
 1743ntf    cn113985   3.079   3.753   5.109  0.3592 -0.4383 -0.3453
 1743ntf    fn413986   2.895   3.275   5.359 -0.2086  0.4692  0.0617
 1743ntf    fn413987   3.060   3.401   5.433 -0.6792  0.7513  0.1097
 1743ntf    fn413988   2.893   3.478   5.338  0.0199 -0.0862 -0.3778
 1743ntf    on513989   3.185   3.278   5.219  0.5026  0.2689 -0.4381
 1743ntf    on513990   2.978   3.281   5.089  0.2157 -0.3449 -0.3541
 1743ntf    on513991   2.899   3.582   5.012 -0.1476 -0.0856  0.2050
 1743ntf    on513992   3.118   3.589   4.909 -0.4226  0.2662 -0.3735
 1743ntf    fn413993   3.040   3.856   5.035  0.2998  0.2425  0.6261
 1743ntf    fn413994   3.009   3.755   5.221  0.1175 -0.2789 -0.4966
 1743ntf    fn413995   3.204   3.777   5.145  0.4108 -0.5029 -0.4797
 1744ntf    cn113996   3.969   4.491   2.898  0.3802  0.1241  0.1399
 1744ntf    sn213997   3.793   4.536   2.893  0.3855  0.1063 -0.2690
 1744ntf    nn313998   3.739   4.402   2.831 -0.2430  0.2630 -0.0720
 1744ntf    sn213999   3.713   4.259   2.891  0.2113  0.1632 -0.1112
 1744ntf    cn114000   3.532   4.265   2.905  0.2162  0.6393 -0.2139
 1744ntf    fn414001   4.003   4.445   2.779 -0.0056 -0.0308  0.0868
 1744ntf    fn414002   4.045   4.596   2.923 -0.0395  0.4869 -0.0778
 1744ntf    fn414003   3.984   4.404   2.997 -0.0160 -0.5789 -0.4085
 1744ntf    on514004   3.752   4.565   3.028 -0.0134  0.4166 -0.4541
 1744ntf    on514005   3.777   4.644   2.799 -0.0043  0.8100  0.5885
 1744ntf    on514006   3.746   4.241   3.030  0.4218  0.0393 -0.1764
 1744ntf    on514007   3.734   4.148   2.801  0.0317  0.2711 -0.2884
 1744ntf    fn414008   3.462   4.157   2.938 -0.3070  0.9402 -0.3259
 1744ntf    fn414009   3.497   4.355   2.994 -0.3259  0.4351 -0.2144
 1744ntf    fn414010   3.483   4.303   2.788 -0.0417 -0.2641 -0.4136
 1745ntf    cn114011   0.393   0.454   0.115  0.2145 -0.2469  0.0588
 1745ntf    sn214012   0.511   0.589   0.147  0.3450 -0.3077 -0.1579
 1745ntf    nn314013   0.551   0.616  -0.002 -0.0762  0.2321 -0.1744
 1745ntf    sn214014   0.686   0.589  -0.078 -0.1801  0.0838 -0.3070
 1745ntf    cn114015   0.782   0.737  -0.035 -0.0804 -0.1391  0.2483
 1745ntf    fn414016   0.451   0.370   0.030  0.2649 -0.1022 -0.0508
 1745ntf    fn414017   0.354   0.389   0.223 -0.5055  0.2825  0.1229
 1745ntf    fn414018   0.286   0.496   0.050  0.2189  0.4188  0.4741
 1745ntf    on514019   0.424   0.694   0.195  0.7293  0.3127 -0.8132
 1745ntf    on514020   0.604   0.539   0.246 -0.0656  0.0911  0.4365
 1745ntf    on514021   0.677   0.605  -0.221 -0.4277  0.5445 -0.2402
 1745ntf    on514022   0.767   0.482  -0.024 -0.0375  0.2092 -0.2745
 1745ntf    fn414023   0.899   0.741  -0.096 -0.3762 -0.2313 -0.3367
 1745ntf    fn414024   0.712   0.839  -0.080 -0.2745 -0.2757  0.2361
 1745ntf    fn414025   0.800   0.754   0.095 -0.0969 -0.2651  0.2677
 1746ntf    cn114026   5.248   1.157   4.336 -0.0483  0.2276  0.4586
 1746ntf    sn214027   5.308   1.176   4.165  0.3467 -0.2605  0.5407
 1746ntf    nn314028   5.462   1.142   4.164  0.3266 -0.3498 -0.2997
 1746ntf    sn214029   5.584   1.236   4.192 -0.0088 -0.0066  0.0417
 1746ntf    cn114030   5.699   1.118   4.270  0.1571  0.0808 -0.0685
 1746ntf    fn414031   5.279   1.249   4.425 -0.0053  0.2333  0.4382
 1746ntf    fn414032   5.116   1.151   4.337 -0.0754  0.8197  1.2260
 1746ntf    fn414033   5.292   1.042   4.384 -0.2698 -0.0346  0.0443
 1746ntf    on514034   5.233   1.071   4.101  0.1896  0.1867 -0.0128
 1746ntf    on514035   5.269   1.310   4.129 -0.2920 -0.6596 -0.2941
 1746ntf    on514036   5.555   1.343   4.284 -0.0508 -0.4218  0.5107
 1746ntf    on514037   5.655   1.273   4.071 -0.0983 -0.0307 -0.0176
 1746ntf    fn414038   5.706   1.012   4.191  0.0537 -0.1049  0.1689
 1746ntf    fn414039   5.817   1.176   4.276 -0.0302  0.4624 -0.0283
 1746ntf    fn414040   5.659   1.077   4.389  0.2914 -0.0769 -0.0769
 1747ntf    cn114041   0.315   1.949   5.310  0.0190  0.0904 -0.1278
 1747ntf    sn214042   0.447   1.990   5.428 -0.1313 -0.2633  0.1694
 1747ntf    nn314043   0.537   1.865   5.397  0.0061 -0.1334  0.0397
 1747ntf    sn214044   0.676   1.862   5.325 -0.1167 -0.1461 -0.1980
 1747ntf    cn114045   0.752   1.701   5.363  0.0360 -0.0311 -0.0196
 1747ntf    fn414046   0.226   2.047   5.315  0.4306  0.4545  0.0685
 1747ntf    fn414047   0.345   1.928   5.183  0.1282 -0.4153 -0.0238
 1747ntf    fn414048   0.249   1.839   5.343 -0.0180  0.1475 -0.0119
 1747ntf    on514049   0.487   2.122   5.384  0.0214 -0.3518  0.0406
 1747ntf    on514050   0.376   1.983   5.553  0.2079  0.6551  0.4191
 1747ntf    on514051   0.763   1.953   5.395  0.1070 -0.5184  0.0132
 1747ntf    on514052   0.665   1.871   5.181 -0.2902 -0.2896 -0.1935
 1747ntf    fn414053   0.790   1.703   5.490  0.3168  0.1350 -0.1053
 1747ntf    fn414054   0.659   1.608   5.354  0.0476 -0.0445 -0.0012
 1747ntf    fn414055   0.855   1.670   5.285 -0.1299  0.4345 -0.4292
 1748ntf    cn114056   1.288   5.061   6.695 -0.0548 -0.1204 -0.0674
 1748ntf    sn214057   1.323   4.895   6.630 -0.0767 -0.0735 -0.1982
 1748ntf    nn314058   1.196   4.818   6.680 -0.2243  0.2702 -0.0391
 1748ntf    sn214059   1.091   4.729   6.604  0.0214  0.2079 -0.3094
 1748ntf    cn114060   1.166   4.566   6.634 -0.3877  0.1407  0.3890
 1748ntf    fn414061   1.405   5.114   6.730 -0.1647 -0.3423  0.6629
 1748ntf    fn414062   1.219   5.135   6.610 -0.4456  0.1153  0.4519
 1748ntf    fn414063   1.217   5.054   6.807 -0.0162  0.1582 -0.0259
 1748ntf    on514064   1.350   4.924   6.492  0.1506  0.1262 -0.1126
 1748ntf    on514065   1.439   4.857   6.708 -0.0281 -0.4430 -0.4465
 1748ntf    on514066   1.092   4.752   6.462 -0.0867  0.3689 -0.2843
 1748ntf    on514067   0.964   4.727   6.674  0.5637  0.2122  0.7003
 1748ntf    fn414068   1.298   4.573   6.628 -0.3443 -0.3595  0.7514
 1748ntf    fn414069   1.142   4.514   6.753 -0.4963 -0.2823  0.1811
 1748ntf    fn414070   1.135   4.474   6.544 -0.2130  0.4192  0.0382
 1749ntf    cn114071   5.466   0.279   4.647 -0.2381 -0.0717  0.0256
 1749ntf    sn214072   5.607   0.183   4.585 -0.4188 -0.3729  0.0833
 1749ntf    nn314073   5.715   0.229   4.690  0.4137  0.1533 -0.9911
 1749ntf    sn214074   5.846   0.312   4.664  0.4283  0.2151 -0.7235
 1749ntf    cn114075   5.964   0.175   4.650 -0.0730 -0.3439  0.3606
 1749ntf    fn414076   5.347   0.250   4.598 -0.2918 -0.0529  0.1443
 1749ntf    fn414077   5.457   0.277   4.779 -0.1493  0.4490  0.0447
 1749ntf    fn414078   5.491   0.403   4.605 -0.2925 -0.0254  0.1287
 1749ntf    on514079   5.560   0.049   4.611  0.0233 -0.5981 -0.2667
 1749ntf    on514080   5.633   0.220   4.448 -0.0560  0.4080  0.3557
 1749ntf    on514081   5.886   0.382   4.783 -0.5691 -0.4001 -0.0139
 1749ntf    on514082   5.838   0.397   4.547 -0.2570  0.9256 -0.1701
 1749ntf    fn414083   6.091   0.214   4.660 -0.0094 -0.3263 -0.4379
 1749ntf    fn414084   5.965   0.094   4.754 -0.1603 -0.3008  0.3943
 1749ntf    fn414085   5.952   0.104   4.539 -0.1969  0.4441 -0.1358
 1750ntf    cn114086   2.185   2.270   4.100  0.2717 -0.4758 -0.0524
 1750ntf    sn214087   2.337   2.355   4.048 -0.0472  0.1211 -0.0068
 1750ntf    nn314088   2.415   2.236   3.982  0.0145  0.0702  0.1604
 1750ntf    sn214089   2.541   2.161   4.039 -0.0764 -0.2904 -0.1165
 1750ntf    cn114090   2.608   2.114   3.876  0.1423  0.2266 -0.1776
 1750ntf    fn414091   2.107   2.225   4.002 -0.0940 -0.1681  0.0945
 1750ntf    fn414092   2.219   2.182   4.192  0.3140 -0.3389  0.0625
 1750ntf    fn414093   2.108   2.352   4.169  0.0032 -0.3824 -0.4595
 1750ntf    on514094   2.274   2.450   3.959 -0.4955  0.3343  0.5332
 1750ntf    on514095   2.392   2.417   4.166 -0.2734  0.1790  0.0694
 1750ntf    on514096   2.514   2.036   4.105  0.4790 -0.2361  0.2203
 1750ntf    on514097   2.646   2.244   4.091  0.0617 -0.3557 -0.2884
 1750ntf    fn414098   2.535   2.015   3.827 -0.0756  0.2887  0.0189
 1750ntf    fn414099   2.588   2.209   3.786  0.3940 -0.1271 -0.6083
 1750ntf    fn414100   2.737   2.089   3.882  0.0393 -0.1835  0.3859
 1751ntf    cn114101   2.556   6.314   2.291  0.7384  0.1523 -0.0916
 1751ntf    sn214102   2.397   6.228   2.316  0.6030  0.4227 -0.0100
 1751ntf    nn314103   2.307   6.351   2.351 -0.0231 -0.0523  0.0662
 1751ntf    sn214104   2.165   6.402   2.308  0.0846  0.3404  0.1751
 1751ntf    cn114105   2.057   6.317   2.427  0.1992  0.2140  0.1886
 1751ntf    fn414106   2.638   6.246   2.213  0.3893  0.0405 -0.3651
 1751ntf    fn414107   2.542   6.428   2.226 -0.0648 -0.0035 -0.2128
 1751ntf    fn414108   2.619   6.343   2.403 -0.0110  0.1277  0.3471
 1751ntf    on514109   2.385   6.152   2.193 -0.4703  0.1828  0.2419
 1751ntf    on514110   2.416   6.141   2.429 -0.2023 -0.3433 -0.4524
 1751ntf    on514111   2.118   6.347   2.184  0.4921 -0.2403  0.2747
 1751ntf    on514112   2.147   6.544   2.329  0.4401  0.3279  0.5981
 1751ntf    fn414113   2.069   6.369   2.548  0.3593 -0.3731  0.4288
 1751ntf    fn414114   1.933   6.340   2.387  0.1168  0.2400  0.4563
 1751ntf    fn414115   2.068   6.186   2.444 -0.4944  0.1560  0.2202
 1752ntf    cn114116   5.601   2.006   3.804 -0.2193 -0.2073 -0.0935
 1752ntf    sn214117   5.634   1.874   3.683  0.0114 -0.3494  0.1246
 1752ntf    nn314118   5.497   1.867   3.606  0.3582  0.3027 -0.5622
 1752ntf    sn214119   5.438   1.739   3.539  0.4653 -0.2254  0.3371
 1752ntf    cn114120   5.415   1.798   3.368  0.5533  0.0198  0.4096
 1752ntf    fn414121   5.502   1.989   3.891  0.0048  0.3310  0.2712
 1752ntf    fn414122   5.708   2.034   3.876 -0.3870 -0.0239  0.0840
 1752ntf    fn414123   5.569   2.127   3.759  0.1161 -0.2364 -0.4139
 1752ntf    on514124   5.742   1.931   3.606  0.1635 -0.3960  0.3039
 1752ntf    on514125   5.665   1.760   3.765 -0.7150 -0.7797 -0.1887
 1752ntf    on514126   5.302   1.708   3.576  0.3873 -0.1438  0.1209
 1752ntf    on514127   5.518   1.621   3.518  0.1678 -0.4441  0.4135
 1752ntf    fn414128   5.361   1.919   3.362  0.2301 -0.1450 -0.0702
 1752ntf    fn414129   5.530   1.799   3.303  0.5295  0.0042  0.3666
 1752ntf    fn414130   5.339   1.722   3.290  0.5357 -0.0619  0.5053
 1753ntf    cn114131   5.132   4.802   3.757  0.2166 -0.2166 -0.1881
 1753ntf    sn214132   5.114   4.722   3.595  0.0175 -0.7763  0.1060
 1753ntf    nn314133   4.975   4.652   3.612 -0.3766 -0.0237  0.0279
 1753ntf    sn214134   4.937   4.499   3.615 -0.2064 -0.0732 -0.2846
 1753ntf    cn114135   4.927   4.466   3.437 -0.1288 -0.0392 -0.2957
 1753ntf    fn414136   5.228   4.890   3.779 -0.3530  0.4001 -0.1658
 1753ntf    fn414137   5.021   4.862   3.797  0.2510 -0.1740 -0.1561
 1753ntf    fn414138   5.160   4.709   3.847  0.8064 -0.0764 -0.2261
 1753ntf    on514139   5.103   4.835   3.507  0.6149 -0.7726  0.0313
 1753ntf    on514140   5.230   4.636   3.585  0.6739  0.0542  0.4286
 1753ntf    on514141   4.800   4.478   3.655  0.1653 -0.7723  0.6509
 1753ntf    on514142   5.041   4.412   3.664 -0.3110  0.2880  0.6028
 1753ntf    fn414143   4.831   4.536   3.379  0.0351  0.0601 -0.4454
 1753ntf    fn414144   5.037   4.492   3.369  0.0182 -0.4220 -0.2087
 1753ntf    fn414145   4.905   4.338   3.409  0.1519 -0.0291 -0.5573
 1754ntf    cn114146   1.147   1.949   0.277  0.0576  0.1305 -0.0922
 1754ntf    sn214147   1.291   2.046   0.331  0.2789 -0.3153  0.1206
 1754ntf    nn314148   1.390   2.034   0.210 -0.1546  0.3052 -0.3011
 1754ntf    sn214149   1.464   1.914   0.141 -0.0527  0.0650  0.2261
 1754ntf    cn114150   1.631   1.936   0.209  0.1220 -0.1771 -0.1217
 1754ntf    fn414151   1.113   1.984   0.153  0.4738  0.4858 -0.1061
 1754ntf    fn414152   1.171   1.821   0.254  0.7221  0.2410 -0.0235
 1754ntf    fn414153   1.042   1.960   0.356 -0.0977 -1.3052 -0.0776
 1754ntf    on514154   1.242   2.182   0.339  0.4136 -0.2439 -0.2241
 1754ntf    on514155   1.339   1.987   0.453 -0.1864  0.4821  0.7059
 1754ntf    on514156   1.479   1.944   0.001 -0.5946 -0.0565  0.1408
 1754ntf    on514157   1.433   1.782   0.189  0.0418 -0.1077 -0.1857
 1754ntf    fn414158   1.673   2.060   0.197  0.1012 -0.1870 -0.2881
 1754ntf    fn414159   1.668   1.903   0.332 -0.1811 -0.0813 -0.0057
 1754ntf    fn414160   1.719   1.870   0.135  0.0640 -0.5258  0.1135
 1755ntf    cn114161   4.065   6.039   2.454 -0.0578  0.0089 -0.0682
 1755ntf    sn214162   4.219   6.096   2.375 -0.1218 -0.0125 -0.2085
 1755ntf    nn314163   4.308   5.969   2.400  0.0502  0.1001 -0.2487
 1755ntf    sn214164   4.304   5.837   2.315  0.4895 -0.0644 -0.0180
 1755ntf    cn114165   4.327   5.720   2.452 -0.2070 -0.1447  0.0366
 1755ntf    fn414166   4.048   5.909   2.440  0.8704 -0.1464  0.1529
 1755ntf    fn414167   4.064   6.052   2.586 -0.2100  0.3246 -0.0986
 1755ntf    fn414168   3.956   6.101   2.412 -0.2738  0.1115  0.6259
 1755ntf    on514169   4.185   6.118   2.237  0.2609  0.0813 -0.2888
 1755ntf    on514170   4.251   6.212   2.456  0.0600 -0.4624  0.3691
 1755ntf    on514171   4.431   5.831   2.249  0.3292 -0.1103 -0.3224
 1755ntf    on514172   4.187   5.792   2.244  0.2934  0.2448  0.1024
 1755ntf    fn414173   4.221   5.719   2.531  0.4111  0.3661  0.8841
 1755ntf    fn414174   4.356   5.595   2.418 -0.1788 -0.0369 -0.3409
 1755ntf    fn414175   4.424   5.769   2.528 -0.1609  0.2457 -0.2715
 1756ntf    cn114176   5.571   4.722   1.185 -0.0061 -0.0372  0.2668
 1756ntf    sn214177   5.603   4.881   1.267 -0.1405  0.0583  0.1352
 1756ntf    nn314178   5.735   4.921   1.191 -0.3160  0.1982 -0.0980
 1756ntf    sn214179   5.751   4.999   1.056  0.3065  0.0157 -0.1306
 1756ntf    cn114180   5.918   4.949   1.004  0.1807 -0.3311 -0.2037
 1756ntf    fn414181   5.678   4.643   1.178  0.1278  0.1387  0.3290
 1756ntf    fn414182   5.477   4.651   1.246 -0.3707  0.3228  0.1225
 1756ntf    fn414183   5.526   4.731   1.061 -0.1577  0.1067  0.3315
 1756ntf    on514184   5.487   4.962   1.241  0.0757  0.2793 -0.1472
 1756ntf    on514185   5.624   4.844   1.404 -0.3419  0.0673  0.1687
 1756ntf    on514186   5.781   5.139   1.075  0.2825 -0.0721  0.5677
 1756ntf    on514187   5.658   4.972   0.949 -0.3192  0.6250  0.2511
 1756ntf    fn414188   5.913   4.822   0.967  0.5693 -0.4629  0.1928
 1756ntf    fn414189   5.969   5.016   0.902 -0.3944  0.0797 -0.2273
 1756ntf    fn414190   5.996   4.972   1.108  0.3676 -0.3764 -0.3323
 1757ntf    cn114191   4.893   3.583   3.699 -0.0475  0.1568  0.2588
 1757ntf    sn214192   5.000   3.486   3.809 -0.3464 -0.3551  0.1024
 1757ntf    nn314193   4.955   3.342   3.768 -0.1924 -0.3795  0.0158
 1757ntf    sn214194   5.042   3.224   3.712  0.0508 -0.1279 -0.1351
 1757ntf    cn114195   5.077   3.288   3.545 -0.2905  0.1501 -0.1004
 1757ntf    fn414196   4.938   3.586   3.575  0.0852  0.3542  0.3107
 1757ntf    fn414197   4.773   3.528   3.695  0.0374 -0.0077 -0.0498
 1757ntf    fn414198   4.879   3.709   3.740 -0.1623  0.1026  0.3881
 1757ntf    on514199   5.131   3.530   3.767 -0.1756 -0.4959  0.4817
 1757ntf    on514200   4.964   3.519   3.945  0.0420 -0.2218  0.1766
 1757ntf    on514201   4.962   3.105   3.699 -0.5300  0.2232  0.1860
 1757ntf    on514202   5.173   3.209   3.770  0.0533 -0.6687 -0.2742
 1757ntf    fn414203   5.108   3.184   3.469 -0.7863  0.0420 -0.1608
 1757ntf    fn414204   4.962   3.334   3.497 -0.3020 -0.1055 -0.3210
 1757ntf    fn414205   5.171   3.380   3.536  0.1108 -0.2659 -0.1687
 1758ntf    cn114206   0.966   3.678   3.281 -0.2560 -0.0597  0.4562
 1758ntf    sn214207   0.847   3.796   3.210  0.1276 -0.0690 -0.2240
 1758ntf    nn314208   0.755   3.705   3.121  0.0122 -0.1972  0.0238
 1758ntf    sn214209   0.775   3.664   2.971  0.4200 -0.0891  0.0474
 1758ntf    cn114210   0.652   3.764   2.882  0.2209 -0.3461  0.0341
 1758ntf    fn414211   0.903   3.569   3.319  0.2540 -0.4526  0.1867
 1758ntf    fn414212   1.077   3.644   3.216 -0.3246  0.3604  0.1149
 1758ntf    fn414213   1.020   3.722   3.393 -0.1221 -0.7930  0.6815
 1758ntf    on514214   0.775   3.836   3.329  0.4600 -0.0176 -0.0404
 1758ntf    on514215   0.926   3.898   3.147  0.4455 -0.2872 -0.1764
 1758ntf    on514216   0.730   3.531   2.936 -0.1174  0.1728 -0.2715
 1758ntf    on514217   0.896   3.711   2.908  0.2390 -0.4925 -0.6088
 1758ntf    fn414218   0.614   3.725   2.761 -0.1547 -0.0807  0.0624
 1758ntf    fn414219   0.534   3.765   2.943  0.2541 -0.5813  0.1045
 1758ntf    fn414220   0.684   3.891   2.866  0.1738 -0.2399  0.7555
 1759ntf    cn114221   4.120   4.946   5.637 -0.1306 -0.1018 -0.4051
 1759ntf    sn214222   3.949   4.962   5.576 -0.3419 -0.1206  0.1761
 1759ntf    nn314223   3.908   5.101   5.637 -0.1795 -0.1606  0.3783
 1759ntf    sn214224   3.775   5.143   5.708 -0.2926  0.2749 -0.0870
 1759ntf    cn114225   3.649   5.061   5.605 -0.0138 -0.2488 -0.0134
 1759ntf    fn414226   4.160   4.822   5.617 -0.1479 -0.1045 -0.4248
 1759ntf    fn414227   4.201   5.030   5.575 -0.3383  0.2601 -0.1904
 1759ntf    fn414228   4.136   4.973   5.766 -0.3905  0.2571 -0.4442
 1759ntf    on514229   3.964   4.974   5.433  0.2576  0.4037  0.2759
 1759ntf    on514230   3.890   4.840   5.625  0.4950 -0.4402  0.4194
 1759ntf    on514231   3.748   5.284   5.696  0.0214  0.3283 -0.1777
 1759ntf    on514232   3.762   5.076   5.835 -0.1908  0.6141  0.1024
 1759ntf    fn414233   3.659   4.929   5.603 -0.4093 -0.2896  0.4433
 1759ntf    fn414234   3.524   5.085   5.643  0.1878  0.1977  0.3766
 1759ntf    fn414235   3.657   5.101   5.480  0.1858 -0.5109 -0.0845
 1760ntf    cn114236   0.806   5.857   2.054 -0.1842  0.0322  0.6065
 1760ntf    sn214237   0.651   5.836   1.962  0.3737  0.2435 -0.3985
 1760ntf    nn314238   0.555   5.913   2.059  0.6852 -0.4591  0.4808
 1760ntf    sn214239   0.458   5.852   2.167  0.1508  0.0401  0.2938
 1760ntf    cn114240   0.329   5.977   2.192  0.1433  0.0519  0.1960
 1760ntf    fn414241   0.816   5.981   2.098  0.5340  0.1092  0.2492
 1760ntf    fn414242   0.814   5.778   2.159 -0.3902 -0.6393  0.1208
 1760ntf    fn414243   0.913   5.837   1.978 -0.2317  0.9211  0.2937
 1760ntf    on514244   0.663   5.913   1.840  0.1904  0.3667 -0.3398
 1760ntf    on514245   0.650   5.692   1.955  0.5415  0.2378 -0.2905
 1760ntf    on514246   0.516   5.840   2.298  0.1062  0.6915  0.3729
 1760ntf    on514247   0.382   5.741   2.114  0.0149  0.2321  0.0872
 1760ntf    fn414248   0.243   5.952   2.289 -0.4020  0.2690 -0.2209
 1760ntf    fn414249   0.380   6.096   2.215  0.5830 -0.0703 -0.1296
 1760ntf    fn414250   0.253   5.983   2.084 -0.0165  0.2387  0.3186
 1761ntf    cn114251   5.043   4.381   5.993 -0.3852  0.2328  0.1125
 1761ntf    sn214252   5.195   4.430   6.081 -0.2284 -0.1695  0.0670
 1761ntf    nn314253   5.222   4.566   6.008  0.1551 -0.3029 -0.0456
 1761ntf    sn214254   5.315   4.598   5.886  0.0121 -0.1594 -0.1190
 1761ntf    cn114255   5.198   4.679   5.773 -0.1415  0.0698  0.2040
 1761ntf    fn414256   5.073   4.350   5.868  0.1356  0.2965  0.2152
 1761ntf    fn414257   4.965   4.285   6.039  0.0113 -0.2933 -0.2965
 1761ntf    fn414258   4.961   4.483   5.971 -0.1400  0.3454 -0.3050
 1761ntf    on514259   5.155   4.450   6.218 -0.0872  0.3968  0.0281
 1761ntf    on514260   5.284   4.321   6.046 -0.1554 -0.0942  0.0181
 1761ntf    on514261   5.360   4.484   5.810  0.2202 -0.0867 -0.1058
 1761ntf    on514262   5.416   4.699   5.910  0.0086 -0.1495 -0.1474
 1761ntf    fn414263   5.090   4.610   5.740 -0.0219 -0.1202  0.2096
 1761ntf    fn414264   5.150   4.792   5.822  0.2431  0.1191  0.4779
 1761ntf    fn414265   5.257   4.716   5.661 -0.3083 -0.3810 -0.0337
 1762ntf    cn114266   1.874   4.798   4.494 -0.1389 -0.2765  0.2593
 1762ntf    sn214267   1.983   4.900   4.599  0.4289 -0.2189 -0.3768
 1762ntf    nn314268   2.068   4.794   4.676  0.1525  0.0802  0.3453
 1762ntf    sn214269   2.208   4.727   4.649  0.1265 -0.0095  0.4324
 1762ntf    cn114270   2.308   4.810   4.776  0.4378 -0.0605  0.2188
 1762ntf    fn414271   1.946   4.726   4.410 -0.3915  0.2805 -0.4465
 1762ntf    fn414272   1.798   4.715   4.562 -0.0569 -0.0851  0.5887
 1762ntf    fn414273   1.795   4.869   4.415  0.0319 -0.3960 -0.0235
 1762ntf    on514274   2.062   4.987   4.515 -0.4106  0.2615 -0.6843
 1762ntf    on514275   1.889   4.962   4.689  0.6664 -0.4683  0.0438
 1762ntf    on514276   2.268   4.769   4.525  0.4106 -0.1630  0.5165
 1762ntf    on514277   2.222   4.585   4.674  0.6443 -0.0528 -0.1017
 1762ntf    fn414278   2.435   4.772   4.781  0.4163 -0.2043 -0.2779
 1762ntf    fn414279   2.292   4.941   4.766  0.8335  0.0044  0.3953
 1762ntf    fn414280   2.259   4.773   4.893  0.8617 -0.9120  0.1340
 1763ntf    cn114281   4.986   4.907   4.085  0.5223  0.0985  0.0604
 1763ntf    sn214282   4.921   4.905   4.255  0.0883  0.2141 -0.1036
 1763ntf    nn314283   4.970   4.764   4.303  0.0083  0.0260 -0.5652
 1763ntf    sn214284   4.982   4.708   4.450  0.0148 -0.0399 -0.5902
 1763ntf    cn114285   5.164   4.705   4.460 -0.0229  0.1168  0.1939
 1763ntf    fn414286   5.118   4.909   4.072  0.4828 -0.3898 -0.4435
 1763ntf    fn414287   4.945   4.803   4.014  0.2348  0.2135  0.0586
 1763ntf    fn414288   4.948   5.017   4.023 -0.1608  0.0993  0.4705
 1763ntf    on514289   4.981   5.023   4.311 -0.2792  0.1268  0.4822
 1763ntf    on514290   4.777   4.894   4.246  0.0882  0.0427  0.1132
 1763ntf    on514291   4.954   4.568   4.466 -0.1292  0.0052 -0.4469
 1763ntf    on514292   4.927   4.789   4.555  0.1832 -0.7985  0.0905
 1763ntf    fn414293   5.208   4.667   4.578  0.1364 -0.2984  0.0032
 1763ntf    fn414294   5.208   4.621   4.368  0.0545 -0.0868  0.4177
 1763ntf    fn414295   5.214   4.826   4.438 -0.2558  0.1894  0.0509
 1764ntf    cn114296   5.209   3.311   2.224  0.0544  0.3898 -0.0865
 1764ntf    sn214297   5.330   3.308   2.087  0.0346  0.2353 -0.1008
 1764ntf    nn314298   5.371   3.459   2.069  0.0031  0.3048  0.3931
 1764ntf    sn214299   5.312   3.563   1.968 -0.3958 -0.1948  0.1055
 1764ntf    cn114300   5.441   3.562   1.841  0.1055  0.1456  0.6072
 1764ntf    fn414301   5.210   3.198   2.292  0.0477  0.5305  0.1496
 1764ntf    fn414302   5.237   3.407   2.311 -0.6248  0.2306  0.3073
 1764ntf    fn414303   5.084   3.326   2.185  0.0036 -0.5279 -0.3060
 1764ntf    on514304   5.440   3.237   2.147  0.0149 -0.0345 -0.3869
 1764ntf    on514305   5.264   3.245   1.976 -0.2139 -0.3621  0.3779
 1764ntf    on514306   5.310   3.698   2.020  0.3218 -0.0941 -0.1268
 1764ntf    on514307   5.195   3.519   1.896 -0.4645  0.0439  0.0687
 1764ntf    fn414308   5.557   3.521   1.889 -0.3019 -0.5638  0.9993
 1764ntf    fn414309   5.406   3.476   1.746  0.3152  0.5890  0.1197
 1764ntf    fn414310   5.455   3.685   1.794  0.5819 -0.2925 -0.4277
 1765ntf    cn114311   3.537   1.262   4.902 -0.0776  0.1880 -0.0886
 1765ntf    sn214312   3.502   1.370   4.760  0.1143  0.2996 -0.0524
 1765ntf    nn314313   3.463   1.500   4.840  0.3610  0.1567  0.3011
 1765ntf    sn214314   3.541   1.634   4.859  0.2778  0.2169  0.2156
 1765ntf    cn114315   3.471   1.726   4.718  0.0569 -0.2283  0.0332
 1765ntf    fn414316   3.651   1.291   4.964  0.1219 -0.1243 -0.3102
 1765ntf    fn414317   3.437   1.274   4.987  0.2857 -0.0235  0.3741
 1765ntf    fn414318   3.565   1.137   4.872 -0.1991  0.0823  0.2300
 1765ntf    on514319   3.624   1.388   4.686  0.2299  0.3936  0.1591
 1765ntf    on514320   3.390   1.307   4.694  0.3676 -0.3313  0.1176
 1765ntf    on514321   3.684   1.628   4.839  0.3515  0.8267  0.5186
 1765ntf    on514322   3.499   1.706   4.976 -0.2174  0.3901 -0.0679
 1765ntf    fn414323   3.343   1.754   4.736  0.1515  0.3885 -0.2239
 1765ntf    fn414324   3.522   1.845   4.691 -0.5613  0.0598  0.1070
 1765ntf    fn414325   3.480   1.665   4.602  0.3017 -0.7991  0.3474
 1766ntf    cn114326   5.504   5.074   2.671 -0.0225 -0.3191  0.2232
 1766ntf    sn214327   5.467   4.909   2.604 -0.0438 -0.2158 -0.0196
 1766ntf    nn314328   5.441   4.953   2.455  0.0983 -0.2491 -0.0548
 1766ntf    sn214329   5.320   5.015   2.376  0.2648  0.0404 -0.0864
 1766ntf    cn114330   5.290   4.876   2.263 -0.1590  0.1811 -0.1489
 1766ntf    fn414331   5.561   5.060   2.789  0.9364  0.3156 -0.1502
 1766ntf    fn414332   5.583   5.150   2.597  0.2871 -1.0806 -0.2449
 1766ntf    fn414333   5.392   5.143   2.685  0.2079  0.0493  0.2717
 1766ntf    on514334   5.588   4.834   2.627  0.0714 -0.1835 -0.5136
 1766ntf    on514335   5.346   4.871   2.672  0.1107 -0.8149 -0.0758
 1766ntf    on514336   5.357   5.131   2.301 -0.0933  0.5019  0.4405
 1766ntf    on514337   5.194   5.024   2.445  0.3125 -0.2848  0.0496
 1766ntf    fn414338   5.259   4.760   2.318 -0.0683  0.1809 -0.0972
 1766ntf    fn414339   5.192   4.901   2.178  0.3853  0.3235 -0.7497
 1766ntf    fn414340   5.404   4.849   2.200 -0.0240 -0.5729  0.4156
 1767ntf    cn114341   0.832   5.493   2.877  0.4311 -0.0094  0.0294
 1767ntf    sn214342   0.784   5.617   3.000  0.1910  0.0971 -0.1684
 1767ntf    nn314343   0.700   5.711   2.907 -0.0005 -0.4615 -0.5620
 1767ntf    sn214344   0.551   5.689   2.863 -0.2407 -0.4490  0.2300
 1767ntf    cn114345   0.451   5.788   2.978  0.2686  0.1113  0.1944
 1767ntf    fn414346   0.894   5.548   2.774  0.2811 -0.2319 -0.1834
 1767ntf    fn414347   0.913   5.403   2.931  0.3388 -0.4720 -0.5870
 1767ntf    fn414348   0.730   5.425   2.824  0.4893  0.1615 -0.3048
 1767ntf    on514349   0.712   5.548   3.104 -0.4261  0.2642 -0.4802
 1767ntf    on514350   0.903   5.683   3.048  0.0827 -0.0145  0.2638
 1767ntf    on514351   0.495   5.556   2.869 -0.1844 -0.4813  0.0493
 1767ntf    on514352   0.523   5.752   2.736 -0.0898 -0.2333  0.3026
 1767ntf    fn414353   0.468   5.755   3.106  0.5752 -0.5735 -0.0157
 1767ntf    fn414354   0.465   5.919   2.962 -0.5531  0.2397  0.4853
 1767ntf    fn414355   0.324   5.766   2.949  0.3669 -0.1705 -0.0306
 1768ntf    cn114356   6.359   1.850   3.253  0.5666  0.1610 -0.1032
 1768ntf    sn214357   6.368   1.971   3.389  0.0662  0.1167 -0.0285
 1768ntf    nn314358   6.398   2.108   3.320  0.3670 -0.0599 -0.2522
 1768ntf    sn214359   6.345   2.250   3.363  0.3107 -0.2138  0.1951
 1768ntf    cn114360   6.226   2.298   3.234  0.3121  0.1372  0.3251
 1768ntf    fn414361   6.468   1.850   3.179  0.6060  0.1344 -0.0461
 1768ntf    fn414362   6.347   1.726   3.297 -0.5979 -0.0859 -1.0414
 1768ntf    fn414363   6.258   1.863   3.168  0.4341 -0.4532 -0.0449
 1768ntf    on514364   6.238   1.953   3.449  0.0211 -0.0176 -0.1661
 1768ntf    on514365   6.482   1.927   3.466 -0.1396  0.2803  0.3737
 1768ntf    on514366   6.443   2.355   3.347 -0.3701  0.2550 -1.0835
 1768ntf    on514367   6.275   2.269   3.487 -0.3068 -0.6129 -0.0839
 1768ntf    fn414368   6.163   2.410   3.267 -0.0207  0.0918 -0.1451
 1768ntf    fn414369   6.280   2.313   3.115 -0.2546  0.1229  0.0612
 1768ntf    fn414370   6.125   2.214   3.219  0.4809  0.0129 -0.1197
 1769ntf    cn114371   4.087   4.634   5.971  0.6506 -0.0809 -0.1628
 1769ntf    sn214372   4.110   4.454   5.965  0.0867 -0.1648  0.1085
 1769ntf    nn314373   4.254   4.446   5.903 -0.1189 -0.3476 -0.3555
 1769ntf    sn214374   4.395   4.448   5.974 -0.2645 -0.1078 -0.0711
 1769ntf    cn114375   4.416   4.268   5.985  0.3189 -0.0297  0.1102
 1769ntf    fn414376   3.973   4.654   6.035  0.5953  0.0707 -0.3112
 1769ntf    fn414377   4.183   4.693   6.041  0.4377  0.3602 -0.2421
 1769ntf    fn414378   4.076   4.699   5.857 -0.2619  0.0509 -0.0075
 1769ntf    on514379   4.107   4.408   6.101  0.1944  0.0886  0.1971
 1769ntf    on514380   4.007   4.415   5.871  0.0701 -0.7447  0.3628
 1769ntf    on514381   4.397   4.492   6.111  0.0630 -0.6203  0.0913
 1769ntf    on514382   4.503   4.482   5.885 -0.4868  0.5095 -0.1081
 1769ntf    fn414383   4.541   4.238   6.016  0.2452  0.4224  0.8708
 1769ntf    fn414384   4.340   4.206   6.075  0.4838 -0.2626  0.0904
 1769ntf    fn414385   4.380   4.211   5.871  0.3618 -0.0185  0.0912
 1770ntf    cn114386   1.211   6.388   4.895 -0.1543  0.4104 -0.4143
 1770ntf    sn214387   1.053   6.372   4.983  0.2920 -0.3277  0.2717
 1770ntf    nn314388   0.950   6.334   4.871  0.1811  0.2104  0.1873
 1770ntf    sn214389   0.801   6.381   4.851  0.1122 -0.0897 -0.0073
 1770ntf    cn114390   0.818   6.538   4.760  0.0854 -0.2818 -0.3439
 1770ntf    fn414391   1.305   6.446   4.968  0.1693 -0.3589 -0.2076
 1770ntf    fn414392   1.264   6.270   4.863  0.2465  0.3182  0.5477
 1770ntf    fn414393   1.210   6.457   4.782  0.3035  0.0537 -0.6432
 1770ntf    on514394   1.074   6.259   5.070 -0.1907 -0.3974  0.3006
 1770ntf    on514395   1.021   6.500   5.041 -0.2350 -0.2257 -0.2305
 1770ntf    on514396   0.717   6.416   4.962  0.1633 -0.2365  0.0774
 1770ntf    on514397   0.735   6.297   4.754  0.0297 -0.0870  0.0460
 1770ntf    fn414398   0.870   6.629   4.840 -0.4691 -0.1432 -0.1388
 1770ntf    fn414399   0.900   6.530   4.656  0.0206  0.1034 -0.4243
 1770ntf    fn414400   0.702   6.573   4.709  0.1952  0.0397 -0.3753
 1771ntf    cn114401   4.900   0.474   5.656  0.0427 -0.0109  0.0668
 1771ntf    sn214402   4.964   0.304   5.662  0.1197  0.0106 -0.1486
 1771ntf    nn314403   4.862   0.229   5.754  0.1905  0.1323  0.0297
 1771ntf    sn214404   4.858   0.233   5.911 -0.0519 -0.0965  0.0301
 1771ntf    cn114405   4.677   0.238   5.924 -0.0642 -0.2125 -0.0927
 1771ntf    fn414406   4.779   0.485   5.606  0.2790  0.4743 -0.4148
 1771ntf    fn414407   4.902   0.530   5.776 -0.1434  0.2912 -0.0694
 1771ntf    fn414408   4.977   0.560   5.591 -0.1418  0.1020 -0.0023
 1771ntf    on514409   4.950   0.264   5.524  0.2526  0.3578 -0.2628
 1771ntf    on514410   5.100   0.312   5.711  0.0361 -0.4060  0.1556
 1771ntf    on514411   4.896   0.358   5.972 -0.1958  0.1143 -0.3042
 1771ntf    on514412   4.899   0.105   5.962 -0.1176 -0.1380 -0.0223
 1771ntf    fn414413   4.639   0.219   6.050  0.6507  0.0158  0.1599
 1771ntf    fn414414   4.628   0.355   5.888  0.4757  0.0375 -0.0231
 1771ntf    fn414415   4.625   0.138   5.854 -0.3883  0.2610 -0.5337
 1772ntf    cn114416   6.193   6.504   5.369  0.0822  0.2559 -0.2196
 1772ntf    sn214417   6.124   6.651   5.287 -0.2297 -0.1233 -0.6432
 1772ntf    nn314418   6.085   6.740   5.409  0.9410 -0.0912 -0.2726
 1772ntf    sn214419   6.029   6.887   5.412  0.3242 -0.3193 -0.3240
 1772ntf    cn114420   5.849   6.862   5.408  0.2802 -0.1920  0.5923
 1772ntf    fn414421   6.320   6.524   5.400  0.0239  0.0512  0.1506
 1772ntf    fn414422   6.124   6.474   5.478  0.0102 -0.2853 -0.4095
 1772ntf    fn414423   6.192   6.398   5.289 -0.4331  0.0973 -0.0095
 1772ntf    on514424   6.231   6.709   5.208 -0.1213  0.3756 -0.1327
 1772ntf    on514425   6.002   6.613   5.220 -0.9565  0.7032  0.1963
 1772ntf    on514426   6.050   6.966   5.294  0.1184  0.1053 -0.0789
 1772ntf    on514427   6.043   6.953   5.540 -0.2828 -0.0885 -0.3743
 1772ntf    fn414428   5.793   6.824   5.522  0.6207 -0.9124  0.5266
 1772ntf    fn414429   5.783   6.970   5.372 -0.1608 -0.2752  1.1349
 1772ntf    fn414430   5.828   6.763   5.323  0.1375  0.1814  0.1940
 1773ntf    cn114431   4.112   4.223   3.986 -0.4396 -0.2719  0.0576
 1773ntf    sn214432   4.110   4.064   3.897 -0.0813 -0.2344 -0.0163
 1773ntf    nn314433   4.248   4.007   3.947 -0.2795 -0.3714  0.3778
 1773ntf    sn214434   4.382   3.963   3.878 -0.3896 -0.2755  0.1009
 1773ntf    cn114435   4.379   3.786   3.921  0.5565 -0.3188  0.0109
 1773ntf    fn414436   4.097   4.214   4.117 -0.1577  1.1095  0.2023
 1773ntf    fn414437   4.225   4.290   3.972 -0.7448  0.2981  0.3009
 1773ntf    fn414438   4.017   4.302   3.939  0.0777  0.1359 -0.3203
 1773ntf    on514439   4.002   3.985   3.949 -0.0473 -0.2631  0.0112
 1773ntf    on514440   4.103   4.098   3.757  0.3958 -0.1775 -0.0281
 1773ntf    on514441   4.497   4.018   3.944 -0.3663 -0.4884  0.2385
 1773ntf    on514442   4.376   3.961   3.734  0.1041  0.0304  0.0720
 1773ntf    fn414443   4.421   3.767   4.045  0.4412  0.6658  0.2155
 1773ntf    fn414444   4.254   3.742   3.919  0.4178  0.0965 -0.6746
 1773ntf    fn414445   4.451   3.708   3.843  0.0110 -0.7418 -0.0717
 1774ntf    cn114446   5.985   0.734   1.785 -0.0654 -0.3464 -0.0621
 1774ntf    sn214447   6.049   0.640   1.927  0.3354  0.1764  0.1052
 1774ntf    nn314448   6.066   0.767   2.018 -0.4634  0.3770 -0.0124
 1774ntf    sn214449   6.197   0.808   2.095 -0.1442 -0.3472 -0.1548
 1774ntf    cn114450   6.274   0.923   1.977  0.0639 -0.5195 -0.1872
 1774ntf    fn414451   5.897   0.831   1.807  0.2833 -0.1254  0.3758
 1774ntf    fn414452   6.082   0.785   1.711  0.1852 -0.3892  0.2376
 1774ntf    fn414453   5.928   0.652   1.698  0.1439 -0.1299 -0.4028
 1774ntf    on514454   5.941   0.555   1.971  0.7245 -0.1183  0.4946
 1774ntf    on514455   6.166   0.568   1.883 -0.0018  0.1227 -0.7337
 1774ntf    on514456   6.290   0.704   2.132 -0.3137 -0.2680  0.5214
 1774ntf    on514457   6.157   0.892   2.206  0.6413 -0.1928  0.0179
 1774ntf    fn414458   6.196   1.029   1.964 -0.0049 -0.5265  0.1467
 1774ntf    fn414459   6.395   0.963   2.011 -0.2453 -0.1390  0.5091
 1774ntf    fn414460   6.291   0.867   1.859 -0.0701 -0.0530 -0.4311
 1775ntf    cn114461   5.898   0.192   2.554 -0.0672  0.5274  0.0498
 1775ntf    sn214462   5.985   0.223   2.710  0.2136 -0.1246  0.0243
 1775ntf    nn314463   6.125   0.161   2.673  0.2242 -0.1166  0.0513
 1775ntf    sn214464   6.167   0.014   2.709  0.3094 -0.0743  0.1252
 1775ntf    cn114465   6.273  -0.027   2.567 -0.0443  0.2035 -0.2202
 1775ntf    fn414466   5.940   0.266   2.453  0.4846  0.3454  0.1435
 1775ntf    fn414467   5.914   0.064   2.523  0.3410  0.5450  0.1949
 1775ntf    fn414468   5.767   0.213   2.559 -0.1843 -0.0781 -0.3846
 1775ntf    on514469   5.987   0.367   2.703 -0.0589 -0.1094  0.2745
 1775ntf    on514470   5.910   0.153   2.811 -0.4188  0.2760 -0.1673
 1775ntf    on514471   6.077  -0.098   2.698 -0.1574  0.2694  0.4356
 1775ntf    on514472   6.260   0.015   2.819  0.0316 -0.0157  0.3598
 1775ntf    fn414473   6.297  -0.157   2.578 -0.1664  0.1990  0.0030
 1775ntf    fn414474   6.212  -0.008   2.451 -0.2172 -0.2388 -0.2055
 1775ntf    fn414475   6.386   0.040   2.556 -0.0566  0.3165  0.3048
 1776ntf    cn114476   6.681   3.724   0.248 -0.0477  0.0578  0.6477
 1776ntf    sn214477   6.840   3.813   0.247  0.1145 -0.2353 -0.0579
 1776ntf    nn314478   6.870   3.829   0.400  0.5940 -0.2149 -0.1523
 1776ntf    sn214479   7.002   3.879   0.469  0.4032 -0.0024  0.0627
 1776ntf    cn114480   6.952   4.051   0.500  0.1284 -0.0827  0.0675
 1776ntf    fn414481   6.698   3.600   0.290  0.0641 -0.0219  0.3627
 1776ntf    fn414482   6.593   3.784   0.328 -0.2916 -0.2465  0.6075
 1776ntf    fn414483   6.624   3.716   0.129  0.0054 -0.0822  0.6316
 1776ntf    on514484   6.926   3.714   0.186  0.1516 -0.2112 -0.0446
 1776ntf    on514485   6.829   3.940   0.179 -0.5464 -0.0740  0.3470
 1776ntf    on514486   7.121   3.884   0.388  0.0013  0.7313 -0.4938
 1776ntf    on514487   7.025   3.830   0.603 -0.5272 -0.5977  0.0149
 1776ntf    fn414488   7.025   4.116   0.589  0.4273  0.1526 -0.3466
 1776ntf    fn414489   6.960   4.115   0.385  0.2571 -0.4306 -0.1214
 1776ntf    fn414490   6.828   4.047   0.546  0.2490 -0.7118  0.3520
 1777ntf    cn114491   1.015   6.735   3.248 -0.1368  0.3625 -0.1346
 1777ntf    sn214492   1.062   6.615   3.120  0.0062 -0.0143  0.2694
 1777ntf    nn314493   1.198   6.561   3.177  0.0852  0.1368  0.2249
 1777ntf    sn214494   1.235   6.411   3.206 -0.0180  0.0208 -0.2379
 1777ntf    cn114495   1.175   6.393   3.376  0.2320  0.3140 -0.1184
 1777ntf    fn414496   1.073   6.853   3.228 -0.4201  0.4769 -0.2791
 1777ntf    fn414497   0.886   6.763   3.253 -0.2774 -0.2072 -0.5321
 1777ntf    fn414498   1.042   6.688   3.368 -0.7854 -0.2713 -0.2346
 1777ntf    on514499   0.962   6.512   3.122  0.1261 -0.1553 -0.5653
 1777ntf    on514500   1.083   6.700   3.005  0.1672 -0.4782 -0.0475
 1777ntf    on514501   1.376   6.389   3.225  0.0134  0.1589 -0.3107
 1777ntf    on514502   1.166   6.306   3.135  0.3927 -0.4778  0.0982
 1777ntf    fn414503   1.044   6.409   3.365  0.0587 -0.5180  0.6839
 1777ntf    fn414504   1.203   6.280   3.439 -0.3525  0.3139  0.1432
 1777ntf    fn414505   1.215   6.491   3.456  0.2356  0.1686  0.0574
 1778ntf    cn114506   5.394   5.012   3.453 -0.0253  0.4233  0.0446
 1778ntf    sn214507   5.526   4.890   3.427 -0.3197  0.0286  0.3858
 1778ntf    nn314508   5.593   4.957   3.302  0.0283 -0.3186  0.3833
 1778ntf    sn214509   5.646   4.902   3.165 -0.0089  0.2342  0.1450
 1778ntf    cn114510   5.493   4.869   3.073  0.2127  0.2161 -0.2204
 1778ntf    fn414511   5.449   5.128   3.486 -0.0347  0.4466 -0.0212
 1778ntf    fn414512   5.302   5.018   3.358 -0.4483  0.1392  0.4303
 1778ntf    fn414513   5.330   4.979   3.564 -0.5399  0.3810 -0.2590
 1778ntf    on514514   5.600   4.909   3.550 -0.4594 -0.4967  0.5518
 1778ntf    on514515   5.457   4.766   3.404  0.0732 -0.2224  0.5543
 1778ntf    on514516   5.724   4.782   3.179 -0.3002  0.0418  0.1182
 1778ntf    on514517   5.718   5.005   3.093  0.5838 -0.7164 -0.6465
 1778ntf    fn414518   5.531   4.832   2.952  0.2829  0.6508 -0.3325
 1778ntf    fn414519   5.414   4.773   3.120  0.5210  0.0196 -0.1030
 1778ntf    fn414520   5.428   4.980   3.042 -0.1156 -0.0179 -0.3748
 1779ntf    cn114521   5.836   0.789   1.118 -0.3587  0.1440  0.2097
 1779ntf    sn214522   5.880   0.617   1.081  0.0528  0.2250  0.3207
 1779ntf    nn314523   5.740   0.554   1.049  0.1461  0.2884 -0.2216
 1779ntf    sn214524   5.669   0.540   0.909 -0.3166  0.5810 -0.0207
 1779ntf    cn114525   5.703   0.365   0.872 -0.2240  0.4908  0.4811
 1779ntf    fn414526   5.750   0.803   1.218 -0.3732  0.1243  0.2002
 1779ntf    fn414527   5.944   0.860   1.147 -0.0540 -0.1693 -0.1467
 1779ntf    fn414528   5.773   0.855   1.023 -0.2864 -0.2844 -0.1354
 1779ntf    on514529   5.982   0.629   0.979 -0.2602  0.2298  0.0070
 1779ntf    on514530   5.935   0.572   1.206  0.5844 -0.7404 -0.2468
 1779ntf    on514531   5.740   0.615   0.809  0.0065 -0.3656 -0.5167
 1779ntf    on514532   5.527   0.561   0.925 -0.3040  1.0025 -0.4539
 1779ntf    fn414533   5.678   0.280   0.970  0.3038  0.2135  0.3802
 1779ntf    fn414534   5.633   0.329   0.766  0.7546  0.1408 -0.0513
 1779ntf    fn414535   5.830   0.340   0.847 -0.5738 -0.8616 -0.0054
 1780ntf    cn114536   5.029   3.937   5.200  0.1668 -0.0149 -0.2131
 1780ntf    sn214537   5.124   4.086   5.158 -0.1475  0.3200  0.2485
 1780ntf    nn314538   5.269   4.026   5.141 -0.1243  0.5792 -0.4811
 1780ntf    sn214539   5.408   4.076   5.194  0.0165  0.0931 -0.3914
 1780ntf    cn114540   5.478   4.166   5.053  0.0704 -0.0950 -0.4849
 1780ntf    fn414541   5.076   3.875   5.308 -0.0948 -0.0848 -0.1392
 1780ntf    fn414542   4.902   3.968   5.221  0.1306 -0.2181 -0.1229
 1780ntf    fn414543   5.026   3.850   5.100 -0.6351  0.1847 -0.3687
 1780ntf    on514544   5.058   4.132   5.039 -0.6142  0.1840  0.4546
 1780ntf    on514545   5.109   4.163   5.279  0.0842  0.4218  0.2117
 1780ntf    on514546   5.501   3.966   5.204 -0.0954  0.0578  0.2842
 1780ntf    on514547   5.403   4.166   5.306  0.3450 -0.0605 -0.2520
 1780ntf    fn414548   5.443   4.105   4.941 -0.1531 -0.5643 -0.1637
 1780ntf    fn414549   5.427   4.288   5.056 -0.0126 -0.1353 -0.2064
 1780ntf    fn414550   5.610   4.174   5.055  0.0453  0.2521 -0.0061
 1781ntf    cn114551   2.705   2.986   2.185 -0.1917 -0.0660  0.0257
 1781ntf    sn214552   2.750   3.079   2.335  0.0042 -0.0941 -0.0154
 1781ntf    nn314553   2.669   3.211   2.311  0.2920  0.0168 -0.3872
 1781ntf    sn214554   2.521   3.249   2.349  0.3347 -0.1399 -0.0569
 1781ntf    cn114555   2.555   3.343   2.501 -0.1062  0.3179 -0.2394
 1781ntf    fn414556   2.698   2.856   2.206  0.2414 -0.0928  0.0220
 1781ntf    fn414557   2.583   3.021   2.149 -0.4119  0.1034  0.9268
 1781ntf    fn414558   2.788   3.001   2.083 -0.8585  0.2551 -0.4777
 1781ntf    on514559   2.710   3.008   2.454 -1.0010 -0.0497 -0.3184
 1781ntf    on514560   2.891   3.104   2.320 -0.0110 -0.0153 -0.0252
 1781ntf    on514561   2.437   3.136   2.380 -0.0176 -0.0397 -0.6230
 1781ntf    on514562   2.462   3.347   2.261 -0.5163  0.0399  0.7070
 1781ntf    fn414563   2.622   3.278   2.594  0.0380 -0.3704 -0.8128
 1781ntf    fn414564   2.634   3.446   2.480  0.1541  0.2621  0.4511
 1781ntf    fn414565   2.446   3.388   2.562  0.0763 -0.2969  0.5453
 1782ntf    cn114566   2.950   4.042   5.328  0.0883 -0.4033  0.4480
 1782ntf    sn214567   3.019   4.133   5.469 -0.0827 -0.0373  0.2992
 1782ntf    nn314568   3.106   4.247   5.406 -0.3941 -0.0457 -0.1440
 1782ntf    sn214569   3.259   4.234   5.376 -0.2761  0.2646  0.3122
 1782ntf    cn114570   3.349   4.280   5.527  0.0137  0.2953  0.1317
 1782ntf    fn414571   2.881   3.936   5.368 -0.2085 -0.5714 -0.4783
 1782ntf    fn414572   2.862   4.110   5.256  0.5409 -0.2651  0.0199
 1782ntf    fn414573   3.044   3.987   5.253  0.0499 -0.4884  0.4615
 1782ntf    on514574   2.898   4.179   5.533 -0.0204  0.1457  0.2849
 1782ntf    on514575   3.088   4.025   5.537 -0.4845 -0.7128 -0.3548
 1782ntf    on514576   3.296   4.352   5.302 -0.1555  0.2243  0.3071
 1782ntf    on514577   3.313   4.107   5.332 -1.0295  0.0470 -0.0073
 1782ntf    fn414578   3.481   4.280   5.516  0.0233  0.3628  0.2460
 1782ntf    fn414579   3.311   4.400   5.568 -0.3192  0.1422  0.2831
 1782ntf    fn414580   3.319   4.191   5.621 -0.3272  0.4757  0.1964
 1783ntf    cn114581   3.931   2.150   2.413  0.0000  0.0718  0.2177
 1783ntf    sn214582   3.886   2.262   2.549 -0.2118  0.3856 -0.1096
 1783ntf    nn314583   3.908   2.400   2.477 -0.4062  0.6670  0.3633
 1783ntf    sn214584   4.040   2.479   2.444  0.0474 -0.1558  0.1622
 1783ntf    cn114585   4.029   2.631   2.543 -0.0449  0.1467 -0.3106
 1783ntf    fn414586   3.923   2.022   2.447 -0.2698 -0.2041 -0.8585
 1783ntf    fn414587   3.846   2.168   2.314  0.2135  0.5945  0.1227
 1783ntf    fn414588   4.052   2.168   2.363  0.0326 -0.2206  0.1888
 1783ntf    on514589   3.751   2.226   2.587 -0.1082  0.3383  0.2152
 1783ntf    on514590   3.970   2.231   2.661 -0.3508 -0.0448 -0.1231
 1783ntf    on514591   4.058   2.533   2.312  0.6652 -0.3270  0.1724
 1783ntf    on514592   4.156   2.411   2.495 -0.0009 -0.5340 -0.2285
 1783ntf    fn414593   4.051   2.611   2.672  0.3154  0.0252 -0.3879
 1783ntf    fn414594   4.117   2.721   2.502 -0.0772 -0.1032 -0.9309
 1783ntf    fn414595   3.907   2.681   2.545  0.2512  0.8599  0.2426
 1784ntf    cn114596   1.414   1.246   3.224 -0.2197 -0.1389  0.0106
 1784ntf    sn214597   1.585   1.263   3.283 -0.1491  0.1342 -0.2724
 1784ntf    nn314598   1.647   1.130   3.228  0.7353  0.0745  0.8152
 1784ntf    sn214599   1.643   0.986   3.289  0.0783 -0.1372  0.2866
 1784ntf    cn114600   1.782   1.003   3.404 -0.0409 -0.0390  0.4167
 1784ntf    fn414601   1.411   1.247   3.092 -0.6425 -0.4418  0.0185
 1784ntf    fn414602   1.363   1.129   3.257  0.0069 -0.3188 -0.2796
 1784ntf    fn414603   1.337   1.346   3.265 -0.0056 -0.1424  0.4298
 1784ntf    on514604   1.618   1.381   3.206 -0.2021  0.2285 -0.1511
 1784ntf    on514605   1.579   1.285   3.425 -1.0916  0.0605 -0.2986
 1784ntf    on514606   1.686   0.889   3.191  0.1100 -0.2579  0.4196
 1784ntf    on514607   1.518   0.965   3.359 -0.2263 -0.2126 -0.2718
 1784ntf    fn414608   1.786   0.907   3.494 -0.7581 -0.3928  0.0734
 1784ntf    fn414609   1.897   1.000   3.338 -0.2344 -0.2469  0.0892
 1784ntf    fn414610   1.780   1.116   3.473  0.6761  0.3886 -0.2410
 1785ntf    cn114611   3.033   0.155   1.008  0.3092 -0.0744 -0.1821
 1785ntf    sn214612   2.978   0.070   0.857 -0.1078  0.1174 -0.1387
 1785ntf    nn314613   3.089  -0.037   0.830 -0.1880  0.1033 -0.4204
 1785ntf    sn214614   3.088  -0.182   0.892 -0.1790  0.1517 -0.3055
 1785ntf    cn114615   2.976  -0.272   0.781 -0.1859 -0.2855  0.0571
 1785ntf    fn414616   2.989   0.277   1.031  0.3508 -0.0559 -0.2000
 1785ntf    fn414617   3.021   0.074   1.112  0.5712 -0.0317 -0.1188
 1785ntf    fn414618   3.164   0.174   1.001  0.3207 -0.2812 -0.5867
 1785ntf    on514619   2.844   0.032   0.896  0.1084 -0.0778  0.4237
 1785ntf    on514620   2.985   0.180   0.765 -0.3187  0.2537  0.0068
 1785ntf    on514621   3.030  -0.205   1.022  0.6853 -0.2549  0.0182
 1785ntf    on514622   3.218  -0.241   0.868 -0.3737 -0.4846  0.1801
 1785ntf    fn414623   2.959  -0.396   0.825  0.1203 -0.5669 -0.6127
 1785ntf    fn414624   2.857  -0.215   0.791 -0.1970 -0.3031  0.0237
 1785ntf    fn414625   3.015  -0.270   0.655  0.4585 -0.1224  0.2547
 1786ntf    cn114626   2.734   1.115   1.320 -0.6552  0.2138  0.0691
 1786ntf    sn214627   2.749   1.252   1.200 -0.1899  0.4064  0.3441
 1786ntf    nn314628   2.722   1.369   1.301 -0.0994 -0.0843  0.9430
 1786ntf    sn214629   2.820   1.483   1.346  0.0902  0.1328 -0.0162
 1786ntf    cn114630   2.875   1.439   1.513 -0.1279 -0.0474  0.0080
 1786ntf    fn414631   2.757   0.996   1.266 -0.1721  0.4007 -0.1530
 1786ntf    fn414632   2.829   1.122   1.412  0.0612 -0.3181 -0.6138
 1786ntf    fn414633   2.615   1.114   1.376 -0.5480  0.0647  0.2953
 1786ntf    on514634   2.880   1.233   1.143 -0.0776 -0.0534  0.7420
 1786ntf    on514635   2.638   1.225   1.113  0.2732 -1.2343  0.2145
 1786ntf    on514636   2.751   1.608   1.366 -0.5568 -0.1583 -0.3983
 1786ntf    on514637   2.942   1.487   1.268  0.2848  0.2318  0.2901
 1786ntf    fn414638   2.918   1.547   1.576 -0.0516  0.1137 -0.3163
 1786ntf    fn414639   2.789   1.382   1.595 -0.1772 -0.0253 -0.0286
 1786ntf    fn414640   2.976   1.354   1.505 -0.0653 -0.0012  0.2817
 1787ntf    cn114641   1.226   6.090   0.184  0.2109  0.1134 -0.2439
 1787ntf    sn214642   1.055   6.146   0.162  0.1992  0.1064 -0.1729
 1787ntf    nn314643   1.090   6.299   0.154 -0.2403  0.2269  0.2234
 1787ntf    sn214644   0.997   6.406   0.086  0.0550  0.1953 -0.2284
 1787ntf    cn114645   1.037   6.412  -0.092  0.2021 -0.0342 -0.2044
 1787ntf    fn414646   1.288   6.081   0.067  0.3190 -0.3055 -0.1559
 1787ntf    fn414647   1.294   6.174   0.260 -0.2605  0.4930 -0.2382
 1787ntf    fn414648   1.240   5.967   0.233  0.6725  0.1419 -0.2944
 1787ntf    on514649   1.016   6.076   0.042 -0.4643  0.2657 -0.0534
 1787ntf    on514650   0.985   6.116   0.284  0.4834 -0.1411 -0.0685
 1787ntf    on514651   1.028   6.542   0.121 -0.3431  0.1082  0.4795
 1787ntf    on514652   0.857   6.371   0.085  0.0306  0.2959 -0.2727
 1787ntf    fn414653   1.037   6.287  -0.133 -0.4000 -0.1251  0.0623
 1787ntf    fn414654   0.954   6.476  -0.173  0.7793  0.3952 -0.4601
 1787ntf    fn414655   1.162   6.448  -0.112  0.3109 -0.3144 -0.0340
 1788ntf    cn114656   0.063   0.212   5.795  0.2480 -0.2002 -0.0328
 1788ntf    sn214657   0.090   0.051   5.715  0.7042 -0.1682  0.0540
 1788ntf    nn314658   0.207   0.096   5.620  0.6016 -0.4790 -0.2203
 1788ntf    sn214659   0.204   0.162   5.478 -0.6041 -0.0810 -0.0206
 1788ntf    cn114660   0.193   0.008   5.381 -0.0273 -0.0238 -0.1797
 1788ntf    fn414661   0.181   0.258   5.835  0.1522 -0.3587  0.4375
 1788ntf    fn414662   0.011   0.298   5.709 -0.3151 -0.7612 -0.2637
 1788ntf    fn414663  -0.016   0.194   5.899 -0.1161  0.1136 -0.2548
 1788ntf    on514664   0.133  -0.040   5.819 -0.2180 -0.4282  0.2190
 1788ntf    on514665  -0.035   0.012   5.656  0.6030 -0.0577  0.1945
 1788ntf    on514666   0.334   0.214   5.443 -0.4015 -0.7089 -0.2253
 1788ntf    on514667   0.087   0.236   5.436 -0.7797 -0.2611  0.1495
 1788ntf    fn414668   0.085  -0.059   5.417 -0.0510 -0.1229 -0.4335
 1788ntf    fn414669   0.178   0.039   5.253 -0.1579 -0.3812 -0.2508
 1788ntf    fn414670   0.297  -0.073   5.393 -0.2350 -0.1701  0.7041
 1789ntf    cn114671   1.146   5.013   2.626 -0.1053  0.1182  0.2600
 1789ntf    sn214672   1.219   4.906   2.754  0.1414  0.1362  0.1355
 1789ntf    nn314673   1.141   4.955   2.881 -0.1094 -0.6849  0.3027
 1789ntf    sn214674   1.200   5.065   2.977 -0.0314 -0.1686 -0.3268
 1789ntf    cn114675   1.253   4.952   3.109 -0.1936  0.1908  0.0460
 1789ntf    fn414676   1.177   5.140   2.648 -0.5200  0.1471  0.6908
 1789ntf    fn414677   1.183   4.976   2.504 -0.1262  0.7485  0.0584
 1789ntf    fn414678   1.014   5.007   2.632 -0.0834 -0.4997  0.2116
 1789ntf    on514679   1.181   4.771   2.722 -0.0653  0.2622 -0.1641
 1789ntf    on514680   1.362   4.925   2.742  0.2005 -0.3517  0.0404
 1789ntf    on514681   1.089   5.142   3.027  0.0517 -0.4415  0.2879
 1789ntf    on514682   1.316   5.143   2.944 -0.2979  0.5276  0.3489
 1789ntf    fn414683   1.153   4.874   3.146 -0.1073 -0.1621 -0.4618
 1789ntf    fn414684   1.356   4.874   3.080 -0.3665 -0.1225  0.2784
 1789ntf    fn414685   1.289   5.016   3.220  0.0252 -0.0503  0.1158
 1790ntf    cn114686   4.855   3.510   4.600  0.0099 -0.2574 -0.0111
 1790ntf    sn214687   4.762   3.356   4.626 -0.3916  0.0003  0.0875
 1790ntf    nn314688   4.619   3.421   4.620 -0.4460 -0.1651 -0.5037
 1790ntf    sn214689   4.498   3.395   4.717 -0.2382  0.1580 -0.1593
 1790ntf    cn114690   4.498   3.555   4.805  0.3500  0.1816 -0.1934
 1790ntf    fn414691   4.827   3.605   4.688 -0.2687 -0.3632  0.0164
 1790ntf    fn414692   4.987   3.499   4.599  0.0509  0.1918  0.2747
 1790ntf    fn414693   4.815   3.554   4.482  0.9052 -0.6412 -0.4704
 1790ntf    on514694   4.794   3.275   4.511  0.6048 -0.2175  0.5098
 1790ntf    on514695   4.806   3.306   4.753  0.8009  0.1672 -0.2522
 1790ntf    on514696   4.518   3.293   4.816  0.4379  0.2999 -0.1437
 1790ntf    on514697   4.374   3.398   4.644 -0.2518 -0.1480 -0.1475
 1790ntf    fn414698   4.375   3.584   4.845  0.0351 -0.5931 -0.5728
 1790ntf    fn414699   4.567   3.551   4.918 -0.5152  0.0332  0.3421
 1790ntf    fn414700   4.542   3.661   4.740 -0.2420  0.9397  0.6153
 1791ntf    cn114701   6.651   4.691   2.924  0.0833  0.3070 -0.3982
 1791ntf    sn214702   6.496   4.725   3.012  0.3227  0.1051  0.1067
 1791ntf    nn314703   6.403   4.724   2.886  0.3270  0.4755  0.0981
 1791ntf    sn214704   6.271   4.806   2.863 -0.0240 -0.0993  0.0308
 1791ntf    cn114705   6.344   4.957   2.792  0.3573 -0.3845 -0.1818
 1791ntf    fn414706   6.666   4.769   2.819  0.1104  0.3791 -0.3412
 1791ntf    fn414707   6.757   4.720   2.998  0.1327 -0.7028 -0.0472
 1791ntf    fn414708   6.663   4.568   2.876 -0.3220  0.2414 -0.3403
 1791ntf    on514709   6.468   4.610   3.095  1.0011  0.0767  0.3036
 1791ntf    on514710   6.517   4.857   3.066 -0.0681  0.3042 -0.2170
 1791ntf    on514711   6.199   4.853   2.979 -0.1468  0.6684 -0.3466
 1791ntf    on514712   6.191   4.756   2.755 -0.0151  0.0656 -0.0529
 1791ntf    fn414713   6.248   5.039   2.752  0.5984  0.1884  0.3985
 1791ntf    fn414714   6.412   5.028   2.880 -0.1856 -0.0217 -0.0504
 1791ntf    fn414715   6.422   4.951   2.685  0.7184 -0.1933  0.0694
 1792ntf    cn114716   1.400   1.100   1.026 -0.2910 -0.0634 -0.0249
 1792ntf    sn214717   1.469   1.265   0.994  0.1579 -0.2970 -0.2712
 1792ntf    nn314718   1.584   1.267   1.102 -0.0439  0.7613 -0.0691
 1792ntf    sn214719   1.738   1.252   1.075 -0.1200  0.0211 -0.1057
 1792ntf    cn114720   1.777   1.123   1.197  0.3275  0.2586  0.0037
 1792ntf    fn414721   1.481   1.004   0.984 -0.4616 -0.0771 -0.3204
 1792ntf    fn414722   1.362   1.068   1.149 -0.6168 -0.1994 -0.1593
 1792ntf    fn414723   1.290   1.077   0.956 -0.2889  0.5081 -0.2196
 1792ntf    on514724   1.505   1.263   0.855  0.4212  0.5645 -0.2219
 1792ntf    on514725   1.360   1.353   1.025  0.0629 -0.6155  0.3207
 1792ntf    on514726   1.819   1.362   1.121 -0.3304  0.0029  0.3171
 1792ntf    on514727   1.782   1.186   0.955  0.5657 -0.0161  0.1659
 1792ntf    fn414728   1.701   1.016   1.180  0.2058  0.3042  0.2610
 1792ntf    fn414729   1.903   1.083   1.190  0.2836  0.0893  0.1896
 1792ntf    fn414730   1.762   1.160   1.323  0.3528 -0.0807  0.1066
 1793ntf    cn114731   5.893   1.383   2.508 -0.7567  0.4783 -0.3695
 1793ntf    sn214732   5.858   1.247   2.623  0.2799  0.3312 -0.2207
 1793ntf    nn314733   5.703   1.258   2.642  0.2420 -0.4754 -0.0108
 1793ntf    sn214734   5.599   1.156   2.585 -0.1528 -0.1411  0.0992
 1793ntf    cn114735   5.439   1.197   2.661 -0.2290  0.4070 -0.3524
 1793ntf    fn414736   5.851   1.373   2.383 -0.1694 -0.4184 -0.5029
 1793ntf    fn414737   5.834   1.494   2.549 -0.2772  0.5867  0.0309
 1793ntf    fn414738   6.022   1.411   2.492 -0.6849  0.0001 -0.6642
 1793ntf    on514739   5.912   1.138   2.546 -0.0774 -0.2326  0.3170
 1793ntf    on514740   5.939   1.286   2.736  0.6414 -0.1007 -0.3267
 1793ntf    on514741   5.620   1.017   2.619 -0.1643 -0.1089  0.2351
 1793ntf    on514742   5.575   1.191   2.447 -0.4221  0.3598  0.2724
 1793ntf    fn414743   5.442   1.168   2.790 -0.4143  0.6259 -0.2990
 1793ntf    fn414744   5.411   1.326   2.652 -0.2899  0.4315  0.1740
 1793ntf    fn414745   5.340   1.131   2.605 -0.2483  0.0427  0.1031
 1794ntf    cn114746   2.644   0.741   4.766 -0.0665 -0.0334  0.1684
 1794ntf    sn214747   2.734   0.870   4.674 -0.3734  0.0227 -0.0526
 1794ntf    nn314748   2.644   0.868   4.545 -0.3367 -0.2632 -0.0763
 1794ntf    sn214749   2.694   0.877   4.397  0.2278 -0.1460  0.1184
 1794ntf    cn114750   2.780   1.037   4.389  0.2016 -0.1516 -0.3276
 1794ntf    fn414751   2.702   0.725   4.884  0.2720  0.5727  0.0878
 1794ntf    fn414752   2.515   0.764   4.780 -0.0539  0.1235  0.0270
 1794ntf    fn414753   2.656   0.627   4.700  0.2177  0.3913 -0.5256
 1794ntf    on514754   2.714   0.983   4.761 -0.1814 -0.0569  0.0935
 1794ntf    on514755   2.863   0.810   4.651 -0.5549 -0.2756 -0.3075
 1794ntf    on514756   2.583   0.899   4.308  0.0574 -0.5128  0.2372
 1794ntf    on514757   2.785   0.776   4.348 -0.2518 -0.6404  0.2310
 1794ntf    fn414758   2.865   1.050   4.489 -0.0438  0.3313 -0.1760
 1794ntf    fn414759   2.839   1.062   4.274 -0.2324  0.0498 -0.5100
 1794ntf    fn414760   2.693   1.134   4.414 -0.1006 -0.6001  0.4200
 1795ntf    cn114761   6.581   2.367   5.581  0.2080  0.1905  0.0983
 1795ntf    sn214762   6.448   2.484   5.540  0.1724  0.1587  0.1244
 1795ntf    nn314763   6.540   2.602   5.490  0.0519 -0.3328 -1.2779
 1795ntf    sn214764   6.521   2.757   5.483  0.1601 -0.2604 -0.0909
 1795ntf    cn114765   6.569   2.809   5.651 -0.4622 -0.0538  0.0256
 1795ntf    fn414766   6.648   2.401   5.690 -0.1138  0.2998  0.2647
 1795ntf    fn414767   6.530   2.247   5.602 -0.3254  0.2482 -0.7990
 1795ntf    fn414768   6.672   2.359   5.485  0.1903 -0.1091  0.1068
 1795ntf    on514769   6.391   2.417   5.426  0.2105 -0.2922  0.3691
 1795ntf    on514770   6.370   2.500   5.661 -0.1737 -0.4659 -0.0150
 1795ntf    on514771   6.382   2.794   5.494  0.2835  0.0965  0.3350
 1795ntf    on514772   6.613   2.832   5.401 -0.2259 -0.0542 -0.3366
 1795ntf    fn414773   6.486   2.775   5.748 -0.3983  0.0986  0.1347
 1795ntf    fn414774   6.682   2.751   5.687 -0.4768 -0.3987 -0.4760
 1795ntf    fn414775   6.598   2.937   5.672  0.4214 -0.2178 -0.1682
 1796ntf    cn114776   1.297   5.805   3.695 -0.0710 -0.0858 -0.2877
 1796ntf    sn214777   1.275   5.640   3.622 -0.0021 -0.2157 -0.0156
 1796ntf    nn314778   1.409   5.574   3.670 -0.0513  0.0200  0.4555
 1796ntf    sn214779   1.441   5.421   3.660  0.3435  0.1316 -0.0438
 1796ntf    cn114780   1.414   5.369   3.832 -0.1495  0.1517 -0.1120
 1796ntf    fn414781   1.228   5.901   3.634  0.0848  0.3632  0.2366
 1796ntf    fn414782   1.267   5.803   3.823  0.1504 -0.0352 -0.2338
 1796ntf    fn414783   1.423   5.845   3.687 -0.1878  0.3254 -0.1355
 1796ntf    on514784   1.158   5.592   3.691  0.0208 -0.3137 -0.0450
 1796ntf    on514785   1.258   5.657   3.480 -0.0238 -0.3996 -0.0357
 1796ntf    on514786   1.578   5.384   3.636  0.4429  0.1586  0.4838
 1796ntf    on514787   1.344   5.347   3.582  0.0603  0.3177  0.1293
 1796ntf    fn414788   1.501   5.409   3.923  0.0726  0.9234 -0.6561
 1796ntf    fn414789   1.299   5.415   3.878 -0.2115  0.2574 -0.3682
 1796ntf    fn414790   1.411   5.237   3.842  0.1503  0.2201  0.9719
 1797ntf    cn114791   2.771   5.454   2.609  0.3545 -0.0477  0.1994
 1797ntf    sn214792   2.667   5.368   2.486 -0.0083  0.3226  0.2460
 1797ntf    nn314793   2.746   5.399   2.354 -0.2463  0.2009  0.0744
 1797ntf    sn214794   2.741   5.526   2.263  0.2121  0.1246 -0.0605
 1797ntf    cn114795   2.909   5.511   2.197  0.0885 -0.3961 -0.2621
 1797ntf    fn414796   2.786   5.581   2.576  0.5583 -0.0622  0.2396
 1797ntf    fn414797   2.727   5.442   2.733 -0.6362 -0.3329 -0.1654
 1797ntf    fn414798   2.894   5.407   2.614  0.3304 -0.0511  0.8129
 1797ntf    on514799   2.684   5.230   2.524  0.7338  0.3535  0.0437
 1797ntf    on514800   2.534   5.424   2.486 -0.1697 -0.0596 -0.0528
 1797ntf    on514801   2.732   5.656   2.326 -0.3349 -0.2022  0.5454
 1797ntf    on514802   2.658   5.506   2.146 -0.2819 -0.1418  0.3351
 1797ntf    fn414803   2.912   5.432   2.091 -0.4164 -0.0627 -0.5271
 1797ntf    fn414804   2.965   5.625   2.159 -0.5802  0.0409  0.0558
 1797ntf    fn414805   2.988   5.449   2.283  0.0118 -0.6147 -0.3486
 1798ntf    cn114806   4.233   4.401   2.104 -0.3207 -0.1418  0.1471
 1798ntf    sn214807   4.285   4.250   2.191  0.0176 -0.1017  0.0158
 1798ntf    nn314808   4.298   4.139   2.080  0.3369 -0.7685  0.7121
 1798ntf    sn214809   4.423   4.106   1.991 -0.0768 -0.1938 -0.0921
 1798ntf    cn114810   4.348   3.971   1.895 -0.3697 -0.0574 -0.0560
 1798ntf    fn414811   4.322   4.452   2.021 -0.5319 -0.3435 -0.2082
 1798ntf    fn414812   4.126   4.381   2.028 -0.1702 -0.1930 -0.0517
 1798ntf    fn414813   4.204   4.500   2.188  0.6428  0.3313 -0.0626
 1798ntf    on514814   4.409   4.275   2.260  0.0732 -0.5993  0.0985
 1798ntf    on514815   4.169   4.237   2.276 -0.0805  0.2975 -0.0583
 1798ntf    on514816   4.532   4.046   2.063 -0.0626  0.3647  0.3578
 1798ntf    on514817   4.456   4.202   1.888 -0.1815  0.2232  0.2631
 1798ntf    fn414818   4.246   4.015   1.823 -0.3495  0.2209  0.0866
 1798ntf    fn414819   4.431   3.913   1.810 -0.7023 -0.2607 -0.2443
 1798ntf    fn414820   4.299   3.873   1.970  0.1297 -0.5404 -0.3548
 1799ntf    cn114821   3.180   2.283   5.582 -0.0169  0.2063 -0.6150
 1799ntf    sn214822   3.290   2.161   5.661 -0.5376  0.1242 -0.0066
 1799ntf    nn314823   3.361   2.102   5.533 -0.0456 -0.3390  0.4761
 1799ntf    sn214824   3.514   2.108   5.498 -0.1144 -0.1048  0.2117
 1799ntf    cn114825   3.570   1.971   5.603  0.0423 -0.0882  0.1496
 1799ntf    fn414826   3.252   2.366   5.508  0.1964  0.2362 -0.3770
 1799ntf    fn414827   3.096   2.222   5.500 -0.1293  0.1440 -0.4530
 1799ntf    fn414828   3.109   2.357   5.665 -0.1712 -0.3161 -0.2775
 1799ntf    on514829   3.362   2.241   5.756 -0.4090 -0.3256  0.2748
 1799ntf    on514830   3.192   2.073   5.718 -0.2962 -0.0826  0.0907
 1799ntf    on514831   3.589   2.217   5.554 -0.1239  0.0612 -0.0941
 1799ntf    on514832   3.559   2.065   5.368 -0.0775 -0.3786  0.3140
 1799ntf    fn414833   3.701   1.952   5.598  0.0608 -0.0489  0.4777
 1799ntf    fn414834   3.536   1.999   5.728 -0.5610 -0.0983 -0.0115
 1799ntf    fn414835   3.510   1.857   5.571 -0.3417  0.2911 -0.4980
 1800ntf    cn114836   2.815   6.117   3.384 -0.2788 -0.1683  0.0573
 1800ntf    sn214837   2.843   6.068   3.211 -0.1824  0.1717 -0.0261
 1800ntf    nn314838   2.750   5.941   3.203 -0.0784  0.1207 -0.4419
 1800ntf    sn214839   2.653   5.896   3.088 -0.4244 -0.0865 -0.0709
 1800ntf    cn114840   2.768   5.861   2.951 -0.0820 -0.2979  0.2666
 1800ntf    fn414841   2.860   6.028   3.470 -0.2800 -0.0975  0.1320
 1800ntf    fn414842   2.864   6.236   3.416 -0.7454  0.1219 -0.3023
 1800ntf    fn414843   2.688   6.127   3.418 -0.3266 -0.5308 -0.0204
 1800ntf    on514844   2.794   6.178   3.131  0.6934  0.3530 -0.3242
 1800ntf    on514845   2.982   6.033   3.208 -0.4014 -0.6940 -0.5693
 1800ntf    on514846   2.569   5.997   3.030 -0.1658  0.0649 -0.1834
 1800ntf    on514847   2.602   5.764   3.119 -0.6654 -0.0760 -0.4234
 1800ntf    fn414848   2.712   5.820   2.839 -0.7545  0.2304  0.3994
 1800ntf    fn414849   2.834   5.971   2.920  0.4212 -0.5772  0.3232
 1800ntf    fn414850   2.859   5.772   2.989 -0.0464 -0.2968  0.1839
 1801ntf    cn114851   5.003   6.344   5.105  0.0387 -0.0569  0.4746
 1801ntf    sn214852   5.112   6.414   4.977 -0.2861 -0.0849  0.1795
 1801ntf    nn314853   5.033   6.546   4.943  0.0063  0.0052 -0.1495
 1801ntf    sn214854   5.038   6.637   4.815  0.1995 -0.1146 -0.2297
 1801ntf    cn114855   5.174   6.747   4.863 -0.0648  0.1076  0.0194
 1801ntf    fn414856   4.967   6.436   5.192 -0.0639  0.1619  0.2026
 1801ntf    fn414857   4.899   6.272   5.065  0.5299 -0.3958 -0.2230
 1801ntf    fn414858   5.067   6.254   5.178  0.0493  0.0144  0.5525
 1801ntf    on514859   5.234   6.443   5.050 -0.4173 -0.0571  0.3901
 1801ntf    on514860   5.121   6.313   4.875  0.3966  0.1524 -0.0023
 1801ntf    on514861   4.939   6.742   4.803  0.0731 -0.3420 -1.2206
 1801ntf    on514862   5.086   6.584   4.691  0.1597 -0.1297 -0.2390
 1801ntf    fn414863   5.132   6.815   4.969  0.0538  0.3679 -0.1005
 1801ntf    fn414864   5.282   6.679   4.898 -0.0674 -0.1340 -0.4451
 1801ntf    fn414865   5.213   6.833   4.770 -0.0701 -0.3516 -0.4111
 1802ntf    cn114866   5.248   3.668   1.361  0.1197  0.2006 -0.0908
 1802ntf    sn214867   5.183   3.753   1.508 -0.1034 -0.3560  0.1361
 1802ntf    nn314868   5.027   3.737   1.498 -0.1274 -0.0056 -0.0669
 1802ntf    sn214869   4.921   3.659   1.583 -0.2217  0.0068 -0.1747
 1802ntf    cn114870   4.858   3.787   1.695  0.3922  0.3798 -0.2532
 1802ntf    fn414871   5.245   3.749   1.257 -0.1220 -0.1057 -0.3237
 1802ntf    fn414872   5.370   3.617   1.373  0.1724  0.3358 -0.0542
 1802ntf    fn414873   5.175   3.565   1.323 -0.0282  0.2244  0.1238
 1802ntf    on514874   5.237   3.678   1.620 -0.5019 -0.7835  0.0441
 1802ntf    on514875   5.213   3.894   1.502  0.4434 -0.4883 -0.3511
 1802ntf    on514876   4.969   3.545   1.657 -0.6522 -0.2473 -0.2824
 1802ntf    on514877   4.807   3.635   1.497  0.2220 -0.4817 -0.6375
 1802ntf    fn414878   4.766   3.734   1.774  0.1676 -0.0497 -0.7995
 1802ntf    fn414879   4.956   3.831   1.772  0.4278  0.1212 -0.1530
 1802ntf    fn414880   4.804   3.889   1.630 -0.5125  0.1270  0.0747
 1803ntf    cn114881   5.576   0.347   2.934  0.0003 -0.0369  0.2531
 1803ntf    sn214882   5.407   0.306   2.987 -0.1189  0.0910 -0.0287
 1803ntf    nn314883   5.386   0.403   3.108 -0.3178 -0.6321  0.5177
 1803ntf    sn214884   5.263   0.490   3.154 -0.1936 -0.1811 -0.0068
 1803ntf    cn114885   5.308   0.514   3.328  0.4424  0.2820 -0.2274
 1803ntf    fn414886   5.584   0.468   2.882 -0.5381  0.0700  0.4204
 1803ntf    fn414887   5.662   0.344   3.036  0.4974  0.1891 -0.1529
 1803ntf    fn414888   5.632   0.265   2.847  0.1239  0.1211  0.1824
 1803ntf    on514889   5.327   0.340   2.872 -0.7418 -0.7739  0.1416
 1803ntf    on514890   5.415   0.167   3.024 -0.6641  0.0197 -0.1739
 1803ntf    on514891   5.137   0.422   3.167 -0.0989 -0.4594 -0.4892
 1803ntf    on514892   5.265   0.623   3.099  0.4771  0.0157  0.4774
 1803ntf    fn414893   5.317   0.396   3.387 -0.0399  0.5867  0.4733
 1803ntf    fn414894   5.423   0.575   3.349  0.4124  0.1366  0.3994
 1803ntf    fn414895   5.219   0.585   3.396  0.1919 -0.2684  0.0307
 1804ntf    cn114896   3.267   6.118   3.645  0.0363  0.1633 -0.1087
 1804ntf    sn214897   3.335   6.006   3.771  0.3046  0.2601 -0.1685
 1804ntf    nn314898   3.234   5.887   3.757  0.3930  0.1619  0.0161
 1804ntf    sn214899   3.111   5.851   3.847  0.2492  0.2301 -0.1520
 1804ntf    cn114900   2.991   5.780   3.730  0.0867 -0.0178  0.1633
 1804ntf    fn414901   3.138   6.138   3.668  0.0146 -0.0318 -0.0591
 1804ntf    fn414902   3.320   6.239   3.649  0.1124  0.1317 -0.1776
 1804ntf    fn414903   3.283   6.073   3.522  0.8043 -0.1944  0.1197
 1804ntf    on514904   3.468   5.979   3.724  0.0913  0.1119 -0.6885
 1804ntf    on514905   3.331   6.077   3.897  0.0763 -0.6019  0.3186
 1804ntf    on514906   3.035   5.963   3.896 -0.1276  0.0255 -0.2702
 1804ntf    on514907   3.136   5.736   3.931  0.5941  0.0415 -0.5086
 1804ntf    fn414908   2.978   5.862   3.627  0.3789 -0.0412  0.1058
 1804ntf    fn414909   3.037   5.671   3.671 -0.1907 -0.2091  0.2998
 1804ntf    fn414910   2.873   5.752   3.783  0.1234 -0.1922  0.1524
 1805ntf    cn114911   3.332   4.393   3.761 -0.5864  0.1496  0.1192
 1805ntf    sn214912   3.282   4.393   3.935 -0.1118  0.3870  0.2580
 1805ntf    nn314913   3.316   4.540   3.977  0.0789  0.3952  0.0716
 1805ntf    sn214914   3.222   4.665   3.991 -0.1696  0.2141  0.0167
 1805ntf    cn114915   3.173   4.664   4.166 -0.1847  0.3012  0.0129
 1805ntf    fn414916   3.316   4.269   3.718 -0.2415  0.0713  0.2128
 1805ntf    fn414917   3.272   4.486   3.688 -0.7946  0.4016  0.6135
 1805ntf    fn414918   3.464   4.403   3.750 -0.6020 -0.2294 -0.5077
 1805ntf    on514919   3.142   4.355   3.930  0.0782 -0.2640 -0.2765
 1805ntf    on514920   3.367   4.294   3.996  0.2647  0.2590 -0.4658
 1805ntf    on514921   3.100   4.661   3.915 -0.2867  0.0559  0.2114
 1805ntf    on514922   3.298   4.787   3.990 -0.0408  0.1388  0.4261
 1805ntf    fn414923   3.106   4.773   4.199 -0.2288 -0.0326  1.0762
 1805ntf    fn414924   3.098   4.559   4.197  0.3152 -0.2081 -0.4609
 1805ntf    fn414925   3.278   4.672   4.246 -0.2642  0.5350  0.0950
 1806ntf    cn114926   4.949   6.248   5.458  0.2254 -0.4409  0.2006
 1806ntf    sn214927   4.782   6.320   5.466  0.3655 -0.1009  0.1139
 1806ntf    nn314928   4.732   6.258   5.601  0.2089 -0.2051  0.0075
 1806ntf    sn214929   4.635   6.134   5.610  0.0553 -0.1165 -0.3933
 1806ntf    cn114930   4.473   6.215   5.609  0.1585  0.0939 -0.2285
 1806ntf    fn414931   5.007   6.212   5.572  0.3073  0.4478  0.4473
 1806ntf    fn414932   4.953   6.145   5.375  0.5103 -0.0729 -0.2495
 1806ntf    fn414933   5.037   6.335   5.409 -0.2873  0.2151  0.4249
 1806ntf    on514934   4.810   6.460   5.488 -0.0685  0.0799 -0.4612
 1806ntf    on514935   4.714   6.292   5.342  0.0900 -0.5444  0.3618
 1806ntf    on514936   4.641   6.078   5.743  0.0687  0.8910  0.0430
 1806ntf    on514937   4.644   6.032   5.508  0.2602 -0.5769  0.0777
 1806ntf    fn414938   4.475   6.319   5.527 -0.5639  0.3767  0.1002
 1806ntf    fn414939   4.365   6.145   5.577  0.0618  0.2367 -0.2160
 1806ntf    fn414940   4.451   6.276   5.724 -0.7879 -0.2964 -0.1893
 1807ntf    cn114941   2.049   1.043   2.879  0.5976  0.1380 -0.4003
 1807ntf    sn214942   2.132   0.885   2.844  0.2189 -0.2146  0.2835
 1807ntf    nn314943   2.011   0.804   2.784 -0.0665  0.1513  0.3626
 1807ntf    sn214944   1.991   0.649   2.796  0.3838  0.0300 -0.3807
 1807ntf    cn114945   1.906   0.618   2.638 -0.1665  0.1370 -0.1078
 1807ntf    fn414946   2.128   1.130   2.939 -0.5632  0.3811  0.8244
 1807ntf    fn414947   2.008   1.103   2.768  0.0818  0.1723 -0.1923
 1807ntf    fn414948   1.940   1.032   2.953  0.2403 -0.6563 -1.0271
 1807ntf    on514949   2.241   0.924   2.758  0.2764 -0.2684  0.3317
 1807ntf    on514950   2.169   0.831   2.973  0.3680 -0.1012  0.2882
 1807ntf    on514951   1.894   0.620   2.898  0.6523 -0.0970 -0.1602
 1807ntf    on514952   2.112   0.570   2.791  0.0316 -0.4844 -1.0173
 1807ntf    fn414953   1.968   0.655   2.527  0.0509  0.3709  0.0892
 1807ntf    fn414954   1.873   0.491   2.623 -0.5519  0.2324 -0.0668
 1807ntf    fn414955   1.797   0.692   2.629 -0.2999 -0.0747 -0.2231
 1808ntf    cn114956   2.253   3.261   4.545  0.2763  0.0967 -0.0102
 1808ntf    sn214957   2.318   3.184   4.696  0.0112  0.0193  0.0659
 1808ntf    nn314958   2.458   3.126   4.653 -0.2198 -0.2328 -0.3443
 1808ntf    sn214959   2.482   2.984   4.590 -0.0113 -0.1154 -0.5279
 1808ntf    cn114960   2.590   2.921   4.723 -0.4385 -0.3289 -0.2811
 1808ntf    fn414961   2.152   3.345   4.559  0.4491  0.2929  0.0607
 1808ntf    fn414962   2.354   3.333   4.500  0.7883 -0.3942  0.3311
 1808ntf    fn414963   2.208   3.177   4.452  0.2960  0.1820 -0.0962
 1808ntf    on514964   2.337   3.295   4.787 -0.2472  0.1962 -0.0960
 1808ntf    on514965   2.218   3.087   4.732  0.1827 -0.1289  0.1456
 1808ntf    on514966   2.566   2.995   4.473  0.0683  0.5927 -0.4084
 1808ntf    on514967   2.379   2.883   4.589  0.1223 -0.2736  0.4986
 1808ntf    fn414968   2.707   2.981   4.730 -0.2404 -0.7083 -0.3289
 1808ntf    fn414969   2.528   2.940   4.838  0.0606  0.2887 -0.1146
 1808ntf    fn414970   2.621   2.793   4.710  0.6427 -0.1580  0.5853
 1809ntf    cn114971   5.684   2.159   1.893 -0.2377 -0.1138 -0.0716
 1809ntf    sn214972   5.736   1.986   1.876 -0.0160 -0.0500 -0.0363
 1809ntf    nn314973   5.667   1.929   2.004  0.1499  0.1807  0.1566
 1809ntf    sn214974   5.520   1.879   2.024  0.2233  0.0637  0.4094
 1809ntf    cn114975   5.565   1.703   2.041  0.2264  0.0038 -0.2017
 1809ntf    fn414976   5.750   2.219   1.991 -0.2574 -0.0025 -0.1252
 1809ntf    fn414977   5.715   2.226   1.783  0.1497 -0.1473  0.0184
 1809ntf    fn414978   5.554   2.170   1.914 -0.2358  0.1186 -0.1826
 1809ntf    on514979   5.667   1.938   1.758 -0.3872 -0.0271  0.1715
 1809ntf    on514980   5.881   1.991   1.877 -0.0141  0.2595 -0.7939
 1809ntf    on514981   5.433   1.882   1.910 -0.0963  0.6957  0.6655
 1809ntf    on514982   5.459   1.894   2.154 -0.1563 -0.2264  0.2665
 1809ntf    fn414983   5.673   1.687   2.116  0.0800 -0.8715 -0.1669
 1809ntf    fn414984   5.467   1.624   2.081  0.1104  0.1772 -0.1432
 1809ntf    fn414985   5.603   1.653   1.925  0.6116  0.0978 -0.1185
 1810ntf    cn114986   1.144   3.795   5.336  0.4504  0.1835  0.1582
 1810ntf    sn214987   1.177   3.646   5.434 -0.1114 -0.1342 -0.1263
 1810ntf    nn314988   1.318   3.615   5.373  0.0706  0.0513  0.1957
 1810ntf    sn214989   1.446   3.553   5.439  0.2606  0.1669 -0.0620
 1810ntf    cn114990   1.448   3.378   5.388 -0.1696  0.1688 -0.0826
 1810ntf    fn414991   1.047   3.874   5.379 -0.0430 -0.1502 -0.3232
 1810ntf    fn414992   1.254   3.867   5.328  0.0150  0.8328 -0.0115
 1810ntf    fn414993   1.109   3.767   5.211  0.4503 -0.0674  0.2138
 1810ntf    on514994   1.175   3.686   5.573  0.1262 -0.8171  0.0828
 1810ntf    on514995   1.078   3.548   5.396 -0.7311  0.3586  0.1979
 1810ntf    on514996   1.455   3.549   5.583  0.0345 -0.1403 -0.0572
 1810ntf    on514997   1.561   3.611   5.375  0.1515  0.6525  0.1780
 1810ntf    fn414998   1.364   3.303   5.458  0.0047 -0.2105 -0.2779
 1810ntf    fn414999   1.422   3.359   5.260  0.1300  0.6621 -0.2179
 1810ntf    fn415000   1.565   3.320   5.404  0.0614  0.5183 -0.5178
 1811ntf    cn115001   4.028   1.073   4.088 -0.0313  0.0193 -0.2390
 1811ntf    sn215002   4.172   1.127   4.186 -0.2500 -0.1280  0.1702
 1811ntf    nn315003   4.146   1.091   4.336 -0.2515  0.3532  0.2871
 1811ntf    sn215004   4.205   0.973   4.420 -0.2518  0.2121  0.0906
 1811ntf    cn115005   4.100   0.838   4.358  0.1400 -0.1472  0.2037
 1811ntf    fn415006   4.010   0.943   4.102  0.0871  0.0734  0.4731
 1811ntf    fn415007   3.918   1.142   4.113 -0.1302 -0.1436 -0.2271
 1811ntf    fn415008   4.049   1.091   3.959 -0.3472  0.3656 -0.2446
 1811ntf    on515009   4.275   1.052   4.117 -0.2494 -0.3516  0.4162
 1811ntf    on515010   4.173   1.271   4.178  0.3993 -0.1346  0.0533
 1811ntf    on515011   4.169   0.987   4.559 -0.0212 -0.1665  0.1908
 1811ntf    on515012   4.339   0.923   4.400 -0.2737 -0.1156  0.7162
 1811ntf    fn415013   4.119   0.732   4.435  0.9818 -0.3824 -0.3150
 1811ntf    fn415014   3.973   0.874   4.350  0.2454  0.1211 -0.2623
 1811ntf    fn415015   4.120   0.797   4.234 -0.1191  0.0590  0.0931
 1812ntf    cn115016   0.475   5.382   5.559 -0.0432  0.1858  0.1034
 1812ntf    sn215017   0.317   5.329   5.486 -0.0585  0.3584  0.0110
 1812ntf    nn315018   0.228   5.423   5.574 -0.3775 -0.1339  0.2181
 1812ntf    sn215019   0.076   5.457   5.550 -0.3422  0.0886  0.3097
 1812ntf    cn115020   0.009   5.418   5.715 -0.2182 -0.1175  0.3126
 1812ntf    fn415021   0.575   5.309   5.510  0.0843  0.5442 -0.1719
 1812ntf    fn415022   0.513   5.501   5.516  0.2002  0.1928  0.3392
 1812ntf    fn415023   0.477   5.379   5.691 -0.1271  0.1647  0.1047
 1812ntf    on515024   0.325   5.362   5.346  0.4857  0.1682 -0.0069
 1812ntf    on515025   0.324   5.190   5.524  0.0480  0.3594 -0.0051
 1812ntf    on515026   0.014   5.364   5.460  0.4307 -0.3824  0.2525
 1812ntf    on515027   0.041   5.596   5.535 -0.2599  0.0380 -0.3535
 1812ntf    fn415028  -0.093   5.334   5.714 -0.1133 -0.2427 -0.3433
 1812ntf    fn415029   0.095   5.354   5.792  0.5758  0.7021  0.1271
 1812ntf    fn415030  -0.036   5.520   5.786 -0.1071  0.1857 -0.0437
 1813ntf    cn115031   0.143   1.298   6.081  0.2855 -0.1274 -0.2823
 1813ntf    sn215032   0.188   1.155   6.184 -0.0573 -0.1494 -0.1633
 1813ntf    nn315033   0.310   1.212   6.264 -0.1277 -0.1208 -0.0759
 1813ntf    sn215034   0.318   1.279   6.406 -0.0641 -0.2261 -0.0302
 1813ntf    cn115035   0.402   1.436   6.367  0.0344 -0.1454  0.5041
 1813ntf    fn415036   0.029   1.276   6.018  0.1478  1.1243 -0.4921
 1813ntf    fn415037   0.131   1.409   6.152 -0.3136 -0.5006  0.2188
 1813ntf    fn415038   0.229   1.329   5.986  0.4741  0.1246 -0.0327
 1813ntf    on515039   0.078   1.115   6.269 -0.0108 -0.8847 -0.4359
 1813ntf    on515040   0.234   1.053   6.093  0.2475 -1.0290  0.9525
 1813ntf    on515041   0.416   1.218   6.492  0.1992 -0.0387 -0.1953
 1813ntf    on515042   0.198   1.317   6.476 -0.0992 -0.0985 -0.1589
 1813ntf    fn415043   0.423   1.501   6.481  0.1688  0.3676  0.1877
 1813ntf    fn415044   0.522   1.427   6.312 -0.2232  0.3660 -0.1424
 1813ntf    fn415045   0.336   1.522   6.292  0.0826 -0.3424  0.2345
 1814ntf    cn115046   0.927   2.135   0.717 -0.0972 -0.2203  0.3516
 1814ntf    sn215047   0.902   2.122   0.897 -0.4113 -0.0151  0.3222
 1814ntf    nn315048   0.751   2.077   0.903 -0.3067 -0.3548  0.3988
 1814ntf    sn215049   0.699   1.929   0.907 -0.5035 -0.3001 -0.1020
 1814ntf    cn115050   0.526   1.947   0.855 -0.4384 -0.2773 -0.3135
 1814ntf    fn415051   0.829   2.207   0.666  0.2904  0.1675  0.1398
 1814ntf    fn415052   1.040   2.202   0.697 -0.1424 -0.1348  0.3796
 1814ntf    fn415053   0.931   2.017   0.658  0.2623  0.0876 -0.2502
 1814ntf    on515054   0.990   2.019   0.945 -0.4393  0.2499  0.9428
 1814ntf    on515055   0.922   2.260   0.932  0.0886 -0.0259  0.0787
 1814ntf    on515056   0.687   1.878   1.041  0.6205  0.9144  0.4853
 1814ntf    on515057   0.767   1.841   0.814  0.7344 -0.1406  0.6330
 1814ntf    fn415058   0.464   2.012   0.952  0.1628 -0.7117  0.3775
 1814ntf    fn415059   0.501   2.001   0.737 -0.6896  0.1367 -0.0723
 1814ntf    fn415060   0.469   1.828   0.867 -0.7074 -0.1014  0.2000
 1815ntf    cn115061   6.380   1.999   1.534  0.0089 -0.0815  0.2237
 1815ntf    sn215062   6.433   2.159   1.602  0.3585 -0.0769 -0.0558
 1815ntf    nn315063   6.479   2.230   1.469  0.6435 -0.2050 -0.0261
 1815ntf    sn215064   6.623   2.222   1.407  0.2677 -0.1883 -0.9177
 1815ntf    cn115065   6.697   2.367   1.489 -0.2121 -0.2187 -0.4264
 1815ntf    fn415066   6.378   1.897   1.618  0.4725  0.0288  0.3710
 1815ntf    fn415067   6.260   2.008   1.479  0.0874 -1.0218 -0.1159
 1815ntf    fn415068   6.470   1.963   1.443 -0.0242 -0.1579  0.2217
 1815ntf    on515069   6.315   2.222   1.656  0.3489 -0.1904  0.0562
 1815ntf    on515070   6.536   2.123   1.696  0.7588 -0.5604 -0.6698
 1815ntf    on515071   6.622   2.265   1.270  0.6292  1.0127 -0.5583
 1815ntf    on515072   6.711   2.118   1.454  0.2274  0.0899 -0.2142
 1815ntf    fn415073   6.661   2.484   1.439 -0.4574 -0.1363 -0.0590
 1815ntf    fn415074   6.651   2.371   1.613 -0.1888  0.6851 -0.4441
 1815ntf    fn415075   6.829   2.375   1.496 -0.2375 -0.3059  0.2523
 1816ntf    cn115076   2.333   4.641   5.994  0.3296  0.2827 -0.1823
 1816ntf    sn215077   2.355   4.473   5.926  0.3671  0.2897 -0.1876
 1816ntf    nn315078   2.269   4.495   5.797  0.0276  0.3386  0.0438
 1816ntf    sn215079   2.331   4.542   5.660  0.4933 -0.1574  0.0808
 1816ntf    cn115080   2.354   4.386   5.570  0.0345 -0.0809 -0.1696
 1816ntf    fn415081   2.401   4.667   6.104 -0.1960 -0.7495  0.4117
 1816ntf    fn415082   2.363   4.734   5.906 -0.7217  0.4989 -0.3235
 1816ntf    fn415083   2.208   4.669   6.027  0.4036 -0.0201  0.3663
 1816ntf    on515084   2.495   4.445   5.906  0.1792 -0.4067 -0.5324
 1816ntf    on515085   2.288   4.397   6.029  0.2544  0.2380 -0.2985
 1816ntf    on515086   2.463   4.599   5.665  0.0801  0.8418 -0.2097
 1816ntf    on515087   2.225   4.610   5.591  0.3136 -0.1534  0.3578
 1816ntf    fn415088   2.447   4.309   5.624  0.5561  0.5941 -0.0955
 1816ntf    fn415089   2.245   4.310   5.567  0.0608 -0.1483  0.4836
 1816ntf    fn415090   2.395   4.406   5.446  0.0626  0.0073 -0.1461
 1817ntf    cn115091   3.140   0.027   3.277  0.2217  0.1277  0.2638
 1817ntf    sn215092   3.271   0.099   3.173  0.3300 -0.2149  0.1645
 1817ntf    nn315093   3.258   0.239   3.241 -0.0836 -0.1832  0.0233
 1817ntf    sn215094   3.322   0.308   3.367  0.1630 -0.1338 -0.1295
 1817ntf    cn115095   3.448   0.415   3.292  0.0837  0.1662  0.1628
 1817ntf    fn415096   3.123  -0.103   3.266 -0.1836  0.1970  0.0353
 1817ntf    fn415097   3.180   0.039   3.403  0.9226  0.7867 -0.0126
 1817ntf    fn415098   3.023   0.087   3.264  0.2295  0.1346  0.2240
 1817ntf    on515099   3.391   0.027   3.207  0.1732 -0.5723 -0.0271
 1817ntf    on515100   3.224   0.100   3.036 -0.4782 -0.0460  0.4388
 1817ntf    on515101   3.391   0.216   3.454 -0.1826 -0.2002  0.0740
 1817ntf    on515102   3.228   0.403   3.421  0.4978  0.1606 -0.0604
 1817ntf    fn415103   3.544   0.365   3.215  0.1945  0.6805 -0.0362
 1817ntf    fn415104   3.390   0.507   3.217 -0.1823  0.1057  0.2920
 1817ntf    fn415105   3.509   0.493   3.380 -0.6390  0.5870  0.2928
 1818ntf    cn115106   0.162   1.302   2.615 -0.2965 -0.3389 -0.1868
 1818ntf    sn215107   0.009   1.366   2.690 -0.0058 -0.0030  0.1231
 1818ntf    nn315108  -0.057   1.422   2.559  0.1500 -0.6455 -0.2290
 1818ntf    sn215109  -0.033   1.561   2.490 -0.0463 -0.4377  0.1201
 1818ntf    cn115110  -0.202   1.627   2.477  0.0191 -0.3315 -0.1975
 1818ntf    fn415111   0.216   1.409   2.559  0.2678 -0.3482  0.3301
 1818ntf    fn415112   0.251   1.262   2.704 -0.4856  0.0587  0.1885
 1818ntf    fn415113   0.143   1.214   2.519  0.5193 -0.3425 -0.3500
 1818ntf    on515114  -0.061   1.246   2.729  0.3201 -0.1377  0.2914
 1818ntf    on515115   0.053   1.458   2.793  0.4734  0.2332 -0.2882
 1818ntf    on515116   0.019   1.541   2.357 -0.0153 -0.2257  0.1003
 1818ntf    on515117   0.035   1.657   2.572 -0.2322 -0.1969 -0.0042
 1818ntf    fn415118  -0.215   1.744   2.415  0.0558 -0.3123 -0.1683
 1818ntf    fn415119  -0.282   1.547   2.409 -0.2940  0.2689 -0.5430
 1818ntf    fn415120  -0.249   1.645   2.599  0.1864  0.5468 -0.2509
 1819ntf    cn115121   2.653   3.451   0.762  0.0085  0.4505  0.0624
 1819ntf    sn215122   2.493   3.370   0.791  0.1617  0.0545 -0.2008
 1819ntf    nn315123   2.415   3.497   0.840 -0.1024 -0.0630 -0.3129
 1819ntf    sn215124   2.261   3.525   0.851 -0.1090 -0.1759 -0.1201
 1819ntf    cn115125   2.241   3.568   1.027 -0.3856 -0.3634 -0.1050
 1819ntf    fn415126   2.680   3.531   0.864 -0.0305  0.4033  0.1097
 1819ntf    fn415127   2.752   3.365   0.749 -0.7140 -0.3343 -0.3380
 1819ntf    fn415128   2.653   3.536   0.660 -0.1963  0.0416 -0.2795
 1819ntf    on515129   2.451   3.309   0.667 -0.2260  0.0806 -0.0851
 1819ntf    on515130   2.517   3.274   0.897 -0.5151 -0.4183 -0.4634
 1819ntf    on515131   2.172   3.413   0.837  0.1955 -0.3639 -0.5808
 1819ntf    on515132   2.216   3.637   0.772  0.3825  0.0991 -0.0178
 1819ntf    fn415133   2.297   3.684   1.059  0.1148 -0.5889 -0.1597
 1819ntf    fn415134   2.113   3.576   1.056 -0.4480  0.0468 -0.4773
 1819ntf    fn415135   2.293   3.488   1.118 -0.2387 -0.3700 -0.1931
 1820ntf    cn115136   4.865   2.325   5.361  0.4126 -0.4108 -0.6646
 1820ntf    sn215137   4.977   2.468   5.356 -0.1356  0.0523  0.0285
 1820ntf    nn315138   4.886   2.561   5.269  0.3012  0.5222  0.0697
 1820ntf    sn215139   4.912   2.713   5.239  0.1528  0.5279 -0.0348
 1820ntf    cn115140   4.787   2.791   5.346 -0.2222 -0.0865 -0.0242
 1820ntf    fn415141   4.911   2.237   5.449 -0.6038 -0.0481  0.2542
 1820ntf    fn415142   4.741   2.354   5.398  0.5429  0.1506 -0.6657
 1820ntf    fn415143   4.853   2.253   5.251 -0.0629  0.1229 -0.9667
 1820ntf    on515144   4.994   2.507   5.494 -0.2809  0.0243  0.0547
 1820ntf    on515145   5.090   2.411   5.287 -0.1847  0.5716 -0.4848
 1820ntf    on515146   4.872   2.749   5.105 -0.4389  0.5351  0.1406
 1820ntf    on515147   5.041   2.758   5.287  0.2035  0.5301 -0.1721
 1820ntf    fn415148   4.804   2.770   5.475 -0.0780  0.7639  0.0982
 1820ntf    fn415149   4.788   2.923   5.346  0.1630 -0.0900  0.0024
 1820ntf    fn415150   4.663   2.757   5.315 -0.2002  0.1498 -0.3717
 1821ntf    cn115151   1.949   5.129   1.111  0.0450  0.0264  0.0359
 1821ntf    sn215152   1.981   4.967   1.035  0.2717  0.0571  0.0652
 1821ntf    nn315153   1.882   4.894   1.133  0.3013  0.3346  0.3035
 1821ntf    sn215154   1.897   4.793   1.252 -0.3955 -0.2356 -0.0899
 1821ntf    cn115155   1.744   4.694   1.241 -0.4413 -0.1569 -0.1773
 1821ntf    fn415156   2.053   5.207   1.133  0.0967  0.0398 -0.2512
 1821ntf    fn415157   1.871   5.204   1.035 -0.6441 -0.0662  0.6303
 1821ntf    fn415158   1.890   5.123   1.230  0.4966 -0.4214  0.2409
 1821ntf    on515159   1.918   4.983   0.906  0.3123  0.4085  0.0872
 1821ntf    on515160   2.121   4.949   1.062  0.1634 -0.0583  0.5612
 1821ntf    on515161   1.895   4.861   1.379  0.6648  0.3785 -0.3901
 1821ntf    on515162   1.995   4.690   1.229  0.2185  0.2391  0.3632
 1821ntf    fn415163   1.723   4.641   1.122  0.4877  0.1460 -0.4836
 1821ntf    fn415164   1.746   4.592   1.326  0.2098  0.0918  0.1124
 1821ntf    fn415165   1.640   4.766   1.280 -0.3725 -0.0504 -0.1884
 1822ntf    cn115166   5.951   2.937   1.122 -0.4399 -0.1196 -0.1450
 1822ntf    sn215167   6.043   2.802   1.202 -0.1894  0.1099 -0.0461
 1822ntf    nn315168   6.129   2.883   1.306  0.6350 -0.0714 -0.5723
 1822ntf    sn215169   6.092   2.906   1.457  0.1441 -0.1478 -0.6800
 1822ntf    cn115170   6.098   3.088   1.462 -0.3950 -0.1436 -0.1170
 1822ntf    fn415171   6.029   3.035   1.079 -0.1266  0.0040  0.6763
 1822ntf    fn415172   5.886   2.892   1.016  0.0305  0.0842 -0.5220
 1822ntf    fn415173   5.865   3.000   1.201 -0.3404 -0.3231  0.1261
 1822ntf    on515174   5.943   2.707   1.243 -0.2573  0.2179  0.0376
 1822ntf    on515175   6.132   2.753   1.100  0.0178  0.4579 -0.0348
 1822ntf    on515176   6.202   2.879   1.546 -1.1253 -0.7877  0.7433
 1822ntf    on515177   5.955   2.879   1.495  0.2046  0.3217 -0.1102
 1822ntf    fn415178   6.222   3.127   1.441 -0.4513  0.0419 -0.1065
 1822ntf    fn415179   6.014   3.135   1.371  0.0227  0.1701 -0.3432
 1822ntf    fn415180   6.067   3.137   1.581  0.3635  0.3550 -0.1207
 1823ntf    cn115181   4.107   6.239   6.258 -0.0028 -0.3589  0.1742
 1823ntf    sn215182   4.265   6.171   6.315  0.2279 -0.0730 -0.1193
 1823ntf    nn315183   4.361   6.292   6.285  0.3403 -0.1390 -0.0237
 1823ntf    sn215184   4.493   6.287   6.199  0.3573 -0.3459  0.0122
 1823ntf    cn115185   4.441   6.285   6.025  0.3302  0.3692  0.0062
 1823ntf    fn415186   4.100   6.273   6.130 -0.3110  0.1066  0.3091
 1823ntf    fn415187   4.000   6.166   6.283 -0.2486 -0.0656 -0.0053
 1823ntf    fn415188   4.088   6.357   6.316 -0.1541 -0.0538 -0.4819
 1823ntf    on515189   4.245   6.151   6.457 -0.6557 -0.2909 -0.2710
 1823ntf    on515190   4.287   6.053   6.236  0.6213 -0.1568  0.1127
 1823ntf    on515191   4.573   6.170   6.220  0.2660 -0.4173 -0.0375
 1823ntf    on515192   4.560   6.415   6.205  0.0731 -0.2024  0.1856
 1823ntf    fn415193   4.368   6.177   6.001  0.1376  0.5276 -0.1178
 1823ntf    fn415194   4.367   6.385   5.981  0.2845  0.3112 -0.0483
 1823ntf    fn415195   4.541   6.284   5.938 -0.2429  0.2368 -0.6598
 1824ntf    cn115196   4.208   4.590   4.056  0.5000 -0.2736 -0.2437
 1824ntf    sn215197   4.308   4.587   3.904  0.5230  0.0032 -0.2350
 1824ntf    nn315198   4.221   4.536   3.783  0.4090 -0.1729 -0.0790
 1824ntf    sn215199   4.263   4.478   3.643  0.0534  0.0126 -0.2639
 1824ntf    cn115200   4.187   4.604   3.537  0.0226  0.1684 -0.0580
 1824ntf    fn415201   4.091   4.643   4.025  0.5328 -0.2334 -0.2977
 1824ntf    fn415202   4.191   4.465   4.096  0.3356 -0.1583  0.0418
 1824ntf    fn415203   4.268   4.659   4.152 -0.2246 -0.0099  0.0237
 1824ntf    on515204   4.343   4.726   3.891  0.2684  0.0688 -0.2337
 1824ntf    on515205   4.406   4.494   3.954  0.1201 -0.3494 -0.0965
 1824ntf    on515206   4.200   4.356   3.600 -0.1691  0.0631 -0.0859
 1824ntf    on515207   4.405   4.485   3.618  0.0437  0.2636 -0.2533
 1824ntf    fn415208   4.056   4.615   3.553 -0.0628 -0.4067 -0.3358
 1824ntf    fn415209   4.245   4.722   3.551 -0.1026  0.1929  0.2626
 1824ntf    fn415210   4.211   4.579   3.410 -0.6471  0.1908 -0.1923
 1825ntf    cn115211   6.334   6.764   0.932 -0.4211  0.3075 -0.1830
 1825ntf    sn215212   6.399   6.769   0.763  0.2131  0.2943  0.0603
 1825ntf    nn315213   6.540   6.709   0.797  0.2080  0.0282 -0.3648
 1825ntf    sn215214   6.682   6.756   0.748  0.1629  0.2101 -0.3203
 1825ntf    cn115215   6.759   6.606   0.681  0.4359  0.2892 -0.1862
 1825ntf    fn415216   6.428   6.814   1.010 -0.4623  0.4130 -0.2004
 1825ntf    fn415217   6.218   6.827   0.939 -0.3398  0.4568 -0.1812
 1825ntf    fn415218   6.309   6.640   0.971  0.3476  0.1555 -0.1695
 1825ntf    on515219   6.312   6.679   0.691 -0.2295  0.1120  0.8129
 1825ntf    on515220   6.391   6.907   0.724 -0.4439  0.2298 -0.0385
 1825ntf    on515221   6.778   6.782   0.852  0.1810  0.2100 -0.3371
 1825ntf    on515222   6.686   6.844   0.633  0.5590  0.0876 -0.3986
 1825ntf    fn415223   6.700   6.551   0.576  0.4577  0.1669 -0.1344
 1825ntf    fn415224   6.886   6.623   0.647  0.3778  1.1924  0.0211
 1825ntf    fn415225   6.756   6.510   0.771  0.5426  0.3858 -0.0795
 1826ntf    cn115226   1.238   0.113   0.944  0.0277 -0.5919  0.0809
 1826ntf    sn215227   1.191  -0.058   0.904  0.0439 -0.6141  0.1562
 1826ntf    nn315228   1.191  -0.135   1.041  0.4566 -0.1518  0.4182
 1826ntf    sn215229   1.109  -0.256   1.098 -0.5087  0.2654 -0.0737
 1826ntf    cn115230   1.061  -0.169   1.251 -0.3324 -0.2265  0.2638
 1826ntf    fn415231   1.367   0.141   0.949 -0.1304  0.1238  0.2118
 1826ntf    fn415232   1.193   0.207   0.862 -0.1918 -0.0254  0.8438
 1826ntf    fn415233   1.189   0.156   1.059 -0.0228 -0.0264 -0.1487
 1826ntf    on515234   1.061  -0.038   0.846  0.4226  0.0690 -0.4784
 1826ntf    on515235   1.301  -0.106   0.824  0.2510 -0.3230  0.2658
 1826ntf    on515236   1.188  -0.368   1.141 -0.0809  0.6052  0.0297
 1826ntf    on515237   0.979  -0.275   1.039 -0.3486  0.0826 -0.3642
 1826ntf    fn415238   0.991  -0.063   1.213  0.1999 -0.1028 -0.4044
 1826ntf    fn415239   0.978  -0.242   1.323 -0.7706 -0.0041 -0.0087
 1826ntf    fn415240   1.168  -0.143   1.324 -0.1273  0.2304 -0.1936
 1827ntf    cn115241   1.198   3.124   1.580  0.1030 -0.0415  0.0539
 1827ntf    sn215242   1.352   3.053   1.516  0.0309 -0.2177  0.0744
 1827ntf    nn315243   1.287   2.997   1.385  0.1767 -0.2161  0.0003
 1827ntf    sn215244   1.226   2.856   1.354  0.3348 -0.2759 -0.0367
 1827ntf    cn115245   1.363   2.752   1.294  0.0945 -0.3636 -0.4428
 1827ntf    fn415246   1.098   3.043   1.550  0.0199  0.0476  0.0922
 1827ntf    fn415247   1.211   3.126   1.712 -0.2961  0.4090  0.0860
 1827ntf    fn415248   1.164   3.244   1.538 -0.1389 -0.2757 -0.4275
 1827ntf    on515249   1.430   3.172   1.490  0.1032 -0.0903  0.8502
 1827ntf    on515250   1.392   2.957   1.617 -0.7252  0.0220  0.6057
 1827ntf    on515251   1.135   2.862   1.242 -0.2889 -0.7803  0.4330
 1827ntf    on515252   1.173   2.787   1.469  0.1797  0.0465  0.0845
 1827ntf    fn415253   1.333   2.625   1.273 -0.4378 -0.2685 -0.2736
 1827ntf    fn415254   1.425   2.800   1.187  0.1401 -0.1438 -0.3203
 1827ntf    fn415255   1.454   2.744   1.390 -0.3177  0.2696  0.0134
 1828ntf    cn115256   2.441   1.312   6.507  0.5728 -0.0894 -0.0190
 1828ntf    sn215257   2.556   1.387   6.627  0.3427  0.0861  0.0930
 1828ntf    nn315258   2.478   1.520   6.656 -0.2693 -0.3850  0.6393
 1828ntf    sn215259   2.493   1.663   6.595 -0.0114 -0.5456  0.3209
 1828ntf    cn115260   2.590   1.739   6.728 -0.0490  0.1049 -0.0145
 1828ntf    fn415261   2.336   1.252   6.561  0.0663  0.4049 -0.4513
 1828ntf    fn415262   2.398   1.397   6.416 -0.2573  0.3231  0.7417
 1828ntf    fn415263   2.501   1.212   6.445 -0.5588 -0.8410  0.0629
 1828ntf    on515264   2.561   1.288   6.732  0.0812  0.3582  0.3613
 1828ntf    on515265   2.676   1.399   6.548  0.3505 -0.0117  0.0892
 1828ntf    on515266   2.370   1.740   6.597  0.1682 -0.2370 -0.2845
 1828ntf    on515267   2.571   1.683   6.475  0.0257 -0.0729  0.4189
 1828ntf    fn415268   2.616   1.868   6.714 -0.0367  0.0157 -0.8336
 1828ntf    fn415269   2.527   1.721   6.843 -0.3183 -0.1701 -0.2028
 1828ntf    fn415270   2.701   1.670   6.749  0.1533  0.3307 -0.3326
 1829ntf    cn115271   3.817   3.944   4.375  0.4583 -0.5278 -0.5454
 1829ntf    sn215272   3.709   3.804   4.331 -0.2022 -0.1805 -0.0564
 1829ntf    nn315273   3.642   3.773   4.469 -0.0729 -0.5649 -0.0795
 1829ntf    sn215274   3.494   3.785   4.519 -0.0541  0.1536 -0.1836
 1829ntf    cn115275   3.452   3.608   4.526  0.1343  0.0970 -0.4591
 1829ntf    fn415276   3.890   3.914   4.481 -0.0785 -0.3510 -0.1175
 1829ntf    fn415277   3.906   3.969   4.281  0.3948 -0.3864 -0.5682
 1829ntf    fn415278   3.746   4.053   4.401  0.0542 -0.8839 -0.1301
 1829ntf    on515279   3.629   3.860   4.224 -0.2543  0.3914  0.2778
 1829ntf    on515280   3.806   3.704   4.294 -0.1341  0.1468 -0.7780
 1829ntf    on515281   3.396   3.834   4.425 -0.1629  0.1965 -0.0485
 1829ntf    on515282   3.480   3.833   4.654  0.1513  0.5124 -0.2912
 1829ntf    fn415283   3.470   3.540   4.414 -0.0485  0.0405 -0.4556
 1829ntf    fn415284   3.527   3.557   4.623  0.0748 -0.0876 -0.5094
 1829ntf    fn415285   3.327   3.588   4.567  0.1309 -0.1624 -0.5925
 1830ntf    cn115286   0.863   3.009   3.509  0.0479  0.1234  0.2046
 1830ntf    sn215287   0.909   3.022   3.685  0.2979  0.2526  0.1299
 1830ntf    nn315288   1.020   3.133   3.678  0.8054 -0.2570 -0.0030
 1830ntf    sn215289   1.009   3.280   3.730  0.2482 -0.2491 -0.1283
 1830ntf    cn115290   1.165   3.340   3.657 -0.1326  0.3057 -0.4966
 1830ntf    fn415291   0.965   2.979   3.431 -0.6315 -0.5855 -0.4253
 1830ntf    fn415292   0.775   2.913   3.489 -0.4002  0.3375  1.0913
 1830ntf    fn415293   0.802   3.113   3.455 -0.1998 -0.3202 -0.3762
 1830ntf    on515294   0.781   3.061   3.737 -0.0581  0.3553 -0.7934
 1830ntf    on515295   0.957   2.890   3.719 -0.1487  0.0444 -0.0327
 1830ntf    on515296   1.042   3.299   3.869  0.4115  0.2915 -0.2365
 1830ntf    on515297   0.908   3.360   3.665  0.2533 -0.7627 -0.7709
 1830ntf    fn415298   1.182   3.469   3.679  0.4857  0.2320 -0.5172
 1830ntf    fn415299   1.268   3.284   3.719 -0.3744 -0.5551 -0.8434
 1830ntf    fn415300   1.171   3.312   3.527 -0.1170 -0.0041 -0.4317
 1831ntf    cn115301   2.589   4.898   0.594 -0.2106  0.4620  0.0597
 1831ntf    sn215302   2.434   4.919   0.687 -0.1756 -0.0119  0.2278
 1831ntf    nn315303   2.331   4.897   0.571  0.1431 -0.7634  0.0793
 1831ntf    sn215304   2.195   4.817   0.576  0.0514 -0.5970  0.2778
 1831ntf    cn115305   2.260   4.648   0.558  0.4569 -0.4493  0.3352
 1831ntf    fn415306   2.592   4.975   0.487  0.4126  0.3067 -0.0345
 1831ntf    fn415307   2.697   4.931   0.663 -0.1656  0.8085 -0.1762
 1831ntf    fn415308   2.611   4.777   0.545  0.2002  0.2907  0.6579
 1831ntf    on515309   2.442   4.821   0.793  0.1807  0.3370  0.5274
 1831ntf    on515310   2.436   5.059   0.719 -0.1718  0.1814 -0.6164
 1831ntf    on515311   2.121   4.841   0.454  0.1988 -0.2615  0.2516
 1831ntf    on515312   2.115   4.812   0.695  0.4692  0.2268  0.6046
 1831ntf    fn415313   2.161   4.560   0.560  0.1704 -0.1307  0.4212
 1831ntf    fn415314   2.324   4.631   0.444 -0.1010 -0.1803 -0.0226
 1831ntf    fn415315   2.344   4.616   0.655  0.2084 -1.3816  0.2484
 1832ntf    cn115316   1.809   0.132   5.706  0.1837 -0.2542 -0.2452
 1832ntf    sn215317   1.633   0.103   5.739  0.2213 -0.0800  0.1137
 1832ntf    nn315318   1.576   0.229   5.664  0.0683 -0.3315 -0.1968
 1832ntf    sn215319   1.508   0.232   5.523  0.2527 -0.4997 -0.2889
 1832ntf    cn115320   1.429   0.394   5.543  0.5189 -0.4140  0.0714
 1832ntf    fn415321   1.844   0.256   5.734 -0.6891 -0.1015  0.1897
 1832ntf    fn415322   1.877   0.045   5.779  0.3715 -0.0942 -0.2297
 1832ntf    fn415323   1.845   0.121   5.579 -0.2686  0.0587 -0.4038
 1832ntf    on515324   1.610  -0.025   5.677 -0.0946  0.0987 -0.1460
 1832ntf    on515325   1.618   0.108   5.882  0.4453  0.0791  0.1311
 1832ntf    on515326   1.397   0.140   5.508 -0.0150 -0.1965 -0.1822
 1832ntf    on515327   1.601   0.249   5.414  0.1401  0.3247 -0.2603
 1832ntf    fn415328   1.506   0.498   5.573 -0.2065  0.3358 -0.5836
 1832ntf    fn415329   1.372   0.427   5.428  1.1926 -0.1840 -0.2043
 1832ntf    fn415330   1.335   0.404   5.635  0.7672 -0.0967  0.2935
 1833ntf    cn115331   6.078   1.496   6.506 -0.1207  0.1612  0.3471
 1833ntf    sn215332   6.082   1.326   6.441  0.0017  0.3524 -0.1498
 1833ntf    nn315333   5.928   1.296   6.427  0.0893 -0.0973 -0.1333
 1833ntf    sn215334   5.825   1.238   6.531 -0.1222  0.3063 -0.1190
 1833ntf    cn115335   5.678   1.321   6.463  0.0070  0.7023  0.0781
 1833ntf    fn415336   6.198   1.549   6.526  0.0670 -0.0935 -0.0696
 1833ntf    fn415337   6.007   1.577   6.429  0.2990  0.1528 -0.0561
 1833ntf    fn415338   6.016   1.509   6.621 -0.4603  0.0228  0.1805
 1833ntf    on515339   6.140   1.337   6.309 -0.3227 -0.1369 -0.3340
 1833ntf    on515340   6.149   1.241   6.535 -0.2522  0.1559 -0.1473
 1833ntf    on515341   5.822   1.293   6.664 -0.5396  0.1316 -0.0568
 1833ntf    on515342   5.790   1.099   6.516 -0.1419  0.3203 -0.2023
 1833ntf    fn415343   5.678   1.451   6.489  0.3220  0.5053  1.1140
 1833ntf    fn415344   5.651   1.302   6.335  0.4373 -0.3246  0.1307
 1833ntf    fn415345   5.576   1.276   6.534  0.0748  0.2003 -0.1371
 1834ntf    cn115346   5.717   3.765   0.816 -0.0345  0.2510 -0.0967
 1834ntf    sn215347   5.744   3.805   0.992  0.3528 -0.1638 -0.0594
 1834ntf    nn315348   5.786   3.954   0.971 -0.4733  0.0424 -0.3006
 1834ntf    sn215349   5.853   4.047   1.079 -0.4050  0.0854 -0.3790
 1834ntf    cn115350   5.711   4.097   1.181 -0.1539 -0.0505  0.0355
 1834ntf    fn415351   5.808   3.825   0.741 -0.0345  0.1652 -0.1648
 1834ntf    fn415352   5.727   3.635   0.791  0.1838  0.2225  0.1312
 1834ntf    fn415353   5.599   3.814   0.784  0.2008  0.4986 -0.5914
 1834ntf    on515354   5.614   3.778   1.049  0.3722  0.7994  0.4590
 1834ntf    on515355   5.853   3.721   1.036  0.1430 -0.2796  0.2390
 1834ntf    on515356   5.900   4.171   1.021  0.7096 -0.0319  0.2484
 1834ntf    on515357   5.940   3.977   1.170  0.0619  0.0941 -0.8113
 1834ntf    fn415358   5.611   4.145   1.110  0.1909  0.4475 -0.1217
 1834ntf    fn415359   5.663   3.995   1.250 -0.1072  0.1968  0.4401
 1834ntf    fn415360   5.747   4.185   1.274  0.0970  0.0779 -0.1821
 1835ntf    cn115361   1.254   1.050   3.958 -0.1111 -0.0676 -0.0966
 1835ntf    sn215362   1.123   1.119   4.063 -0.3048 -0.3162 -0.1739
 1835ntf    nn315363   0.994   1.077   3.984 -0.1049 -0.6846 -0.3046
 1835ntf    sn215364   0.912   1.158   3.878  0.0294 -0.0611  0.0686
 1835ntf    cn115365   0.801   1.245   3.992  0.1083  0.3766 -0.1847
 1835ntf    fn415366   1.245   0.919   3.945 -0.0196 -0.1198  0.3623
 1835ntf    fn415367   1.255   1.107   3.838  0.3439 -0.2435 -0.1780
 1835ntf    fn415368   1.373   1.073   4.012  0.0623 -1.0318 -0.0537
 1835ntf    on515369   1.141   1.047   4.187  0.4530  0.0024 -0.0932
 1835ntf    on515370   1.148   1.261   4.056  0.4679 -0.4332  0.0518
 1835ntf    on515371   0.818   1.071   3.813  0.3392 -0.5233  0.2388
 1835ntf    on515372   0.969   1.269   3.805  0.0354 -0.1935 -0.1260
 1835ntf    fn415373   0.843   1.287   4.111  0.3777 -0.0360 -0.1345
 1835ntf    fn415374   0.738   1.348   3.937 -0.3373  0.4663  0.4793
 1835ntf    fn415375   0.706   1.154   4.007  0.7419 -0.2108  0.3626
 1836ntf    cn115376   3.062   6.147   4.605 -0.4599 -0.2184 -0.1267
 1836ntf    sn215377   3.231   6.099   4.651 -0.4699 -0.3201 -0.1972
 1836ntf    nn315378   3.322   6.157   4.537 -0.6429  0.5597  0.1068
 1836ntf    sn215379   3.443   6.257   4.554 -0.0013 -0.1995  0.0748
 1836ntf    cn115380   3.525   6.221   4.395 -0.4545 -0.2042 -0.1607
 1836ntf    fn415381   3.034   6.101   4.485 -0.2611  0.2249 -0.3463
 1836ntf    fn415382   2.964   6.105   4.683 -0.5785  0.1579 -0.0713
 1836ntf    fn415383   3.041   6.278   4.596  0.7091 -0.0227 -0.2410
 1836ntf    on515384   3.252   6.156   4.781 -0.4293  0.4074 -0.5167
 1836ntf    on515385   3.238   5.955   4.646  0.1549 -0.3170  0.3857
 1836ntf    on515386   3.544   6.220   4.649 -0.3529 -0.4778  0.3449
 1836ntf    on515387   3.403   6.395   4.549  0.7573  0.0273  0.1897
 1836ntf    fn415388   3.610   6.316   4.359 -0.0870 -0.2184  0.6401
 1836ntf    fn415389   3.597   6.112   4.414  0.5650  0.5689  0.5654
 1836ntf    fn415390   3.442   6.198   4.295 -0.1779 -0.3699 -0.3518
 1837ntf    cn115391   5.438   4.539   2.047  0.3345 -0.0141 -0.0077
 1837ntf    sn215392   5.490   4.518   1.874 -0.0340  0.3106 -0.1591
 1837ntf    nn315393   5.646   4.506   1.891 -0.1235  0.3344  0.7259
 1837ntf    sn215394   5.728   4.374   1.910 -0.3667  0.0620 -0.0473
 1837ntf    cn115395   5.881   4.431   1.991 -0.2750 -0.1298 -0.0853
 1837ntf    fn415396   5.514   4.635   2.097 -0.1315  0.3521 -0.0076
 1837ntf    fn415397   5.315   4.586   2.050  0.1407 -0.4552 -0.6743
 1837ntf    fn415398   5.464   4.439   2.130  0.0744 -0.0568  0.0209
 1837ntf    on515399   5.424   4.396   1.834 -0.4626  0.3371  0.4697
 1837ntf    on515400   5.443   4.634   1.803 -0.5966  0.2483  0.1060
 1837ntf    on515401   5.779   4.321   1.786  0.3952 -0.0903  0.3260
 1837ntf    on515402   5.672   4.284   2.008 -0.0035 -0.2019 -0.0804
 1837ntf    fn415403   5.961   4.475   1.895  0.0781 -0.1228  0.2099
 1837ntf    fn415404   5.862   4.532   2.074  0.0711 -0.2692  0.1656
 1837ntf    fn415405   5.938   4.338   2.066  0.5943  0.0023 -0.5707
 1838ntf    cn115406   6.714   5.739   4.668  0.4406  0.2362 -0.1543
 1838ntf    sn215407   6.672   5.892   4.581  0.3732  0.2812 -0.0451
 1838ntf    nn315408   6.602   5.848   4.447  0.3348  0.1002  0.0352
 1838ntf    sn215409   6.452   5.807   4.429  0.4088 -0.2843  0.2753
 1838ntf    cn115410   6.379   5.946   4.338 -0.0254 -0.4678  0.3412
 1838ntf    fn415411   6.612   5.681   4.729  0.5483 -0.0501 -0.2428
 1838ntf    fn415412   6.748   5.653   4.574  0.3426 -0.4045  0.3873
 1838ntf    fn415413   6.811   5.756   4.757  0.0432  0.1350  0.3006
 1838ntf    on515414   6.584   5.964   4.669  0.5298  0.4116  0.0070
 1838ntf    on515415   6.792   5.967   4.552  0.3520  0.1510 -0.4790
 1838ntf    on515416   6.371   5.793   4.547 -0.3879  0.4245 -0.1708
 1838ntf    on515417   6.435   5.703   4.330 -0.0889 -0.0396  0.0951
 1838ntf    fn415418   6.372   6.055   4.413 -0.0235 -0.4502  0.3167
 1838ntf    fn415419   6.439   5.977   4.224 -0.0643  0.0681  0.4623
 1838ntf    fn415420   6.256   5.911   4.303 -0.1009 -0.1052  0.2304
 1839ntf    cn115421   1.482   2.191   1.373  0.5905  0.0549 -0.2012
 1839ntf    sn215422   1.601   2.085   1.285  0.0839 -0.2894 -0.4731
 1839ntf    nn315423   1.613   1.964   1.385 -0.0865 -0.0138 -0.1164
 1839ntf    sn215424   1.735   1.893   1.453 -0.0351 -0.1296 -0.3272
 1839ntf    cn115425   1.711   1.967   1.618 -0.2499  0.0243 -0.4272
 1839ntf    fn415426   1.375   2.126   1.415  0.8040  0.0855  0.3949
 1839ntf    fn415427   1.535   2.248   1.480  0.1017 -0.1646  0.1658
 1839ntf    fn415428   1.429   2.283   1.294  0.3614  0.1110  0.0163
 1839ntf    on515429   1.534   2.037   1.166  0.0634 -0.3021 -0.4565
 1839ntf    on515430   1.710   2.178   1.280 -0.5776  0.5680  0.6008
 1839ntf    on515431   1.863   1.942   1.410 -0.2311  0.2938 -0.4297
 1839ntf    on515432   1.722   1.752   1.482  0.1669  0.0292  0.5795
 1839ntf    fn415433   1.801   1.926   1.705  0.0351 -0.2127 -0.8284
 1839ntf    fn415434   1.712   2.099   1.615  0.0278  0.0326  0.0241
 1839ntf    fn415435   1.599   1.927   1.675  0.1630 -0.3403  0.1370
 1840ntf    cn115436   1.240   2.778   5.626 -0.7176  0.1451 -0.0962
 1840ntf    sn215437   1.179   2.618   5.564 -0.2213 -0.0580 -0.0606
 1840ntf    nn315438   1.132   2.659   5.420 -0.3940  0.7072  0.2046
 1840ntf    sn215439   1.010   2.599   5.341 -0.0237  0.3064 -0.0717
 1840ntf    cn115440   1.035   2.420   5.358  0.1535  0.3255 -0.1298
 1840ntf    fn415441   1.329   2.827   5.541 -0.1350 -0.1967  0.3072
 1840ntf    fn415442   1.141   2.866   5.634 -0.5918  0.3171 -0.3851
 1840ntf    fn415443   1.294   2.776   5.747 -0.2466 -0.6366 -0.3140
 1840ntf    on515444   1.289   2.525   5.568  0.1768  0.4186  0.2590
 1840ntf    on515445   1.062   2.592   5.643 -0.3652 -0.0048 -0.2563
 1840ntf    on515446   1.017   2.621   5.198 -0.0198 -0.0372 -0.1260
 1840ntf    on515447   0.887   2.643   5.401  0.0504 -0.0573  0.3493
 1840ntf    fn415448   0.946   2.346   5.293 -0.2421  0.8503 -0.1940
 1840ntf    fn415449   1.151   2.377   5.310  0.0516 -0.0226 -0.0611
 1840ntf    fn415450   1.019   2.370   5.479  0.1330  0.2165 -0.1776
 1841ntf    cn115451   5.590   6.281   3.347  0.2684 -0.1954 -0.1430
 1841ntf    sn215452   5.561   6.356   3.184 -0.2138 -0.0179  0.0204
 1841ntf    nn315453   5.658   6.272   3.093 -0.1209 -0.0436  0.1433
 1841ntf    sn215454   5.795   6.322   3.034 -0.1065  0.1080  0.3028
 1841ntf    cn115455   5.798   6.223   2.881  0.4520  0.5003  0.0560
 1841ntf    fn415456   5.498   6.326   3.431  0.3545  0.0374 -0.1720
 1841ntf    fn415457   5.577   6.150   3.352 -0.2037 -0.1537 -0.1774
 1841ntf    fn415458   5.711   6.310   3.392  0.1828  0.3870 -0.2819
 1841ntf    on515459   5.431   6.305   3.149  0.2307 -0.8871 -0.4142
 1841ntf    on515460   5.576   6.498   3.203  0.0736 -0.1239  0.6199
 1841ntf    on515461   5.913   6.275   3.102  0.0979 -0.3099 -0.3284
 1841ntf    on515462   5.796   6.456   2.981 -0.5064  0.1769  0.4648
 1841ntf    fn415463   5.813   6.091   2.890 -0.1068  0.4358  0.0780
 1841ntf    fn415464   5.686   6.243   2.814  0.3281  0.1009  0.1380
 1841ntf    fn415465   5.897   6.263   2.803  0.7344 -0.5359 -0.1409
 1842ntf    cn115466   0.300   2.303   3.120  0.0394  0.0012  0.1054
 1842ntf    sn215467   0.291   2.165   3.003  0.0228  0.1343 -0.0509
 1842ntf    nn315468   0.389   2.064   3.073  0.0876  0.1417 -0.1311
 1842ntf    sn215469   0.534   2.019   3.034  0.1059  0.1114 -0.0265
 1842ntf    cn115470   0.630   2.033   3.189 -0.3168  0.1964  0.2304
 1842ntf    fn415471   0.416   2.365   3.105 -0.2990  0.5260 -0.3795
 1842ntf    fn415472   0.209   2.397   3.100  0.1239  0.0637  0.0143
 1842ntf    fn415473   0.278   2.278   3.248  0.2321 -0.1119  0.1182
 1842ntf    on515474   0.154   2.121   3.020  0.0537  0.3304  0.7389
 1842ntf    on515475   0.345   2.207   2.876 -0.0023  0.1047 -0.0717
 1842ntf    on515476   0.597   2.108   2.939 -0.1311 -0.0668 -0.3496
 1842ntf    on515477   0.531   1.879   2.998 -0.7839  0.1245 -0.0268
 1842ntf    fn415478   0.738   1.958   3.201 -0.4511 -0.0602 -0.1128
 1842ntf    fn415479   0.659   2.161   3.201  0.4167  0.0492  0.0575
 1842ntf    fn415480   0.557   1.997   3.293  0.3645 -0.1549  0.5934
 1843ntf    cn115481   4.530   0.057   4.263  0.0174  0.0466 -0.0167
 1843ntf    sn215482   4.382   0.004   4.172  0.0102  0.0388  0.0004
 1843ntf    nn315483   4.372  -0.141   4.230  0.2872 -0.0115 -0.0760
 1843ntf    sn215484   4.284  -0.206   4.343  0.3403 -0.1015 -0.0867
 1843ntf    cn115485   4.276  -0.380   4.291  0.5229 -0.1370  0.0017
 1843ntf    fn415486   4.520   0.063   4.395  0.2275  0.0203  0.0004
 1843ntf    fn415487   4.636  -0.018   4.240 -0.2890 -0.5201  0.3790
 1843ntf    fn415488   4.565   0.178   4.221  0.2954  0.0647  0.2715
 1843ntf    on515489   4.271   0.090   4.204 -0.3545 -0.4956  0.1840
 1843ntf    on515490   4.431   0.004   4.036 -0.3987  0.0318 -0.1504
 1843ntf    on515491   4.147  -0.161   4.349  0.5072  0.3800  0.1536
 1843ntf    on515492   4.357  -0.208   4.468  0.4578  0.7067 -0.1360
 1843ntf    fn415493   4.387  -0.450   4.312  0.0885 -0.5607  0.9258
 1843ntf    fn415494   4.178  -0.431   4.364  0.3720  0.4784  0.2376
 1843ntf    fn415495   4.238  -0.390   4.165 -0.1647 -0.2821  0.2169
 1844ntf    cn115496   5.631   6.109   4.108  0.3009 -0.0750 -0.1887
 1844ntf    sn215497   5.723   6.256   4.163  0.0137  0.0084  0.0649
 1844ntf    nn315498   5.668   6.279   4.309 -0.5013 -0.2545 -0.0848
 1844ntf    sn215499   5.711   6.212   4.444  0.2338  0.2092 -0.0819
 1844ntf    cn115500   5.586   6.084   4.475  0.3526  0.0778 -0.1469
 1844ntf    fn415501   5.514   6.097   4.168  0.3023 -0.1731 -0.2057
 1844ntf    fn415502   5.609   6.116   3.978 -0.3250 -0.2760 -0.0925
 1844ntf    fn415503   5.693   5.995   4.132  0.3506  0.0419  0.2494
 1844ntf    on515504   5.862   6.221   4.152 -0.1199 -0.7364  0.6596
 1844ntf    on515505   5.677   6.364   4.079  0.8644  0.5649  0.3063
 1844ntf    on515506   5.694   6.302   4.555  0.2793 -0.2482  0.3013
 1844ntf    on515507   5.835   6.140   4.429  0.1457  0.0799 -0.1948
 1844ntf    fn415508   5.601   5.983   4.390 -0.0149  0.1048 -0.2472
 1844ntf    fn415509   5.598   6.038   4.598 -0.4927 -0.4873 -0.2653
 1844ntf    fn415510   5.464   6.134   4.462  0.0721 -0.4039  0.5667
 1845ntf    cn115511   2.458   3.863   5.553  0.1410  0.2002  0.2982
 1845ntf    sn215512   2.294   3.909   5.488 -0.0102 -0.5551  0.1289
 1845ntf    nn315513   2.260   3.756   5.479 -0.4847 -0.4316 -0.1474
 1845ntf    sn215514   2.186   3.670   5.588 -0.4431  0.2874  0.4546
 1845ntf    cn115515   2.131   3.534   5.480  0.5507  0.1168  0.1520
 1845ntf    fn415516   2.450   3.868   5.685  0.2925 -0.0850  0.3201
 1845ntf    fn415517   2.497   3.739   5.524 -0.4432  0.1622 -0.3469
 1845ntf    fn415518   2.554   3.948   5.522  0.5653 -0.4437 -0.1936
 1845ntf    on515519   2.248   3.990   5.598 -0.7075 -0.0370 -0.5368
 1845ntf    on515520   2.319   3.973   5.361 -0.6624  0.0781  0.3140
 1845ntf    on515521   2.062   3.727   5.635 -0.6617  0.2156 -0.0270
 1845ntf    on515522   2.275   3.600   5.676  0.4546 -0.0073 -0.6657
 1845ntf    fn415523   2.214   3.511   5.379 -0.1679  0.1338 -0.4487
 1845ntf    fn415524   2.123   3.421   5.548 -0.1081 -0.1093 -0.2959
 1845ntf    fn415525   2.013   3.550   5.422  0.4793  0.0336  0.2764
 1846ntf    cn115526   6.527   5.295   0.025 -0.0431  0.0006 -0.0473
 1846ntf    sn215527   6.360   5.315  -0.045 -0.0756  0.0476  0.0431
 1846ntf    nn315528   6.376   5.226  -0.173  0.1279  0.1357  0.0056
 1846ntf    sn215529   6.274   5.123  -0.234  0.4117 -0.3346  0.3129
 1846ntf    cn115530   6.323   4.975  -0.141 -0.3824 -0.5344  0.4265
 1846ntf    fn415531   6.551   5.170   0.061 -0.0719 -0.0945 -0.3571
 1846ntf    fn415532   6.613   5.329  -0.070 -0.2659 -0.0432 -0.2661
 1846ntf    fn415533   6.549   5.368   0.133  0.3856 -0.1553 -0.0292
 1846ntf    on515534   6.288   5.255   0.064 -0.0890 -0.0979 -0.0465
 1846ntf    on515535   6.345   5.453  -0.084 -0.0993  0.0229 -0.0373
 1846ntf    on515536   6.303   5.085  -0.370 -0.7571  0.0485 -0.0617
 1846ntf    on515537   6.136   5.143  -0.197  0.4802  0.4122  0.1945
 1846ntf    fn415538   6.448   4.944  -0.172 -0.4015  0.1459 -0.3608
 1846ntf    fn415539   6.321   4.987  -0.009 -0.1206 -0.4680  0.4255
 1846ntf    fn415540   6.251   4.869  -0.172 -0.3219 -0.3836 -0.2398
 1847ntf    cn115541   2.471   5.121   3.464 -0.0751 -0.0931 -0.1327
 1847ntf    sn215542   2.582   5.265   3.450  0.2960 -0.3578  0.0628
 1847ntf    nn315543   2.661   5.227   3.320  0.2319 -0.0582 -0.0647
 1847ntf    sn215544   2.587   5.199   3.184  0.2026  0.3004 -0.1228
 1847ntf    cn115545   2.698   5.257   3.053  0.2617  0.1638 -0.1330
 1847ntf    fn415546   2.551   5.016   3.469  0.1004  0.0286 -0.3344
 1847ntf    fn415547   2.396   5.126   3.573 -0.2798  0.5365 -0.2966
 1847ntf    fn415548   2.389   5.095   3.364  0.0132  0.8018 -0.4485
 1847ntf    on515549   2.507   5.388   3.439  0.6680 -0.1389 -0.0374
 1847ntf    on515550   2.663   5.254   3.568 -0.0060 -0.5705  0.2507
 1847ntf    on515551   2.466   5.275   3.162 -0.1672 -0.3140 -0.2228
 1847ntf    on515552   2.582   5.058   3.157 -0.8400  0.3980 -0.4722
 1847ntf    fn415553   2.692   5.387   3.030  0.4944  0.1245 -0.4360
 1847ntf    fn415554   2.823   5.231   3.088  0.1061 -0.1910  0.1603
 1847ntf    fn415555   2.680   5.198   2.936 -0.1797 -0.1241  0.0794
 1848ntf    cn115556   4.455   6.010   4.082  0.3270 -0.2188 -0.0764
 1848ntf    sn215557   4.327   5.881   4.092 -0.0135  0.1393  0.1669
 1848ntf    nn315558   4.198   5.970   4.098  0.1786  0.4029  0.4222
 1848ntf    sn215559   4.100   5.984   4.220 -0.3034 -0.3017  0.1197
 1848ntf    cn115560   3.995   6.115   4.148 -0.1332 -0.0536  0.3231
 1848ntf    fn415561   4.453   6.083   4.192  0.0262  0.0206 -0.2395
 1848ntf    fn415562   4.580   5.966   4.068  0.6109  0.5461  0.0175
 1848ntf    fn415563   4.437   6.093   3.981 -0.1858  0.2085  0.3635
 1848ntf    on515564   4.333   5.809   3.967  0.4197  0.3461  0.0679
 1848ntf    on515565   4.359   5.808   4.212 -0.3525  0.0946  0.2297
 1848ntf    on515566   4.143   6.062   4.333 -0.0828  0.1737 -0.2867
 1848ntf    on515567   4.005   5.877   4.239 -0.6816  0.2195  1.2257
 1848ntf    fn415568   3.933   6.078   4.038  0.0223 -0.0359  0.2294
 1848ntf    fn415569   3.900   6.160   4.228 -0.3498 -0.2821  0.1949
 1848ntf    fn415570   4.066   6.219   4.108 -0.2195 -0.0692  0.1292
 1849ntf    cn115571   3.154   2.830   6.737  0.0460  0.0503 -0.1464
 1849ntf    sn215572   3.289   2.801   6.855 -0.0369 -0.2714 -0.1295
 1849ntf    nn315573   3.217   2.774   6.992 -0.3618 -0.1912 -0.2823
 1849ntf    sn215574   3.169   2.878   7.099  0.1692 -0.1198 -0.1091
 1849ntf    cn115575   3.306   2.858   7.217  0.0333 -0.0696  0.0579
 1849ntf    fn415576   3.084   2.937   6.772 -0.1558 -0.2504  0.3843
 1849ntf    fn415577   3.201   2.848   6.614  0.3219  0.5428  0.0297
 1849ntf    fn415578   3.072   2.726   6.732  0.0960  0.0129 -0.1937
 1849ntf    on515579   3.354   2.684   6.801 -0.1131 -0.4206  0.0993
 1849ntf    on515580   3.360   2.926   6.845  0.2861 -0.4268  0.2351
 1849ntf    on515581   3.054   2.837   7.176 -0.0097  0.5455 -0.0131
 1849ntf    on515582   3.167   3.019   7.067 -0.2326 -0.2003 -0.4483
 1849ntf    fn415583   3.309   2.964   7.296 -0.1811 -0.0695  0.0665
 1849ntf    fn415584   3.317   2.742   7.281  0.4455  0.1168  0.3291
 1849ntf    fn415585   3.427   2.860   7.163 -0.1928 -0.1362 -0.4557
 1850ntf    cn115586   2.618   1.338   3.549  0.2489  0.0602  0.1049
 1850ntf    sn215587   2.591   1.470   3.671  0.1143 -0.1984  0.3596
 1850ntf    nn315588   2.695   1.578   3.624 -0.2363 -0.2634 -0.5807
 1850ntf    sn215589   2.665   1.686   3.513 -0.1163  0.6464  0.2577
 1850ntf    cn115590   2.619   1.820   3.627 -0.3212  0.3035  0.5811
 1850ntf    fn415591   2.580   1.371   3.427  0.1519  0.2147  0.1754
 1850ntf    fn415592   2.746   1.308   3.536  0.1782 -0.1731 -0.0549
 1850ntf    fn415593   2.553   1.226   3.579  0.1057  0.2840  0.6484
 1850ntf    on515594   2.449   1.494   3.667  0.1968  0.2853  0.1026
 1850ntf    on515595   2.639   1.410   3.793  0.7170  0.0675  0.2596
 1850ntf    on515596   2.543   1.672   3.438 -0.3235 -0.0015  0.7023
 1850ntf    on515597   2.781   1.739   3.446 -0.2128  0.2028 -0.2729
 1850ntf    fn415598   2.502   1.790   3.681 -0.1923  0.1608  0.7836
 1850ntf    fn415599   2.708   1.832   3.723  0.2768  0.3906  0.0235
 1850ntf    fn415600   2.607   1.935   3.562 -0.1572 -0.1392 -0.2492
 1851ntf    cn115601   6.305   3.177   5.028 -0.0432  0.5379  0.0118
 1851ntf    sn215602   6.226   3.140   4.868 -0.1368 -0.0991  0.2022
 1851ntf    nn315603   6.324   3.042   4.794 -0.2444  0.2780 -0.4527
 1851ntf    sn215604   6.434   3.078   4.688  0.0929  0.2120 -0.1279
 1851ntf    cn115605   6.428   2.936   4.574 -0.1593  0.0161  0.1261
 1851ntf    fn415606   6.333   3.070   5.099  0.0433  0.1495 -0.5994
 1851ntf    fn415607   6.419   3.242   5.013  0.2552  0.0974  0.3562
 1851ntf    fn415608   6.221   3.257   5.093 -1.1018 -0.5959  0.0676
 1851ntf    on515609   6.107   3.071   4.908 -0.0186 -0.3879  0.0585
 1851ntf    on515610   6.201   3.268   4.806 -0.5373 -0.4788 -0.4357
 1851ntf    on515611   6.568   3.088   4.739 -0.0017  0.4616  0.0728
 1851ntf    on515612   6.388   3.179   4.596 -0.3544  0.0618 -0.0740
 1851ntf    fn415613   6.460   2.826   4.640  0.1779  0.0272 -0.0169
 1851ntf    fn415614   6.307   2.921   4.525  0.0616  0.2143 -0.4937
 1851ntf    fn415615   6.517   2.947   4.476 -0.1359 -0.4909  0.0914
 1852ntf    cn115616   3.249   5.738   1.039 -0.3458  0.0229 -0.3846
 1852ntf    sn215617   3.375   5.861   1.083 -0.1901 -0.1351 -0.3859
 1852ntf    nn315618   3.436   5.892   0.941  0.1192 -0.1507 -0.2582
 1852ntf    sn215619   3.351   5.944   0.820  0.0019  0.4188  0.0621
 1852ntf    cn115620   3.485   6.039   0.743  0.0111  0.3471 -0.0103
 1852ntf    fn415621   3.184   5.696   1.146  0.0673 -1.3725 -0.6576
 1852ntf    fn415622   3.160   5.787   0.955 -0.6449 -0.4728 -0.3622
 1852ntf    fn415623   3.305   5.632   0.982  0.0516  0.1270 -0.1974
 1852ntf    on515624   3.296   5.967   1.140 -0.2572 -0.4904  0.1920
 1852ntf    on515625   3.462   5.779   1.164  0.0102  0.1642 -0.2949
 1852ntf    on515626   3.250   6.044   0.846 -0.1349  0.2431  0.2122
 1852ntf    on515627   3.316   5.840   0.726 -0.1435  0.5019  0.0228
 1852ntf    fn415628   3.547   6.125   0.821 -0.1229  0.2149  0.2425
 1852ntf    fn415629   3.581   5.953   0.711  0.1641  0.5965 -0.2213
 1852ntf    fn415630   3.451   6.100   0.631  0.0743  0.0779 -0.1789
 1853ntf    cn115631   0.967   4.905   3.559  0.0765 -0.0350 -0.2373
 1853ntf    sn215632   0.823   4.832   3.475 -0.0223 -0.2710  0.1331
 1853ntf    nn315633   0.709   4.923   3.533 -0.2223 -0.5227  0.1356
 1853ntf    sn215634   0.555   4.934   3.501 -0.0492  0.3841 -0.4329
 1853ntf    cn115635   0.484   4.841   3.640  0.2247  0.1628 -0.4386
 1853ntf    fn415636   0.970   4.883   3.690 -0.1033 -0.3957 -0.2910
 1853ntf    fn415637   1.078   4.851   3.511  0.3757  0.6002 -0.2659
 1853ntf    fn415638   0.980   5.036   3.548 -0.1026 -0.0322 -0.4278
 1853ntf    on515639   0.852   4.854   3.335  0.3295 -0.1962  0.2170
 1853ntf    on515640   0.847   4.698   3.523  0.1591 -0.1834  0.2923
 1853ntf    on515641   0.512   4.866   3.381  0.0409 -0.3927 -0.0366
 1853ntf    on515642   0.497   5.065   3.515 -0.1091  0.2990  0.1197
 1853ntf    fn415643   0.489   4.894   3.761  0.2642 -0.5453 -0.1259
 1853ntf    fn415644   0.358   4.811   3.611  0.0999  0.4237 -0.1742
 1853ntf    fn415645   0.545   4.724   3.650  0.4629  0.3443  0.2907
 1854ntf    cn115646   1.932   1.370   2.477 -0.1210 -0.1195 -0.3084
 1854ntf    sn215647   1.786   1.341   2.372 -0.3522  0.3096 -0.1094
 1854ntf    nn315648   1.682   1.331   2.489 -0.3996  0.4583 -0.1392
 1854ntf    sn215649   1.575   1.220   2.521 -0.0121  0.1310  0.0340
 1854ntf    cn115650   1.685   1.101   2.603  0.0656  0.0831 -0.1399
 1854ntf    fn415651   2.048   1.379   2.415 -0.0636 -0.0472 -0.1914
 1854ntf    fn415652   1.911   1.483   2.542  0.4285 -0.2485  0.1004
 1854ntf    fn415653   1.957   1.269   2.560  0.0129  0.2005  0.0420
 1854ntf    on515654   1.769   1.466   2.302 -0.1297  0.1609 -0.4317
 1854ntf    on515655   1.821   1.227   2.290  0.2509  0.3175  0.1279
 1854ntf    on515656   1.513   1.157   2.407 -0.0711 -0.0522  0.1689
 1854ntf    on515657   1.490   1.262   2.630  0.3078 -0.1339  0.3846
 1854ntf    fn415658   1.629   0.995   2.657  0.2043  0.2867  0.4037
 1854ntf    fn415659   1.776   1.054   2.518 -0.2068 -0.0733 -0.3465
 1854ntf    fn415660   1.752   1.160   2.701 -0.2503 -0.3919  0.3634
 1855ntf    cn115661   1.798   0.212   3.865  0.0527 -0.2832 -0.2761
 1855ntf    sn215662   1.681   0.264   3.736  0.0590  0.1264 -0.1199
 1855ntf    nn315663   1.748   0.197   3.611 -0.2877 -0.7181  0.1383
 1855ntf    sn215664   1.675   0.127   3.491 -0.1316  0.0455 -0.4115
 1855ntf    cn115665   1.651  -0.041   3.557  0.0335  0.2130  0.0742
 1855ntf    fn415666   1.773   0.267   3.983 -0.0735 -0.4057 -0.2464
 1855ntf    fn415667   1.785   0.081   3.876  0.0377 -0.2863 -0.3310
 1855ntf    fn415668   1.926   0.231   3.836  0.1548 -0.3611  0.1175
 1855ntf    on515669   1.554   0.205   3.771  0.2786 -0.0412  0.4026
 1855ntf    on515670   1.692   0.407   3.736 -0.5122  0.1831  1.0353
 1855ntf    on515671   1.757   0.105   3.374 -0.8625 -1.1147 -0.7217
 1855ntf    on515672   1.545   0.181   3.459 -0.4251 -0.3742  0.0584
 1855ntf    fn415673   1.624  -0.133   3.466  0.1446 -0.0700  0.3259
 1855ntf    fn415674   1.760  -0.087   3.617 -0.0439  0.1211  0.1443
 1855ntf    fn415675   1.552  -0.064   3.642 -0.2826  0.2226 -0.2875
 1856ntf    cn115676   3.678   0.330   2.532 -0.2985  0.3293  0.0391
 1856ntf    sn215677   3.670   0.178   2.433 -0.2251  0.2248  0.1957
 1856ntf    nn315678   3.821   0.133   2.435 -0.2735  0.0375 -0.2925
 1856ntf    sn215679   3.878  -0.012   2.416  0.2442  0.1926  0.0656
 1856ntf    cn115680   3.873  -0.069   2.589  0.1322 -0.1141 -0.0375
 1856ntf    fn415681   3.750   0.312   2.641 -0.1150  0.1043 -0.1185
 1856ntf    fn415682   3.731   0.433   2.468  0.0871  0.0036 -0.1668
 1856ntf    fn415683   3.557   0.374   2.564 -0.3612  0.2030 -0.0244
 1856ntf    on515684   3.575   0.107   2.515 -0.6855  0.2345 -0.3312
 1856ntf    on515685   3.626   0.237   2.309  0.2770 -0.0979 -0.1392
 1856ntf    on515686   4.015  -0.007   2.372  0.2796  0.5425  0.2122
 1856ntf    on515687   3.797  -0.095   2.331  0.2977 -0.0645  0.2636
 1856ntf    fn415688   3.941  -0.181   2.602 -0.0259 -0.2030  0.0302
 1856ntf    fn415689   3.936   0.013   2.672  0.0565 -0.3619  0.2657
 1856ntf    fn415690   3.752  -0.078   2.642  0.2497  0.5142  0.3472
 1857ntf    cn115691   1.209   1.993   3.794 -0.0975 -0.6707 -0.1586
 1857ntf    sn215692   1.098   2.063   3.669  0.1920 -0.1894 -0.1508
 1857ntf    nn315693   0.955   2.024   3.722 -0.4676  0.9089 -1.0648
 1857ntf    sn215694   0.849   1.926   3.662 -0.3303 -0.1259  0.3197
 1857ntf    cn115695   0.811   1.997   3.498  0.0801  0.0087  0.2831
 1857ntf    fn415696   1.330   2.043   3.774 -0.3977  0.0933 -0.0829
 1857ntf    fn415697   1.176   2.033   3.916  0.2220  0.2649 -0.3724
 1857ntf    fn415698   1.222   1.861   3.792 -0.0640 -0.6799  0.3563
 1857ntf    on515699   1.112   2.205   3.688 -0.1091 -0.1196 -0.4315
 1857ntf    on515700   1.139   1.999   3.546  0.1181  0.0537 -0.3021
 1857ntf    on515701   0.733   1.940   3.746 -0.2418 -0.2057  0.4539
 1857ntf    on515702   0.899   1.793   3.640  0.2653  0.0300  0.7316
 1857ntf    fn415703   0.782   2.126   3.498 -0.2026 -0.0541 -0.0566
 1857ntf    fn415704   0.906   1.979   3.408 -0.2574 -0.5613  0.0339
 1857ntf    fn415705   0.705   1.931   3.455  0.3301  0.2142 -0.6644
 1858ntf    cn115706   3.282   4.323   0.567  0.1196  0.1570 -0.2094
 1858ntf    sn215707   3.461   4.301   0.548  0.1495  0.2737 -0.0679
 1858ntf    nn315708   3.497   4.295   0.701 -0.0849 -0.6771 -0.0432
 1858ntf    sn215709   3.632   4.340   0.767 -0.0973 -0.4674 -0.1591
 1858ntf    cn115710   3.638   4.256   0.929 -0.1868 -0.3141 -0.0763
 1858ntf    fn415711   3.237   4.306   0.691  0.6536  0.0144 -0.0313
 1858ntf    fn415712   3.235   4.438   0.521 -0.0493 -0.0832 -0.6349
 1858ntf    fn415713   3.212   4.231   0.503  0.3299  0.0334 -0.2619
 1858ntf    on515714   3.478   4.174   0.482 -0.2583  0.0169  0.3203
 1858ntf    on515715   3.501   4.423   0.482  0.7729 -0.1885 -0.5582
 1858ntf    on515716   3.632   4.477   0.812  0.2437 -0.4497 -0.2078
 1858ntf    on515717   3.752   4.295   0.702  0.3342  0.2309  0.1401
 1858ntf    fn415718   3.565   4.303   1.029  0.8839  0.1386  0.5056
 1858ntf    fn415719   3.601   4.131   0.909 -0.0360 -0.3199 -0.3266
 1858ntf    fn415720   3.762   4.244   0.971 -0.1797  0.0112 -0.0004
 1859ntf    cn115721   1.810   1.038   4.888  0.3940 -0.3599  0.3956
 1859ntf    sn215722   1.631   1.052   4.921  0.4372  0.2276  0.3872
 1859ntf    nn315723   1.582   1.163   4.821 -0.1867 -0.3499  0.0481
 1859ntf    sn215724   1.492   1.150   4.693 -0.0720  0.0140 -0.0709
 1859ntf    cn115725   1.326   1.160   4.765 -0.0862  0.1205 -0.1184
 1859ntf    fn415726   1.877   1.148   4.920 -0.4440  0.2578  0.0804
 1859ntf    fn415727   1.862   0.938   4.957  0.3228 -0.1761  0.7177
 1859ntf    fn415728   1.827   1.013   4.759  0.2865  0.1938  0.2722
 1859ntf    on515729   1.580   0.920   4.894 -0.5841  0.7074 -0.0666
 1859ntf    on515730   1.619   1.085   5.061  0.1776  0.5586  0.2893
 1859ntf    on515731   1.493   1.024   4.622 -0.0831 -0.1086  0.1449
 1859ntf    on515732   1.509   1.270   4.615 -0.1892  0.1165  0.0628
 1859ntf    fn415733   1.291   1.062   4.846 -0.1361  0.5459  0.3811
 1859ntf    fn415734   1.300   1.279   4.818  0.0804  0.1492 -0.1028
 1859ntf    fn415735   1.234   1.145   4.670 -0.5112  0.1596  0.2817
 1860ntf    cn115736   1.202   0.837   4.391  0.2869  0.1053  0.3515
 1860ntf    sn215737   1.236   0.681   4.478 -0.2325 -0.0155  0.3401
 1860ntf    nn315738   1.152   0.576   4.396  0.0237 -0.2135  0.3286
 1860ntf    sn215739   1.203   0.465   4.298  0.0384 -0.0750  0.1782
 1860ntf    cn115740   1.269   0.338   4.411  0.0947 -0.0584  0.1642
 1860ntf    fn415741   1.074   0.862   4.410  0.2963  0.0283  0.5178
 1860ntf    fn415742   1.290   0.927   4.432  0.1662  0.2798  0.2249
 1860ntf    fn415743   1.216   0.806   4.263 -0.9593 -0.5346  0.3591
 1860ntf    on515744   1.379   0.660   4.479 -0.1932  0.2649  0.5129
 1860ntf    on515745   1.174   0.695   4.607  0.3564 -0.3390  0.6622
 1860ntf    on515746   1.316   0.503   4.217 -0.3374 -0.4181 -0.5108
 1860ntf    on515747   1.094   0.403   4.227 -0.2896  0.3777  0.2883
 1860ntf    fn415748   1.370   0.378   4.486  0.6234 -0.3386 -0.3845
 1860ntf    fn415749   1.170   0.311   4.494 -0.1866  0.3780 -0.0242
 1860ntf    fn415750   1.304   0.224   4.353 -0.3156  0.0216 -0.2467
 1861ntf    cn115751   4.046   3.186   6.614 -0.1211  0.5796  0.1362
 1861ntf    sn215752   4.106   3.015   6.632  0.1446  0.6629  0.0449
 1861ntf    nn315753   4.135   3.023   6.786 -0.2090  0.0590  0.1442
 1861ntf    sn215754   4.269   3.041   6.866  0.0204  0.0891 -0.2425
 1861ntf    cn115755   4.286   2.866   6.910 -0.2930  0.0490 -0.2791
 1861ntf    fn415756   3.938   3.214   6.684  0.0581  0.6620  0.3813
 1861ntf    fn415757   4.127   3.286   6.644  0.2619  0.2832  0.0946
 1861ntf    fn415758   4.026   3.199   6.483  0.1063 -0.1149  0.0287
 1861ntf    on515759   4.000   2.923   6.602  0.6843  0.0596 -0.0388
 1861ntf    on515760   4.223   3.003   6.548  0.2437 -0.6979  0.3524
 1861ntf    on515761   4.241   3.108   6.991 -0.6233 -0.5080 -0.0598
 1861ntf    on515762   4.393   3.077   6.802  0.4430 -0.7590  0.0828
 1861ntf    fn415763   4.390   2.859   6.992 -0.4155  0.0829 -0.1208
 1861ntf    fn415764   4.185   2.803   6.969 -0.4510 -0.0747 -0.6824
 1861ntf    fn415765   4.312   2.797   6.800 -0.0891  0.4824 -0.5018
 1862ntf    cn115766   6.649   4.177   3.925  0.0971 -0.1962 -0.0369
 1862ntf    sn215767   6.628   4.276   4.076 -0.1999  0.1390 -0.2984
 1862ntf    nn315768   6.478   4.319   4.061 -0.2162  0.3958  0.6067
 1862ntf    sn215769   6.351   4.239   4.109 -0.4551  0.4664  0.0965
 1862ntf    cn115770   6.227   4.349   4.035 -0.4771  0.4391  0.0928
 1862ntf    fn415771   6.770   4.131   3.894  0.3895  0.2037  0.4922
 1862ntf    fn415772   6.577   4.067   3.941  0.2993 -0.3757 -0.3445
 1862ntf    fn415773   6.597   4.231   3.816 -0.4200 -0.5409  0.0346
 1862ntf    on515774   6.665   4.175   4.172 -0.4161 -0.5121 -0.8873
 1862ntf    on515775   6.715   4.388   4.052  0.3970 -0.2668 -0.0497
 1862ntf    on515776   6.330   4.258   4.250 -0.0407  0.6071  0.1414
 1862ntf    on515777   6.335   4.112   4.044  0.4644  0.2247  0.3253
 1862ntf    fn415778   6.240   4.353   3.903  0.1963  0.2792  0.1515
 1862ntf    fn415779   6.099   4.327   4.062 -0.2910 -0.2251  0.4303
 1862ntf    fn415780   6.252   4.476   4.066  0.5094  0.2738 -0.0049
 1863ntf    cn115781   4.188   4.898   2.154 -0.3356  0.0877  0.0131
 1863ntf    sn215782   4.140   5.014   2.286 -0.2852  0.0168  0.0935
 1863ntf    nn315783   4.275   5.078   2.334 -0.6601  0.6941  0.2488
 1863ntf    sn215784   4.326   5.087   2.482 -0.0847 -0.0444  0.0945
 1863ntf    cn115785   4.463   5.205   2.461  0.0517 -0.1619  0.3096
 1863ntf    fn415786   4.228   4.954   2.041  0.6536 -0.4429  0.0919
 1863ntf    fn415787   4.282   4.820   2.205 -0.1812  0.0877 -0.2755
 1863ntf    fn415788   4.082   4.825   2.121 -0.1732 -0.1724  0.0679
 1863ntf    on515789   4.057   5.111   2.220 -0.3391 -0.0574  0.0525
 1863ntf    on515790   4.075   4.926   2.380  0.0812  0.2862  0.6021
 1863ntf    on515791   4.402   4.968   2.513  0.2294  0.0625 -0.2588
 1863ntf    on515792   4.240   5.155   2.575  0.1785  0.3040  0.0830
 1863ntf    fn415793   4.565   5.153   2.396  0.1280  0.4281 -0.0505
 1863ntf    fn415794   4.424   5.303   2.382  1.0125  0.0771  0.1231
 1863ntf    fn415795   4.506   5.268   2.569 -0.1183 -0.0726  0.3250
 1864ntf    cn115796   1.952   3.118   3.903 -0.2300 -0.0165 -0.0173
 1864ntf    sn215797   1.809   3.028   3.970 -0.2967  0.2094  0.1450
 1864ntf    nn315798   1.867   2.882   3.977  0.2174  0.4137  0.1724
 1864ntf    sn215799   1.882   2.782   3.857 -0.1415  0.4917  0.0629
 1864ntf    cn115800   1.730   2.683   3.876  0.0066  0.2338 -0.0846
 1864ntf    fn415801   1.915   3.243   3.881 -0.8606 -0.1798  0.0948
 1864ntf    fn415802   2.050   3.123   3.991 -0.0091 -0.2390 -0.2481
 1864ntf    fn415803   2.007   3.075   3.791  0.3106 -0.2217  0.3238
 1864ntf    on515804   1.810   3.096   4.097  0.2256 -0.2653  0.4010
 1864ntf    on515805   1.705   3.055   3.874 -0.0898  0.2778 -0.0589
 1864ntf    on515806   1.993   2.692   3.875 -0.2321  0.2066 -0.7353
 1864ntf    on515807   1.870   2.843   3.726  0.5264  0.0224 -0.2200
 1864ntf    fn415808   1.623   2.760   3.865 -0.0817  0.0527 -0.5003
 1864ntf    fn415809   1.722   2.591   3.782 -0.4057 -0.1441  0.3151
 1864ntf    fn415810   1.716   2.619   3.991 -0.0010 -0.2124 -0.3339
 1865ntf    cn115811   1.542   5.169   5.819  0.3108 -0.1291 -0.1863
 1865ntf    sn215812   1.639   5.149   5.971  0.1467 -0.2564 -0.0996
 1865ntf    nn315813   1.633   5.299   6.017  0.8753 -0.3823  0.4153
 1865ntf    sn215814   1.740   5.414   6.021  0.6072 -0.1201 -0.0011
 1865ntf    cn115815   1.809   5.393   6.187  0.1968 -0.0799  0.1755
 1865ntf    fn415816   1.608   5.244   5.733 -0.0755  0.2665 -0.1458
 1865ntf    fn415817   1.520   5.059   5.750  0.4013 -0.3378  0.1147
 1865ntf    fn415818   1.425   5.228   5.841  0.0532 -0.6140 -0.2518
 1865ntf    on515819   1.555   5.068   6.057  0.1840 -0.0223  0.1597
 1865ntf    on515820   1.761   5.087   5.926 -0.2200 -0.7089 -0.4892
 1865ntf    on515821   1.681   5.546   6.021 -0.0683 -0.4148  0.6442
 1865ntf    on515822   1.847   5.386   5.928  0.0168  0.0138 -0.7316
 1865ntf    fn415823   1.906   5.480   6.210  0.0668  0.1099  0.0040
 1865ntf    fn415824   1.726   5.410   6.289  0.2227 -0.1092  0.2013
 1865ntf    fn415825   1.873   5.279   6.209 -0.1367 -0.3594 -0.2986
 1866ntf    cn115826   0.697   3.906   5.072 -0.0394 -0.0364 -0.2336
 1866ntf    sn215827   0.737   3.991   5.228  0.1165 -0.2186 -0.1740
 1866ntf    nn315828   0.882   4.044   5.199  0.0422  0.1611  0.1365
 1866ntf    sn215829   0.939   4.183   5.153 -0.1039  0.1556 -0.0662
 1866ntf    cn115830   1.099   4.188   5.240 -0.1606 -0.1828  0.0617
 1866ntf    fn415831   0.582   3.840   5.077 -0.0011 -0.0994 -0.1889
 1866ntf    fn415832   0.688   3.989   4.969  0.0667  0.2629 -0.0022
 1866ntf    fn415833   0.788   3.815   5.041  0.2155  0.0766  0.1824
 1866ntf    on515834   0.635   4.092   5.244 -0.0100 -0.4027  0.1879
 1866ntf    on515835   0.726   3.881   5.320 -0.3268 -0.2618 -0.2735
 1866ntf    on515836   0.860   4.294   5.201 -0.1400  0.1047 -0.0055
 1866ntf    on515837   0.980   4.182   5.015  0.4203 -0.5355  0.0842
 1866ntf    fn415838   1.185   4.268   5.178 -0.4310 -0.1493 -0.2765
 1866ntf    fn415839   1.098   4.221   5.368 -0.2711 -0.0055  0.0160
 1866ntf    fn415840   1.157   4.069   5.240 -0.1114 -0.1583  0.2080
 1867ntf    cn115841   5.670   5.961   2.188 -0.0864 -0.3897 -0.3491
 1867ntf    sn215842   5.552   5.859   2.282 -0.0979 -0.1881 -0.1458
 1867ntf    nn315843   5.654   5.779   2.370 -0.3404 -0.1084  0.2131
 1867ntf    sn215844   5.677   5.624   2.358  0.0761 -0.0428  0.1242
 1867ntf    cn115845   5.770   5.600   2.513 -0.1492  0.3000  0.3125
 1867ntf    fn415846   5.762   6.026   2.257 -0.1660  0.0643 -0.6688
 1867ntf    fn415847   5.734   5.884   2.102 -0.1098  0.0149 -0.7274
 1867ntf    fn415848   5.605   6.047   2.112  0.2449 -0.1468 -0.3590
 1867ntf    on515849   5.473   5.952   2.359 -0.5149 -0.6964  0.0420
 1867ntf    on515850   5.491   5.783   2.176 -0.6102  0.2599 -0.1778
 1867ntf    on515851   5.770   5.587   2.254  0.1105  0.0679  0.1157
 1867ntf    on515852   5.560   5.542   2.378  0.1436 -0.1982 -0.1156
 1867ntf    fn415853   5.899   5.627   2.505  0.0405 -0.7773 -0.5921
 1867ntf    fn415854   5.717   5.653   2.622 -0.3653  0.1890  0.2601
 1867ntf    fn415855   5.771   5.473   2.548  0.5699  0.2253  0.0460
 1868ntf    cn115856   5.844   5.428   4.169  0.3340 -0.0218 -0.3541
 1868ntf    sn215857   5.713   5.304   4.148 -0.1024  0.3421  0.1852
 1868ntf    nn315858   5.789   5.167   4.163 -0.1572  0.3197  0.2621
 1868ntf    sn215859   5.797   5.075   4.289  0.1342  0.2978  0.2296
 1868ntf    cn115860   5.885   4.929   4.227  0.0686  0.3146  0.0986
 1868ntf    fn415861   5.788   5.547   4.185  0.1294 -0.2227  0.5062
 1868ntf    fn415862   5.912   5.414   4.281  0.0001 -0.2774 -0.1809
 1868ntf    fn415863   5.941   5.430   4.080  0.3064 -0.1105 -0.3868
 1868ntf    on515864   5.610   5.328   4.246 -0.2708  0.3304  0.0102
 1868ntf    on515865   5.680   5.323   4.009 -0.4521 -0.1289  0.1998
 1868ntf    on515866   5.670   5.018   4.326  0.2497  0.1285  0.3671
 1868ntf    on515867   5.876   5.119   4.401  1.0047 -0.6006 -0.0246
 1868ntf    fn415868   5.857   4.906   4.099 -0.0881  0.4834  0.1017
 1868ntf    fn415869   6.017   4.929   4.234  0.0492  0.2858  0.4656
 1868ntf    fn415870   5.839   4.819   4.283  0.8462 -0.1339 -0.1262
 1869ntf    cn115871   1.780   1.896   3.826  0.0661 -0.4849  0.5064
 1869ntf    sn215872   1.788   1.751   3.717 -0.1973 -0.1253  0.0082
 1869ntf    nn315873   1.650   1.772   3.643 -0.1141  0.0363 -0.1020
 1869ntf    sn215874   1.635   1.813   3.492  0.0051  0.2754 -0.0501
 1869ntf    cn115875   1.491   1.712   3.446  0.4556 -0.1401 -0.5583
 1869ntf    fn415876   1.686   1.899   3.920  0.1957  0.1721  0.6198
 1869ntf    fn415877   1.891   1.926   3.891  0.0144  0.6178  0.1081
 1869ntf    fn415878   1.763   2.009   3.759 -0.4272 -0.3504  0.8436
 1869ntf    on515879   1.915   1.771   3.652 -0.1081 -0.3561  0.1121
 1869ntf    on515880   1.780   1.649   3.818  0.2572 -0.1225  0.0453
 1869ntf    on515881   1.730   1.763   3.396 -0.0781 -0.0686  0.0445
 1869ntf    on515882   1.581   1.946   3.479  0.1399  0.3288 -0.0693
 1869ntf    fn415883   1.540   1.589   3.439 -0.0712 -0.4254  0.4987
 1869ntf    fn415884   1.397   1.718   3.539  0.6605 -0.9252 -0.2923
 1869ntf    fn415885   1.438   1.748   3.331 -0.4086 -0.4550 -0.2653
 1870ntf    cn115886   0.019   5.883   3.755  0.1503 -0.3497 -0.3778
 1870ntf    sn215887   0.027   5.756   3.624 -0.0097 -0.4054 -0.3343
 1870ntf    nn315888   0.182   5.770   3.602  0.0095  0.0881  0.1008
 1870ntf    sn215889   0.262   5.733   3.472 -0.1453  0.0744  0.0100
 1870ntf    cn115890   0.335   5.893   3.425  0.0117  0.0085  0.0328
 1870ntf    fn415891  -0.097   5.892   3.817  0.4654  0.3677  0.1093
 1870ntf    fn415892   0.108   5.858   3.850  0.1315  0.0046 -0.2694
 1870ntf    fn415893   0.038   6.005   3.709  0.0771 -0.4504 -0.6810
 1870ntf    on515894  -0.020   5.646   3.704 -0.4781  0.1784  0.2022
 1870ntf    on515895  -0.064   5.809   3.526  0.3684  0.9265  0.0089
 1870ntf    on515896   0.179   5.701   3.358  0.4630 -0.1422 -0.3741
 1870ntf    on515897   0.376   5.649   3.498 -0.2204 -0.0310  0.0037
 1870ntf    fn415898   0.420   5.932   3.519 -0.2262  0.0299  0.2417
 1870ntf    fn415899   0.408   5.877   3.316  0.3831  0.4196  0.2185
 1870ntf    fn415900   0.254   5.994   3.402  0.2337  0.2998  0.5029
 1871ntf    cn115901   6.316   0.754   3.109 -0.2892  0.3879 -0.1595
 1871ntf    sn215902   6.389   0.618   3.014 -0.2342  0.3245 -0.0265
 1871ntf    nn315903   6.413   0.698   2.881 -0.0587 -0.1549 -0.2889
 1871ntf    sn215904   6.386   0.657   2.732 -0.1458 -0.3035 -0.2315
 1871ntf    cn115905   6.363   0.815   2.646  0.0328 -0.1755 -0.0465
 1871ntf    fn415906   6.220   0.811   3.037 -0.3159  0.2042 -0.2695
 1871ntf    fn415907   6.250   0.729   3.220 -0.0133  0.8843  0.1235
 1871ntf    fn415908   6.408   0.846   3.134 -0.0540  0.2107 -0.3593
 1871ntf    on515909   6.505   0.597   3.097 -0.1717  0.2085 -0.1432
 1871ntf    on515910   6.280   0.524   3.013 -0.2168  0.3050 -0.4901
 1871ntf    on515911   6.260   0.589   2.714 -0.0924 -0.4403 -0.0985
 1871ntf    on515912   6.500   0.603   2.661 -0.0142  0.1851 -0.3918
 1871ntf    fn415913   6.244   0.856   2.687  0.0976 -0.0002 -0.0341
 1871ntf    fn415914   6.451   0.908   2.677  0.0408 -0.0763 -0.3650
 1871ntf    fn415915   6.352   0.804   2.514  0.0293  0.8656 -0.1414
 1872ntf    cn115916   4.315   5.572   5.456 -0.1461  0.2180 -0.2097
 1872ntf    sn215917   4.217   5.575   5.609 -0.0723 -0.0813 -0.1561
 1872ntf    nn315918   4.225   5.725   5.655  0.4994 -0.1961  0.1279
 1872ntf    sn215919   4.227   5.793   5.796 -0.3975 -0.1494  0.1249
 1872ntf    cn115920   4.049   5.823   5.809 -0.4340 -0.0280 -0.6203
 1872ntf    fn415921   4.252   5.608   5.346  0.1676 -0.0037 -0.4651
 1872ntf    fn415922   4.424   5.647   5.468  0.1446 -0.2896  0.4235
 1872ntf    fn415923   4.360   5.453   5.422 -0.1754  0.0625  0.2842
 1872ntf    on515924   4.086   5.544   5.557  0.0851  0.4384 -0.8812
 1872ntf    on515925   4.286   5.485   5.698  0.2861  0.5288  0.1878
 1872ntf    on515926   4.268   5.931   5.794 -0.2311 -0.2052 -0.3328
 1872ntf    on515927   4.241   5.708   5.913 -0.3293 -0.1275  0.1328
 1872ntf    fn415928   4.021   5.860   5.933 -0.0830 -0.2266 -0.4797
 1872ntf    fn415929   4.001   5.924   5.738 -0.7178  0.3136  0.0475
 1872ntf    fn415930   3.986   5.709   5.783  0.4329 -0.5545 -0.4405
 1873ntf    cn115931   2.076   3.231   1.392 -0.0920  0.2636 -0.2556
 1873ntf    sn215932   2.195   3.202   1.527  0.0449  0.1076 -0.4097
 1873ntf    nn315933   2.229   3.054   1.486 -0.0454  0.0086 -0.1232
 1873ntf    sn215934   2.199   2.920   1.562 -0.0227  0.0137 -0.1050
 1873ntf    cn115935   2.364   2.844   1.552 -0.1026 -0.2192  0.3300
 1873ntf    fn415936   2.036   3.356   1.379 -0.2355  0.2711  0.2310
 1873ntf    fn415937   2.124   3.186   1.277  0.4286 -0.4690  0.2378
 1873ntf    fn415938   1.959   3.171   1.405  0.1125 -0.1016 -0.0733
 1873ntf    on515939   2.303   3.295   1.503  0.0048  0.2095 -0.1974
 1873ntf    on515940   2.124   3.224   1.650  0.2168 -0.1446 -0.2648
 1873ntf    on515941   2.114   2.830   1.487 -0.3325  0.0861  0.1560
 1873ntf    on515942   2.176   2.924   1.704 -0.0604  0.5521 -0.1252
 1873ntf    fn415943   2.454   2.916   1.616 -0.5664  0.4513  0.2344
 1873ntf    fn415944   2.364   2.721   1.601 -0.3637 -0.2330  0.2978
 1873ntf    fn415945   2.411   2.847   1.428 -0.2250 -0.2854  0.2808
 1874ntf    cn115946   1.289   4.643   0.338 -0.1913 -0.0212  0.2450
 1874ntf    sn215947   1.409   4.513   0.382  0.0385  0.0813 -0.0675
 1874ntf    nn315948   1.472   4.569   0.515 -0.4506 -0.3835  0.3628
 1874ntf    sn215949   1.415   4.584   0.661 -0.2770  0.1647  0.3730
 1874ntf    cn115950   1.510   4.451   0.739 -0.4247 -0.2559 -0.1590
 1874ntf    fn415951   1.237   4.638   0.216  0.0078 -0.0797  0.1619
 1874ntf    fn415952   1.190   4.635   0.424  0.3445 -0.4018  0.8397
 1874ntf    fn415953   1.338   4.765   0.347 -0.4867  0.1370 -0.2459
 1874ntf    on515954   1.323   4.398   0.391 -0.0307  0.1258 -0.1655
 1874ntf    on515955   1.509   4.526   0.279  0.3407 -0.4134  0.1599
 1874ntf    on515956   1.277   4.541   0.667 -0.5044  0.8967  0.5977
 1874ntf    on515957   1.449   4.704   0.733  0.1331  0.4816 -0.3342
 1874ntf    fn415958   1.638   4.480   0.719 -0.4753 -0.0162 -0.1335
 1874ntf    fn415959   1.491   4.437   0.869 -0.1335  0.3618 -0.0478
 1874ntf    fn415960   1.493   4.330   0.689  0.0326 -0.1496 -0.5807
 1875ntf    cn115961   3.498   1.571   3.454  0.0129 -0.2684  0.4736
 1875ntf    sn215962   3.587   1.477   3.327 -0.1444 -0.0944  0.2348
 1875ntf    nn315963   3.475   1.379   3.276  0.0240 -0.4175  0.4867
 1875ntf    sn215964   3.466   1.317   3.132 -0.1048 -0.0832  0.3515
 1875ntf    cn115965   3.638   1.284   3.082 -0.0957  0.3134  0.1103
 1875ntf    fn415966   3.382   1.614   3.407  0.2316 -0.2721 -0.0716
 1875ntf    fn415967   3.459   1.497   3.556 -0.0497 -0.4748  0.3003
 1875ntf    fn415968   3.568   1.672   3.503 -0.0057  0.1633 -0.3662
 1875ntf    on515969   3.625   1.579   3.232  0.4808  0.0263  0.6149
 1875ntf    on515970   3.689   1.415   3.407 -0.0944 -0.5835 -0.1969
 1875ntf    on515971   3.410   1.407   3.035  0.1674 -0.3774 -0.0811
 1875ntf    on515972   3.409   1.185   3.130 -0.0223 -0.1138 -0.3797
 1875ntf    fn415973   3.644   1.198   2.981  0.5054  0.5321 -0.0413
 1875ntf    fn415974   3.700   1.395   3.047 -0.0449  0.1701 -0.2636
 1875ntf    fn415975   3.708   1.229   3.180  0.4063  0.4381 -0.1779
 1876ntf    cn115976   3.236   0.344   1.786  0.2891 -0.5213 -0.0025
 1876ntf    sn215977   3.198   0.372   1.610 -0.3523 -0.2980  0.1702
 1876ntf    nn315978   3.113   0.503   1.624 -0.2099 -0.2130  0.2468
 1876ntf    sn215979   2.964   0.534   1.583 -0.0136  0.2255 -0.1509
 1876ntf    cn115980   2.992   0.645   1.441  0.2904  0.2470 -0.0756
 1876ntf    fn415981   3.131   0.321   1.863  0.2210 -0.1185  0.0256
 1876ntf    fn415982   3.314   0.240   1.811  0.3399 -0.2664  0.9471
 1876ntf    fn415983   3.296   0.453   1.831 -0.2182 -0.1930 -0.1117
 1876ntf    on515984   3.326   0.401   1.550  0.0765 -0.5170  0.9564
 1876ntf    on515985   3.137   0.246   1.577 -0.1028 -0.4329  0.2247
 1876ntf    on515986   2.904   0.609   1.690 -0.5558 -0.4377  0.0172
 1876ntf    on515987   2.885   0.424   1.534 -0.1037  0.0869  0.3014
 1876ntf    fn415988   2.901   0.739   1.423 -0.0736 -0.1361 -0.2426
 1876ntf    fn415989   3.102   0.713   1.468  0.2849  0.4976 -0.6843
 1876ntf    fn415990   3.003   0.574   1.330 -0.0923  0.0550  0.0048
 1877ntf    cn115991   4.389   2.436   2.060 -0.1820 -0.1617  0.0413
 1877ntf    sn215992   4.421   2.385   1.889  0.0314 -0.0613  0.0506
 1877ntf    nn315993   4.572   2.345   1.900  0.0147 -0.0652  0.2732
 1877ntf    sn215994   4.638   2.202   1.911  0.1364 -0.0427 -0.1255
 1877ntf    cn115995   4.701   2.188   1.741  0.3003  0.2038 -0.0867
 1877ntf    fn415996   4.374   2.330   2.138 -0.4800 -0.0531  0.1327
 1877ntf    fn415997   4.484   2.511   2.114 -0.5685  0.3060  0.0838
 1877ntf    fn415998   4.280   2.510   2.065  0.2321  0.4562  0.0384
 1877ntf    on515999   4.325   2.283   1.855  0.1503 -0.1287 -0.0861
 1877ntf    on516000   4.403   2.510   1.819 -0.2662 -0.1854 -0.0962
 1877ntf    on516001   4.551   2.088   1.930  0.0316  0.0159 -0.2517
 1877ntf    on516002   4.761   2.200   1.986  0.3073  0.6953 -0.3796
 1877ntf    fn416003   4.776   2.288   1.699 -0.0413  0.4109 -0.2094
 1877ntf    fn416004   4.764   2.073   1.723  0.1345  0.0564  0.2582
 1877ntf    fn416005   4.595   2.179   1.662  0.4456  0.2342 -0.2867
 1878ntf    cn116006   6.479   6.349   6.419  0.0297 -0.3339  0.1364
 1878ntf    sn216007   6.319   6.425   6.379  0.1419 -0.1934 -0.0540
 1878ntf    nn316008   6.350   6.572   6.336  0.0250 -0.1141  0.1302
 1878ntf    sn216009   6.367   6.637   6.194  0.0724  0.2714  0.3114
 1878ntf    cn116010   6.483   6.773   6.231  0.1785  0.1571  0.4023
 1878ntf    fn416011   6.538   6.426   6.509  0.4468 -0.3948 -0.0775
 1878ntf    fn416012   6.480   6.224   6.461  0.1740 -0.3296  0.1471
 1878ntf    fn416013   6.568   6.341   6.321  0.0964  0.3833  0.1301
 1878ntf    on516014   6.267   6.341   6.274  0.0599  0.0104 -0.1747
 1878ntf    on516015   6.247   6.419   6.504  0.4548 -0.3047  0.1226
 1878ntf    on516016   6.251   6.709   6.149 -0.2382 -0.6682 -0.4090
 1878ntf    on516017   6.439   6.562   6.095 -0.2638  0.7201 -0.2764
 1878ntf    fn416018   6.423   6.878   6.286 -0.0595  0.4642 -0.4239
 1878ntf    fn416019   6.573   6.734   6.319  0.6739  0.2091 -0.0774
 1878ntf    fn416020   6.543   6.819   6.123 -0.1599 -0.8068 -0.2084
 1879ntf    cn116021   4.523   5.187   6.078  0.2437 -0.3245  0.1202
 1879ntf    sn216022   4.691   5.227   6.021  0.0457  0.2366 -0.0796
 1879ntf    nn316023   4.764   5.214   6.159 -0.2036 -0.7038 -0.0303
 1879ntf    sn216024   4.917   5.193   6.185 -0.1539  0.0623  0.3078
 1879ntf    cn116025   4.923   5.012   6.172  0.2368  0.0449  0.7130
 1879ntf    fn416026   4.515   5.080   6.155 -0.1468 -0.1109  0.3768
 1879ntf    fn416027   4.463   5.280   6.150 -0.0722 -0.9884  0.7289
 1879ntf    fn416028   4.438   5.168   5.977  0.0565  0.2469  0.1659
 1879ntf    on516029   4.713   5.128   5.917  0.3623  0.2437 -0.0197
 1879ntf    on516030   4.680   5.365   5.980  0.1611  0.2836  0.0502
 1879ntf    on516031   4.947   5.231   6.321 -0.5220  0.2632  0.3335
 1879ntf    on516032   5.006   5.239   6.081  0.4179  0.1945  0.8459
 1879ntf    fn416033   5.025   4.953   6.232  0.3819 -0.1314  0.2936
 1879ntf    fn416034   4.810   4.968   6.224  0.0328 -0.1984  0.0636
 1879ntf    fn416035   4.911   4.963   6.050  0.5791  0.0068  0.6917
 1880ntf    cn116036   1.343   4.190   3.459  0.2035  0.1533  0.4783
 1880ntf    sn216037   1.502   4.148   3.380 -0.0736 -0.1951  0.1020
 1880ntf    nn316038   1.592   4.250   3.459  0.1025  0.0969 -0.4735
 1880ntf    sn216039   1.603   4.405   3.437 -0.1366  0.1936  0.0846
 1880ntf    cn116040   1.768   4.424   3.364 -0.0812  0.2171  0.2150
 1880ntf    fn416041   1.355   4.177   3.591  0.4944 -0.2349  0.4193
 1880ntf    fn416042   1.306   4.313   3.431 -0.5143 -0.1720 -0.0094
 1880ntf    fn416043   1.248   4.108   3.418  0.1630  0.2644  0.3541
 1880ntf    on516044   1.521   4.013   3.425  0.1404 -0.4479 -0.7374
 1880ntf    on516045   1.492   4.168   3.238  0.1353  0.4099  0.1666
 1880ntf    on516046   1.611   4.473   3.564  0.2521  0.0429  0.1409
 1880ntf    on516047   1.513   4.457   3.337  0.0150  0.1790 -0.0603
 1880ntf    fn416048   1.772   4.348   3.256 -0.7314  0.4924 -0.0073
 1880ntf    fn416049   1.787   4.552   3.339  0.0074  0.2014  0.1998
 1880ntf    fn416050   1.872   4.383   3.435 -0.3163 -0.5699  0.1217
 1881ntf    cn116051   4.322   5.283   4.379  0.0277 -0.0825 -0.1465
 1881ntf    sn216052   4.215   5.137   4.397 -0.4028  0.2508  0.0078
 1881ntf    nn316053   4.260   5.093   4.541 -0.3330  0.1199 -0.0542
 1881ntf    sn216054   4.172   5.062   4.668 -0.1408 -0.3161 -0.0244
 1881ntf    cn116055   4.154   5.225   4.747  0.6729 -0.3660  0.2721
 1881ntf    fn416056   4.313   5.374   4.474  0.0263 -0.0862 -0.1429
 1881ntf    fn416057   4.448   5.246   4.364  0.2186  0.3762  0.3058
 1881ntf    fn416058   4.291   5.346   4.266  0.8535  0.3726 -0.1298
 1881ntf    on516059   4.079   5.184   4.392 -0.3832  0.2822 -0.2475
 1881ntf    on516060   4.267   5.040   4.304 -0.0329  0.3637  0.0946
 1881ntf    on516061   4.245   4.987   4.767 -0.5254  0.2472  0.6923
 1881ntf    on516062   4.041   5.009   4.645 -0.4219  0.0959  0.5965
 1881ntf    fn416063   4.093   5.311   4.668  1.0035 -0.2256  0.1649
 1881ntf    fn416064   4.104   5.233   4.869 -0.3172  0.1335 -0.1568
 1881ntf    fn416065   4.272   5.283   4.762  0.3108  0.6467 -0.6421
 1882ntf    cn116066   5.096   0.575   4.787 -0.3259  0.1349 -0.3885
 1882ntf    sn216067   4.951   0.603   4.682 -0.5555  0.2329 -0.0474
 1882ntf    nn316068   4.889   0.459   4.670  0.1243 -0.0238 -0.5583
 1882ntf    sn216069   4.746   0.420   4.618 -0.2421  0.2146  0.2539
 1882ntf    cn116070   4.776   0.371   4.446  0.2772  0.5460  0.2487
 1882ntf    fn416071   5.067   0.521   4.905  0.3974  0.7075  0.0593
 1882ntf    fn416072   5.180   0.491   4.727 -0.5611 -0.6327  0.3342
 1882ntf    fn416073   5.173   0.681   4.806 -0.1872 -0.0214 -0.0629
 1882ntf    on516074   4.877   0.697   4.762 -0.2403  0.1158  0.3819
 1882ntf    on516075   5.006   0.650   4.557 -0.1091 -0.2795 -0.0488
 1882ntf    on516076   4.655   0.532   4.613 -0.0438  0.4003  0.7313
 1882ntf    on516077   4.694   0.300   4.679  0.1869 -0.0042  0.1915
 1882ntf    fn416078   4.674   0.302   4.398  0.5578  0.3012 -0.0045
 1882ntf    fn416079   4.787   0.474   4.364 -0.6475  0.1756 -0.3536
 1882ntf    fn416080   4.883   0.293   4.434 -0.2130 -0.1923  0.5829
 1883ntf    cn116081   5.464   1.133   4.676 -0.0995  0.2393 -0.4476
 1883ntf    sn216082   5.496   1.245   4.816  0.2692 -0.0806 -0.2717
 1883ntf    nn316083   5.505   1.383   4.741  0.4154 -0.3450 -0.7441
 1883ntf    sn216084   5.614   1.495   4.754  0.1077 -0.1189 -0.0578
 1883ntf    cn116085   5.538   1.619   4.863  0.4868  0.0789 -0.0157
 1883ntf    fn416086   5.336   1.105   4.658 -0.1393  0.0351  0.1327
 1883ntf    fn416087   5.501   1.188   4.562  0.5694  0.5851 -0.0729
 1883ntf    fn416088   5.533   1.021   4.691 -0.3099  0.2055  0.3146
 1883ntf    on516089   5.373   1.231   4.891  0.1659 -0.4202 -0.5022
 1883ntf    on516090   5.613   1.180   4.869 -0.1990 -0.2611  0.5580
 1883ntf    on516091   5.636   1.561   4.628  0.8733 -0.5470 -0.1557
 1883ntf    on516092   5.732   1.447   4.822 -0.0070  0.4048  0.5224
 1883ntf    fn416093   5.438   1.674   4.796  0.1845  0.4152  0.6987
 1883ntf    fn416094   5.487   1.563   4.971  0.4442  0.1615  0.0070
 1883ntf    fn416095   5.619   1.713   4.908  0.5410 -0.0299  0.1143
 1884ntf    cn116096   5.060   6.443   2.108 -0.5401 -0.2564  0.1721
 1884ntf    sn216097   5.242   6.445   2.111 -0.5369 -0.2168 -0.0431
 1884ntf    nn316098   5.254   6.509   2.254  0.3540  0.2644 -0.3262
 1884ntf    sn216099   5.370   6.597   2.313  0.4312 -0.0437 -0.0181
 1884ntf    cn116100   5.283   6.756   2.317  0.0108 -0.2751  0.1440
 1884ntf    fn416101   5.020   6.359   2.202 -0.3306  0.0186  0.5055
 1884ntf    fn416102   5.015   6.563   2.141  0.3675 -0.0766  0.7880
 1884ntf    fn416103   5.002   6.412   1.993  0.1552  0.3800 -0.3589
 1884ntf    on516104   5.286   6.308   2.121 -0.0904 -0.0938 -0.2841
 1884ntf    on516105   5.287   6.521   1.997  0.6021 -0.9022 -0.0669
 1884ntf    on516106   5.485   6.616   2.228  0.1953 -0.1657 -0.3689
 1884ntf    on516107   5.402   6.567   2.450 -0.1361 -0.0987  0.1056
 1884ntf    fn416108   5.363   6.852   2.360 -0.7143  0.4549 -0.0976
 1884ntf    fn416109   5.246   6.800   2.197 -0.5816  0.8585  0.7293
 1884ntf    fn416110   5.178   6.756   2.397 -0.0571 -0.1151  0.0573
 1885ntf    cn116111   1.387   1.684   1.776 -0.1731 -0.0688 -0.1656
 1885ntf    sn216112   1.250   1.573   1.731 -0.0140 -0.3421  0.0184
 1885ntf    nn316113   1.264   1.455   1.833 -0.3515 -0.1900  0.2405
 1885ntf    sn216114   1.260   1.300   1.808  0.4792 -0.2052  0.1826
 1885ntf    cn116115   1.243   1.251   1.982 -0.1691  0.3460  0.2789
 1885ntf    fn416116   1.506   1.629   1.764 -0.1248 -0.0571  0.2570
 1885ntf    fn416117   1.397   1.794   1.704  0.2123 -0.0308 -0.0551
 1885ntf    fn416118   1.381   1.727   1.901  0.4386 -0.6542  0.0665
 1885ntf    on516119   1.132   1.650   1.763  0.1075 -0.4749  0.8030
 1885ntf    on516120   1.283   1.542   1.594  0.0690  0.9216 -0.2658
 1885ntf    on516121   1.389   1.250   1.767  0.3247 -0.3054 -0.1849
 1885ntf    on516122   1.137   1.259   1.745  0.3310 -0.0919  0.3935
 1885ntf    fn416123   1.136   1.302   2.041 -0.6075 -0.0733 -0.1451
 1885ntf    fn416124   1.222   1.121   1.996  0.0999  0.2758  0.0318
 1885ntf    fn416125   1.350   1.287   2.051  0.0858  0.2077 -0.0409
 1886ntf    cn116126   3.367   6.627   6.167 -0.0205 -0.1766 -0.1058
 1886ntf    sn216127   3.278   6.740   6.055  0.0903 -0.1565 -0.1737
 1886ntf    nn316128   3.138   6.669   6.058  0.1004 -0.1925 -0.6028
 1886ntf    sn216129   2.999   6.728   6.014 -0.0299 -0.1746 -0.1627
 1886ntf    cn116130   3.057   6.801   5.858 -0.0809 -0.1478 -0.1693
 1886ntf    fn416131   3.498   6.639   6.166 -0.0279 -0.0568  0.3149
 1886ntf    fn416132   3.334   6.634   6.295  0.2892  0.1909 -0.0463
 1886ntf    fn416133   3.344   6.499   6.140  0.2689 -0.1754 -0.3569
 1886ntf    on516134   3.281   6.863   6.130  0.4472 -0.2196 -0.0792
 1886ntf    on516135   3.352   6.731   5.932  0.4155  0.3949 -0.0220
 1886ntf    on516136   2.967   6.845   6.092  0.2145 -0.2783  0.0966
 1886ntf    on516137   2.889   6.642   5.977 -0.1011  0.0671 -0.5069
 1886ntf    fn416138   3.115   6.716   5.775 -0.0616 -0.0563 -0.2491
 1886ntf    fn416139   2.963   6.863   5.788 -0.0455  0.0223 -0.0674
 1886ntf    fn416140   3.140   6.902   5.879  0.3604 -0.3453 -0.9311
 1887ntf    cn116141   1.521   2.179   1.959 -0.5474 -0.1034 -0.2500
 1887ntf    sn216142   1.425   2.211   2.110  0.2666 -0.1539  0.2817
 1887ntf    nn316143   1.493   2.109   2.208 -0.4938 -0.7062  0.2393
 1887ntf    sn216144   1.552   2.125   2.353  0.1830 -0.2109 -0.0862
 1887ntf    cn116145   1.411   2.051   2.441  0.1726 -0.2827 -0.1619
 1887ntf    fn416146   1.472   2.217   1.842 -0.1995  0.0778 -0.3351
 1887ntf    fn416147   1.649   2.210   1.959 -0.3938 -0.7178 -0.1806
 1887ntf    fn416148   1.529   2.048   1.946  0.5646 -0.0546 -0.1262
 1887ntf    on516149   1.459   2.349   2.131  0.5708 -0.1559 -0.1816
 1887ntf    on516150   1.286   2.187   2.078  0.3339  0.1335 -0.2318
 1887ntf    on516151   1.555   2.257   2.411 -0.1394 -0.1275 -0.2545
 1887ntf    on516152   1.659   2.033   2.383  0.4603  0.1600  0.0542
 1887ntf    fn416153   1.310   2.131   2.474  0.1617 -0.0453 -0.7612
 1887ntf    fn416154   1.358   1.946   2.380 -0.3198  0.1239 -0.4437
 1887ntf    fn416155   1.442   2.004   2.561 -0.2639 -0.2309 -0.0241
 1888ntf    cn116156   1.323   2.892   4.704 -0.0138  0.0317 -0.2596
 1888ntf    sn216157   1.404   2.771   4.595  0.3632 -0.1318  0.1971
 1888ntf    nn316158   1.342   2.794   4.453 -0.0414  0.1888  0.4232
 1888ntf    sn216159   1.396   2.894   4.344  0.2877 -0.0969  0.3237
 1888ntf    cn116160   1.540   2.805   4.276  0.5736  0.5682  0.0578
 1888ntf    fn416161   1.233   2.961   4.636 -0.3125 -0.2346 -0.1370
 1888ntf    fn416162   1.251   2.835   4.800  0.0349 -0.2410 -0.3818
 1888ntf    fn416163   1.397   2.985   4.761 -0.0184 -0.0189 -0.1683
 1888ntf    on516164   1.542   2.811   4.607  0.2104  0.3268  0.4475
 1888ntf    on516165   1.372   2.642   4.650 -0.5793 -0.0657 -0.1804
 1888ntf    on516166   1.444   3.021   4.391 -0.0014  0.3995 -0.6899
 1888ntf    on516167   1.316   2.904   4.224  0.5921  0.1381  0.1412
 1888ntf    fn416168   1.504   2.697   4.208 -0.0447  0.2910  0.8041
 1888ntf    fn416169   1.597   2.883   4.186 -0.2508  0.5988 -0.4486
 1888ntf    fn416170   1.625   2.768   4.370 -0.1235 -0.7525  0.1880
 1889ntf    cn116171   2.503   1.090   0.260 -0.0602  0.3114 -0.2256
 1889ntf    sn216172   2.576   0.974   0.380  0.0608  0.1987 -0.4089
 1889ntf    nn316173   2.669   1.074   0.457  0.1648 -0.8780  0.8927
 1889ntf    sn216174   2.824   1.094   0.441 -0.0480  0.0178 -0.0942
 1889ntf    cn116175   2.889   1.013   0.590  0.1279 -0.0360 -0.1997
 1889ntf    fn416176   2.436   1.181   0.330 -0.0679  0.0993  0.0470
 1889ntf    fn416177   2.598   1.152   0.193  0.2023 -0.1685 -0.2998
 1889ntf    fn416178   2.423   1.027   0.176  0.1235  0.0205 -0.1837
 1889ntf    on516179   2.461   0.927   0.452 -0.2910 -0.0287 -1.1051
 1889ntf    on516180   2.640   0.879   0.292 -0.1214 -0.1799 -0.1337
 1889ntf    on516181   2.861   1.233   0.456 -0.4210  0.1087  0.0147
 1889ntf    on516182   2.879   1.014   0.334 -0.5626  0.3094 -0.5876
 1889ntf    fn416183   2.860   0.885   0.581 -0.0985 -0.0163  0.2227
 1889ntf    fn416184   3.018   1.029   0.611  0.1321 -0.6402  0.2533
 1889ntf    fn416185   2.834   1.060   0.701  0.0897  0.1079 -0.2783
 1890ntf    cn116186   3.730   6.207   1.821  0.2637 -0.2527 -0.3318
 1890ntf    sn216187   3.749   6.385   1.792 -0.2287 -0.1204  0.1476
 1890ntf    nn316188   3.638   6.414   1.684  0.0197 -0.3065 -0.1580
 1890ntf    sn216189   3.644   6.425   1.528  0.1755  0.2544 -0.1134
 1890ntf    cn116190   3.708   6.594   1.505  0.6613  0.0411 -0.3373
 1890ntf    fn416191   3.789   6.171   1.934 -0.3134 -0.1866 -0.0063
 1890ntf    fn416192   3.602   6.174   1.822  0.0697  0.4934  0.4679
 1890ntf    fn416193   3.785   6.135   1.725  0.9300  0.2396 -0.3205
 1890ntf    on516194   3.710   6.449   1.915 -0.4393  0.2393 -0.1051
 1890ntf    on516195   3.883   6.402   1.740 -0.3149 -0.6183 -0.2433
 1890ntf    on516196   3.511   6.432   1.473  0.2634 -0.5752 -0.4386
 1890ntf    on516197   3.747   6.346   1.466  0.3212  0.2418  0.1430
 1890ntf    fn416198   3.727   6.615   1.376  0.3115 -0.1554 -0.4215
 1890ntf    fn416199   3.623   6.683   1.553  0.6639  0.2822 -0.7748
 1890ntf    fn416200   3.826   6.604   1.565  0.1573  0.2378  0.6460
   6.78105   6.78105   6.78105
