Converted from moscito
16200
    1SOL     ow    1   4.163   3.299   5.247 -0.1478 -0.7308 -0.1259
    1SOL     hw    2   4.189   3.358   5.176 -0.4022 -0.7985 -0.2748
    1SOL     hw    3   4.210   3.333   5.324  0.8518 -1.2077 -0.5142
    1SOL     vw    4   4.173   3.311   5.248 -0.0496 -0.8025 -0.1967
    2SOL     ow    5   6.136   3.873   4.581 -0.1702  0.3759  0.3627
    2SOL     hw    6   6.208   3.866   4.644  0.4797  1.5628 -0.2150
    2SOL     hw    7   6.135   3.788   4.536  1.3211  0.5649 -0.0777
    2SOL     vw    8   6.145   3.861   4.583  0.1125  0.5574  0.2284
    3SOL     ow    9   1.657   5.203   5.256  0.1077  0.4246 -0.1288
    3SOL     hw   10   1.676   5.133   5.194 -0.7415  0.5261 -0.5143
    3SOL     hw   11   1.671   5.164   5.342 -0.3044 -0.1987 -0.3446
    3SOL     vw   12   1.661   5.189   5.259 -0.0588  0.3560 -0.2081
    4SOL     ow   13   6.403   5.263   2.558 -0.2691  0.5502  0.9047
    4SOL     hw   14   6.372   5.201   2.492 -3.6031  1.6188  1.2797
    4SOL     hw   15   6.363   5.233   2.639 -0.6845  2.2964  1.3796
    4SOL     vw   16   6.394   5.250   2.560 -0.7637  0.9212  1.0167
    5SOL     ow   17   4.600   4.460   6.272  0.7861  0.1777  0.0482
    5SOL     hw   18   4.589   4.554   6.258 -1.1805 -0.2352 -1.6991
    5SOL     hw   19   4.611   4.424   6.184 -2.5575 -1.6116  0.2255
    5SOL     vw   20   4.600   4.467   6.258  0.0851 -0.1128 -0.1588
    6SOL     ow   21   3.296   3.556   4.576  0.0128 -0.2895  0.1421
    6SOL     hw   22   3.318   3.641   4.614 -0.9733  0.6228 -1.2381
    6SOL     hw   23   3.236   3.516   4.638  0.1872  0.1887  0.6212
    6SOL     vw   24   3.291   3.562   4.589 -0.0943 -0.1060  0.0231
    7SOL     ow   25   3.254   1.558   2.835 -0.1599 -0.8538 -0.1880
    7SOL     hw   26   3.239   1.650   2.812 -0.5411 -0.7462  0.4880
    7SOL     hw   27   3.167   1.518   2.836 -0.2173 -0.7681  1.4005
    7SOL     vw   28   3.241   1.565   2.832 -0.2178 -0.8284  0.1109
    8SOL     ow   29   1.399   3.277   1.087 -0.1276  0.6322  0.1409
    8SOL     hw   30   1.342   3.205   1.113 -2.2469  2.0989 -0.1380
    8SOL     hw   31   1.452   3.242   1.015 -0.2775 -0.9453  0.7737
    8SOL     vw   32   1.398   3.263   1.081 -0.4270  0.6176  0.1876
    9SOL     ow   33   5.067   1.306   5.385 -0.2130  0.0196 -0.6973
    9SOL     hw   34   5.032   1.332   5.300 -0.2054  0.5485 -0.5408
    9SOL     hw   35   5.045   1.213   5.393 -2.7396  0.5846 -0.0536
    9SOL     vw   36   5.060   1.297   5.375 -0.5455  0.1639 -0.5920
   10SOL     ow   37   5.223   5.585   3.575 -0.2306 -0.9426 -0.3997
   10SOL     hw   38   5.130   5.570   3.556 -0.7164  1.2376  0.0114
   10SOL     hw   39   5.265   5.584   3.489 -1.2576  1.5730 -1.0261
   10SOL     vw   40   5.216   5.583   3.561 -0.4301 -0.3231 -0.4282
   11SOL     ow   41   6.289   2.797   0.727 -0.8399 -0.2209  0.1028
   11SOL     hw   42   6.243   2.716   0.747 -1.2198 -0.0839 -0.1947
   11SOL     hw   43   6.244   2.863   0.780 -0.5916 -0.1885  0.2735
   11SOL     vw   44   6.277   2.795   0.737 -0.8574 -0.1986  0.0861
   12SOL     ow   45   0.072   1.608   1.427  0.0684 -0.6915  0.2035
   12SOL     hw   46   0.019   1.687   1.439 -1.1328 -1.3507 -0.5596
   12SOL     hw   47   0.118   1.596   1.511 -3.3738 -1.8028  2.1147
   12SOL     vw   48   0.071   1.617   1.440 -0.5442 -0.9250  0.3551
   13SOL     ow   49   1.963   2.198   5.345 -0.4063  0.1906 -0.3614
   13SOL     hw   50   1.922   2.284   5.335  0.2113  0.5063 -0.2162
   13SOL     hw   51   1.943   2.153   5.264 -0.5695  0.5452 -0.5230
   13SOL     vw   52   1.955   2.204   5.333 -0.3464  0.2791 -0.3631
   14SOL     ow   53   2.282   3.453   6.283  0.5968  0.0018  0.4410
   14SOL     hw   54   2.293   3.527   6.344  0.2944 -0.5263  1.1490
   14SOL     hw   55   2.318   3.485   6.201  0.6115  0.8917  0.7772
   14SOL     vw   56   2.288   3.467   6.281  0.5587  0.0496  0.5789
   15SOL     ow   57   2.598   5.992   0.861  0.1191  0.4683 -0.0573
   15SOL     hw   58   2.572   5.933   0.791  2.1047 -0.8479  0.2330
   15SOL     hw   59   2.539   6.067   0.853 -0.2032  0.0296 -2.6564
   15SOL     vw   60   2.587   5.994   0.851  0.3384  0.2365 -0.3619
   16SOL     ow   61   4.346   4.434   4.591 -0.0591 -0.3712  0.1576
   16SOL     hw   62   4.366   4.471   4.505  2.8548  0.6542  1.1333
   16SOL     hw   63   4.397   4.353   4.593  0.7730  0.1501  1.2309
   16SOL     vw   64   4.356   4.428   4.580  0.4354 -0.1674  0.4280
   17SOL     ow   65   1.569   2.462   5.760 -0.4119 -0.0491 -0.0388
   17SOL     hw   66   1.633   2.528   5.787 -0.9032  0.0488  0.9432
   17SOL     hw   67   1.612   2.414   5.690  0.1875  0.9261 -0.3565
   17SOL     vw   68   1.583   2.464   5.754 -0.3976  0.0926  0.0486
   18SOL     ow   69   1.268   4.969   2.470  0.5025 -0.1785  1.2119
   18SOL     hw   70   1.238   5.031   2.404 -0.2726 -0.6472  1.1126
   18SOL     hw   71   1.198   4.904   2.475  2.2942 -2.3825 -0.3887
   18SOL     vw   72   1.255   4.969   2.462  0.6366 -0.5312  0.9875
   19SOL     ow   73   5.830   5.583   6.106 -0.0485  0.2807  0.1137
   19SOL     hw   74   5.768   5.552   6.172  2.3852 -0.5866  2.1617
   19SOL     hw   75   5.868   5.503   6.070 -0.6270  0.7784 -1.7386
   19SOL     vw   76   5.827   5.568   6.110  0.1965  0.2320  0.1392
   20SOL     ow   77   0.419   1.027   4.922  0.3768 -0.0521  0.1646
   20SOL     hw   78   0.328   1.046   4.902  0.7467  1.4907 -0.1548
   20SOL     hw   79   0.461   1.020   4.836  0.8075  0.5477  0.3241
   20SOL     vw   80   0.413   1.028   4.908  0.4825  0.2306  0.1435
   21SOL     ow   81   2.907   3.618   6.748 -0.1907  0.1323 -0.6109
   21SOL     hw   82   2.847   3.574   6.688  0.7433 -1.0097 -0.7437
   21SOL     hw   83   2.948   3.686   6.695 -1.4108  1.0024 -0.4890
   21SOL     vw   84   2.904   3.621   6.733 -0.2284  0.0966 -0.6125
   22SOL     ow   85   2.963   1.639   4.629 -0.7109 -0.3988 -0.0577
   22SOL     hw   86   3.024   1.568   4.647  1.7412  0.9602 -2.3016
   22SOL     hw   87   2.918   1.614   4.549  0.5449  0.6757 -1.1620
   22SOL     vw   88   2.965   1.627   4.621 -0.2216 -0.0778 -0.4995
   23SOL     ow   89   5.595   1.465   4.134  0.4390 -0.3741  0.0992
   23SOL     hw   90   5.685   1.436   4.124 -0.2119 -2.2185 -1.0856
   23SOL     hw   91   5.570   1.497   4.047  0.4054  1.6691  0.8149
   23SOL     vw   92   5.603   1.465   4.121  0.3488 -0.3479  0.0374
   24SOL     ow   93   0.808   4.777   4.591 -0.4497  0.1437 -1.0203
   24SOL     hw   94   0.823   4.690   4.628 -1.5299 -0.1684 -1.3043
   24SOL     hw   95   0.764   4.826   4.661 -1.0577  0.0418 -1.3257
   24SOL     vw   96   0.804   4.772   4.605 -0.6724  0.0889 -1.0982
   25SOL     ow   97   2.588   6.578   2.842  0.4202  0.4952  0.5837
   25SOL     hw   98   2.532   6.647   2.877  0.9419  0.5486  1.3430
   25SOL     hw   99   2.677   6.613   2.851  0.8055 -0.7620  2.1936
   25SOL     vw  100   2.592   6.592   2.848  0.5399  0.3359  0.8962
   26SOL     ow  101   4.729   4.116   1.540 -0.4440  0.2011  0.0755
   26SOL     hw  102   4.768   4.184   1.594 -0.0159  0.2005 -0.2259
   26SOL     hw  103   4.711   4.044   1.600 -2.2362  1.1129  0.6697
   26SOL     vw  104   4.732   4.115   1.555 -0.6239  0.3216  0.1141
   27SOL     ow  105   5.067   2.337   3.440  0.0021  0.2374 -0.6238
   27SOL     hw  106   5.060   2.429   3.414  1.6061  0.5843  0.0303
   27SOL     hw  107   5.025   2.333   3.525 -0.9973  0.1260 -1.1109
   27SOL     vw  108   5.061   2.349   3.447  0.0820  0.2685 -0.6016
   28SOL     ow  109   0.161   4.795   5.111 -0.3432 -0.2107 -0.3159
   28SOL     hw  110   0.205   4.854   5.172  1.2574  0.5303 -2.1059
   28SOL     hw  111   0.085   4.763   5.160 -0.0165  1.5732  1.4929
   28SOL     vw  112   0.157   4.799   5.125 -0.0889  0.1223 -0.3135
   29SOL     ow  113   5.111   0.153   2.154 -0.3806 -0.3574  0.1207
   29SOL     hw  114   5.121   0.058   2.148  0.5952 -0.2350 -0.3606
   29SOL     hw  115   5.197   0.188   2.133 -1.2552  0.7169 -2.0207
   29SOL     vw  116   5.123   0.145   2.150 -0.3672 -0.1995 -0.2253
   30SOL     ow  117   4.293   2.888   6.457 -0.1406 -0.3906 -0.0515
   30SOL     hw  118   4.244   2.849   6.529 -2.5778  0.6250 -1.0509
   30SOL     hw  119   4.294   2.821   6.389 -1.6358  0.1403 -0.6290
   30SOL     vw  120   4.287   2.874   6.457 -0.6597 -0.1866 -0.2599
   31SOL     ow  121   4.233   5.636   6.391 -0.4442  0.3772  0.1051
   31SOL     hw  122   4.275   5.687   6.460  0.7694 -0.5569  0.0732
   31SOL     hw  123   4.150   5.681   6.376  0.1023  1.6862  0.8543
   31SOL     vw  124   4.227   5.649   6.398 -0.2120  0.4268  0.2000
   32SOL     ow  125   4.544   6.356   0.566  0.3217 -0.0201  0.2528
   32SOL     hw  126   4.610   6.287   0.560 -0.6182 -0.8506 -0.9748
   32SOL     hw  127   4.524   6.378   0.475 -3.0152 -1.7432  0.4050
   32SOL     vw  128   4.550   6.349   0.553 -0.2427 -0.3572  0.1109
   33SOL     ow  129   4.460   1.925   2.911 -0.4439 -0.0762 -0.5336
   33SOL     hw  130   4.448   1.948   2.819 -0.4623 -0.9912 -0.7707
   33SOL     hw  131   4.500   2.003   2.951  0.1196  0.1159 -1.4428
   33SOL     vw  132   4.464   1.938   2.905 -0.3719 -0.1715 -0.6847
   34SOL     ow  133   5.579   4.421   1.975  0.6015 -0.5687  0.2274
   34SOL     hw  134   5.642   4.488   1.948  1.3521 -2.3215 -2.7451
   34SOL     hw  135   5.512   4.470   2.023 -0.0492  2.7731 -3.5883
   34SOL     vw  136   5.579   4.436   1.978  0.6146 -0.3591 -0.6682
   35SOL     ow  137   3.044   0.446   5.206  0.2091  0.0711  0.7886
   35SOL     hw  138   3.050   0.541   5.211  1.4601  0.0117  0.7996
   35SOL     hw  139   3.045   0.426   5.113  3.0339 -0.0372  0.7538
   35SOL     vw  140   3.045   0.456   5.195  0.7470  0.0490  0.7854
   36SOL     ow  141   6.319   4.126   6.117 -0.5154  0.2501 -0.4146
   36SOL     hw  142   6.284   4.137   6.029  0.1745 -1.3863 -0.9184
   36SOL     hw  143   6.399   4.075   6.106 -0.7009 -0.4634  1.2045
   36SOL     vw  144   6.325   4.121   6.104 -0.4489 -0.0598 -0.2677
   37SOL     ow  145   4.519   3.670   2.503 -0.3145  0.1666 -0.2185
   37SOL     hw  146   4.532   3.648   2.411 -1.0280 -1.1837 -0.0287
   37SOL     hw  147   4.449   3.735   2.503 -0.3030  0.1816 -0.6197
   37SOL     vw  148   4.512   3.676   2.491 -0.4072 -0.0095 -0.2465
   38SOL     ow  149   5.893   3.992   4.456 -0.8694  0.2812 -0.0295
   38SOL     hw  150   5.933   3.974   4.372 -1.6552 -0.2530 -0.3016
   38SOL     hw  151   5.801   3.968   4.445 -1.2174  1.2365  0.6488
   38SOL     vw  152   5.886   3.986   4.444 -1.0192  0.3368  0.0243
   39SOL     ow  153   3.114   2.619   4.980 -0.0903  0.8614  0.1848
   39SOL     hw  154   3.031   2.664   4.998 -0.4268  0.3919 -0.1607
   39SOL     hw  155   3.088   2.538   4.937  0.6336  1.6222 -1.8282
   39SOL     vw  156   3.100   2.614   4.977 -0.0390  0.8999 -0.1264
   40SOL     ow  157   2.652   0.197   1.012 -0.4879  0.4670  0.1400
   40SOL     hw  158   2.601   0.182   0.932  0.0838  1.7613 -0.5025
   40SOL     hw  159   2.602   0.155   1.081  0.1979 -2.9008 -1.1941
   40SOL     vw  160   2.639   0.189   1.011 -0.3220  0.1934 -0.1208
   41SOL     ow  161   4.500   0.718   3.463 -0.1707 -0.4272 -0.0700
   41SOL     hw  162   4.407   0.740   3.459 -0.1413 -0.3405 -0.2956
   41SOL     hw  163   4.544   0.800   3.483  0.1803  0.3678 -3.4201
   41SOL     vw  164   4.493   0.732   3.465 -0.1206 -0.3108 -0.5418
   42SOL     ow  165   3.279   6.417   5.644  0.3137  0.1207 -0.3129
   42SOL     hw  166   3.282   6.382   5.555 -0.4480  3.1526 -1.6469
   42SOL     hw  167   3.190   6.400   5.674  0.4212 -0.4521 -0.3071
   42SOL     vw  168   3.268   6.410   5.636  0.2273  0.4454 -0.4880
   43SOL     ow  169   3.752   4.690   5.693 -0.3629 -0.0034 -0.3685
   43SOL     hw  170   3.834   4.685   5.742  1.7191 -0.5758 -3.5546
   43SOL     hw  171   3.777   4.666   5.604 -3.6941  1.5909 -1.9014
   43SOL     vw  172   3.766   4.686   5.688 -0.5276  0.1311 -0.9911
   44SOL     ow  173   0.399   5.497   1.345 -0.3670 -0.4172 -0.3495
   44SOL     hw  174   0.402   5.585   1.382  0.2421 -0.4049 -0.4180
   44SOL     hw  175   0.465   5.449   1.393 -0.6451 -0.8226 -0.3652
   44SOL     vw  176   0.408   5.502   1.356 -0.3233 -0.4690 -0.3605
   45SOL     ow  177   6.609   1.070   0.649 -0.1930 -0.0671  0.2944
   45SOL     hw  178   6.568   1.015   0.583  0.2471 -1.1330  0.8824
   45SOL     hw  179   6.661   1.010   0.702 -1.8491  0.4477  2.6592
   45SOL     vw  180   6.610   1.055   0.647 -0.3536 -0.1398  0.6840
   46SOL     ow  181   2.327   2.876   2.872  0.5028  0.0772  0.4364
   46SOL     hw  182   2.274   2.926   2.934  0.0142  1.0055 -0.6817
   46SOL     hw  183   2.410   2.924   2.867 -0.3158  1.4073 -1.3658
   46SOL     vw  184   2.331   2.889   2.880  0.3304  0.3750  0.0510
   47SOL     ow  185   3.989   1.238   1.149 -0.7254 -0.2340 -0.1288
   47SOL     hw  186   4.017   1.153   1.184 -0.3698 -0.1686 -0.2586
   47SOL     hw  187   3.897   1.224   1.125 -0.1955 -1.0777 -1.7625
   47SOL     vw  188   3.980   1.225   1.151 -0.6086 -0.3366 -0.3615
   48SOL     ow  189   2.300   2.462   1.444  0.6095  0.4116 -0.5494
   48SOL     hw  190   2.377   2.406   1.448  1.1665  1.2182  0.9300
   48SOL     hw  191   2.298   2.493   1.354  1.3393 -0.5247 -0.9115
   48SOL     vw  192   2.310   2.459   1.433  0.7794  0.3946 -0.4020
   49SOL     ow  193   3.376   6.715   5.721 -0.1517  0.7664  0.0737
   49SOL     hw  194   3.393   6.789   5.778  1.1172  0.7605 -0.2740
   49SOL     hw  195   3.327   6.752   5.648 -0.1856  1.1162  0.2701
   49SOL     vw  196   3.372   6.729   5.719  0.0112  0.8118  0.0539
   50SOL     ow  197   0.990   1.051   1.282  0.5944  0.1410  0.2799
   50SOL     hw  198   1.056   0.986   1.307  3.7765  3.4539  1.5668
   50SOL     hw  199   0.995   1.055   1.186 -0.2907 -1.9634  0.0995
   50SOL     vw  200   1.000   1.043   1.273  0.8974  0.3004  0.4260
   51SOL     ow  201   4.116   5.150   2.751 -0.3903 -0.5240 -0.6385
   51SOL     hw  202   4.096   5.154   2.657 -0.2644 -1.9744 -0.7491
   51SOL     hw  203   4.187   5.213   2.762 -1.0125  0.3336 -1.3334
   51SOL     vw  204   4.123   5.159   2.740 -0.4556 -0.6022 -0.7447
   52SOL     ow  205   6.186   5.970   3.477 -0.2386  0.6598  0.2691
   52SOL     hw  206   6.246   5.999   3.546  0.6478  0.7170 -0.4978
   52SOL     hw  207   6.124   6.042   3.467  0.2374  1.0861  0.3229
   52SOL     vw  208   6.186   5.984   3.485 -0.0591  0.7238  0.1750
   53SOL     ow  209   3.102   1.025   4.888 -0.3684  0.2731 -0.7801
   53SOL     hw  210   3.153   0.953   4.849 -1.5493 -1.1054  0.0879
   53SOL     hw  211   3.165   1.094   4.903  1.9002 -2.1887  2.4837
   53SOL     vw  212   3.117   1.024   4.885 -0.2248 -0.2336 -0.2351
   54SOL     ow  213   2.566   0.962   0.330 -0.3856 -0.7267  0.5847
   54SOL     hw  214   2.611   0.878   0.333 -0.2219 -0.8008 -1.9842
   54SOL     hw  215   2.578   0.994   0.241  0.7479  2.7461  1.8063
   54SOL     vw  216   2.573   0.955   0.319 -0.2145 -0.2783  0.4069
   55SOL     ow  217   1.587   3.365   0.320 -0.4831  0.0107  0.2765
   55SOL     hw  218   1.635   3.364   0.403 -0.0390  0.9060  0.0468
   55SOL     hw  219   1.627   3.295   0.269 -0.4646 -0.2611  0.6546
   55SOL     vw  220   1.598   3.356   0.324 -0.4221  0.0929  0.2961
   56SOL     ow  221   2.757   0.036   0.461  0.0209 -0.5087 -0.2460
   56SOL     hw  222   2.678   0.083   0.490 -0.0530 -1.4037  1.0408
   56SOL     hw  223   2.797   0.003   0.541  1.6559 -0.1934 -0.8959
   56SOL     vw  224   2.752   0.038   0.475  0.2269 -0.5852 -0.1620
   57SOL     ow  225   6.471   0.746   5.705  0.3443 -0.1202 -0.1238
   57SOL     hw  226   6.419   0.797   5.768  0.5684 -1.1530  0.9310
   57SOL     hw  227   6.430   0.660   5.705  1.4950 -0.6854  0.0371
   57SOL     vw  228   6.458   0.742   5.714  0.5257 -0.3310  0.0367
   58SOL     ow  229   6.068   4.459   4.226  0.0620 -0.0613 -0.5958
   58SOL     hw  230   6.123   4.381   4.231 -0.6316 -0.5053  0.3598
   58SOL     hw  231   6.126   4.527   4.192  0.7829 -0.8904 -1.0648
   58SOL     vw  232   6.083   4.457   4.222  0.0658 -0.2289 -0.5317
   59SOL     ow  233   3.729   0.874   4.641  0.2463  0.3952 -0.3240
   59SOL     hw  234   3.670   0.932   4.690 -1.2695  0.1351 -1.7628
   59SOL     hw  235   3.796   0.932   4.605  0.8816  0.7039  1.2808
   59SOL     vw  236   3.730   0.889   4.643  0.1301  0.4016 -0.3018
   60SOL     ow  237   3.856   4.090   1.627 -0.1409 -0.1011 -0.4198
   60SOL     hw  238   3.905   4.163   1.587 -0.0508  0.5769  0.8533
   60SOL     hw  239   3.767   4.123   1.634  0.0438  0.1922  0.8070
   60SOL     vw  240   3.851   4.104   1.623 -0.1045  0.0272 -0.0900
   61SOL     ow  241   5.171   0.567   5.068 -0.2075 -0.1880 -0.4150
   61SOL     hw  242   5.161   0.496   5.132  1.3947 -0.3673 -0.3342
   61SOL     hw  243   5.210   0.525   4.991 -1.4748  0.1624 -1.2734
   61SOL     vw  244   5.175   0.552   5.066 -0.1636 -0.1655 -0.5174
   62SOL     ow  245   2.953   5.933   1.424 -0.4187  0.4435 -0.6017
   62SOL     hw  246   2.879   5.878   1.452 -0.6619  1.6646  1.3122
   62SOL     hw  247   2.925   6.022   1.445  0.8736  1.1053 -1.5882
   62SOL     vw  248   2.939   5.937   1.430 -0.2804  0.6919 -0.4793
   63SOL     ow  249   2.930   3.800   1.721 -0.0734 -0.1289 -0.6037
   63SOL     hw  250   3.002   3.793   1.783 -0.5493 -1.8116 -0.1756
   63SOL     hw  251   2.885   3.881   1.744  2.4033  1.6842 -1.7388
   63SOL     vw  252   2.933   3.810   1.732  0.1905 -0.1116 -0.6970
   64SOL     ow  253   1.677   6.412   1.130  0.2438  0.4461 -0.3081
   64SOL     hw  254   1.678   6.405   1.226 -1.0910 -1.7703 -0.3610
   64SOL     hw  255   1.767   6.395   1.104  0.5993  0.9486  0.5431
   64SOL     vw  256   1.689   6.409   1.139  0.1146  0.2198 -0.2027
   65SOL     ow  257   0.341   3.467   5.192  0.1088 -0.0170  0.0378
   65SOL     hw  258   0.257   3.511   5.208  1.1466  2.3431 -0.5008
   65SOL     hw  259   0.344   3.457   5.096  1.2202  1.7619 -0.1685
   65SOL     vw  260   0.330   3.472   5.181  0.3924  0.5289 -0.0606
   66SOL     ow  261   2.198   3.881   2.966  0.0169 -0.6660 -0.3475
   66SOL     hw  262   2.137   3.824   2.919 -0.8099  0.1839 -0.3486
   66SOL     hw  263   2.142   3.947   3.006  1.0641  1.3939 -2.0487
   66SOL     vw  264   2.183   3.882   2.965  0.0459 -0.2820 -0.5720
   67SOL     ow  265   6.605   2.132   1.009 -0.1889  0.3507 -0.4207
   67SOL     hw  266   6.627   2.093   1.094  1.2965  0.9333 -0.4997
   67SOL     hw  267   6.609   2.060   0.947 -3.1012 -0.4719  0.2005
   67SOL     vw  268   6.608   2.118   1.012 -0.3774  0.3190 -0.3492
   68SOL     ow  269   6.582   4.083   2.417  0.8926  0.3558 -0.1760
   68SOL     hw  270   6.642   4.083   2.492  2.3981 -0.5104 -1.3172
   68SOL     hw  271   6.583   3.993   2.386 -0.8536  0.3827 -0.3732
   68SOL     vw  272   6.590   4.071   2.423  0.8607  0.2453 -0.3526
   69SOL     ow  273   3.622   1.124   5.103  0.1944  0.1692 -0.2021
   69SOL     hw  274   3.564   1.075   5.045  0.2887  0.1926 -0.3178
   69SOL     hw  275   3.563   1.175   5.158 -0.1907 -3.3700  3.0701
   69SOL     vw  276   3.606   1.125   5.103  0.1562 -0.2946  0.2143
   70SOL     ow  277   5.233   2.142   5.148 -0.1744 -0.0859  0.1060
   70SOL     hw  278   5.167   2.208   5.170  1.0863  1.6710 -1.1069
   70SOL     hw  279   5.202   2.062   5.190 -1.8957  1.2064  1.4406
   70SOL     vw  280   5.220   2.140   5.156 -0.2348  0.3165  0.1218
   71SOL     ow  281   5.011   1.914   1.518  1.1718 -1.0141  0.5386
   71SOL     hw  282   5.035   1.849   1.584 -1.2778 -3.4158 -0.7263
   71SOL     hw  283   5.046   1.879   1.436  1.2172  0.1296  0.0564
   71SOL     vw  284   5.019   1.901   1.516  0.8545 -1.1801  0.3081
   72SOL     ow  285   2.933   2.925   4.513 -0.4371 -0.4813 -0.0173
   72SOL     hw  286   2.923   3.019   4.531  0.5549 -0.3594 -0.0398
   72SOL     hw  287   2.983   2.922   4.431  0.2187 -1.0270  0.3935
   72SOL     vw  288   2.938   2.937   4.505 -0.2197 -0.5372  0.0341
   73SOL     ow  289   5.895   2.557   2.503 -0.5989 -0.2845  0.4715
   73SOL     hw  290   5.832   2.574   2.433  1.2102  1.3649 -0.8720
   73SOL     hw  291   5.870   2.618   2.573 -0.9507 -0.1900  0.2649
   73SOL     vw  292   5.883   2.568   2.503 -0.4065 -0.0544  0.2669
   74SOL     ow  293   6.595   5.334   6.465  0.4460 -0.1861 -0.2755
   74SOL     hw  294   6.623   5.250   6.430 -2.0906 -1.1628 -0.1871
   74SOL     hw  295   6.499   5.330   6.463  0.1440  3.5846 -2.3998
   74SOL     vw  296   6.586   5.323   6.461  0.0718  0.1826 -0.5441
   75SOL     ow  297   4.755   6.486   0.722 -0.8603  0.1922  0.5429
   75SOL     hw  298   4.788   6.483   0.632 -1.4058  1.7697  0.2532
   75SOL     hw  299   4.794   6.410   0.764  0.5698  0.2156 -0.6451
   75SOL     vw  300   4.765   6.475   0.715 -0.7434  0.4034  0.3479
   76SOL     ow  301   5.546   4.207   2.190  0.1456 -0.6416  0.3337
   76SOL     hw  302   5.456   4.204   2.220  0.4711 -1.3262  1.2881
   76SOL     hw  303   5.589   4.133   2.234  1.2006 -0.2360  0.0248
   76SOL     vw  304   5.540   4.197   2.200  0.3278 -0.6785  0.4189
   77SOL     ow  305   5.719   6.440   3.832 -0.4385 -0.0352  0.4755
   77SOL     hw  306   5.766   6.517   3.866 -0.6773 -0.2951  1.4399
   77SOL     hw  307   5.778   6.402   3.767  0.3822  0.0486  1.1531
   77SOL     vw  308   5.733   6.445   3.828 -0.3619 -0.0584  0.6922
   78SOL     ow  309   2.196   3.029   2.621 -0.6436  0.7273  0.2027
   78SOL     hw  310   2.219   3.122   2.625  0.7879  0.5385 -2.0846
   78SOL     hw  311   2.130   3.024   2.552 -1.6603  0.1642  1.1812
   78SOL     vw  312   2.190   3.041   2.613 -0.5888  0.6281  0.0302
   79SOL     ow  313   5.107   0.946   1.207 -0.0684  0.4421 -0.6718
   79SOL     hw  314   5.193   0.914   1.233 -0.8348 -0.5405  0.8721
   79SOL     hw  315   5.070   0.876   1.154 -0.0598  0.6928 -1.0085
   79SOL     vw  316   5.113   0.933   1.204 -0.1688  0.3456 -0.5125
   80SOL     ow  317   5.552   0.164   1.691  0.7106  0.2562  0.4293
   80SOL     hw  318   5.637   0.204   1.711  0.7325  0.3297  0.1889
   80SOL     hw  319   5.518   0.214   1.617  0.4158  0.2842  0.5837
   80SOL     vw  320   5.559   0.176   1.684  0.6747  0.2696  0.4179
   81SOL     ow  321   1.326   0.595   5.588  0.1449  0.8339  0.3185
   81SOL     hw  322   1.286   0.681   5.569  2.7300  1.9549 -0.5246
   81SOL     hw  323   1.299   0.576   5.678 -0.9268  2.2889  0.3517
   81SOL     vw  324   1.317   0.604   5.597  0.3446  1.1737  0.2115
   82SOL     ow  325   2.171   0.272   3.266  0.2932  0.4290 -0.0746
   82SOL     hw  326   2.226   0.245   3.193 -0.6828 -1.5296 -0.1445
   82SOL     hw  327   2.091   0.221   3.256 -0.1984  0.7396  1.9055
   82SOL     vw  328   2.168   0.262   3.255  0.0997  0.2116  0.1774
   83SOL     ow  329   4.698   2.507   3.989  0.0653  0.0440  0.1379
   83SOL     hw  330   4.694   2.555   3.906 -1.5359  1.2607  0.8610
   83SOL     hw  331   4.755   2.432   3.971  0.4523  0.7497 -1.8039
   83SOL     vw  332   4.705   2.503   3.976 -0.0949  0.2977 -0.0228
   84SOL     ow  333   2.696   4.495   5.860  0.0573 -1.0491 -0.8948
   84SOL     hw  334   2.753   4.561   5.898 -0.0249 -1.0782 -0.7190
   84SOL     hw  335   2.744   4.461   5.785  1.3532 -2.8119  0.6384
   84SOL     vw  336   2.710   4.499   5.855  0.2173 -1.2853 -0.6695
   85SOL     ow  337   6.455   3.378   6.642  0.2516 -0.0307  0.5815
   85SOL     hw  338   6.404   3.306   6.604 -0.3028  0.3226  0.6432
   85SOL     hw  339   6.477   3.347   6.730 -1.3261  0.4820  1.1923
   85SOL     vw  340   6.451   3.364   6.649 -0.0298  0.0837  0.6702
   86SOL     ow  341   0.087   4.508   1.075 -0.2501  0.4506  0.1711
   86SOL     hw  342   0.083   4.528   0.982 -2.4115  0.4558  0.2130
   86SOL     hw  343   0.019   4.442   1.089 -0.1938  0.6788  1.7947
   86SOL     vw  344   0.078   4.502   1.065 -0.5279  0.4814  0.3908
   87SOL     ow  345   5.194   5.616   2.901 -0.2774  0.1941  0.0450
   87SOL     hw  346   5.272   5.562   2.893 -1.2217 -1.1625 -0.2723
   87SOL     hw  347   5.148   5.582   2.977 -0.6136  0.9355  0.1881
   87SOL     vw  348   5.198   5.604   2.910 -0.4463  0.1130  0.0219
   88SOL     ow  349   5.907   0.454   5.246 -0.3133  0.2358 -0.0544
   88SOL     hw  350   5.994   0.448   5.285 -0.8108  1.0564  1.2246
   88SOL     hw  351   5.919   0.512   5.170  0.3973 -0.3005 -0.3652
   88SOL     vw  352   5.920   0.461   5.241 -0.2851  0.2733  0.0734
   89SOL     ow  353   4.855   1.409   2.499 -0.1388 -0.6993 -0.0581
   89SOL     hw  354   4.853   1.479   2.564 -1.0536 -0.9553  0.1994
   89SOL     hw  355   4.869   1.329   2.551  0.7294 -0.7315 -0.3335
   89SOL     vw  356   4.856   1.408   2.515 -0.1450 -0.7374 -0.0604
   90SOL     ow  357   2.178   5.730   5.699  0.2328  0.0101 -0.2030
   90SOL     hw  358   2.214   5.685   5.623 -1.6665  0.0406 -1.1716
   90SOL     hw  359   2.101   5.776   5.666  1.2755  2.8552  1.0516
   90SOL     vw  360   2.172   5.730   5.685  0.1198  0.3896 -0.1652
   91SOL     ow  361   5.433   1.826   5.267 -0.5060  0.2612  0.3657
   91SOL     hw  362   5.359   1.881   5.295 -0.9224  1.4031 -2.5679
   91SOL     hw  363   5.392   1.749   5.227 -0.2806  1.2390 -1.9539
   91SOL     vw  364   5.418   1.823   5.265 -0.5312  0.5409 -0.3271
   92SOL     ow  365   6.393   5.858   3.295  0.4872  0.0495  0.1552
   92SOL     hw  366   6.456   5.917   3.337  1.0744 -1.3832  1.3604
   92SOL     hw  367   6.441   5.818   3.222  1.1159 -1.2487  1.2391
   92SOL     vw  368   6.407   5.861   3.291  0.6475 -0.3109  0.4572
   93SOL     ow  369   3.223   3.915   5.809  0.9850  0.3298  0.2861
   93SOL     hw  370   3.311   3.893   5.780  1.3406  2.4288 -0.3920
   93SOL     hw  371   3.223   3.896   5.903  3.1578  2.9933  0.9580
   93SOL     vw  372   3.234   3.910   5.817  1.3186  0.9582  0.2849
   94SOL     ow  373   3.009   1.465   0.054  0.0068 -0.2588 -0.5963
   94SOL     hw  374   2.971   1.471  -0.034 -1.3161 -0.0905 -0.0448
   94SOL     hw  375   2.944   1.506   0.111  0.3393 -1.3307  0.6098
   94SOL     vw  376   2.995   1.471   0.050 -0.1240 -0.3781 -0.3644
   95SOL     ow  377   1.721   6.357   1.404 -0.0707 -0.4156  0.0096
   95SOL     hw  378   1.816   6.368   1.396  0.2096 -3.0888 -1.5914
   95SOL     hw  379   1.711   6.283   1.464 -1.1627 -0.1953  0.1211
   95SOL     vw  380   1.732   6.349   1.411 -0.1778 -0.7391 -0.1870
   96SOL     ow  381   2.159   5.448   4.880  0.1199 -0.7261  0.1694
   96SOL     hw  382   2.131   5.424   4.792 -0.9510 -0.1304  0.3170
   96SOL     hw  383   2.084   5.424   4.935  0.4599 -0.3679  0.7953
   96SOL     vw  384   2.145   5.442   4.876  0.0236 -0.6003  0.2713
   97SOL     ow  385   3.332   5.229   2.665 -0.1324  0.1746  0.1557
   97SOL     hw  386   3.307   5.141   2.691  0.2675 -0.1292 -0.4668
   97SOL     hw  387   3.427   5.233   2.679 -0.2237  0.6797  0.6751
   97SOL     vw  388   3.342   5.218   2.670 -0.0918  0.2012  0.1421
   98SOL     ow  389   6.555   2.283   4.935 -0.3220  0.0626 -0.3685
   98SOL     hw  390   6.628   2.277   4.996 -1.7620 -0.3103  1.4227
   98SOL     hw  391   6.554   2.199   4.890 -0.8765 -0.8114  1.1634
   98SOL     vw  392   6.565   2.272   4.937 -0.5853 -0.1019  0.0703
   99SOL     ow  393   4.152   3.009   4.225 -0.5172  0.1115  0.1150
   99SOL     hw  394   4.142   2.997   4.131 -2.1508 -1.7103  0.4587
   99SOL     hw  395   4.244   3.036   4.237  0.5177 -2.2583 -1.7870
   99SOL     vw  396   4.163   3.011   4.215 -0.5963 -0.4414 -0.0906
  100SOL     ow  397   0.288   6.063   1.494  0.4625  1.3683 -0.4436
  100SOL     hw  398   0.338   6.002   1.548 -0.9993  1.8343  1.5167
  100SOL     hw  399   0.227   6.008   1.446 -0.4777  1.1822  0.9084
  100SOL     vw  400   0.287   6.048   1.495  0.1456  1.4050 -0.0066
  101SOL     ow  401   6.529   4.175   5.385 -0.1888 -0.2943  0.0388
  101SOL     hw  402   6.585   4.252   5.392  1.7553 -1.3971 -1.9746
  101SOL     hw  403   6.454   4.194   5.441  0.2791  2.9630 -0.2697
  101SOL     vw  404   6.526   4.187   5.394  0.1297 -0.0103 -0.2675
  102SOL     ow  405   0.688   2.917   0.924 -0.0833 -0.1142 -0.5616
  102SOL     hw  406   0.764   2.967   0.894 -1.4099  1.7194 -1.0484
  102SOL     hw  407   0.710   2.890   1.013  0.5736  1.6394 -0.1521
  102SOL     vw  408   0.701   2.920   0.932 -0.1717  0.3592 -0.5718
  103SOL     ow  409   0.988   2.071   4.266  0.0644 -0.0447  0.4579
  103SOL     hw  410   1.067   2.122   4.278  0.7949 -0.8258 -0.8254
  103SOL     hw  411   0.958   2.052   4.355  0.2539  1.8116  0.9648
  103SOL     vw  412   0.994   2.075   4.279  0.1858  0.0972  0.3555
  104SOL     ow  413   1.820   1.364   5.882 -0.3119  0.2455  0.1912
  104SOL     hw  414   1.784   1.438   5.833  1.3096 -0.9166 -3.0673
  104SOL     hw  415   1.775   1.288   5.844  1.0507 -0.7210  0.4570
  104SOL     vw  416   1.809   1.363   5.870  0.0818 -0.0353 -0.2036
  105SOL     ow  417   6.218   4.203   3.344  0.4331 -0.4659  0.4496
  105SOL     hw  418   6.183   4.242   3.264 -1.7185  1.1512  2.0661
  105SOL     hw  419   6.148   4.145   3.375  1.7322 -2.0472  0.5622
  105SOL     vw  420   6.204   4.200   3.337  0.3209 -0.4611  0.6778
  106SOL     ow  421   1.495   2.118   3.083 -0.0036  0.3058  0.4865
  106SOL     hw  422   1.498   2.201   3.035 -0.1238  1.1471  1.8715
  106SOL     hw  423   1.585   2.085   3.078 -0.0905  0.2072 -0.5800
  106SOL     vw  424   1.507   2.125   3.076 -0.0309  0.4038  0.5285
  107SOL     ow  425   1.589   3.016   3.150 -0.1930  0.0788  0.2885
  107SOL     hw  426   1.516   3.006   3.089 -0.1299 -1.4490  0.4274
  107SOL     hw  427   1.654   3.066   3.101 -1.1443  1.1065  0.0212
  107SOL     vw  428   1.588   3.021   3.135 -0.3102  0.0129  0.2716
  108SOL     ow  429   3.068   5.559   6.057  0.1276 -0.3115  0.1541
  108SOL     hw  430   3.156   5.585   6.081 -0.5694  1.5589  0.8331
  108SOL     hw  431   3.014   5.579   6.133 -1.1011 -0.1862 -0.7065
  108SOL     vw  432   3.072   5.565   6.070 -0.1265 -0.0484  0.1302
  109SOL     ow  433   0.545   6.217   3.870  0.5826  0.2540  0.3307
  109SOL     hw  434   0.541   6.219   3.775 -1.6575  0.1440  0.3562
  109SOL     hw  435   0.589   6.298   3.895 -1.7254  1.9445 -0.7724
  109SOL     vw  436   0.550   6.228   3.861 -0.0175  0.4628  0.1885
  110SOL     ow  437   4.899   3.060   6.060 -0.2835 -0.5011 -0.4832
  110SOL     hw  438   4.925   3.028   6.146 -1.8623 -3.4292 -0.9750
  110SOL     hw  439   4.937   3.148   6.055  2.9741 -1.5754  1.7163
  110SOL     vw  440   4.908   3.068   6.071 -0.0622 -1.0291 -0.2580
  111SOL     ow  441   6.248   6.130   1.812  0.4585 -0.4958  0.0173
  111SOL     hw  442   6.180   6.122   1.880  1.2651  1.2139  1.0884
  111SOL     hw  443   6.320   6.076   1.845  0.8245  0.2792  0.4982
  111SOL     vw  444   6.248   6.122   1.826  0.6135 -0.1681  0.2221
  112SOL     ow  445   4.879   4.828   4.624  0.0562  0.4370  0.5037
  112SOL     hw  446   4.883   4.838   4.529  0.0429 -0.6379  0.3783
  112SOL     hw  447   4.823   4.899   4.653 -2.2826 -0.8403 -0.5969
  112SOL     vw  448   4.872   4.839   4.615 -0.2539  0.1266  0.3419
  113SOL     ow  449   1.787   5.582   0.676  0.7930  0.1340  0.4328
  113SOL     hw  450   1.868   5.607   0.719  0.1097 -1.6024  2.9286
  113SOL     hw  451   1.797   5.489   0.656 -0.9008 -0.3765  1.7192
  113SOL     vw  452   1.799   5.573   0.679  0.4794 -0.1628  0.9318
  114SOL     ow  453   6.699   1.578   5.118 -0.0579 -0.1431 -0.3741
  114SOL     hw  454   6.701   1.491   5.158 -1.8306 -0.9784 -1.9550
  114SOL     hw  455   6.774   1.624   5.156  0.1118 -1.8710  1.5508
  114SOL     vw  456   6.709   1.573   5.128 -0.2694 -0.4812 -0.3288
  115SOL     ow  457   6.101   3.041   6.039  0.0194 -0.1048 -0.4763
  115SOL     hw  458   6.077   3.130   6.067  0.3978 -0.1024 -0.1450
  115SOL     hw  459   6.121   3.049   5.946 -0.2178  0.1028 -0.5095
  115SOL     vw  460   6.100   3.054   6.031  0.0377 -0.0769 -0.4370
  116SOL     ow  461   4.413   6.500   3.175  0.4445  0.1758 -0.1151
  116SOL     hw  462   4.418   6.413   3.214  0.8775  0.6833  1.0281
  116SOL     hw  463   4.370   6.487   3.091 -3.4204 -0.6234  1.7710
  116SOL     vw  464   4.408   6.487   3.169 -0.0083  0.1376  0.2846
  117SOL     ow  465   4.958   4.535   4.236  0.0231 -0.1926 -0.5996
  117SOL     hw  466   4.908   4.608   4.201  2.6622  1.1842 -1.8045
  117SOL     hw  467   4.913   4.512   4.318 -1.3926  2.1922 -0.6146
  117SOL     vw  468   4.946   4.541   4.242  0.1843  0.3040 -0.7606
  118SOL     ow  469   5.208   2.236   4.881 -0.4317 -0.6903 -0.0292
  118SOL     hw  470   5.134   2.195   4.836 -1.6898 -0.6491  1.8805
  118SOL     hw  471   5.198   2.330   4.862 -0.7861 -0.6984  0.1093
  118SOL     vw  472   5.197   2.243   4.872 -0.6444 -0.6859  0.2410
  119SOL     ow  473   1.841   0.088   0.163 -0.3255  0.4114 -0.1040
  119SOL     hw  474   1.883   0.008   0.196  1.8894  1.5295 -0.0334
  119SOL     hw  475   1.774   0.056   0.103 -0.4313 -1.5194  0.9540
  119SOL     vw  476   1.838   0.073   0.159 -0.0472  0.3042  0.0449
  120SOL     ow  477   1.425   1.616   0.997  0.5255 -0.4230  0.1480
  120SOL     hw  478   1.331   1.595   0.995  0.7876 -1.6346 -1.5365
  120SOL     hw  479   1.428   1.711   0.986 -0.5363 -0.0032  2.6930
  120SOL     vw  480   1.413   1.625   0.995  0.4200 -0.5276  0.2615
  121SOL     ow  481   4.132   3.805   5.045  0.1438 -0.4273  0.3476
  121SOL     hw  482   4.187   3.882   5.062  3.4614 -2.8072  1.6173
  121SOL     hw  483   4.123   3.804   4.950 -0.0309  1.5123  0.2929
  121SOL     vw  484   4.138   3.815   5.035  0.5586 -0.4853  0.5078
  122SOL     ow  485   4.517   0.541   6.695  0.1357  0.1775  0.4304
  122SOL     hw  486   4.446   0.478   6.700  0.5614 -0.3325  0.1585
  122SOL     hw  487   4.558   0.538   6.781 -0.3276  0.6699  0.6773
  122SOL     vw  488   4.513   0.532   6.707  0.1309  0.1752  0.4272
  123SOL     ow  489   4.081   6.688   4.611  0.3004  0.0907 -0.3400
  123SOL     hw  490   4.001   6.723   4.648 -0.6522 -0.6490 -1.6050
  123SOL     hw  491   4.073   6.593   4.622  0.5383 -0.0594 -1.3087
  123SOL     vw  492   4.070   6.680   4.617  0.2060 -0.0267 -0.6347
  124SOL     ow  493   1.333   4.950   2.807  0.1727 -0.5136  0.0853
  124SOL     hw  494   1.408   4.895   2.787  0.3937 -0.2620  0.2148
  124SOL     hw  495   1.336   4.961   2.902  1.6476  1.8285 -0.1365
  124SOL     vw  496   1.343   4.945   2.817  0.3964 -0.1712  0.0732
  125SOL     ow  497   2.315   2.814   4.347 -0.0239  0.8532  0.0983
  125SOL     hw  498   2.388   2.799   4.287  1.4632 -2.2417  2.3968
  125SOL     hw  499   2.331   2.900   4.384  0.3771  1.7697 -2.0629
  125SOL     vw  500   2.327   2.823   4.344  0.2253  0.5658  0.1166
  126SOL     ow  501   4.458   4.085   3.129  0.0612 -0.6533  0.3027
  126SOL     hw  502   4.529   4.115   3.186 -1.6394  1.2873  1.5256
  126SOL     hw  503   4.488   4.108   3.041  0.4478  1.4013  0.8973
  126SOL     vw  504   4.472   4.092   3.125 -0.1121 -0.1264  0.5424
  127SOL     ow  505   1.055   1.273   4.212  0.3198 -0.6190 -0.5214
  127SOL     hw  506   1.108   1.323   4.150 -1.7100  1.1104 -1.0055
  127SOL     hw  507   1.042   1.188   4.169  1.6040 -0.6181 -0.9530
  127SOL     vw  508   1.060   1.268   4.198  0.2214 -0.3908 -0.6423
  128SOL     ow  509   0.661   1.627   1.905  0.5831 -0.6630 -0.2105
  128SOL     hw  510   0.571   1.629   1.873  1.5910  3.3637 -3.6627
  128SOL     hw  511   0.700   1.551   1.862 -0.4211 -0.6110 -1.2384
  128SOL     vw  512   0.654   1.617   1.895  0.5836 -0.1248 -0.8016
  129SOL     ow  513   5.240   0.764   1.815  0.3127  0.0354  0.3797
  129SOL     hw  514   5.170   0.736   1.874  2.2132 -2.9278  1.4194
  129SOL     hw  515   5.313   0.785   1.872  1.4508 -0.5818 -0.8068
  129SOL     vw  516   5.240   0.763   1.830  0.7136 -0.4370  0.3604
  130SOL     ow  517   0.922   0.011   5.127 -0.3408 -0.3673 -0.0159
  130SOL     hw  518   0.904   0.103   5.146  3.0472  0.0941  1.7905
  130SOL     hw  519   0.911   0.003   5.032  1.4133  2.5543 -0.5785
  130SOL     vw  520   0.918   0.022   5.117  0.3376  0.0790  0.1481
  131SOL     ow  521   5.813   4.811   0.060 -0.3294  0.6045  0.1090
  131SOL     hw  522   5.825   4.732   0.112 -0.0669  0.3733 -0.3018
  131SOL     hw  523   5.825   4.783  -0.031 -0.1192  1.1343 -0.0322
  131SOL     vw  524   5.816   4.797   0.055 -0.2668  0.6440  0.0362
  132SOL     ow  525   5.610   4.371   5.770  0.7786 -0.0710  0.6536
  132SOL     hw  526   5.634   4.421   5.692  2.2530  1.4079  1.9889
  132SOL     hw  527   5.619   4.433   5.843 -1.1162 -1.2392  1.9719
  132SOL     vw  528   5.614   4.386   5.770  0.7231 -0.0300  1.0035
  133SOL     ow  529   4.715   4.980   2.798 -0.1080 -0.4864 -0.2612
  133SOL     hw  530   4.667   5.048   2.750  2.3007  0.6331 -1.2836
  133SOL     hw  531   4.697   4.899   2.749 -1.4006 -0.2326 -0.2372
  133SOL     vw  532   4.707   4.978   2.785  0.0393 -0.3052 -0.3928
  134SOL     ow  533   4.440   3.936   5.860  0.3453  0.0735 -0.1264
  134SOL     hw  534   4.345   3.924   5.849 -0.0112  2.8384 -0.9257
  134SOL     hw  535   4.452   3.942   5.955 -0.2191 -0.5587 -0.0062
  134SOL     vw  536   4.429   3.935   5.871  0.2241  0.3548 -0.2160
  135SOL     ow  537   0.948   3.951   2.539  0.1177  0.0091 -0.4006
  135SOL     hw  538   0.976   4.022   2.481  0.3229 -1.3405 -2.0310
  135SOL     hw  539   0.856   3.935   2.515  0.3851 -0.9683 -0.8344
  135SOL     vw  540   0.939   3.958   2.528  0.1801 -0.2979 -0.6729
  136SOL     ow  541   4.238   4.869   1.836  0.7409  0.5744  0.7462
  136SOL     hw  542   4.162   4.816   1.861  0.4718  0.4542 -0.2960
  136SOL     hw  543   4.202   4.954   1.811  0.8998  0.3875 -0.1422
  136SOL     vw  544   4.224   4.873   1.836  0.7265  0.5338  0.4915
  137SOL     ow  545   2.831   4.386   4.102  0.0479 -0.4558  0.1136
  137SOL     hw  546   2.831   4.431   4.187  5.1335 -0.2874  0.3177
  137SOL     hw  547   2.823   4.456   4.038 -0.2371 -0.2039  0.4195
  137SOL     vw  548   2.830   4.401   4.105  0.6812 -0.4003  0.1810
  138SOL     ow  549   0.300   0.324   4.361  0.2309  0.5927  0.6090
  138SOL     hw  550   0.207   0.338   4.342  0.1153  0.8180  1.3278
  138SOL     hw  551   0.310   0.228   4.362 -0.0152  0.5665  0.6316
  138SOL     vw  552   0.289   0.313   4.359  0.1832  0.6189  0.7071
  139SOL     ow  553   3.570   2.152   4.086  0.5691 -0.2955 -0.1060
  139SOL     hw  554   3.625   2.159   4.164  1.1939 -0.9571 -0.4802
  139SOL     hw  555   3.605   2.078   4.037  0.5837  0.4864 -1.3382
  139SOL     vw  556   3.582   2.143   4.090  0.6534 -0.2797 -0.3181
  140SOL     ow  557   0.868   3.015   2.334  0.5291 -0.0774 -0.1904
  140SOL     hw  558   0.907   3.020   2.247  0.8332 -1.0071 -0.1109
  140SOL     hw  559   0.852   3.107   2.358  0.0753  0.1674 -1.3817
  140SOL     vw  560   0.871   3.028   2.326  0.5093 -0.1677 -0.3371
  141SOL     ow  561   5.114   0.318   6.171 -0.4239  0.0448 -0.0449
  141SOL     hw  562   5.075   0.354   6.091  1.4968  1.0076 -0.5959
  141SOL     hw  563   5.169   0.389   6.204  1.3489 -1.4546  0.3409
  141SOL     vw  564   5.116   0.332   6.165  0.0634 -0.0260 -0.0665
  142SOL     ow  565   5.349   0.134   0.705 -0.4833 -0.1764 -0.1309
  142SOL     hw  566   5.339   0.039   0.714  1.0165 -0.2338  1.5546
  142SOL     hw  567   5.440   0.146   0.679 -1.0005  0.7914 -1.6554
  142SOL     vw  568   5.360   0.123   0.702 -0.3538 -0.0563 -0.1096
  143SOL     ow  569   5.297   2.229   4.166  0.9178 -0.2764  0.0500
  143SOL     hw  570   5.247   2.183   4.099 -0.5911  1.3676 -0.0283
  143SOL     hw  571   5.275   2.185   4.248 -0.4233  0.2152 -0.0336
  143SOL     vw  572   5.288   2.217   4.168  0.5417  0.0052  0.0286
  144SOL     ow  573   2.860   0.301   6.043 -0.1266  0.1190  0.2384
  144SOL     hw  574   2.940   0.253   6.019  0.5106  0.1247  2.1995
  144SOL     hw  575   2.856   0.373   5.980 -0.4863 -1.7913 -2.0603
  144SOL     vw  576   2.870   0.304   6.031 -0.0901 -0.1323  0.1936
  145SOL     ow  577   0.208   3.926   1.901 -0.2180 -0.3856  0.0271
  145SOL     hw  578   0.250   3.842   1.919  0.0205 -0.3693 -0.4256
  145SOL     hw  579   0.195   3.965   1.987  1.2021 -0.1401  0.1583
  145SOL     vw  580   0.212   3.920   1.914  0.0008 -0.3511 -0.0153
  146SOL     ow  581   3.769   2.956   2.246  0.0014 -0.3895 -0.6025
  146SOL     hw  582   3.773   2.897   2.170 -2.6483  0.7488 -1.7825
  146SOL     hw  583   3.696   2.923   2.298  1.1687 -0.5694  0.9846
  146SOL     vw  584   3.760   2.944   2.243 -0.1943 -0.2632 -0.5488
  147SOL     ow  585   5.052   4.272   4.131  0.4095 -0.6327  0.3560
  147SOL     hw  586   4.964   4.260   4.095  0.3360 -1.6531  0.8221
  147SOL     hw  587   5.075   4.186   4.166  1.5255 -0.3336  0.4024
  147SOL     vw  588   5.043   4.259   4.131  0.5467 -0.7274  0.4239
  148SOL     ow  589   4.767   3.964   0.175  0.1380 -0.3143 -0.1791
  148SOL     hw  590   4.766   4.053   0.139  0.7522 -0.5776 -0.8923
  148SOL     hw  591   4.778   3.976   0.269  0.3165  0.3658 -0.2813
  148SOL     vw  592   4.768   3.977   0.182  0.2425 -0.2594 -0.2867
  149SOL     ow  593   3.405   0.654   2.985  0.3908  0.5120 -0.5977
  149SOL     hw  594   3.422   0.625   2.896  1.3868 -0.2989 -0.1609
  149SOL     hw  595   3.341   0.592   3.019  0.3752  0.5328 -0.5889
  149SOL     vw  596   3.399   0.642   2.978  0.5203  0.4077 -0.5388
  150SOL     ow  597   0.825   5.739   0.411 -0.6656 -0.3249  0.5421
  150SOL     hw  598   0.919   5.739   0.395 -0.5381  0.2225  1.2476
  150SOL     hw  599   0.813   5.801   0.483 -1.4156 -1.3650  1.3401
  150SOL     vw  600   0.836   5.747   0.419 -0.7477 -0.3901  0.7405
  151SOL     ow  601   6.291   0.115   4.991 -0.0177  0.3411 -0.1773
  151SOL     hw  602   6.254   0.196   5.025 -0.2799 -0.3518  1.2674
  151SOL     hw  603   6.257   0.109   4.901  0.0806  1.8469 -0.3487
  151SOL     vw  604   6.281   0.125   4.983 -0.0391  0.4484 -0.0095
  152SOL     ow  605   3.489   1.142   5.771  0.5010 -0.2595  0.6290
  152SOL     hw  606   3.411   1.087   5.777 -1.3366  2.0381 -0.5511
  152SOL     hw  607   3.465   1.223   5.815  1.8962  0.8020 -0.4691
  152SOL     vw  608   3.475   1.145   5.777  0.4426  0.1836  0.3285
  153SOL     ow  609   6.108   3.279   2.020  0.0673 -0.0423 -0.4096
  153SOL     hw  610   6.116   3.189   1.988  2.5011 -0.3274  0.7534
  153SOL     hw  611   6.155   3.332   1.957 -2.0349  0.6200 -1.5271
  153SOL     vw  612   6.115   3.274   2.008  0.1111  0.0074 -0.4036
  154SOL     ow  613   2.311   2.840   0.506  0.7837 -0.2502 -0.6545
  154SOL     hw  614   2.368   2.791   0.565  3.2465  0.3736 -2.3420
  154SOL     hw  615   2.271   2.774   0.450 -1.7493 -0.8723  1.6591
  154SOL     vw  616   2.313   2.825   0.506  0.7744 -0.2500 -0.5719
  155SOL     ow  617   3.821   4.061   5.999 -0.1139 -0.1001 -0.1909
  155SOL     hw  618   3.792   4.032   5.912 -0.1076 -1.1546  0.1414
  155SOL     hw  619   3.742   4.055   6.053  0.3099 -1.3495  0.3214
  155SOL     vw  620   3.807   4.056   5.994 -0.0572 -0.4039 -0.0796
  156SOL     ow  621   4.955   2.390   2.045  0.0214 -0.0189  0.7979
  156SOL     hw  622   5.018   2.435   1.987 -0.9748 -0.3491 -0.6028
  156SOL     hw  623   4.871   2.432   2.025 -0.7944 -1.8893  0.0570
  156SOL     vw  624   4.953   2.402   2.035 -0.2177 -0.3092  0.5153
  157SOL     ow  625   0.021   4.804   1.053  0.4583  0.6010  0.5322
  157SOL     hw  626  -0.024   4.806   0.968  1.6341  2.7241 -0.1177
  157SOL     hw  627   0.048   4.895   1.067 -0.1779  0.4190  3.4738
  157SOL     vw  628   0.018   4.817   1.043  0.5293  0.8574  0.8346
  158SOL     ow  629   3.267   4.774   3.209  0.0039  0.0695 -0.2801
  158SOL     hw  630   3.258   4.842   3.276  2.7129 -0.6315  0.9583
  158SOL     hw  631   3.194   4.789   3.149 -0.7470  2.6726  1.1246
  158SOL     vw  632   3.256   4.785   3.210  0.2623  0.3207  0.0685
  159SOL     ow  633   5.063   0.670   4.265  0.2564 -0.3403 -0.4198
  159SOL     hw  634   5.112   0.712   4.337 -2.9948  0.4020  1.5450
  159SOL     hw  635   5.062   0.577   4.288  0.3757 -0.3028 -0.2554
  159SOL     vw  636   5.070   0.663   4.278 -0.1569 -0.2374 -0.1388
  160SOL     ow  637   0.275   3.456   3.597  0.0319 -0.5262  0.0085
  160SOL     hw  638   0.318   3.541   3.608 -0.0118 -0.2754 -1.5196
  160SOL     hw  639   0.277   3.440   3.502 -3.6196 -0.2916 -0.2577
  160SOL     vw  640   0.281   3.465   3.586 -0.4556 -0.4622 -0.2283
  161SOL     ow  641   4.440   4.541   4.867 -0.6037  0.0633 -0.4059
  161SOL     hw  642   4.438   4.619   4.811  1.3382 -0.1067 -0.8212
  161SOL     hw  643   4.460   4.574   4.954 -0.0954  0.0735 -0.5215
  161SOL     vw  644   4.443   4.555   4.871 -0.2806  0.0417 -0.4761
  162SOL     ow  645   6.735   0.647   5.589 -0.4938  0.3754 -0.1552
  162SOL     hw  646   6.809   0.651   5.650 -0.5004 -0.2444 -0.1028
  162SOL     hw  647   6.761   0.583   5.523 -0.9854  0.1544 -0.1373
  162SOL     vw  648   6.748   0.639   5.588 -0.5593  0.2645 -0.1459
  163SOL     ow  649   2.202   2.039   0.413  0.5628  0.4442 -0.3029
  163SOL     hw  650   2.287   2.012   0.377  1.0811  1.4554  0.1052
  163SOL     hw  651   2.205   2.135   0.411 -0.3653  0.4951  0.2101
  163SOL     vw  652   2.214   2.048   0.408  0.5087  0.5842 -0.1814
  164SOL     ow  653   1.852   0.781   1.229 -0.8855  0.0858  0.3736
  164SOL     hw  654   1.807   0.811   1.308 -1.0991 -2.8460  1.4702
  164SOL     hw  655   1.944   0.805   1.243 -1.3725  2.5894 -0.1216
  164SOL     vw  656   1.859   0.788   1.241 -0.9779  0.0293  0.4529
  165SOL     ow  657   2.087   3.389   2.394  0.0104 -0.2946  0.0292
  165SOL     hw  658   2.068   3.429   2.479  0.4677  0.3617 -0.1712
  165SOL     hw  659   2.048   3.449   2.331 -0.3137 -0.7722 -0.2372
  165SOL     vw  660   2.079   3.402   2.397  0.0280 -0.2711 -0.0324
  166SOL     ow  661   5.704   0.353   5.061 -0.9131  0.4804 -0.6045
  166SOL     hw  662   5.752   0.382   4.984 -0.3682  0.6277 -0.2191
  166SOL     hw  663   5.637   0.420   5.075 -0.3857  0.9602 -0.3810
  166SOL     vw  664   5.701   0.365   5.053 -0.7715  0.5631 -0.5243
  167SOL     ow  665   1.929   3.866   0.337 -0.2872  0.0966  0.0631
  167SOL     hw  666   1.953   3.773   0.335 -0.6321 -0.0030  0.4789
  167SOL     hw  667   1.867   3.873   0.409 -0.9568  0.4862 -0.5395
  167SOL     vw  668   1.924   3.855   0.346 -0.4210  0.1348  0.0385
  168SOL     ow  669   6.726   6.633   0.328  0.2233  0.3592 -0.4384
  168SOL     hw  670   6.688   6.555   0.368 -2.5982  0.8473 -1.8248
  168SOL     hw  671   6.788   6.599   0.263  1.1034 -0.5729  0.8470
  168SOL     vw  672   6.729   6.619   0.324 -0.0329  0.3006 -0.4518
  169SOL     ow  673   5.703   6.016   4.958 -0.4252 -0.2197 -0.7347
  169SOL     hw  674   5.788   5.974   4.949 -0.3207  0.0467 -1.0051
  169SOL     hw  675   5.670   6.024   4.869 -1.1980 -1.2452 -0.5612
  169SOL     vw  676   5.710   6.012   4.945 -0.5131 -0.3197 -0.7477
  170SOL     ow  677   0.282   3.906   1.215  0.6063 -0.4688  0.4261
  170SOL     hw  678   0.191   3.922   1.187  0.4508 -2.2755 -0.2253
  170SOL     hw  679   0.308   3.987   1.258 -1.6689 -0.2465  1.5499
  170SOL     vw  680   0.273   3.919   1.217  0.2856 -0.6779  0.4885
  171SOL     ow  681   2.380   3.173   6.178 -0.4769 -0.3916  0.0619
  171SOL     hw  682   2.451   3.144   6.236  0.4160  0.1343 -0.7453
  171SOL     hw  683   2.423   3.194   6.095 -1.1864  2.2664  0.2723
  171SOL     vw  684   2.395   3.172   6.175 -0.4526  0.0284 -0.0167
  172SOL     ow  685   5.721   0.658   0.694 -0.8493  0.5936 -0.4029
  172SOL     hw  686   5.693   0.672   0.784 -1.8597  0.3342 -0.6574
  172SOL     hw  687   5.700   0.740   0.649 -2.1343  0.0841 -0.7994
  172SOL     vw  688   5.715   0.671   0.700 -1.1523  0.4922 -0.4888
  173SOL     ow  689   2.780   6.636   2.076  0.0734  0.5238  0.0012
  173SOL     hw  690   2.787   6.728   2.100  2.2266  0.5085 -0.3553
  173SOL     hw  691   2.806   6.589   2.155  3.1871  0.3886 -0.9707
  173SOL     vw  692   2.784   6.642   2.089  0.7682  0.5040 -0.1743
  174SOL     ow  693   5.605   5.725   0.681  0.3236 -0.3738 -0.5280
  174SOL     hw  694   5.659   5.671   0.738  0.2155 -0.1172 -0.1801
  174SOL     hw  695   5.665   5.788   0.642  0.6082 -1.3011 -1.6219
  174SOL     vw  696   5.620   5.726   0.683  0.3469 -0.4623 -0.6264
  175SOL     ow  697   0.415   1.311   3.751 -0.6421 -0.1565  0.2702
  175SOL     hw  698   0.406   1.351   3.664  0.2774  1.3903  0.8381
  175SOL     hw  699   0.350   1.355   3.805 -2.6197 -2.5285 -0.0260
  175SOL     vw  700   0.405   1.322   3.746 -0.7817 -0.2653  0.3061
  176SOL     ow  701   0.103   6.456   2.763  0.4149 -0.1293 -0.0123
  176SOL     hw  702   0.039   6.390   2.738  0.3999 -0.3593  0.5972
  176SOL     hw  703   0.173   6.449   2.698  1.3526 -2.0920  1.0896
  176SOL     vw  704   0.104   6.446   2.751  0.5367 -0.4187  0.2135
  177SOL     ow  705   4.627   1.524   4.770 -0.0532  0.1893 -0.2602
  177SOL     hw  706   4.585   1.586   4.830 -1.0988  0.6360 -1.4031
  177SOL     hw  707   4.711   1.564   4.748 -0.4446  0.9077 -0.4776
  177SOL     vw  708   4.633   1.537   4.775 -0.2429  0.3431 -0.4396
  178SOL     ow  709   2.880   4.464   1.193 -0.7177  0.0709  0.0766
  178SOL     hw  710   2.969   4.462   1.229 -0.9626  4.6596  1.5032
  178SOL     hw  711   2.885   4.525   1.120 -2.6659  0.2238  0.0287
  178SOL     vw  712   2.893   4.472   1.188 -1.0068  0.6967  0.2585
  179SOL     ow  713   0.922   6.245   2.888 -0.1944  0.7983  0.1403
  179SOL     hw  714   0.987   6.314   2.905 -0.4135  1.2713 -0.8836
  179SOL     hw  715   0.975   6.168   2.866  0.0706  0.4221  1.9343
  179SOL     vw  716   0.938   6.244   2.888 -0.1883  0.8111  0.2418
  180SOL     ow  717   2.083   4.703   2.764 -0.5250 -0.3092 -0.3685
  180SOL     hw  718   2.149   4.641   2.795 -0.3784 -0.1432 -0.3412
  180SOL     hw  719   1.999   4.663   2.787 -0.4807  1.4239  3.6798
  180SOL     vw  720   2.081   4.690   2.771 -0.4997 -0.0587  0.1693
  181SOL     ow  721   4.521   4.757   1.763 -0.1169  0.5998 -0.3557
  181SOL     hw  722   4.519   4.792   1.673 -1.6159  2.0585  0.1975
  181SOL     hw  723   4.592   4.692   1.761  2.2706  3.0169 -1.7036
  181SOL     vw  724   4.530   4.753   1.751  0.0002  1.1108 -0.4606
  182SOL     ow  725   1.509   4.738   1.847  1.1007 -0.0039 -0.0548
  182SOL     hw  726   1.556   4.664   1.810  1.3855 -0.1014  0.5003
  182SOL     hw  727   1.435   4.698   1.894  0.2565  0.1612 -1.1894
  182SOL     vw  728   1.505   4.723   1.848  1.0269  0.0048 -0.1314
  183SOL     ow  729   3.836   2.381   1.193 -0.1844 -0.7367 -0.3792
  183SOL     hw  730   3.797   2.450   1.245 -0.1969 -0.4243 -0.8002
  183SOL     hw  731   3.873   2.320   1.258 -0.4913 -0.5273 -0.0037
  183SOL     vw  732   3.836   2.382   1.209 -0.2266 -0.6679 -0.3852
  184SOL     ow  733   5.564   2.647   5.948  0.2418 -0.0747 -0.0706
  184SOL     hw  734   5.594   2.556   5.943  2.0726  0.4215  1.0574
  184SOL     hw  735   5.549   2.673   5.857  3.0451 -0.4768 -0.7116
  184SOL     vw  736   5.566   2.639   5.936  0.8533 -0.0623 -0.0062
  185SOL     ow  737   0.763   1.648   2.218 -0.1206 -0.0754 -0.2387
  185SOL     hw  738   0.689   1.593   2.244  0.0217 -0.4615 -0.6481
  185SOL     hw  739   0.830   1.586   2.189  0.4164  0.2656  0.2521
  185SOL     vw  740   0.762   1.632   2.218 -0.0309 -0.0814 -0.2280
  186SOL     ow  741   1.177   1.692   0.635 -0.3397 -0.4686 -0.1561
  186SOL     hw  742   1.256   1.728   0.596 -0.1873  1.3485  1.6285
  186SOL     hw  743   1.205   1.610   0.676  0.5626  0.0162  0.2134
  186SOL     vw  744   1.191   1.686   0.635 -0.2006 -0.1649  0.1281
  187SOL     ow  745   1.859   4.317   0.807 -0.1649  0.0402 -0.2463
  187SOL     hw  746   1.813   4.401   0.803  1.5451  1.0853  0.8354
  187SOL     hw  747   1.910   4.313   0.727  1.2985  1.0071  0.6086
  187SOL     vw  748   1.859   4.327   0.796  0.2538  0.3057  0.0092
  188SOL     ow  749   5.414   0.982   6.746  0.1938  0.1126 -0.2170
  188SOL     hw  750   5.323   0.970   6.716 -0.1076  0.5914  0.4779
  188SOL     hw  751   5.420   1.076   6.764  0.7961  0.0615 -0.1405
  188SOL     vw  752   5.403   0.993   6.744  0.2334  0.1690 -0.1152
  189SOL     ow  753   6.634   2.209   2.156 -0.0266 -0.1906  0.5544
  189SOL     hw  754   6.609   2.130   2.204  1.8345 -2.4684 -1.9767
  189SOL     hw  755   6.724   2.226   2.182  0.0696  0.2174 -0.0290
  189SOL     vw  756   6.642   2.201   2.165  0.2317 -0.4373  0.1436
  190SOL     ow  757   2.157   4.876   4.694  0.6294 -0.7531  0.4073
  190SOL     hw  758   2.108   4.855   4.774 -0.6909  0.1952 -0.1119
  190SOL     hw  759   2.096   4.930   4.642  1.0190 -2.2247 -1.7266
  190SOL     vw  760   2.142   4.880   4.697  0.5066 -0.8218  0.0572
  191SOL     ow  761   0.073   0.503   4.591 -0.1398  0.2535 -0.2686
  191SOL     hw  762   0.073   0.491   4.496 -2.9596  0.5792 -0.3849
  191SOL     hw  763   0.053   0.596   4.604  0.0481  0.1765  0.6460
  191SOL     vw  764   0.071   0.514   4.580 -0.4870  0.2863 -0.1633
  192SOL     ow  765   4.557   6.452   5.724  0.0008  0.0232 -0.0419
  192SOL     hw  766   4.469   6.414   5.728  0.2104 -0.5820 -0.8999
  192SOL     hw  767   4.556   6.522   5.788 -1.5846  0.9957 -1.0718
  192SOL     vw  768   4.545   6.456   5.733 -0.1805  0.0715 -0.2911
  193SOL     ow  769   6.608   0.100   5.105  0.2349 -0.0314 -0.2696
  193SOL     hw  770   6.674   0.043   5.143 -0.4192 -0.6382 -0.0301
  193SOL     hw  771   6.616   0.182   5.155  1.8567  0.4857 -1.2792
  193SOL     vw  772   6.618   0.104   5.117  0.3624 -0.0432 -0.3712
  194SOL     ow  773   3.839   2.827   3.245  0.4651  0.0836 -0.5486
  194SOL     hw  774   3.891   2.803   3.321  1.6524  1.0111 -1.0243
  194SOL     hw  775   3.865   2.765   3.177  1.7305  1.1421 -1.0723
  194SOL     vw  776   3.849   2.816   3.246  0.7887  0.3458 -0.6804
  195SOL     ow  777   1.286   0.852   0.213 -0.7639 -0.0292  0.1859
  195SOL     hw  778   1.228   0.801   0.156 -0.5602 -0.7729  0.6325
  195SOL     hw  779   1.311   0.791   0.283  0.3239  0.3635  0.1587
  195SOL     vw  780   1.282   0.837   0.215 -0.5935 -0.0755  0.2413
  196SOL     ow  781   4.201   0.984   1.952 -0.1455  0.0663  0.3205
  196SOL     hw  782   4.206   0.994   2.047  0.7176  2.8073  0.0662
  196SOL     hw  783   4.250   1.059   1.917  1.0985 -1.8074 -2.3032
  196SOL     vw  784   4.208   0.995   1.960  0.1326  0.1807 -0.0592
  197SOL     ow  785   2.926   1.994   3.108 -0.6475  0.2401 -0.0746
  197SOL     hw  786   2.921   1.935   3.032  3.4050  0.1654 -0.5071
  197SOL     hw  787   2.904   2.080   3.073 -3.4481 -0.4233 -0.1566
  197SOL     vw  788   2.922   1.998   3.093 -0.4823  0.1426 -0.1425
  198SOL     ow  789   5.521   2.289   1.299  0.1545  0.0040  0.6084
  198SOL     hw  790   5.441   2.340   1.300  0.7036  0.8761  1.3148
  198SOL     hw  791   5.541   2.277   1.206  0.0244  1.0818  0.4354
  198SOL     vw  792   5.513   2.294   1.287  0.2098  0.2613  0.6788
  199SOL     ow  793   1.638   0.418   6.102 -0.6347  0.2018 -0.1249
  199SOL     hw  794   1.650   0.511   6.081 -0.4878  0.0174 -0.8945
  199SOL     hw  795   1.719   0.376   6.071 -0.9506 -0.2660 -0.3240
  199SOL     vw  796   1.650   0.425   6.095 -0.6570  0.1158 -0.2525
  200SOL     ow  797   1.543   6.093   6.230  0.1542  0.2357  0.6756
  200SOL     hw  798   1.490   6.060   6.158  2.0547 -1.2843 -0.1072
  200SOL     hw  799   1.632   6.101   6.194  0.8604  0.9558  2.4161
  200SOL     vw  800   1.548   6.090   6.216  0.4982  0.1299  0.8018
  201SOL     ow  801   6.637   1.086   0.023 -0.2606 -0.4050  0.2945
  201SOL     hw  802   6.577   1.066   0.095  0.1147 -2.7332  0.0264
  201SOL     hw  803   6.602   1.167  -0.016 -2.1598 -0.7090  1.2599
  201SOL     vw  804   6.624   1.094   0.027 -0.4616 -0.7523  0.3865
  202SOL     ow  805   1.638   0.924   2.009 -0.4040 -0.2126  0.6950
  202SOL     hw  806   1.679   1.009   2.024  0.1908 -0.4148  0.2740
  202SOL     hw  807   1.711   0.867   1.985 -0.9534 -0.5480 -0.2108
  202SOL     vw  808   1.653   0.928   2.008 -0.3980 -0.2835  0.5199
  203SOL     ow  809   2.437   2.944   5.443 -0.1845 -0.0575 -0.4121
  203SOL     hw  810   2.465   2.920   5.354 -0.4914  0.1062 -0.5544
  203SOL     hw  811   2.349   2.979   5.431  0.0793  0.7079 -0.1456
  203SOL     vw  812   2.429   2.945   5.430 -0.1901  0.0651 -0.3958
  204SOL     ow  813   4.076   3.780   5.352 -0.2771 -0.5030 -0.3674
  204SOL     hw  814   4.017   3.759   5.424 -0.4383  0.4256 -0.2214
  204SOL     hw  815   4.162   3.748   5.381  0.1770  2.0253  1.3418
  204SOL     vw  816   4.080   3.773   5.365 -0.2384 -0.0470 -0.1228
  205SOL     ow  817   6.127   6.045   5.618  0.2836  0.2605 -0.2045
  205SOL     hw  818   6.133   6.113   5.686  0.9726 -0.6017  0.6277
  205SOL     hw  819   6.052   6.070   5.565  0.0856  1.2722  0.5308
  205SOL     vw  820   6.118   6.057   5.620  0.3486  0.2801  0.0026
  206SOL     ow  821   3.928   2.317   0.070  0.8285 -0.6666 -0.0930
  206SOL     hw  822   3.963   2.393   0.023  2.1159 -0.6546  0.8527
  206SOL     hw  823   3.946   2.243   0.012  1.6652 -0.5490  0.0026
  206SOL     vw  824   3.935   2.318   0.056  1.1089 -0.6496  0.0444
  207SOL     ow  825   5.835   4.634   4.117  0.2485 -0.0584  1.0313
  207SOL     hw  826   5.761   4.691   4.139 -1.3772 -1.4123 -0.6413
  207SOL     hw  827   5.874   4.674   4.040 -0.1224 -0.4988  0.6056
  207SOL     vw  828   5.830   4.647   4.110 -0.0148 -0.2952  0.7544
  208SOL     ow  829   4.133   3.116   2.613  0.2354 -0.2061 -0.2546
  208SOL     hw  830   4.129   3.085   2.704  1.3340  0.0245 -0.1042
  208SOL     hw  831   4.098   3.205   2.617 -0.3986 -0.4521 -0.1962
  208SOL     vw  832   4.128   3.124   2.626  0.2966 -0.2081 -0.2271
  209SOL     ow  833   2.080   4.378   2.499 -0.4302  1.0889  0.4450
  209SOL     hw  834   2.119   4.452   2.452 -1.0844  0.9020 -0.4110
  209SOL     hw  835   2.023   4.419   2.563 -0.2596  1.3362  0.4435
  209SOL     vw  836   2.078   4.394   2.501 -0.4940  1.0967  0.3320
  210SOL     ow  837   2.984   3.756   2.065  0.4545 -0.4462  0.9449
  210SOL     hw  838   2.891   3.751   2.085  0.1623  1.1475  0.1102
  210SOL     hw  839   3.012   3.664   2.057 -0.9391 -0.9442  1.5907
  210SOL     vw  840   2.976   3.743   2.067  0.2321 -0.3016  0.9199
  211SOL     ow  841   3.305   4.337   4.611 -0.1025 -0.0373  0.1378
  211SOL     hw  842   3.372   4.269   4.615 -1.0692 -0.9622  1.2863
  211SOL     hw  843   3.227   4.296   4.648 -1.1192  1.2372 -0.5074
  211SOL     vw  844   3.303   4.323   4.616 -0.3642  0.0091  0.2043
  212SOL     ow  845   5.204   4.589   6.714 -0.0676 -0.4727  0.5854
  212SOL     hw  846   5.242   4.502   6.705  1.3148  0.0996  0.5383
  212SOL     hw  847   5.235   4.620   6.799  0.6481  0.5036 -0.0072
  212SOL     vw  848   5.213   4.582   6.724  0.2093 -0.2685  0.5012
  213SOL     ow  849   0.459   6.311   1.322 -0.1032  0.1709 -0.0671
  213SOL     hw  850   0.443   6.397   1.285  0.3427  0.0932 -0.4602
  213SOL     hw  851   0.535   6.322   1.379 -0.3758  0.1495  0.3021
  213SOL     vw  852   0.467   6.324   1.325 -0.0803  0.1576 -0.0703
  214SOL     ow  853   3.275   3.109   3.554  0.0740  0.5746  0.1930
  214SOL     hw  854   3.196   3.117   3.607  0.1055  0.6144  0.2337
  214SOL     hw  855   3.262   3.028   3.504 -0.6018  1.2856 -0.8243
  214SOL     vw  856   3.263   3.099   3.554 -0.0111  0.6737  0.0640
  215SOL     ow  857   3.014   2.808   1.851 -0.6499 -0.0947  0.0309
  215SOL     hw  858   2.970   2.893   1.848  1.2225  1.0338  1.6496
  215SOL     hw  859   2.983   2.767   1.932 -1.6321 -1.0489 -0.8000
  215SOL     vw  860   3.004   2.814   1.861 -0.5325 -0.0716  0.1348
  216SOL     ow  861   1.243   4.117   1.946  0.3846 -0.1250 -0.0766
  216SOL     hw  862   1.149   4.107   1.928  0.5045 -0.6610 -0.4397
  216SOL     hw  863   1.247   4.186   2.012 -0.3163 -0.5438  0.4268
  216SOL     vw  864   1.231   4.125   1.952  0.3080 -0.2508 -0.0582
  217SOL     ow  865   2.604   1.580   1.787 -0.3005  0.4604 -0.2446
  217SOL     hw  866   2.531   1.524   1.758 -1.6606  1.6594  0.7762
  217SOL     hw  867   2.672   1.565   1.721 -0.4680 -2.5931  0.1064
  217SOL     vw  868   2.603   1.570   1.774 -0.5021  0.2157 -0.0637
  218SOL     ow  869   1.269   1.654   6.284 -0.3988 -0.0211 -0.1455
  218SOL     hw  870   1.221   1.627   6.362  1.5399  0.6510  1.3340
  218SOL     hw  871   1.259   1.580   6.223  0.2218 -1.7216  1.7237
  218SOL     vw  872   1.261   1.640   6.286 -0.0612 -0.1568  0.2964
  219SOL     ow  873   6.511   5.214   2.947 -0.5959  0.0896 -0.0157
  219SOL     hw  874   6.453   5.224   2.872 -2.7093  0.6084  1.6113
  219SOL     hw  875   6.529   5.303   2.976  0.1894 -0.1104  0.1452
  219SOL     vw  876   6.506   5.227   2.941 -0.7713  0.1316  0.2203
  220SOL     ow  877   5.604   1.834   1.774 -0.3889  0.8541 -0.2973
  220SOL     hw  878   5.629   1.844   1.866 -0.1356  0.7484 -0.3524
  220SOL     hw  879   5.557   1.914   1.752 -0.9128  0.6524  0.0717
  220SOL     vw  880   5.601   1.846   1.783 -0.4246  0.8135 -0.2559
  221SOL     ow  881   0.978   3.838   5.754  0.4337  0.5295 -0.1454
  221SOL     hw  882   0.942   3.832   5.665  0.9263  2.1733 -0.4759
  221SOL     hw  883   0.906   3.872   5.806 -0.0876 -1.1014  0.2820
  221SOL     vw  884   0.963   3.842   5.749  0.4299  0.5312 -0.1328
  222SOL     ow  885   1.454   5.875   3.332  0.3581 -0.1203  0.6115
  222SOL     hw  886   1.488   5.947   3.385 -1.0914  0.3716  0.9029
  222SOL     hw  887   1.396   5.827   3.390  0.5887 -0.9892  0.1469
  222SOL     vw  888   1.451   5.878   3.346  0.1972 -0.1700  0.5888
  223SOL     ow  889   0.813   6.103   3.154  0.2383 -0.3363 -0.2775
  223SOL     hw  890   0.764   6.132   3.231  0.3784 -1.6353  0.3258
  223SOL     hw  891   0.903   6.092   3.185  0.6926  0.8643 -1.0871
  223SOL     vw  892   0.818   6.106   3.168  0.3168 -0.3493 -0.3047
  224SOL     ow  893   0.517   0.295   3.861 -0.1628  0.3355  0.6098
  224SOL     hw  894   0.483   0.207   3.880  2.5796 -1.4467 -1.9749
  224SOL     hw  895   0.600   0.299   3.909  0.6778  0.6850 -0.8223
  224SOL     vw  896   0.523   0.284   3.870  0.3099  0.1465  0.0798
  225SOL     ow  897   4.882   5.869   3.965 -0.8885  0.4535 -0.0194
  225SOL     hw  898   4.819   5.853   3.895 -0.0534  0.5318 -0.7944
  225SOL     hw  899   4.860   5.804   4.032 -1.3399  0.0120 -0.5880
  225SOL     vw  900   4.871   5.858   3.965 -0.8380  0.4053 -0.1966
  226SOL     ow  901   5.305   0.736   3.243  0.4474  0.3303 -0.1776
  226SOL     hw  902   5.357   0.724   3.164  0.0131 -1.7903 -0.2118
  226SOL     hw  903   5.286   0.647   3.273 -4.5148  0.8031 -1.0899
  226SOL     vw  904   5.309   0.722   3.237 -0.2646  0.1130 -0.3023
  227SOL     ow  905   2.552   4.946   5.685  0.5259  0.0296  0.0197
  227SOL     hw  906   2.604   4.998   5.746  1.9459 -2.1390  0.7587
  227SOL     hw  907   2.468   4.935   5.730  0.8530  0.1367  0.6703
  227SOL     vw  908   2.548   4.952   5.699  0.7565 -0.2425  0.2029
  228SOL     ow  909   2.243   4.905   2.898 -0.5264 -0.0860  0.7312
  228SOL     hw  910   2.288   4.851   2.963 -0.0915 -0.8584 -0.1842
  228SOL     hw  911   2.310   4.967   2.868  0.0352 -1.3281 -0.7346
  228SOL     vw  912   2.258   4.906   2.903 -0.3949 -0.3519  0.4170
  229SOL     ow  913   0.122   4.977   3.557 -0.0642  0.3447 -0.0844
  229SOL     hw  914   0.173   5.056   3.537  2.3204 -1.0464  0.2454
  229SOL     hw  915   0.086   4.994   3.644  0.1109  1.2027 -0.1633
  229SOL     vw  916   0.124   4.990   3.566  0.2735  0.2744 -0.0513
  230SOL     ow  917   5.702   3.742   2.851 -0.5843  0.4274 -0.1068
  230SOL     hw  918   5.665   3.672   2.798  2.5004 -1.9387  0.5872
  230SOL     hw  919   5.687   3.714   2.941 -2.3109  2.4636  0.3237
  230SOL     vw  920   5.695   3.729   2.856 -0.4053  0.3839  0.0415
  231SOL     ow  921   0.482   4.098   5.486  0.1416 -0.3407  0.5107
  231SOL     hw  922   0.497   4.015   5.441 -0.9169 -0.3324  0.1233
  231SOL     hw  923   0.495   4.077   5.579  0.5065 -0.7853  0.3651
  231SOL     vw  924   0.486   4.084   5.492  0.0501 -0.3982  0.4406
  232SOL     ow  925   0.368   4.081   0.459  0.7613 -0.3764  0.3784
  232SOL     hw  926   0.416   4.083   0.377  1.8918 -0.1115  1.0317
  232SOL     hw  927   0.288   4.032   0.439  0.1775  1.1928 -1.3120
  232SOL     vw  928   0.364   4.075   0.446  0.8334 -0.1345  0.2416
  233SOL     ow  929   0.722   5.433   0.459 -0.0156 -0.5840 -0.5057
  233SOL     hw  930   0.731   5.361   0.396 -2.3005 -0.0580 -1.5450
  233SOL     hw  931   0.653   5.404   0.518 -0.6844  0.5836 -0.6956
  233SOL     vw  932   0.714   5.420   0.459 -0.4053 -0.3607 -0.6679
  234SOL     ow  933   4.601   3.232   0.645  0.1107 -0.0869  0.4056
  234SOL     hw  934   4.607   3.137   0.655  0.8282 -0.0961 -0.0478
  234SOL     hw  935   4.541   3.244   0.571  0.3370 -0.2037  0.2000
  234SOL     vw  936   4.594   3.221   0.636  0.2353 -0.1035  0.3186
  235SOL     ow  937   1.639   2.068   6.632 -0.3011  0.3808 -0.7374
  235SOL     hw  938   1.695   2.050   6.556  0.0889  0.1448 -0.4015
  235SOL     hw  939   1.609   1.981   6.660  0.5199  0.3470  0.0911
  235SOL     vw  940   1.643   2.054   6.626 -0.1413  0.3452 -0.5836
  236SOL     ow  941   5.724   5.857   6.191 -0.3813  0.0248 -0.7726
  236SOL     hw  942   5.631   5.874   6.207 -0.0072  1.4481 -0.0189
  236SOL     hw  943   5.755   5.816   6.272 -0.3847 -0.6710 -1.1114
  236SOL     vw  944   5.716   5.854   6.204 -0.3324  0.1204 -0.7181
  237SOL     ow  945   3.762   6.703   3.909 -0.5236 -0.3504 -0.0762
  237SOL     hw  946   3.727   6.720   3.822 -0.1728  0.5883 -0.0370
  237SOL     hw  947   3.857   6.709   3.900 -0.3525 -2.2673 -0.0409
  237SOL     vw  948   3.770   6.706   3.896 -0.4548 -0.4797 -0.0664
  238SOL     ow  949   3.280   4.697   3.591 -0.4895 -0.9321 -0.0213
  238SOL     hw  950   3.357   4.645   3.570  1.5395  2.3450 -1.2524
  238SOL     hw  951   3.281   4.703   3.687 -0.5869 -2.7063  0.1381
  238SOL     vw  952   3.290   4.691   3.601 -0.2347 -0.7336 -0.1628
  239SOL     ow  953   3.250   5.137   4.104 -0.1359  0.0819 -0.5246
  239SOL     hw  954   3.244   5.144   4.199  0.1420  0.0299 -0.5034
  239SOL     hw  955   3.255   5.043   4.087  0.9866  0.1281 -0.5177
  239SOL     vw  956   3.250   5.126   4.114  0.0488  0.0811 -0.5209
  240SOL     ow  957   1.823   0.542   0.992  0.0997 -0.0061  0.3717
  240SOL     hw  958   1.814   0.452   0.961  2.5023 -0.4160  0.6467
  240SOL     hw  959   1.909   0.570   0.959 -0.8347  2.4240 -0.2162
  240SOL     vw  960   1.833   0.533   0.983  0.2934  0.2604  0.3304
  241SOL     ow  961   1.333   0.180   2.837 -0.4963  0.0308 -0.4257
  241SOL     hw  962   1.307   0.258   2.887 -1.7485  0.1241 -1.1744
  241SOL     hw  963   1.254   0.125   2.837  0.5870 -1.5996  0.7226
  241SOL     vw  964   1.319   0.183   2.844 -0.5186 -0.1720 -0.3729
  242SOL     ow  965   0.375   0.591   4.476  0.0841  0.2932 -0.3019
  242SOL     hw  966   0.379   0.591   4.572  1.0212 -0.3955 -0.3344
  242SOL     hw  967   0.398   0.680   4.451  1.6008  0.0237  0.0613
  242SOL     vw  968   0.378   0.602   4.485  0.4079  0.1668 -0.2582
  243SOL     ow  969   0.036   3.248   2.183  0.3268 -0.2946 -0.3248
  243SOL     hw  970   0.095   3.298   2.240  1.1658  0.0863 -1.4713
  243SOL     hw  971   0.017   3.308   2.111  0.1099 -1.0974 -0.9485
  243SOL     vw  972   0.041   3.262   2.181  0.4089 -0.3502 -0.5584
  244SOL     ow  973   0.303   2.297   1.818  0.0725 -0.4288 -0.0359
  244SOL     hw  974   0.381   2.316   1.869 -0.1456  0.7494 -0.1156
  244SOL     hw  975   0.245   2.372   1.833 -0.1413 -0.2120 -1.7147
  244SOL     vw  976   0.306   2.309   1.827  0.0155 -0.2446 -0.2679
  245SOL     ow  977   2.779   6.295   3.552 -0.0817 -0.1263  0.3603
  245SOL     hw  978   2.816   6.339   3.629  2.4054  0.7358 -1.2013
  245SOL     hw  979   2.712   6.236   3.588  0.5756  0.6569  3.1065
  245SOL     vw  980   2.775   6.293   3.567  0.3332  0.0911  0.5167
  246SOL     ow  981   2.845   4.513   2.469  0.1062  0.2861  0.1545
  246SOL     hw  982   2.862   4.430   2.514 -0.8828 -0.9471 -1.6295
  246SOL     hw  983   2.843   4.578   2.539 -1.8039 -1.5810  1.9912
  246SOL     vw  984   2.847   4.511   2.484 -0.2762 -0.1230  0.1613
  247SOL     ow  985   1.649   2.534   2.363 -0.0542  1.0279 -0.1862
  247SOL     hw  986   1.719   2.477   2.395 -0.3153  0.6859 -0.2094
  247SOL     hw  987   1.611   2.571   2.443  1.2375  2.5559 -0.2389
  247SOL     vw  988   1.653   2.531   2.378  0.0818  1.1843 -0.1961
  248SOL     ow  989   0.885   0.483   2.415 -0.3302  0.2389  0.1464
  248SOL     hw  990   0.910   0.428   2.341 -1.4208 -0.4719  0.2947
  248SOL     hw  991   0.841   0.558   2.375  0.8890  0.8848 -0.0359
  248SOL     vw  992   0.882   0.486   2.400 -0.3133  0.2303  0.1419
  249SOL     ow  993   1.539   1.162   5.369  0.5081 -0.7397  0.0242
  249SOL     hw  994   1.606   1.225   5.395  0.5125 -0.7517  0.0420
  249SOL     hw  995   1.578   1.077   5.386  1.0700 -0.7894 -1.3267
  249SOL     vw  996   1.553   1.159   5.375  0.5829 -0.7479 -0.1516
  250SOL     ow  997   2.369   3.590   3.496  0.1754  0.1976 -0.1459
  250SOL     hw  998   2.411   3.531   3.433  1.0630 -0.1726  0.7831
  250SOL     hw  999   2.283   3.551   3.510  0.5096 -0.5165 -0.0390
  250SOL     vw 1000   2.363   3.577   3.489  0.3366  0.0546 -0.0092
  251SOL     ow 1001   1.104   4.451   1.442 -0.1334  0.0820 -0.4942
  251SOL     hw 1002   1.048   4.444   1.519 -0.8792 -2.1038 -1.1378
  251SOL     hw 1003   1.188   4.482   1.475 -1.1897  1.7913  0.7490
  251SOL     vw 1004   1.108   4.454   1.457 -0.3712  0.0191 -0.4151
  252SOL     ow 1005   3.809   3.407   0.654 -0.8782  0.0227  0.1962
  252SOL     hw 1006   3.837   3.351   0.726  2.4840  1.6884  0.4196
  252SOL     hw 1007   3.731   3.452   0.687  0.3971  0.5389  2.7491
  252SOL     vw 1008   3.803   3.406   0.668 -0.2664  0.3104  0.5625
  253SOL     ow 1009   5.211   0.938   3.377  0.5021  0.0943  0.3307
  253SOL     hw 1010   5.274   0.869   3.354  0.1859 -0.2373  0.4459
  253SOL     hw 1011   5.218   1.001   3.305  0.0447 -0.5766 -0.3258
  253SOL     vw 1012   5.221   0.937   3.364  0.4001 -0.0380  0.2594
  254SOL     ow 1013   5.964   6.361   2.367 -0.3067  0.3892 -0.0231
  254SOL     hw 1014   5.925   6.299   2.306 -1.7422 -0.6219  1.8036
  254SOL     hw 1015   5.892   6.420   2.391  0.3113  0.9853  0.4328
  254SOL     vw 1016   5.950   6.361   2.362 -0.4146  0.3343  0.2780
  255SOL     ow 1017   2.715   4.403   1.457 -0.5143 -0.3005  0.3630
  255SOL     hw 1018   2.671   4.318   1.466  0.4295 -1.1281 -2.0380
  255SOL     hw 1019   2.776   4.406   1.531  0.0840 -2.1659  0.0164
  255SOL     vw 1020   2.717   4.392   1.468 -0.3108 -0.6559  0.0005
  256SOL     ow 1021   2.541   1.280   5.563 -0.6140 -0.8764  0.2707
  256SOL     hw 1022   2.545   1.313   5.473  0.0929  0.3531  0.7315
  256SOL     hw 1023   2.479   1.207   5.558 -0.6709 -0.7749 -1.1887
  256SOL     vw 1024   2.533   1.275   5.550 -0.5282 -0.7008  0.1390
  257SOL     ow 1025   3.304   5.895   1.525  0.2391 -0.1735 -0.4285
  257SOL     hw 1026   3.338   5.921   1.439  1.6965 -3.0261 -0.8514
  257SOL     hw 1027   3.375   5.917   1.586 -0.3308  0.8035 -0.0989
  257SOL     vw 1028   3.318   5.901   1.521  0.3562 -0.4210 -0.4408
  258SOL     ow 1029   1.736   1.108   4.181 -0.1719  0.1216 -0.7100
  258SOL     hw 1030   1.822   1.074   4.154  0.3579  0.5534  0.3575
  258SOL     hw 1031   1.686   1.030   4.203 -0.5951 -0.2447 -2.7510
  258SOL     vw 1032   1.741   1.093   4.180 -0.1578  0.1302 -0.8385
  259SOL     ow 1033   5.844   5.955   0.156  0.0234  0.8357  0.4335
  259SOL     hw 1034   5.823   6.001   0.237 -2.5271 -0.7742  0.8088
  259SOL     hw 1035   5.926   5.909   0.175 -1.4625 -1.0202  2.8623
  259SOL     vw 1036   5.852   5.955   0.169 -0.5093  0.3786  0.8034
  260SOL     ow 1037   2.200   5.642   1.802  0.5897 -0.0007 -0.8658
  260SOL     hw 1038   2.246   5.676   1.878 -3.1903  2.3744  0.6671
  260SOL     hw 1039   2.132   5.586   1.839 -3.5955  3.8464 -1.7811
  260SOL     vw 1040   2.197   5.639   1.817 -0.4612  0.8202 -0.7843
  261SOL     ow 1041   4.156   4.443   0.596 -0.4503  0.1511  0.4039
  261SOL     hw 1042   4.084   4.503   0.580 -1.8536 -2.0537 -2.5978
  261SOL     hw 1043   4.224   4.469   0.534 -0.2926 -0.2150  0.4203
  261SOL     vw 1044   4.155   4.454   0.586 -0.6146 -0.1881  0.0100
  262SOL     ow 1045   6.346   4.152   0.263 -0.2437  0.2009  0.0617
  262SOL     hw 1046   6.340   4.074   0.318 -2.7495  0.0331 -0.2988
  262SOL     hw 1047   6.339   4.120   0.173  0.7614  0.7050 -0.2123
  262SOL     vw 1048   6.344   4.138   0.258 -0.4418  0.2453 -0.0220
  263SOL     ow 1049   2.695   1.397   3.922 -0.1444  0.5903  0.1061
  263SOL     hw 1050   2.707   1.303   3.908  1.0249  0.7373  0.0084
  263SOL     hw 1051   2.602   1.407   3.940 -0.3664 -0.5265 -0.3523
  263SOL     vw 1052   2.685   1.386   3.923 -0.0194  0.4624  0.0329
  264SOL     ow 1053   3.287   6.688   2.902  0.4090 -0.1746  0.0411
  264SOL     hw 1054   3.289   6.655   2.992  2.8159  0.8047  0.4314
  264SOL     hw 1055   3.249   6.776   2.910 -0.5992 -0.5751 -0.1379
  264SOL     vw 1056   3.282   6.695   2.915  0.5934 -0.0985  0.0690
  265SOL     ow 1057   0.398   2.335   2.874  0.4198 -0.0937 -0.1857
  265SOL     hw 1058   0.477   2.309   2.922  1.0819  1.4010 -0.4004
  265SOL     hw 1059   0.420   2.322   2.782  0.5988  0.7428 -0.2702
  265SOL     vw 1060   0.411   2.330   2.869  0.5308  0.2139 -0.2251
  266SOL     ow 1061   4.834   5.321   0.314 -0.5171  0.6919  0.1356
  266SOL     hw 1062   4.843   5.307   0.220  2.2491  0.7710  0.2882
  266SOL     hw 1063   4.879   5.404   0.330  2.0054 -0.8654  1.8633
  266SOL     vw 1064   4.841   5.330   0.304  0.1802  0.4969  0.3836
  267SOL     ow 1065   6.377   2.702   0.469  0.4032  0.2052  0.2731
  267SOL     hw 1066   6.391   2.607   0.475 -0.4837  0.1020  0.8445
  267SOL     hw 1067   6.283   2.712   0.457  0.3465  1.0520  1.2797
  267SOL     vw 1068   6.367   2.691   0.468  0.2785  0.3033  0.4813
  268SOL     ow 1069   1.605   3.198   2.155 -0.2388 -0.4790  0.6231
  268SOL     hw 1070   1.571   3.242   2.077 -0.0392  1.7266  1.6973
  268SOL     hw 1071   1.674   3.140   2.122 -0.9441 -0.4777 -0.9365
  268SOL     vw 1072   1.610   3.196   2.141 -0.3056 -0.1879  0.5590
  269SOL     ow 1073   3.840   1.255   0.231  0.2368 -0.2631 -0.1760
  269SOL     hw 1074   3.776   1.185   0.214 -0.6464  0.6178 -0.6007
  269SOL     hw 1075   3.922   1.222   0.196 -0.3621 -0.7407 -1.1727
  269SOL     vw 1076   3.842   1.241   0.224  0.0412 -0.2099 -0.3635
  270SOL     ow 1077   4.959   4.385   3.498  0.2957  0.0984 -0.2732
  270SOL     hw 1078   5.014   4.390   3.420  0.3923 -0.0536 -0.2147
  270SOL     hw 1079   4.928   4.294   3.501  1.2222 -0.2052  0.5025
  270SOL     vw 1080   4.962   4.374   3.488  0.4306  0.0384 -0.1631
  271poe    c31 1081   2.270   2.588   6.674 -0.6990 -0.6737  0.3204
  271poe     o2 1082   2.230   2.574   6.540 -0.3122  0.1169  0.1190
  271poe    c23 1083   2.124   2.663   6.512 -0.0043  0.3685 -0.2658
  271poe    c23 1084   2.062   2.619   6.378  0.2700  0.5168 -0.4436
  271poe     o2 1085   2.165   2.600   6.284  0.3196 -0.3043 -0.2332
  271poe    c23 1086   2.120   2.579   6.153  0.0227  0.6131 -0.2891
  271poe    c23 1087   2.240   2.545   6.063  0.0343 -0.3158  0.0619
  271poe     o2 1088   2.335   2.470   6.135 -0.1245 -0.4064  0.1760
  271poe    c23 1089   2.330   2.329   6.126  0.2234 -0.3717 -0.6473
  271poe    c23 1090   2.405   2.281   6.252 -0.0689  0.3280 -0.2043
  271poe     o2 1091   2.338   2.338   6.362  0.1616  0.6278 -0.2177
  271poe    c31 1092   2.408   2.287   6.474 -0.0470 -0.3187 -0.5150
  272poe    c31 1093   1.407   6.043   3.592 -0.2427 -0.0696 -0.2384
  272poe     o2 1094   1.513   6.048   3.498  0.0466  0.5521  0.1122
  272poe    c23 1095   1.638   6.071   3.558  0.2949  0.2452 -0.2816
  272poe    c23 1096   1.735   6.041   3.442 -0.1571 -0.0948 -0.5750
  272poe     o2 1097   1.740   5.912   3.387 -0.7627 -0.3478 -0.0535
  272poe    c23 1098   1.857   5.844   3.426 -0.4611  0.0071 -0.3245
  272poe    c23 1099   1.805   5.705   3.468  0.3927 -0.1552  0.2157
  272poe     o2 1100   1.715   5.649   3.376 -0.4141  0.5400  0.5723
  272poe    c23 1101   1.644   5.540   3.431  0.0034 -0.1033 -0.1325
  272poe    c23 1102   1.543   5.499   3.321 -0.1913 -0.3801  0.1466
  272poe     o2 1103   1.486   5.616   3.268  0.1324 -0.6151 -0.7330
  272poe    c31 1104   1.391   5.568   3.175 -0.6550  0.0374 -0.2827
  273poe    c31 1105   3.270   1.236   2.904  0.3160 -0.0251 -1.1125
  273poe     o2 1106   3.380   1.319   2.933 -0.2603  0.4575 -0.2515
  273poe    c23 1107   3.409   1.327   3.071  0.1705 -0.0907 -0.3045
  273poe    c23 1108   3.553   1.382   3.079  0.3541 -0.6108 -0.0040
  273poe     o2 1109   3.546   1.505   3.012  0.2396 -0.6283 -0.0243
  273poe    c23 1110   3.674   1.553   2.978 -0.0135  0.1115  0.0542
  273poe    c23 1111   3.645   1.698   2.933  0.0578  0.1059 -0.0103
  273poe     o2 1112   3.531   1.695   2.851 -0.3718 -0.5302  0.5998
  273poe    c23 1113   3.522   1.815   2.778 -0.0467 -0.6286  0.3950
  273poe    c23 1114   3.406   1.803   2.676  0.0858 -0.5727  0.2375
  273poe     o2 1115   3.280   1.817   2.737  0.0181  0.1564 -0.0576
  273poe    c31 1116   3.181   1.847   2.642  0.6227 -0.0229 -0.7513
  274poe    c31 1117   6.484   1.195   4.565 -0.3243 -0.2610 -0.5764
  274poe     o2 1118   6.466   1.149   4.433  0.6143 -0.7554 -0.5423
  274poe    c23 1119   6.571   1.191   4.349  0.7708  0.0365  0.0365
  274poe    c23 1120   6.517   1.186   4.205 -0.0283 -0.0818  0.3357
  274poe     o2 1121   6.448   1.064   4.186 -0.2691  0.1461 -0.3023
  274poe    c23 1122   6.365   1.042   4.074 -0.7848 -0.1346  0.1313
  274poe    c23 1123   6.295   0.910   4.109 -0.3792 -0.4631 -0.2910
  274poe     o2 1124   6.241   0.921   4.239  0.3263 -0.0394 -0.0237
  274poe    c23 1125   6.188   0.801   4.290 -0.5163  0.1139 -0.5122
  274poe    c23 1126   6.188   0.832   4.441  0.1233 -0.6406 -0.3467
  274poe     o2 1127   6.312   0.879   4.491 -0.1203  0.0568 -0.3764
  274poe    c31 1128   6.282   0.891   4.628  0.6265  0.2673 -0.2331
  275poe    c31 1129   5.329   3.673   1.885 -0.4250 -0.2696 -0.0904
  275poe     o2 1130   5.263   3.795   1.859  0.4319  0.2273  0.0523
  275poe    c23 1131   5.196   3.833   1.977 -0.3722 -0.1980 -0.2601
  275poe    c23 1132   5.191   3.986   1.959  0.0755 -0.1365  0.1219
  275poe     o2 1133   5.132   4.014   1.834 -0.1201 -0.0838  0.2263
  275poe    c23 1134   5.127   4.152   1.807 -0.4766 -0.1554 -0.0825
  275poe    c23 1135   5.142   4.161   1.654 -0.2662 -0.1847 -0.0633
  275poe     o2 1136   5.233   4.065   1.603  0.0630  0.0229  0.1338
  275poe    c23 1137   5.200   4.035   1.470 -0.8983  0.2563  0.3120
  275poe    c23 1138   5.258   3.894   1.450 -0.7826  0.2761  0.5064
  275poe     o2 1139   5.231   3.819   1.566  0.0969 -0.1149  0.4674
  275poe    c31 1140   5.235   3.683   1.527 -0.0393 -0.0110  0.0875
  276poe    c31 1141   2.747   5.848   6.727  0.5688  0.0105  0.1457
  276poe     o2 1142   2.795   5.892   6.852 -0.1684  0.3963  0.2977
  276poe    c23 1143   2.759   6.028   6.845 -0.2035  0.3604 -0.2691
  276poe    c23 1144   2.783   6.085   6.986 -0.0460 -0.6618  0.1224
  276poe     o2 1145   2.914   6.051   7.027 -0.0014 -0.1925  0.3653
  276poe    c23 1146   2.933   6.076   7.165 -0.1883  0.1307  0.3339
  276poe    c23 1147   3.063   5.997   7.189 -0.0258  0.3224  0.0892
  276poe     o2 1148   3.033   5.864   7.156  0.2528  0.2709  0.0411
  276poe    c23 1149   3.155   5.795   7.138  0.1246  0.1903 -0.5308
  276poe    c23 1150   3.105   5.659   7.084 -0.1340 -0.0414  0.2767
  276poe     o2 1151   3.006   5.685   6.987 -0.3157 -0.1257  0.4390
  276poe    c31 1152   2.972   5.568   6.914  0.3988 -0.3475  0.4554
  277poe    c31 1153   1.044   4.650   5.008  0.2706 -0.0290  0.2695
  277poe     o2 1154   1.175   4.601   4.992  0.3897  0.2868  0.2877
  277poe    c23 1155   1.186   4.506   5.095 -0.3079 -0.0806  0.0234
  277poe    c23 1156   1.339   4.512   5.110 -0.2936 -0.1318 -0.1025
  277poe     o2 1157   1.400   4.503   4.984  0.3006  0.7454  0.1082
  277poe    c23 1158   1.534   4.544   4.995  0.5868 -0.3416  0.8947
  277poe    c23 1159   1.578   4.575   4.850 -0.3864  0.0120  0.6666
  277poe     o2 1160   1.470   4.657   4.810 -0.0156  0.1068 -0.1523
  277poe    c23 1161   1.491   4.718   4.684 -0.0705  0.0719 -0.1780
  277poe    c23 1162   1.371   4.814   4.672  0.1643  0.4289  0.2776
  277poe     o2 1163   1.262   4.744   4.728 -0.3240  0.0354 -1.1258
  277poe    c31 1164   1.135   4.804   4.712 -0.3003  0.2289 -0.5965
  278poe    c31 1165   6.566   2.609   0.231 -0.1726 -0.0484 -0.0833
  278poe     o2 1166   6.611   2.687   0.122 -0.4603 -0.0361 -0.1944
  278poe    c23 1167   6.709   2.614   0.053  0.0757  0.2753  0.2294
  278poe    c23 1168   6.797   2.708  -0.032  0.1663  0.1001  0.1275
  278poe     o2 1169   6.719   2.814  -0.082  0.4944  0.1931 -0.1976
  278poe    c23 1170   6.764   2.852  -0.210  0.9374 -0.1158 -0.1361
  278poe    c23 1171   6.726   2.999  -0.235  0.1508 -0.2023  0.5128
  278poe     o2 1172   6.586   3.020  -0.236  0.2132  0.2190  0.2403
  278poe    c23 1173   6.569   3.138  -0.311  0.3010 -0.2879 -0.5934
  278poe    c23 1174   6.418   3.149  -0.341  0.1649  0.0612  0.1913
  278poe     o2 1175   6.338   3.191  -0.233 -0.0474 -0.4142  0.2249
  278poe    c31 1176   6.199   3.174  -0.252  0.0255 -0.7158 -0.0413
  279poe    c31 1177   1.956   0.773   2.009  0.2466 -0.0189  0.5934
  279poe     o2 1178   1.824   0.745   1.966  0.2810 -0.0287  0.4935
  279poe    c23 1179   1.788   0.611   1.987  0.1493  0.0134  0.5355
  279poe    c23 1180   1.653   0.577   1.919 -0.0317 -0.1237  0.9566
  279poe     o2 1181   1.541   0.641   1.975 -0.1561  0.1983  0.3492
  279poe    c23 1182   1.434   0.557   2.012  0.2530 -0.6038 -0.2665
  279poe    c23 1183   1.304   0.639   2.004  0.4098 -0.3185  0.0672
  279poe     o2 1184   1.330   0.754   2.081 -0.1253 -0.2765  0.1832
  279poe    c23 1185   1.208   0.813   2.120  0.1880  0.2555  0.3602
  279poe    c23 1186   1.260   0.917   2.222  0.0923 -0.0082  0.6812
  279poe     o2 1187   1.377   0.964   2.159 -0.1411 -0.3399 -0.0151
  279poe    c31 1188   1.444   1.065   2.231 -0.2901  0.0554 -0.4229
  280poe    c31 1189   3.943   4.269   5.731  0.2297 -0.8703  0.8237
  280poe     o2 1190   3.950   4.311   5.865 -0.3417 -0.0912  0.6198
  280poe    c23 1191   4.073   4.373   5.892 -0.3139  0.0516  0.1539
  280poe    c23 1192   4.046   4.448   6.023 -0.4098  0.2732  0.0098
  280poe     o2 1193   3.955   4.369   6.096 -0.0768  0.2715  0.4317
  280poe    c23 1194   3.928   4.412   6.228 -0.1210  0.4769  0.3551
  280poe    c23 1195   3.873   4.297   6.314 -0.2676 -0.2052 -0.6356
  280poe     o2 1196   3.767   4.234   6.245 -0.9556  0.1611  0.0791
  280poe    c23 1197   3.693   4.148   6.328 -0.2656 -0.4907  0.0234
  280poe    c23 1198   3.570   4.110   6.243 -0.5652  0.6538 -0.0682
  280poe     o2 1199   3.604   4.053   6.119 -0.2724 -0.1907  0.3911
  280poe    c31 1200   3.544   3.927   6.098  0.1425 -0.2944 -0.1770
  281poe    c31 1201   1.465   0.088   6.139 -0.5096 -0.7743 -0.2081
  281poe     o2 1202   1.435   0.200   6.219 -0.0473 -0.5115 -0.3956
  281poe    c23 1203   1.394   0.155   6.346  0.5965  0.6952  0.2568
  281poe    c23 1204   1.346   0.282   6.418 -0.2511  0.6876 -0.2779
  281poe     o2 1205   1.433   0.388   6.386  0.0555  0.3876 -0.4511
  281poe    c23 1206   1.410   0.498   6.471 -0.6687  0.1518 -0.3323
  281poe    c23 1207   1.412   0.628   6.389  0.1246  0.1052 -0.3919
  281poe     o2 1208   1.514   0.639   6.292  0.1855  0.3796 -0.2971
  281poe    c23 1209   1.501   0.763   6.225  0.2997  0.4255 -0.2368
  281poe    c23 1210   1.485   0.747   6.073 -0.1967  0.7074 -0.2190
  281poe     o2 1211   1.595   0.680   6.013 -0.5910 -0.2075  0.0636
  281poe    c31 1212   1.591   0.688   5.873 -0.3992 -0.2029  0.0585
  282poe    c31 1213   6.557   1.598   4.466  0.2565 -0.1150 -0.5022
  282poe     o2 1214   6.434   1.610   4.398  0.0164  0.0527 -0.0378
  282poe    c23 1215   6.475   1.609   4.263  0.7371 -0.0708  0.1758
  282poe    c23 1216   6.366   1.672   4.174  0.7782  0.0987  0.2455
  282poe     o2 1217   6.330   1.797   4.228  0.4402  0.0746  0.0788
  282poe    c23 1218   6.242   1.867   4.143 -0.1725 -0.1311  0.5336
  282poe    c23 1219   6.165   1.965   4.232  0.0723  0.3735  0.1952
  282poe     o2 1220   6.132   1.889   4.347  0.2396 -0.0604 -0.0429
  282poe    c23 1221   6.104   1.966   4.461 -0.0046  0.3560 -0.3796
  282poe    c23 1222   6.079   1.860   4.570  0.4008  0.1044 -0.5284
  282poe     o2 1223   6.198   1.784   4.570  0.4095  0.1175 -0.4126
  282poe    c31 1224   6.194   1.680   4.665  0.8912  0.2497 -0.2486
  283poe    c31 1225   0.955   0.983   4.042 -0.2016 -0.1712  0.1956
  283poe     o2 1226   1.053   1.037   4.127  0.3807 -0.4437 -0.2942
  283poe    c23 1227   1.124   0.928   4.182  0.3056 -0.5972 -0.5003
  283poe    c23 1228   1.257   0.975   4.244 -0.0546  0.0049 -0.1704
  283poe     o2 1229   1.247   1.089   4.326  0.1121  0.0837 -0.2579
  283poe    c23 1230   1.254   1.046   4.460 -0.4062  0.2106 -0.1859
  283poe    c23 1231   1.260   1.158   4.566 -0.0979  0.1355 -0.1246
  283poe     o2 1232   1.159   1.249   4.530 -0.0491  0.1383 -0.2570
  283poe    c23 1233   1.170   1.375   4.592  0.6701 -0.0298 -0.0342
  283poe    c23 1234   1.041   1.457   4.573  0.4870 -0.2167  0.3807
  283poe     o2 1235   0.989   1.421   4.447  0.1772  0.5921  0.2694
  283poe    c31 1236   0.862   1.482   4.445 -0.0048  0.2093 -0.0676
  284poe    c31 1237   0.585   4.822   0.376  0.1161 -0.3386 -0.4342
  284poe     o2 1238   0.517   4.773   0.262  0.3848 -0.0549 -0.7216
  284poe    c23 1239   0.405   4.705   0.316  0.4917 -0.1034 -0.5569
  284poe    c23 1240   0.336   4.632   0.199  0.1571 -0.1003 -0.3606
  284poe     o2 1241   0.326   4.719   0.089 -0.6006 -0.0261 -0.2374
  284poe    c23 1242   0.262   4.664  -0.024 -0.7033  0.2778 -0.3298
  284poe    c23 1243   0.330   4.723  -0.149 -0.3033  0.8148  0.1376
  284poe     o2 1244   0.466   4.748  -0.120 -0.0424 -0.1845 -0.1691
  284poe    c23 1245   0.554   4.648  -0.166  0.0284 -0.0206 -0.3929
  284poe    c23 1246   0.692   4.691  -0.111 -0.0075 -0.4169  0.0189
  284poe     o2 1247   0.671   4.737   0.021 -0.6879 -0.1774 -0.1639
  284poe    c31 1248   0.800   4.750   0.077 -0.5133 -0.2639 -0.5408
  285poe    c31 1249   3.223   6.310   5.335  0.0172  0.7659 -0.0757
  285poe     o2 1250   3.340   6.364   5.393 -0.2266  0.6579  0.5277
  285poe    c23 1251   3.382   6.480   5.324 -0.7732  0.0968 -0.7875
  285poe    c23 1252   3.522   6.528   5.364 -0.8422 -0.3800  0.0427
  285poe     o2 1253   3.536   6.574   5.497  0.3160  0.2778 -0.2933
  285poe    c23 1254   3.666   6.553   5.550  0.0959 -0.1850  0.0646
  285poe    c23 1255   3.675   6.595   5.697 -0.3409  0.6112 -0.1324
  285poe     o2 1256   3.600   6.508   5.779  0.4744 -0.0702 -0.1038
  285poe    c23 1257   3.624   6.545   5.913 -0.5659  0.2450 -0.0018
  285poe    c23 1258   3.509   6.470   5.983 -0.1657 -0.1667  0.2214
  285poe     o2 1259   3.387   6.499   5.917  0.1485  0.1900 -0.2069
  285poe    c31 1260   3.284   6.439   5.991  0.6202 -0.4843 -0.0808
  286poe    c31 1261   4.812   5.329   1.097 -0.2849  0.0785  0.1085
  286poe     o2 1262   4.780   5.458   1.145  0.5135  0.3236 -0.0160
  286poe    c23 1263   4.845   5.561   1.073  0.5951  0.0338 -0.3629
  286poe    c23 1264   4.765   5.690   1.098  0.3635 -0.1945  0.1074
  286poe     o2 1265   4.738   5.695   1.236  0.2750  0.1121  0.0809
  286poe    c23 1266   4.659   5.810   1.259 -0.2818 -0.1038 -0.7307
  286poe    c23 1267   4.530   5.772   1.334  0.3560 -0.0123  0.4385
  286poe     o2 1268   4.565   5.681   1.435  0.1558 -0.3002  0.2494
  286poe    c23 1269   4.468   5.579   1.450  0.1934 -0.3372  0.2393
  286poe    c23 1270   4.540   5.445   1.475  0.1236 -0.4480 -0.1481
  286poe     o2 1271   4.639   5.409   1.381 -0.0311 -0.4445 -0.3118
  286poe    c31 1272   4.682   5.279   1.417 -0.4254 -0.6135 -0.4380
  287poe    c31 1273   1.976   5.242   5.111 -0.3576  0.2346 -0.0817
  287poe     o2 1274   2.040   5.366   5.087 -0.3452  0.2110 -0.1724
  287poe    c23 1275   2.049   5.445   5.203 -0.3057  0.2738 -0.2189
  287poe    c23 1276   2.117   5.580   5.171 -0.0304  0.1734 -0.0674
  287poe     o2 1277   2.248   5.566   5.120 -0.0393  0.0181 -0.0486
  287poe    c23 1278   2.331   5.678   5.103  0.2760 -0.1701  0.2483
  287poe    c23 1279   2.473   5.634   5.064  0.3744  0.1603  0.2279
  287poe     o2 1280   2.455   5.538   4.962 -0.2008  0.0912  0.3890
  287poe    c23 1281   2.575   5.473   4.926 -0.3306 -0.0874  0.2797
  287poe    c23 1282   2.530   5.354   4.839  0.0842  0.2156 -0.3516
  287poe     o2 1283   2.402   5.315   4.882  0.4253 -0.1500  0.3338
  287poe    c31 1284   2.359   5.213   4.794  0.4214  0.6079 -0.5542
  288poe    c31 1285   0.926   1.908   1.946  0.4580  0.3696  0.4681
  288poe     o2 1286   0.922   1.775   1.993  0.3625  0.1037 -0.2782
  288poe    c23 1287   1.039   1.751   2.067  0.0870  0.0032  0.1301
  288poe    c23 1288   1.059   1.598   2.073  0.3670  0.0524  0.4779
  288poe     o2 1289   0.966   1.528   2.153  0.1618 -0.2302 -0.0089
  288poe    c23 1290   0.961   1.391   2.122  0.3436 -0.1865 -0.2311
  288poe    c23 1291   0.853   1.308   2.192  0.0155  0.3877 -0.0545
  288poe     o2 1292   0.731   1.372   2.161 -0.1406  0.1908  0.1407
  288poe    c23 1293   0.616   1.311   2.215 -0.1378 -0.0376 -0.1139
  288poe    c23 1294   0.496   1.405   2.197 -0.1218  0.0045 -0.0029
  288poe     o2 1295   0.513   1.529   2.261 -0.2562  0.1830 -0.3125
  288poe    c31 1296   0.392   1.590   2.300 -0.1839  0.0427  0.1256
  289poe    c31 1297   2.400   0.910   6.244 -0.2725  0.8307  0.2332
  289poe     o2 1298   2.289   0.865   6.170  0.2598  0.2781 -0.2495
  289poe    c23 1299   2.328   0.807   6.048  0.2210 -0.7575  0.2187
  289poe    c23 1300   2.193   0.759   5.993  0.1581  0.0100 -0.3107
  289poe     o2 1301   2.098   0.860   6.019  0.3371 -0.0616  0.6554
  289poe    c23 1302   1.974   0.802   5.982  0.4574  0.0742  0.0276
  289poe    c23 1303   1.869   0.880   6.062  0.5915 -0.1080  0.3829
  289poe     o2 1304   1.935   0.934   6.174  0.9452 -0.2150  0.2258
  289poe    c23 1305   1.869   0.884   6.288  0.3777  0.1210  0.0492
  289poe    c23 1306   1.978   0.907   6.394  0.1388 -0.6729  0.4764
  289poe     o2 1307   2.103   0.858   6.349  0.0924 -0.2427 -0.1381
  289poe    c31 1308   2.167   0.788   6.454 -0.1592  0.5351  0.5391
  290poe    c31 1309   4.602   0.238   4.623 -0.1301  0.4412  0.2752
  290poe     o2 1310   4.488   0.189   4.691  0.2916 -0.1194  0.5859
  290poe    c23 1311   4.430   0.287   4.775  0.1559  0.5013 -0.2159
  290poe    c23 1312   4.300   0.243   4.846  0.4123  0.5478  0.2908
  290poe     o2 1313   4.305   0.134   4.935  0.5214 -0.0005 -0.3701
  290poe    c23 1314   4.305   0.007   4.875 -0.7671 -0.4543  0.5348
  290poe    c23 1315   4.259  -0.086   4.989 -0.3234 -0.5660  0.6251
  290poe     o2 1316   4.195  -0.013   5.090 -0.1784  0.2759  0.1176
  290poe    c23 1317   4.217  -0.095   5.202 -0.3154  0.1656  0.0640
  290poe    c23 1318   4.173  -0.037   5.338  0.3875 -0.1524  0.4340
  290poe     o2 1319   4.229   0.091   5.359  0.6520 -0.2340  0.2284
  290poe    c31 1320   4.154   0.146   5.465  0.0921 -0.3363 -0.1106
  291poe    c31 1321   0.451   4.174   1.936  0.4565  0.3387  0.1062
  291poe     o2 1322   0.408   4.288   2.009  0.0204 -0.1913  0.6946
  291poe    c23 1323   0.462   4.280   2.139  0.4225  0.0406  0.5439
  291poe    c23 1324   0.421   4.401   2.225 -0.7539  0.0165  0.0355
  291poe     o2 1325   0.464   4.516   2.154  0.4663 -0.3373  0.1908
  291poe    c23 1326   0.458   4.631   2.235 -0.0498 -0.2213 -0.0106
  291poe    c23 1327   0.528   4.738   2.149 -0.2598 -0.0984 -0.0304
  291poe     o2 1328   0.455   4.746   2.029 -0.3060  0.5175  0.0346
  291poe    c23 1329   0.538   4.787   1.923  0.2006 -0.2118  0.1371
  291poe    c23 1330   0.509   4.695   1.803  0.1788  0.1199 -0.1153
  291poe     o2 1331   0.529   4.560   1.837 -0.1235  0.0353 -0.2642
  291poe    c31 1332   0.530   4.482   1.719  0.0021  0.6280 -0.6586
  292poe    c31 1333   2.370   4.274   3.553 -0.5713 -0.0443  0.1476
  292poe     o2 1334   2.278   4.336   3.641 -0.6505  0.2875 -0.1660
  292poe    c23 1335   2.161   4.345   3.562 -0.4211  0.2714 -0.5102
  292poe    c23 1336   2.051   4.424   3.635 -0.2247 -0.1127  0.2201
  292poe     o2 1337   2.113   4.536   3.692  0.2044 -0.5358  0.5855
  292poe    c23 1338   2.020   4.599   3.777  0.4929  0.4455  0.1914
  292poe    c23 1339   2.104   4.691   3.868  0.1173  0.5301  0.4575
  292poe     o2 1340   2.221   4.626   3.913 -0.1246 -0.6147 -0.5150
  292poe    c23 1341   2.322   4.723   3.897 -0.5865 -0.0435  0.0009
  292poe    c23 1342   2.458   4.654   3.878 -0.5385  0.1277 -0.2742
  292poe     o2 1343   2.445   4.537   3.799 -0.0339  0.0181 -0.1982
  292poe    c31 1344   2.568   4.477   3.765  0.0213 -0.1940  0.3715
  293poe    c31 1345   0.225   6.739   4.430 -0.2382 -0.5115 -0.0544
  293poe     o2 1346   0.338   6.813   4.391 -0.3139 -0.1737  0.3591
  293poe    c23 1347   0.457   6.751   4.434  0.1205  0.1693 -0.3118
  293poe    c23 1348   0.584   6.820   4.384  0.3181  0.0129 -0.0309
  293poe     o2 1349   0.584   6.955   4.427 -0.4688  0.0338 -0.0876
  293poe    c23 1350   0.713   7.009   4.444 -0.4108 -0.2174  0.2769
  293poe    c23 1351   0.681   7.152   4.491 -0.6379 -0.3491  0.5266
  293poe     o2 1352   0.614   7.236   4.400  0.7455 -0.0365 -0.2342
  293poe    c23 1353   0.667   7.255   4.271 -0.0132  0.1402 -0.5256
  293poe    c23 1354   0.577   7.360   4.203  0.0362  0.0896 -0.6682
  293poe     o2 1355   0.454   7.290   4.208 -0.3439  0.7825 -0.1899
  293poe    c31 1356   0.351   7.339   4.125 -0.5589  0.2715 -0.2279
  294poe    c31 1357   2.198   3.072   4.804  0.7089  0.2824 -0.5141
  294poe     o2 1358   2.119   3.136   4.903  0.1440 -0.4313 -0.4981
  294poe    c23 1359   1.992   3.159   4.847  0.3551  0.5816 -0.5789
  294poe    c23 1360   1.905   3.199   4.967  0.4389  0.2211 -0.3976
  294poe     o2 1361   1.986   3.287   5.043  0.0961  0.1765  0.0250
  294poe    c23 1362   1.929   3.303   5.171 -0.2063 -0.4337 -0.0293
  294poe    c23 1363   2.046   3.353   5.257 -0.3354  0.0989 -0.1579
  294poe     o2 1364   2.156   3.273   5.218 -0.3042 -0.0277  0.1830
  294poe    c23 1365   2.269   3.305   5.296 -0.1999 -0.6796  0.3037
  294poe    c23 1366   2.385   3.231   5.228 -0.1929  0.1169 -0.5630
  294poe     o2 1367   2.356   3.231   5.090 -0.3656 -0.0500 -0.5256
  294poe    c31 1368   2.460   3.166   5.020 -0.0390 -0.2898  0.1726
  295poe    c31 1369   3.866   2.197   6.095  0.3671 -0.1784 -0.2314
  295poe     o2 1370   3.770   2.130   6.016  0.0709 -0.1950  0.1347
  295poe    c23 1371   3.654   2.118   6.095  0.0700  0.1446  0.1877
  295poe    c23 1372   3.541   2.056   6.011  0.4224 -0.0946 -0.1117
  295poe     o2 1373   3.618   1.966   5.933  0.0172 -0.2601 -0.3241
  295poe    c23 1374   3.535   1.894   5.844 -0.2245 -0.7135  0.2615
  295poe    c23 1375   3.631   1.802   5.767  0.2376  0.3242 -0.4306
  295poe     o2 1376   3.724   1.900   5.728  0.1000  0.3635 -0.6637
  295poe    c23 1377   3.855   1.854   5.701  0.0547  0.0673 -0.3781
  295poe    c23 1378   3.934   1.985   5.683  0.3236 -0.0076  0.2043
  295poe     o2 1379   3.919   2.067   5.797 -0.5968 -0.8416  0.6974
  295poe    c31 1380   3.992   2.185   5.770  0.0606 -1.4177 -0.1140
  296poe    c31 1381   4.159   6.072   2.078  0.6285  0.4868 -0.1687
  296poe     o2 1382   4.278   5.996   2.080  0.5759  0.4105  0.1032
  296poe    c23 1383   4.322   5.991   2.214 -0.2449  0.0860  0.3679
  296poe    c23 1384   4.473   5.966   2.224 -0.2396  0.0473  0.1946
  296poe     o2 1385   4.516   5.843   2.169  0.2522  0.2060  0.2212
  296poe    c23 1386   4.628   5.807   2.247  0.3142 -0.1759 -0.0440
  296poe    c23 1387   4.661   5.674   2.176 -0.0464 -0.4828  0.3605
  296poe     o2 1388   4.713   5.707   2.049 -0.3510 -0.1069  0.3321
  296poe    c23 1389   4.742   5.589   1.979 -0.1460  0.0578  0.1385
  296poe    c23 1390   4.806   5.627   1.844 -0.7340 -0.4218 -0.2821
  296poe     o2 1391   4.738   5.737   1.788 -0.1047  0.2296  0.2165
  296poe    c31 1392   4.771   5.752   1.652  0.1417  0.1103  0.2633
  297poe    c31 1393   3.300   3.231   5.891  0.0717  0.2279  0.1581
  297poe     o2 1394   3.281   3.243   5.752  0.3129 -0.4470  0.0605
  297poe    c23 1395   3.173   3.335   5.751  0.1247 -0.6672  0.0061
  297poe    c23 1396   3.136   3.349   5.602  0.5043  0.4504  0.0051
  297poe     o2 1397   3.143   3.220   5.545 -0.2601  0.5109 -0.2378
  297poe    c23 1398   3.109   3.223   5.408 -0.3349 -0.0873 -0.2363
  297poe    c23 1399   3.196   3.123   5.331  0.3578  0.4329 -0.1409
  297poe     o2 1400   3.327   3.130   5.383  0.3305 -0.2561  0.0378
  297poe    c23 1401   3.417   3.229   5.338 -0.1372 -0.0141 -0.3763
  297poe    c23 1402   3.535   3.229   5.436 -0.2035 -0.5342 -0.2946
  297poe     o2 1403   3.488   3.229   5.569  0.1612  0.0745 -0.1597
  297poe    c31 1404   3.585   3.241   5.670  0.2479  0.0225 -0.2358
  298poe    c31 1405   2.448   6.570   4.851  0.5365 -0.1092  0.1631
  298poe     o2 1406   2.444   6.646   4.732 -0.4904  0.0745  0.3019
  298poe    c23 1407   2.464   6.780   4.771  0.5890  0.1682 -0.5369
  298poe    c23 1408   2.340   6.868   4.797  0.2194 -0.5189  0.0483
  298poe     o2 1409   2.300   6.846   4.930  0.3995  0.1943  0.2215
  298poe    c23 1410   2.160   6.860   4.944  0.4353  1.0593 -0.2034
  298poe    c23 1411   2.135   6.830   5.093  0.4183 -0.2482 -0.4515
  298poe     o2 1412   2.191   6.934   5.170 -0.2265 -0.4263  0.2596
  298poe    c23 1413   2.134   6.925   5.299 -0.8284  0.2012  0.0441
  298poe    c23 1414   2.191   7.036   5.388 -0.3445  0.2511 -0.3271
  298poe     o2 1415   2.330   7.040   5.363 -0.2280 -0.3888  0.1990
  298poe    c31 1416   2.402   7.126   5.448  0.0975 -0.4890  0.0267
  299poe    c31 1417   1.757   2.280   4.528 -0.5151 -0.1192 -0.0415
  299poe     o2 1418   1.795   2.151   4.571  0.2407  0.0991 -0.0381
  299poe    c23 1419   1.862   2.152   4.695  0.3224 -0.2124 -0.0791
  299poe    c23 1420   1.882   2.012   4.756  0.2758 -0.1198  0.1519
  299poe     o2 1421   1.767   1.930   4.758  0.1307  0.0857  0.1679
  299poe    c23 1422   1.807   1.813   4.824 -0.1579 -0.7221 -1.0528
  299poe    c23 1423   1.686   1.742   4.886  0.1635 -0.0659  0.3865
  299poe     o2 1424   1.571   1.824   4.880  0.0949 -0.1730  0.2328
  299poe    c23 1425   1.454   1.750   4.909 -0.2485  0.5996  0.8456
  299poe    c23 1426   1.431   1.684   5.047 -0.7789 -0.4363  0.2720
  299poe     o2 1427   1.458   1.778   5.149  0.1086  0.2050 -0.5325
  299poe    c31 1428   1.439   1.706   5.268 -0.3249  0.2213 -0.5905
  300poe    c31 1429   0.452   2.197   5.881  0.5123  0.0024 -0.6666
  300poe     o2 1430   0.467   2.328   5.933 -0.2678  0.0473 -0.5514
  300poe    c23 1431   0.360   2.366   6.018  0.7662  0.2742  0.6688
  300poe    c23 1432   0.365   2.518   6.042 -0.2820  0.2848  0.8583
  300poe     o2 1433   0.502   2.535   6.071 -0.1386 -0.1794  0.4804
  300poe    c23 1434   0.532   2.673   6.066 -0.3522 -0.1397  0.2702
  300poe    c23 1435   0.671   2.673   6.000 -0.4956 -0.5441 -0.0340
  300poe     o2 1436   0.662   2.591   5.886  0.0209 -0.5241 -0.0934
  300poe    c23 1437   0.766   2.602   5.791  0.0187 -0.1551 -0.0528
  300poe    c23 1438   0.754   2.494   5.683  0.6480 -0.1683 -0.1127
  300poe     o2 1439   0.703   2.382   5.751  0.5419  0.0559  0.1785
  300poe    c31 1440   0.722   2.273   5.663  0.5150  0.0474  0.1827
  301poe    c31 1441   0.513   4.135   3.242  0.4102 -0.0888 -0.5315
  301poe     o2 1442   0.400   4.059   3.206 -0.2119  0.6452 -0.1565
  301poe    c23 1443   0.278   4.106   3.260 -0.2204 -0.1483  0.5470
  301poe    c23 1444   0.171   3.997   3.245 -0.1752 -0.1231 -0.0026
  301poe     o2 1445   0.127   3.973   3.113  0.2585  0.1490 -0.1964
  301poe    c23 1446   0.081   3.841   3.095 -0.6561  0.4393 -0.0472
  301poe    c23 1447   0.147   3.782   2.969 -0.0943  0.8108  0.0710
  301poe     o2 1448   0.286   3.803   2.985  0.0415  0.3057 -0.4095
  301poe    c23 1449   0.345   3.788   2.858  0.1263  0.7645 -0.4248
  301poe    c23 1450   0.495   3.821   2.864  0.3374 -0.2819  0.3496
  301poe     o2 1451   0.513   3.933   2.948 -0.2872 -0.2532  0.4490
  301poe    c31 1452   0.648   3.973   2.938 -0.3586 -0.2166 -0.5015
  302poe    c31 1453   2.053   0.601   1.648  0.2049 -0.1720  0.2133
  302poe     o2 1454   2.180   0.561   1.604 -0.0646 -0.4597 -0.3213
  302poe    c23 1455   2.256   0.534   1.720 -0.0965  0.6928 -0.0244
  302poe    c23 1456   2.405   0.523   1.682 -0.0612  0.6603  0.1237
  302poe     o2 1457   2.416   0.473   1.551  0.2932  0.5919  0.1785
  302poe    c23 1458   2.545   0.454   1.496 -0.0967 -0.2029 -0.4810
  302poe    c23 1459   2.516   0.450   1.345 -0.3390  0.3192 -0.4514
  302poe     o2 1460   2.389   0.393   1.325 -0.1203 -0.2008 -0.3771
  302poe    c23 1461   2.342   0.394   1.192  0.0216  0.2631 -0.4238
  302poe    c23 1462   2.193   0.358   1.190  0.0522  0.1190 -0.0959
  302poe     o2 1463   2.134   0.416   1.305 -0.2510  0.3235 -0.3525
  302poe    c31 1464   2.006   0.426   1.246  0.3121 -0.0032 -1.6727
  303poe    c31 1465   0.358   3.801   3.587 -0.1590 -0.1708 -0.0806
  303poe     o2 1466   0.327   3.709   3.689  0.3422  0.1330  0.3473
  303poe    c23 1467   0.197   3.727   3.740  0.0673 -0.0463 -0.2857
  303poe    c23 1468   0.161   3.653   3.870 -0.1132 -0.3270 -0.4952
  303poe     o2 1469   0.147   3.516   3.838 -0.0195 -0.3104 -0.6104
  303poe    c23 1470   0.144   3.434   3.953 -0.2933 -0.1130 -0.4725
  303poe    c23 1471   0.137   3.289   3.900  0.6727 -0.2770 -0.1772
  303poe     o2 1472   0.065   3.287   3.778  0.6953  0.5142 -0.2066
  303poe    c23 1473   0.041   3.157   3.730  0.6914  0.6007 -0.4390
  303poe    c23 1474  -0.015   3.161   3.587 -0.1587 -0.4452 -0.1423
  303poe     o2 1475   0.060   3.257   3.516 -0.0617 -0.3142  0.1361
  303poe    c31 1476   0.066   3.224   3.379  0.2414 -0.5203  0.1969
  304poe    c31 1477   3.772   1.986   3.623 -0.3511  0.3830 -0.2505
  304poe     o2 1478   3.913   1.994   3.615 -0.3291 -0.1811 -0.4452
  304poe    c23 1479   3.952   1.975   3.481  0.0173  0.1315 -0.3898
  304poe    c23 1480   4.106   1.978   3.479  0.0159  0.0753 -0.6163
  304poe     o2 1481   4.147   2.070   3.577  0.1243  0.0516 -0.6392
  304poe    c23 1482   4.287   2.062   3.587  0.1316  0.0959 -0.7095
  304poe    c23 1483   4.342   2.178   3.671  0.4478 -0.4363 -0.1770
  304poe     o2 1484   4.296   2.182   3.805  0.1408 -0.4507 -0.2820
  304poe    c23 1485   4.400   2.247   3.875 -0.0278 -0.4485 -0.0326
  304poe    c23 1486   4.365   2.272   4.022  0.0636  0.0416 -0.0935
  304poe     o2 1487   4.462   2.320   4.113 -0.0046  0.4451 -0.2322
  304poe    c31 1488   4.542   2.213   4.157 -0.5360  0.0845 -0.1342
  305poe    c31 1489   3.019   2.541   4.546  0.4479 -0.4706 -0.2906
  305poe     o2 1490   2.896   2.609   4.535  0.5870 -0.1862 -0.0989
  305poe    c23 1491   2.793   2.536   4.598  0.1708  0.6979  0.2592
  305poe    c23 1492   2.658   2.609   4.582  0.0352  0.4562  0.2899
  305poe     o2 1493   2.653   2.743   4.624  0.6852  0.5619  0.0408
  305poe    c23 1494   2.534   2.805   4.581  0.1205 -0.4256  0.1495
  305poe    c23 1495   2.546   2.953   4.624 -0.0204 -0.6429  0.9367
  305poe     o2 1496   2.675   3.006   4.606 -0.4664  0.0403 -0.3219
  305poe    c23 1497   2.671   3.146   4.590  0.1301  0.0256 -0.6418
  305poe    c23 1498   2.804   3.220   4.614  0.1668 -0.1488 -0.3026
  305poe     o2 1499   2.910   3.183   4.529  0.3231 -0.5082  0.0464
  305poe    c31 1500   2.985   3.296   4.492 -0.7183  0.1731 -0.0220
  306poe    c31 1501   3.221   3.250   6.323 -0.0123  0.0178  0.3323
  306poe     o2 1502   3.165   3.144   6.397  0.0903 -0.0698  0.2852
  306poe    c23 1503   3.028   3.137   6.362  0.1534 -0.2401  0.0718
  306poe    c23 1504   3.007   2.985   6.372 -0.1207 -0.2033  0.0438
  306poe     o2 1505   3.041   2.948   6.504 -0.1138  0.2984  0.1844
  306poe    c23 1506   3.007   2.812   6.521 -0.3846  0.3337 -0.0619
  306poe    c23 1507   3.056   2.782   6.664 -0.0990  0.2747 -0.1703
  306poe     o2 1508   3.172   2.862   6.675 -0.2414  0.4390  0.1428
  306poe    c23 1509   3.290   2.786   6.668 -0.3999  0.2607 -0.7528
  306poe    c23 1510   3.412   2.880   6.676  0.0662 -0.4008  0.1243
  306poe     o2 1511   3.381   3.008   6.625  0.4994 -0.4624 -0.2876
  306poe    c31 1512   3.485   3.101   6.645  0.1143 -0.1250  0.1459
  307poe    c31 1513   5.808   4.768   2.193  0.2375 -0.2460  0.3356
  307poe     o2 1514   5.713   4.710   2.279 -0.3949 -0.0203 -0.2008
  307poe    c23 1515   5.594   4.785   2.291 -0.3012  0.0509  0.3408
  307poe    c23 1516   5.511   4.724   2.405 -0.6067  0.4722  0.3490
  307poe     o2 1517   5.588   4.679   2.514 -0.2717 -0.2238 -0.1642
  307poe    c23 1518   5.570   4.547   2.560  0.3313 -0.2580 -0.0232
  307poe    c23 1519   5.645   4.440   2.478  0.2105 -0.0087 -0.4602
  307poe     o2 1520   5.773   4.498   2.480  0.2572 -0.1177 -0.2803
  307poe    c23 1521   5.870   4.418   2.416  0.1822 -0.5714  0.1664
  307poe    c23 1522   6.005   4.491   2.429 -0.0611 -0.0379 -0.2893
  307poe     o2 1523   5.964   4.625   2.410 -0.0877  0.0653  0.4701
  307poe    c31 1524   6.085   4.697   2.418  0.1509 -0.2171 -0.5195
  308poe    c31 1525   5.171   4.488   3.911  0.0447  0.1712  0.2116
  308poe     o2 1526   5.202   4.492   4.049  0.0638 -0.1095  0.2178
  308poe    c23 1527   5.315   4.574   4.070 -0.0490  0.0849  0.0777
  308poe    c23 1528   5.367   4.496   4.192 -0.5648 -0.5331 -0.0887
  308poe     o2 1529   5.273   4.487   4.297  0.3628  0.4347  0.8523
  308poe    c23 1530   5.309   4.386   4.388  0.5479 -1.1867 -0.9513
  308poe    c23 1531   5.188   4.300   4.429  0.3801 -0.1966  0.7248
  308poe     o2 1532   5.070   4.375   4.452  0.6168  0.1525  0.8118
  308poe    c23 1533   4.970   4.298   4.516  0.1085  0.1808  0.0604
  308poe    c23 1534   4.840   4.375   4.544 -0.1682 -0.3239  0.1704
  308poe     o2 1535   4.807   4.443   4.425 -0.1591  0.1389  0.4295
  308poe    c31 1536   4.716   4.548   4.449 -0.1044  0.2212  0.2832
  309poe    c31 1537   1.645   1.820   3.887 -0.0146 -0.3835 -0.1271
  309poe     o2 1538   1.780   1.860   3.879  0.2391 -1.0000  0.8150
  309poe    c23 1539   1.837   1.823   3.755 -0.0981 -0.4729  0.4938
  309poe    c23 1540   1.990   1.816   3.768 -0.0504  0.1195  0.2335
  309poe     o2 1541   2.022   1.912   3.867 -0.1358  0.3478  0.0418
  309poe    c23 1542   2.161   1.917   3.886 -0.2149 -0.5068  0.9753
  309poe    c23 1543   2.178   2.014   4.005  0.5875 -0.3408  0.7329
  309poe     o2 1544   2.066   1.993   4.087  0.0169  0.2850  0.1305
  309poe    c23 1545   2.055   2.076   4.201 -0.5859  0.0623  0.2394
  309poe    c23 1546   1.934   2.025   4.282 -0.2110  0.1159  0.8383
  309poe     o2 1547   1.841   1.984   4.184  0.0913  0.1393  0.5383
  309poe    c31 1548   1.718   1.949   4.243  0.3566 -0.5568  0.6828
  310poe    c31 1549   3.646   4.859   3.273 -0.0544  0.0071 -0.1437
  310poe     o2 1550   3.573   4.739   3.253  0.3122 -0.2012 -0.2384
  310poe    c23 1551   3.644   4.634   3.314  0.1022 -0.0057  0.3466
  310poe    c23 1552   3.605   4.509   3.232 -0.3192  0.5593 -0.3277
  310poe     o2 1553   3.471   4.527   3.191 -0.4704 -0.1352 -0.1484
  310poe    c23 1554   3.427   4.417   3.114 -0.3099 -0.1134 -0.2728
  310poe    c23 1555   3.275   4.429   3.091 -0.4488 -0.1887  0.5877
  310poe     o2 1556   3.250   4.542   3.011 -0.7734 -0.2014  0.6713
  310poe    c23 1557   3.116   4.547   2.967 -0.5290 -0.1604 -0.0699
  310poe    c23 1558   3.076   4.693   2.939  0.0661 -0.0086 -0.1268
  310poe     o2 1559   3.086   4.790   3.041  0.2120 -0.0984 -0.0553
  310poe    c31 1560   3.011   4.906   3.015  0.3746  0.0206  0.0072
  311poe    c31 1561   2.538   4.195   5.968  0.6590  0.3340  0.0048
  311poe     o2 1562   2.496   4.320   6.017  0.1717  0.2988 -0.3215
  311poe    c23 1563   2.416   4.309   6.132  0.1328 -0.1725 -0.3936
  311poe    c23 1564   2.493   4.334   6.263 -1.1154 -0.2644  0.3718
  311poe     o2 1565   2.581   4.230   6.298 -0.3078  0.1391 -0.4206
  311poe    c23 1566   2.712   4.281   6.304 -0.0558 -0.4315 -0.9264
  311poe    c23 1567   2.800   4.174   6.370 -0.2330  0.1902  0.3526
  311poe     o2 1568   2.723   4.135   6.481 -0.8316 -0.3033 -0.2298
  311poe    c23 1569   2.808   4.047   6.551 -0.1704  0.5082 -0.0093
  311poe    c23 1570   2.708   3.984   6.649 -0.0853 -0.0932 -0.3046
  311poe     o2 1571   2.593   3.929   6.589 -0.5315  0.7499 -0.2273
  311poe    c31 1572   2.515   3.874   6.693  0.3825  0.6644  0.4287
  312poe    c31 1573   1.770   2.475   5.497 -0.1348 -0.4170  0.1691
  312poe     o2 1574   1.694   2.370   5.554 -0.5507 -0.2556 -0.0850
  312poe    c23 1575   1.596   2.313   5.471 -0.5083  0.1921 -0.4536
  312poe    c23 1576   1.551   2.182   5.540 -0.0070  0.2449 -0.0236
  312poe     o2 1577   1.488   2.198   5.666  0.0295 -0.5532  0.1010
  312poe    c23 1578   1.557   2.115   5.757  0.3422 -0.3858  0.0207
  312poe    c23 1579   1.472   2.104   5.885 -0.4272  0.2182 -0.4273
  312poe     o2 1580   1.439   2.236   5.921 -0.2960 -0.0061  0.5414
  312poe    c23 1581   1.356   2.231   6.034 -0.4815 -0.0578  0.4026
  312poe    c23 1582   1.337   2.374   6.089 -0.3552  0.3013 -0.4845
  312poe     o2 1583   1.330   2.453   5.972  0.0788  0.0597 -0.6771
  312poe    c31 1584   1.286   2.582   6.011  0.3389  0.1661 -0.7329
  313poe    c31 1585   3.195   3.014   1.592 -0.3460 -0.2622  0.0078
  313poe     o2 1586   3.214   2.984   1.728  0.7227  0.0990 -0.0471
  313poe    c23 1587   3.291   3.083   1.793 -0.2234  0.2868  0.8178
  313poe    c23 1588   3.281   3.042   1.941 -0.5520  0.0904  0.7438
  313poe     o2 1589   3.279   2.901   1.949 -0.1401  0.0644  0.4233
  313poe    c23 1590   3.270   2.848   2.079 -0.2360  0.4373  0.5690
  313poe    c23 1591   3.282   2.695   2.077  0.4256  0.4933 -0.3930
  313poe     o2 1592   3.200   2.643   1.975 -0.0749  0.0947  0.1993
  313poe    c23 1593   3.164   2.512   2.012 -0.0394 -0.0044 -0.1141
  313poe    c23 1594   3.029   2.469   1.952  0.0451 -0.0306 -0.2868
  313poe     o2 1595   2.918   2.553   1.977  0.1967  0.1580 -0.2493
  313poe    c31 1596   2.809   2.502   1.904  0.2434 -0.4485  0.0992
  314poe    c31 1597   5.592   3.085   1.105  0.4273  0.4203 -0.6357
  314poe     o2 1598   5.574   3.224   1.103 -0.2690  0.3470 -0.0603
  314poe    c23 1599   5.502   3.259   0.986 -0.4365  0.1079 -0.0302
  314poe    c23 1600   5.464   3.408   1.000 -0.1249  0.1843  0.0336
  314poe     o2 1601   5.584   3.472   1.037  0.2265 -0.1981 -0.4231
  314poe    c23 1602   5.560   3.604   1.081  0.5006 -0.1033 -0.5557
  314poe    c23 1603   5.681   3.663   1.155  0.1237  0.2408 -0.2036
  314poe     o2 1604   5.732   3.549   1.222  0.2353  0.4314  0.0376
  314poe    c23 1605   5.745   3.541   1.362  0.0853 -0.6993 -0.0035
  314poe    c23 1606   5.823   3.411   1.384  0.8344 -0.2238  0.1831
  314poe     o2 1607   5.753   3.312   1.313  0.1343  0.4793 -0.1132
  314poe    c31 1608   5.816   3.188   1.339 -0.4898  0.2509  0.3374
  315poe    c31 1609   0.238   1.328   1.279  0.1044  0.0079  0.2026
  315poe     o2 1610   0.114   1.393   1.266  0.1807  0.1037 -0.0625
  315poe    c23 1611   0.010   1.299   1.254 -0.0449  0.3554 -0.0961
  315poe    c23 1612  -0.120   1.378   1.229 -0.4484 -0.1789  0.2834
  315poe     o2 1613  -0.092   1.472   1.128 -0.6130 -0.1922  0.2256
  315poe    c23 1614  -0.139   1.603   1.152  0.4668  0.2721 -0.1567
  315poe    c23 1615  -0.048   1.704   1.079  0.8865 -0.2125 -0.3089
  315poe     o2 1616   0.072   1.694   1.152  0.8242 -0.3659 -0.2265
  315poe    c23 1617   0.178   1.771   1.098  0.6391 -0.0242 -0.1055
  315poe    c23 1618   0.288   1.780   1.206  0.2824 -0.5165  0.3043
  315poe     o2 1619   0.295   1.654   1.269 -0.0304 -0.4515  0.4694
  315poe    c31 1620   0.392   1.650   1.371  0.1749 -0.3351  0.2797
  316poe    c31 1621   2.035   1.627   5.817 -0.5325  0.3568  0.1417
  316poe     o2 1622   2.072   1.492   5.828 -0.0974  0.4407 -0.2655
  316poe    c23 1623   2.177   1.472   5.736  0.1556  0.3062  0.0521
  316poe    c23 1624   2.185   1.327   5.683  0.0965  0.3416 -0.0555
  316poe     o2 1625   2.121   1.249   5.781  0.1187  0.0611 -0.2659
  316poe    c23 1626   2.109   1.112   5.751 -0.2605 -0.0432  0.3306
  316poe    c23 1627   1.982   1.073   5.673  0.0305 -0.2848 -0.0304
  316poe     o2 1628   1.883   1.086   5.773 -0.1929  0.2485 -0.3129
  316poe    c23 1629   1.760   1.044   5.720 -0.2050 -0.1595  0.0307
  316poe    c23 1630   1.636   1.070   5.809  0.1312  0.0604  0.4380
  316poe     o2 1631   1.617   1.209   5.791  0.0169  0.1156  0.9635
  316poe    c31 1632   1.486   1.249   5.825 -0.2357  0.2265 -0.1000
  317poe    c31 1633   6.705   5.058   2.682 -0.1191  0.4392 -0.4119
  317poe     o2 1634   6.654   5.000   2.800 -0.3767  0.0401 -0.7183
  317poe    c23 1635   6.576   4.886   2.772 -0.7237  0.1496 -0.2128
  317poe    c23 1636   6.544   4.812   2.903 -0.4132 -0.1697 -0.3157
  317poe     o2 1637   6.543   4.916   2.998 -0.2047 -0.0317 -0.4624
  317poe    c23 1638   6.509   4.867   3.126  0.0978 -0.1008 -0.4079
  317poe    c23 1639   6.557   4.977   3.222  0.4637 -0.1666 -0.5149
  317poe     o2 1640   6.682   5.017   3.170  0.3866  0.2160 -0.4131
  317poe    c23 1641   6.742   5.140   3.204 -0.0249  0.4887 -0.6582
  317poe    c23 1642   6.858   5.180   3.111  0.3542 -0.1613 -0.4737
  317poe     o2 1643   6.805   5.202   2.982 -0.3628  0.0825 -0.1464
  317poe    c31 1644   6.906   5.220   2.885  0.0417  0.1896  0.2879
  318poe    c31 1645   2.861   4.308   0.871 -0.3303  0.0082  0.3246
  318poe     o2 1646   2.990   4.309   0.814 -0.1780  0.0336  0.6701
  318poe    c23 1647   3.096   4.296   0.906  0.0105  0.3163  0.4932
  318poe    c23 1648   3.216   4.266   0.813 -0.3109  0.0456  0.1646
  318poe     o2 1649   3.214   4.366   0.714 -0.6899 -0.1218  0.0007
  318poe    c23 1650   3.302   4.347   0.605 -0.4418  0.3466  0.1176
  318poe    c23 1651   3.289   4.464   0.507  0.3314  0.1646 -0.2126
  318poe     o2 1652   3.149   4.461   0.493  0.3067 -0.1012  0.1004
  318poe    c23 1653   3.101   4.586   0.448  0.4551 -0.2151 -0.3811
  318poe    c23 1654   2.949   4.564   0.458  0.4431  0.0808  0.1824
  318poe     o2 1655   2.923   4.494   0.577  0.2680 -0.5198 -0.1989
  318poe    c31 1656   2.784   4.470   0.579  0.1035  0.3601 -0.6792
  319poe    c31 1657   4.366   1.896   5.875  0.5764 -0.5218 -0.2583
  319poe     o2 1658   4.418   1.952   5.756  0.3315 -0.0773 -0.1550
  319poe    c23 1659   4.310   1.944   5.667  0.3383 -0.2408 -0.1490
  319poe    c23 1660   4.370   1.958   5.525 -0.3626  0.0186 -0.4279
  319poe     o2 1661   4.405   2.094   5.535 -0.4419 -0.0056  0.2668
  319poe    c23 1662   4.476   2.135   5.420 -0.3588  0.2337  0.4039
  319poe    c23 1663   4.594   2.212   5.482  0.0545 -0.3232  0.3115
  319poe     o2 1664   4.635   2.130   5.590 -0.1586 -0.5338  0.2348
  319poe    c23 1665   4.759   2.174   5.643 -0.0624  0.1815 -0.5580
  319poe    c23 1666   4.775   2.114   5.784  0.1357  0.6250 -0.3905
  319poe     o2 1667   4.650   2.109   5.849  0.4409 -0.4870  0.1470
  319poe    c31 1668   4.678   2.090   5.985  0.0274 -0.2996  0.2608
  320poe    c31 1669   3.960   3.459   5.957 -0.0399  0.0972 -0.1525
  320poe     o2 1670   3.978   3.519   6.083 -0.0768  0.6757 -0.4208
  320poe    c23 1671   4.110   3.565   6.100  0.1110  0.1621 -0.4732
  320poe    c23 1672   4.131   3.619   6.243 -0.2332 -0.1195 -0.3163
  320poe     o2 1673   4.051   3.526   6.313 -0.2434  0.0430 -0.1088
  320poe    c23 1674   4.022   3.563   6.446 -0.2255  0.0059 -0.0951
  320poe    c23 1675   3.911   3.471   6.501 -0.0474 -0.1984 -0.0781
  320poe     o2 1676   3.822   3.471   6.392 -0.4045  0.2436  0.2104
  320poe    c23 1677   3.706   3.391   6.402  0.0653 -0.4776 -0.0596
  320poe    c23 1678   3.600   3.416   6.293  0.3580 -0.0616 -0.2505
  320poe     o2 1679   3.667   3.392   6.172  0.2625 -0.2460 -0.2667
  320poe    c31 1680   3.592   3.377   6.053 -0.1171 -0.3952 -0.0101
  321poe    c31 1681   2.503   1.088   4.464  0.5185  0.0173 -0.2395
  321poe     o2 1682   2.456   1.030   4.584 -0.5750  0.8061 -0.2662
  321poe    c23 1683   2.357   0.930   4.569  0.7027 -0.5365  0.0276
  321poe    c23 1684   2.311   0.867   4.702 -0.3446  0.3577  0.1090
  321poe     o2 1685   2.224   0.949   4.775  0.0439  0.2903  0.6564
  321poe    c23 1686   2.251   0.913   4.909  0.1779  0.1188  0.5832
  321poe    c23 1687   2.155   0.991   5.000  0.0105  0.2862  0.2664
  321poe     o2 1688   2.108   1.113   4.948 -0.4471  0.1119  0.2673
  321poe    c23 1689   2.006   1.155   5.036  0.1233  0.4952  0.7587
  321poe    c23 1690   2.009   1.309   5.042  0.3030  0.5236 -0.0545
  321poe     o2 1691   2.006   1.366   4.913 -0.2238  0.2219 -0.1829
  321poe    c31 1692   2.054   1.497   4.934  0.4109  0.0021 -0.2349
  322poe    c31 1693   2.549   5.727   3.849 -0.4877  0.2160 -0.2961
  322poe     o2 1694   2.581   5.603   3.908 -0.2747  0.3837 -0.0566
  322poe    c23 1695   2.456   5.543   3.933 -0.1072  0.2884  0.5753
  322poe    c23 1696   2.489   5.396   3.904  0.1293  0.3473  0.5472
  322poe     o2 1697   2.610   5.374   3.973  0.2368 -0.0195  0.2478
  322poe    c23 1698   2.654   5.245   3.938  0.2025  0.0717 -0.1278
  322poe    c23 1699   2.778   5.240   4.029 -0.1922  0.4766  0.4383
  322poe     o2 1700   2.851   5.360   4.023 -0.3590  0.5490 -0.2462
  322poe    c23 1701   2.896   5.403   4.150  0.4040 -0.1660 -0.2640
  322poe    c23 1702   2.945   5.546   4.120  0.0437 -0.0855 -0.4784
  322poe     o2 1703   2.843   5.616   4.053  0.1828  0.6672  0.0894
  322poe    c31 1704   2.897   5.731   3.992  0.1092  0.5617 -0.1735
  323poe    c31 1705   6.073   3.917   3.391  0.6562  0.1959 -1.1087
  323poe     o2 1706   6.105   4.030   3.469 -0.1731 -0.1862 -0.1948
  323poe    c23 1707   6.085   3.993   3.603  0.0230 -0.2712 -0.1896
  323poe    c23 1708   6.145   4.117   3.673  0.4864 -0.2559 -0.6112
  323poe     o2 1709   6.275   4.133   3.621  0.7736 -0.4457  0.0524
  323poe    c23 1710   6.347   4.225   3.701  0.1484 -0.2624  0.4109
  323poe    c23 1711   6.498   4.218   3.671  0.0791 -0.0438  0.0010
  323poe     o2 1712   6.497   4.222   3.530 -0.3051  0.1997  0.0081
  323poe    c23 1713   6.623   4.216   3.468 -0.1890 -0.5024  0.3017
  323poe    c23 1714   6.600   4.190   3.318  0.9427 -0.1866  0.0622
  323poe     o2 1715   6.488   4.106   3.302  0.1193  1.0291 -0.7665
  323poe    c31 1716   6.488   4.025   3.186 -0.0325 -0.4867  0.2525
  324poe    c31 1717   0.670   4.556   3.467 -0.5819 -0.0634  0.7357
  324poe     o2 1718   0.766   4.610   3.556 -0.2783  0.1923  0.2555
  324poe    c23 1719   0.848   4.711   3.502 -0.5030  0.3943  0.2902
  324poe    c23 1720   0.923   4.768   3.623  0.6068  0.4607 -0.4152
  324poe     o2 1721   0.990   4.662   3.688 -0.5112  0.2946  0.4881
  324poe    c23 1722   1.053   4.701   3.808 -0.1217  0.3306  0.2711
  324poe    c23 1723   1.087   4.572   3.886 -0.0620 -0.1881 -0.5963
  324poe     o2 1724   0.975   4.486   3.882 -0.1197 -0.1243 -0.3181
  324poe    c23 1725   1.032   4.357   3.895  0.4100  0.1923  0.6873
  324poe    c23 1726   1.005   4.272   4.020  0.2285 -0.1660  0.4078
  324poe     o2 1727   1.036   4.343   4.138 -0.2245  0.2882  0.2544
  324poe    c31 1728   1.090   4.267   4.243  0.2901  0.2637 -0.0250
  325poe    c31 1729   5.555   2.970   5.213 -0.3863 -0.4674  0.6623
  325poe     o2 1730   5.678   2.907   5.182 -0.2437  0.1023  0.0672
  325poe    c23 1731   5.654   2.805   5.088 -0.2594  0.2590 -0.1020
  325poe    c23 1732   5.768   2.794   4.986  0.3289  0.4286  0.5351
  325poe     o2 1733   5.886   2.770   5.060  0.5937 -0.4654 -0.1570
  325poe    c23 1734   6.007   2.836   5.026  0.2505  0.1220 -0.2586
  325poe    c23 1735   6.011   2.979   5.083 -0.0133  0.0798 -0.1282
  325poe     o2 1736   5.990   2.969   5.222  0.4200 -0.0217 -0.0682
  325poe    c23 1737   6.012   3.090   5.292  0.0666 -0.0139  0.0285
  325poe    c23 1738   5.945   3.064   5.428 -0.1540 -0.1777 -0.1099
  325poe     o2 1739   5.819   3.008   5.400 -0.0487 -0.3077 -0.3285
  325poe    c31 1740   5.721   3.001   5.502  1.1675  0.3189  0.9091
  326poe    c31 1741   3.397   1.116   5.361 -0.5108 -0.4683 -0.2206
  326poe     o2 1742   3.462   1.227   5.305 -0.6213 -0.3009 -0.0174
  326poe    c23 1743   3.515   1.319   5.398 -0.2186 -0.5239 -0.0218
  326poe    c23 1744   3.620   1.404   5.324 -0.0979 -0.1919  0.5206
  326poe     o2 1745   3.728   1.329   5.273 -0.4427 -0.4679  0.1825
  326poe    c23 1746   3.816   1.416   5.206 -0.4124 -0.3876  0.3268
  326poe    c23 1747   3.940   1.345   5.148 -0.3698 -0.0646  0.0232
  326poe     o2 1748   3.895   1.231   5.079 -0.0629 -0.2868  0.1902
  326poe    c23 1749   4.002   1.151   5.034  0.1951  0.2053 -0.0752
  326poe    c23 1750   3.949   1.012   4.991 -0.0963  0.4667 -0.5801
  326poe     o2 1751   3.838   0.973   5.068 -0.3567 -0.1950 -1.2791
  326poe    c31 1752   3.823   0.834   5.056  0.6019 -0.3979 -0.2497
  327poe    c31 1753   5.203   0.589   1.506 -0.0346  0.2535  0.6960
  327poe     o2 1754   5.161   0.718   1.544  0.1351  0.6115 -0.3061
  327poe    c23 1755   5.039   0.750   1.482 -0.4879 -0.8258  0.1286
  327poe    c23 1756   4.973   0.845   1.583 -0.2606 -0.5214 -0.0079
  327poe     o2 1757   5.076   0.940   1.606 -0.6722 -0.1146  0.1763
  327poe    c23 1758   5.020   1.049   1.675 -0.4544 -0.0182  0.1997
  327poe    c23 1759   5.136   1.132   1.734 -0.2266 -0.3309  0.1971
  327poe     o2 1760   5.239   1.042   1.767  0.2620  0.1978  0.1136
  327poe    c23 1761   5.329   1.083   1.867  0.2055  0.0757  0.2139
  327poe    c23 1762   5.459   1.000   1.866 -0.2229 -0.5924 -0.1241
  327poe     o2 1763   5.431   0.873   1.922 -0.2222 -0.6406 -0.2335
  327poe    c31 1764   5.548   0.801   1.954  0.0240 -0.0680  0.1617
  328poe    c31 1765   1.814   3.248   4.180 -0.2608 -0.3086  0.1337
  328poe     o2 1766   1.724   3.192   4.087 -0.5817  0.3851  0.0177
  328poe    c23 1767   1.599   3.250   4.114 -0.4000  0.7071  0.1765
  328poe    c23 1768   1.491   3.177   4.031 -0.1192  0.4168  0.0613
  328poe     o2 1769   1.542   3.143   3.904  0.1711 -0.3473  0.3771
  328poe    c23 1770   1.478   3.031   3.848 -0.1788  0.3026 -0.5492
  328poe    c23 1771   1.571   2.908   3.860 -0.1666  0.4287  0.7754
  328poe     o2 1772   1.703   2.952   3.844 -0.0806 -0.1296 -0.1260
  328poe    c23 1773   1.792   2.843   3.856 -0.1868 -0.1209  0.8048
  328poe    c23 1774   1.931   2.909   3.864 -0.0596 -0.1900 -0.5587
  328poe     o2 1775   1.932   3.022   3.949  0.0157 -0.3486 -0.3468
  328poe    c31 1776   2.069   3.052   3.955 -0.1733  0.4252  0.2687
  329poe    c31 1777   4.855   2.650   5.981  0.2869  0.5554 -0.1518
  329poe     o2 1778   4.811   2.780   5.950 -0.0425  0.5578  0.3237
  329poe    c23 1779   4.674   2.790   5.916  0.1074 -0.1540 -0.5027
  329poe    c23 1780   4.670   2.901   5.809 -0.6020  0.2614 -0.0499
  329poe     o2 1781   4.767   3.001   5.829 -0.1237 -0.1116 -0.4839
  329poe    c23 1782   4.736   3.109   5.744 -0.1652  0.0745 -0.2340
  329poe    c23 1783   4.791   3.245   5.789  0.2970 -0.0441 -0.4424
  329poe     o2 1784   4.922   3.226   5.838  0.1109 -0.0843  0.0417
  329poe    c23 1785   4.974   3.356   5.857 -0.5902  0.2269 -0.1350
  329poe    c23 1786   5.111   3.331   5.923 -0.7199 -0.4506 -0.1093
  329poe     o2 1787   5.094   3.292   6.058 -0.2460  0.0526  0.1005
  329poe    c31 1788   5.202   3.213   6.104 -0.4110 -0.1362  0.1642
  330poe    c31 1789   4.507   3.025   3.349  0.6065 -0.5027 -0.0635
  330poe     o2 1790   4.583   3.090   3.249  0.1528 -0.4682 -0.3908
  330poe    c23 1791   4.675   3.001   3.190  0.1272 -0.7090 -0.0742
  330poe    c23 1792   4.691   3.050   3.045  0.1764 -0.1587  0.1121
  330poe     o2 1793   4.709   3.187   3.071 -0.2341 -0.0103 -0.3648
  330poe    c23 1794   4.790   3.251   2.975  0.5329 -0.3261  0.0593
  330poe    c23 1795   4.840   3.378   3.046 -0.1100 -0.5301  0.8907
  330poe     o2 1796   4.734   3.439   3.117 -0.1663  0.1863  0.2114
  330poe    c23 1797   4.784   3.517   3.223  0.2564 -0.1172  0.2375
  330poe    c23 1798   4.693   3.514   3.347  0.0526  0.3008  0.1005
  330poe     o2 1799   4.604   3.405   3.344  0.7472 -0.2721 -0.2174
  330poe    c31 1800   4.531   3.390   3.464  0.5724  0.1877 -0.2610
  331poe    c31 1801   6.314   1.112   1.219 -0.3692  0.0129  0.4205
  331poe     o2 1802   6.283   1.136   1.083  0.2144 -0.2534  0.2366
  331poe    c23 1803   6.356   1.066   0.985 -0.3008 -0.5541  0.0670
  331poe    c23 1804   6.330   1.125   0.845  0.0553 -0.2113  0.1456
  331poe     o2 1805   6.201   1.181   0.846  0.5127  0.8805 -0.1030
  331poe    c23 1806   6.141   1.160   0.720  0.3765  0.7317 -0.0135
  331poe    c23 1807   5.988   1.172   0.734  0.2611 -0.4104 -0.1836
  331poe     o2 1808   5.963   1.128   0.865 -0.0228 -0.3572 -0.2198
  331poe    c23 1809   5.830   1.140   0.909  0.0804  0.2395 -0.0599
  331poe    c23 1810   5.847   1.121   1.061 -0.1758 -0.0959 -0.0694
  331poe     o2 1811   5.948   1.213   1.098 -0.5894  0.3022  0.0820
  331poe    c31 1812   5.957   1.249   1.234  0.1227  0.5506 -0.0281
  332poe    c31 1813   1.725   6.167   6.499 -0.0940 -0.0068  0.2636
  332poe     o2 1814   1.606   6.097   6.527  0.1221 -0.6012 -0.2856
  332poe    c23 1815   1.623   6.009   6.635  0.8276  0.4330  0.4690
  332poe    c23 1816   1.473   5.985   6.662  0.6887  0.0290 -0.6261
  332poe     o2 1817   1.410   5.961   6.538  0.1231  0.0761 -0.3485
  332poe    c23 1818   1.270   5.946   6.551  0.1891 -0.4330 -0.2065
  332poe    c23 1819   1.210   5.953   6.409  0.0054 -0.0928 -0.1124
  332poe     o2 1820   1.271   6.069   6.357 -0.4296  0.2534  0.1334
  332poe    c23 1821   1.209   6.106   6.235 -0.4047 -0.4213 -0.0908
  332poe    c23 1822   1.211   6.017   6.110 -0.2130  0.2992 -0.6044
  332poe     o2 1823   1.342   5.990   6.064 -0.0976  0.0380 -0.1211
  332poe    c31 1824   1.352   5.890   5.966  0.2216  0.0789 -0.1316
  333poe    c31 1825   5.201   6.622   3.565 -0.1859  0.9036  0.0119
  333poe     o2 1826   5.301   6.665   3.475  0.2137  0.4860  0.2477
  333poe    c23 1827   5.417   6.666   3.555  0.0444 -0.2405  0.5072
  333poe    c23 1828   5.545   6.647   3.471 -0.2427 -0.0092  0.0077
  333poe     o2 1829   5.517   6.718   3.353  0.1015  0.1199  0.0020
  333poe    c23 1830   5.623   6.736   3.262  0.0099  0.4993 -0.0343
  333poe    c23 1831   5.560   6.817   3.148 -0.2839  0.1016 -0.1591
  333poe     o2 1832   5.431   6.763   3.134 -0.0557 -0.3867 -0.3843
  333poe    c23 1833   5.349   6.825   3.037  0.1805  0.6886  0.0929
  333poe    c23 1834   5.212   6.761   3.066  0.4797  0.0132  0.0427
  333poe     o2 1835   5.201   6.740   3.205  0.2915  0.7078  0.1378
  333poe    c31 1836   5.068   6.706   3.237  0.6341  0.0884  0.9511
  334poe    c31 1837   2.546   4.484   1.082 -0.6386 -0.1062  0.6267
  334poe     o2 1838   2.587   4.531   1.209  0.2140 -0.0139  0.3238
  334poe    c23 1839   2.494   4.626   1.255 -0.6222 -0.4550 -0.4235
  334poe    c23 1840   2.554   4.686   1.384 -0.4267  0.0227 -0.7322
  334poe     o2 1841   2.692   4.697   1.361 -0.3256  0.2498 -0.0369
  334poe    c23 1842   2.752   4.777   1.461  0.1741  0.1352 -0.2394
  334poe    c23 1843   2.904   4.774   1.441  0.2271  0.4575  0.1012
  334poe     o2 1844   2.946   4.642   1.415 -0.3017  0.3088  0.0022
  334poe    c23 1845   3.085   4.630   1.430 -0.3083 -0.2707 -0.3333
  334poe    c23 1846   3.148   4.490   1.423 -0.0386 -0.1408 -0.5504
  334poe     o2 1847   3.130   4.419   1.302 -0.4605 -0.1895 -0.4602
  334poe    c31 1848   3.183   4.288   1.298 -0.7490 -0.3552  0.7378
  335poe    c31 1849   5.313   4.184   5.558  0.3051 -0.3072 -0.2248
  335poe     o2 1850   5.438   4.171   5.621  0.3382  0.1954 -0.1831
  335poe    c23 1851   5.535   4.099   5.548  0.1144 -0.1159 -0.1710
  335poe    c23 1852   5.591   4.009   5.660 -0.3778 -0.1704  0.0340
  335poe     o2 1853   5.635   4.087   5.768 -0.3964 -0.2893  0.1272
  335poe    c23 1854   5.727   4.020   5.851  0.4924 -0.0631 -0.6572
  335poe    c23 1855   5.797   4.122   5.944 -0.1911  0.6044 -0.8724
  335poe     o2 1856   5.700   4.202   6.008 -0.0396  0.1014 -0.0080
  335poe    c23 1857   5.758   4.322   6.055  0.4617 -0.1007 -0.1091
  335poe    c23 1858   5.673   4.448   6.079  0.2065 -0.2243 -0.3517
  335poe     o2 1859   5.656   4.526   5.964 -0.1754  0.5071  0.1956
  335poe    c31 1860   5.569   4.636   5.982 -0.2026  0.7083 -1.0333
  336poe    c31 1861   2.374   6.150   6.471 -0.0126 -0.3168  0.4443
  336poe     o2 1862   2.363   6.246   6.369  0.3010 -0.5545  0.1849
  336poe    c23 1863   2.446   6.204   6.263 -0.1232  0.2431 -0.4776
  336poe    c23 1864   2.453   6.318   6.160  0.5165  0.3273 -0.3447
  336poe     o2 1865   2.318   6.361   6.160  0.3618 -0.1553 -0.6492
  336poe    c23 1866   2.320   6.496   6.118 -0.1831  0.0806  0.0709
  336poe    c23 1867   2.200   6.573   6.175 -0.2248  0.1054 -0.0495
  336poe     o2 1868   2.191   6.514   6.302 -0.5193  0.0322 -0.1036
  336poe    c23 1869   2.080   6.565   6.374 -0.4432  0.0081  0.0327
  336poe    c23 1870   2.094   6.497   6.511  0.2310  0.2255  0.0789
  336poe     o2 1871   2.112   6.359   6.488  0.2406  0.2189  0.1238
  336poe    c31 1872   2.089   6.293   6.610  0.1620 -0.5188 -0.2791
  337poe    c31 1873   2.501   3.930   0.914 -0.1465  0.7114  0.3473
  337poe     o2 1874   2.601   3.832   0.902 -0.0912  0.8592 -0.4662
  337poe    c23 1875   2.702   3.872   0.812  0.4686  0.5168  0.0045
  337poe    c23 1876   2.832   3.798   0.851  0.1309 -0.0908 -0.0123
  337poe     o2 1877   2.783   3.668   0.877  0.6050 -0.2608  0.0354
  337poe    c23 1878   2.860   3.596   0.970  0.3720  0.1506  0.5523
  337poe    c23 1879   2.769   3.480   1.017  0.1741  0.1549  0.1773
  337poe     o2 1880   2.655   3.546   1.068  0.0012 -0.3364  0.4300
  337poe    c23 1881   2.568   3.468   1.146  0.0125 -0.3062  0.4736
  337poe    c23 1882   2.460   3.562   1.200 -0.0533 -0.0259 -0.1390
  337poe     o2 1883   2.419   3.645   1.093  0.0518  0.0509 -0.1200
  337poe    c31 1884   2.312   3.718   1.147  0.1976  0.3163 -0.1884
  338poe    c31 1885   0.366   2.003   4.878  0.3328 -0.5104  0.4139
  338poe     o2 1886   0.396   1.876   4.825 -0.0652 -0.3074 -0.3130
  338poe    c23 1887   0.474   1.801   4.916 -0.4406  0.0341  0.3034
  338poe    c23 1888   0.455   1.650   4.889 -0.1283  0.0884 -0.2425
  338poe     o2 1889   0.486   1.640   4.752  0.4819 -0.0275 -0.0984
  338poe    c23 1890   0.459   1.522   4.680  0.0049  0.0834 -0.1029
  338poe    c23 1891   0.347   1.554   4.579 -0.5804  0.2993  0.6039
  338poe     o2 1892   0.380   1.675   4.516  0.3154 -0.3230 -0.1472
  338poe    c23 1893   0.289   1.719   4.418  1.1086  0.3800 -0.5810
  338poe    c23 1894   0.294   1.873   4.408  0.1890  0.4368 -0.2396
  338poe     o2 1895   0.347   1.932   4.525  0.0445  0.0392  0.0289
  338poe    c31 1896   0.359   2.066   4.483 -0.2425  0.2966  0.7480
  339poe    c31 1897   5.036   5.739   6.503 -0.2437  0.3850  0.0013
  339poe     o2 1898   5.023   5.879   6.486  0.4779  0.4768  0.1651
  339poe    c23 1899   4.974   5.902   6.356  0.0697  0.3258  0.2922
  339poe    c23 1900   4.994   6.051   6.324 -0.0431  0.2950  0.0768
  339poe     o2 1901   4.966   6.121   6.444  0.2359  0.0518  0.2838
  339poe    c23 1902   5.016   6.253   6.451  0.5632 -0.0615  0.1178
  339poe    c23 1903   4.996   6.295   6.597 -0.0357  0.1897 -0.0338
  339poe     o2 1904   5.047   6.182   6.665  0.3632  0.0692 -0.5256
  339poe    c23 1905   5.060   6.212   6.802  0.1450  0.3838 -0.5719
  339poe    c23 1906   5.024   6.080   6.872  0.0857  0.5750 -0.2357
  339poe     o2 1907   5.008   5.981   6.772 -0.9831  0.7331 -0.2337
  339poe    c31 1908   4.960   5.862   6.828 -0.9043  0.5397 -0.5752
  340poe    c31 1909   6.148   3.809   0.777  0.4477 -0.0045 -0.1022
  340poe     o2 1910   6.062   3.753   0.681 -0.0361  0.1510  0.2367
  340poe    c23 1911   6.061   3.615   0.713  0.5833  0.0540 -0.1448
  340poe    c23 1912   6.009   3.531   0.595  0.3473  0.0351 -0.0266
  340poe     o2 1913   5.901   3.603   0.539  0.1026 -0.1389  0.2128
  340poe    c23 1914   5.860   3.553   0.414 -0.0944 -0.4947  0.4191
  340poe    c23 1915   5.733   3.629   0.371  0.1995 -0.2502 -0.0195
  340poe     o2 1916   5.771   3.764   0.355 -0.0557 -0.1750  0.0006
  340poe    c23 1917   5.665   3.826   0.287 -0.0492  0.0019  0.1516
  340poe    c23 1918   5.681   3.969   0.232  0.4050 -0.0042  0.2655
  340poe     o2 1919   5.674   4.064   0.337  0.0887  0.2744 -0.0054
  340poe    c31 1920   5.635   4.188   0.282  0.1822  0.2005 -0.2405
  341poe    c31 1921   0.776   3.945   3.641  0.5597 -0.6520 -0.4759
  341poe     o2 1922   0.728   3.828   3.704 -0.3063 -0.1644 -0.2144
  341poe    c23 1923   0.660   3.865   3.822  0.4566 -0.0848  0.2084
  341poe    c23 1924   0.600   3.738   3.886 -0.3278 -0.2711 -0.8584
  341poe     o2 1925   0.699   3.638   3.891  0.0794  0.1692  0.1606
  341poe    c23 1926   0.658   3.508   3.927 -0.3403  0.2562 -0.0038
  341poe    c23 1927   0.654   3.428   3.795  0.0757  0.2889 -0.0377
  341poe     o2 1928   0.764   3.481   3.724  0.1408 -0.1318 -0.2500
  341poe    c23 1929   0.752   3.449   3.587  0.0724 -0.0151 -0.2709
  341poe    c23 1930   0.873   3.510   3.514 -0.3190  0.2928 -0.6699
  341poe     o2 1931   0.870   3.647   3.549  0.1946  0.1343  0.0006
  341poe    c31 1932   0.972   3.713   3.479  0.2903  0.2206  0.2187
  342poe    c31 1933   6.193   4.208   1.583 -0.0526 -0.1913 -0.0254
  342poe     o2 1934   6.062   4.201   1.532  0.1513  0.5597 -0.6760
  342poe    c23 1935   5.964   4.275   1.602  0.6142  0.7101 -0.1848
  342poe    c23 1936   5.883   4.351   1.496 -0.8231 -0.0272  0.3488
  342poe     o2 1937   5.867   4.258   1.391  0.1369  0.1697  0.0148
  342poe    c23 1938   5.821   4.313   1.269 -0.6485 -0.2412  0.1183
  342poe    c23 1939   5.842   4.198   1.170  0.1799  0.2007 -0.2312
  342poe     o2 1940   5.968   4.149   1.210 -0.2026 -0.1433  0.5809
  342poe    c23 1941   6.010   4.048   1.121  0.3088  0.6790 -0.1244
  342poe    c23 1942   6.139   4.002   1.191  0.1822  0.3239 -0.1229
  342poe     o2 1943   6.102   3.991   1.326 -0.2894  0.1163 -0.2657
  342poe    c31 1944   6.206   3.921   1.393 -0.0431  0.2216 -0.5364
  343poe    c31 1945   6.275   1.680   1.425 -0.2333 -0.5315  0.0460
  343poe     o2 1946   6.226   1.675   1.558 -0.5524  0.1124 -0.0436
  343poe    c23 1947   6.087   1.657   1.551 -0.4912 -0.6838  0.7209
  343poe    c23 1948   6.016   1.753   1.649 -0.1163  0.3405  0.0081
  343poe     o2 1949   6.094   1.740   1.765  0.2744  0.7532 -0.2065
  343poe    c23 1950   6.078   1.843   1.860 -0.4213  0.2218  0.2608
  343poe    c23 1951   6.193   1.836   1.962 -0.0905  0.5494 -0.0866
  343poe     o2 1952   6.300   1.840   1.871 -0.0642 -0.4715 -0.1094
  343poe    c23 1953   6.427   1.810   1.924  0.0770  0.1757 -0.0774
  343poe    c23 1954   6.519   1.783   1.804  0.2623 -0.3487  0.1774
  343poe     o2 1955   6.453   1.706   1.706  0.4443  0.1430 -0.3366
  343poe    c31 1956   6.556   1.618   1.666  0.5132  0.2284 -0.3481
  344poe    c31 1957   5.487   6.375   4.607  0.2270  0.4072  0.3169
  344poe     o2 1958   5.464   6.495   4.676  0.0484  0.2240  0.5755
  344poe    c23 1959   5.337   6.543   4.637  0.4014  0.2626 -0.5414
  344poe    c23 1960   5.314   6.689   4.681  0.4909  0.1057  0.0370
  344poe     o2 1961   5.352   6.678   4.816  0.2798 -0.1001  0.0810
  344poe    c23 1962   5.386   6.802   4.873 -0.1301 -0.0548  0.2300
  344poe    c23 1963   5.427   6.773   5.018  0.2121 -0.2561  0.0955
  344poe     o2 1964   5.531   6.683   4.991 -0.4032 -0.8785 -0.2352
  344poe    c23 1965   5.564   6.599   5.100 -0.3859 -0.1369  0.3406
  344poe    c23 1966   5.674   6.504   5.049 -0.3324  0.1028  0.0081
  344poe     o2 1967   5.641   6.446   4.924  0.5721  0.4304 -0.3943
  344poe    c31 1968   5.736   6.350   4.882 -0.3679 -0.7914  0.2204
  345poe    c31 1969   4.742   3.361   3.957 -0.1852  0.0034  0.3185
  345poe     o2 1970   4.621   3.426   3.988 -0.1998 -0.1081  0.4962
  345poe    c23 1971   4.646   3.563   4.010 -0.7392  0.1437 -0.3740
  345poe    c23 1972   4.582   3.595   4.147  0.1105  0.3781 -0.0246
  345poe     o2 1973   4.448   3.553   4.131  0.2373 -0.3229  0.6559
  345poe    c23 1974   4.367   3.544   4.245  0.3256 -0.5257  0.7008
  345poe    c23 1975   4.249   3.471   4.179  0.2848  0.1521  0.0230
  345poe     o2 1976   4.308   3.361   4.114  0.0177 -0.2564  0.4679
  345poe    c23 1977   4.221   3.272   4.046  0.1471 -0.3278  0.3956
  345poe    c23 1978   4.314   3.178   3.967  0.3559 -0.1064  0.3744
  345poe     o2 1979   4.403   3.257   3.892 -0.3710 -0.0738 -0.4767
  345poe    c31 1980   4.409   3.185   3.771  0.1024 -0.0296 -0.4815
  346poe    c31 1981   2.808   1.310   5.370  0.2319 -0.2476  0.3386
  346poe     o2 1982   2.817   1.287   5.509  0.2241  0.6045  0.4830
  346poe    c23 1983   2.856   1.153   5.525  0.0390  0.4037 -0.6460
  346poe    c23 1984   2.864   1.106   5.672  0.1283  0.8471 -0.5065
  346poe     o2 1985   2.748   1.149   5.739  0.0999 -0.1546  0.1022
  346poe    c23 1986   2.774   1.148   5.878  0.8485  0.2940 -0.0292
  346poe    c23 1987   2.684   1.265   5.923  0.0643 -0.1977 -0.2886
  346poe     o2 1988   2.695   1.362   5.821  0.1480 -0.1914 -0.2745
  346poe    c23 1989   2.615   1.475   5.844  0.7329  0.1375  0.1545
  346poe    c23 1990   2.644   1.582   5.737  0.4913 -0.0603 -0.1106
  346poe     o2 1991   2.658   1.530   5.607 -0.2865  0.2499 -0.3247
  346poe    c31 1992   2.730   1.616   5.521  0.6619  0.0505  0.2526
  347poe    c31 1993   6.338   3.431   5.123 -0.0871  0.4864  0.6824
  347poe     o2 1994   6.445   3.339   5.127 -0.3787  0.1493  0.7186
  347poe    c23 1995   6.453   3.261   5.244 -0.0128  0.1125  0.6688
  347poe    c23 1996   6.532   3.137   5.200 -0.0673  0.3498 -0.1046
  347poe     o2 1997   6.664   3.182   5.175  0.0413  0.0153 -0.1431
  347poe    c23 1998   6.741   3.082   5.114 -0.1656 -0.2160 -0.0282
  347poe    c23 1999   6.826   3.149   5.005 -0.3212  0.5151  0.2965
  347poe     o2 2000   6.730   3.230   4.940 -0.1429  0.4508 -0.0470
  347poe    c23 2001   6.791   3.283   4.824 -0.3205  0.1623 -0.2742
  347poe    c23 2002   6.666   3.332   4.749  0.0068  0.4774 -0.6219
  347poe     o2 2003   6.571   3.368   4.846 -0.1531 -0.4132 -0.4399
  347poe    c31 2004   6.469   3.445   4.788  0.1295  0.3717  0.0932
  348poe    c31 2005   4.125   0.130   6.266 -0.1537  0.1006  0.3769
  348poe     o2 2006   4.207   0.022   6.303  0.2737  0.2947 -0.0012
  348poe    c23 2007   4.203   0.011   6.443 -0.2087 -0.7155 -0.0877
  348poe    c23 2008   4.311  -0.081   6.505  0.0998 -0.4726 -0.2631
  348poe     o2 2009   4.327  -0.173   6.399 -0.1990 -0.2809 -0.4771
  348poe    c23 2010   4.378  -0.294   6.449  0.2520 -0.0538 -0.3888
  348poe    c23 2011   4.351  -0.390   6.332  0.2006 -0.0267 -0.3989
  348poe     o2 2012   4.324  -0.321   6.212 -0.2823  0.4866 -0.0016
  348poe    c23 2013   4.237  -0.402   6.136  0.1112  0.1834 -0.1322
  348poe    c23 2014   4.190  -0.308   6.023 -0.7375  0.2018  0.2263
  348poe     o2 2015   4.163  -0.183   6.081 -0.0676  0.4211  0.0770
  348poe    c31 2016   4.127  -0.105   5.969  0.0023  0.0393 -0.2123
  349poe    c31 2017   0.263   0.816   1.926 -0.2439  0.0853  0.2070
  349poe     o2 2018   0.164   0.912   1.898 -0.6667 -0.2744  0.4591
  349poe    c23 2019   0.124   0.884   1.766 -0.6260 -0.2615  0.4441
  349poe    c23 2020  -0.003   0.966   1.734 -0.2997 -0.0299 -0.2726
  349poe     o2 2021   0.014   1.091   1.796  0.1571 -0.3430  0.2471
  349poe    c23 2022  -0.100   1.168   1.830  0.4369 -0.0051  0.4357
  349poe    c23 2023  -0.058   1.267   1.939 -0.7217  0.1393  0.7635
  349poe     o2 2024  -0.013   1.189   2.048  0.1912  0.5877  0.7212
  349poe    c23 2025   0.055   1.269   2.142  0.6401  0.4715  0.4982
  349poe    c23 2026   0.128   1.178   2.242 -0.0308 -0.2393  0.3526
  349poe     o2 2027   0.202   1.084   2.167 -0.1860  0.2723 -0.4541
  349poe    c31 2028   0.264   0.989   2.252 -0.4107  0.1551 -0.4217
  350poe    c31 2029   0.137   2.010   1.847  0.4142 -0.0753  0.3155
  350poe     o2 2030   0.201   2.028   1.723 -0.1611  0.1877  0.0526
  350poe    c23 2031   0.308   1.936   1.714 -0.6075 -0.2874 -0.4958
  350poe    c23 2032   0.444   2.005   1.690 -0.5262 -0.3046 -0.0958
  350poe     o2 2033   0.423   2.105   1.592 -0.5009 -0.1650  0.0409
  350poe    c23 2034   0.536   2.175   1.546 -0.7474  0.4823  0.4054
  350poe    c23 2035   0.485   2.279   1.444  0.0821  0.5202  0.0158
  350poe     o2 2036   0.388   2.347   1.520 -0.3657 -0.0859 -0.0068
  350poe    c23 2037   0.381   2.486   1.498 -0.2889 -0.1039 -0.1398
  350poe    c23 2038   0.483   2.567   1.579  0.0730  0.0852 -0.7796
  350poe     o2 2039   0.617   2.524   1.571  0.1780  0.3570 -0.5330
  350poe    c31 2040   0.706   2.564   1.672 -0.1652 -0.8095  0.2525
  351poe    c31 2041   6.311   6.157   6.690  0.1202 -0.3297  0.4165
  351poe     o2 2042   6.422   6.240   6.661 -0.1808  0.0463  0.3337
  351poe    c23 2043   6.520   6.214   6.759  0.1841  0.2075  0.0084
  351poe    c23 2044   6.616   6.335   6.771  0.7698 -0.2782  0.2875
  351poe     o2 2045   6.622   6.383   6.638 -0.2176 -0.0832  0.3026
  351poe    c23 2046   6.692   6.505   6.646 -0.4634  0.0901 -0.2168
  351poe    c23 2047   6.735   6.563   6.510  0.4794 -0.0207  0.0315
  351poe     o2 2048   6.627   6.581   6.421  0.1334 -0.0529  0.4467
  351poe    c23 2049   6.675   6.653   6.310 -0.1521 -0.0950  0.2959
  351poe    c23 2050   6.555   6.683   6.218 -0.0231 -0.1966  0.0916
  351poe     o2 2051   6.522   6.567   6.145  0.0654 -0.3938  0.3595
  351poe    c31 2052   6.435   6.596   6.037  0.0500 -0.5573  0.3275
  352poe    c31 2053   3.330   4.384   0.023 -0.1130 -0.1625 -0.4345
  352poe     o2 2054   3.428   4.302   0.082 -0.5193 -0.2244  0.1586
  352poe    c23 2055   3.369   4.199   0.160 -0.0826 -0.2729  0.4274
  352poe    c23 2056   3.478   4.097   0.197  0.3014  0.1290  0.4291
  352poe     o2 2057   3.589   4.174   0.236  0.3844  0.0586  0.3329
  352poe    c23 2058   3.691   4.092   0.288  0.1743 -0.4942 -0.1189
  352poe    c23 2059   3.801   4.198   0.303 -0.2754 -0.0664  0.1589
  352poe     o2 2060   3.801   4.271   0.182  0.0731 -0.0950  0.1417
  352poe    c23 2061   3.897   4.373   0.164 -0.4411  0.4647  0.5132
  352poe    c23 2062   3.853   4.408   0.020 -0.1508 -0.2479  0.2448
  352poe     o2 2063   3.713   4.404   0.002 -0.2255  0.5948  0.5703
  352poe    c31 2064   3.670   4.458  -0.120  0.3309 -0.7702 -0.2548
  353poe    c31 2065   5.928   0.106   5.023 -0.2602 -0.2346  0.0890
  353poe     o2 2066   5.885   0.150   5.149  0.0644  0.0496  0.1039
  353poe    c23 2067   5.938   0.072   5.254  0.0595  0.0704  0.1219
  353poe    c23 2068   5.829   0.062   5.363  0.4957 -0.7633  0.4911
  353poe     o2 2069   5.792   0.198   5.371  0.0034 -0.8739  0.0827
  353poe    c23 2070   5.687   0.226   5.461  0.3150 -0.1502  0.2252
  353poe    c23 2071   5.662   0.378   5.467  0.2353 -0.1612  0.1742
  353poe     o2 2072   5.621   0.418   5.339  0.5142 -0.0989  0.1054
  353poe    c23 2073   5.594   0.557   5.336 -0.5660 -0.3060  0.0203
  353poe    c23 2074   5.515   0.603   5.212 -0.1380  0.7645  0.1410
  353poe     o2 2075   5.563   0.547   5.092 -0.3283  0.1280  0.3583
  353poe    c31 2076   5.473   0.595   4.994  0.1732  0.2721 -0.0359
  354poe    c31 2077   4.731   6.198   3.296 -0.2479 -0.0406  0.0130
  354poe     o2 2078   4.826   6.129   3.374  0.0451  0.1552 -0.1701
  354poe    c23 2079   4.827   5.990   3.349 -0.0558  0.1831 -0.3276
  354poe    c23 2080   4.957   5.937   3.411  0.0515  0.1135 -0.6110
  354poe     o2 2081   4.977   6.012   3.529  0.6155 -0.1844 -0.5168
  354poe    c23 2082   5.093   5.967   3.596 -0.1311 -0.7917  0.3979
  354poe    c23 2083   5.098   6.064   3.715  1.5124  0.1445 -0.3932
  354poe     o2 2084   5.035   6.185   3.677  0.3906 -0.3053 -0.0019
  354poe    c23 2085   4.977   6.267   3.775  0.3781  0.0334 -0.2884
  354poe    c23 2086   4.882   6.370   3.710  0.1841  0.0118 -0.0445
  354poe     o2 2087   4.881   6.351   3.570  0.2631  0.0845 -0.0549
  354poe    c31 2088   4.814   6.459   3.509  0.2454 -0.0935 -0.3511
  355poe    c31 2089   3.341   0.489   2.717  0.1750 -0.3854  0.2128
  355poe     o2 2090   3.445   0.581   2.741 -0.3401  0.3545 -0.3526
  355poe    c23 2091   3.555   0.573   2.653 -0.2867  0.9190 -0.3427
  355poe    c23 2092   3.627   0.704   2.687  0.6021  0.4285 -0.3202
  355poe     o2 2093   3.646   0.738   2.823 -0.7303 -0.0480 -0.0024
  355poe    c23 2094   3.685   0.873   2.827  0.3251 -0.3328 -0.2667
  355poe    c23 2095   3.736   0.927   2.961 -0.0564 -0.6973  0.0286
  355poe     o2 2096   3.629   0.896   3.048  0.2771 -0.6222  0.4732
  355poe    c23 2097   3.636   0.970   3.167  0.4075 -0.4041  0.3302
  355poe    c23 2098   3.536   0.910   3.268  0.0687 -0.2788  0.0702
  355poe     o2 2099   3.545   0.770   3.253 -0.2674 -0.2941  0.0127
  355poe    c31 2100   3.589   0.713   3.374 -0.0460 -0.2409 -0.0428
  356poe    c31 2101   3.885   5.108   6.574 -0.1106  0.4819 -0.6520
  356poe     o2 2102   4.021   5.142   6.591 -0.1779  0.2435  0.4462
  356poe    c23 2103   4.047   5.257   6.513 -0.2952 -0.2728 -0.3710
  356poe    c23 2104   4.164   5.330   6.581 -0.0562 -0.3422 -0.7060
  356poe     o2 2105   4.250   5.234   6.636 -0.4283 -0.2323  0.0770
  356poe    c23 2106   4.373   5.282   6.684 -0.7553 -0.0637  0.7561
  356poe    c23 2107   4.439   5.154   6.740  0.3026  0.4373  0.6839
  356poe     o2 2108   4.348   5.092   6.828 -0.4337  0.0830 -0.3035
  356poe    c23 2109   4.354   4.952   6.812  0.3000  0.0398  0.2965
  356poe    c23 2110   4.229   4.886   6.873  0.3294  0.0663  0.3863
  356poe     o2 2111   4.114   4.934   6.809  0.3047  0.2688  0.5825
  356poe    c31 2112   4.001   4.884   6.876  0.1549 -0.2841 -0.0742
  357poe    c31 2113   6.078   4.698   1.483  0.2097 -0.2242 -0.1888
  357poe     o2 2114   6.092   4.666   1.346 -0.1357  0.2726 -0.3471
  357poe    c23 2115   6.194   4.573   1.314 -0.3657 -0.1193  0.0456
  357poe    c23 2116   6.199   4.553   1.162 -0.5472  0.5080 -0.0478
  357poe     o2 2117   6.228   4.660   1.076  0.4307  0.4111  0.1517
  357poe    c23 2118   6.261   4.608   0.949 -0.6359  0.1404 -0.0182
  357poe    c23 2119   6.265   4.740   0.870 -0.0293 -0.0318 -0.2806
  357poe     o2 2120   6.140   4.804   0.888 -0.1905 -0.3554 -0.2509
  357poe    c23 2121   6.102   4.873   0.772  0.0612  0.0066 -0.1193
  357poe    c23 2122   5.985   4.968   0.806  0.1163 -0.2993  0.9609
  357poe     o2 2123   6.009   5.073   0.897 -0.0728  0.8421 -0.2772
  357poe    c31 2124   5.898   5.158   0.918 -0.1748  0.4485  0.8405
  358poe    c31 2125   0.104   5.141   0.930 -0.5057  0.1219 -0.7341
  358poe     o2 2126   0.024   5.056   1.009  0.1406  0.2200  0.0383
  358poe    c23 2127  -0.068   5.119   1.096  0.2095  0.5921 -0.1570
  358poe    c23 2128  -0.203   5.147   1.027 -0.0053 -0.4579 -0.1847
  358poe     o2 2129  -0.266   5.273   1.037 -0.3398 -0.6221 -0.2305
  358poe    c23 2130  -0.365   5.294   0.939 -0.1506 -0.0063 -0.2920
  358poe    c23 2131  -0.419   5.437   0.953  0.6105  0.2243  0.3470
  358poe     o2 2132  -0.445   5.447   1.091  0.2083 -0.1579  0.3018
  358poe    c23 2133  -0.527   5.558   1.122 -0.2511 -0.3475 -0.2321
  358poe    c23 2134  -0.541   5.530   1.272  0.2620  0.5439 -0.0093
  358poe     o2 2135  -0.420   5.493   1.334 -0.1079 -0.7090  0.0060
  358poe    c31 2136  -0.421   5.487   1.475  0.1214  1.0437  0.1037
  359poe    c31 2137   0.781   3.588   5.990  0.5195 -0.5892 -0.6552
  359poe     o2 2138   0.891   3.675   5.996 -0.0619  0.1005  0.2803
  359poe    c23 2139   0.912   3.700   6.133  0.3930 -0.4814  0.3197
  359poe    c23 2140   1.023   3.806   6.145 -0.1291  0.1472 -0.3167
  359poe     o2 2141   1.107   3.783   6.034 -0.0901 -0.2542 -0.2072
  359poe    c23 2142   1.225   3.856   6.055 -0.3507  0.2711 -0.5499
  359poe    c23 2143   1.320   3.800   5.947  0.3784  0.2589  0.0879
  359poe     o2 2144   1.246   3.769   5.831  0.4097 -0.0612  0.1535
  359poe    c23 2145   1.297   3.650   5.776  0.2453 -0.0537 -0.0148
  359poe    c23 2146   1.185   3.594   5.687  0.5893 -0.6151 -0.0982
  359poe     o2 2147   1.062   3.572   5.754  0.0737  0.0792 -0.8070
  359poe    c31 2148   1.020   3.438   5.740 -0.5886  0.1310  0.5138
  360poe    c31 2149   0.342   5.939   0.825 -0.2205  0.0595  0.2719
  360poe     o2 2150   0.397   6.018   0.722 -0.2181 -0.7479 -0.3562
  360poe    c23 2151   0.336   5.988   0.599  0.0747 -0.3058 -0.6136
  360poe    c23 2152   0.395   6.088   0.498  0.0524 -0.0337 -0.3559
  360poe     o2 2153   0.429   6.208   0.565  0.2140 -0.3104  0.0637
  360poe    c23 2154   0.494   6.299   0.479  0.4239 -0.2206  0.3173
  360poe    c23 2155   0.527   6.422   0.566 -0.2243  0.2965 -0.1545
  360poe     o2 2156   0.586   6.376   0.686 -0.4039  0.0226 -0.1691
  360poe    c23 2157   0.543   6.455   0.794 -0.2833 -0.1772  0.0238
  360poe    c23 2158   0.548   6.378   0.928  0.5538  0.0606  0.1389
  360poe     o2 2159   0.493   6.249   0.916  0.4292  0.1344 -0.1012
  360poe    c31 2160   0.522   6.166   1.027  0.7591  0.1826 -0.1515
  361poe    c31 2161   4.217   5.809   5.576  0.0879 -0.0029  0.0432
  361poe     o2 2162   4.230   5.797   5.436  0.4669 -0.1476  0.0903
  361poe    c23 2163   4.125   5.713   5.392  0.0022  0.4730  0.0013
  361poe    c23 2164   4.134   5.711   5.239  0.2646 -0.0181  0.0210
  361poe     o2 2165   4.106   5.841   5.191 -0.6031 -0.0319  0.4793
  361poe    c23 2166   4.115   5.827   5.051  0.3898  0.0226  0.5332
  361poe    c23 2167   4.103   5.972   5.001 -0.0226 -0.2707 -0.2307
  361poe     o2 2168   3.984   6.030   5.051 -0.2335 -0.2218 -0.7839
  361poe    c23 2169   3.981   6.158   4.992  0.5236  0.5048  0.7177
  361poe    c23 2170   3.846   6.208   5.046 -0.1438 -0.2059 -0.2755
  361poe     o2 2171   3.845   6.180   5.184  0.4604 -0.7246 -0.3692
  361poe    c31 2172   3.741   6.229   5.266  0.2763 -0.6421 -0.6523
  362poe    c31 2173   4.353   4.577   2.061 -0.2028  0.0605 -0.8186
  362poe     o2 2174   4.400   4.709   2.048  0.1572  0.0392  0.2070
  362poe    c23 2175   4.451   4.747   2.175 -0.4288  0.1415  0.4128
  362poe    c23 2176   4.441   4.900   2.159  0.1877  0.1475  0.0652
  362poe     o2 2177   4.491   4.948   2.036  0.0811 -0.2111 -0.1200
  362poe    c23 2178   4.473   5.087   2.028 -0.2975 -0.2746 -0.4080
  362poe    c23 2179   4.528   5.126   1.889 -0.0935  0.2028 -0.1954
  362poe     o2 2180   4.453   5.055   1.793  0.1541  0.0845 -0.3009
  362poe    c23 2181   4.490   5.094   1.662  0.1482 -0.1202 -0.3631
  362poe    c23 2182   4.420   5.001   1.561 -0.0574  0.1503 -0.4701
  362poe     o2 2183   4.466   4.868   1.554 -0.4108  0.0035  0.0031
  362poe    c31 2184   4.392   4.790   1.463  0.5976 -0.4731 -0.4230
  363poe    c31 2185   1.298   1.153   3.615 -0.0664  0.3771  0.2454
  363poe     o2 2186   1.202   1.206   3.526 -0.2191  0.2127  0.3127
  363poe    c23 2187   1.134   1.309   3.593 -0.4321  0.0593  0.3344
  363poe    c23 2188   1.094   1.408   3.482  0.4596  0.2122  0.1392
  363poe     o2 2189   1.029   1.326   3.386  0.1090  0.4431  0.1776
  363poe    c23 2190   0.969   1.384   3.273  0.1112  0.7728  0.3436
  363poe    c23 2191   0.943   1.264   3.181  0.1921  0.4658  0.7191
  363poe     o2 2192   1.055   1.178   3.181 -0.2827 -0.1776 -0.0336
  363poe    c23 2193   1.029   1.049   3.131 -0.0314 -0.2697  0.0687
  363poe    c23 2194   1.121   0.952   3.206  0.7514  0.2039 -0.2650
  363poe     o2 2195   1.148   0.994   3.338 -0.0214  0.7459 -0.2716
  363poe    c31 2196   1.206   0.879   3.396 -0.4744  0.5895 -0.1266
  364poe    c31 2197   0.626   1.248   1.247 -0.6395 -0.1030 -0.2423
  364poe     o2 2198   0.699   1.190   1.353 -0.2859  0.2290 -0.3035
  364poe    c23 2199   0.709   1.290   1.452 -0.1929  0.1011 -0.1841
  364poe    c23 2200   0.708   1.215   1.587 -0.2068 -0.0041 -0.2426
  364poe     o2 2201   0.805   1.116   1.562 -0.1955 -0.1048  0.2007
  364poe    c23 2202   0.821   1.029   1.672  0.2642 -0.1021  0.1375
  364poe    c23 2203   0.953   0.951   1.657 -0.0683 -0.6122 -0.1313
  364poe     o2 2204   0.933   0.892   1.530 -0.5123  0.1831 -0.4383
  364poe    c23 2205   1.012   0.775   1.527 -0.0657  0.4530  0.4084
  364poe    c23 2206   1.016   0.716   1.384  0.1283  0.4421  0.4181
  364poe     o2 2207   1.088   0.803   1.300  0.0729 -0.1729 -0.2802
  364poe    c31 2208   1.111   0.731   1.182 -0.0768 -0.2842 -0.2415
  365poe    c31 2209   6.667   4.667   1.362  0.3350  0.3500  0.6011
  365poe     o2 2210   6.802   4.642   1.333  0.1935 -0.1120  0.3377
  365poe    c23 2211   6.893   4.672   1.436  0.3088  0.2800  0.1233
  365poe    c23 2212   7.030   4.649   1.369  0.5570  0.6008  0.5156
  365poe     o2 2213   7.030   4.716   1.245  0.5551 -0.3350  0.0040
  365poe    c23 2214   7.149   4.756   1.180  0.4188 -0.4899 -0.3437
  365poe    c23 2215   7.111   4.842   1.059 -0.6502 -0.7471 -0.2077
  365poe     o2 2216   7.013   4.793   0.970 -0.8178 -0.1936 -0.3325
  365poe    c23 2217   7.073   4.727   0.861 -0.1819 -0.1981  0.0187
  365poe    c23 2218   6.978   4.656   0.763 -0.1953  0.0682 -0.1619
  365poe     o2 2219   6.905   4.547   0.814  0.2407 -0.0997  0.1075
  365poe    c31 2220   6.828   4.480   0.718  0.2570  0.1301 -0.0648
  366poe    c31 2221   4.337   0.099   3.071 -0.4149 -0.0389 -0.4100
  366poe     o2 2222   4.273   0.013   3.161  0.3345 -0.1304  0.0425
  366poe    c23 2223   4.136   0.002   3.126  0.2789 -0.3754  0.3241
  366poe    c23 2224   4.067  -0.036   3.258 -0.5615 -0.1030 -0.0347
  366poe     o2 2225   4.143  -0.146   3.301  0.3319  0.2406 -0.7103
  366poe    c23 2226   4.082  -0.211   3.410  1.0949  0.0052 -0.4146
  366poe    c23 2227   4.184  -0.283   3.500  0.1769 -0.3894  0.3226
  366poe     o2 2228   4.298  -0.294   3.419 -0.0014 -0.2360  0.0495
  366poe    c23 2229   4.380  -0.401   3.462  0.2925  0.0768  0.2672
  366poe    c23 2230   4.373  -0.521   3.366 -0.1234  0.3957 -0.1056
  366poe     o2 2231   4.432  -0.491   3.242  0.4924 -0.3086  0.0107
  366poe    c31 2232   4.372  -0.591   3.162 -0.1736  0.3154 -0.2757
  367poe    c31 2233   6.149   3.920   5.665 -0.1287 -0.2072  0.0437
  367poe     o2 2234   6.073   3.844   5.573 -0.1853 -0.2814  0.1523
  367poe    c23 2235   5.970   3.926   5.522 -0.3117 -0.4786  0.0922
  367poe    c23 2236   5.929   3.866   5.386  1.0701  0.3289 -0.7015
  367poe     o2 2237   5.904   3.731   5.418 -0.0710  0.7010 -0.0055
  367poe    c23 2238   5.902   3.655   5.300 -0.2312  0.1876  0.3226
  367poe    c23 2239   5.953   3.521   5.356 -0.1943 -0.0675 -0.3134
  367poe     o2 2240   6.061   3.535   5.446 -0.1390  0.4179 -0.4501
  367poe    c23 2241   6.101   3.409   5.495  0.0574  0.6795  0.0689
  367poe    c23 2242   6.218   3.443   5.589  0.0917 -0.1740  0.3475
  367poe     o2 2243   6.179   3.562   5.655  0.1864 -0.1559  0.3710
  367poe    c31 2244   6.270   3.595   5.757  0.0102 -0.5658  0.6665
  368poe    c31 2245   1.503   4.027   2.229  0.5266 -0.0110 -0.5791
  368poe     o2 2246   1.465   4.005   2.095 -0.4666 -0.2180 -0.2721
  368poe    c23 2247   1.568   4.038   2.004 -0.0969 -0.4872  0.0422
  368poe    c23 2248   1.589   3.935   1.892 -0.1372 -0.0529 -0.3677
  368poe     o2 2249   1.460   3.909   1.841  0.0175 -0.2735 -0.6510
  368poe    c23 2250   1.443   3.775   1.800  0.7536 -0.3739 -0.6308
  368poe    c23 2251   1.302   3.751   1.744  0.5370 -0.0053 -0.2461
  368poe     o2 2252   1.209   3.815   1.829  0.3935  0.4171 -0.7165
  368poe    c23 2253   1.082   3.811   1.768  0.3884  0.1826 -0.6902
  368poe    c23 2254   0.970   3.866   1.857  0.6379 -0.0212 -0.2464
  368poe     o2 2255   1.013   3.989   1.910 -0.6559  0.3347  0.0101
  368poe    c31 2256   0.927   4.035   2.013  0.1119  0.5742  0.5525
  369poe    c31 2257   2.760   0.665   3.329  0.0565 -0.1294  0.1817
  369poe     o2 2258   2.735   0.789   3.266  1.2511 -0.1736 -0.3988
  369poe    c23 2259   2.731   0.885   3.369 -0.7724  0.2021 -0.7879
  369poe    c23 2260   2.695   1.019   3.302 -0.4407  0.3556 -0.6658
  369poe     o2 2261   2.761   1.018   3.177  0.0429 -0.8162 -0.4188
  369poe    c23 2262   2.723   1.127   3.096  0.4436 -0.0466  0.4078
  369poe    c23 2263   2.741   1.098   2.946 -0.5055  0.2789  0.2233
  369poe     o2 2264   2.719   0.959   2.944 -0.7992  0.3264 -0.0941
  369poe    c23 2265   2.780   0.892   2.836 -0.0047  0.0184  0.5324
  369poe    c23 2266   2.729   0.748   2.853  0.0859 -0.0605  0.1335
  369poe     o2 2267   2.754   0.695   2.981 -0.1215  0.0105  0.2043
  369poe    c31 2268   2.733   0.555   2.982 -0.5791  0.0772  0.0630
  370poe    c31 2269   2.954   5.339   1.908 -0.5687 -0.2595  0.0572
  370poe     o2 2270   2.819   5.317   1.941 -0.5906 -0.4681 -0.1707
  370poe    c23 2271   2.789   5.415   2.038 -0.0633 -0.1649 -0.3112
  370poe    c23 2272   2.647   5.393   2.093 -0.2049  0.1636 -0.5418
  370poe     o2 2273   2.551   5.373   1.992 -0.2937 -0.2822 -0.3699
  370poe    c23 2274   2.433   5.305   2.031 -0.1585 -0.2162  0.1618
  370poe    c23 2275   2.352   5.294   1.901  0.2371  0.6947 -0.1763
  370poe     o2 2276   2.444   5.231   1.815 -0.4803 -0.7058  0.0460
  370poe    c23 2277   2.409   5.214   1.680 -0.1499 -0.2634 -0.0952
  370poe    c23 2278   2.518   5.130   1.611  0.0085 -0.0541 -0.1012
  370poe     o2 2279   2.638   5.189   1.657  0.2465 -0.2809 -0.4199
  370poe    c31 2280   2.755   5.144   1.593  0.2669  0.0283 -0.6014
  371poe    c31 2281   0.618   4.038   2.404 -0.5678 -0.2796  0.0971
  371poe     o2 2282   0.702   3.931   2.439 -0.2513 -0.1383 -0.2258
  371poe    c23 2283   0.646   3.810   2.393 -0.1143 -0.2735 -0.0423
  371poe    c23 2284   0.758   3.719   2.340  0.1143  0.0551 -0.1253
  371poe     o2 2285   0.866   3.695   2.427  0.3532 -0.4381 -0.5541
  371poe    c23 2286   0.840   3.601   2.529  0.0479  0.2072 -0.0280
  371poe    c23 2287   0.973   3.545   2.584  0.0352  0.1511 -0.0534
  371poe     o2 2288   1.056   3.657   2.606  0.0287  0.0786  0.3478
  371poe    c23 2289   1.190   3.622   2.631  0.1810  0.4883  0.1056
  371poe    c23 2290   1.247   3.754   2.687  0.7848  0.1449  0.3117
  371poe     o2 2291   1.222   3.847   2.584  0.4197 -0.2576  0.0344
  371poe    c31 2292   1.313   3.954   2.595 -0.1291  0.2412 -0.2527
  372poe    c31 2293   5.305   6.611   0.912 -0.9890 -0.0522  0.0109
  372poe     o2 2294   5.234   6.656   0.799 -0.0167  0.3347 -0.4489
  372poe    c23 2295   5.096   6.669   0.826  0.0156 -0.6653  0.2440
  372poe    c23 2296   5.029   6.697   0.691  0.0859 -0.2204  0.2975
  372poe     o2 2297   5.077   6.822   0.648 -0.3481  0.0074  0.4684
  372poe    c23 2298   5.000   6.867   0.539  0.1837 -0.2139 -0.0096
  372poe    c23 2299   5.085   6.965   0.456 -0.2573  0.0825 -0.1212
  372poe     o2 2300   5.132   7.070   0.538 -0.9917 -0.1003  0.5400
  372poe    c23 2301   5.222   7.163   0.482 -0.5234 -0.4276  0.7470
  372poe    c23 2302   5.271   7.235   0.609  0.5705 -0.0330  0.1085
  372poe     o2 2303   5.305   7.142   0.709  0.0110 -0.0839  0.2495
  372poe    c31 2304   5.382   7.203   0.809 -0.1283 -0.2734  0.4759
  373poe    c31 2305   3.833   1.223   3.652  0.3072  0.0202  0.1702
  373poe     o2 2306   3.762   1.283   3.758  0.0587 -0.1195  0.0832
  373poe    c23 2307   3.848   1.345   3.850 -0.0258 -0.4399  0.3823
  373poe    c23 2308   3.768   1.338   3.982 -0.1979 -0.1746  0.2942
  373poe     o2 2309   3.632   1.342   3.949 -0.2391  0.2989  0.5107
  373poe    c23 2310   3.541   1.347   4.057 -0.2418  0.2094  0.5124
  373poe    c23 2311   3.401   1.391   4.011 -0.1663  0.3645  0.4301
  373poe     o2 2312   3.374   1.289   3.918 -0.4143  0.4262  0.4323
  373poe    c23 2313   3.316   1.332   3.797 -0.3403  0.0230  0.2500
  373poe    c23 2314   3.353   1.244   3.677 -0.2666  0.3671  0.0191
  373poe     o2 2315   3.492   1.251   3.658 -0.3207  0.4035 -0.3703
  373poe    c31 2316   3.527   1.242   3.521  0.7517  0.0965 -0.0848
  374poe    c31 2317   5.533   6.331   0.898  0.4194 -0.4266 -0.5164
  374poe     o2 2318   5.599   6.222   0.958  0.8418  0.4116  0.5703
  374poe    c23 2319   5.502   6.122   0.984  0.5090  0.5060 -0.2939
  374poe    c23 2320   5.587   6.009   1.043  0.0878  0.2070 -0.2605
  374poe     o2 2321   5.661   6.054   1.155  0.2976 -0.1922 -0.2331
  374poe    c23 2322   5.764   5.969   1.200  0.0796 -0.2968  0.0712
  374poe    c23 2323   5.880   6.065   1.233 -0.0200 -0.1167 -0.0998
  374poe     o2 2324   5.891   6.159   1.128  0.0440 -0.6198 -0.5481
  374poe    c23 2325   5.984   6.132   1.026  0.6410 -0.5627 -0.0264
  374poe    c23 2326   5.997   6.274   0.967 -0.1687 -0.3362  0.3258
  374poe     o2 2327   5.871   6.335   0.966 -0.0751 -0.1463 -0.0948
  374poe    c31 2328   5.874   6.464   0.909 -0.9970  0.0625  0.3105
  375poe    c31 2329   2.009   1.848   5.149 -0.0798 -0.3719  0.6749
  375poe     o2 2330   1.923   1.959   5.156 -0.0730 -0.3242  0.0802
  375poe    c23 2331   1.800   1.908   5.201 -0.2117 -0.1604 -0.1074
  375poe    c23 2332   1.684   2.009   5.192  0.0103  0.1617  0.5269
  375poe     o2 2333   1.662   2.048   5.058 -0.1284 -0.7196  0.2806
  375poe    c23 2334   1.551   2.135   5.068  0.1096 -0.3536 -0.1965
  375poe    c23 2335   1.509   2.193   4.932 -0.3750 -0.0456  0.0792
  375poe     o2 2336   1.494   2.094   4.833 -0.4600 -0.2998  0.3450
  375poe    c23 2337   1.434   2.152   4.718  0.1055 -0.2049  0.0929
  375poe    c23 2338   1.426   2.039   4.614  0.2017 -0.4941  0.3969
  375poe     o2 2339   1.541   1.957   4.620  0.3697 -0.2522  0.4954
  375poe    c31 2340   1.534   1.862   4.516  0.5887  0.4629 -0.1858
  376poe    c31 2341   4.493   1.493   1.008  0.1477 -0.0796 -0.1316
  376poe     o2 2342   4.454   1.618   0.956 -0.6772 -0.4496 -0.4338
  376poe    c23 2343   4.476   1.718   1.053 -0.5943 -0.6570 -0.2371
  376poe    c23 2344   4.415   1.845   0.991 -0.1284 -0.3312 -0.0420
  376poe     o2 2345   4.473   1.840   0.862  0.2040  0.3336  0.0829
  376poe    c23 2346   4.446   1.942   0.768  0.0607 -0.3637 -0.6368
  376poe    c23 2347   4.519   1.894   0.642  0.2966 -0.3237 -0.5147
  376poe     o2 2348   4.484   1.759   0.628 -0.4816 -0.1396 -0.3453
  376poe    c23 2349   4.556   1.702   0.521  0.0429  0.5183 -0.3443
  376poe    c23 2350   4.537   1.549   0.519 -0.0248  0.5165  0.3062
  376poe     o2 2351   4.554   1.526   0.657 -0.3393  0.2078  0.2960
  376poe    c31 2352   4.563   1.386   0.670  0.4854  0.2054 -0.2114
  377poe    c31 2353   5.241   0.061   6.312  0.0429  0.4328  0.2118
  377poe     o2 2354   5.135   0.123   6.380 -0.2977 -0.4182  0.4646
  377poe    c23 2355   5.173   0.172   6.507 -0.3886  0.1170  0.2900
  377poe    c23 2356   5.044   0.220   6.576 -0.2194  0.3259  0.4602
  377poe     o2 2357   4.984   0.292   6.470 -0.3407 -0.4539 -0.0030
  377poe    c23 2358   4.855   0.338   6.502 -0.0716  0.3952 -0.1363
  377poe    c23 2359   4.810   0.429   6.385 -0.3478 -0.2695 -0.5519
  377poe     o2 2360   4.835   0.372   6.259  0.2400 -0.3891 -0.3841
  377poe    c23 2361   4.791   0.468   6.166 -0.0303 -0.4196 -0.2891
  377poe    c23 2362   4.812   0.436   6.017 -0.0717 -0.1657 -0.3500
  377poe     o2 2363   4.949   0.414   5.991  0.0402 -0.2777  0.3146
  377poe    c31 2364   4.974   0.371   5.859 -0.1862 -0.0993  0.2127
  378poe    c31 2365   4.458   2.616   2.998  0.7282  0.4391 -0.8394
  378poe     o2 2366   4.425   2.551   2.878 -0.7497  0.0419 -0.2390
  378poe    c23 2367   4.331   2.445   2.874 -0.2450 -0.4151 -0.0510
  378poe    c23 2368   4.268   2.424   2.735 -0.3288  0.3755 -0.1403
  378poe     o2 2369   4.197   2.303   2.718  0.3613 -0.0049 -0.3579
  378poe    c23 2370   4.136   2.315   2.592  0.0944 -0.1414 -0.2431
  378poe    c23 2371   4.120   2.175   2.530 -0.4343 -0.0523 -0.3118
  378poe     o2 2372   4.066   2.093   2.631  0.6922 -0.2784  0.1189
  378poe    c23 2373   4.056   1.963   2.578 -0.0604 -0.1928  0.0485
  378poe    c23 2374   3.988   1.881   2.690  0.7596 -0.4030  0.3992
  378poe     o2 2375   4.035   1.943   2.808  0.9072 -0.0952  0.1802
  378poe    c31 2376   4.006   1.859   2.918 -0.1395 -0.4638 -0.3612
  379poe    c31 2377   3.099   1.098   0.610  0.1185  0.3156 -0.5171
  379poe     o2 2378   3.000   1.147   0.699 -0.0856 -0.0461 -0.5433
  379poe    c23 2379   2.980   1.053   0.802 -0.8688  0.6375 -0.0621
  379poe    c23 2380   2.859   1.098   0.886 -1.0848 -0.5092  0.2637
  379poe     o2 2381   2.880   1.235   0.914  0.5133 -0.6946  0.0740
  379poe    c23 2382   2.773   1.301   0.977  0.7297  0.5065 -0.7921
  379poe    c23 2383   2.680   1.362   0.869 -0.2458 -0.2047 -0.3673
  379poe     o2 2384   2.768   1.412   0.771  0.1731 -0.3832 -0.0862
  379poe    c23 2385   2.693   1.477   0.671  0.2468  0.1511  0.2023
  379poe    c23 2386   2.800   1.480   0.560  0.2355 -0.2059  0.1807
  379poe     o2 2387   2.885   1.367   0.565  0.0176 -0.3635  0.3551
  379poe    c31 2388   2.935   1.346   0.435 -0.0753  0.2168  0.2203
  380poe    c31 2389   0.453   2.610   6.629  0.3523  0.5715 -0.1165
  380poe     o2 2390   0.483   2.473   6.644  0.2767  0.5771  0.0918
  380poe    c23 2391   0.460   2.405   6.522 -0.2844  0.3978  0.2913
  380poe    c23 2392   0.504   2.259   6.543 -0.6298  0.2684  0.1235
  380poe     o2 2393   0.616   2.253   6.628 -0.1877  0.5553 -0.4330
  380poe    c23 2394   0.741   2.269   6.564  0.3020  0.3139  0.4515
  380poe    c23 2395   0.837   2.296   6.681  0.5681  0.0881  0.2867
  380poe     o2 2396   0.763   2.379   6.768 -0.7133 -0.2717 -0.4394
  380poe    c23 2397   0.831   2.426   6.882 -0.3781 -0.9746 -0.3404
  380poe    c23 2398   0.740   2.536   6.941 -0.2712 -0.9533 -0.2150
  380poe     o2 2399   0.603   2.502   6.935 -0.5278  0.1416 -0.7983
  380poe    c31 2400   0.520   2.591   7.006  0.1413  0.4737 -0.4113
  381poe    c31 2401   5.845   3.312   4.413  0.1151  0.2383 -1.0443
  381poe     o2 2402   5.727   3.356   4.475  0.5205 -0.1399  0.0240
  381poe    c23 2403   5.739   3.493   4.442  0.1836 -0.1667 -0.2227
  381poe    c23 2404   5.607   3.570   4.463  0.3123 -0.1003  0.3694
  381poe     o2 2405   5.550   3.550   4.590 -0.1039  0.0626  0.2070
  381poe    c23 2406   5.413   3.521   4.573 -0.0612  0.0222 -0.0744
  381poe    c23 2407   5.375   3.380   4.621  0.6790  0.0525  0.6186
  381poe     o2 2408   5.460   3.295   4.547 -0.1243 -0.0641 -0.1965
  381poe    c23 2409   5.396   3.179   4.502  0.2499 -0.0228 -0.8445
  381poe    c23 2410   5.507   3.086   4.449  0.5668  0.1868 -0.5494
  381poe     o2 2411   5.617   3.093   4.537 -0.0139  0.0598  0.2072
  381poe    c31 2412   5.693   2.975   4.519 -0.2215 -0.0724  0.1921
  382poe    c31 2413   2.024   6.552   3.417 -0.0065  0.0808  0.2381
  382poe     o2 2414   2.154   6.555   3.471  0.1058  0.2025 -0.0411
  382poe    c23 2415   2.237   6.599   3.365 -0.1637  0.1123 -0.2916
  382poe    c23 2416   2.382   6.554   3.389 -0.1708  0.2770  0.0712
  382poe     o2 2417   2.407   6.588   3.524  0.0299  0.0759  0.0856
  382poe    c23 2418   2.543   6.562   3.552 -0.1301 -1.1020 -0.1676
  382poe    c23 2419   2.540   6.524   3.701 -0.3662  0.3802  0.2217
  382poe     o2 2420   2.432   6.434   3.711  0.2493 -0.3953 -0.0643
  382poe    c23 2421   2.395   6.395   3.842 -0.0966 -0.0981 -0.0723
  382poe    c23 2422   2.258   6.327   3.827  0.1495 -0.5505 -0.2842
  382poe     o2 2423   2.162   6.398   3.752 -0.0020  0.4803  0.8542
  382poe    c31 2424   2.031   6.358   3.787 -0.2889  0.5454 -0.1120
  383poe    c31 2425   5.548   0.742   0.976  0.7734  1.0084 -0.0370
  383poe     o2 2426   5.663   0.664   0.955  0.0724 -0.0258 -0.0851
  383poe    c23 2427   5.750   0.677   1.065  0.1783 -0.3523 -0.1273
  383poe    c23 2428   5.877   0.596   1.036  0.2699 -0.2074 -0.1295
  383poe     o2 2429   5.934   0.652   0.920 -0.1175  0.3732 -0.0455
  383poe    c23 2430   6.068   0.612   0.902 -0.3757 -0.3623 -0.3742
  383poe    c23 2431   6.105   0.675   0.766  0.2265 -0.1016 -0.0970
  383poe     o2 2432   6.036   0.604   0.666 -0.7235  0.7625 -0.0737
  383poe    c23 2433   6.068   0.647   0.536 -0.3625  0.7225  0.0003
  383poe    c23 2434   5.994   0.552   0.439  0.0195 -0.4678  0.8585
  383poe     o2 2435   5.874   0.503   0.493 -0.2606 -0.2791  0.4051
  383poe    c31 2436   5.797   0.425   0.404 -0.0019 -0.6511  0.5047
  384poe    c31 2437   4.918   6.386   0.430  0.0516  0.0731 -0.3875
  384poe     o2 2438   4.833   6.475   0.499  0.0211  0.0339 -0.3745
  384poe    c23 2439   4.746   6.524   0.400 -0.1859 -0.0187 -0.2192
  384poe    c23 2440   4.677   6.656   0.439 -0.6214 -0.2054 -0.3529
  384poe     o2 2441   4.593   6.633   0.551 -0.0968 -0.0127  0.0841
  384poe    c23 2442   4.497   6.734   0.573  0.3242  0.3884  0.0971
  384poe    c23 2443   4.376   6.667   0.641  0.3252  0.2414 -0.0463
  384poe     o2 2444   4.425   6.572   0.733  0.2627  0.1212 -0.1379
  384poe    c23 2445   4.326   6.495   0.797  0.2515  0.0793 -0.2065
  384poe    c23 2446   4.397   6.440   0.922 -0.4997 -0.5373 -0.0421
  384poe     o2 2447   4.517   6.386   0.873 -0.0187  0.1434  0.3623
  384poe    c31 2448   4.586   6.315   0.973  0.7439  0.2628 -0.0680
  385poe    c31 2449   2.526   0.843   0.655  0.6067 -0.2418 -0.8635
  385poe     o2 2450   2.424   0.838   0.557 -0.4092  0.0006  0.1557
  385poe    c23 2451   2.341   0.725   0.546 -0.6629  0.1478  0.5290
  385poe    c23 2452   2.231   0.744   0.440 -0.1747  0.4419  0.0731
  385poe     o2 2453   2.288   0.832   0.346  0.3893  0.1606  0.1464
  385poe    c23 2454   2.199   0.857   0.239  0.3043 -0.1642  0.1422
  385poe    c23 2455   2.247   0.970   0.146  0.4710 -0.0878  0.3200
  385poe     o2 2456   2.365   0.942   0.075  0.5492 -0.3796  0.5590
  385poe    c23 2457   2.401   1.058   0.002 -0.4865  0.3153  1.1258
  385poe    c23 2458   2.550   1.077  -0.032 -0.6524  0.4552  0.4676
  385poe     o2 2459   2.631   1.109   0.079 -0.0294 -0.1213  0.1873
  385poe    c31 2460   2.759   1.143   0.032 -0.0653 -0.3216 -0.0556
  386poe    c31 2461   2.708   6.640   0.761 -0.0479  0.1161 -0.4201
  386poe     o2 2462   2.829   6.678   0.700  0.0058  0.3661 -0.1584
  386poe    c23 2463   2.914   6.566   0.689 -0.5196  0.0319 -0.8774
  386poe    c23 2464   3.029   6.566   0.587  0.0032  0.4090 -0.2937
  386poe     o2 2465   3.003   6.574   0.449  0.1008 -0.3333 -0.3572
  386poe    c23 2466   3.113   6.612   0.369  0.0564 -0.2105 -0.3589
  386poe    c23 2467   3.127   6.765   0.354  0.1812 -0.2274 -0.4136
  386poe     o2 2468   3.010   6.796   0.282  0.0223  0.0272 -0.0484
  386poe    c23 2469   3.015   6.931   0.241  1.0728 -0.0504 -0.2081
  386poe    c23 2470   2.913   6.938   0.126  0.4623  0.4267  0.3597
  386poe     o2 2471   2.800   6.869   0.176  0.1428  0.2379 -0.6084
  386poe    c31 2472   2.686   6.891   0.096  0.0024 -0.0387 -0.4816
  387poe    c31 2473   1.495   4.518   3.522 -0.5237  0.4706  0.1113
  387poe     o2 2474   1.608   4.601   3.519  0.0914 -0.3498  0.1738
  387poe    c23 2475   1.624   4.675   3.638  0.2572 -0.1310  0.0160
  387poe    c23 2476   1.718   4.793   3.604  0.3370 -0.1753  0.0850
  387poe     o2 2477   1.800   4.753   3.497  0.1803 -0.3696  0.0371
  387poe    c23 2478   1.904   4.842   3.466 -0.1763  0.0590  0.0553
  387poe    c23 2479   1.985   4.767   3.358  0.3055  0.0659  0.4045
  387poe     o2 2480   1.883   4.717   3.273  0.0374 -0.8504  1.2509
  387poe    c23 2481   1.923   4.629   3.171 -0.0009  0.1540  0.3589
  387poe    c23 2482   1.797   4.553   3.124  0.2380 -0.2150  0.3065
  387poe     o2 2483   1.711   4.533   3.234  0.0111 -0.3781  0.1002
  387poe    c31 2484   1.603   4.450   3.198 -0.0750 -0.3513  0.2933
  388poe    c31 2485   0.766   1.560   0.792 -0.3749  0.3584 -0.3619
  388poe     o2 2486   0.855   1.663   0.754  0.5014 -0.1374  0.3093
  388poe    c23 2487   0.794   1.788   0.775  0.0638 -0.3352  0.2436
  388poe    c23 2488   0.890   1.905   0.744  0.5328 -0.6209  0.6116
  388poe     o2 2489   0.975   1.885   0.633 -0.1515  0.6317 -0.1491
  388poe    c23 2490   1.036   2.007   0.597  0.1255  0.2930 -0.8328
  388poe    c23 2491   1.122   1.985   0.471  0.4137  0.4840 -0.6691
  388poe     o2 2492   1.239   1.913   0.505  0.0616  0.3301  0.2277
  388poe    c23 2493   1.318   1.879   0.394 -0.2781 -0.2008  0.1439
  388poe    c23 2494   1.453   1.815   0.432 -0.1576 -0.1642 -0.2201
  388poe     o2 2495   1.428   1.694   0.499 -0.0853 -0.4460 -0.6966
  388poe    c31 2496   1.541   1.611   0.512 -0.1625 -0.4567 -0.0454
  389poe    c31 2497   3.813   5.911   6.645 -0.0184 -0.8922 -0.3185
  389poe     o2 2498   3.828   5.923   6.785  0.1358 -0.3298 -0.3797
  389poe    c23 2499   3.884   6.046   6.824 -0.0027 -0.5361  0.4925
  389poe    c23 2500   3.919   6.049   6.974  0.7200 -0.6413  0.3290
  389poe     o2 2501   3.804   5.999   7.039 -0.1670  0.2259 -0.5527
  389poe    c23 2502   3.839   5.902   7.134  0.2162  0.2612 -0.6568
  389poe    c23 2503   3.714   5.824   7.178  0.5387  0.3160  0.3778
  389poe     o2 2504   3.665   5.776   7.055 -0.1934  0.7462  0.4941
  389poe    c23 2505   3.576   5.667   7.067  0.2561  0.3458  0.2031
  389poe    c23 2506   3.583   5.584   6.937  0.6694  0.3622  0.2126
  389poe     o2 2507   3.613   5.676   6.835  0.3242  0.0133 -0.2095
  389poe    c31 2508   3.647   5.605   6.718 -0.4548 -0.4142 -0.1815
  390poe    c31 2509   0.388   3.563   4.828 -0.0646  0.3891 -0.1307
  390poe     o2 2510   0.431   3.473   4.927  0.1924  0.3332 -0.2923
  390poe    c23 2511   0.570   3.489   4.943  0.1941  0.1029 -0.0584
  390poe    c23 2512   0.651   3.374   5.006  0.0331  0.0054 -0.0288
  390poe     o2 2513   0.595   3.353   5.134 -0.1036  0.1700 -0.0615
  390poe    c23 2514   0.694   3.313   5.226 -0.0835  0.7540  0.1685
  390poe    c23 2515   0.656   3.310   5.375  0.8021 -0.1491  0.3883
  390poe     o2 2516   0.578   3.416   5.425  0.3172 -0.2905 -0.0513
  390poe    c23 2517   0.522   3.386   5.551  0.0300 -0.3539 -0.1932
  390poe    c23 2518   0.458   3.521   5.587  0.6456 -0.0737 -0.1377
  390poe     o2 2519   0.377   3.568   5.481  0.2219 -0.2613  0.1006
  390poe    c31 2520   0.314   3.690   5.513  0.0046 -0.2426 -0.3992
  391poe    c31 2521   4.997   1.038   0.846  0.0593  0.4832 -0.7233
  391poe     o2 2522   5.100   1.054   0.942 -0.2308  0.7693 -0.4600
  391poe    c23 2523   5.223   1.005   0.895 -0.1870  0.1562  0.2827
  391poe    c23 2524   5.337   1.084   0.962 -0.0855  0.5323 -0.3316
  391poe     o2 2525   5.301   1.101   1.097  0.2767 -0.0611 -0.1597
  391poe    c23 2526   5.390   1.190   1.162  0.2326 -0.0073 -0.1732
  391poe    c23 2527   5.305   1.218   1.287 -0.0664 -0.5262 -0.2572
  391poe     o2 2528   5.180   1.254   1.233 -0.0373  0.2319  0.1729
  391poe    c23 2529   5.081   1.248   1.333  0.0269 -0.0945  0.2185
  391poe    c23 2530   4.939   1.264   1.275 -0.0168 -0.4684  0.2243
  391poe     o2 2531   4.931   1.169   1.171 -0.2606 -0.0332 -0.1530
  391poe    c31 2532   4.802   1.165   1.113 -0.5701 -0.0932  0.5275
  392poe    c31 2533   1.546   5.165   3.567 -0.3601  0.8568  0.1506
  392poe     o2 2534   1.578   5.157   3.704  0.2374  0.6657 -0.0002
  392poe    c23 2535   1.717   5.144   3.725  0.0939 -0.4026  0.3603
  392poe    c23 2536   1.748   5.133   3.875  0.3054  0.0877  0.3558
  392poe     o2 2537   1.657   5.224   3.931 -0.0449 -0.1034  0.1029
  392poe    c23 2538   1.660   5.217   4.072 -0.0757 -0.4894  0.0854
  392poe    c23 2539   1.520   5.264   4.117 -0.0690 -0.3833 -0.0033
  392poe     o2 2540   1.430   5.211   4.022  0.3610 -0.4916 -0.3524
  392poe    c23 2541   1.301   5.257   4.053  0.4680 -0.2772 -0.2226
  392poe    c23 2542   1.213   5.188   3.947  0.0063 -0.1567  0.0736
  392poe     o2 2543   1.282   5.218   3.828 -0.3167 -0.3551 -0.1654
  392poe    c31 2544   1.205   5.159   3.726  0.0873 -0.3192 -0.4968
  393poe    c31 2545   0.317   2.075   3.923 -0.2876  0.0570  0.3191
  393poe     o2 2546   0.188   2.097   3.872 -0.1558 -0.0322 -0.0516
  393poe    c23 2547   0.091   2.069   3.970 -0.0774 -0.7292 -0.1699
  393poe    c23 2548  -0.049   2.116   3.927  0.1098  0.1882  0.2071
  393poe     o2 2549  -0.029   2.242   3.866  0.0609 -0.0033 -0.2080
  393poe    c23 2550  -0.126   2.279   3.771 -0.1878  0.5283  0.2471
  393poe    c23 2551  -0.113   2.207   3.635 -0.0906 -0.1743  0.6255
  393poe     o2 2552   0.025   2.213   3.606 -0.1702 -0.1046  0.2586
  393poe    c23 2553   0.069   2.148   3.489 -0.2632  0.2114  0.0455
  393poe    c23 2554   0.215   2.196   3.488 -0.0717 -0.3637 -0.0450
  393poe     o2 2555   0.271   2.195   3.617  0.1920 -0.1514 -0.1568
  393poe    c31 2556   0.411   2.202   3.600  0.2337 -0.2050  0.1563
  394poe    c31 2557   1.259   5.504   6.598  0.4864  0.2480 -0.7263
  394poe     o2 2558   1.331   5.401   6.534  0.2524 -0.1417 -0.3683
  394poe    c23 2559   1.260   5.280   6.546  0.2974 -0.1422 -0.1068
  394poe    c23 2560   1.366   5.168   6.558  0.7339  0.2651 -0.1230
  394poe     o2 2561   1.459   5.180   6.453  0.6853  0.4872 -0.1423
  394poe    c23 2562   1.576   5.120   6.504  0.3036 -0.3170 -0.1870
  394poe    c23 2563   1.674   5.214   6.431 -0.3264 -0.0209 -0.6623
  394poe     o2 2564   1.640   5.346   6.469  0.6405  0.0430  0.0309
  394poe    c23 2565   1.734   5.438   6.418  0.4404  0.1825 -0.0883
  394poe    c23 2566   1.660   5.573   6.420 -0.4266 -0.2920  0.8635
  394poe     o2 2567   1.529   5.549   6.373 -0.3198  0.5076  0.1418
  394poe    c31 2568   1.495   5.672   6.312 -0.2426  0.3447 -0.2296
  395poe    c31 2569   3.194   0.964   5.840  0.6588  0.2721 -0.2329
  395poe     o2 2570   3.310   0.892   5.874 -0.4051 -0.8710  1.0828
  395poe    c23 2571   3.374   0.816   5.774  0.3127  0.9388  0.1384
  395poe    c23 2572   3.495   0.736   5.825 -0.3332  0.0938  0.3598
  395poe     o2 2573   3.590   0.837   5.852 -0.0463 -0.0608 -0.0543
  395poe    c23 2574   3.713   0.781   5.891  0.4116  0.7767 -0.2637
  395poe    c23 2575   3.809   0.894   5.931  1.0913  0.0723  0.1208
  395poe     o2 2576   3.778   1.023   5.885  0.0340 -0.2521 -0.1025
  395poe    c23 2577   3.884   1.113   5.906 -0.3140 -0.0657  0.9027
  395poe    c23 2578   3.843   1.259   5.877  1.0002  0.0650 -0.4335
  395poe     o2 2579   3.762   1.243   5.763 -0.3672  0.3110  0.4732
  395poe    c31 2580   3.770   1.349   5.671 -0.3449 -0.2385 -0.1683
  396poe    c31 2581   5.246   2.439   6.609  0.5640 -0.1059 -0.5274
  396poe     o2 2582   5.370   2.379   6.640  0.3696 -0.3261 -0.1681
  396poe    c23 2583   5.375   2.262   6.561 -0.0787 -0.2398 -0.3304
  396poe    c23 2584   5.400   2.145   6.657  0.3436 -0.1795 -0.3628
  396poe     o2 2585   5.493   2.207   6.743 -0.1392  0.1650 -0.0800
  396poe    c23 2586   5.555   2.128   6.842 -0.1357  0.0740 -0.1551
  396poe    c23 2587   5.699   2.182   6.847 -0.2981  0.5406 -0.5061
  396poe     o2 2588   5.680   2.320   6.870 -0.1843  0.4581  0.1059
  396poe    c23 2589   5.792   2.398   6.833  0.2298 -0.1016  0.1823
  396poe    c23 2590   5.742   2.538   6.795  0.1715  0.0467  0.7889
  396poe     o2 2591   5.627   2.505   6.721  0.3575  0.1319  0.4616
  396poe    c31 2592   5.596   2.603   6.624 -0.0520 -0.3095  0.1373
  397poe    c31 2593   3.957   3.494   2.629 -0.1459 -0.0467  0.2213
  397poe     o2 2594   4.051   3.398   2.586 -0.4003 -0.1534 -0.1020
  397poe    c23 2595   4.148   3.429   2.489 -0.3356 -0.3234 -0.0922
  397poe    c23 2596   4.299   3.420   2.518 -0.3784 -0.3205  0.1327
  397poe     o2 2597   4.369   3.303   2.552 -0.2541 -0.2615  0.0818
  397poe    c23 2598   4.507   3.330   2.561 -0.3177 -0.0063  0.3139
  397poe    c23 2599   4.573   3.203   2.619  0.3657  0.2416  0.0898
  397poe     o2 2600   4.505   3.083   2.589  0.2216  0.2595  0.3462
  397poe    c23 2601   4.558   2.975   2.663 -0.0518  0.2950  0.5958
  397poe    c23 2602   4.464   2.859   2.624  0.3549  0.2105 -0.1529
  397poe     o2 2603   4.329   2.894   2.644  0.2972  0.1080 -0.3605
  397poe    c31 2604   4.242   2.783   2.639 -0.5074  0.7183 -0.0858
  398poe    c31 2605   3.381   6.092   5.800 -0.1696  0.2092 -0.6014
  398poe     o2 2606   3.493   6.047   5.726  0.0880  0.0176 -0.0949
  398poe    c23 2607   3.580   6.156   5.708 -0.5816  0.5369 -0.2487
  398poe    c23 2608   3.655   6.123   5.577  0.3545 -0.3653  0.4896
  398poe     o2 2609   3.716   5.997   5.588  0.1029 -0.5655 -0.3943
  398poe    c23 2610   3.850   5.985   5.629  0.1332 -0.1660 -0.3763
  398poe    c23 2611   3.852   5.854   5.709  0.2578 -0.1034 -0.2752
  398poe     o2 2612   3.730   5.860   5.779  0.3023 -0.5680 -0.1510
  398poe    c23 2613   3.723   5.744   5.858 -0.3054 -0.6151 -0.2626
  398poe    c23 2614   3.573   5.733   5.889 -0.4023  0.1624 -0.4434
  398poe     o2 2615   3.496   5.765   5.775 -0.4839  0.1170 -0.4012
  398poe    c31 2616   3.377   5.689   5.782  0.0152 -0.6358  0.0507
  399poe    c31 2617   1.333   5.719   2.062  0.2318  0.2495  0.0866
  399poe     o2 2618   1.452   5.735   2.135  0.2993 -0.0360  0.0414
  399poe    c23 2619   1.544   5.775   2.035  0.0909  0.1584 -0.0737
  399poe    c23 2620   1.636   5.880   2.100  0.0733 -0.1873  0.5240
  399poe     o2 2621   1.654   5.829   2.230  0.5265 -0.4243  0.3723
  399poe    c23 2622   1.692   5.934   2.317  0.1251  0.0579 -0.0256
  399poe    c23 2623   1.687   5.867   2.456  0.2585  0.0715 -0.0140
  399poe     o2 2624   1.565   5.795   2.460  0.6072 -0.5210  0.1209
  399poe    c23 2625   1.550   5.723   2.580 -0.0916 -0.3075  0.1680
  399poe    c23 2626   1.415   5.658   2.544 -0.4073  0.4566 -0.0369
  399poe     o2 2627   1.422   5.616   2.409 -0.1527 -0.2771  0.1990
  399poe    c31 2628   1.328   5.516   2.378 -0.8440  0.5022 -0.2778
  400poe    c31 2629   6.063   1.238   4.936 -0.3373  0.2549 -0.4661
  400poe     o2 2630   5.956   1.194   5.017 -0.0264  0.4692  0.0681
  400poe    c23 2631   5.970   1.257   5.142 -0.4752 -0.0198  0.3700
  400poe    c23 2632   5.874   1.190   5.242 -0.3370  0.5214  0.8717
  400poe     o2 2633   5.759   1.173   5.163  0.1739  0.2868  0.1691
  400poe    c23 2634   5.647   1.121   5.231  0.4602 -0.1447  0.3112
  400poe    c23 2635   5.531   1.131   5.131  0.2213 -0.0741  0.5945
  400poe     o2 2636   5.588   1.078   5.013  0.0324  0.3583  0.3060
  400poe    c23 2637   5.559   1.167   4.908 -0.2278 -0.4833 -0.3457
  400poe    c23 2638   5.639   1.142   4.779 -0.0664  0.1974 -0.3823
  400poe     o2 2639   5.776   1.131   4.813 -0.1157  0.2872 -0.1569
  400poe    c31 2640   5.839   1.097   4.692 -0.3438  0.0686 -0.2151
  401poe    c31 2641   3.535   6.332   4.784 -0.8333  0.3513 -0.2622
  401poe     o2 2642   3.439   6.332   4.681 -0.0127  0.3200 -1.0443
  401poe    c23 2643   3.406   6.196   4.660  0.6911 -0.0931  0.3866
  401poe    c23 2644   3.371   6.183   4.510  0.3375  0.0170  0.4567
  401poe     o2 2645   3.277   6.283   4.479  0.3989 -0.0007  0.2180
  401poe    c23 2646   3.243   6.287   4.342 -0.4456 -0.3695  0.4159
  401poe    c23 2647   3.178   6.427   4.338 -0.2003 -0.2511  0.5837
  401poe     o2 2648   3.253   6.505   4.429 -0.2331  0.3003  0.1384
  401poe    c23 2649   3.201   6.631   4.465 -0.6225  0.2979 -0.4053
  401poe    c23 2650   3.294   6.700   4.566 -0.7455  0.4649 -0.4046
  401poe     o2 2651   3.321   6.602   4.665  0.2820  0.5799 -0.5665
  401poe    c31 2652   3.393   6.679   4.759  0.8448 -0.2907 -0.2757
  402poe    c31 2653   5.548   6.098   1.514  0.0831  0.0889 -0.1038
  402poe     o2 2654   5.409   6.103   1.491  0.0862  0.6045 -0.0274
  402poe    c23 2655   5.394   6.073   1.354 -0.1314  0.7910 -0.0438
  402poe    c23 2656   5.246   6.042   1.326  0.1088 -0.8712  0.4196
  402poe     o2 2657   5.164   6.131   1.399 -0.1207 -0.3418 -0.4599
  402poe    c23 2658   5.025   6.113   1.387 -0.2634  0.4156  0.0355
  402poe    c23 2659   4.966   6.191   1.506  0.0143  0.6949 -0.0064
  402poe     o2 2660   5.055   6.173   1.614  0.4707  0.1921 -0.4594
  402poe    c23 2661   5.039   6.272   1.713 -0.3482 -0.2205 -0.1702
  402poe    c23 2662   5.151   6.217   1.803  0.2179  0.6774 -0.3151
  402poe     o2 2663   5.270   6.214   1.728  0.3645 -0.2238 -0.0618
  402poe    c31 2664   5.375   6.218   1.822  0.2509  0.2042  0.0489
  403poe    c31 2665   5.416   1.471   2.736 -0.1988  0.0686  0.1406
  403poe     o2 2666   5.521   1.447   2.645 -0.4215 -0.0509 -0.0871
  403poe    c23 2667   5.644   1.435   2.714 -0.3547  0.7672 -0.0545
  403poe    c23 2668   5.755   1.397   2.614 -0.0949 -0.6224  0.7446
  403poe     o2 2669   5.698   1.317   2.513 -0.1045  0.2792  0.0222
  403poe    c23 2670   5.775   1.284   2.400 -0.1774 -0.2683  0.1281
  403poe    c23 2671   5.681   1.207   2.305 -0.3380 -0.1464  0.1869
  403poe     o2 2672   5.566   1.285   2.281 -0.0647  0.2338  0.1127
  403poe    c23 2673   5.460   1.210   2.227  0.1765  0.1029 -0.1807
  403poe    c23 2674   5.333   1.295   2.245 -0.2552 -0.5757  0.0051
  403poe     o2 2675   5.343   1.341   2.378  0.3212  0.0095 -0.2365
  403poe    c31 2676   5.236   1.431   2.395  0.3843 -0.0502  0.5338
  404poe    c31 2677   0.103   5.599   5.770  0.3984 -0.2307 -0.3114
  404poe     o2 2678   0.135   5.726   5.717  0.5135 -0.2647 -0.3244
  404poe    c23 2679   0.103   5.747   5.581 -0.0149  0.0012 -0.1610
  404poe    c23 2680   0.064   5.895   5.558  0.1114  0.0106 -0.3169
  404poe     o2 2681   0.170   5.975   5.604  0.2286 -0.3184 -0.0099
  404poe    c23 2682   0.141   6.112   5.624 -0.3415 -0.3843 -0.3526
  404poe    c23 2683   0.254   6.153   5.721 -0.6376 -0.0318 -0.1550
  404poe     o2 2684   0.267   6.051   5.818 -0.2092  0.1147 -0.0546
  404poe    c23 2685   0.384   6.079   5.891 -0.3914  0.5386  0.0769
  404poe    c23 2686   0.388   5.968   5.997 -0.0392  0.3554 -0.1259
  404poe     o2 2687   0.369   5.849   5.925  0.8884  0.1191  0.0066
  404poe    c31 2688   0.383   5.724   5.989  0.6940  0.2450  0.2955
  405poe    c31 2689   4.515   4.361   2.907 -0.1059 -0.3173  0.4914
  405poe     o2 2690   4.454   4.235   2.904 -0.1705 -0.2696 -0.4293
  405poe    c23 2691   4.322   4.265   2.865 -0.2817 -0.3221 -0.1006
  405poe    c23 2692   4.231   4.140   2.862 -0.4107 -0.2209 -0.4984
  405poe     o2 2693   4.191   4.085   2.985  0.2339  0.0521 -0.1636
  405poe    c23 2694   4.150   3.951   2.975  0.7282 -0.1153  0.0046
  405poe    c23 2695   4.081   3.914   3.107  0.2013  0.3064 -0.1468
  405poe     o2 2696   4.180   3.945   3.203  0.0962  0.2511 -0.0195
  405poe    c23 2697   4.152   3.914   3.337 -0.1565  0.0981 -0.1054
  405poe    c23 2698   4.279   3.956   3.414 -0.5279  0.0157  0.5596
  405poe     o2 2699   4.323   4.085   3.377  0.1703 -0.3411  0.1391
  405poe    c31 2700   4.407   4.151   3.469 -0.1645 -0.2025  0.3448
  406poe    c31 2701   6.493   1.412   6.712 -0.4178 -0.0134  0.1715
  406poe     o2 2702   6.532   1.289   6.656 -0.2070  0.3158 -0.4207
  406poe    c23 2703   6.608   1.306   6.539  0.3468  0.2533 -0.0777
  406poe    c23 2704   6.632   1.188   6.443  0.2533  0.1727 -0.0019
  406poe     o2 2705   6.726   1.089   6.478  0.6774  0.3362 -0.6493
  406poe    c23 2706   6.723   1.005   6.366  0.3840 -0.1026 -0.3166
  406poe    c23 2707   6.842   0.908   6.382  0.3661 -0.0877 -0.0992
  406poe     o2 2708   6.839   0.876   6.519  0.3899  0.0951 -0.0554
  406poe    c23 2709   6.851   0.737   6.542  0.2512  0.0874 -0.0248
  406poe    c23 2710   6.860   0.727   6.696 -0.0769  0.3409  0.0117
  406poe     o2 2711   6.784   0.837   6.740 -0.4949 -0.0318  0.2301
  406poe    c31 2712   6.774   0.809   6.878  0.2616  0.2093  0.3399
  407poe    c31 2713   0.319   5.281   3.939 -0.2608 -0.3038 -0.6990
  407poe     o2 2714   0.312   5.244   4.075  0.0654  0.6476 -0.4133
  407poe    c23 2715   0.176   5.236   4.112  0.1535 -0.1460 -0.2367
  407poe    c23 2716   0.154   5.203   4.260 -0.8899 -0.0305 -0.3586
  407poe     o2 2717   0.246   5.294   4.316 -0.7469 -0.1979 -0.3210
  407poe    c23 2718   0.245   5.303   4.457 -0.1195  0.1131 -0.3355
  407poe    c23 2719   0.347   5.407   4.507 -0.3524  0.1387  0.0920
  407poe     o2 2720   0.461   5.384   4.426  0.3440 -0.0575  1.1050
  407poe    c23 2721   0.553   5.488   4.405  0.0679  0.0004  0.1505
  407poe    c23 2722   0.626   5.444   4.277  0.4879 -0.1672  0.4465
  407poe     o2 2723   0.537   5.408   4.173  0.3696  0.4549  0.3324
  407poe    c31 2724   0.609   5.399   4.052 -0.3354 -0.4016 -0.0326
  408poe    c31 2725   5.309   4.916   6.134  0.0397  0.1852  0.1081
  408poe     o2 2726   5.256   5.037   6.184 -0.0986  0.1640  0.0153
  408poe    c23 2727   5.371   5.117   6.204  0.1638 -0.2826  0.3056
  408poe    c23 2728   5.306   5.241   6.267 -0.1305 -0.2561 -0.0443
  408poe     o2 2729   5.188   5.273   6.198  0.0295  0.4175 -0.0148
  408poe    c23 2730   5.111   5.383   6.241  0.0638  0.2040  0.6011
  408poe    c23 2731   4.968   5.378   6.184 -0.1104  0.0922  1.0477
  408poe     o2 2732   4.933   5.243   6.204 -0.0243 -0.0621  0.1702
  408poe    c23 2733   4.837   5.197   6.112  0.7822 -0.3096 -0.5638
  408poe    c23 2734   4.841   5.044   6.130 -0.3770 -0.2477  0.3378
  408poe     o2 2735   4.974   4.998   6.135 -0.0713  0.5333 -0.3696
  408poe    c31 2736   4.976   4.857   6.124 -0.7956  0.4603  0.3466
  409poe    c31 2737   1.821   3.456   4.612 -0.2438  0.3498 -0.6159
  409poe     o2 2738   1.793   3.559   4.705 -0.2245 -0.1298 -0.0777
  409poe    c23 2739   1.768   3.500   4.831  0.5534 -0.2408  0.0330
  409poe    c23 2740   1.766   3.595   4.952  0.2082 -0.3900  0.1454
  409poe     o2 2741   1.876   3.681   4.934 -0.0665 -0.0045  0.2914
  409poe    c23 2742   1.873   3.781   5.033  0.0516  0.8880 -0.5887
  409poe    c23 2743   1.990   3.866   4.980  0.6500  0.5610  0.1895
  409poe     o2 2744   1.987   3.878   4.840 -0.1650  0.2355  0.1714
  409poe    c23 2745   2.095   3.951   4.784  0.2083 -0.3743  0.0892
  409poe    c23 2746   2.100   3.924   4.633 -0.8988 -0.1823  0.0036
  409poe     o2 2747   2.060   3.792   4.603 -0.1214 -0.4413  0.0634
  409poe    c31 2748   2.065   3.771   4.464 -0.0143 -0.1110  0.0169
  410poe    c31 2749   4.039   4.686   3.694 -0.0990  0.0881 -0.3762
  410poe     o2 2750   4.146   4.756   3.754 -0.2676 -0.2117  0.2898
  410poe    c23 2751   4.264   4.758   3.677 -0.1300  0.1662  0.5071
  410poe    c23 2752   4.388   4.771   3.767  0.2609  0.3307 -0.0506
  410poe     o2 2753   4.367   4.880   3.854  0.2231  0.1462  0.1717
  410poe    c23 2754   4.446   4.885   3.970  0.3635  0.1121  0.0771
  410poe    c23 2755   4.366   4.985   4.055  0.3327 -0.0561  0.2488
  410poe     o2 2756   4.234   4.937   4.051  0.1353  0.5372 -0.5709
  410poe    c23 2757   4.156   5.009   4.144  0.1930  0.2390 -0.2917
  410poe    c23 2758   4.019   4.938   4.131  0.4923 -0.4816  0.4049
  410poe     o2 2759   3.990   4.897   4.000 -0.6481  0.4399  0.3532
  410poe    c31 2760   3.866   4.829   4.006 -0.6930  0.4940  0.0386
  411poe    c31 2761   0.198   3.438   5.910  0.4029  0.4405 -0.2530
  411poe     o2 2762   0.175   3.301   5.884  0.2660  0.3246  0.4378
  411poe    c23 2763   0.249   3.223   5.975 -0.0743 -0.0910  0.3593
  411poe    c23 2764   0.242   3.076   5.929  0.1293  0.0243 -0.0435
  411poe     o2 2765   0.109   3.063   5.885  0.3405  0.1298 -0.7286
  411poe    c23 2766   0.060   2.944   5.827 -0.6910  0.2402 -0.1241
  411poe    c23 2767   0.070   2.953   5.673 -0.2019 -0.1553 -0.1204
  411poe     o2 2768   0.043   3.087   5.638 -0.4343 -0.1369  0.1178
  411poe    c23 2769   0.087   3.131   5.511 -0.6995  0.1295  0.1171
  411poe    c23 2770   0.036   3.275   5.496  0.1070  0.3540 -0.5351
  411poe     o2 2771   0.082   3.332   5.616  0.0132  0.1673 -0.4101
  411poe    c31 2772   0.019   3.457   5.634 -0.0020  0.0281  0.6052
  412poe    c31 2773   1.979   4.456   0.535 -0.0342  0.4075  0.0567
  412poe     o2 2774   1.974   4.321   0.575 -0.3544  0.2719 -0.4408
  412poe    c23 2775   2.105   4.268   0.579 -0.1485  0.8107  0.0533
  412poe    c23 2776   2.091   4.118   0.612 -0.3249  0.8750  0.2725
  412poe     o2 2777   2.024   4.091   0.733  0.2776 -0.4106  0.3305
  412poe    c23 2778   2.035   3.952   0.756 -0.5682 -0.5484 -0.0546
  412poe    c23 2779   1.999   3.896   0.895 -0.5349 -0.1981  0.0971
  412poe     o2 2780   1.878   3.958   0.931 -0.5053  0.1715 -0.4250
  412poe    c23 2781   1.836   3.910   1.057  0.4804  0.2760 -0.0439
  412poe    c23 2782   1.716   4.002   1.086  0.1929 -0.0621 -0.1428
  412poe     o2 2783   1.760   4.132   1.056 -0.0793  0.0575 -0.0287
  412poe    c31 2784   1.664   4.227   1.098  0.2112  0.6307 -0.6421
  413poe    c31 2785   5.574   1.493   1.961 -0.2055 -0.0408  0.1819
  413poe     o2 2786   5.592   1.535   1.828 -0.5906 -0.2211  0.0725
  413poe    c23 2787   5.668   1.438   1.759  0.1057  0.5287 -0.2266
  413poe    c23 2788   5.633   1.445   1.609  0.1755 -0.2393 -0.2818
  413poe     o2 2789   5.651   1.575   1.556  0.3092 -0.0710  0.1719
  413poe    c23 2790   5.659   1.588   1.416  0.6166  0.4509  0.2365
  413poe    c23 2791   5.656   1.736   1.372  0.1395  0.3104 -0.2089
  413poe     o2 2792   5.587   1.807   1.472  0.2940  0.4397 -0.1932
  413poe    c23 2793   5.574   1.942   1.436  0.2316  0.4080 -0.2898
  413poe    c23 2794   5.460   2.010   1.516  0.0866 -0.1111 -0.0538
  413poe     o2 2795   5.468   2.018   1.657  0.2075 -0.0562 -0.0641
  413poe    c31 2796   5.354   2.064   1.725  0.2588 -0.2627  0.1590
  414poe    c31 2797   5.040   3.617   5.204 -0.6190  0.0812  0.1566
  414poe     o2 2798   5.118   3.732   5.224 -0.1432 -0.3736  0.9944
  414poe    c23 2799   5.039   3.843   5.259 -0.3444 -0.0912 -0.3139
  414poe    c23 2800   5.139   3.945   5.317  0.0258 -0.4538 -0.3141
  414poe     o2 2801   5.244   3.946   5.223  0.1402 -0.1844 -0.1825
  414poe    c23 2802   5.346   4.043   5.238  0.1538 -0.3314  0.7653
  414poe    c23 2803   5.442   4.000   5.125 -0.1011  0.3937  0.2652
  414poe     o2 2804   5.453   3.859   5.130  0.2572  0.4133  0.0627
  414poe    c23 2805   5.529   3.807   5.024 -0.1094 -0.2244  0.1119
  414poe    c23 2806   5.498   3.656   5.024 -0.3290 -0.1838 -0.6374
  414poe     o2 2807   5.360   3.637   5.049 -0.1702  0.0664  0.4779
  414poe    c31 2808   5.322   3.504   5.021  0.6145 -0.0515 -0.0555
  415poe    c31 2809   4.857   0.138   3.752 -0.2826  0.1604  0.3403
  415poe     o2 2810   4.903   0.263   3.798  0.0165  0.1747  0.0079
  415poe    c23 2811   5.003   0.240   3.895  0.1873  0.2067 -0.1611
  415poe    c23 2812   5.029   0.363   3.983 -0.1429  0.2818 -0.1683
  415poe     o2 2813   4.931   0.397   4.079 -0.0517  0.1441 -0.0253
  415poe    c23 2814   4.826   0.474   4.025  0.0213 -0.0694 -0.4797
  415poe    c23 2815   4.718   0.498   4.132  0.3097 -0.8239 -0.0099
  415poe     o2 2816   4.761   0.589   4.230  0.5489 -0.7279 -0.2025
  415poe    c23 2817   4.669   0.580   4.337  0.8063  0.0607  0.0906
  415poe    c23 2818   4.737   0.610   4.472 -0.1230 -0.1497  0.6147
  415poe     o2 2819   4.823   0.720   4.451 -0.1372 -0.2113  0.2146
  415poe    c31 2820   4.876   0.755   4.577  0.1817 -0.2749  0.0990
  416poe    c31 2821   2.176   2.100   0.758 -0.5919 -0.0466  0.1562
  416poe     o2 2822   2.176   1.965   0.718  0.9224  0.0408 -0.2116
  416poe    c23 2823   2.277   1.887   0.779 -0.0259 -0.8908  0.1981
  416poe    c23 2824   2.412   1.894   0.706 -0.2850 -0.8048 -0.2788
  416poe     o2 2825   2.394   1.842   0.576  0.0441 -0.1147 -0.6083
  416poe    c23 2826   2.414   1.703   0.559  0.1425 -0.2329  0.4097
  416poe    c23 2827   2.323   1.664   0.441 -0.0309 -0.8342  0.7390
  416poe     o2 2828   2.198   1.719   0.476 -0.0017  0.1372 -0.6146
  416poe    c23 2829   2.082   1.656   0.426 -0.2076 -0.0104  0.0329
  416poe    c23 2830   1.979   1.685   0.536  0.2720  0.1686  0.4384
  416poe     o2 2831   2.001   1.816   0.584  0.0940  0.4755 -0.3125
  416poe    c31 2832   1.902   1.838   0.682  0.3414 -0.3882  0.1376
  417poe    c31 2833   2.786   5.189   5.521  0.0636  0.2688 -0.5167
  417poe     o2 2834   2.718   5.070   5.489  0.2316  0.0732 -0.1600
  417poe    c23 2835   2.817   4.980   5.445  0.2288 -0.4254  0.8352
  417poe    c23 2836   2.761   4.870   5.353 -0.1449  0.4820 -0.0366
  417poe     o2 2837   2.640   4.833   5.416 -0.1735  0.4121 -0.1325
  417poe    c23 2838   2.588   4.732   5.333 -0.3255  0.2699  0.1358
  417poe    c23 2839   2.452   4.694   5.395 -0.1351 -0.6712 -0.0031
  417poe     o2 2840   2.392   4.813   5.441 -0.2685 -0.6196 -0.3053
  417poe    c23 2841   2.272   4.775   5.504 -0.4205 -0.2191 -0.3492
  417poe    c23 2842   2.208   4.873   5.605 -0.3639 -0.8497  0.3094
  417poe     o2 2843   2.298   4.925   5.700 -0.0804 -0.5838 -0.1009
  417poe    c31 2844   2.254   5.037   5.774  0.8500 -0.1948 -0.1235
  418poe    c31 2845   2.713   1.982   2.413 -0.3126 -0.0386  0.3322
  418poe     o2 2846   2.684   2.102   2.345  0.0817  0.1880  0.5594
  418poe    c23 2847   2.776   2.131   2.243 -0.1587 -0.0644  0.2696
  418poe    c23 2848   2.726   2.260   2.177  0.0464 -0.2808 -0.3180
  418poe     o2 2849   2.587   2.257   2.154 -0.1244 -0.2927  0.6900
  418poe    c23 2850   2.532   2.386   2.146 -0.5287 -0.4612  0.7097
  418poe    c23 2851   2.384   2.356   2.175 -0.7572 -0.3425 -0.2822
  418poe     o2 2852   2.394   2.286   2.297 -0.2304 -0.2542 -0.2694
  418poe    c23 2853   2.277   2.208   2.315  0.1057 -0.8267 -0.5416
  418poe    c23 2854   2.274   2.144   2.455 -0.2308 -0.1074 -0.2148
  418poe     o2 2855   2.408   2.104   2.475 -0.1551  0.3258  0.1605
  418poe    c31 2856   2.411   2.029   2.595  0.9630  0.0348 -0.0328
  419poe    c31 2857   1.179   2.321   3.130 -0.2630 -0.4364  0.2386
  419poe     o2 2858   1.255   2.242   3.220 -0.5538 -0.8569  0.1202
  419poe    c23 2859   1.313   2.322   3.321 -0.3684 -0.3720 -0.3651
  419poe    c23 2860   1.361   2.223   3.429  0.1320 -0.0513 -0.2934
  419poe     o2 2861   1.450   2.128   3.375  0.2132  0.1492 -0.5165
  419poe    c23 2862   1.527   2.060   3.472  0.2516  0.2346 -0.4867
  419poe    c23 2863   1.584   1.938   3.396  0.0303 -0.2024  0.0433
  419poe     o2 2864   1.477   1.885   3.321 -0.0804 -0.1019  0.1290
  419poe    c23 2865   1.496   1.790   3.219  0.1201  0.8245 -0.7125
  419poe    c23 2866   1.355   1.787   3.157 -0.0527  0.2985 -0.3020
  419poe     o2 2867   1.303   1.918   3.147  0.1919  0.4789  0.7396
  419poe    c31 2868   1.176   1.907   3.087  0.7353 -0.2137 -0.2957
  420poe    c31 2869   0.482   0.384   0.861 -0.5254 -0.5570 -0.8749
  420poe     o2 2870   0.350   0.351   0.898 -0.6246  0.3676 -0.3560
  420poe    c23 2871   0.306   0.253   0.806  0.4130 -0.5834  0.1526
  420poe    c23 2872   0.160   0.289   0.774  0.4459 -0.3583  0.2549
  420poe     o2 2873   0.084   0.308   0.892  0.4203  0.1471  0.1583
  420poe    c23 2874  -0.024   0.397   0.874  0.1252 -0.1101  0.6382
  420poe    c23 2875   0.023   0.541   0.904 -0.0115  0.0604  0.0406
  420poe     o2 2876   0.130   0.519   0.992  0.1244 -0.1103 -0.1658
  420poe    c23 2877   0.173   0.641   1.049  0.0057 -0.3527  0.4483
  420poe    c23 2878   0.265   0.606   1.168  0.5077  0.0094  0.1719
  420poe     o2 2879   0.314   0.475   1.147  0.1907 -0.0990  0.1012
  420poe    c31 2880   0.391   0.464   1.264  0.7447  0.2782 -0.2248
  421poe    c31 2881   5.523   2.386   1.621  0.3290  0.5094  0.5857
  421poe     o2 2882   5.599   2.467   1.534 -0.0630  0.0950 -0.1553
  421poe    c23 2883   5.622   2.601   1.571 -0.3063  0.0536  0.1543
  421poe    c23 2884   5.759   2.624   1.504 -0.2011 -0.2239  0.2741
  421poe     o2 2885   5.755   2.551   1.384  0.0688  0.0333  0.1083
  421poe    c23 2886   5.853   2.578   1.286  0.2781 -0.0211  0.3034
  421poe    c23 2887   5.783   2.563   1.150  0.4534 -0.3653  0.2517
  421poe     o2 2888   5.757   2.424   1.144  0.5015 -0.3845  0.4781
  421poe    c23 2889   5.729   2.388   1.011  0.1995  0.1767  0.3845
  421poe    c23 2890   5.668   2.247   1.001 -0.1275  0.3278  0.2380
  421poe     o2 2891   5.534   2.247   1.046 -0.3734  0.8182 -0.4860
  421poe    c31 2892   5.466   2.132   1.002  0.1647  0.0944  0.5267
  422poe    c31 2893   4.481   4.351   5.978 -0.2546  0.5425  0.2547
  422poe     o2 2894   4.611   4.358   6.034  0.1433  0.1294 -0.5982
  422poe    c23 2895   4.689   4.254   5.980  0.1031 -0.2137 -0.0030
  422poe    c23 2896   4.803   4.223   6.079  0.2733 -0.5349 -0.2955
  422poe     o2 2897   4.768   4.193   6.212  0.6882  0.3226  0.0188
  422poe    c23 2898   4.886   4.193   6.289  0.5527 -0.0455  0.2324
  422poe    c23 2899   4.857   4.175   6.439  0.0025 -0.5059  0.0749
  422poe     o2 2900   4.764   4.275   6.476  0.4190 -0.0915  0.0101
  422poe    c23 2901   4.737   4.260   6.613  0.1989 -0.2097 -0.0469
  422poe    c23 2902   4.613   4.347   6.638  0.3975  0.1677 -0.3849
  422poe     o2 2903   4.506   4.313   6.552  0.1697  0.8466 -0.3790
  422poe    c31 2904   4.384   4.372   6.593  0.1923  0.7136 -0.1171
  423poe    c31 2905   0.161   4.082   5.620  0.1423  0.1125  1.0984
  423poe     o2 2906   0.243   4.183   5.567 -0.7079  0.1495 -0.1917
  423poe    c23 2907   0.202   4.304   5.626 -0.3160 -0.0693  0.5444
  423poe    c23 2908   0.319   4.402   5.603 -0.5448  0.0247 -0.2619
  423poe     o2 2909   0.351   4.391   5.466  0.4202 -0.3774 -0.0098
  423poe    c23 2910   0.454   4.473   5.416  0.2434 -0.2129 -0.1029
  423poe    c23 2911   0.466   4.442   5.266 -0.1070 -0.2900 -0.1172
  423poe     o2 2912   0.486   4.303   5.255 -0.2546 -0.4024  0.9911
  423poe    c23 2913   0.452   4.257   5.126  0.9143  0.3015  0.4202
  423poe    c23 2914   0.371   4.128   5.149  0.0658  0.6708 -0.4545
  423poe     o2 2915   0.293   4.140   5.266  0.1951 -0.3522 -0.2619
  423poe    c31 2916   0.195   4.038   5.266 -0.2222  0.0482  0.1210
  424poe    c31 2917   5.539   5.467   2.865 -0.0547  0.3037 -0.6746
  424poe     o2 2918   5.402   5.438   2.854  0.0110 -0.3431  0.1402
  424poe    c23 2919   5.372   5.343   2.754 -0.2886  0.0942 -0.1883
  424poe    c23 2920   5.226   5.296   2.767 -0.2893  0.2274  0.3038
  424poe     o2 2921   5.123   5.388   2.738 -0.2099  0.3544  0.4208
  424poe    c23 2922   5.005   5.311   2.732 -0.0641  0.1284  0.4088
  424poe    c23 2923   4.882   5.396   2.696  0.0568  0.1612  0.0734
  424poe     o2 2924   4.893   5.505   2.784 -0.1015  0.0772  0.1975
  424poe    c23 2925   4.782   5.588   2.761 -0.0815 -0.1362 -0.6831
  424poe    c23 2926   4.826   5.723   2.820 -0.0347 -0.3539 -0.2168
  424poe     o2 2927   4.963   5.740   2.788  0.0758 -0.0528  0.3969
  424poe    c31 2928   4.994   5.872   2.825 -0.8149  0.3783 -0.3431
  425poe    c31 2929   2.088   2.338   5.741  0.2815 -0.2928  0.1720
  425poe     o2 2930   2.053   2.255   5.632 -0.5271 -0.0520  0.2438
  425poe    c23 2931   1.986   2.146   5.692 -0.1077 -0.3938  0.1007
  425poe    c23 2932   2.062   2.017   5.656  0.5104 -0.0264  0.0718
  425poe     o2 2933   2.099   2.024   5.520 -0.0111  0.1672 -0.0650
  425poe    c23 2934   2.185   1.920   5.479  0.5571  0.4462  0.4072
  425poe    c23 2935   2.286   1.977   5.377  0.2805  0.3708  0.0859
  425poe     o2 2936   2.214   2.071   5.300 -0.3689  0.0920  0.3469
  425poe    c23 2937   2.297   2.145   5.214  0.2015 -0.3503  0.5063
  425poe    c23 2938   2.329   2.276   5.289 -0.3596  0.1597 -0.1347
  425poe     o2 2939   2.227   2.315   5.378 -0.3215 -0.2102  0.0726
  425poe    c31 2940   2.243   2.452   5.405  0.4810 -0.2589 -0.1418
  426poe    c31 2941   6.374   0.779   5.370 -0.0112 -0.3787  0.5211
  426poe     o2 2942   6.509   0.800   5.405  0.0711  0.1135 -0.0758
  426poe    c23 2943   6.547   0.932   5.372  0.1888  0.0983 -0.0039
  426poe    c23 2944   6.680   0.974   5.436 -0.1478  0.5631  0.3966
  426poe     o2 2945   6.668   0.944   5.573  0.1131  0.4540  0.3966
  426poe    c23 2946   6.780   0.992   5.644  0.2450  0.6884  0.0320
  426poe    c23 2947   6.765   1.005   5.797  0.0180 -0.3682  0.1119
  426poe     o2 2948   6.673   1.104   5.838  0.3795  0.0584 -0.0959
  426poe    c23 2949   6.730   1.176   5.945  0.5649  0.0968 -0.2197
  426poe    c23 2950   6.622   1.269   6.003  0.8162  0.3736 -0.1957
  426poe     o2 2951   6.561   1.334   5.893 -0.1241 -0.1014  0.0354
  426poe    c31 2952   6.466   1.436   5.916 -0.3665 -0.4122  0.4104
  427poe    c31 2953   4.859   1.604   3.722 -0.3107 -0.2053  0.2293
  427poe     o2 2954   4.736   1.592   3.654 -0.1121 -0.0779 -0.1557
  427poe    c23 2955   4.722   1.688   3.552  0.1425  0.0454 -0.0752
  427poe    c23 2956   4.580   1.746   3.562  0.0086 -0.2063 -0.4800
  427poe     o2 2957   4.506   1.626   3.570 -0.2310 -0.0060  0.5096
  427poe    c23 2958   4.366   1.628   3.557 -0.1687 -0.6026 -0.3116
  427poe    c23 2959   4.334   1.478   3.570 -0.0324 -0.5959  0.0862
  427poe     o2 2960   4.423   1.425   3.666  0.2721  0.0262  0.1531
  427poe    c23 2961   4.445   1.286   3.673  0.1152  0.0010  0.1528
  427poe    c23 2962   4.532   1.267   3.798 -0.1015  0.5872  0.3945
  427poe     o2 2963   4.642   1.356   3.792 -0.1032  0.5815  0.2766
  427poe    c31 2964   4.708   1.335   3.915 -0.5383 -0.4783  0.3409
  428poe    c31 2965   2.855   0.038   2.749 -0.3633 -0.1549 -0.1151
  428poe     o2 2966   2.835  -0.084   2.819 -0.3689 -0.1070 -0.0327
  428poe    c23 2967   2.946  -0.169   2.800 -0.5717 -0.2846 -0.4394
  428poe    c23 2968   2.906  -0.303   2.865 -0.1622 -0.0898  0.2169
  428poe     o2 2969   2.794  -0.371   2.814  0.1913 -0.3105 -0.2684
  428poe    c23 2970   2.773  -0.482   2.898 -0.2646 -0.0180  0.0103
  428poe    c23 2971   2.652  -0.570   2.864 -0.0166 -0.0853 -0.7255
  428poe     o2 2972   2.556  -0.471   2.835 -0.1217  0.0991  0.1968
  428poe    c23 2973   2.435  -0.529   2.792 -0.0817 -0.1019  0.3536
  428poe    c23 2974   2.338  -0.421   2.740  0.1344 -0.0491  0.0538
  428poe     o2 2975   2.426  -0.343   2.663 -0.0084  0.0357 -0.0229
  428poe    c31 2976   2.344  -0.248   2.599 -0.2985  0.2496  0.6550
  429poe    c31 2977   5.676   2.101   5.286  0.3864  0.1339 -0.1357
  429poe     o2 2978   5.691   1.974   5.345 -0.2525  0.0246 -0.1997
  429poe    c23 2979   5.816   1.959   5.409 -0.3944 -0.1081  0.0497
  429poe    c23 2980   5.812   1.829   5.490 -0.0915  0.1800  0.5371
  429poe     o2 2981   5.766   1.729   5.401 -0.0334  0.6016  0.0307
  429poe    c23 2982   5.790   1.596   5.440  0.3988  0.6343 -0.1210
  429poe    c23 2983   5.705   1.508   5.346  0.2006  0.1480  0.5082
  429poe     o2 2984   5.577   1.561   5.320  0.0848 -0.3073  0.1456
  429poe    c23 2985   5.496   1.457   5.271 -0.1279 -0.1734  0.2136
  429poe    c23 2986   5.350   1.505   5.259 -0.0596 -0.0111  0.0332
  429poe     o2 2987   5.323   1.622   5.185 -0.1853 -0.1344 -0.1147
  429poe    c31 2988   5.189   1.633   5.142 -0.1723  0.2138 -0.0707
  430poe    c31 2989   3.628   0.493   4.701 -0.2710  0.4801  0.7677
  430poe     o2 2990   3.647   0.589   4.600  0.3866 -0.1592  0.2689
  430poe    c23 2991   3.619   0.515   4.483  0.4765 -0.0522  0.1795
  430poe    c23 2992   3.645   0.603   4.360 -0.2079  0.3058  0.2862
  430poe     o2 2993   3.758   0.679   4.399 -0.0345 -0.0591  0.5046
  430poe    c23 2994   3.808   0.761   4.296 -0.1945  0.6633  0.9872
  430poe    c23 2995   3.949   0.809   4.336  0.4767 -0.1301 -0.3359
  430poe     o2 2996   3.945   0.845   4.472  0.4196  0.3001 -0.4487
  430poe    c23 2997   4.074   0.825   4.523  0.3509  0.2301 -0.2999
  430poe    c23 2998   4.065   0.754   4.660  0.1874  0.2954 -0.2774
  430poe     o2 2999   3.945   0.682   4.673  0.3489  0.0340 -0.2359
  430poe    c31 3000   3.955   0.607   4.792  0.3538 -0.1745 -0.3666
  431poe    c31 3001   2.569   3.419   3.296 -0.5088  0.4473 -0.2563
  431poe     o2 3002   2.488   3.385   3.407  0.1101  0.1143  0.1011
  431poe    c23 3003   2.548   3.272   3.467 -0.6699 -0.5054 -0.2794
  431poe    c23 3004   2.464   3.226   3.588 -0.5497  0.0609  0.0225
  431poe     o2 3005   2.471   3.321   3.692  0.1548  0.3391 -0.2665
  431poe    c23 3006   2.371   3.301   3.790  0.3441 -0.0141 -0.1439
  431poe    c23 3007   2.377   3.416   3.892  0.3864  0.1178 -0.2943
  431poe     o2 3008   2.346   3.539   3.831 -0.1384 -0.1442 -0.5595
  431poe    c23 3009   2.272   3.638   3.900 -0.1662 -0.3490 -0.2966
  431poe    c23 3010   2.243   3.752   3.801 -0.2808 -0.1715 -0.0614
  431poe     o2 3011   2.353   3.768   3.715 -0.0247 -0.1319  0.2729
  431poe    c31 3012   2.341   3.892   3.649  0.9894 -0.0985  0.1353
  432poe    c31 3013   1.400   6.261   1.335  0.4290 -0.1419  0.7644
  432poe     o2 3014   1.330   6.219   1.450 -0.7957 -0.0874  0.0510
  432poe    c23 3015   1.327   6.326   1.542  0.2330  0.0500 -0.0621
  432poe    c23 3016   1.285   6.268   1.678  0.7722 -0.0869  0.0469
  432poe     o2 3017   1.202   6.158   1.645  0.2513  0.3920 -0.2601
  432poe    c23 3018   1.163   6.094   1.765 -0.5903  0.1873 -0.6415
  432poe    c23 3019   1.100   5.961   1.720 -0.3193 -0.0643 -0.2792
  432poe     o2 3020   1.141   5.936   1.587  0.2371  0.0651 -0.1344
  432poe    c23 3021   1.028   5.887   1.518 -0.1795  0.7880  0.0204
  432poe    c23 3022   1.066   5.906   1.370 -0.4743  0.4384 -0.1004
  432poe     o2 3023   1.134   6.029   1.364  0.0803  0.1479  0.1959
  432poe    c31 3024   1.134   6.065   1.228 -0.1269 -0.8141 -0.0632
  433poe    c31 3025   1.991   5.795   5.444 -0.4873  0.0817 -0.0727
  433poe     o2 3026   1.976   5.804   5.584 -0.6374  0.7730 -0.1331
  433poe    c23 3027   1.844   5.780   5.627 -0.3732 -0.3976  0.0559
  433poe    c23 3028   1.826   5.636   5.678 -0.2403  0.0210  1.3217
  433poe     o2 3029   1.935   5.586   5.752  0.4883 -0.4325 -0.0348
  433poe    c23 3030   1.893   5.460   5.800  0.3139 -0.3537  0.0209
  433poe    c23 3031   2.005   5.391   5.881  0.0580 -0.0534  0.6368
  433poe     o2 3032   2.069   5.499   5.946  0.0020  0.1865  0.2978
  433poe    c23 3033   2.181   5.442   6.009  0.1030  0.1198  0.0609
  433poe    c23 3034   2.254   5.561   6.074 -0.0748  0.3329 -0.1331
  433poe     o2 3035   2.237   5.662   5.977  0.3787 -0.0169 -0.5814
  433poe    c31 3036   2.329   5.764   6.010  0.3552 -0.1545 -0.0833
  434poe    c31 3037   0.223   5.114   5.298  0.5463  0.1942 -0.0709
  434poe     o2 3038   0.282   4.987   5.282 -0.1346 -0.1079 -0.2482
  434poe    c23 3039   0.422   5.001   5.287 -0.1645  0.1135 -0.0368
  434poe    c23 3040   0.486   4.861   5.287  0.1832  0.2660  0.6785
  434poe     o2 3041   0.463   4.794   5.166  0.1367  0.1356  0.7599
  434poe    c23 3042   0.560   4.817   5.066 -0.3050 -0.2248  0.2392
  434poe    c23 3043   0.556   4.720   4.947 -0.6505 -0.0706  0.1231
  434poe     o2 3044   0.419   4.706   4.913 -0.6093 -0.3734  0.0726
  434poe    c23 3045   0.412   4.644   4.787  0.2956  0.0692 -0.2065
  434poe    c23 3046   0.275   4.574   4.790  0.4315 -0.1815  0.1378
  434poe     o2 3047   0.182   4.677   4.813  0.2950 -0.1955 -0.3557
  434poe    c31 3048   0.049   4.632   4.792  0.3276 -0.3734 -0.1875
  435poe    c31 3049   2.349   4.417   5.675  0.3994  0.1044 -0.0714
  435poe     o2 3050   2.395   4.499   5.780 -0.1904  0.2773  0.0561
  435poe    c23 3051   2.293   4.581   5.832 -0.4893  0.3974 -0.7229
  435poe    c23 3052   2.362   4.684   5.923 -0.4526 -0.2153 -0.0525
  435poe     o2 3053   2.476   4.630   5.987 -0.1107  0.1556 -0.3442
  435poe    c23 3054   2.515   4.725   6.084  0.7268 -0.2840 -0.2473
  435poe    c23 3055   2.640   4.685   6.165  0.0077  0.0876  1.0783
  435poe     o2 3056   2.747   4.642   6.084 -0.6766  0.6916 -0.1894
  435poe    c23 3057   2.856   4.615   6.170 -0.5545  0.2298 -0.4847
  435poe    c23 3058   2.986   4.624   6.089 -0.1087  0.0528  0.2013
  435poe     o2 3059   3.003   4.521   5.994  0.1166  0.0666  0.2248
  435poe    c31 3060   3.132   4.534   5.940 -0.0040  0.2037 -0.0304
  436poe    c31 3061   5.572   0.950   3.321  0.4350 -0.3034 -0.5094
  436poe     o2 3062   5.608   0.936   3.457  0.0865  0.3032 -0.3521
  436poe    c23 3063   5.512   0.859   3.524  0.4938  0.0686 -0.0319
  436poe    c23 3064   5.573   0.827   3.662 -0.1494 -0.1950  0.1980
  436poe     o2 3065   5.614   0.947   3.724  0.1726 -0.1524 -0.0902
  436poe    c23 3066   5.713   0.928   3.823  0.0276 -0.4159  0.0054
  436poe    c23 3067   5.845   0.968   3.755 -0.4013  0.6981 -0.2009
  436poe     o2 3068   5.823   1.086   3.683 -0.4002  1.0405  0.3508
  436poe    c23 3069   5.934   1.132   3.610 -0.1360  0.3278  0.2984
  436poe    c23 3070   5.880   1.245   3.519  0.5892  0.3986 -0.0523
  436poe     o2 3071   5.771   1.185   3.453  0.4601  0.4348  0.1265
  436poe    c31 3072   5.734   1.247   3.332 -0.3222  0.1541  0.2209
  437poe    c31 3073   1.591   0.919   2.872 -0.2209 -0.1144  0.2753
  437poe     o2 3074   1.699   0.840   2.914 -0.2384 -0.3669 -0.1533
  437poe    c23 3075   1.759   0.799   2.793 -0.3165 -0.2054 -0.2464
  437poe    c23 3076   1.887   0.721   2.826 -0.4255 -0.2849 -0.0095
  437poe     o2 3077   1.850   0.626   2.923 -0.5651  0.0074  0.2234
  437poe    c23 3078   1.959   0.566   2.989 -0.4256  0.1176  0.0940
  437poe    c23 3079   2.003   0.640   3.116  0.3142  0.2713 -0.2467
  437poe     o2 3080   1.885   0.703   3.163  0.3885  0.3902 -0.2178
  437poe    c23 3081   1.893   0.745   3.297 -0.0591 -0.0637 -0.0460
  437poe    c23 3082   1.794   0.860   3.318 -0.2659 -0.2089 -0.2231
  437poe     o2 3083   1.701   0.850   3.212 -0.1567  0.3985 -0.3848
  437poe    c31 3084   1.599   0.940   3.249 -0.4556 -0.2124  0.3140
  438poe    c31 3085   6.347   4.298   2.166  0.3981 -0.1729 -0.3052
  438poe     o2 3086   6.435   4.305   2.275  0.3703 -0.3105 -0.2734
  438poe    c23 3087   6.492   4.434   2.276 -0.0846 -0.1111  0.0797
  438poe    c23 3088   6.606   4.453   2.377  0.1500  0.2159 -0.2428
  438poe     o2 3089   6.544   4.399   2.492  0.5444  0.2022 -0.0353
  438poe    c23 3090   6.625   4.386   2.607 -0.0453  0.5511  0.4244
  438poe    c23 3091   6.543   4.298   2.702  0.0178  0.2399  0.1918
  438poe     o2 3092   6.496   4.184   2.633  0.4496 -0.0784  0.4228
  438poe    c23 3093   6.381   4.144   2.704  0.1595 -0.4333 -0.2383
  438poe    c23 3094   6.293   4.066   2.605 -0.1535 -0.3023 -0.0636
  438poe     o2 3095   6.301   4.137   2.484  0.0835  0.2483  0.2749
  438poe    c31 3096   6.241   4.050   2.392 -0.0064  0.0755  0.4963
  439poe    c31 3097   4.406   1.140   1.135  0.1678  0.0845 -0.3313
  439poe     o2 3098   4.495   1.042   1.088 -0.0825  0.0210 -0.6811
  439poe    c23 3099   4.492   0.919   1.156  0.8536  0.1718 -0.3473
  439poe    c23 3100   4.565   0.808   1.077  0.0497 -0.4236 -0.2730
  439poe     o2 3101   4.502   0.743   0.970  0.1306 -0.2342 -0.4378
  439poe    c23 3102   4.438   0.625   1.014  0.3906 -0.2969 -0.2314
  439poe    c23 3103   4.321   0.590   0.921  0.1042 -0.5321  0.2120
  439poe     o2 3104   4.350   0.565   0.785 -0.3585 -0.2217  0.0506
  439poe    c23 3105   4.238   0.540   0.704 -0.5169 -0.1898  0.2580
  439poe    c23 3106   4.288   0.513   0.560 -0.1437  0.3596  0.2810
  439poe     o2 3107   4.378   0.619   0.535  0.2035 -0.0640 -0.2906
  439poe    c31 3108   4.418   0.628   0.401  0.1783  0.0971 -0.2877
  440poe    c31 3109   2.511   6.303   0.756 -0.6166 -0.3206 -0.0809
  440poe     o2 3110   2.476   6.213   0.859 -0.2389 -0.2550  0.1038
  440poe    c23 3111   2.484   6.271   0.988 -0.5965  0.1634 -0.0596
  440poe    c23 3112   2.457   6.178   1.107 -0.1090  0.6217  0.4133
  440poe     o2 3113   2.558   6.082   1.129 -1.0216 -0.4183  0.1514
  440poe    c23 3114   2.521   6.001   1.239 -0.5776 -0.2685  0.4103
  440poe    c23 3115   2.526   5.856   1.187 -0.0557 -0.2084  0.2875
  440poe     o2 3116   2.651   5.828   1.129  0.1996  0.5427  0.4546
  440poe    c23 3117   2.677   5.694   1.092 -0.2320  0.6851 -0.3827
  440poe    c23 3118   2.822   5.710   1.045 -0.2696 -0.1116 -0.7990
  440poe     o2 3119   2.827   5.832   0.975 -0.3049  0.0601 -0.5053
  440poe    c31 3120   2.937   5.837   0.886  0.2911 -0.1269  0.2117
  441poe    c31 3121   1.037   5.052   5.857  0.2428  0.1446  0.4048
  441poe     o2 3122   0.980   5.060   5.986  0.4297 -0.2306  0.5121
  441poe    c23 3123   0.951   5.196   6.007  0.4063 -0.1658  0.0679
  441poe    c23 3124   0.872   5.201   6.139 -0.3380  0.4036 -0.3871
  441poe     o2 3125   0.911   5.093   6.221 -0.3707  0.3876 -0.3923
  441poe    c23 3126   0.858   5.107   6.351  0.1755 -0.3384 -0.0877
  441poe    c23 3127   0.942   5.006   6.432  0.3990 -0.2233 -0.1739
  441poe     o2 3128   0.971   4.913   6.329 -0.0224 -0.2831 -0.2418
  441poe    c23 3129   1.092   4.842   6.337  0.3704  0.3527 -0.4467
  441poe    c23 3130   1.075   4.737   6.225  0.3943  0.3101 -0.4111
  441poe     o2 3131   1.045   4.798   6.101  0.1440  0.1713 -0.4183
  441poe    c31 3132   1.068   4.709   5.994  0.5586  0.0807 -0.2544
  442poe    c31 3133   6.086   0.047   3.263  0.0772  0.1509 -0.6218
  442poe     o2 3134   6.168  -0.068   3.258 -0.1967 -0.0950  0.3095
  442poe    c23 3135   6.183  -0.129   3.132  0.4135  0.2631  0.2079
  442poe    c23 3136   6.217  -0.277   3.158 -0.6236  0.1060  0.7235
  442poe     o2 3137   6.305  -0.278   3.268  0.3165  0.3312 -0.0040
  442poe    c23 3138   6.349  -0.409   3.294  0.0823  0.2458 -0.0255
  442poe    c23 3139   6.478  -0.389   3.376 -0.2059 -0.3467  0.5860
  442poe     o2 3140   6.442  -0.285   3.465 -0.5277 -0.0729  0.1370
  442poe    c23 3141   6.549  -0.202   3.504 -0.4655 -0.1408  0.1112
  442poe    c23 3142   6.483  -0.074   3.559 -0.3615 -0.0919  0.1241
  442poe     o2 3143   6.379  -0.039   3.471 -0.0156 -0.2800 -0.3662
  442poe    c31 3144   6.351   0.094   3.508  0.0882 -0.4698  0.3966
  443poe    c31 3145   2.895   0.207   3.745 -0.0141  0.0207  0.2385
  443poe     o2 3146   2.992   0.302   3.708  0.0711 -0.2553 -0.2532
  443poe    c23 3147   2.940   0.385   3.606 -0.0684  0.6505  0.5414
  443poe    c23 3148   3.044   0.480   3.545  0.2193 -0.4060 -0.6530
  443poe     o2 3149   3.098   0.545   3.658  0.1761 -0.4947 -0.5812
  443poe    c23 3150   3.216   0.620   3.639  0.0975 -0.2209 -0.0155
  443poe    c23 3151   3.331   0.519   3.615  0.3411  0.0969 -0.1890
  443poe     o2 3152   3.316   0.437   3.728  0.1663 -0.2160 -0.4402
  443poe    c23 3153   3.398   0.326   3.701  0.6154  0.0295 -0.0911
  443poe    c23 3154   3.366   0.217   3.806  0.1166  0.1416 -0.1271
  443poe     o2 3155   3.225   0.204   3.810  0.1088  0.3659  0.2574
  443poe    c31 3156   3.197   0.070   3.844  0.2203  0.1114 -0.6394
  444poe    c31 3157   0.613   1.233   5.639  0.0820 -0.0482  0.5115
  444poe     o2 3158   0.676   1.107   5.631  0.1314  0.0036  0.0688
  444poe    c23 3159   0.731   1.083   5.504  0.5581  0.9418  0.0657
  444poe    c23 3160   0.776   0.935   5.507 -0.7071  0.5385 -0.0835
  444poe     o2 3161   0.852   0.922   5.626  0.3478  0.1091 -0.7864
  444poe    c23 3162   0.895   0.788   5.633  0.1894  0.0950  0.0394
  444poe    c23 3163   0.945   0.779   5.778 -0.3245 -0.4485  0.1827
  444poe     o2 3164   0.850   0.838   5.864  0.0412 -0.0100  0.2918
  444poe    c23 3165   0.912   0.899   5.975  0.0609  0.1853  0.1737
  444poe    c23 3166   0.793   0.966   6.047 -0.5550 -0.7440  0.0486
  444poe     o2 3167   0.734   1.043   5.945  0.0523  0.2148  0.4024
  444poe    c31 3168   0.638   1.122   6.011  0.2450  0.7792  0.0143
  445poe    c31 3169   1.644   0.383   5.514  0.5268  0.3380 -0.1977
  445poe     o2 3170   1.513   0.403   5.466  0.2802 -0.1551  0.2531
  445poe    c23 3171   1.481   0.289   5.389 -0.1750 -0.0483  0.2833
  445poe    c23 3172   1.330   0.306   5.361 -0.1139 -0.0748 -0.0725
  445poe     o2 3173   1.317   0.439   5.316 -0.4099 -0.0284  0.1502
  445poe    c23 3174   1.181   0.464   5.287 -0.2209  0.0698 -0.6701
  445poe    c23 3175   1.168   0.611   5.240 -0.0409  0.0875 -0.6639
  445poe     o2 3176   1.237   0.684   5.339 -0.5643  0.5108 -0.6083
  445poe    c23 3177   1.199   0.820   5.335  0.7553  0.8920 -0.6774
  445poe    c23 3178   1.266   0.899   5.449 -0.0359  0.0145  0.4205
  445poe     o2 3179   1.249   0.833   5.572 -0.1202 -0.3224  0.2281
  445poe    c31 3180   1.281   0.919   5.678  0.6590  0.2643 -0.4672
  446poe    c31 3181   4.676   3.239   5.388 -0.7392 -0.2098 -0.3454
  446poe     o2 3182   4.812   3.250   5.354 -0.6271  0.3328  0.2497
  446poe    c23 3183   4.877   3.345   5.435  0.4431  0.0271 -0.2283
  446poe    c23 3184   5.027   3.312   5.439  0.3753 -0.2549  0.1432
  446poe     o2 3185   5.060   3.279   5.306 -0.1271  0.3487 -0.1395
  446poe    c23 3186   5.187   3.220   5.289 -0.0347  0.3999  0.3846
  446poe    c23 3187   5.193   3.165   5.146  0.1932  0.4005  0.3927
  446poe     o2 3188   5.065   3.122   5.107  0.4370 -0.2756  0.3321
  446poe    c23 3189   5.058   2.982   5.090 -0.0960 -0.2129 -0.0015
  446poe    c23 3190   4.913   2.945   5.124 -0.1814  0.5003  0.4114
  446poe     o2 3191   4.877   3.019   5.239 -0.4704  0.3526  0.4176
  446poe    c31 3192   4.885   2.941   5.356  0.1786  0.0775  0.1939
  447poe    c31 3193   3.000   1.124   1.247  0.1784 -0.4271  0.0492
  447poe     o2 3194   2.928   1.059   1.349  0.2740 -0.4908  0.0764
  447poe    c23 3195   2.793   1.046   1.311  0.0566  0.3841  0.5305
  447poe    c23 3196   2.699   0.987   1.418 -0.0634  0.0757  0.2587
  447poe     o2 3197   2.774   0.883   1.476 -0.1943  0.0251  0.3383
  447poe    c23 3198   2.729   0.813   1.589 -0.3854 -0.1243  0.1698
  447poe    c23 3199   2.856   0.730   1.616 -0.3197 -0.0397  0.1202
  447poe     o2 3200   2.967   0.815   1.596  0.0592 -0.4864  0.3193
  447poe    c23 3201   3.088   0.767   1.649  0.1155 -0.4783  0.1992
  447poe    c23 3202   3.205   0.855   1.601 -0.1504 -0.2970 -0.1186
  447poe     o2 3203   3.167   0.915   1.480 -0.3666 -0.1217  0.0361
  447poe    c31 3204   3.279   0.993   1.443  0.2255 -0.8051  0.3699
  448poe    c31 3205   4.091   2.605   3.221  0.3780 -0.2625 -0.1005
  448poe     o2 3206   4.031   2.677   3.115  0.2850 -0.0817  0.0746
  448poe    c23 3207   3.963   2.598   3.021  0.3759  0.0228 -0.0803
  448poe    c23 3208   3.905   2.696   2.918 -0.2366 -0.1320  0.1125
  448poe     o2 3209   3.824   2.792   2.981  0.2531  0.4617 -0.1546
  448poe    c23 3210   3.779   2.892   2.892 -0.7617  0.2502  0.1064
  448poe    c23 3211   3.707   3.015   2.952 -0.6322  0.2754  0.2101
  448poe     o2 3212   3.783   3.073   3.056 -0.0346 -0.3357  0.1216
  448poe    c23 3213   3.732   3.197   3.100 -0.1498 -0.1979 -0.3974
  448poe    c23 3214   3.837   3.246   3.201 -0.1404 -0.4412 -0.2868
  448poe     o2 3215   3.886   3.144   3.286 -0.5841 -0.1159  0.3684
  448poe    c31 3216   3.976   3.204   3.376 -0.2983 -0.3296  0.2254
  449poe    c31 3217   5.114   1.938   1.206  0.1545  0.3981  0.0763
  449poe     o2 3218   5.062   1.832   1.283  0.0520  0.1602 -0.3198
  449poe    c23 3219   4.933   1.811   1.230  0.0341 -0.1583 -0.1592
  449poe    c23 3220   4.863   1.701   1.310 -0.6935  0.0132 -0.5520
  449poe     o2 3221   4.805   1.748   1.430 -0.2153 -0.1802 -0.2418
  449poe    c23 3222   4.748   1.635   1.492 -0.7292  0.0253 -0.3373
  449poe    c23 3223   4.670   1.689   1.614  0.3229  0.4789  0.1450
  449poe     o2 3224   4.765   1.764   1.687  0.6007  0.2761 -0.0054
  449poe    c23 3225   4.731   1.796   1.820 -0.8502  0.3890 -0.3764
  449poe    c23 3226   4.830   1.909   1.853  0.1039 -0.5807  0.1891
  449poe     o2 3227   4.835   2.011   1.756 -0.2523 -0.1268  0.6388
  449poe    c31 3228   4.914   2.117   1.804 -0.0037  0.2543 -0.5733
  450poe    c31 3229   2.083   5.146   6.731  0.1598  0.1922  0.2673
  450poe     o2 3230   2.089   5.149   6.590 -0.6876  0.0538  0.2194
  450poe    c23 3231   2.138   5.272   6.541 -0.3757  0.0213  0.4454
  450poe    c23 3232   2.197   5.255   6.399 -0.4538 -0.1222  0.4296
  450poe     o2 3233   2.095   5.181   6.336  0.0705 -0.5386  0.0695
  450poe    c23 3234   2.130   5.103   6.224  0.4076 -0.2297 -0.0433
  450poe    c23 3235   2.016   5.005   6.190  0.9803 -0.8056 -0.3140
  450poe     o2 3236   1.976   4.940   6.308  0.2295 -0.5040 -0.3998
  450poe    c23 3237   1.835   4.925   6.315  0.1689  0.1998 -0.0774
  450poe    c23 3238   1.818   4.865   6.456  0.5843  0.2544 -0.0011
  450poe     o2 3239   1.873   4.951   6.552  0.2942  0.3711  0.0592
  450poe    c31 3240   1.823   4.894   6.671  0.2511  0.2519 -0.0167
  451poe    c31 3241   2.644   2.843   4.203  0.3216 -0.1981 -0.5338
  451poe     o2 3242   2.511   2.818   4.165  0.0698 -0.2668  0.3734
  451poe    c23 3243   2.505   2.720   4.063 -0.0871 -0.0413  0.1652
  451poe    c23 3244   2.357   2.707   4.023 -0.2487  1.1357  0.3344
  451poe     o2 3245   2.271   2.630   4.104  0.0685 -0.0800 -0.4661
  451poe    c23 3246   2.154   2.606   4.029  0.2571 -0.3661 -0.6733
  451poe    c23 3247   2.049   2.540   4.121  0.4671  0.2312  0.0074
  451poe     o2 3248   2.038   2.598   4.248 -0.1293  0.1767 -0.0171
  451poe    c23 3249   1.972   2.526   4.350 -0.5823  0.4353 -0.1236
  451poe    c23 3250   1.990   2.607   4.479 -0.1903  0.2015 -0.0273
  451poe     o2 3251   2.123   2.649   4.498 -0.2175  0.2590  0.0364
  451poe    c31 3252   2.140   2.694   4.631  1.0990 -0.1034  0.0028
  452poe    c31 3253   6.246   2.643   2.625 -0.5775  0.2160 -0.0027
  452poe     o2 3254   6.185   2.540   2.550 -0.5698  0.2617 -0.0714
  452poe    c23 3255   6.250   2.423   2.594 -0.2071  0.5139  0.0731
  452poe    c23 3256   6.153   2.315   2.542  0.0496  0.4449 -0.2635
  452poe     o2 3257   6.127   2.342   2.406 -0.9739  0.5561 -0.0474
  452poe    c23 3258   6.043   2.244   2.349  0.0921 -0.3039 -0.1704
  452poe    c23 3259   6.001   2.297   2.211  0.0891 -0.0230 -0.0633
  452poe     o2 3260   5.954   2.428   2.234 -0.4495 -0.2626  0.2230
  452poe    c23 3261   5.844   2.457   2.152  0.0373  0.2208 -0.2661
  452poe    c23 3262   5.802   2.604   2.173 -0.3691  0.1148 -0.3189
  452poe     o2 3263   5.734   2.610   2.296  0.0722 -0.4630 -0.0360
  452poe    c31 3264   5.664   2.732   2.304  0.2598 -0.3683  0.1533
  453poe    c31 3265   0.278   5.278   0.451  0.0613  0.0258 -0.3134
  453poe     o2 3266   0.147   5.328   0.442  0.0711  0.1969  0.4482
  453poe    c23 3267   0.091   5.324   0.572 -0.3102 -0.1332  0.2751
  453poe    c23 3268  -0.051   5.380   0.553 -0.2806 -0.0038  0.4335
  453poe     o2 3269  -0.114   5.312   0.446  0.7886  0.2716 -0.3931
  453poe    c23 3270  -0.244   5.365   0.442  0.6842  0.1093  0.5039
  453poe    c23 3271  -0.300   5.298   0.315  0.3141  0.3743  0.5256
  453poe     o2 3272  -0.196   5.323   0.223  0.0402 -0.0106  0.1071
  453poe    c23 3273  -0.185   5.235   0.113 -0.3659  0.0364  0.0288
  453poe    c23 3274  -0.045   5.272   0.060 -0.1500 -0.0823  0.5037
  453poe     o2 3275   0.050   5.237   0.157  0.1793 -0.5218  0.0299
  453poe    c31 3276   0.156   5.157   0.111 -0.0174 -0.5669 -0.3458
  454poe    c31 3277   0.370   1.517   3.461  0.5218 -0.0378 -0.0698
  454poe     o2 3278   0.426   1.400   3.516  0.1458 -0.2627 -0.1628
  454poe    c23 3279   0.558   1.381   3.471  0.0607 -0.2646 -0.4087
  454poe    c23 3280   0.670   1.445   3.555 -0.1612  0.0705 -0.3662
  454poe     o2 3281   0.693   1.374   3.674 -0.0765  0.5055 -0.1183
  454poe    c23 3282   0.775   1.438   3.769  0.1759 -0.1657  0.1301
  454poe    c23 3283   0.724   1.426   3.913 -0.1425 -0.2249  0.0139
  454poe     o2 3284   0.681   1.293   3.931 -0.5328 -0.2124 -0.8171
  454poe    c23 3285   0.641   1.255   4.060  0.7122  0.1914 -0.2986
  454poe    c23 3286   0.575   1.118   4.040  0.0541  0.4974 -0.2698
  454poe     o2 3287   0.495   1.129   3.924 -0.1058  0.1243 -0.1971
  454poe    c31 3288   0.425   1.010   3.897  0.2238 -0.1039 -0.0671
  455poe    c31 3289   4.671   1.761   3.178  0.0843 -1.0602  0.2617
  455poe     o2 3290   4.580   1.705   3.086 -0.1531  0.2525 -0.3137
  455poe    c23 3291   4.533   1.582   3.135  0.1107  0.6345  0.9125
  455poe    c23 3292   4.397   1.579   3.064  0.0569 -0.3936  1.0367
  455poe     o2 3293   4.418   1.593   2.925 -1.0278 -0.0487  0.8991
  455poe    c23 3294   4.289   1.567   2.873 -0.4925 -0.2604 -0.3734
  455poe    c23 3295   4.310   1.598   2.724 -0.2185 -0.7757 -0.4467
  455poe     o2 3296   4.351   1.732   2.710  0.0152 -0.8155 -0.1505
  455poe    c23 3297   4.431   1.757   2.597 -0.2291  0.0918 -0.1379
  455poe    c23 3298   4.435   1.907   2.562 -0.2771  0.0981 -0.1170
  455poe     o2 3299   4.468   1.989   2.671  0.7060 -0.1517 -0.2205
  455poe    c31 3300   4.467   2.126   2.639  0.3683 -0.1226 -0.0820
  456poe    c31 3301   0.708   5.080   2.192 -0.0038  0.5243  0.2572
  456poe     o2 3302   0.583   5.138   2.220 -0.4657 -0.2773 -0.1032
  456poe    c23 3303   0.556   5.163   2.357  0.4923  0.8371 -0.1021
  456poe    c23 3304   0.415   5.224   2.373  0.2075  0.0916  0.2570
  456poe     o2 3305   0.405   5.347   2.305 -0.6059 -0.0494  0.1194
  456poe    c23 3306   0.277   5.401   2.331 -0.6905 -0.3220  0.2793
  456poe    c23 3307   0.262   5.529   2.247  0.9785 -0.2812  0.0073
  456poe     o2 3308   0.280   5.491   2.112 -0.9137 -0.3182 -0.2612
  456poe    c23 3309   0.233   5.598   2.034 -0.0576  0.2969  0.0520
  456poe    c23 3310   0.203   5.560   1.888 -0.6629 -0.1750  0.2920
  456poe     o2 3311   0.303   5.514   1.800 -0.2762  0.2895  0.4833
  456poe    c31 3312   0.249   5.537   1.672 -0.1510  0.5347  0.4732
  457poe    c31 3313   3.711   5.218   1.148 -0.3345 -0.3417  0.3831
  457poe     o2 3314   3.645   5.316   1.225 -0.8480 -0.3286 -0.0692
  457poe    c23 3315   3.579   5.411   1.146 -0.4430 -0.1986 -0.2572
  457poe    c23 3316   3.518   5.521   1.235  0.0789 -0.3310  0.2673
  457poe     o2 3317   3.605   5.525   1.346  0.0146 -0.0877  0.3099
  457poe    c23 3318   3.590   5.640   1.426 -0.3865  0.1305 -0.0708
  457poe    c23 3319   3.662   5.609   1.559  0.1357 -0.0617 -0.3962
  457poe     o2 3320   3.623   5.486   1.615 -0.6127  0.3742  0.0637
  457poe    c23 3321   3.641   5.475   1.754 -0.3760  0.0908  0.0132
  457poe    c23 3322   3.537   5.552   1.839 -0.1043  0.4332  0.0406
  457poe     o2 3323   3.410   5.499   1.809 -0.1289  0.6367 -0.2200
  457poe    c31 3324   3.337   5.494   1.930  0.0718  0.5095 -0.1030
  458poe    c31 3325   0.676   5.472   2.211  0.3537 -0.4555  0.1832
  458poe     o2 3326   0.622   5.389   2.110 -0.2366  0.5307 -0.3158
  458poe    c23 3327   0.616   5.450   1.983 -0.3335  0.5103 -0.3209
  458poe    c23 3328   0.571   5.332   1.895  0.3946 -0.1435  0.1698
  458poe     o2 3329   0.463   5.277   1.968  0.3321 -0.3516 -0.0803
  458poe    c23 3330   0.433   5.146   1.924  0.1273 -0.1233 -0.6242
  458poe    c23 3331   0.291   5.106   1.967  0.1927 -0.0113 -0.2987
  458poe     o2 3332   0.275   5.101   2.107 -0.1000  0.2258 -0.3228
  458poe    c23 3333   0.175   5.007   2.136 -0.2702  0.6120  0.3592
  458poe    c23 3334   0.152   4.981   2.286  0.0756  0.5668  0.4055
  458poe     o2 3335   0.267   4.934   2.352  0.1765  0.2271 -0.0076
  458poe    c31 3336   0.249   4.900   2.488 -0.3504  0.2605 -0.0665
  459poe    c31 3337   1.767   4.332   6.618 -0.4035 -0.0121 -0.4180
  459poe     o2 3338   1.689   4.254   6.531 -0.0509 -0.6161 -0.1954
  459poe    c23 3339   1.762   4.197   6.425  0.4280 -1.0301  0.3549
  459poe    c23 3340   1.650   4.120   6.353 -0.0668 -0.1844  0.2196
  459poe     o2 3341   1.546   4.209   6.318 -0.0663 -0.2903 -0.0560
  459poe    c23 3342   1.460   4.153   6.222 -0.0693 -0.5267  0.0830
  459poe    c23 3343   1.364   4.272   6.199  0.2824 -0.2242  0.1745
  459poe     o2 3344   1.326   4.323   6.325  0.1291  0.1846 -0.0357
  459poe    c23 3345   1.218   4.414   6.320  0.2210  0.2824 -0.2871
  459poe    c23 3346   1.080   4.387   6.257  0.4862 -0.4749 -0.5585
  459poe     o2 3347   1.076   4.401   6.117  0.0904 -0.2447 -0.5264
  459poe    c31 3348   0.946   4.371   6.071 -0.1179 -0.3737  0.1270
  460poe    c31 3349   0.297   4.236   1.217 -0.2906 -0.0287  0.4177
  460poe     o2 3350   0.372   4.133   1.278  0.1094  0.1217  0.1820
  460poe    c23 3351   0.510   4.133   1.247  0.0859 -0.6168  0.0676
  460poe    c23 3352   0.587   4.038   1.341  0.5118  0.1431  0.5007
  460poe     o2 3353   0.536   3.908   1.318  0.4740  0.2561 -0.0633
  460poe    c23 3354   0.617   3.822   1.395 -0.3373 -0.0750  0.4318
  460poe    c23 3355   0.542   3.691   1.424 -0.1611 -0.1617  0.4930
  460poe     o2 3356   0.510   3.637   1.298  0.5775 -0.0661  0.2616
  460poe    c23 3357   0.401   3.551   1.322 -0.2376  0.9060  0.0791
  460poe    c23 3358   0.329   3.531   1.187 -0.0519  0.0955  0.0976
  460poe     o2 3359   0.319   3.657   1.124  0.6833  0.0371 -0.1509
  460poe    c31 3360   0.249   3.654   1.002 -0.1806  0.5863  0.3191
  461poe    c31 3361   6.495   1.048   2.434  0.4471 -0.2390 -0.1615
  461poe     o2 3362   6.385   0.990   2.368 -0.0111  0.3656  0.0614
  461poe    c23 3363   6.341   1.072   2.263 -0.2773  0.0311 -0.0911
  461poe    c23 3364   6.228   1.008   2.180  0.3974 -0.4741 -0.6413
  461poe     o2 3365   6.248   0.869   2.191 -0.1135 -0.5079 -0.0387
  461poe    c23 3366   6.156   0.791   2.117 -0.2409 -0.2868 -0.1157
  461poe    c23 3367   6.203   0.646   2.142  0.1230 -0.2075 -0.3220
  461poe     o2 3368   6.223   0.629   2.281 -0.0214  0.1132 -0.2601
  461poe    c23 3369   6.296   0.513   2.314  0.1997  0.3839  0.1958
  461poe    c23 3370   6.344   0.548   2.457  0.4185 -0.4673  0.3380
  461poe     o2 3371   6.394   0.680   2.465 -0.0452 -0.2621 -0.0252
  461poe    c31 3372   6.423   0.703   2.601  0.3079  0.2095 -0.1795
  462poe    c31 3373   1.718   3.397   5.966  1.0526 -0.4805  0.5091
  462poe     o2 3374   1.706   3.492   6.069 -0.2185 -0.3383  0.2468
  462poe    c23 3375   1.765   3.611   6.021 -0.5887 -0.1504  0.2540
  462poe    c23 3376   1.756   3.729   6.119 -0.2191 -0.2851  0.4508
  462poe     o2 3377   1.620   3.751   6.147 -0.3394 -0.2328 -0.1617
  462poe    c23 3378   1.596   3.767   6.285 -0.6402  0.1755 -0.2602
  462poe    c23 3379   1.492   3.663   6.331 -0.8323  0.4199 -0.1363
  462poe     o2 3380   1.538   3.529   6.330  0.2747  0.7771  0.4746
  462poe    c23 3381   1.652   3.505   6.409  0.3449  0.2046  0.2006
  462poe    c23 3382   1.672   3.352   6.409 -0.4046  0.0991 -0.1035
  462poe     o2 3383   1.668   3.323   6.271 -0.0784  0.1622 -0.1292
  462poe    c31 3384   1.644   3.184   6.260  0.2351  0.0898  0.1015
  463poe    c31 3385   0.832   0.981   0.697  0.3977 -0.0546 -0.3387
  463poe     o2 3386   0.756   1.067   0.615  0.1988  0.3356  0.2541
  463poe    c23 3387   0.676   1.165   0.679  0.0865  0.0439  0.5632
  463poe    c23 3388   0.559   1.172   0.580  0.2856 -0.2466  0.3015
  463poe     o2 3389   0.628   1.206   0.462  0.1983 -0.4572  0.1901
  463poe    c23 3390   0.541   1.180   0.354  0.0021 -0.2312  0.2912
  463poe    c23 3391   0.625   1.211   0.229 -0.1282 -0.3584  0.1709
  463poe     o2 3392   0.748   1.155   0.269  0.2794  0.2410 -0.2178
  463poe    c23 3393   0.845   1.129   0.170  0.6035 -0.1117  0.1816
  463poe    c23 3394   0.949   1.027   0.219  0.7920 -0.1602 -0.3105
  463poe     o2 3395   0.975   1.069   0.351 -0.3128 -0.4111  0.0006
  463poe    c31 3396   1.077   0.994   0.413  0.2162  0.3506  0.0787
  464poe    c31 3397   3.205   6.037   2.697 -0.2392  0.2160 -0.2327
  464poe     o2 3398   3.249   5.994   2.570 -0.4011  0.1427 -0.2652
  464poe    c23 3399   3.384   6.022   2.541 -0.3744 -0.0103 -0.2897
  464poe    c23 3400   3.425   5.981   2.398 -0.0870  0.0719 -0.2325
  464poe     o2 3401   3.315   5.998   2.312 -0.3358  0.0010  0.0688
  464poe    c23 3402   3.340   5.934   2.189 -0.0173 -0.2217  0.2498
  464poe    c23 3403   3.206   5.936   2.113  0.1927 -1.2091 -0.1694
  464poe     o2 3404   3.114   5.899   2.212 -0.1402  0.0721  0.0248
  464poe    c23 3405   2.978   5.924   2.183 -0.2812 -0.8428 -0.1408
  464poe    c23 3406   2.904   5.867   2.306  0.3194 -0.4767  0.4018
  464poe     o2 3407   2.959   5.932   2.418  0.2333 -0.1141  0.2358
  464poe    c31 3408   2.887   5.879   2.527  0.6576 -0.1359  0.5076
  465poe    c31 3409   0.982   0.519   3.528 -0.2416 -0.0499  0.9667
  465poe     o2 3410   1.099   0.441   3.537 -0.3034 -0.2108  0.4431
  465poe    c23 3411   1.196   0.516   3.607 -0.2273  0.3231 -0.2297
  465poe    c23 3412   1.334   0.448   3.596 -0.4035  0.0354 -0.6776
  465poe     o2 3413   1.309   0.310   3.579  0.0343 -0.1048 -0.2029
  465poe    c23 3414   1.428   0.249   3.534  0.1088 -0.4361  0.4321
  465poe    c23 3415   1.390   0.103   3.503  0.0477 -0.3187 -0.0551
  465poe     o2 3416   1.272   0.130   3.430 -0.1746  0.4035  0.5558
  465poe    c23 3417   1.195   0.016   3.399  0.3182  0.1799  0.1315
  465poe    c23 3418   1.072   0.064   3.318  0.0463 -0.0147  0.4243
  465poe     o2 3419   1.033   0.190   3.368 -0.5965 -0.1526  0.2714
  465poe    c31 3420   0.914   0.234   3.306 -0.6986 -0.1168  0.4917
  466poe    c31 3421   3.253   3.791   3.586 -0.3979 -0.1577  0.3643
  466poe     o2 3422   3.298   3.834   3.459  0.1397 -0.4439  0.4542
  466poe    c23 3423   3.192   3.914   3.412  0.0427 -0.8678 -0.0622
  466poe    c23 3424   3.228   3.946   3.266  0.4863 -1.3069 -0.0495
  466poe     o2 3425   3.365   3.975   3.281  0.1709  0.2311 -0.0558
  466poe    c23 3426   3.433   4.013   3.163 -0.4832 -0.3158 -0.6124
  466poe    c23 3427   3.574   4.048   3.214 -0.5553 -0.6665 -0.1655
  466poe     o2 3428   3.617   3.931   3.280  0.5443 -0.2946 -0.2012
  466poe    c23 3429   3.717   3.970   3.371  0.3897  0.0479 -0.1778
  466poe    c23 3430   3.746   3.836   3.441  0.6412 -0.0735 -0.5161
  466poe     o2 3431   3.620   3.799   3.491  0.5981  0.5868 -0.1268
  466poe    c31 3432   3.613   3.684   3.571  0.3558  0.7875  0.1445
  467poe    c31 3433   4.764   0.096   2.044  0.2753 -0.6860 -0.0313
  467poe     o2 3434   4.822   0.172   2.148 -0.0897 -0.0187 -0.3127
  467poe    c23 3435   4.721   0.238   2.222  0.2707  0.5729 -0.3425
  467poe    c23 3436   4.796   0.312   2.335  0.3046  0.2975 -0.1832
  467poe     o2 3437   4.908   0.376   2.278  0.2972  0.1179 -0.4033
  467poe    c23 3438   4.973   0.460   2.371 -0.5199  0.4190 -0.0893
  467poe    c23 3439   5.083   0.535   2.293 -0.0315 -0.2172 -0.0248
  467poe     o2 3440   5.176   0.439   2.247  0.4278  0.1661  0.0978
  467poe    c23 3441   5.278   0.483   2.160  0.0193  0.1712 -0.3865
  467poe    c23 3442   5.391   0.379   2.154 -0.0566  0.1013 -0.5952
  467poe     o2 3443   5.359   0.244   2.132 -0.1405  0.0135  0.0557
  467poe    c31 3444   5.466   0.172   2.075 -0.1380  0.1048 -0.0565
  468poe    c31 3445   1.421   2.883   6.363 -0.3872 -0.3552 -0.2259
  468poe     o2 3446   1.319   2.886   6.461  0.1452  0.4722  0.3103
  468poe    c23 3447   1.367   2.896   6.593  0.2019  0.2781  0.3038
  468poe    c23 3448   1.254   2.879   6.696 -0.0691 -0.4016 -0.0995
  468poe     o2 3449   1.150   2.970   6.669  0.4188  0.0836 -0.3638
  468poe    c23 3450   1.033   2.959   6.746  0.4869  0.4304 -0.2102
  468poe    c23 3451   0.930   3.036   6.660 -0.5613 -0.4390  0.2418
  468poe     o2 3452   0.948   2.990   6.528 -0.1462 -0.0426  0.1573
  468poe    c23 3453   0.860   3.064   6.446  0.3837 -0.1949 -0.5594
  468poe    c23 3454   0.891   3.005   6.308  0.2011 -0.8862 -0.3092
  468poe     o2 3455   1.030   2.982   6.301  0.4643  0.5114  0.0411
  468poe    c31 3456   1.076   2.976   6.168  0.5562 -0.5444  0.1151
  469poe    c31 3457   2.777   2.970   5.437  0.3291 -0.4641 -0.0595
  469poe     o2 3458   2.715   2.896   5.540  0.6462 -0.8035 -0.1102
  469poe    c23 3459   2.810   2.851   5.634  0.4794  0.0861  0.5001
  469poe    c23 3460   2.733   2.747   5.719 -0.0834 -0.0676 -0.1876
  469poe     o2 3461   2.608   2.811   5.732  0.1425  0.1613  0.9825
  469poe    c23 3462   2.522   2.719   5.794 -0.3080 -0.6399 -0.7734
  469poe    c23 3463   2.396   2.802   5.822  0.0678 -0.3242  0.0080
  469poe     o2 3464   2.374   2.888   5.712 -0.1210  0.4983  0.6783
  469poe    c23 3465   2.240   2.931   5.724 -0.3639 -0.1875  0.4495
  469poe    c23 3466   2.198   3.052   5.637  0.5107 -0.0363  0.2293
  469poe     o2 3467   2.187   3.034   5.498 -0.2278  0.3030  0.2435
  469poe    c31 3468   2.058   2.989   5.461 -0.0687 -0.0090  0.0669
  470poe    c31 3469   0.708   1.160   2.820 -0.4612 -0.0130 -0.2343
  470poe     o2 3470   0.651   1.269   2.751  0.6129  0.4932 -0.3556
  470poe    c23 3471   0.718   1.285   2.628 -0.2561  0.0752 -0.8954
  470poe    c23 3472   0.703   1.433   2.591  0.4543  0.4832  0.3770
  470poe     o2 3473   0.573   1.466   2.635  0.2480  0.1303  0.0384
  470poe    c23 3474   0.538   1.603   2.626 -0.0119  0.0097 -0.8498
  470poe    c23 3475   0.417   1.632   2.716  0.5390 -0.2974 -0.0031
  470poe     o2 3476   0.452   1.572   2.839  0.3703  0.1367  0.2604
  470poe    c23 3477   0.343   1.568   2.928 -0.1073 -0.3659 -0.3391
  470poe    c23 3478   0.396   1.485   3.046 -0.1270  0.1881  0.0625
  470poe     o2 3479   0.488   1.394   2.991  0.1648  0.4004  0.1967
  470poe    c31 3480   0.494   1.292   3.089 -0.4919  0.0072 -0.1666
  471poe    c31 3481   1.664   2.790   5.407 -0.2583  0.2716  0.2508
  471poe     o2 3482   1.530   2.813   5.445 -0.4616 -0.1598 -0.2065
  471poe    c23 3483   1.524   2.850   5.581  0.3299 -0.4292 -0.0933
  471poe    c23 3484   1.387   2.818   5.643  0.2431 -0.0942 -0.1086
  471poe     o2 3485   1.303   2.870   5.543  0.3331  0.6360  0.1892
  471poe    c23 3486   1.172   2.870   5.594  0.3150 -0.4915  0.1650
  471poe    c23 3487   1.106   2.964   5.492  0.7951  0.0154  0.3160
  471poe     o2 3488   1.171   2.937   5.369  0.3675  0.5273 -0.0279
  471poe    c23 3489   1.175   3.051   5.286  0.4673  0.3611 -0.2510
  471poe    c23 3490   1.262   3.006   5.168 -0.0046 -0.1561 -0.4013
  471poe     o2 3491   1.374   2.944   5.226 -0.1161  0.2954  0.2981
  471poe    c31 3492   1.471   2.944   5.124 -0.3991  0.0623  0.0270
  472poe    c31 3493   5.360   5.490   3.229  0.1427  0.1423 -0.1003
  472poe     o2 3494   5.392   5.507   3.366 -0.0331  0.0184 -0.0434
  472poe    c23 3495   5.485   5.411   3.412 -0.0345  0.4019  0.7778
  472poe    c23 3496   5.435   5.272   3.456 -0.6603  0.2262 -0.4266
  472poe     o2 3497   5.336   5.296   3.553 -0.1101 -0.0525  0.2090
  472poe    c23 3498   5.318   5.197   3.652  0.6113  0.1444  0.5517
  472poe    c23 3499   5.190   5.210   3.736  0.5289 -0.1053  0.4666
  472poe     o2 3500   5.183   5.333   3.805 -0.3859  0.2381 -0.2231
  472poe    c23 3501   5.053   5.374   3.843 -0.2190  0.2104  0.3748
  472poe    c23 3502   5.069   5.504   3.924  0.3536  0.3692  0.0164
  472poe     o2 3503   5.131   5.593   3.835  0.4226  0.0803 -0.2261
  472poe    c31 3504   5.160   5.718   3.893  0.4402 -0.1866  0.3449
  473poe    c31 3505   4.565   3.609   2.845 -0.2345  0.3620  0.5966
  473poe     o2 3506   4.644   3.701   2.774 -0.5715  0.1239 -0.0876
  473poe    c23 3507   4.617   3.827   2.831  0.1249  0.3070 -0.1513
  473poe    c23 3508   4.710   3.929   2.763  0.0903  0.4256 -0.0213
  473poe     o2 3509   4.714   3.903   2.625  0.0243  0.0315  0.0494
  473poe    c23 3510   4.837   3.942   2.568 -0.0340  0.3768  0.1552
  473poe    c23 3511   4.826   3.914   2.417 -0.1345  0.1116  0.2117
  473poe     o2 3512   4.764   3.787   2.405  0.1106 -0.0555  0.6836
  473poe    c23 3513   4.783   3.754   2.269  0.5331 -0.3783  0.8194
  473poe    c23 3514   4.718   3.619   2.234  0.0184  0.1102 -0.1636
  473poe     o2 3515   4.580   3.616   2.260 -0.0145  0.1167 -0.3367
  473poe    c31 3516   4.521   3.577   2.138 -0.2579 -0.7187  0.0421
  474poe    c31 3517   4.829   3.396   4.314  0.0237  0.1659 -0.7486
  474poe     o2 3518   4.889   3.507   4.377 -0.3065  0.1314 -0.3709
  474poe    c23 3519   5.022   3.512   4.329 -0.3517  0.4799 -0.4617
  474poe    c23 3520   5.107   3.626   4.387 -0.0012  0.0907 -0.2042
  474poe     o2 3521   5.064   3.639   4.521 -0.6098  0.2476 -0.4128
  474poe    c23 3522   5.105   3.764   4.571  0.2278 -0.2041  0.0495
  474poe    c23 3523   5.019   3.781   4.697  0.6137  0.1356  0.2708
  474poe     o2 3524   4.888   3.764   4.649  0.4328  0.2179  0.7242
  474poe    c23 3525   4.785   3.744   4.744 -0.1538  0.2743  0.1118
  474poe    c23 3526   4.659   3.695   4.670  0.2031  0.1738 -0.4389
  474poe     o2 3527   4.702   3.595   4.581  0.2988 -0.5724  0.4313
  474poe    c31 3528   4.595   3.517   4.533 -0.0767 -0.1066  0.5144
  475poe    c31 3529   5.820   4.341   3.885  0.4318  0.0506  0.0200
  475poe     o2 3530   5.839   4.338   4.025  0.4436 -0.2916  0.0101
  475poe    c23 3531   5.772   4.226   4.077 -0.2536  0.0448 -0.1588
  475poe    c23 3532   5.800   4.233   4.228  0.0271 -0.1596 -0.2000
  475poe     o2 3533   5.786   4.371   4.256 -0.3060 -0.2471  0.0749
  475poe    c23 3534   5.714   4.391   4.376  0.6866 -0.3291  0.6974
  475poe    c23 3535   5.683   4.534   4.424  0.6096  0.2417 -0.9862
  475poe     o2 3536   5.617   4.623   4.336 -0.2436  0.2090 -0.3945
  475poe    c23 3537   5.639   4.755   4.379  0.3983 -0.0169 -0.0074
  475poe    c23 3538   5.562   4.844   4.279  0.0078 -0.3748 -0.0240
  475poe     o2 3539   5.630   4.828   4.157  0.0705 -0.0431 -0.0312
  475poe    c31 3540   5.598   4.926   4.060 -0.1091 -0.5162 -0.4585
  476poe    c31 3541   2.902   4.470   6.685  0.2988 -0.1757  0.0912
  476poe     o2 3542   2.769   4.423   6.694  0.1809  0.1207 -0.1012
  476poe    c23 3543   2.724   4.361   6.812  0.1734  0.1374 -0.0953
  476poe    c23 3544   2.571   4.365   6.794  0.1634 -0.6039 -0.2153
  476poe     o2 3545   2.517   4.262   6.715 -0.4024 -0.3701 -0.1436
  476poe    c23 3546   2.403   4.308   6.647 -0.4494  0.0006  0.1878
  476poe    c23 3547   2.335   4.195   6.567  0.0564  0.1148 -0.4110
  476poe     o2 3548   2.410   4.104   6.491 -0.2037 -0.2955 -0.1785
  476poe    c23 3549   2.324   4.024   6.414 -0.3012  0.4791 -0.8896
  476poe    c23 3550   2.400   3.910   6.344  0.1109 -0.0293  0.3610
  476poe     o2 3551   2.525   3.966   6.308 -0.1552  0.5595  0.3389
  476poe    c31 3552   2.600   3.894   6.213 -0.0736  0.6815  0.3112
  477poe    c31 3553   4.137   6.696   3.832  0.7325 -0.3616 -0.0063
  477poe     o2 3554   4.032   6.666   3.921  0.4231 -0.2832 -0.3438
  477poe    c23 3555   4.062   6.538   3.970  0.5316 -0.2033 -0.2017
  477poe    c23 3556   3.960   6.493   4.077  0.0862 -0.0108 -0.5442
  477poe     o2 3557   3.828   6.485   4.029 -0.0113 -0.7269 -0.1638
  477poe    c23 3558   3.773   6.361   3.991 -0.6010 -0.7654  0.7833
  477poe    c23 3559   3.640   6.395   3.921  0.0123 -0.2890 -0.1754
  477poe     o2 3560   3.571   6.492   3.998  0.1441 -0.2401 -0.1190
  477poe    c23 3561   3.431   6.476   3.989  0.1554 -0.6539  0.3994
  477poe    c23 3562   3.392   6.584   4.092  0.1984 -0.0941 -0.1692
  477poe     o2 3563   3.485   6.689   4.078  0.4334 -0.1917  0.6079
  477poe    c31 3564   3.426   6.808   4.126  0.7778  0.0986  0.3225
  478poe    c31 3565   5.408   6.308   3.634 -0.8818  0.6007 -0.1829
  478poe     o2 3566   5.468   6.293   3.761 -0.5392  0.2401 -0.3850
  478poe    c23 3567   5.479   6.159   3.801  0.1625  0.3241 -0.2948
  478poe    c23 3568   5.466   6.157   3.955 -0.2359 -0.0253 -0.3327
  478poe     o2 3569   5.567   6.247   3.993  0.3832 -0.6653 -0.4480
  478poe    c23 3570   5.585   6.226   4.132  0.3891 -0.0504 -0.3534
  478poe    c23 3571   5.658   6.346   4.197  0.2053 -0.1264 -0.0098
  478poe     o2 3572   5.603   6.465   4.145  0.1758 -0.0859  0.1150
  478poe    c23 3573   5.683   6.578   4.169 -0.3880  0.2688  0.3435
  478poe    c23 3574   5.643   6.702   4.086 -0.5591  0.0722  0.1292
  478poe     o2 3575   5.659   6.685   3.948 -0.6300  0.0983  0.1176
  478poe    c31 3576   5.645   6.804   3.873 -0.1247 -0.3160 -0.6535
  479poe    c31 3577   1.777   2.891   3.403  0.1806 -0.6962  0.5724
  479poe     o2 3578   1.645   2.842   3.412 -0.1295 -0.1113 -0.5784
  479poe    c23 3579   1.645   2.701   3.425  0.1347 -0.1373 -0.8438
  479poe    c23 3580   1.495   2.665   3.426  0.0391  0.2593 -0.6130
  479poe     o2 3581   1.437   2.752   3.332 -0.3480  0.4470 -0.2051
  479poe    c23 3582   1.298   2.734   3.312 -0.2273 -0.0182 -0.6418
  479poe    c23 3583   1.265   2.843   3.208 -0.3095  0.1277 -0.4616
  479poe     o2 3584   1.343   2.954   3.248 -0.3192 -0.2056  0.5154
  479poe    c23 3585   1.274   3.043   3.333 -0.5627  0.0555  0.0466
  479poe    c23 3586   1.368   3.152   3.389  0.0307 -0.5659  0.2774
  479poe     o2 3587   1.499   3.100   3.392  0.3099  0.0657 -0.4794
  479poe    c31 3588   1.590   3.190   3.451  1.0219 -0.4664 -0.7508
  480poe    c31 3589   3.559   2.888   3.584  0.0522 -0.1585 -0.1687
  480poe     o2 3590   3.551   3.029   3.584 -0.1849 -0.1722  0.0702
  480poe    c23 3591   3.680   3.078   3.556 -0.0325 -0.3190  0.5002
  480poe    c23 3592   3.695   3.199   3.649  0.1974  0.0521 -0.0137
  480poe     o2 3593   3.572   3.265   3.670  0.2535  0.1291  0.0761
  480poe    c23 3594   3.576   3.353   3.780 -0.0399 -0.2834  0.4147
  480poe    c23 3595   3.431   3.402   3.793  0.1506  0.5242 -0.4695
  480poe     o2 3596   3.340   3.295   3.779 -0.1743  0.6764  0.4563
  480poe    c23 3597   3.211   3.352   3.783 -0.5388 -0.0105 -0.9321
  480poe    c23 3598   3.114   3.244   3.832 -0.2676  0.1026 -0.1288
  480poe     o2 3599   3.098   3.151   3.727  0.5522 -0.5085  0.2811
  480poe    c31 3600   3.023   3.036   3.760  0.4613 -0.4456  0.2912
  481poe    c31 3601   4.230   2.661   1.130 -0.3648 -0.0125  0.1494
  481poe     o2 3602   4.197   2.717   1.255 -0.5782  0.4486 -0.1108
  481poe    c23 3603   4.138   2.843   1.231  0.0877  0.7189 -0.3499
  481poe    c23 3604   4.061   2.886   1.357  0.5381 -0.3812  0.3083
  481poe     o2 3605   4.147   2.863   1.467  0.0767 -0.4918  0.6478
  481poe    c23 3606   4.085   2.920   1.580 -0.1072 -0.4526  0.5275
  481poe    c23 3607   4.131   2.861   1.715  0.4807 -0.3210  0.3869
  481poe     o2 3608   4.078   2.731   1.725 -0.0577 -0.1093  0.3125
  481poe    c23 3609   4.177   2.633   1.742  0.1980  0.0320 -0.3518
  481poe    c23 3610   4.164   2.522   1.635 -0.6584 -0.1222 -0.0885
  481poe     o2 3611   4.196   2.565   1.505 -0.3204  0.0693  0.0582
  481poe    c31 3612   4.208   2.454   1.419  0.4739  0.5674 -0.4837
  482poe    c31 3613   3.048   4.106   2.178  0.4662  0.4970  0.4757
  482poe     o2 3614   3.041   3.998   2.268 -0.5127 -0.1598 -0.3672
  482poe    c23 3615   2.943   4.022   2.367 -0.0287 -0.3951  0.1792
  482poe    c23 3616   2.969   3.912   2.471  0.3035 -0.4773  0.0131
  482poe     o2 3617   2.974   3.798   2.388  0.2045 -0.1606 -0.4335
  482poe    c23 3618   2.933   3.686   2.464  0.1674  0.1216 -0.0332
  482poe    c23 3619   2.870   3.578   2.373  0.4789 -0.5265  0.5144
  482poe     o2 3620   2.976   3.542   2.287  0.0595 -0.2339 -0.1321
  482poe    c23 3621   2.937   3.441   2.198 -0.3411 -0.1555 -0.0453
  482poe    c23 3622   3.049   3.403   2.100  0.0589  0.1632  0.2855
  482poe     o2 3623   3.082   3.521   2.030  0.2256  0.0614  0.1907
  482poe    c31 3624   3.200   3.505   1.954  0.7113  0.2708  0.8983
  483poe    c31 3625   4.680   2.442   1.131  0.2823  1.0627  0.0966
  483poe     o2 3626   4.718   2.390   1.005 -0.8195  0.0847  0.1430
  483poe    c23 3627   4.646   2.271   0.982 -0.1509 -0.1965 -0.5258
  483poe    c23 3628   4.744   2.162   0.936 -0.3676 -0.3221 -0.6896
  483poe     o2 3629   4.829   2.233   0.849  0.1766  0.3631  0.3962
  483poe    c23 3630   4.925   2.154   0.783 -0.1761  0.1031  0.1935
  483poe    c23 3631   4.997   2.257   0.694 -0.5432 -0.0942 -0.3381
  483poe     o2 3632   4.986   2.386   0.751  0.2601 -0.0020 -0.3742
  483poe    c23 3633   4.985   2.495   0.662 -0.4380  0.1466 -0.1952
  483poe    c23 3634   4.943   2.622   0.738 -0.6189  0.0139 -0.0734
  483poe     o2 3635   4.850   2.592   0.840  0.1106 -0.3905  0.4927
  483poe    c31 3636   4.836   2.710   0.916 -0.4083 -0.2365  0.1676
  484poe    c31 3637   3.646   4.246   1.823  0.2173 -0.5380  0.1232
  484poe     o2 3638   3.613   4.195   1.695  0.0147  0.1664 -0.1087
  484poe    c23 3639   3.495   4.118   1.696  0.0587  0.0959 -0.3908
  484poe    c23 3640   3.481   4.079   1.548  0.1428  0.1354 -0.4094
  484poe     o2 3641   3.601   4.017   1.506  0.4532  0.2075  0.3632
  484poe    c23 3642   3.591   4.002   1.366  0.3782  1.0059  0.2776
  484poe    c23 3643   3.732   3.998   1.303  0.3098  0.6294  0.1435
  484poe     o2 3644   3.825   3.918   1.371 -0.5379 -0.6795 -0.2134
  484poe    c23 3645   3.950   3.953   1.318 -0.7355  0.3110 -0.0340
  484poe    c23 3646   4.053   3.875   1.401  0.2825  1.1952 -0.4368
  484poe     o2 3647   4.021   3.905   1.535 -0.5007 -0.7449 -0.1621
  484poe    c31 3648   4.132   3.881   1.618 -0.2999 -0.6487 -0.4035
  485poe    c31 3649   6.477   1.472   4.889 -0.7513 -0.0439 -0.2178
  485poe     o2 3650   6.447   1.553   5.000 -0.3815  0.2939 -0.3573
  485poe    c23 3651   6.349   1.507   5.090  0.0103  0.1049 -0.0225
  485poe    c23 3652   6.295   1.640   5.146 -0.0674 -0.2053  0.6522
  485poe     o2 3653   6.409   1.723   5.152 -0.4761  0.4857 -0.8146
  485poe    c23 3654   6.415   1.784   5.279 -0.0063 -0.0293 -0.5845
  485poe    c23 3655   6.528   1.890   5.274 -0.2196  0.2007 -0.5415
  485poe     o2 3656   6.628   1.832   5.194 -0.2318  0.2749 -0.6106
  485poe    c23 3657   6.746   1.909   5.193  0.0077 -0.0864 -0.3867
  485poe    c23 3658   6.869   1.835   5.248  0.0280 -0.3778 -0.8203
  485poe     o2 3659   6.896   1.707   5.195  0.0623 -0.4851 -0.5493
  485poe    c31 3660   7.013   1.648   5.247  0.3727  0.1662 -0.4892
  486poe    c31 3661   1.844   2.369   2.565  0.0222 -0.2759  0.4380
  486poe     o2 3662   1.856   2.374   2.425  0.4966  0.0821  0.4885
  486poe    c23 3663   1.889   2.248   2.370 -0.4840  0.0492 -0.0397
  486poe    c23 3664   1.903   2.257   2.217  0.3745  0.3853  0.0533
  486poe     o2 3665   1.789   2.320   2.162  0.4089  0.3245 -0.0896
  486poe    c23 3666   1.763   2.306   2.024  0.0706 -0.3675  0.0389
  486poe    c23 3667   1.633   2.376   1.980 -0.2341 -0.6917  0.4134
  486poe     o2 3668   1.629   2.502   2.042 -0.1924 -0.4793 -0.0097
  486poe    c23 3669   1.528   2.586   1.992  0.1385 -0.1144 -0.0753
  486poe    c23 3670   1.542   2.729   2.048  0.0758 -0.2676  0.3400
  486poe     o2 3671   1.581   2.716   2.183  0.1093 -0.4393  0.3152
  486poe    c31 3672   1.559   2.841   2.245  0.4390 -0.2330  0.0157
  487poe    c31 3673   6.046   6.321   4.457  0.2683 -0.2427  0.4314
  487poe     o2 3674   6.105   6.416   4.371 -0.2696 -0.4543 -0.1831
  487poe    c23 3675   6.053   6.410   4.240  0.1695  0.1934 -0.3925
  487poe    c23 3676   6.098   6.534   4.160  0.1618  0.2799 -0.2640
  487poe     o2 3677   6.096   6.648   4.242  0.1772  0.1413 -0.0690
  487poe    c23 3678   6.045   6.763   4.178 -0.0709  0.1052  0.0617
  487poe    c23 3679   6.023   6.879   4.277 -0.1719  0.6871 -0.6301
  487poe     o2 3680   6.141   6.917   4.344 -0.0337  0.0850 -0.5271
  487poe    c23 3681   6.096   7.021   4.427  0.2010 -0.4241  0.2534
  487poe    c23 3682   6.197   7.064   4.536  0.0583  0.2806  0.1135
  487poe     o2 3683   6.303   7.127   4.467  0.3422  0.0111  0.3023
  487poe    c31 3684   6.366   7.218   4.554  0.0922  0.3366  0.1434
  488poe    c31 3685   6.472   0.131   2.307  0.3528  0.6445  0.6764
  488poe     o2 3686   6.582   0.091   2.385  0.4863 -0.5137 -0.0920
  488poe    c23 3687   6.642   0.194   2.460 -0.5334  0.1476 -0.1693
  488poe    c23 3688   6.789   0.167   2.497 -0.4835 -0.7142 -0.9699
  488poe     o2 3689   6.876   0.190   2.389 -0.2089  1.0019 -0.4119
  488poe    c23 3690   6.947   0.071   2.360 -0.4690  0.8700 -0.5082
  488poe    c23 3691   7.066   0.093   2.265 -0.0633  0.2297 -0.1507
  488poe     o2 3692   7.036   0.153   2.142 -0.1201 -0.5377 -0.5171
  488poe    c23 3693   7.152   0.186   2.067 -0.1598  0.2706 -0.2404
  488poe    c23 3694   7.097   0.229   1.930  0.4860  0.4785 -0.4341
  488poe     o2 3695   6.994   0.317   1.968  0.1140 -0.2916  0.3526
  488poe    c31 3696   6.961   0.415   1.872 -0.6872 -0.2589  0.6542
  489poe    c31 3697   4.366   3.874   1.953 -0.0679 -0.4433  0.3407
  489poe     o2 3698   4.238   3.835   1.999 -0.2128  0.0186  0.3332
  489poe    c23 3699   4.217   3.696   1.989  0.5399 -0.1133  0.5280
  489poe    c23 3700   4.127   3.642   2.102 -0.5567  0.1431 -0.2049
  489poe     o2 3701   4.037   3.745   2.135 -0.3891  0.3304 -0.3278
  489poe    c23 3702   3.935   3.713   2.227 -0.2876  0.1472 -0.2780
  489poe    c23 3703   3.845   3.838   2.234 -0.5430 -0.0428 -0.1333
  489poe     o2 3704   3.931   3.950   2.231 -0.1838 -0.3266 -0.4812
  489poe    c23 3705   3.855   4.029   2.142 -0.1393  0.3862  0.1138
  489poe    c23 3706   3.945   4.130   2.068  0.3144  0.2323  0.4503
  489poe     o2 3707   4.039   4.056   1.993 -0.1353  0.1870 -0.0713
  489poe    c31 3708   4.096   4.133   1.890 -0.2204 -0.4363 -0.5863
  490poe    c31 3709   0.833   0.015   4.802  0.3605 -0.2958  0.1725
  490poe     o2 3710   0.899  -0.073   4.891  0.1472 -0.5126  0.1179
  490poe    c23 3711   0.919  -0.199   4.833 -0.2500 -0.3983 -0.2711
  490poe    c23 3712   1.044  -0.258   4.900 -0.5957 -0.3739  0.3942
  490poe     o2 3713   1.035  -0.271   5.041  0.0051  0.0632  0.4751
  490poe    c23 3714   0.962  -0.388   5.069  0.2780 -0.2765 -0.1920
  490poe    c23 3715   0.972  -0.396   5.223 -0.1799 -0.3214 -0.1639
  490poe     o2 3716   0.910  -0.281   5.277 -0.3162 -0.5700  0.2088
  490poe    c23 3717   0.908  -0.303   5.416 -0.0588  0.1793  0.3337
  490poe    c23 3718   0.885  -0.166   5.483  0.4845  0.2104  0.4649
  490poe     o2 3719   0.964  -0.079   5.405 -0.6133  0.3890 -0.4748
  490poe    c31 3720   0.988   0.044   5.469  0.3814  0.2028 -0.4796
  491poe    c31 3721   6.581   1.391   0.802  0.4028  0.3453  0.0964
  491poe     o2 3722   6.640   1.358   0.678 -0.1757 -0.1506 -0.0538
  491poe    c23 3723   6.579   1.417   0.565 -0.5141 -0.8483 -0.2383
  491poe    c23 3724   6.654   1.399   0.432 -0.1936  0.1103 -0.1901
  491poe     o2 3725   6.696   1.265   0.441 -0.0765  0.1586 -0.0052
  491poe    c23 3726   6.809   1.235   0.362  0.2640 -0.4080  0.6823
  491poe    c23 3727   6.864   1.097   0.399  0.5187 -0.4969 -0.0107
  491poe     o2 3728   6.868   1.092   0.540  0.0968 -0.0260  0.0165
  491poe    c23 3729   6.915   0.964   0.575 -0.8250 -0.3361  0.1714
  491poe    c23 3730   6.930   0.972   0.728 -0.0915 -0.4353  0.1101
  491poe     o2 3731   6.804   0.969   0.791 -0.0672 -0.3583  0.1634
  491poe    c31 3732   6.816   0.975   0.931 -0.0305 -0.2169  0.1540
  492poe    c31 3733   3.471   4.542   5.570 -0.5879 -0.5522  0.6476
  492poe     o2 3734   3.483   4.660   5.647 -0.4833 -0.1219 -0.0261
  492poe    c23 3735   3.369   4.741   5.631 -0.0939  0.3804 -0.3028
  492poe    c23 3736   3.414   4.881   5.679 -0.2225  0.3320 -0.0392
  492poe     o2 3737   3.491   4.866   5.796 -0.3287  0.3465  0.0328
  492poe    c23 3738   3.574   4.975   5.830  0.4093 -0.1428 -0.1872
  492poe    c23 3739   3.646   4.940   5.962 -0.0571  0.5289  0.2492
  492poe     o2 3740   3.719   4.820   5.948 -0.0996  0.4561  0.6444
  492poe    c23 3741   3.840   4.806   6.019  0.0045 -0.0289  0.3694
  492poe    c23 3742   3.966   4.853   5.945 -0.3951 -0.0276 -0.3227
  492poe     o2 3743   4.008   4.761   5.847  0.0928 -0.3095  0.1449
  492poe    c31 3744   4.125   4.789   5.774 -0.2731 -0.2337 -0.4165
  493poe    c31 3745   1.443   4.447   0.565  0.0623 -0.2525  0.2497
  493poe     o2 3746   1.465   4.549   0.470 -0.2661 -0.2223  0.2057
  493poe    c23 3747   1.572   4.528   0.380 -0.1424 -0.3503  0.3824
  493poe    c23 3748   1.627   4.667   0.344 -0.1067 -0.4479  0.0632
  493poe     o2 3749   1.523   4.760   0.322  0.0136 -0.2210  0.4546
  493poe    c23 3750   1.573   4.891   0.307 -0.7746  0.0171 -0.1762
  493poe    c23 3751   1.445   4.976   0.310 -0.8182 -0.0502 -0.1144
  493poe     o2 3752   1.379   4.944   0.430  0.3254  0.4681  0.6677
  493poe    c23 3753   1.245   4.984   0.424  0.3121  0.3968  0.4788
  493poe    c23 3754   1.158   4.866   0.470  0.6943 -0.0633  0.0265
  493poe     o2 3755   1.213   4.737   0.452 -0.3040 -0.4936 -0.0533
  493poe    c31 3756   1.115   4.639   0.478 -0.0272 -0.4709  1.1182
  494poe    c31 3757   2.053   3.183   1.280  0.4297 -0.2680  0.4434
  494poe     o2 3758   1.995   3.117   1.390 -0.4657 -0.2476 -0.0034
  494poe    c23 3759   2.104   3.052   1.451 -0.4248 -0.2023 -0.0282
  494poe    c23 3760   2.054   2.986   1.581 -0.5360 -0.2817 -0.1112
  494poe     o2 3761   1.964   3.073   1.647 -0.1305 -0.1649  0.2973
  494poe    c23 3762   1.897   3.020   1.758 -0.3219  0.1825  0.3514
  494poe    c23 3763   1.780   3.113   1.795 -0.2535  0.2848  0.3110
  494poe     o2 3764   1.735   3.162   1.671  0.1539  0.5673  0.2750
  494poe    c23 3765   1.616   3.103   1.623  0.0528  0.4320  0.6921
  494poe    c23 3766   1.604   3.128   1.472  0.0682 -0.1230  0.5952
  494poe     o2 3767   1.733   3.160   1.424 -0.2116 -0.2756 -0.2686
  494poe    c31 3768   1.714   3.196   1.289  0.7431 -0.0375 -0.3423
  495poe    c31 3769   5.204   2.824   0.455  0.1772 -0.0509  0.0925
  495poe     o2 3770   5.336   2.863   0.423  0.3620 -0.6785  0.0706
  495poe    c23 3771   5.364   2.893   0.288  0.2845  0.2870  0.2553
  495poe    c23 3772   5.492   2.977   0.292  0.5650 -0.1219 -0.0057
  495poe     o2 3773   5.571   2.920   0.394  0.3528  0.2254  0.3548
  495poe    c23 3774   5.703   2.961   0.419  0.5989 -0.1638 -0.2931
  495poe    c23 3775   5.755   2.893   0.547 -0.0319  0.1414  0.1308
  495poe     o2 3776   5.645   2.903   0.634 -0.0092  0.0478  0.1691
  495poe    c23 3777   5.664   2.834   0.756 -0.4051 -0.4784 -0.0618
  495poe    c23 3778   5.532   2.849   0.834 -0.4097  0.0351 -0.1637
  495poe     o2 3779   5.425   2.820   0.746 -0.1948  0.4440 -0.5654
  495poe    c31 3780   5.303   2.824   0.817  0.1397 -0.1363  0.0567
  496poe    c31 3781   5.831   1.047   0.033  0.9133 -0.0733 -0.8646
  496poe     o2 3782   5.766   0.923   0.011  0.2216  0.0972  0.1001
  496poe    c23 3783   5.831   0.823   0.085 -0.0375  0.0430  0.2526
  496poe    c23 3784   5.780   0.678   0.072  0.4597 -0.1160  0.0491
  496poe     o2 3785   5.641   0.692   0.092  0.3359 -0.3088 -0.6463
  496poe    c23 3786   5.580   0.565   0.085  0.0884 -0.2106 -0.3148
  496poe    c23 3787   5.430   0.582   0.112  0.1056 -0.2324 -0.2053
  496poe     o2 3788   5.387   0.696   0.042  0.0904 -0.0431  0.1090
  496poe    c23 3789   5.250   0.682   0.012  0.2491 -0.2185 -0.5542
  496poe    c23 3790   5.220   0.744  -0.126  0.8903  0.0748 -0.5659
  496poe     o2 3791   5.201   0.884  -0.121 -0.5172 -0.1323  0.3330
  496poe    c31 3792   5.173   0.934  -0.250 -0.1386 -0.0864  0.2681
  497poe    c31 3793   1.643   6.625   1.597 -0.2333  0.2998  0.1014
  497poe     o2 3794   1.617   6.670   1.728 -0.1821  0.1412  0.1666
  497poe    c23 3795   1.499   6.748   1.725 -0.0734  0.2993 -0.0496
  497poe    c23 3796   1.448   6.776   1.867  0.1025  0.1259  0.0482
  497poe     o2 3797   1.563   6.824   1.933  0.5640 -0.8320 -0.0445
  497poe    c23 3798   1.528   6.822   2.070 -0.0743  0.1724 -0.1880
  497poe    c23 3799   1.656   6.798   2.152 -0.3269 -0.4386  0.0269
  497poe     o2 3800   1.711   6.696   2.070  0.2915  0.1209 -0.2632
  497poe    c23 3801   1.792   6.592   2.119  0.2984 -0.0568 -0.6505
  497poe    c23 3802   1.801   6.488   2.006  0.1869 -0.4887 -0.2618
  497poe     o2 3803   1.834   6.554   1.886  0.5504 -0.4319 -0.1313
  497poe    c31 3804   1.904   6.471   1.796  0.7534 -0.0572 -0.3163
  498poe    c31 3805   0.097   1.036   3.375 -0.4210 -0.9735  0.2319
  498poe     o2 3806   0.011   1.112   3.457  0.1378 -0.6789  0.5533
  498poe    c23 3807   0.079   1.152   3.574  0.3262  0.2502  0.1272
  498poe    c23 3808  -0.005   1.163   3.703 -0.4076 -0.2979 -0.2962
  498poe     o2 3809  -0.119   1.234   3.659 -0.3933  0.0559  0.2335
  498poe    c23 3810  -0.209   1.251   3.767 -0.1127 -0.7396  0.5977
  498poe    c23 3811  -0.333   1.324   3.714  0.3621 -0.5157 -0.2280
  498poe     o2 3812  -0.326   1.283   3.579  0.6402  0.4336 -0.5062
  498poe    c23 3813  -0.379   1.387   3.501 -0.4372  0.2397 -0.0413
  498poe    c23 3814  -0.314   1.397   3.362 -0.3028 -0.3697 -0.0248
  498poe     o2 3815  -0.197   1.319   3.368 -0.1980 -0.2542 -0.5098
  498poe    c31 3816  -0.095   1.346   3.274  0.1040 -0.3320 -0.2068
  499poe    c31 3817   3.081   1.879   6.191  0.1126 -0.7368 -0.0282
  499poe     o2 3818   3.018   1.925   6.073  0.1243 -0.2959  0.1359
  499poe    c23 3819   3.074   1.860   5.961  0.5992  0.2212  0.0673
  499poe    c23 3820   3.070   1.957   5.841  0.4440 -0.0623 -0.1590
  499poe     o2 3821   3.100   2.087   5.888  0.0129 -0.1377  0.3353
  499poe    c23 3822   3.087   2.189   5.792 -0.4669 -0.2983  0.2289
  499poe    c23 3823   3.007   2.299   5.865 -0.0353 -0.1236  0.4413
  499poe     o2 3824   2.912   2.234   5.946  0.0159 -0.1762  0.4595
  499poe    c23 3825   2.820   2.316   6.016  0.1416  0.1244  0.2735
  499poe    c23 3826   2.732   2.221   6.100  0.1434 -0.4984 -0.4103
  499poe     o2 3827   2.810   2.120   6.161 -0.1314 -0.2617  0.3458
  499poe    c31 3828   2.731   2.038   6.243  0.1469 -0.6093  0.2662
  500poe    c31 3829   5.565   0.012   6.681 -0.0426  0.0250 -0.1784
  500poe     o2 3830   5.612  -0.104   6.744  0.3178  0.0098 -0.4663
  500poe    c23 3831   5.659  -0.194   6.646 -0.2755 -0.9932  0.1425
  500poe    c23 3832   5.683  -0.335   6.704 -0.0575 -0.8919  0.3007
  500poe     o2 3833   5.765  -0.299   6.813  0.1545 -0.3280 -0.0399
  500poe    c23 3834   5.791  -0.396   6.913  0.3587 -0.0862  0.1434
  500poe    c23 3835   5.822  -0.325   7.046  0.2446  0.2531 -0.0090
  500poe     o2 3836   5.736  -0.213   7.048 -0.3693 -0.2202  0.7140
  500poe    c23 3837   5.806  -0.107   7.109 -0.2006 -0.1580  0.4135
  500poe    c23 3838   5.707   0.007   7.141 -0.3843 -0.1554 -0.1488
  500poe     o2 3839   5.625   0.033   7.030 -0.5811 -0.4133 -0.0652
  500poe    c31 3840   5.534   0.140   7.049 -0.1898 -0.0528 -0.2163
  501poe    c31 3841   6.414   4.511   4.714 -0.6895  0.0157  0.0838
  501poe     o2 3842   6.375   4.631   4.651  0.0605 -0.0469 -0.5200
  501poe    c23 3843   6.466   4.658   4.546  0.6857 -0.4742 -0.0902
  501poe    c23 3844   6.411   4.777   4.466  0.2459 -0.1493  0.6889
  501poe     o2 3845   6.372   4.886   4.547 -0.1878  0.1614  0.0622
  501poe    c23 3846   6.477   4.971   4.587 -0.2914  0.4492 -0.2607
  501poe    c23 3847   6.417   5.047   4.707 -0.8876  0.0776 -0.3220
  501poe     o2 3848   6.402   4.935   4.791  0.0211  0.0211 -0.2317
  501poe    c23 3849   6.350   4.968   4.918 -0.0457 -0.1785 -0.2075
  501poe    c23 3850   6.332   4.835   4.994 -0.1403  0.1135  0.2864
  501poe     o2 3851   6.273   4.751   4.897 -0.3652  0.0288  0.4973
  501poe    c31 3852   6.193   4.661   4.972 -0.1324  0.3791  1.1758
  502poe    c31 3853   4.295   4.396   0.965  0.5687 -0.1356  0.4069
  502poe     o2 3854   4.295   4.309   0.854  0.3546 -0.0807  0.3634
  502poe    c23 3855   4.422   4.293   0.793  0.0920  0.1347 -0.2496
  502poe    c23 3856   4.406   4.176   0.695  0.1039  0.1142 -0.2277
  502poe     o2 3857   4.278   4.197   0.637 -0.0775 -0.0444  0.1156
  502poe    c23 3858   4.223   4.079   0.582  0.1587  0.3914 -1.0651
  502poe    c23 3859   4.070   4.094   0.583  0.1393  0.1856 -0.3496
  502poe     o2 3860   4.041   4.147   0.710  0.0534 -0.1853 -0.2136
  502poe    c23 3861   3.903   4.178   0.719  0.0515 -0.3305  0.2658
  502poe    c23 3862   3.903   4.287   0.829 -0.0923 -0.0480 -0.0140
  502poe     o2 3863   3.997   4.388   0.802  0.3968 -0.5533 -0.2228
  502poe    c31 3864   3.929   4.510   0.823  0.6421 -0.4488 -0.0100
  503poe    c31 3865   3.709   6.682   1.839 -0.3367  0.0126  0.1204
  503poe     o2 3866   3.629   6.706   1.953  0.1908  0.1859  0.4595
  503poe    c23 3867   3.687   6.794   2.046 -0.1057  1.0696 -0.1844
  503poe    c23 3868   3.577   6.877   2.116 -0.3720  0.4195  0.1715
  503poe     o2 3869   3.470   6.789   2.143 -0.3525  0.3641  0.0710
  503poe    c23 3870   3.356   6.846   2.204 -0.2285  0.0715  0.5823
  503poe    c23 3871   3.243   6.743   2.186 -0.3584  0.3301 -0.1204
  503poe     o2 3872   3.258   6.711   2.049  0.6309 -0.2524  0.1076
  503poe    c23 3873   3.196   6.592   2.006  0.1603 -0.0731  0.2799
  503poe    c23 3874   3.289   6.470   2.012 -0.0181 -0.1975  0.5169
  503poe     o2 3875   3.415   6.515   1.966 -0.1310 -0.4870 -0.0850
  503poe    c31 3876   3.501   6.413   1.921  0.4604 -0.1020  0.1612
  504poe    c31 3877   2.797   1.412   6.512 -0.0423 -0.2939 -0.1307
  504poe     o2 3878   2.913   1.485   6.546  0.0119 -0.5886  0.3393
  504poe    c23 3879   2.907   1.620   6.504  0.3501 -0.5773  0.3234
  504poe    c23 3880   3.046   1.684   6.516  0.1693 -0.1287  0.0425
  504poe     o2 3881   3.107   1.696   6.643 -0.7346 -0.0617  0.4807
  504poe    c23 3882   3.100   1.823   6.702 -0.5665 -0.0027  0.3751
  504poe    c23 3883   3.199   1.812   6.819 -0.3425 -0.2882  0.1603
  504poe     o2 3884   3.197   1.687   6.884  0.4718 -0.4941 -0.1968
  504poe    c23 3885   3.299   1.680   6.981  0.1675  0.3128  0.1913
  504poe    c23 3886   3.294   1.546   7.056 -0.3873  0.0112 -0.3776
  504poe     o2 3887   3.288   1.446   6.956  0.2397 -0.2743 -0.1370
  504poe    c31 3888   3.301   1.313   7.000 -0.6579 -0.1096  0.6780
  505poe    c31 3889   3.380   1.218   4.874 -0.2848  0.4330 -0.4415
  505poe     o2 3890   3.264   1.205   4.955  0.0534  0.0684 -0.0097
  505poe    c23 3891   3.217   1.320   5.021  0.3505  0.2099 -0.0400
  505poe    c23 3892   3.108   1.277   5.121  0.2761 -0.3518 -0.3606
  505poe     o2 3893   2.986   1.232   5.066  0.0594 -0.0900 -0.0966
  505poe    c23 3894   2.916   1.319   4.979  0.3462  0.2290 -0.0071
  505poe    c23 3895   2.789   1.251   4.926  0.5492 -0.0128 -0.1854
  505poe     o2 3896   2.815   1.116   4.894  0.1984 -0.2189  0.3901
  505poe    c23 3897   2.712   1.056   4.820  0.1230  0.1735  0.1728
  505poe    c23 3898   2.701   0.907   4.858 -0.4414  0.1398 -0.1158
  505poe     o2 3899   2.832   0.862   4.881 -0.4723  0.0991 -0.0221
  505poe    c31 3900   2.842   0.723   4.905 -0.3649  0.1849  0.4621
  506poe    c31 3901   2.236   4.199   2.170 -0.7009 -0.4752  0.0737
  506poe     o2 3902   2.245   4.240   2.304  0.5161  0.2468 -0.2016
  506poe    c23 3903   2.357   4.323   2.325  0.1433  0.7665 -0.2399
  506poe    c23 3904   2.433   4.275   2.450 -0.0284  0.0609 -0.4017
  506poe     o2 3905   2.343   4.248   2.555  0.5041  0.0670  0.0593
  506poe    c23 3906   2.386   4.134   2.626  0.1981 -0.0964 -0.0152
  506poe    c23 3907   2.255   4.088   2.692  0.0712 -0.3998 -0.4734
  506poe     o2 3908   2.158   4.096   2.589 -0.2863  0.1579 -0.1000
  506poe    c23 3909   2.028   4.081   2.641 -0.2815  0.6116  0.0478
  506poe    c23 3910   1.947   4.044   2.516 -0.0637  0.0586  0.0653
  506poe     o2 3911   1.980   4.142   2.420  0.5880 -0.5935 -0.3848
  506poe    c31 3912   1.881   4.155   2.320  0.4049 -1.1102 -0.2730
  507poe    c31 3913   1.418   3.578   4.481  1.0216  0.3523  0.4380
  507poe     o2 3914   1.310   3.652   4.532  0.0699 -0.3560 -0.5165
  507poe    c23 3915   1.266   3.742   4.433  0.2923 -0.1584 -0.4357
  507poe    c23 3916   1.184   3.856   4.495 -0.5345 -0.6426 -0.6232
  507poe     o2 3917   1.093   3.809   4.592 -0.3340  0.2863  0.0241
  507poe    c23 3918   1.035   3.917   4.663  0.1980  0.5700  0.0331
  507poe    c23 3919   0.944   3.837   4.758  0.2648  0.4098 -0.0373
  507poe     o2 3920   1.002   3.725   4.822  0.2902  0.1752 -0.4704
  507poe    c23 3921   1.075   3.753   4.939 -0.4269 -0.6040  0.1858
  507poe    c23 3922   1.183   3.648   4.970  0.1710 -0.1085 -0.1887
  507poe     o2 3923   1.261   3.654   4.853  0.7310  0.2429  0.1981
  507poe    c31 3924   1.389   3.595   4.862  0.4868 -0.2801  0.2667
  508poe    c31 3925   3.874   2.528   5.202 -0.1710  0.2549  0.6091
  508poe     o2 3926   4.003   2.501   5.254  0.2493  0.0196 -0.5189
  508poe    c23 3927   3.989   2.427   5.373  0.2268  0.5545 -0.1843
  508poe    c23 3928   4.043   2.283   5.356 -0.1809  0.2455  0.9992
  508poe     o2 3929   4.166   2.302   5.290 -0.4404 -0.3889  0.3221
  508poe    c23 3930   4.206   2.200   5.201  0.1794  0.2976 -0.1947
  508poe    c23 3931   4.144   2.199   5.060  0.0987 -0.1155 -0.1586
  508poe     o2 3932   4.126   2.336   5.030  0.4427  0.1083  0.6555
  508poe    c23 3933   4.150   2.372   4.896  0.2039  0.3415  0.6744
  508poe    c23 3934   4.081   2.509   4.878  0.1116  0.1962 -0.1212
  508poe     o2 3935   4.109   2.588   4.991  0.1773 -0.1118  0.0815
  508poe    c31 3936   4.047   2.714   4.973 -0.1867 -0.3071 -0.0377
  509poe    c31 3937   4.946   1.036   0.067  0.6242  0.1325  0.2417
  509poe     o2 3938   4.958   1.177   0.067 -0.4349  0.2373  0.0696
  509poe    c23 3939   4.917   1.230  -0.057 -0.2445  0.0274 -0.0847
  509poe    c23 3940   4.971   1.374  -0.054 -0.4488  0.1189 -0.7094
  509poe     o2 3941   4.929   1.438   0.065  0.5657 -0.8962  0.2150
  509poe    c23 3942   4.997   1.556   0.100 -0.3885 -0.3174  0.1465
  509poe    c23 3943   5.017   1.574   0.251  0.1574 -0.1262  0.0534
  509poe     o2 3944   5.068   1.449   0.293  0.7955  0.1406  0.0890
  509poe    c23 3945   5.073   1.444   0.433 -0.3908 -0.5244  0.1263
  509poe    c23 3946   5.083   1.293   0.459  0.0327 -0.4156  0.6401
  509poe     o2 3947   4.986   1.224   0.383  0.2557  0.0162 -0.0496
  509poe    c31 3948   4.953   1.104   0.450  0.5968 -0.3347 -0.4993
  510poe    c31 3949   2.115   6.013   0.652  0.0977  0.3005 -0.2010
  510poe     o2 3950   2.126   6.071   0.524 -0.6214 -0.3774 -0.5805
  510poe    c23 3951   2.179   6.198   0.554 -0.0169 -0.7133 -0.2197
  510poe    c23 3952   2.209   6.275   0.424  0.1842 -0.0343  0.2181
  510poe     o2 3953   2.255   6.168   0.343 -0.6278  0.1265 -0.4714
  510poe    c23 3954   2.291   6.214   0.215  0.5669  0.4653 -0.0248
  510poe    c23 3955   2.309   6.086   0.131  0.1943  0.3341  0.0914
  510poe     o2 3956   2.199   6.008   0.170  0.2553  0.2615  0.1180
  510poe    c23 3957   2.223   5.870   0.152  0.2744  0.2963 -0.1188
  510poe    c23 3958   2.127   5.784   0.235 -0.0655  0.5340 -0.2607
  510poe     o2 3959   2.116   5.833   0.367  0.9023 -0.6503  0.2800
  510poe    c31 3960   2.053   5.743   0.456 -0.4616  0.6735  0.6848
  511poe    c31 3961   0.397   3.096   4.800  0.0152 -0.2945  0.2178
  511poe     o2 3962   0.434   2.973   4.859  0.3603 -0.0146  0.5871
  511poe    c23 3963   0.515   3.017   4.965  0.5325  0.4976  0.2460
  511poe    c23 3964   0.553   2.900   5.058 -0.0166  0.0604 -0.0775
  511poe     o2 3965   0.442   2.815   5.038  0.2139 -0.2133 -0.1889
  511poe    c23 3966   0.421   2.712   5.132 -0.1194  0.2719  0.2689
  511poe    c23 3967   0.284   2.651   5.095  0.1818 -0.1392 -0.1712
  511poe     o2 3968   0.278   2.663   4.955 -0.1177  0.1188 -0.1377
  511poe    c23 3969   0.148   2.694   4.912 -0.2549 -0.0849  0.1237
  511poe    c23 3970   0.159   2.716   4.759 -0.6225 -0.0440  0.1034
  511poe     o2 3971   0.268   2.803   4.738 -0.4163 -0.3505 -0.0943
  511poe    c31 3972   0.246   2.838   4.603  0.1217  0.2356 -0.0353
  512poe    c31 3973   4.115   3.964   5.893 -0.4283  0.1856  0.9054
  512poe     o2 3974   4.195   3.906   5.792 -0.8763  0.9836  0.0767
  512poe    c23 3975   4.167   3.941   5.658 -0.7591  0.8590  0.0199
  512poe    c23 3976   4.243   4.067   5.612 -0.2250  0.4783 -0.1557
  512poe     o2 3977   4.382   4.053   5.628 -0.2794 -0.1899 -0.2295
  512poe    c23 3978   4.450   4.137   5.537 -0.3152  0.6510  0.4970
  512poe    c23 3979   4.593   4.165   5.587  0.0837 -0.4541  0.0197
  512poe     o2 3980   4.643   4.035   5.609  0.3603 -0.3531 -0.0126
  512poe    c23 3981   4.777   4.038   5.652  0.3377 -0.0629  0.0400
  512poe    c23 3982   4.816   3.890   5.668 -0.7212 -0.3301  0.2345
  512poe     o2 3983   4.699   3.836   5.725 -1.3551  0.2363 -0.5133
  512poe    c31 3984   4.722   3.733   5.818 -0.4587  0.3558 -0.5935
  513poe    c31 3985   1.405   0.946   6.607  0.2212 -0.3623 -0.0910
  513poe     o2 3986   1.417   1.019   6.727  0.0568  0.0617 -0.3311
  513poe    c23 3987   1.453   1.154   6.712  0.3693 -0.0057 -0.1910
  513poe    c23 3988   1.452   1.227   6.847  0.0658  0.0258 -0.2110
  513poe     o2 3989   1.514   1.132   6.932 -0.0149 -0.0436 -0.2285
  513poe    c23 3990   1.527   1.188   7.061 -0.1866  0.2639 -0.3421
  513poe    c23 3991   1.587   1.079   7.152 -0.8370 -0.0235 -0.2543
  513poe     o2 3992   1.496   0.971   7.160 -0.6469 -0.1144  0.8386
  513poe    c23 3993   1.551   0.849   7.203 -0.1102 -0.3924 -0.5604
  513poe    c23 3994   1.438   0.755   7.251 -0.1200 -0.0339  0.1318
  513poe     o2 3995   1.343   0.698   7.164 -0.2413 -0.1070  0.3133
  513poe    c31 3996   1.251   0.622   7.239 -0.0291 -0.1854  0.4963
  514poe    c31 3997   6.404   2.716   6.569  0.1297  0.3160  0.3958
  514poe     o2 3998   6.440   2.818   6.659  0.0386  0.1918  0.5759
  514poe    c23 3999   6.320   2.864   6.718 -0.0562  0.2947  0.3050
  514poe    c23 4000   6.349   2.973   6.823  0.1353  0.2858  0.2612
  514poe     o2 4001   6.466   2.939   6.895  0.1119  0.3184  0.3149
  514poe    c23 4002   6.525   3.050   6.957  0.2319  0.2676  0.2908
  514poe    c23 4003   6.665   3.013   7.011  0.1388 -0.0827  0.2903
  514poe     o2 4004   6.737   2.965   6.899  0.2517 -0.2167  0.4207
  514poe    c23 4005   6.874   2.987   6.921  0.4206 -0.3064 -0.5412
  514poe    c23 4006   6.952   2.882   7.002  0.4617  0.1844  0.0639
  514poe     o2 4007   6.882   2.830   7.112  0.4158  0.2892  0.0843
  514poe    c31 4008   6.942   2.716   7.171  0.0601  0.1818  0.2452
  515poe    c31 4009   5.054   1.615   6.411 -0.4559  0.4105 -0.2648
  515poe     o2 4010   5.162   1.699   6.377 -0.0204 -0.0202  0.0196
  515poe    c23 4011   5.213   1.762   6.492  0.7354 -0.5511 -0.0168
  515poe    c23 4012   5.365   1.778   6.474  0.6640  0.6775  0.3429
  515poe     o2 4013   5.401   1.795   6.339 -0.5799  0.0341 -0.0867
  515poe    c23 4014   5.482   1.910   6.325 -0.3485 -0.0711  0.3796
  515poe    c23 4015   5.460   1.959   6.181  0.2344 -0.9980 -0.0352
  515poe     o2 4016   5.320   1.951   6.166  0.2158 -0.3997 -0.2002
  515poe    c23 4017   5.264   1.982   6.040  0.1755 -0.5878 -0.2272
  515poe    c23 4018   5.133   1.901   6.043 -0.2741  0.1479  0.1302
  515poe     o2 4019   5.147   1.774   6.103 -0.0985  0.2328  0.2716
  515poe    c31 4020   5.018   1.715   6.103  0.3569 -0.7862  0.1150
  516poe    c31 4021   6.078   3.727   3.033 -0.2574  0.3460 -0.1881
  516poe     o2 4022   6.089   3.616   3.120  0.1387  0.0721 -0.5874
  516poe    c23 4023   6.218   3.615   3.177 -0.3859  0.2370  0.6272
  516poe    c23 4024   6.217   3.505   3.284 -0.0182 -0.2944  0.0885
  516poe     o2 4025   6.163   3.540   3.410 -0.0904  0.1356 -0.0622
  516poe    c23 4026   6.024   3.524   3.423 -0.0993  0.2451 -0.0199
  516poe    c23 4027   5.991   3.590   3.558  0.1397  0.5979 -0.1318
  516poe     o2 4028   6.076   3.528   3.651 -0.5478  0.6429  0.5399
  516poe    c23 4029   6.049   3.566   3.784 -0.9195  0.0531  0.6380
  516poe    c23 4030   6.149   3.511   3.888 -0.1775 -0.0181 -0.1038
  516poe     o2 4031   6.275   3.526   3.826 -0.0855 -0.5200 -0.0450
  516poe    c31 4032   6.378   3.496   3.918 -0.1639 -0.7754 -0.0394
  517poe    c31 4033   4.416   3.915   5.168 -0.6488  0.3536 -0.5306
  517poe     o2 4034   4.306   3.992   5.128 -0.9254 -0.0625 -0.5810
  517poe    c23 4035   4.269   4.073   5.238  0.1033 -0.0533 -0.2361
  517poe    c23 4036   4.131   4.138   5.219  0.2751  0.2065 -0.6299
  517poe     o2 4037   4.030   4.042   5.196  0.0528  0.1351  0.5814
  517poe    c23 4038   3.908   4.108   5.171 -0.0468 -0.2561  0.0266
  517poe    c23 4039   3.834   4.013   5.075 -0.0055 -0.1157 -0.1448
  517poe     o2 4040   3.824   3.881   5.124 -0.2641 -0.2872 -0.6505
  517poe    c23 4041   3.752   3.789   5.046  0.0386 -0.5493 -0.6270
  517poe    c23 4042   3.767   3.659   5.127  0.1388 -0.3419 -0.3125
  517poe     o2 4043   3.902   3.656   5.165  0.1546 -0.1136 -0.3455
  517poe    c31 4044   3.923   3.539   5.241 -0.5580 -0.1740 -0.2363
  518poe    c31 4045   0.561   5.692   3.286  0.0708 -0.1734  0.1218
  518poe     o2 4046   0.611   5.594   3.197  0.5342  0.1499  0.0259
  518poe    c23 4047   0.495   5.567   3.123  0.5667  0.2408 -0.0592
  518poe    c23 4048   0.536   5.468   3.012  0.4964 -0.1350  0.2437
  518poe     o2 4049   0.627   5.385   3.081  0.6010  0.3704  0.7205
  518poe    c23 4050   0.666   5.280   2.996  0.5018  0.6763  0.2920
  518poe    c23 4051   0.747   5.192   3.093  0.3385 -0.0279 -0.2043
  518poe     o2 4052   0.820   5.283   3.172  0.0248  0.4404 -0.4496
  518poe    c23 4053   0.953   5.296   3.129  0.3853 -0.6088  0.3032
  518poe    c23 4054   1.003   5.425   3.196  0.1170 -0.1066 -0.4543
  518poe     o2 4055   0.900   5.522   3.188  0.2507  0.0413 -0.3786
  518poe    c31 4056   0.944   5.655   3.209  0.3403 -0.1393  0.6178
  519poe    c31 4057   4.300   5.892   0.786 -0.7828  0.3726  0.1583
  519poe     o2 4058   4.213   5.781   0.789 -0.0599 -0.1912  0.4763
  519poe    c23 4059   4.196   5.722   0.662  0.2500  0.0078  0.3426
  519poe    c23 4060   4.044   5.699   0.659  0.3030 -0.2932 -0.0961
  519poe     o2 4061   4.007   5.637   0.780 -0.0760  0.7127  0.3088
  519poe    c23 4062   3.873   5.592   0.769 -0.1329  0.9299  0.0982
  519poe    c23 4063   3.861   5.508   0.898  0.1896  0.2175 -0.3274
  519poe     o2 4064   3.891   5.591   1.007  0.1505 -0.0100 -0.1431
  519poe    c23 4065   3.943   5.523   1.119 -0.5969  0.3691  0.4453
  519poe    c23 4066   4.066   5.602   1.169  0.4831 -1.1207  0.1945
  519poe     o2 4067   4.140   5.627   1.051 -0.1314  0.1509  0.0611
  519poe    c31 4068   4.274   5.592   1.078 -0.1577 -0.3289 -0.4243
  520poe    c31 4069   0.388   5.961   3.738  0.1060 -0.2828  0.1048
  520poe     o2 4070   0.356   6.016   3.864  0.1356  0.1328 -0.0675
  520poe    c23 4071   0.228   5.966   3.895  0.3316 -0.2921  0.0585
  520poe    c23 4072   0.143   6.070   3.970  0.2529 -0.1495 -0.2267
  520poe     o2 4073   0.216   6.145   4.065 -0.1537 -0.2372  0.1556
  520poe    c23 4074   0.166   6.274   4.091  0.1060 -0.1921  0.4493
  520poe    c23 4075   0.283   6.341   4.164 -0.1507 -0.1018  0.7772
  520poe     o2 4076   0.399   6.334   4.085 -0.6610  0.8280 -0.0857
  520poe    c23 4077   0.498   6.393   4.167 -0.5279  0.4630  0.0209
  520poe    c23 4078   0.599   6.486   4.097  0.1249 -0.2443  0.0222
  520poe     o2 4079   0.654   6.408   3.992 -0.2776 -0.3959 -0.0786
  520poe    c31 4080   0.791   6.432   3.972 -0.4598  0.4037 -0.4058
  521poe    c31 4081   6.416   2.325   4.082 -0.0809  0.2023 -0.2348
  521poe     o2 4082   6.372   2.436   4.157  0.0494 -0.2417  0.5018
  521poe    c23 4083   6.250   2.412   4.224 -0.2717  0.1887  0.0753
  521poe    c23 4084   6.252   2.493   4.355  0.4632 -0.2799  0.3573
  521poe     o2 4085   6.260   2.634   4.351  0.0594 -0.2574  0.3516
  521poe    c23 4086   6.260   2.691   4.480 -0.1860 -0.1657  0.3106
  521poe    c23 4087   6.279   2.844   4.465  0.0555 -0.2744 -0.5492
  521poe     o2 4088   6.392   2.847   4.381 -0.0460  0.0053 -0.6738
  521poe    c23 4089   6.476   2.958   4.402 -0.1632 -0.1602  0.7762
  521poe    c23 4090   6.431   3.082   4.323 -0.1973 -0.3423  0.5085
  521poe     o2 4091   6.461   3.061   4.187 -0.4608 -0.0588  0.4048
  521poe    c31 4092   6.385   3.152   4.110 -0.1485  0.1968  0.3929
  522poe    c31 4093   3.873   3.571   1.174  0.3488 -0.3655  0.1319
  522poe     o2 4094   3.891   3.481   1.281 -0.4742 -0.3996  0.2520
  522poe    c23 4095   4.029   3.454   1.300 -0.2149  0.7054 -0.0020
  522poe    c23 4096   4.039   3.375   1.431  0.0467  0.2465 -0.2989
  522poe     o2 4097   3.923   3.295   1.438  0.1434  0.1398  0.1535
  522poe    c23 4098   3.900   3.238   1.564 -0.3936  0.2893  0.1254
  522poe    c23 4099   3.779   3.148   1.531 -0.0172 -0.3990  0.6091
  522poe     o2 4100   3.699   3.207   1.432  0.5355 -0.4102  0.1457
  522poe    c23 4101   3.618   3.122   1.354 -0.2393 -0.1106  0.6117
  522poe    c23 4102   3.541   3.230   1.276  0.2385 -0.1423  0.0916
  522poe     o2 4103   3.637   3.322   1.230  0.2326 -0.3591 -0.3646
  522poe    c31 4104   3.605   3.385   1.108 -0.2756  0.3411  0.1203
  523poe    c31 4105   0.652   0.597   3.787  0.2088  0.5194  0.0747
  523poe     o2 4106   0.576   0.519   3.697  0.6600  0.2199 -0.0476
  523poe    c23 4107   0.598   0.557   3.563 -0.1876  0.2932 -0.1741
  523poe    c23 4108   0.568   0.437   3.472  0.2514 -0.0656  0.1440
  523poe     o2 4109   0.440   0.387   3.503  0.2736  0.1477  0.5775
  523poe    c23 4110   0.436   0.260   3.442  0.1897  0.1628  0.5514
  523poe    c23 4111   0.311   0.197   3.507  0.4935 -0.7287  0.2932
  523poe     o2 4112   0.325   0.197   3.647  0.3160  0.0910  0.3164
  523poe    c23 4113   0.248   0.087   3.691 -0.5699  0.3271 -0.5856
  523poe    c23 4114   0.222   0.093   3.843  0.2870  0.1128 -0.4254
  523poe     o2 4115   0.332   0.105   3.931 -0.1586  0.4953  0.0861
  523poe    c31 4116   0.280   0.089   4.061 -0.5062 -0.1432 -0.1263
  524poe    c31 4117   3.415   6.376   6.533 -0.6343 -0.3623  0.4242
  524poe     o2 4118   3.283   6.329   6.513 -0.5316 -0.2741 -0.5199
  524poe    c23 4119   3.200   6.379   6.615  0.1286 -0.2178  0.0000
  524poe    c23 4120   3.053   6.352   6.577  0.0841 -0.5243  0.3775
  524poe     o2 4121   3.048   6.212   6.564  0.8749 -0.5164 -0.1157
  524poe    c23 4122   2.933   6.172   6.493  0.4672 -0.2375  0.3835
  524poe    c23 4123   2.982   6.144   6.350 -0.0264  0.5982  0.0379
  524poe     o2 4124   3.103   6.072   6.352 -0.2981  0.1335  0.1422
  524poe    c23 4125   3.159   6.049   6.225 -0.2478 -0.6704  0.3053
  524poe    c23 4126   3.300   5.996   6.257  0.3221  0.4936 -0.2232
  524poe     o2 4127   3.341   6.086   6.358 -0.3057  0.5944 -0.0516
  524poe    c31 4128   3.471   6.063   6.408 -0.2935 -0.1644 -0.4118
  525poe    c31 4129   3.014   4.874   4.346 -0.5007  0.7779 -0.6844
  525poe     o2 4130   3.103   4.983   4.350  0.2219  0.1758  0.2651
  525poe    c23 4131   3.040   5.106   4.379 -0.1937  0.0672 -0.1575
  525poe    c23 4132   3.134   5.219   4.426  0.0054 -0.1339 -0.0665
  525poe     o2 4133   3.177   5.299   4.319 -0.3609  0.2136  0.0432
  525poe    c23 4134   3.262   5.407   4.352 -0.0899  0.0530 -0.1223
  525poe    c23 4135   3.409   5.369   4.325  0.1095  0.6456  0.1130
  525poe     o2 4136   3.435   5.322   4.195 -0.2006  0.1351  0.2297
  525poe    c23 4137   3.570   5.332   4.155 -0.2254 -0.3475  0.0245
  525poe    c23 4138   3.598   5.211   4.063  0.3755  0.5768 -1.0317
  525poe     o2 4139   3.493   5.207   3.970  0.1472  0.4607 -0.7709
  525poe    c31 4140   3.484   5.078   3.914 -0.2193  0.4958 -0.7948
  526poe    c31 4141   4.796   3.153   2.197 -0.0430 -0.5541 -0.5336
  526poe     o2 4142   4.934   3.130   2.211 -0.0439 -0.0687  0.3788
  526poe    c23 4143   4.965   3.032   2.308 -0.0678 -0.2892  0.1644
  526poe    c23 4144   5.116   3.048   2.333 -0.1175  0.2217  0.1450
  526poe     o2 4145   5.175   3.090   2.212 -0.0921  0.0050  0.0824
  526poe    c23 4146   5.315   3.103   2.211 -0.1156  0.2522 -0.4400
  526poe    c23 4147   5.358   3.163   2.076  0.2319  0.3792 -0.2727
  526poe     o2 4148   5.251   3.253   2.059  0.0248  0.1424 -0.2231
  526poe    c23 4149   5.248   3.278   1.920  0.3889 -0.1727 -0.2895
  526poe    c23 4150   5.120   3.360   1.895  0.0891 -0.4608  0.2689
  526poe     o2 4151   5.022   3.290   1.968 -0.7944  0.6617  0.1940
  526poe    c31 4152   4.903   3.305   1.894 -0.3924  0.3160 -0.5344
  527poe    c31 4153   0.809   5.030   4.870  0.2552 -0.4349  0.5361
  527poe     o2 4154   0.821   5.013   4.730  0.1741 -0.0106  0.4774
  527poe    c23 4155   0.896   5.119   4.674  0.1503 -0.1479  0.1845
  527poe    c23 4156   0.884   5.124   4.521 -0.0475 -0.3515  0.1926
  527poe     o2 4157   0.918   5.001   4.461 -0.0669 -0.4614  0.4055
  527poe    c23 4158   1.035   5.016   4.383 -0.3352 -0.5907 -0.0289
  527poe    c23 4159   1.062   4.871   4.339  0.4110 -0.5752  0.3550
  527poe     o2 4160   0.946   4.818   4.280  0.2290 -0.0084  0.1928
  527poe    c23 4161   0.966   4.683   4.245  0.1019 -0.0071  0.1134
  527poe    c23 4162   0.842   4.592   4.241  0.3511 -0.3636  0.4024
  527poe     o2 4163   0.771   4.625   4.358 -0.2481  0.3777 -0.1580
  527poe    c31 4164   0.661   4.539   4.381  0.0274 -0.0078 -0.2742
  528poe    c31 4165   4.809   3.961   1.206 -0.5567 -0.4244 -0.0329
  528poe     o2 4166   4.693   4.036   1.235 -0.2262  0.0573  0.0596
  528poe    c23 4167   4.575   3.981   1.181 -0.0295  0.1109 -0.4254
  528poe    c23 4168   4.452   3.998   1.272  0.5711 -0.3171  0.4803
  528poe     o2 4169   4.470   4.115   1.350 -0.0900 -0.0153  0.1911
  528poe    c23 4170   4.366   4.122   1.445 -0.2213 -0.3716  0.0765
  528poe    c23 4171   4.370   4.243   1.540  0.3485 -0.1357 -0.2387
  528poe     o2 4172   4.474   4.213   1.631 -0.0008  0.1127  0.2423
  528poe    c23 4173   4.469   4.296   1.746 -0.1385 -0.4232  0.6280
  528poe    c23 4174   4.583   4.257   1.841  0.1898  0.0620  0.4374
  528poe     o2 4175   4.550   4.138   1.909  0.4771  0.0487  0.5557
  528poe    c31 4176   4.663   4.094   1.982  0.3191 -0.2985  0.5928
  529poe    c31 4177   3.276   1.662   4.847 -0.0059  0.0050  0.1219
  529poe     o2 4178   3.148   1.718   4.832  0.1114  0.3125  0.2724
  529poe    c23 4179   3.100   1.769   4.955 -0.0476  0.3080  0.2108
  529poe    c23 4180   2.949   1.797   4.939  0.0672  1.0600  0.4317
  529poe     o2 4181   2.917   1.864   4.819  0.4076  0.8078  0.1990
  529poe    c23 4182   2.781   1.854   4.784  0.4040  0.4988  0.2968
  529poe    c23 4183   2.772   1.938   4.656  0.6970  0.4351  0.2345
  529poe     o2 4184   2.872   1.887   4.570  0.0147 -0.4492 -0.0525
  529poe    c23 4185   2.881   1.952   4.445 -0.2527  0.0026  0.1600
  529poe    c23 4186   2.971   1.875   4.346 -0.2886  0.0323  0.1046
  529poe     o2 4187   3.094   1.850   4.409 -0.2023  0.0845 -0.0435
  529poe    c31 4188   3.185   1.791   4.319  0.1638 -0.2533  0.5387
  530poe    c31 4189   2.456   1.688   1.336 -0.2743  0.4137  0.0164
  530poe     o2 4190   2.342   1.644   1.408 -0.1714 -0.0213 -0.0843
  530poe    c23 4191   2.336   1.719   1.527 -0.6336  0.1453 -0.2092
  530poe    c23 4192   2.226   1.656   1.614 -0.1924  0.0544  0.2891
  530poe     o2 4193   2.120   1.631   1.524 -0.2244 -0.2049  0.3978
  530poe    c23 4194   2.024   1.532   1.553 -0.8182  0.1389 -0.3650
  530poe    c23 4195   2.059   1.405   1.473 -0.5282 -0.1870  0.2693
  530poe     o2 4196   2.083   1.440   1.338  0.6494 -0.7210  0.3320
  530poe    c23 4197   2.124   1.332   1.258 -0.7594 -0.7258 -0.4004
  530poe    c23 4198   2.148   1.379   1.113 -0.4948 -0.6236 -0.3228
  530poe     o2 4199   2.238   1.485   1.135 -0.2802 -0.8355 -0.1793
  530poe    c31 4200   2.311   1.519   1.020 -0.0113  0.3129  0.3074
  531poe    c31 4201   5.977   5.076   3.902  0.2632  0.3657 -0.2447
  531poe     o2 4202   5.965   5.134   3.775 -0.1747 -0.1852 -0.4601
  531poe    c23 4203   5.826   5.129   3.749 -0.2705  0.0821 -0.0221
  531poe    c23 4204   5.786   5.170   3.606 -0.0346 -0.2224 -0.1787
  531poe     o2 4205   5.820   5.069   3.514 -0.3484 -0.7711  0.3002
  531poe    c23 4206   5.771   5.103   3.386 -0.1387 -0.0893  0.3942
  531poe    c23 4207   5.858   5.049   3.270 -0.3171 -0.0354  0.2331
  531poe     o2 4208   5.867   4.909   3.287  1.1266  0.1002  0.7390
  531poe    c23 4209   5.930   4.849   3.175 -0.3860 -0.0385 -0.0603
  531poe    c23 4210   5.909   4.698   3.197  0.2673 -0.0591  0.4641
  531poe     o2 4211   5.937   4.657   3.329  0.3452 -0.1389  0.4232
  531poe    c31 4212   5.965   4.519   3.334  0.3176 -0.1519  0.2307
  532poe    c31 4213   3.162   2.428   2.384  0.0322 -0.6462  0.1339
  532poe     o2 4214   3.214   2.439   2.514 -0.0982 -0.4684  0.1711
  532poe    c23 4215   3.280   2.322   2.556 -0.1136 -0.5585 -0.0534
  532poe    c23 4216   3.366   2.367   2.676 -0.0763  0.5871 -0.4935
  532poe     o2 4217   3.294   2.470   2.739 -0.1702 -0.1310  0.6008
  532poe    c23 4218   3.332   2.511   2.869  0.6979 -0.3554  0.4233
  532poe    c23 4219   3.215   2.605   2.903  0.2256 -0.7071 -0.2132
  532poe     o2 4220   3.186   2.686   2.791  0.3088 -0.9627 -0.4221
  532poe    c23 4221   3.053   2.729   2.807  0.6705  0.2012 -0.4034
  532poe    c23 4222   3.004   2.785   2.672 -0.0155 -0.0675 -0.2737
  532poe     o2 4223   3.048   2.698   2.570 -0.3757 -0.7086  0.1161
  532poe    c31 4224   2.979   2.705   2.447  0.3715 -0.4866 -0.2988
  533poe    c31 4225   0.261   1.898   6.261 -0.2041  0.1406 -0.0640
  533poe     o2 4226   0.260   1.765   6.305 -0.5918  0.0481 -0.3422
  533poe    c23 4227   0.149   1.691   6.259 -0.5017 -0.2259 -0.1201
  533poe    c23 4228   0.065   1.669   6.387 -0.2313  0.3469  0.1570
  533poe     o2 4229   0.159   1.638   6.487  0.0267  0.1819 -0.1338
  533poe    c23 4230   0.117   1.671   6.618  0.1361  0.4185 -0.1578
  533poe    c23 4231   0.249   1.649   6.695  0.3865 -0.1740 -0.7403
  533poe     o2 4232   0.344   1.731   6.629 -0.0793  0.4371 -0.6624
  533poe    c23 4233   0.468   1.739   6.696 -0.3496 -1.0137  0.0664
  533poe    c23 4234   0.557   1.807   6.590 -0.4527 -0.4185  0.3534
  533poe     o2 4235   0.522   1.739   6.471 -0.0100  0.1855 -0.1232
  533poe    c31 4236   0.640   1.722   6.395  0.2644 -0.2026  0.3889
  534poe    c31 4237   0.460   2.986   0.661  0.0204  0.7391 -0.0531
  534poe     o2 4238   0.470   3.044   0.789  0.2828 -0.0759  0.3020
  534poe    c23 4239   0.466   3.183   0.767  0.4647 -0.0903  0.1770
  534poe    c23 4240   0.586   3.247   0.838  0.2208  0.3760  0.1735
  534poe     o2 4241   0.587   3.182   0.963 -0.1181  0.2237  0.0967
  534poe    c23 4242   0.664   3.259   1.052  0.3263 -0.1432  0.0321
  534poe    c23 4243   0.657   3.197   1.192 -0.2878 -0.5940 -0.1955
  534poe     o2 4244   0.721   3.071   1.194  0.5848 -0.1604 -0.3128
  534poe    c23 4245   0.710   3.000   1.315  0.4958  0.6492  0.1605
  534poe    c23 4246   0.734   2.848   1.318  0.5779  0.6407 -0.5903
  534poe     o2 4247   0.675   2.780   1.210  0.4527  0.3804 -0.3619
  534poe    c31 4248   0.645   2.644   1.227  0.0376  0.5803  0.5833
  535poe    c31 4249   1.111   5.388   4.936 -0.3032  0.1582 -0.5470
  535poe     o2 4250   1.010   5.484   4.912 -0.7121 -0.0928  0.1602
  535poe    c23 4251   0.880   5.429   4.917 -0.3991 -0.8829 -0.1661
  535poe    c23 4252   0.773   5.539   4.908  0.5555  0.1261  0.4316
  535poe     o2 4253   0.826   5.631   4.816 -0.2449  0.1435 -0.0266
  535poe    c23 4254   0.739   5.730   4.767  0.0214  0.2325 -0.3215
  535poe    c23 4255   0.825   5.813   4.669  0.3148  0.5111  0.1628
  535poe     o2 4256   0.944   5.819   4.742  0.2194  0.7645  0.2968
  535poe    c23 4257   1.040   5.904   4.682  0.2737  0.4306 -0.0894
  535poe    c23 4258   1.179   5.868   4.736  0.2408 -0.0594 -0.3271
  535poe     o2 4259   1.176   5.729   4.758 -0.3308 -0.0525 -0.3497
  535poe    c31 4260   1.285   5.701   4.843  0.0047 -0.0766 -0.7862
  536poe    c31 4261   3.462   2.566   4.732 -0.2935 -1.0216 -0.0351
  536poe     o2 4262   3.407   2.552   4.860 -0.6995 -0.6628 -0.1695
  536poe    c23 4263   3.453   2.435   4.925  0.2588 -0.2851 -0.1530
  536poe    c23 4264   3.418   2.459   5.073  0.6773  0.1682 -0.1254
  536poe     o2 4265   3.444   2.596   5.097 -0.1558  0.3463 -0.2215
  536poe    c23 4266   3.385   2.628   5.221  0.0919 -0.2976  0.0697
  536poe    c23 4267   3.360   2.779   5.206  0.3659 -0.2760 -0.1806
  536poe     o2 4268   3.297   2.808   5.083 -0.0435  0.4763  0.1969
  536poe    c23 4269   3.324   2.941   5.047  0.4767  0.3167 -0.0127
  536poe    c23 4270   3.235   2.962   4.923 -0.1302 -0.3783  0.3000
  536poe     o2 4271   3.267   2.853   4.839 -0.1390 -0.2255  0.0966
  536poe    c31 4272   3.272   2.884   4.702  0.2747  0.1827  0.2001
  537poe    c31 4273   0.544   0.597   2.381  0.0001 -0.7207  0.2993
  537poe     o2 4274   0.661   0.625   2.454  0.4049  0.1368 -0.6485
  537poe    c23 4275   0.638   0.724   2.552 -0.1715 -0.3577 -0.2760
  537poe    c23 4276   0.762   0.741   2.641  0.3180  0.1705 -1.0425
  537poe     o2 4277   0.801   0.609   2.674 -0.3469  0.2029 -0.0804
  537poe    c23 4278   0.909   0.618   2.763 -0.3309  0.0812 -0.0871
  537poe    c23 4279   0.914   0.481   2.832 -0.1597  0.1159 -0.0298
  537poe     o2 4280   0.910   0.384   2.730 -0.1677  0.2882 -0.1945
  537poe    c23 4281   0.902   0.248   2.767 -0.4318  0.2929 -0.2296
  537poe    c23 4282   0.896   0.177   2.631  0.0945  0.2448 -0.2321
  537poe     o2 4283   0.812   0.252   2.545 -0.1654  0.2845  0.0558
  537poe    c31 4284   0.775   0.163   2.442  0.0141 -0.1604  0.3708
  538poe    c31 4285   5.144   5.755   4.769  0.0772 -0.5685  0.1797
  538poe     o2 4286   5.139   5.800   4.635 -0.2178 -0.3053  0.2776
  538poe    c23 4287   5.174   5.937   4.633  0.6192 -0.5222  0.1155
  538poe    c23 4288   5.086   5.993   4.520  0.6070 -0.6660  0.0527
  538poe     o2 4289   5.100   5.893   4.422 -0.1201 -0.7328  0.0171
  538poe    c23 4290   5.094   5.943   4.290  0.3666  0.0259  0.2785
  538poe    c23 4291   5.191   5.841   4.226 -0.2411 -0.2636 -0.1846
  538poe     o2 4292   5.158   5.719   4.287 -0.8866 -0.1404 -0.2705
  538poe    c23 4293   5.246   5.610   4.270 -0.4632  0.2362 -0.5269
  538poe    c23 4294   5.200   5.491   4.357  0.6594 -0.0387 -0.2819
  538poe     o2 4295   5.180   5.542   4.487  0.0003 -0.2759 -0.2826
  538poe    c31 4296   5.191   5.434   4.577 -0.1050  0.1671  0.2695
  539poe    c31 4297   6.421   3.925   0.538 -0.4549 -0.5721  0.2540
  539poe     o2 4298   6.338   3.946   0.426  0.2697  0.4457 -0.1184
  539poe    c23 4299   6.288   3.819   0.389 -0.2095  0.4551  0.4798
  539poe    c23 4300   6.148   3.817   0.324 -0.0122  0.2362  0.0565
  539poe     o2 4301   6.057   3.858   0.424  0.7906  0.1413  0.8398
  539poe    c23 4302   6.037   3.998   0.421  0.1730  0.0412 -0.5717
  539poe    c23 4303   5.976   4.052   0.551  0.0612 -0.3074 -0.4778
  539poe     o2 4304   5.888   3.946   0.580 -0.0014 -0.2148 -0.3223
  539poe    c23 4305   5.806   3.974   0.691  0.2985 -0.3116 -0.0757
  539poe    c23 4306   5.679   3.887   0.689  0.0093  0.1126 -0.3573
  539poe     o2 4307   5.733   3.758   0.705  0.0776  0.2012  0.1710
  539poe    c31 4308   5.630   3.669   0.742  0.3993 -0.0312  0.5127
  540poe    c31 4309   0.296   5.990   5.010  0.6005  0.7866  0.6188
  540poe     o2 4310   0.240   6.105   4.951 -0.6125  0.0281  0.2485
  540poe    c23 4311   0.142   6.162   5.035 -0.7638 -0.1994  0.2268
  540poe    c23 4312   0.103   6.288   4.956 -0.0766 -0.2270 -0.1686
  540poe     o2 4313   0.077   6.244   4.825 -0.3433 -0.3480 -0.0758
  540poe    c23 4314   0.065   6.361   4.747  0.4248 -0.2525 -0.0540
  540poe    c23 4315   0.060   6.317   4.600 -0.2134 -0.5151  0.0414
  540poe     o2 4316   0.178   6.241   4.581  0.2565  0.2205 -0.0041
  540poe    c23 4317   0.144   6.122   4.515  0.9173  0.2546 -0.4143
  540poe    c23 4318   0.257   6.019   4.529  0.4504 -0.2045  0.0283
  540poe     o2 4319   0.292   5.999   4.664 -0.2432  0.3098  0.2874
  540poe    c31 4320   0.405   5.916   4.674 -0.0895  0.4627 -0.1656
  541poe    c31 4321   3.661   1.723   4.290  0.1255  0.1452  0.4748
  541poe     o2 4322   3.760   1.772   4.378  0.7295  0.0070 -0.1147
  541poe    c23 4323   3.880   1.819   4.321  0.3972  0.9024 -0.0900
  541poe    c23 4324   3.998   1.790   4.415  0.4185 -0.4072 -0.5020
  541poe     o2 4325   3.967   1.866   4.529  0.0686 -0.4752 -0.5497
  541poe    c23 4326   4.029   1.821   4.648 -0.3920 -0.3573 -0.2624
  541poe    c23 4327   3.952   1.877   4.769 -0.3926  0.2002 -0.5192
  541poe     o2 4328   3.817   1.846   4.746 -0.2997 -0.4617 -0.1978
  541poe    c23 4329   3.721   1.918   4.820  0.0111 -0.4277  0.1682
  541poe    c23 4330   3.595   1.876   4.744  0.0282 -0.3013  0.0681
  541poe     o2 4331   3.606   1.914   4.609  0.0184  1.0582  0.4397
  541poe    c31 4332   3.488   1.969   4.555 -0.1342  0.2408 -0.0775
  542poe    c31 4333   6.623   3.278   3.018  0.3185  0.0895  0.2789
  542poe     o2 4334   6.631   3.284   2.877 -0.3585  0.3422  0.2483
  542poe    c23 4335   6.761   3.316   2.832 -0.2409  0.4607  0.6679
  542poe    c23 4336   6.784   3.278   2.685 -0.1794  0.2944  0.7193
  542poe     o2 4337   6.681   3.331   2.604 -0.4215 -0.6127  0.4196
  542poe    c23 4338   6.654   3.248   2.493 -0.0642 -0.1609 -0.0098
  542poe    c23 4339   6.502   3.228   2.484 -0.0397 -0.0954 -0.5776
  542poe     o2 4340   6.445   3.204   2.610  0.2320  0.4442 -0.3505
  542poe    c23 4341   6.308   3.171   2.613  0.4083 -0.3280 -0.4714
  542poe    c23 4342   6.286   3.152   2.765 -0.0483  0.4101 -0.4386
  542poe     o2 4343   6.346   3.261   2.832  0.3995 -0.1400  0.0646
  542poe    c31 4344   6.260   3.297   2.937  0.5673  0.3588  0.0320
  543poe    c31 4345   3.163   0.323   5.889  0.4853  0.1665  0.4700
  543poe     o2 4346   3.094   0.235   5.975 -0.0485  0.2412  0.1248
  543poe    c23 4347   3.103   0.101   5.931  0.0654  0.2765  0.0409
  543poe    c23 4348   3.024  -0.008   6.005  0.1647  0.1378 -0.0581
  543poe     o2 4349   2.885   0.015   6.001  0.1663  0.1734  0.0636
  543poe    c23 4350   2.829  -0.095   6.070  0.3131  0.0462 -0.0192
  543poe    c23 4351   2.679  -0.116   6.045  0.2812  0.2297  0.0174
  543poe     o2 4352   2.618   0.010   6.028 -0.5208 -0.1477  0.0558
  543poe    c23 4353   2.487   0.019   5.977 -0.5392 -0.0218  0.1270
  543poe    c23 4354   2.462   0.171   5.990 -0.0648  0.0279  0.4734
  543poe     o2 4355   2.577   0.248   5.965 -0.4766  0.5627  0.2090
  543poe    c31 4356   2.520   0.374   5.939  0.0556  0.6546 -0.5522
  544poe    c31 4357   1.659   5.931   0.622 -0.5585  0.1430  0.4556
  544poe     o2 4358   1.623   5.815   0.693  0.6515 -0.3020  0.3603
  544poe    c23 4359   1.547   5.853   0.805  0.2552 -0.4186  0.1313
  544poe    c23 4360   1.417   5.771   0.816 -0.0418  0.0486  0.1097
  544poe     o2 4361   1.465   5.640   0.803 -0.0009 -0.0061  0.7605
  544poe    c23 4362   1.372   5.539   0.771 -0.0465  0.1025  0.5477
  544poe    c23 4363   1.430   5.399   0.745 -0.0567  0.2846 -0.5129
  544poe     o2 4364   1.534   5.411   0.650  0.1310  0.3032 -0.3073
  544poe    c23 4365   1.580   5.286   0.605 -0.5498  0.0799 -0.3946
  544poe    c23 4366   1.703   5.292   0.513 -0.1172 -0.3667  0.1484
  544poe     o2 4367   1.818   5.339   0.579  0.0347  0.0550 -0.4045
  544poe    c31 4368   1.929   5.341   0.493  0.1935  0.0426 -0.2006
  545poe    c31 4369   1.542   1.350   4.339 -0.1298  0.2002  0.0933
  545poe     o2 4370   1.560   1.333   4.201  0.4052  0.3423  0.1398
  545poe    c23 4371   1.437   1.327   4.132  0.2888 -0.0627  0.3802
  545poe    c23 4372   1.466   1.349   3.982  0.2244  0.0649  0.3864
  545poe     o2 4373   1.599   1.317   3.951  0.3131  0.4402  0.3786
  545poe    c23 4374   1.648   1.346   3.822  0.5235 -0.2641  0.2956
  545poe    c23 4375   1.765   1.251   3.788  0.7193  0.0058  0.2121
  545poe     o2 4376   1.844   1.251   3.905  0.0536  0.2839  0.6697
  545poe    c23 4377   1.968   1.188   3.881 -0.0373  0.3508  0.0246
  545poe    c23 4378   1.986   1.056   3.958 -0.0147  0.5168  0.3037
  545poe     o2 4379   1.966   1.065   4.097 -0.0756  0.3141  0.3077
  545poe    c31 4380   2.022   0.948   4.152 -0.3126 -0.0496 -0.2170
  546poe    c31 4381   2.157   0.578   0.895  0.0283 -0.0302  0.3872
  546poe     o2 4382   2.035   0.647   0.908  0.1356  0.2101  0.1315
  546poe    c23 4383   2.048   0.784   0.937  0.2878  0.2937 -0.3207
  546poe    c23 4384   1.925   0.848   0.870  0.3150  0.4639 -0.2078
  546poe     o2 4385   1.810   0.828   0.950  0.2059 -0.9262 -0.7033
  546poe    c23 4386   1.706   0.879   0.870  0.1635  0.6330  0.3132
  546poe    c23 4387   1.593   0.894   0.973 -0.6679 -0.3611 -0.4329
  546poe     o2 4388   1.578   0.767   1.034  0.5085 -0.2541  0.0938
  546poe    c23 4389   1.499   0.776   1.150  0.3691 -0.5642  0.0224
  546poe    c23 4390   1.476   0.635   1.208 -0.2863 -0.3349  0.3350
  546poe     o2 4391   1.609   0.590   1.215 -0.2263 -0.2054  0.0711
  546poe    c31 4392   1.611   0.463   1.278  0.7370 -0.0329  0.4185
  547poe    c31 4393   1.717   6.749   6.594 -0.2038 -0.3357 -0.5087
  547poe     o2 4394   1.695   6.835   6.703 -0.0380 -0.8195 -0.0938
  547poe    c23 4395   1.558   6.852   6.728  0.0600 -0.2796  0.0950
  547poe    c23 4396   1.521   6.958   6.834  0.5283  0.2479 -0.2671
  547poe     o2 4397   1.583   6.943   6.960 -0.0943  0.0084  0.0106
  547poe    c23 4398   1.490   6.979   7.060 -0.2669 -0.1646 -0.0858
  547poe    c23 4399   1.561   6.944   7.192 -0.0157  0.1543 -0.1366
  547poe     o2 4400   1.689   7.003   7.177  0.2588 -0.3406  0.2224
  547poe    c23 4401   1.770   7.004   7.293  0.0725 -0.0319  0.3501
  547poe    c23 4402   1.906   6.935   7.271 -0.1917 -0.3421 -0.3624
  547poe     o2 4403   1.952   6.975   7.144  0.0203  0.3897 -0.0598
  547poe    c31 4404   2.075   6.912   7.120  0.3263  0.8101  0.3848
  548poe    c31 4405   4.906   2.175   0.205 -0.0868 -0.0505 -0.0851
  548poe     o2 4406   4.833   2.240   0.104 -0.0398  0.5870  0.2849
  548poe    c23 4407   4.906   2.352   0.057 -0.0472  0.5275  0.1314
  548poe    c23 4408   4.838   2.410  -0.068  0.0277  0.1536 -0.0858
  548poe     o2 4409   4.701   2.405  -0.034 -0.0083 -0.1553 -0.2777
  548poe    c23 4410   4.615   2.443  -0.139 -0.1269  0.4406  0.0340
  548poe    c23 4411   4.478   2.393  -0.088  0.2899 -0.2649  0.4782
  548poe     o2 4412   4.490   2.257  -0.054 -0.1612 -0.4109  0.0501
  548poe    c23 4413   4.408   2.223   0.056 -0.2571 -0.2950  0.0152
  548poe    c23 4414   4.453   2.085   0.107  0.4102 -0.1235 -0.0877
  548poe     o2 4415   4.574   2.108   0.175  0.4046  0.1435 -0.1697
  548poe    c31 4416   4.584   2.007   0.273 -0.4470  0.1363 -0.0847
  549poe    c31 4417   4.647   4.649   2.657  0.0875 -0.2274 -0.1567
  549poe     o2 4418   4.759   4.715   2.712  0.3153 -0.7399  0.0018
  549poe    c23 4419   4.831   4.642   2.808  0.6318 -0.3398  0.0704
  549poe    c23 4420   4.971   4.704   2.822  0.5334  0.0467 -0.6152
  549poe     o2 4421   4.980   4.824   2.897  0.2426 -0.4554  0.2403
  549poe    c23 4422   5.110   4.878   2.907  0.0568  0.0223  0.0859
  549poe    c23 4423   5.098   5.010   2.986  0.7146  0.7739 -1.0373
  549poe     o2 4424   4.971   5.070   2.975  0.1803  0.0468  0.7753
  549poe    c23 4425   4.975   5.167   3.077  0.1759  0.2477  0.5853
  549poe    c23 4426   4.833   5.226   3.068  0.1774  0.1814  0.1057
  549poe     o2 4427   4.756   5.108   3.060  0.1181  0.2504 -0.3668
  549poe    c31 4428   4.623   5.153   3.045  0.0993  0.1898 -0.3834
  550poe    c31 4429   4.767   1.241   4.641  0.0456 -0.6533  0.7217
  550poe     o2 4430   4.627   1.254   4.633  0.0584 -1.0415 -0.2004
  550poe    c23 4431   4.572   1.262   4.503 -0.1989  0.6129 -0.0124
  550poe    c23 4432   4.420   1.251   4.526 -0.0277 -0.4706  0.7176
  550poe     o2 4433   4.399   1.351   4.622  0.3166  0.3054 -0.0017
  550poe    c23 4434   4.262   1.350   4.658  0.3186  0.8289  0.0266
  550poe    c23 4435   4.245   1.459   4.766 -0.5031  0.3303  0.4064
  550poe     o2 4436   4.329   1.442   4.879 -0.0447  0.1462  0.0434
  550poe    c23 4437   4.305   1.540   4.977  0.0810  0.2898 -0.0680
  550poe    c23 4438   4.388   1.669   4.972 -0.1592  0.4673  0.4034
  550poe     o2 4439   4.528   1.662   4.952 -0.1806  0.3142  0.3071
  550poe    c31 4440   4.606   1.687   5.066  0.2479 -0.7444  0.2544
  551poe    c31 4441   3.373   6.397   1.039 -0.2568 -0.2879 -1.0422
  551poe     o2 4442   3.497   6.454   1.005  0.0639 -0.2828  0.1097
  551poe    c23 4443   3.573   6.490   1.118  0.1563 -0.5979  0.1503
  551poe    c23 4444   3.696   6.559   1.057 -0.1892 -0.1864 -0.0919
  551poe     o2 4445   3.731   6.492   0.938  0.0350 -0.0383 -0.1097
  551poe    c23 4446   3.853   6.543   0.888  0.3084 -0.2238  0.3566
  551poe    c23 4447   3.881   6.461   0.761 -0.2369 -0.2103  0.2234
  551poe     o2 4448   3.755   6.447   0.700 -0.1203 -0.0327 -0.0633
  551poe    c23 4449   3.737   6.334   0.618 -0.4987  0.1380 -0.2166
  551poe    c23 4450   3.587   6.305   0.597 -0.4510 -0.4236  0.1771
  551poe     o2 4451   3.528   6.316   0.724  0.0320 -0.3965  0.3977
  551poe    c31 4452   3.402   6.253   0.724 -0.2170  0.0966  0.2293
  552poe    c31 4453   5.550   0.001   6.088  0.1685 -0.2714 -0.0452
  552poe     o2 4454   5.607  -0.080   5.988  0.5848 -0.3269  0.2333
  552poe    c23 4455   5.685   0.006   5.909 -0.1360  0.1028 -0.0140
  552poe    c23 4456   5.748  -0.075   5.795 -0.0454  0.2168 -0.0443
  552poe     o2 4457   5.750  -0.203   5.853 -0.8122  0.1037 -0.2570
  552poe    c23 4458   5.829  -0.298   5.783 -0.2221 -0.0550  0.6044
  552poe    c23 4459   5.765  -0.435   5.810 -0.3832 -0.2388 -0.6709
  552poe     o2 4460   5.730  -0.442   5.946  0.7869 -0.0978 -0.3529
  552poe    c23 4461   5.637  -0.546   5.965  0.5150  0.2779  0.4101
  552poe    c23 4462   5.537  -0.496   6.071 -0.0541  0.1363 -0.0528
  552poe     o2 4463   5.520  -0.356   6.066 -0.6460  0.0625 -0.2249
  552poe    c31 4464   5.416  -0.329   6.156 -0.1365 -0.0088  0.3900
  553poe    c31 4465   3.854   5.748   3.731  0.3112 -1.0289 -0.1768
  553poe     o2 4466   3.763   5.777   3.627  0.3725  0.4036  0.1490
  553poe    c23 4467   3.627   5.752   3.653  0.3550  0.1820 -0.1575
  553poe    c23 4468   3.550   5.781   3.522  0.2850  0.7491  0.0056
  553poe     o2 4469   3.607   5.895   3.463  0.7595  0.5673  0.1052
  553poe    c23 4470   3.525   5.950   3.362  0.1099  0.2924  0.4733
  553poe    c23 4471   3.586   6.072   3.289 -0.2647  0.0006 -0.3352
  553poe     o2 4472   3.704   6.051   3.215 -0.1843 -0.4126 -0.0956
  553poe    c23 4473   3.719   6.121   3.094 -0.4294 -0.2180 -0.0146
  553poe    c23 4474   3.867   6.121   3.050 -0.2977 -0.8456  0.4215
  553poe     o2 4475   3.909   5.993   3.010  0.0883 -0.4440 -0.4848
  553poe    c31 4476   4.045   5.984   2.975  0.1442  0.0074 -0.3826
  554poe    c31 4477   1.808   4.168   0.198  0.2950 -0.5929  0.2395
  554poe     o2 4478   1.944   4.133   0.209  0.5479  0.0301 -0.7450
  554poe    c23 4479   2.017   4.253   0.219 -0.1314  0.3673  0.3170
  554poe    c23 4480   2.162   4.203   0.222 -0.2140  0.1149  0.1175
  554poe     o2 4481   2.181   4.083   0.292 -0.5551 -0.2634 -0.4299
  554poe    c23 4482   2.316   4.050   0.270 -0.6143 -0.6755 -0.1935
  554poe    c23 4483   2.333   3.898   0.290  0.3152 -0.5768 -0.1863
  554poe     o2 4484   2.229   3.827   0.226 -0.1650 -0.2685  0.2465
  554poe    c23 4485   2.237   3.688   0.246 -0.5671 -0.3336 -0.0364
  554poe    c23 4486   2.118   3.604   0.195 -0.0928 -0.6628 -0.6065
  554poe     o2 4487   2.012   3.621   0.286 -0.0299 -0.2554 -0.6093
  554poe    c31 4488   1.899   3.551   0.238 -0.3189 -0.1079 -0.1512
  555poe    c31 4489   1.407   1.448   2.189  1.0256 -0.2724 -0.1687
  555poe     o2 4490   1.450   1.549   2.100  0.3649 -0.0369 -0.2279
  555poe    c23 4491   1.500   1.666   2.162  0.7994  0.0099 -0.6660
  555poe    c23 4492   1.556   1.756   2.050  0.7407  0.6482 -0.1826
  555poe     o2 4493   1.626   1.679   1.955  0.1309 -0.3007  0.1237
  555poe    c23 4494   1.685   1.749   1.848  0.0097  0.0429  0.2813
  555poe    c23 4495   1.700   1.660   1.724  0.1943 -0.0133  0.3437
  555poe     o2 4496   1.762   1.538   1.757  0.5201 -0.1215 -0.6270
  555poe    c23 4497   1.715   1.422   1.691 -0.4948 -0.1085  0.0496
  555poe    c23 4498   1.567   1.383   1.710 -0.4933 -0.0341  0.2137
  555poe     o2 4499   1.529   1.380   1.846 -0.5004 -0.1484  0.2092
  555poe    c31 4500   1.469   1.255   1.874 -0.9312 -0.0331 -0.2019
  556poe    c31 4501   2.257   4.456   2.965  0.6828 -0.0482  0.1341
  556poe     o2 4502   2.256   4.524   2.841 -0.4584  0.0784  0.2021
  556poe    c23 4503   2.390   4.559   2.815 -0.5633  0.6577  0.4157
  556poe    c23 4504   2.404   4.606   2.669  0.4090 -0.1251  0.2408
  556poe     o2 4505   2.357   4.739   2.671  0.4085 -0.1040 -0.6927
  556poe    c23 4506   2.335   4.777   2.537 -0.2111  0.2971 -0.4789
  556poe    c23 4507   2.301   4.927   2.529 -0.3048  0.2924 -0.2051
  556poe     o2 4508   2.197   4.960   2.617 -0.0135  0.3393  0.1243
  556poe    c23 4509   2.148   5.091   2.605  0.1049  0.3699 -0.0208
  556poe    c23 4510   2.000   5.078   2.647  0.1658 -0.0099  0.0729
  556poe     o2 4511   1.989   5.006   2.768  0.7258  0.5658  0.4771
  556poe    c31 4512   1.855   4.983   2.806  0.5247  0.1735 -0.4431
  557poe    c31 4513   5.437   5.975   0.509  0.0964 -0.2861 -0.8146
  557poe     o2 4514   5.380   5.884   0.600  0.2083  0.0421 -0.4104
  557poe    c23 4515   5.242   5.860   0.582  0.1853 -0.1874  0.0449
  557poe    c23 4516   5.174   5.813   0.712 -0.2372  0.0840 -0.0744
  557poe     o2 4517   5.249   5.704   0.761 -0.3856  0.0106 -0.0106
  557poe    c23 4518   5.235   5.676   0.898 -0.3020 -0.6447 -0.1309
  557poe    c23 4519   5.334   5.565   0.938  0.5582  0.5574  1.1713
  557poe     o2 4520   5.453   5.584   0.865 -0.2320 -0.3212 -0.4196
  557poe    c23 4521   5.543   5.526   0.957 -0.1342 -0.1355 -0.3952
  557poe    c23 4522   5.673   5.606   0.975  0.0440 -0.3633 -0.6579
  557poe     o2 4523   5.740   5.605   0.851  0.3976  0.8132 -0.4934
  557poe    c31 4524   5.877   5.627   0.874  0.4103  0.4079 -0.1662
  558poe    c31 4525   0.270   4.044   1.593  0.0288  0.2621 -0.6127
  558poe     o2 4526   0.149   3.993   1.645  0.4909 -0.2856 -0.0570
  558poe    c23 4527   0.071   3.934   1.543 -0.4153  0.1575  0.3737
  558poe    c23 4528  -0.036   3.845   1.608 -0.7892 -0.2548 -0.7904
  558poe     o2 4529  -0.087   3.923   1.714  0.2233 -0.4827 -0.1211
  558poe    c23 4530  -0.159   3.845   1.806 -0.2954 -0.4829 -0.5216
  558poe    c23 4531  -0.191   3.930   1.930  0.0553 -0.4265 -0.4704
  558poe     o2 4532  -0.066   3.977   1.978 -0.2127 -0.2649  0.0816
  558poe    c23 4533  -0.068   4.000   2.117 -0.2487  0.2026  0.0049
  558poe    c23 4534   0.062   4.074   2.155 -0.1652  0.0914 -0.0630
  558poe     o2 4535   0.176   3.992   2.161  0.1503  0.5331  0.0276
  558poe    c31 4536   0.178   3.901   2.269 -0.2081  0.3799 -0.0955
  559poe    c31 4537   1.094   2.878   1.430  0.6006 -0.4398  0.4703
  559poe     o2 4538   1.089   2.777   1.332  0.6618 -0.2955  0.3184
  559poe    c23 4539   1.081   2.649   1.390  0.4510 -0.0904  0.7468
  559poe    c23 4540   1.104   2.523   1.304  0.3171  0.3553  0.0592
  559poe     o2 4541   1.237   2.497   1.264  0.0799 -0.0953 -0.4537
  559poe    c23 4542   1.261   2.376   1.196 -0.3732 -0.6424  0.3384
  559poe    c23 4543   1.407   2.327   1.210 -0.1371  0.0267  0.2796
  559poe     o2 4544   1.439   2.293   1.343  0.2345 -0.0968  0.1586
  559poe    c23 4545   1.568   2.235   1.340  0.5525  0.5790  0.5806
  559poe    c23 4546   1.600   2.190   1.484  0.2725  0.3369  0.5686
  559poe     o2 4547   1.487   2.121   1.531  0.1595  0.0100 -0.1624
  559poe    c31 4548   1.509   2.056   1.654 -0.3439 -0.3337 -0.2505
  560poe    c31 4549   4.496   5.299   6.310  0.3007  0.3773  0.5984
  560poe     o2 4550   4.482   5.436   6.278  0.5955  0.1427 -0.5786
  560poe    c23 4551   4.606   5.497   6.306  0.2651  0.3726  0.4502
  560poe    c23 4552   4.619   5.624   6.219  0.6337  0.1295  0.1481
  560poe     o2 4553   4.506   5.708   6.228  0.3716 -0.2348  0.3317
  560poe    c23 4554   4.529   5.839   6.178  0.1771 -0.4659 -0.3780
  560poe    c23 4555   4.412   5.929   6.220  0.3352 -0.3079 -0.2779
  560poe     o2 4556   4.289   5.876   6.178 -0.0633  0.4796 -0.1291
  560poe    c23 4557   4.183   5.962   6.215  0.1266  0.3199  0.7923
  560poe    c23 4558   4.049   5.887   6.214  0.2412  0.1198  0.2586
  560poe     o2 4559   4.024   5.790   6.314  0.2266 -0.2830 -0.1316
  560poe    c31 4560   3.911   5.709   6.294  0.1688 -0.1846 -0.2066
  561poe    c31 4561   2.353   0.070   4.378 -0.3770  0.2125 -0.4444
  561poe     o2 4562   2.322  -0.026   4.476  0.3330  0.0969 -0.3285
  561poe    c23 4563   2.181  -0.035   4.477  0.3049  0.4992 -0.2357
  561poe    c23 4564   2.156  -0.142   4.585 -0.0004  0.2182 -0.5814
  561poe     o2 4565   2.247  -0.250   4.586 -0.2522  0.0068  0.0557
  561poe    c23 4566   2.238  -0.336   4.475  0.4773 -0.3297  0.2538
  561poe    c23 4567   2.374  -0.406   4.456  0.1973 -0.8026 -0.0515
  561poe     o2 4568   2.450  -0.290   4.433 -0.2668 -0.5141 -0.1403
  561poe    c23 4569   2.589  -0.311   4.448 -0.1384  0.4188  0.0939
  561poe    c23 4570   2.666  -0.182   4.416  0.6606  0.1530  0.9204
  561poe     o2 4571   2.618  -0.079   4.500 -0.2852  0.6656 -0.2356
  561poe    c31 4572   2.711   0.026   4.495  0.7804 -0.1808  1.2052
  562poe    c31 4573   2.557   5.631   4.462  0.2923  0.3816  0.2373
  562poe     o2 4574   2.589   5.730   4.558 -0.7783  0.0089  0.9929
  562poe    c23 4575   2.472   5.788   4.610 -1.0965  0.1562  0.1346
  562poe    c23 4576   2.523   5.879   4.724  0.0951 -0.0237 -0.2445
  562poe     o2 4577   2.613   5.970   4.665 -0.0485 -0.0799 -0.5539
  562poe    c23 4578   2.658   6.071   4.751 -1.3816  0.1962 -0.1623
  562poe    c23 4579   2.751   6.160   4.667 -0.0453 -0.6304  0.4104
  562poe     o2 4580   2.829   6.061   4.604  0.5362 -0.2775  0.5683
  562poe    c23 4581   2.892   6.078   4.479 -0.2471  0.1397  0.2268
  562poe    c23 4582   2.793   6.076   4.361 -0.1407  0.1815  0.1374
  562poe     o2 4583   2.729   5.951   4.354 -0.3861  0.3264 -0.3061
  562poe    c31 4584   2.690   5.944   4.219  0.4799 -0.2750 -0.5366
  563poe    c31 4585   5.691   1.248   6.474 -0.0947  0.1338  0.0278
  563poe     o2 4586   5.827   1.247   6.436 -0.1257 -0.0465 -0.0763
  563poe    c23 4587   5.848   1.124   6.369 -0.0226 -0.2138  0.2633
  563poe    c23 4588   5.997   1.085   6.374 -0.0744 -0.3875  0.4953
  563poe     o2 4589   6.041   1.082   6.507  0.3772  0.0526  0.3594
  563poe    c23 4590   6.173   1.130   6.520  0.5498 -0.2977 -0.0894
  563poe    c23 4591   6.170   1.227   6.639 -0.4524 -0.0943 -0.2696
  563poe     o2 4592   6.069   1.324   6.622 -0.3114  0.0227 -0.4357
  563poe    c23 4593   6.052   1.405   6.735  0.0857 -0.4978  0.0020
  563poe    c23 4594   6.003   1.541   6.682  0.6796 -0.2276  0.1443
  563poe     o2 4595   5.908   1.509   6.584  0.6528  0.5380 -0.0896
  563poe    c31 4596   5.832   1.624   6.554 -0.1185  0.0440 -0.0437
  564poe    c31 4597   5.946   1.935   0.595  0.3630  0.5495  0.5831
  564poe     o2 4598   5.809   1.903   0.582  0.5920 -0.1163 -0.3017
  564poe    c23 4599   5.732   2.021   0.571  0.3239 -0.2084  0.5567
  564poe    c23 4600   5.582   1.989   0.586  0.2088  0.0494 -0.0394
  564poe     o2 4601   5.579   1.869   0.659  0.0151  0.3892  0.5136
  564poe    c23 4602   5.448   1.820   0.670  0.1908 -0.2869 -0.2971
  564poe    c23 4603   5.427   1.701   0.766  0.0205 -0.0863 -0.0815
  564poe     o2 4604   5.540   1.621   0.738 -0.1273 -0.3942  0.1978
  564poe    c23 4605   5.535   1.551   0.615 -0.2144  0.0050 -0.0267
  564poe    c23 4606   5.675   1.489   0.598 -0.0547  0.4391 -0.3255
  564poe     o2 4607   5.769   1.593   0.604  0.5628 -0.1663  0.7925
  564poe    c31 4608   5.879   1.537   0.536  0.2150  0.4866 -0.3280
  565poe    c31 4609   6.685   2.685   0.672  0.0193  0.1120  0.3317
  565poe     o2 4610   6.590   2.787   0.646 -0.4247 -0.3747  0.0135
  565poe    c23 4611   6.672   2.900   0.665 -0.6896 -0.1640 -0.1051
  565poe    c23 4612   6.587   3.028   0.678  0.1104  0.4025 -0.3348
  565poe     o2 4613   6.471   3.000   0.603 -0.1563  0.4446  0.0581
  565poe    c23 4614   6.394   3.117   0.584 -0.0613  0.5456  0.2996
  565poe    c23 4615   6.247   3.078   0.560  0.1652  0.0540 -0.3205
  565poe     o2 4616   6.239   2.967   0.474 -0.0667  0.0407 -0.2813
  565poe    c23 4617   6.103   2.929   0.467 -0.0574 -0.1773  0.6357
  565poe    c23 4618   6.059   2.835   0.353  0.6625  0.0815  0.1396
  565poe     o2 4619   6.144   2.723   0.355  0.2828 -0.2111 -0.0275
  565poe    c31 4620   6.095   2.649   0.245 -0.8925 -0.0747  0.3901
  566poe    c31 4621   5.109   0.705   3.539  0.5747 -0.2930 -0.0457
  566poe     o2 4622   5.016   0.809   3.521  0.1334 -0.5036  0.9107
  566poe    c23 4623   4.948   0.835   3.641 -0.6768 -0.3808  0.4348
  566poe    c23 4624   4.860   0.960   3.623 -0.3908 -0.3512 -0.8197
  566poe     o2 4625   4.944   1.051   3.555  0.1328  0.1027  0.3996
  566poe    c23 4626   4.894   1.183   3.562  0.4044  0.2527 -0.4266
  566poe    c23 4627   4.993   1.279   3.492  0.7955 -0.0859 -0.3417
  566poe     o2 4628   5.028   1.214   3.372  0.6880 -0.1559 -0.3360
  566poe    c23 4629   5.117   1.289   3.292  0.7637  0.1403  0.0259
  566poe    c23 4630   5.155   1.223   3.158  0.3761 -0.0162 -0.0077
  566poe     o2 4631   5.221   1.100   3.181  0.4332  0.0247  0.0499
  566poe    c31 4632   5.233   1.037   3.055  0.1214 -0.3113  0.1874
  567poe    c31 4633   6.727   3.339   1.527  0.7193  0.1921 -0.0874
  567poe     o2 4634   6.668   3.346   1.400  0.2961 -0.0991  0.0913
  567poe    c23 4635   6.630   3.480   1.373  0.2982 -0.0482  0.3400
  567poe    c23 4636   6.609   3.503   1.222  0.3564 -0.1608  0.3142
  567poe     o2 4637   6.547   3.382   1.184  0.7906 -0.4465  0.5035
  567poe    c23 4638   6.551   3.361   1.045  0.4085  0.3233  0.3658
  567poe    c23 4639   6.525   3.209   1.041  0.3773  0.3280  0.3918
  567poe     o2 4640   6.584   3.140   1.149  0.2101  0.4928  0.5900
  567poe    c23 4641   6.562   3.001   1.150  0.2988  0.4740  0.0575
  567poe    c23 4642   6.607   2.920   1.273 -0.4239 -0.1053 -0.0506
  567poe     o2 4643   6.566   2.998   1.384  0.1986  0.3628 -0.1462
  567poe    c31 4644   6.608   2.920   1.493  0.0595  0.2459 -0.1762
  568poe    c31 4645   4.109   4.946   2.410  0.3593  0.3373 -0.3409
  568poe     o2 4646   4.008   4.998   2.494  0.1926  0.4242 -0.5925
  568poe    c23 4647   3.915   4.906   2.547  0.7723 -0.2291 -0.6853
  568poe    c23 4648   3.956   4.804   2.655 -0.1114 -0.2576 -0.3692
  568poe     o2 4649   3.976   4.858   2.783  0.2991 -0.6207 -0.2778
  568poe    c23 4650   4.062   4.769   2.851  0.3553 -0.3754 -0.0264
  568poe    c23 4651   4.062   4.838   2.989 -0.2169 -0.1696 -0.1239
  568poe     o2 4652   4.095   4.974   2.971  0.0522 -0.1684  0.3411
  568poe    c23 4653   4.114   5.025   3.101 -0.2745  0.5004  0.1321
  568poe    c23 4654   4.094   5.178   3.101 -0.0296  0.5333  0.1657
  568poe     o2 4655   3.975   5.211   3.033 -0.1556 -0.3731 -0.0676
  568poe    c31 4656   3.953   5.345   3.070 -0.0232 -0.5023  0.4819
  569poe    c31 4657   2.928   0.734   4.497 -0.1374 -0.2284  0.1852
  569poe     o2 4658   2.939   0.836   4.400 -0.5596 -0.1659  0.2043
  569poe    c23 4659   2.814   0.884   4.356 -0.4540 -0.1449 -0.0684
  569poe    c23 4660   2.822   0.967   4.226 -0.4613  0.0835  0.0770
  569poe     o2 4661   2.950   1.026   4.224 -0.0963 -0.6948  0.0007
  569poe    c23 4662   3.004   1.007   4.095 -0.3237 -0.0345 -0.1953
  569poe    c23 4663   3.153   1.045   4.100 -0.3125 -0.0804 -0.1847
  569poe     o2 4664   3.181   0.967   4.214  0.3080  0.0745 -0.2263
  569poe    c23 4665   3.315   0.977   4.257  0.2119  0.3072  0.0235
  569poe    c23 4666   3.330   0.869   4.365 -0.2361  0.0556 -0.1633
  569poe     o2 4667   3.230   0.908   4.458  0.0110  0.1323  0.0713
  569poe    c31 4668   3.280   0.897   4.589  0.1451 -0.3679 -0.0195
  570poe    c31 4669   2.678   2.830   3.317  0.6290  0.1939 -0.3410
  570poe     o2 4670   2.715   2.696   3.340  0.1317  0.1381  0.1323
  570poe    c23 4671   2.721   2.612   3.227  0.6613  0.4449 -0.0694
  570poe    c23 4672   2.785   2.480   3.273 -0.1507  0.1521  0.2523
  570poe     o2 4673   2.732   2.443   3.398 -0.4198 -0.4447 -0.0340
  570poe    c23 4674   2.775   2.315   3.437  0.9259  0.1258  0.4231
  570poe    c23 4675   2.736   2.313   3.586 -0.6266  0.2097  0.0332
  570poe     o2 4676   2.769   2.442   3.631 -0.5977  0.1253  0.2549
  570poe    c23 4677   2.722   2.463   3.763  0.2925 -0.2385  0.6343
  570poe    c23 4678   2.733   2.615   3.781 -0.2447 -0.1229  0.0380
  570poe     o2 4679   2.681   2.676   3.666  0.4026  0.1652 -0.1043
  570poe    c31 4680   2.695   2.817   3.671 -0.3737  0.2422  0.0202
  571poe    c31 4681   5.391   2.896   6.260 -0.4397  0.4940 -0.1370
  571poe     o2 4682   5.382   2.771   6.195  0.6288  0.1675  0.3113
  571poe    c23 4683   5.298   2.681   6.263 -0.2289  0.5112 -0.2733
  571poe    c23 4684   5.199   2.616   6.165  0.0444 -0.0773 -0.1636
  571poe     o2 4685   5.269   2.583   6.048  0.3848 -0.4769  0.1497
  571poe    c23 4686   5.214   2.461   6.002  0.3686 -0.1986 -0.5881
  571poe    c23 4687   5.299   2.403   5.888  0.1413 -0.2892 -0.7135
  571poe     o2 4688   5.421   2.356   5.942 -0.1261  0.1972  0.3419
  571poe    c23 4689   5.493   2.271   5.855 -0.3834  0.3311 -0.0060
  571poe    c23 4690   5.635   2.270   5.913 -0.2349  0.4028 -0.3698
  571poe     o2 4691   5.691   2.399   5.915  0.1603  0.2279  0.7028
  571poe    c31 4692   5.831   2.402   5.931  0.2170 -0.1786  0.2889
  572poe    c31 4693   3.671   2.129   1.441 -0.2132 -0.3220  0.0658
  572poe     o2 4694   3.802   2.114   1.393  0.1151 -0.5375  1.0183
  572poe    c23 4695   3.804   2.004   1.305 -1.0407  0.3199 -0.1090
  572poe    c23 4696   3.924   2.021   1.211 -0.6922  0.6204  0.3864
  572poe     o2 4697   3.901   2.099   1.096 -0.1026 -0.2822 -0.3605
  572poe    c23 4698   3.998   2.095   0.994  0.2855  0.4456 -0.0268
  572poe    c23 4699   4.005   2.230   0.920  0.0501  0.1911 -0.5204
  572poe     o2 4700   3.874   2.275   0.894 -0.2373 -0.4077 -0.1095
  572poe    c23 4701   3.869   2.405   0.841  0.4013 -0.1331  0.4956
  572poe    c23 4702   3.720   2.442   0.848  0.5485  0.5225  0.2216
  572poe     o2 4703   3.671   2.411   0.976  0.1637  0.1335 -0.0191
  572poe    c31 4704   3.540   2.461   0.993 -0.1419 -0.6239 -0.1187
  573poe    c31 4705   5.558   3.730   3.874 -0.0706 -0.1784 -0.1583
  573poe     o2 4706   5.472   3.840   3.855  0.2812  0.1038 -0.1143
  573poe    c23 4707   5.515   3.962   3.910  1.0624  0.0540 -0.5976
  573poe    c23 4708   5.414   4.071   3.868  0.3773 -0.3687 -0.0651
  573poe     o2 4709   5.406   4.059   3.728 -0.4855 -0.2124 -0.0297
  573poe    c23 4710   5.311   4.152   3.681 -0.2091 -0.0152 -0.1989
  573poe    c23 4711   5.250   4.099   3.550  0.3541 -0.2411 -0.3709
  573poe     o2 4712   5.223   3.966   3.587  0.9049 -0.1415  0.4145
  573poe    c23 4713   5.169   3.879   3.490 -0.3225  0.2429  0.7319
  573poe    c23 4714   5.159   3.743   3.562  0.0176 -0.4566 -0.5012
  573poe     o2 4715   5.261   3.747   3.660 -0.2748  0.0864 -0.2136
  573poe    c31 4716   5.229   3.648   3.755 -0.0312  0.1672 -0.0459
  574poe    c31 4717   4.262   5.311   5.512  0.0985 -0.7894  0.1226
  574poe     o2 4718   4.316   5.392   5.410  0.2044  0.0025  0.7889
  574poe    c23 4719   4.447   5.358   5.371  0.1145  0.3510  0.1713
  574poe    c23 4720   4.572   5.409   5.445  0.3678  0.3477 -0.2518
  574poe     o2 4721   4.618   5.538   5.413 -0.4652  0.5365 -0.7042
  574poe    c23 4722   4.581   5.651   5.489  0.1679  0.1508  0.1821
  574poe    c23 4723   4.706   5.736   5.518 -0.3031  0.5701  1.0310
  574poe     o2 4724   4.752   5.766   5.388 -0.2397 -0.1655  0.8746
  574poe    c23 4725   4.877   5.830   5.383 -0.4870  0.2929  0.4796
  574poe    c23 4726   4.905   5.851   5.233 -0.8895  0.1245  0.3811
  574poe     o2 4727   4.875   5.735   5.159  0.6154  0.1151 -0.2477
  574poe    c31 4728   4.867   5.764   5.021  0.1710 -0.3684 -0.3285
  575poe    c31 4729   2.042   6.299   1.463  0.4949  0.1471 -0.6868
  575poe     o2 4730   1.973   6.388   1.378 -0.4049  0.2413  0.1290
  575poe    c23 4731   2.070   6.450   1.296 -0.6051 -0.1216 -0.3819
  575poe    c23 4732   2.014   6.573   1.222 -0.2313  0.3125  0.0542
  575poe     o2 4733   1.923   6.537   1.120  0.0887 -0.0074 -0.1222
  575poe    c23 4734   1.957   6.594   0.995  0.6331 -0.2823 -0.1037
  575poe    c23 4735   1.890   6.522   0.876 -0.3059  0.0086  0.2373
  575poe     o2 4736   1.750   6.513   0.892 -0.3940  0.8335 -0.0129
  575poe    c23 4737   1.678   6.434   0.800 -0.1246  0.3767  0.1628
  575poe    c23 4738   1.536   6.492   0.802 -0.2478  0.0963 -0.3230
  575poe     o2 4739   1.521   6.543   0.932 -0.2875  0.7884 -0.5951
  575poe    c31 4740   1.386   6.563   0.969 -0.2672 -0.1712  0.0194
  576poe    c31 4741   2.704   1.894   1.931 -0.6258 -0.1754  0.1675
  576poe     o2 4742   2.756   1.764   1.943  0.1347  0.1063  0.0033
  576poe    c23 4743   2.850   1.742   2.046  0.1954 -0.0208 -0.0783
  576poe    c23 4744   2.845   1.589   2.063  0.6230  0.0403  0.6094
  576poe     o2 4745   2.712   1.548   2.085  0.4828  0.0516 -0.1897
  576poe    c23 4746   2.713   1.408   2.098  0.2006  0.0845  0.2063
  576poe    c23 4747   2.566   1.366   2.118  0.2219 -0.1231 -0.0568
  576poe     o2 4748   2.484   1.414   2.014  0.1608 -0.2009 -0.0443
  576poe    c23 4749   2.411   1.311   1.951 -0.2946 -0.1685  0.4206
  576poe    c23 4750   2.328   1.342   1.826  0.5089  0.0808 -0.0583
  576poe     o2 4751   2.387   1.394   1.708  0.0239 -0.4780 -0.5539
  576poe    c31 4752   2.445   1.295   1.626  0.0132 -0.4192 -0.6315
  577poe    c31 4753   2.379   1.344   3.966 -0.4273  0.2240  0.1088
  577poe     o2 4754   2.471   1.448   3.987 -0.1632  0.2038 -0.8939
  577poe    c23 4755   2.424   1.525   4.095 -0.2288  0.1717 -0.8999
  577poe    c23 4756   2.492   1.662   4.104 -0.2400  0.0935  0.8289
  577poe     o2 4757   2.632   1.670   4.087 -0.3219 -0.0916  0.0035
  577poe    c23 4758   2.669   1.796   4.036  0.3318 -0.0550  0.5512
  577poe    c23 4759   2.822   1.807   4.021  0.2005  0.5882 -0.3852
  577poe     o2 4760   2.866   1.693   3.950 -0.2358  0.0172  0.2521
  577poe    c23 4761   2.988   1.718   3.883 -0.4948  0.0656 -0.2053
  577poe    c23 4762   3.008   1.612   3.773  0.6440  0.0466  0.0077
  577poe     o2 4763   2.957   1.494   3.830 -0.2107  0.4152  0.0197
  577poe    c31 4764   2.948   1.378   3.750 -0.2167  0.5085 -0.1149
  578poe    c31 4765   1.162   0.349   1.622 -0.1984  0.6241 -0.5133
  578poe     o2 4766   1.122   0.294   1.499 -0.3301  0.0273 -0.2055
  578poe    c23 4767   1.240   0.317   1.427 -0.1759 -0.3029 -0.0608
  578poe    c23 4768   1.240   0.259   1.284 -0.4456 -0.9776  0.2117
  578poe     o2 4769   1.116   0.306   1.235 -0.1374 -0.1512  0.2162
  578poe    c23 4770   1.076   0.235   1.120 -0.0812  0.5053 -0.2135
  578poe    c23 4771   0.926   0.268   1.105 -0.1601  0.2295 -0.0323
  578poe     o2 4772   0.868   0.240   1.231 -1.0801  0.1645 -0.4634
  578poe    c23 4773   0.745   0.307   1.244 -0.8804  0.4736 -0.1379
  578poe    c23 4774   0.725   0.313   1.397 -0.3555  0.1344 -0.0551
  578poe     o2 4775   0.844   0.372   1.446 -0.2901 -0.3375  0.3645
  578poe    c31 4776   0.834   0.418   1.579 -0.0407 -0.1581  0.3211
  579poe    c31 4777   0.694   0.693   6.338 -0.6555 -0.1521 -0.1155
  579poe     o2 4778   0.650   0.698   6.472 -0.3865 -0.1809 -0.0233
  579poe    c23 4779   0.539   0.785   6.484 -0.4046 -0.1384 -0.4752
  579poe    c23 4780   0.501   0.764   6.631  0.3312 -0.5385 -0.3363
  579poe     o2 4781   0.502   0.624   6.651 -0.7814 -0.5126 -0.0067
  579poe    c23 4782   0.482   0.598   6.788 -0.1849 -0.0597  0.1712
  579poe    c23 4783   0.485   0.447   6.817 -0.4421 -0.3292 -1.1290
  579poe     o2 4784   0.615   0.398   6.794  0.0431  0.2237  0.2976
  579poe    c23 4785   0.620   0.261   6.829 -0.7193  0.0202 -0.3494
  579poe    c23 4786   0.760   0.199   6.812 -0.5418  0.1810  0.4843
  579poe     o2 4787   0.867   0.243   6.893 -0.0650  0.2997 -0.2024
  579poe    c31 4788   0.982   0.167   6.861 -0.0791  0.0337  0.3649
  580poe    c31 4789   4.696   1.624   2.320 -0.3685 -0.4206 -0.2751
  580poe     o2 4790   4.686   1.491   2.275 -0.3508 -0.3489 -0.4900
  580poe    c23 4791   4.746   1.485   2.147 -0.0185  0.1674 -0.3619
  580poe    c23 4792   4.756   1.342   2.089 -0.0834 -0.0720  0.2100
  580poe     o2 4793   4.793   1.267   2.203 -0.1598 -0.3993  0.0215
  580poe    c23 4794   4.786   1.130   2.171  0.1083 -0.4673  0.2464
  580poe    c23 4795   4.868   1.054   2.277  0.1207 -0.5097  0.2060
  580poe     o2 4796   4.826   1.088   2.407 -0.4258  0.7675 -0.2873
  580poe    c23 4797   4.888   1.013   2.509 -0.9188  0.0514 -0.5104
  580poe    c23 4798   4.816   1.045   2.641  0.3276  0.0797  0.1779
  580poe     o2 4799   4.818   1.184   2.664  0.1239  0.2440 -0.7603
  580poe    c31 4800   4.744   1.218   2.779  0.1805 -0.5268 -0.4914
  581poe    c31 4801   0.339   6.699   2.870 -0.9284  0.2397 -0.0440
  581poe     o2 4802   0.256   6.631   2.962 -0.6672 -0.2627 -0.1776
  581poe    c23 4803   0.266   6.684   3.092 -0.3663 -0.1591 -0.2403
  581poe    c23 4804   0.237   6.560   3.177  0.0184 -0.0448  0.0606
  581poe     o2 4805   0.138   6.481   3.113  0.5743 -0.4696 -0.2787
  581poe    c23 4806   0.146   6.355   3.176  0.2961 -0.3017  0.0934
  581poe    c23 4807   0.026   6.267   3.137  0.7182 -0.7386 -0.2317
  581poe     o2 4808   0.028   6.242   2.998 -0.1200  0.3483 -0.4607
  581poe    c23 4809  -0.100   6.195   2.964 -0.1323 -0.0063  0.0582
  581poe    c23 4810  -0.125   6.168   2.814 -0.0654 -0.1130  0.0659
  581poe     o2 4811  -0.105   6.276   2.726  0.0131  0.2885  0.5678
  581poe    c31 4812  -0.100   6.227   2.594 -0.6287  0.0180  0.6425
  582poe    c31 4813   5.628   4.861   5.063  0.4271 -0.4591 -0.1468
  582poe     o2 4814   5.601   4.918   5.190  0.5147 -0.0994 -0.2875
  582poe    c23 4815   5.631   5.055   5.193  0.1331 -0.0163 -0.2106
  582poe    c23 4816   5.636   5.095   5.342 -0.5195 -0.3764 -0.0903
  582poe     o2 4817   5.554   4.997   5.403 -0.2700 -0.3562  0.2773
  582poe    c23 4818   5.497   5.054   5.518 -0.2122  0.7610 -0.2322
  582poe    c23 4819   5.400   4.941   5.557  0.1069  0.4578 -0.3104
  582poe     o2 4820   5.336   4.889   5.443  0.2282 -0.2474 -0.0591
  582poe    c23 4821   5.252   4.778   5.468  0.1076 -0.1721 -0.1278
  582poe    c23 4822   5.233   4.700   5.336 -0.0488 -1.0848  0.4303
  582poe     o2 4823   5.347   4.712   5.254 -0.3803 -0.4046  0.0580
  582poe    c31 4824   5.370   4.598   5.175  1.2565 -0.1482  0.1469
  583poe    c31 4825   5.258   2.285   2.148 -0.2476 -0.4980  0.0354
  583poe     o2 4826   5.155   2.282   2.245  0.2270 -0.5485  0.5421
  583poe    c23 4827   5.149   2.148   2.288 -0.4359 -0.6731  0.0726
  583poe    c23 4828   5.032   2.153   2.387 -0.6984 -0.4988 -0.2431
  583poe     o2 4829   4.922   2.223   2.332 -0.6622 -0.2214  0.0336
  583poe    c23 4830   4.823   2.245   2.430 -0.2697 -0.2071  0.4308
  583poe    c23 4831   4.724   2.347   2.372 -0.1344 -0.4943 -0.3158
  583poe     o2 4832   4.795   2.440   2.293 -0.1018 -0.1762  0.0807
  583poe    c23 4833   4.715   2.547   2.248  0.0822 -0.0195  0.1288
  583poe    c23 4834   4.634   2.508   2.124 -0.0283 -0.2530  0.2741
  583poe     o2 4835   4.716   2.454   2.022 -0.2512  0.1566 -0.1260
  583poe    c31 4836   4.636   2.411   1.914  0.1903  0.2569 -0.4946
  584poe    c31 4837   3.886   0.830   2.441  0.1972  0.2490  0.0587
  584poe     o2 4838   3.963   0.912   2.526  0.0718  0.0153  0.3979
  584poe    c23 4839   3.913   1.041   2.500 -0.0575 -0.1053  0.0427
  584poe    c23 4840   3.941   1.132   2.621 -0.3218 -0.6469  0.5167
  584poe     o2 4841   4.074   1.095   2.648  0.3035  0.9415 -0.2607
  584poe    c23 4842   4.120   1.158   2.766 -0.0667 -0.1416  0.4763
  584poe    c23 4843   4.252   1.082   2.790  0.2078  0.2168  0.1249
  584poe     o2 4844   4.230   0.948   2.751  0.0718  0.1777  0.3365
  584poe    c23 4845   4.341   0.861   2.754 -0.1136 -0.0560  0.4446
  584poe    c23 4846   4.292   0.725   2.701 -0.0850  0.0339  0.1849
  584poe     o2 4847   4.200   0.737   2.595 -0.0044 -0.7255  0.0215
  584poe    c31 4848   4.212   0.627   2.508  0.2430 -0.1576 -0.6788
  585poe    c31 4849   3.928   2.147   1.849 -0.5427  0.5565 -0.2184
  585poe     o2 4850   3.857   2.226   1.941  0.1040  0.5069  0.3329
  585poe    c23 4851   3.850   2.358   1.891  0.1746  0.5083  0.3271
  585poe    c23 4852   3.749   2.444   1.969 -0.5920 -0.1566  0.0751
  585poe     o2 4853   3.772   2.414   2.104  0.4717  0.8200  0.1224
  585poe    c23 4854   3.682   2.483   2.188 -0.2805  0.0743 -0.0626
  585poe    c23 4855   3.691   2.412   2.325  0.1452  0.1244 -0.0625
  585poe     o2 4856   3.709   2.272   2.314  0.2541  0.1189  0.1748
  585poe    c23 4857   3.768   2.203   2.421 -0.0202  0.0512  0.2821
  585poe    c23 4858   3.799   2.062   2.367 -0.6130  0.1165 -0.2353
  585poe     o2 4859   3.855   2.068   2.238 -0.6535 -0.2749 -0.2721
  585poe    c31 4860   3.909   1.939   2.216 -0.3694 -0.1511 -0.2985
  586poe    c31 4861   3.406   5.658   2.799 -0.4890  0.4714 -0.6180
  586poe     o2 4862   3.312   5.554   2.786 -0.3628  0.2926 -0.1056
  586poe    c23 4863   3.272   5.498   2.909 -0.1639 -0.1461 -0.2381
  586poe    c23 4864   3.125   5.455   2.895 -0.2535  0.0821 -0.0094
  586poe     o2 4865   3.111   5.372   2.782  0.1898 -0.0734  0.0467
  586poe    c23 4866   2.973   5.346   2.765  0.1706 -0.1818  0.3639
  586poe    c23 4867   2.960   5.248   2.647  0.4873  0.2025  0.0060
  586poe     o2 4868   3.070   5.278   2.565  0.5413  0.3466  0.1313
  586poe    c23 4869   3.044   5.240   2.432 -0.1231  0.1245  0.3237
  586poe    c23 4870   3.168   5.187   2.358 -0.1569  0.2852  0.1546
  586poe     o2 4871   3.220   5.071   2.418  0.0957  0.0120 -0.5797
  586poe    c31 4872   3.343   5.026   2.365  0.3627 -0.1934  0.2074
  587poe    c31 4873   0.609   3.231   0.291  0.5679 -0.3665  0.0654
  587poe     o2 4874   0.600   3.369   0.265 -0.0842 -0.4249 -0.0462
  587poe    c23 4875   0.521   3.437   0.360 -0.4964 -0.0481 -0.6570
  587poe    c23 4876   0.440   3.550   0.292 -0.3116  0.0771 -0.6706
  587poe     o2 4877   0.532   3.624   0.215 -0.3129  0.5911 -0.1821
  587poe    c23 4878   0.470   3.730   0.145 -0.3024  0.3754 -0.5196
  587poe    c23 4879   0.584   3.781   0.054 -0.0185  0.1059 -0.3180
  587poe     o2 4880   0.647   3.671  -0.008  0.3211 -0.0015  0.2143
  587poe    c23 4881   0.776   3.697  -0.058  0.3791 -0.6043  0.0406
  587poe    c23 4882   0.884   3.669   0.048  0.9711 -0.5107 -0.5375
  587poe     o2 4883   0.852   3.552   0.120  0.1955 -0.3337 -0.5905
  587poe    c31 4884   0.958   3.522   0.208  0.0512 -0.2633 -0.3928
  588poe    c31 4885   5.156   5.136   2.037  0.7730  0.3533  0.5986
  588poe     o2 4886   5.201   5.044   2.133  0.2180 -0.5166  0.0398
  588poe    c23 4887   5.307   5.089   2.214 -0.2154  0.9138 -0.1658
  588poe    c23 4888   5.278   5.040   2.357 -0.1238  1.0947 -0.0848
  588poe     o2 4889   5.227   4.909   2.355 -0.0420  1.0367  0.9621
  588poe    c23 4890   5.183   4.858   2.479 -0.1206 -0.0984  0.4842
  588poe    c23 4891   5.110   4.733   2.426  0.5499 -0.1253 -0.3955
  588poe     o2 4892   5.011   4.796   2.349 -0.0651 -0.7113 -0.0911
  588poe    c23 4893   4.918   4.698   2.308  0.1082 -0.8876 -0.0619
  588poe    c23 4894   4.841   4.770   2.195  0.2578 -0.6155  0.0095
  588poe     o2 4895   4.935   4.827   2.107 -0.2617 -0.2262 -0.2960
  588poe    c31 4896   4.854   4.887   2.009 -0.1179 -0.2959 -0.4570
  589poe    c31 4897   1.062   2.363   4.774 -0.2561  0.5301  0.2658
  589poe     o2 4898   1.014   2.471   4.851  0.0509  0.1344  1.0242
  589poe    c23 4899   1.118   2.562   4.875  0.2376  0.3250 -0.4158
  589poe    c23 4900   1.064   2.704   4.900 -0.3915 -0.0241  0.2585
  589poe     o2 4901   0.976   2.673   5.005  0.1571 -0.5068  0.5829
  589poe    c23 4902   0.942   2.784   5.086  0.3227  0.0839 -0.1448
  589poe    c23 4903   0.859   2.734   5.206 -0.3564  0.4374 -0.4583
  589poe     o2 4904   0.769   2.630   5.177 -0.2101  0.1601  0.0677
  589poe    c23 4905   0.777   2.529   5.276 -0.5865 -0.2362 -0.3021
  589poe    c23 4906   0.773   2.390   5.211 -0.6302 -0.5524  0.3733
  589poe     o2 4907   0.857   2.381   5.098 -0.3443  0.1534  0.5307
  589poe    c31 4908   0.829   2.260   5.032  0.0016  0.0584  0.5537
  590poe    c31 4909   0.500   3.026   3.556  0.1099  0.5452  0.0551
  590poe     o2 4910   0.568   3.086   3.447 -0.0675  0.7366  0.0495
  590poe    c23 4911   0.705   3.076   3.475 -0.1103  0.1445  0.0728
  590poe    c23 4912   0.775   3.173   3.378  0.3205 -0.2012  0.0366
  590poe     o2 4913   0.720   3.124   3.258  0.1477  0.2089 -0.0514
  590poe    c23 4914   0.754   3.201   3.145  0.6019  0.0814 -0.0028
  590poe    c23 4915   0.698   3.125   3.023 -0.0241 -0.2543  0.4882
  590poe     o2 4916   0.575   3.077   3.074 -0.2233  0.0422  0.2946
  590poe    c23 4917   0.501   2.998   2.984  0.9644 -0.4771 -0.2451
  590poe    c23 4918   0.379   2.961   3.070  1.0106 -0.0416  0.0074
  590poe     o2 4919   0.436   2.937   3.197  0.5196  0.0941  0.2580
  590poe    c31 4920   0.366   2.844   3.277  0.4182  0.1274  0.2081
  591poe    c31 4921   5.303   4.591   1.326 -0.0699  0.6637 -0.2632
  591poe     o2 4922   5.394   4.630   1.425 -0.6685 -0.4360  0.7440
  591poe    c23 4923   5.507   4.554   1.387 -0.4867  0.5608 -0.7617
  591poe    c23 4924   5.635   4.587   1.466 -0.6283 -0.0131 -0.2846
  591poe     o2 4925   5.696   4.714   1.470 -0.1230 -0.2638  0.0286
  591poe    c23 4926   5.727   4.782   1.350  0.8289  0.0024  0.4152
  591poe    c23 4927   5.649   4.914   1.367  0.6589  0.0203 -0.4843
  591poe     o2 4928   5.511   4.883   1.370  0.6622  0.0636  0.1008
  591poe    c23 4929   5.445   5.008   1.358 -0.1989 -0.3745  0.1966
  591poe    c23 4930   5.294   4.981   1.353 -0.3505  0.4971 -0.0124
  591poe     o2 4931   5.263   4.891   1.457  0.0013  0.1022 -0.2455
  591poe    c31 4932   5.147   4.930   1.528  0.5229  0.0228  0.6701
  592poe    c31 4933   0.653   6.016   2.861  0.0546  0.1231 -0.4358
  592poe     o2 4934   0.649   6.140   2.928 -0.7864 -0.1179 -0.0237
  592poe    c23 4935   0.536   6.219   2.898 -0.0901  0.8176 -0.2401
  592poe    c23 4936   0.551   6.327   3.008 -0.2717  0.4711  0.1286
  592poe     o2 4937   0.690   6.354   3.007 -0.1530 -0.1187  0.3328
  592poe    c23 4938   0.730   6.475   3.065 -0.4039  0.2952 -0.3468
  592poe    c23 4939   0.840   6.451   3.171 -0.1822  0.1806 -0.6024
  592poe     o2 4940   0.940   6.356   3.139  0.1362  0.1922  0.3331
  592poe    c23 4941   1.035   6.348   3.242  0.5164  0.1678 -0.0176
  592poe    c23 4942   1.130   6.227   3.226  0.1032 -0.1709  0.0508
  592poe     o2 4943   1.054   6.113   3.256 -0.0209 -0.0419  0.2293
  592poe    c31 4944   1.138   6.003   3.228  0.3281  0.1298  0.5900
  593poe    c31 4945   3.202   3.176   3.055  0.0568 -0.1075 -0.2760
  593poe     o2 4946   3.248   3.296   2.997  0.1555 -0.1071 -0.1954
  593poe    c23 4947   3.313   3.281   2.873 -0.1044  0.2263 -0.3728
  593poe    c23 4948   3.357   3.418   2.816  0.0203  0.3004 -0.1007
  593poe     o2 4949   3.242   3.496   2.839 -0.4803 -0.1837 -0.8962
  593poe    c23 4950   3.259   3.630   2.798  0.0562 -0.2333 -0.8429
  593poe    c23 4951   3.123   3.691   2.837  0.5044 -0.1243  0.6100
  593poe     o2 4952   3.107   3.660   2.974  0.0798 -0.1623  0.5556
  593poe    c23 4953   2.979   3.679   3.029 -0.4354 -0.2914 -0.5654
  593poe    c23 4954   2.983   3.611   3.168 -0.1565  0.4255 -0.2196
  593poe     o2 4955   3.029   3.482   3.136  0.1029  0.4389  0.0974
  593poe    c31 4956   3.021   3.400   3.250  0.0737 -0.1143 -0.2999
  594poe    c31 4957   3.143   2.418   4.032  0.0036  0.1268 -0.3564
  594poe     o2 4958   3.263   2.361   3.984  0.0582  0.1787 -0.2819
  594poe    c23 4959   3.255   2.289   3.863 -0.0730  0.4722 -0.4492
  594poe    c23 4960   3.365   2.336   3.766 -0.0752 -0.1103 -0.7373
  594poe     o2 4961   3.486   2.316   3.836 -0.1788  0.4585 -0.3914
  594poe    c23 4962   3.592   2.405   3.809  0.3777 -0.1619 -0.2683
  594poe    c23 4963   3.579   2.526   3.902  0.0049 -0.3634 -0.0592
  594poe     o2 4964   3.558   2.463   4.027 -0.1577 -0.3313 -0.0692
  594poe    c23 4965   3.511   2.556   4.121 -0.2798  0.1967 -0.6432
  594poe    c23 4966   3.476   2.475   4.247  0.0230  0.0736 -0.6359
  594poe     o2 4967   3.410   2.355   4.214 -0.3323  0.1957 -0.3813
  594poe    c31 4968   3.372   2.288   4.332 -0.1344  0.1770 -0.3272
  595poe    c31 4969   0.656   2.153   0.517 -0.0471  0.5945  0.5205
  595poe     o2 4970   0.546   2.146   0.605 -0.4118 -0.1354  0.0188
  595poe    c23 4971   0.500   2.021   0.650  0.0712 -0.2080  0.3154
  595poe    c23 4972   0.419   2.034   0.780  0.1084  0.2940  0.2910
  595poe     o2 4973   0.359   2.162   0.774  0.1096  0.2874  0.1399
  595poe    c23 4974   0.317   2.204   0.902  0.0891  0.3903  0.0995
  595poe    c23 4975   0.285   2.352   0.874 -0.7688  0.2058  0.0685
  595poe     o2 4976   0.392   2.392   0.791 -0.3490  0.6706  0.8263
  595poe    c23 4977   0.435   2.522   0.824 -0.7004  1.0117 -0.0297
  595poe    c23 4978   0.521   2.561   0.702 -0.5098 -0.3614 -0.3471
  595poe     o2 4979   0.571   2.451   0.630  0.2851  0.1753 -0.6301
  595poe    c31 4980   0.686   2.501   0.566  0.8689 -0.0796  0.2061
  596poe    c31 4981   0.727   5.855   5.923  0.0252  0.1404 -0.0689
  596poe     o2 4982   0.834   5.812   5.843 -0.0573 -0.0718 -0.0678
  596poe    c23 4983   0.913   5.737   5.932 -0.2133 -0.1986 -0.0367
  596poe    c23 4984   1.010   5.655   5.845  0.2394  0.2390  0.0500
  596poe     o2 4985   0.940   5.619   5.728  0.1351 -0.2014  0.2436
  596poe    c23 4986   1.015   5.568   5.620  0.3519  0.7171 -0.0506
  596poe    c23 4987   0.930   5.607   5.498  0.0928  0.1080 -0.0677
  596poe     o2 4988   0.900   5.744   5.505 -0.1925  0.0320  0.1679
  596poe    c23 4989   0.830   5.788   5.391  0.3821 -0.0717 -0.2210
  596poe    c23 4990   0.787   5.932   5.423  0.1557 -0.2254  0.1653
  596poe     o2 4991   0.728   5.918   5.551 -0.1478  0.0131  0.0544
  596poe    c31 4992   0.714   6.045   5.609 -0.1578  0.0164  0.0440
  597poe    c31 4993   0.437   4.753   3.771  0.0715  0.1651 -0.2223
  597poe     o2 4994   0.302   4.781   3.740  0.1646  0.4011 -0.4128
  597poe    c23 4995   0.234   4.797   3.863 -0.0421 -0.3560 -0.4291
  597poe    c23 4996   0.091   4.740   3.854 -0.6455  1.0031  0.3293
  597poe     o2 4997   0.030   4.762   3.728  0.0751 -0.0483 -0.2173
  597poe    c23 4998  -0.045   4.652   3.682  0.1842 -0.2718  0.1302
  597poe    c23 4999  -0.031   4.667   3.529 -0.2609  0.0728  0.1183
  597poe     o2 5000   0.104   4.698   3.503 -0.3900  0.0984 -0.5215
  597poe    c23 5001   0.148   4.697   3.369 -0.1937 -0.0927 -0.4567
  597poe    c23 5002   0.302   4.693   3.379 -0.2067  0.4220 -0.0055
  597poe     o2 5003   0.339   4.781   3.483 -0.4633  0.3155  0.1772
  597poe    c31 5004   0.451   4.854   3.438 -0.3818  0.2213  0.2282
  598poe    c31 5005   5.573   1.395   4.476  0.0904 -0.0805 -0.1141
  598poe     o2 5006   5.504   1.489   4.396 -0.4678 -0.7103 -0.3834
  598poe    c23 5007   5.365   1.492   4.419 -0.4497 -0.4035 -0.3107
  598poe    c23 5008   5.294   1.562   4.301 -0.5283 -0.6489 -0.4086
  598poe     o2 5009   5.380   1.668   4.268 -0.5601 -0.6688 -0.5544
  598poe    c23 5010   5.352   1.744   4.152  0.2792  0.0787 -0.2806
  598poe    c23 5011   5.474   1.830   4.114  0.2711  0.3949  0.4071
  598poe     o2 5012   5.584   1.756   4.160 -0.4291 -0.1482  1.2287
  598poe    c23 5013   5.703   1.829   4.179 -0.3003 -0.0428  0.0593
  598poe    c23 5014   5.791   1.749   4.277  0.0866  0.5373  0.1896
  598poe     o2 5015   5.698   1.702   4.372  0.5123 -0.4974  0.1013
  598poe    c31 5016   5.723   1.772   4.492 -0.0936  0.1633 -0.1589
  599poe    c31 5017   3.157   5.223   6.265 -0.1523  0.1717 -0.2127
  599poe     o2 5018   3.251   5.141   6.331 -0.1343  0.2348 -0.1592
  599poe    c23 5019   3.247   5.010   6.279 -0.0667  0.0691  0.2557
  599poe    c23 5020   3.379   4.945   6.327 -0.2865 -0.5660  0.0154
  599poe     o2 5021   3.404   4.991   6.458  0.4104  0.2849 -0.4083
  599poe    c23 5022   3.529   4.949   6.507  0.0712 -0.1542  0.0851
  599poe    c23 5023   3.539   4.999   6.652 -0.1616 -0.1706  0.1063
  599poe     o2 5024   3.481   5.127   6.639  0.4194  0.1527  0.5983
  599poe    c23 5025   3.415   5.178   6.752 -0.2962  0.0271  0.2447
  599poe    c23 5026   3.352   5.311   6.707  0.3165  0.0310 -0.6149
  599poe     o2 5027   3.273   5.281   6.594 -0.5728 -1.1496  0.2919
  599poe    c31 5028   3.165   5.372   6.595  0.2760 -0.1396  0.7288
  600poe    c31 5029   1.419   2.436   1.671 -0.8585  0.1389  0.8667
  600poe     o2 5030   1.335   2.347   1.601 -0.0334  0.1077 -0.1080
  600poe    c23 5031   1.212   2.332   1.668 -0.0341  0.3905 -0.0416
  600poe    c23 5032   1.118   2.261   1.568 -0.1585 -0.2922  0.5474
  600poe     o2 5033   1.177   2.172   1.477 -0.3327  0.2404 -0.0979
  600poe    c23 5034   1.085   2.099   1.398  0.0812 -0.7999  0.3597
  600poe    c23 5035   1.138   1.979   1.318  0.1875 -0.5358  0.0307
  600poe     o2 5036   1.245   2.024   1.238 -0.3048  0.3492 -0.1408
  600poe    c23 5037   1.287   1.930   1.142 -0.0695  0.3933 -0.0813
  600poe    c23 5038   1.364   1.996   1.026  0.3348  0.2385  0.0978
  600poe     o2 5039   1.416   1.895   0.942  0.1673  0.2387 -0.0066
  600poe    c31 5040   1.407   1.925   0.805  0.4147  0.5184  0.0388
  601poe    c31 5041   6.235   5.148   6.283  0.3804  0.0952 -0.3914
  601poe     o2 5042   6.119   5.095   6.223  0.3872  0.0794 -0.3914
  601poe    c23 5043   6.012   5.184   6.247  0.3662 -0.1567  0.3953
  601poe    c23 5044   5.884   5.111   6.203  0.5040  0.2931 -0.7687
  601poe     o2 5045   5.892   5.050   6.076 -0.1801 -0.3626 -0.5004
  601poe    c23 5046   5.789   4.960   6.041 -0.4040 -0.1300 -0.4391
  601poe    c23 5047   5.855   4.849   5.957  0.2360  0.1757 -0.3422
  601poe     o2 5048   5.985   4.839   6.011 -0.0424  0.1317  0.3278
  601poe    c23 5049   6.074   4.739   5.969 -0.0780  0.0972  0.3354
  601poe    c23 5050   6.207   4.761   6.045  0.0270 -0.3107  0.2768
  601poe     o2 5051   6.233   4.899   6.037  0.0451 -0.3412 -0.2025
  601poe    c31 5052   6.371   4.924   6.056 -0.2051  0.7004  0.2877
  602poe    c31 5053   4.940   2.357   5.170  0.1968 -0.0684 -0.6299
  602poe     o2 5054   5.077   2.357   5.202  0.1018  0.4069 -0.2071
  602poe    c23 5055   5.138   2.455   5.122  0.5006 -0.1030 -0.5329
  602poe    c23 5056   5.288   2.468   5.157  0.3457 -0.1361  0.1494
  602poe     o2 5057   5.365   2.383   5.076  0.3974  0.0308  0.0213
  602poe    c23 5058   5.500   2.422   5.083  0.2900  0.3393  0.4103
  602poe    c23 5059   5.563   2.351   4.961 -0.5984  0.0505  0.1125
  602poe     o2 5060   5.529   2.215   4.970 -0.1994 -0.1213 -0.9306
  602poe    c23 5061   5.589   2.129   4.875  0.4265 -0.7041 -0.0290
  602poe    c23 5062   5.522   1.993   4.901 -0.1611 -0.4794 -0.3241
  602poe     o2 5063   5.386   2.014   4.931 -0.0128 -0.1884  0.1575
  602poe    c31 5064   5.306   1.903   4.898  0.0466 -0.0580 -0.4499
  603poe    c31 5065   1.508   6.142   2.795  0.1742 -0.1416  0.4052
  603poe     o2 5066   1.600   6.218   2.870  0.3676 -0.1016  0.1279
  603poe    c23 5067   1.592   6.186   3.007 -0.3543  0.1975  0.1601
  603poe    c23 5068   1.724   6.211   3.082  0.1680 -0.4072 -0.5389
  603poe     o2 5069   1.751   6.343   3.039 -0.3837 -0.2325 -0.3490
  603poe    c23 5070   1.867   6.400   3.094 -0.2845 -0.5427 -0.2316
  603poe    c23 5071   1.891   6.525   3.007  0.5621 -0.5931 -0.0844
  603poe     o2 5072   1.842   6.482   2.882  0.0079  0.6189 -0.3057
  603poe    c23 5073   1.942   6.453   2.787 -0.1942  0.1465 -0.3802
  603poe    c23 5074   1.871   6.427   2.653 -0.0718 -0.6579 -0.2944
  603poe     o2 5075   1.741   6.385   2.688 -0.0092 -0.4351  0.2150
  603poe    c31 5076   1.671   6.369   2.567 -0.3795  0.6009  0.2813
  604poe    c31 5077   3.479   1.729   6.274  0.0701  0.1454 -0.0585
  604poe     o2 5078   3.544   1.695   6.395 -0.1929  0.3090  0.1284
  604poe    c23 5079   3.509   1.779   6.503  0.0021  0.1989  0.2762
  604poe    c23 5080   3.626   1.769   6.603  0.1125  0.1894  0.1461
  604poe     o2 5081   3.641   1.630   6.620  0.1874  0.1342 -0.3651
  604poe    c23 5082   3.755   1.590   6.692 -0.1779  0.2371  0.2783
  604poe    c23 5083   3.744   1.438   6.669 -0.1016  0.2898 -0.1036
  604poe     o2 5084   3.694   1.413   6.539  0.4687  0.3903 -0.3454
  604poe    c23 5085   3.763   1.309   6.474 -0.2944 -0.0242 -0.5045
  604poe    c23 5086   3.695   1.282   6.339 -0.1808 -0.1879 -0.5303
  604poe     o2 5087   3.662   1.407   6.282  0.6042  0.0678 -0.4285
  604poe    c31 5088   3.622   1.380   6.150 -0.4748  0.7021 -0.2480
  605poe    c31 5089   0.155   5.255   5.588 -0.4275  0.2399 -0.0394
  605poe     o2 5090   0.035   5.189   5.555 -0.6909  0.5238  0.3492
  605poe    c23 5091  -0.074   5.275   5.582 -0.8057  0.5726 -0.2449
  605poe    c23 5092  -0.173   5.209   5.680 -0.2094  0.3933  0.2442
  605poe     o2 5093  -0.254   5.104   5.633 -0.1282  0.2909  0.3316
  605poe    c23 5094  -0.176   4.987   5.620 -0.1903  0.2699  0.1482
  605poe    c23 5095  -0.253   4.859   5.656 -0.2066  0.1882 -0.1742
  605poe     o2 5096  -0.367   4.886   5.578 -0.0922  0.7533 -0.1527
  605poe    c23 5097  -0.466   4.785   5.568  0.2952  0.4145 -0.6223
  605poe    c23 5098  -0.569   4.831   5.463  0.0460  0.1971 -0.4720
  605poe     o2 5099  -0.589   4.967   5.495  0.5297  0.1558  0.0029
  605poe    c31 5100  -0.726   4.999   5.482  0.4507 -0.2591 -0.2038
  606poe    c31 5101   2.451   2.106   3.158  0.1287  0.0535 -0.3786
  606poe     o2 5102   2.386   2.231   3.158  0.2866  0.1390  0.1652
  606poe    c23 5103   2.482   2.327   3.121  0.2398 -0.0278 -0.4082
  606poe    c23 5104   2.419   2.447   3.047 -0.3703 -0.0313  0.0943
  606poe     o2 5105   2.317   2.502   3.127 -0.5754  0.1131 -0.2656
  606poe    c23 5106   2.212   2.542   3.042 -0.1644 -0.1138 -0.8866
  606poe    c23 5107   2.083   2.537   3.127  0.4265 -0.6011 -0.0124
  606poe     o2 5108   2.092   2.417   3.201  0.5181 -0.3694  0.3544
  606poe    c23 5109   1.989   2.400   3.295  0.0596 -0.2336 -0.1168
  606poe    c23 5110   1.990   2.248   3.320  0.0508 -0.2766 -0.3801
  606poe     o2 5111   2.119   2.193   3.336 -0.0232 -0.3554 -0.0444
  606poe    c31 5112   2.106   2.082   3.421  0.4266 -0.1733  0.2673
  607poe    c31 5113   2.856   3.366   1.679  0.2359  0.1740 -0.3685
  607poe     o2 5114   2.810   3.497   1.654 -0.1375  0.0610 -0.2735
  607poe    c23 5115   2.730   3.538   1.763  0.0179  0.5110 -0.3292
  607poe    c23 5116   2.613   3.621   1.705 -0.1478  0.2854 -0.3163
  607poe     o2 5117   2.678   3.711   1.619 -0.0448  0.5181  0.0002
  607poe    c23 5118   2.596   3.813   1.567 -0.4551 -0.1003 -0.5958
  607poe    c23 5119   2.685   3.884   1.462 -0.4209  0.1292 -0.4136
  607poe     o2 5120   2.755   3.794   1.378  0.0180 -0.1482  0.2395
  607poe    c23 5121   2.881   3.842   1.338 -0.1585  0.0169 -0.1175
  607poe    c23 5122   2.981   3.725   1.344 -0.1201  0.0512 -0.0992
  607poe     o2 5123   3.002   3.686   1.478 -0.0322 -0.4580 -0.2601
  607poe    c31 5124   3.137   3.649   1.497 -0.1381 -0.8060 -0.1768
  608poe    c31 5125   3.348   4.994   3.539  0.5676  0.1965  0.2986
  608poe     o2 5126   3.258   4.976   3.432  0.0791 -0.0503  0.7430
  608poe    c23 5127   3.133   5.006   3.488 -0.0351  0.2176  0.3468
  608poe    c23 5128   3.015   4.941   3.412  0.3524 -0.1778  0.0804
  608poe     o2 5129   3.020   4.801   3.422 -0.2618 -0.1546  0.7786
  608poe    c23 5130   2.901   4.744   3.373  0.0527  0.0225 -0.2124
  608poe    c23 5131   2.935   4.595   3.354 -0.1102 -0.0441  0.0194
  608poe     o2 5132   2.992   4.545   3.473 -0.0079  0.2141  0.0790
  608poe    c23 5133   2.977   4.405   3.467  0.2700  0.1821  0.1121
  608poe    c23 5134   2.993   4.336   3.604  0.1868 -0.5802 -0.2565
  608poe     o2 5135   3.120   4.372   3.652 -0.3636 -0.0217  0.8240
  608poe    c31 5136   3.180   4.276   3.736 -0.0153 -0.2067  0.3700
  609poe    c31 5137   2.733   0.153   1.721 -0.1537 -0.1290 -0.2737
  609poe     o2 5138   2.776   0.019   1.729 -0.0316 -0.0425  0.7476
  609poe    c23 5139   2.917   0.016   1.730 -0.0280  0.0571  0.6080
  609poe    c23 5140   2.965  -0.130   1.716 -0.4752 -0.0105 -0.3392
  609poe     o2 5141   2.902  -0.220   1.805 -0.1789 -0.0293 -0.1468
  609poe    c23 5142   2.929  -0.356   1.780  0.5695 -0.0154  0.5415
  609poe    c23 5143   2.880  -0.447   1.894 -0.4797 -0.2404 -0.0785
  609poe     o2 5144   2.761  -0.392   1.946 -0.4254 -0.0734 -0.1313
  609poe    c23 5145   2.647  -0.449   1.887 -0.7627  0.8357 -0.3748
  609poe    c23 5146   2.533  -0.360   1.939 -0.7517  0.2674  0.6591
  609poe     o2 5147   2.552  -0.227   1.896 -0.2809  0.0266  0.1051
  609poe    c31 5148   2.423  -0.169   1.897 -0.1639  0.2893  0.5131
  610poe    c31 5149   6.636   2.475   4.442 -0.2312 -0.2293 -0.2634
  610poe     o2 5150   6.602   2.592   4.372 -0.3145 -0.2135 -0.1966
  610poe    c23 5151   6.674   2.593   4.250 -0.4869 -0.1670 -0.2990
  610poe    c23 5152   6.647   2.722   4.170  0.0899 -0.3183 -0.7421
  610poe     o2 5153   6.508   2.733   4.146 -0.0105 -0.0750 -0.0570
  610poe    c23 5154   6.496   2.794   4.019 -0.0402 -0.5237 -0.2688
  610poe    c23 5155   6.351   2.766   3.977 -0.3239  0.6090 -0.0779
  610poe     o2 5156   6.261   2.778   4.085 -0.2740 -1.0215  0.1819
  610poe    c23 5157   6.130   2.751   4.042 -0.1908 -0.0672 -0.7273
  610poe    c23 5158   6.025   2.810   4.138  0.3084 -0.2744 -0.0457
  610poe     o2 5159   6.026   2.743   4.262  0.3824  0.3503  0.2951
  610poe    c31 5160   5.893   2.719   4.303  0.2403  0.8172  0.1158
  611poe    c31 5161   6.248   0.470   4.967 -0.1122 -0.2364 -0.2552
  611poe     o2 5162   6.218   0.375   5.066 -0.0717 -0.0312 -0.0466
  611poe    c23 5163   6.298   0.396   5.180  0.1015 -0.6215 -0.0548
  611poe    c23 5164   6.285   0.297   5.298 -0.3846 -0.5837 -0.0766
  611poe     o2 5165   6.351   0.172   5.290  0.1660 -0.3530  0.8014
  611poe    c23 5166   6.284   0.074   5.366 -0.7209 -0.3870 -0.0102
  611poe    c23 5167   6.366  -0.056   5.360  0.4590  0.3239  0.4634
  611poe     o2 5168   6.394  -0.089   5.226 -0.2170 -0.2993  0.4720
  611poe    c23 5169   6.425  -0.225   5.204 -0.5966 -0.3010 -0.0599
  611poe    c23 5170   6.404  -0.251   5.053 -0.1186 -0.2321 -0.1389
  611poe     o2 5171   6.446  -0.137   4.982  0.4736 -0.3476  0.0183
  611poe    c31 5172   6.456  -0.173   4.846  0.6637  0.3461 -0.1548
  612poe    c31 5173   4.034   3.851   4.157 -0.2300  0.3736  0.4982
  612poe     o2 5174   4.017   3.979   4.100  0.2128  0.0059 -0.4985
  612poe    c23 5175   3.880   4.012   4.100  0.2549  0.1851 -0.0111
  612poe    c23 5176   3.851   4.057   3.956  0.2105 -0.1476 -0.1072
  612poe     o2 5177   3.942   4.162   3.931  0.3718 -0.1216  0.5586
  612poe    c23 5178   3.979   4.162   3.795 -0.0918 -0.0006  0.4281
  612poe    c23 5179   4.117   4.231   3.787 -0.1767  0.1677  0.3995
  612poe     o2 5180   4.196   4.153   3.874  0.0254 -0.3855 -0.2669
  612poe    c23 5181   4.316   4.210   3.921 -0.0756 -0.4958  0.1342
  612poe    c23 5182   4.360   4.130   4.045 -0.2994  0.0317  0.5566
  612poe     o2 5183   4.252   4.130   4.136 -0.2921  0.7891  0.5702
  612poe    c31 5184   4.299   4.110   4.267 -0.5380 -0.2900  0.5000
  613poe    c31 5185   5.506   3.282   6.370 -0.1838  0.3648  0.1308
  613poe     o2 5186   5.457   3.413   6.349 -0.5345  0.1603 -0.3278
  613poe    c23 5187   5.539   3.496   6.270 -0.3032 -0.3012 -0.5791
  613poe    c23 5188   5.453   3.622   6.252  0.3259  0.2175 -0.0204
  613poe     o2 5189   5.425   3.667   6.382 -0.0931  0.3197 -0.1434
  613poe    c23 5190   5.343   3.782   6.373 -0.0220  0.3709 -0.1401
  613poe    c23 5191   5.323   3.833   6.517 -0.1622 -0.0509 -0.0070
  613poe     o2 5192   5.291   3.724   6.600  0.0030 -0.3398 -0.3220
  613poe    c23 5193   5.238   3.769   6.723  0.5619  0.8937 -0.5142
  613poe    c23 5194   5.323   3.782   6.850  0.0602 -0.2455 -0.0382
  613poe     o2 5195   5.345   3.663   6.922  0.1631  0.0193  0.3717
  613poe    c31 5196   5.301   3.685   7.054  0.2256  0.1391  0.3727
  614poe    c31 5197   5.618   0.566   4.290 -0.1584 -0.8038 -0.1406
  614poe     o2 5198   5.510   0.628   4.225  0.0713  0.3027  0.5131
  614poe    c23 5199   5.482   0.541   4.118  0.7796  0.2804  0.3468
  614poe    c23 5200   5.370   0.612   4.038  0.8260 -0.3705 -0.3077
  614poe     o2 5201   5.397   0.749   4.055 -0.1549 -0.2563  0.4331
  614poe    c23 5202   5.283   0.831   4.048  0.2084  0.2676  0.5746
  614poe    c23 5203   5.338   0.974   4.064 -0.3613  0.5402  0.1512
  614poe     o2 5204   5.439   0.959   4.161 -0.1022 -0.1566 -0.2201
  614poe    c23 5205   5.541   1.057   4.153  0.1370 -0.4218 -0.4244
  614poe    c23 5206   5.647   1.032   4.261 -0.0646 -0.1699 -0.1681
  614poe     o2 5207   5.682   0.896   4.252 -0.2625 -0.2628  0.3912
  614poe    c31 5208   5.791   0.859   4.334  0.3651 -0.1086 -0.3607
  615poe    c31 5209   0.731   1.796   4.163 -0.3522 -0.0093 -0.3010
  615poe     o2 5210   0.815   1.888   4.097 -0.1630  0.0628  0.0345
  615poe    c23 5211   0.777   1.898   3.961 -0.2356 -0.2870  0.0279
  615poe    c23 5212   0.844   2.020   3.895  0.3305 -0.3849  0.4096
  615poe     o2 5213   0.974   2.029   3.949  0.4737 -0.1748  0.0340
  615poe    c23 5214   1.054   2.099   3.857 -0.3598 -0.0271 -0.5972
  615poe    c23 5215   1.200   2.107   3.906 -0.5102 -0.4067 -0.0693
  615poe     o2 5216   1.192   2.171   4.031  0.0310  0.0141 -0.2409
  615poe    c23 5217   1.304   2.140   4.111  0.0301  0.7126  0.0414
  615poe    c23 5218   1.315   2.214   4.246  0.3612 -0.2949  0.5744
  615poe     o2 5219   1.193   2.203   4.316  0.0276 -0.0588  0.0379
  615poe    c31 5220   1.177   2.311   4.405 -0.5087 -0.6989  0.7296
  616poe    c31 5221   3.452   1.451   2.055 -0.4743  0.9866 -0.4765
  616poe     o2 5222   3.589   1.482   2.041 -0.3136  0.3942 -0.2274
  616poe    c23 5223   3.599   1.620   2.015 -0.4968  0.5445  0.4743
  616poe    c23 5224   3.743   1.660   2.052 -0.1677  0.0753 -0.2660
  616poe     o2 5225   3.831   1.561   2.004 -0.4211 -0.3850  0.2081
  616poe    c23 5226   3.964   1.585   2.044 -0.2700 -0.3797 -0.2849
  616poe    c23 5227   4.049   1.474   1.980  0.2635 -0.5154  0.6386
  616poe     o2 5228   3.978   1.354   1.998  0.3598 -0.7088 -0.2155
  616poe    c23 5229   3.988   1.287   2.122  0.1702 -0.2734  0.0380
  616poe    c23 5230   3.879   1.178   2.134 -0.1614  0.0020 -0.4483
  616poe     o2 5231   3.760   1.241   2.092 -0.3251  0.0109  0.0304
  616poe    c31 5232   3.657   1.193   2.176 -0.1611 -0.0835  0.1776
  617poe    c31 5233   2.636   3.006   1.267  0.2315  0.0203 -0.9607
  617poe     o2 5234   2.675   2.872   1.287  0.5546  0.2534  0.0281
  617poe    c23 5235   2.657   2.833   1.422  0.0106  0.1023 -0.0819
  617poe    c23 5236   2.726   2.701   1.459 -0.4022 -0.1188 -0.1084
  617poe     o2 5237   2.743   2.633   1.337  0.2680  0.1392 -0.1621
  617poe    c23 5238   2.828   2.520   1.347 -0.1551 -0.1400  0.3292
  617poe    c23 5239   2.857   2.485   1.200 -0.4612  0.2255  0.1798
  617poe     o2 5240   2.905   2.610   1.153 -0.4108  0.2668  0.3435
  617poe    c23 5241   2.913   2.622   1.013  0.7476  1.1267  0.4713
  617poe    c23 5242   2.773   2.642   0.953  0.6955 -0.0498  0.1857
  617poe     o2 5243   2.706   2.739   1.030  0.4157 -0.1545  0.0759
  617poe    c31 5244   2.577   2.767   0.979  0.3389  0.2475  0.4795
  618poe    c31 5245   2.795   4.780   2.674 -0.0121  0.1158 -0.3304
  618poe     o2 5246   2.897   4.736   2.587  0.1464  0.6901 -0.4412
  618poe    c23 5247   3.013   4.812   2.565  0.4732  0.3048 -0.0802
  618poe    c23 5248   3.129   4.737   2.498  0.6443  0.3923  0.1157
  618poe     o2 5249   3.090   4.667   2.381  0.1995  0.5378  0.1760
  618poe    c23 5250   3.191   4.616   2.297 -0.1300  0.3363 -0.0995
  618poe    c23 5251   3.121   4.583   2.164 -0.2237  0.9767 -0.2121
  618poe     o2 5252   2.993   4.535   2.198  0.1258  0.3558  0.2412
  618poe    c23 5253   2.921   4.500   2.081  0.6089 -0.0312  0.0573
  618poe    c23 5254   2.772   4.484   2.115  0.6495  0.4107  0.4577
  618poe     o2 5255   2.730   4.576   2.213  0.1045  0.6784 -0.0202
  618poe    c31 5256   2.590   4.589   2.217 -0.0123 -0.5494  0.1655
  619poe    c31 5257   3.117   3.319   0.787  0.3875  0.7843  0.5852
  619poe     o2 5258   3.220   3.246   0.725 -0.5432 -0.2434  0.2140
  619poe    c23 5259   3.340   3.268   0.794 -0.3004 -0.0832 -0.2512
  619poe    c23 5260   3.460   3.216   0.713  0.1383 -0.0507  0.3675
  619poe     o2 5261   3.432   3.090   0.655 -0.1884 -0.0745  0.5767
  619poe    c23 5262   3.452   2.977   0.738  0.2374 -0.1417  0.3869
  619poe    c23 5263   3.360   2.869   0.677  0.4499 -0.1625  0.0996
  619poe     o2 5264   3.230   2.921   0.680  0.2857 -0.5760  0.3027
  619poe    c23 5265   3.133   2.829   0.634 -0.3960  0.3083 -0.0633
  619poe    c23 5266   3.005   2.915   0.628 -0.6430 -0.1039 -0.8094
  619poe     o2 5267   3.046   3.045   0.592  0.8214 -0.1813  0.4477
  619poe    c31 5268   2.922   3.103   0.558  0.2487 -1.6098  0.0084
  620poe    c31 5269   4.414   0.327   6.490  0.2413 -0.5731  0.0482
  620poe     o2 5270   4.357   0.359   6.614 -0.4179 -0.4429 -0.2854
  620poe    c23 5271   4.216   0.358   6.607 -0.4173 -0.1695 -0.3842
  620poe    c23 5272   4.163   0.438   6.727 -0.0768 -0.1450 -0.2498
  620poe     o2 5273   4.197   0.575   6.719  0.0507 -0.1553  0.0955
  620poe    c23 5274   4.146   0.659   6.821  0.4334 -0.2877  0.4009
  620poe    c23 5275   4.205   0.800   6.799  0.0546 -0.1394  0.3243
  620poe     o2 5276   4.340   0.795   6.760  0.0773  0.2868  0.3476
  620poe    c23 5277   4.389   0.926   6.739 -0.1450  0.3149 -0.0107
  620poe    c23 5278   4.528   0.899   6.678 -0.1498  0.1616  0.0440
  620poe     o2 5279   4.527   0.792   6.586  0.2240 -0.1266  0.3681
  620poe    c31 5280   4.655   0.789   6.528  0.0588  0.3724 -0.0317
  621poe    c31 5281   6.396   5.666   3.581  0.2423  0.2061  0.1423
  621poe     o2 5282   6.355   5.680   3.715 -0.0341  1.1830 -0.0311
  621poe    c23 5283   6.236   5.754   3.725 -0.8104 -0.0616  0.0789
  621poe    c23 5284   6.185   5.732   3.869  0.2996 -0.4022  0.4310
  621poe     o2 5285   6.299   5.744   3.950  0.3634  0.2740  0.2447
  621poe    c23 5286   6.289   5.726   4.090 -0.0946  0.0348  0.1834
  621poe    c23 5287   6.433   5.753   4.138 -0.2145  0.1870  0.4586
  621poe     o2 5288   6.503   5.665   4.052 -0.1621  0.3594  0.3233
  621poe    c23 5289   6.633   5.719   4.042 -0.1617  0.2994  0.0058
  621poe    c23 5290   6.707   5.627   3.943  0.0268 -0.0611  0.4761
  621poe     o2 5291   6.623   5.614   3.830 -0.2761 -0.5898  0.7581
  621poe    c31 5292   6.663   5.503   3.752  0.4603  0.1760  0.0258
  622poe    c31 5293   0.932   4.584   1.688  0.1344  0.1277  0.2814
  622poe     o2 5294   0.971   4.452   1.656  0.1989  0.1799  0.1425
  622poe    c23 5295   0.882   4.360   1.716  0.4599  0.1879  0.5471
  622poe    c23 5296   0.934   4.221   1.676 -0.4772 -0.0068 -0.0197
  622poe     o2 5297   0.925   4.203   1.536 -0.1275 -0.3881  0.0063
  622poe    c23 5298   1.009   4.100   1.487 -0.0433 -0.4317  0.2421
  622poe    c23 5299   0.990   4.099   1.335  0.8681 -0.1684  0.1230
  622poe     o2 5300   1.049   4.202   1.258 -0.0181  0.3622  0.1374
  622poe    c23 5301   1.061   4.163   1.123 -0.5537 -0.2280  0.2551
  622poe    c23 5302   1.139   4.279   1.059 -0.6244 -0.1143  0.3739
  622poe     o2 5303   1.098   4.403   1.113  0.3371  0.2417  0.3116
  622poe    c31 5304   1.171   4.516   1.072  0.1895  0.5250  0.8158
  623poe    c31 5305   1.805   4.985   1.745 -0.1713 -0.1768  0.1122
  623poe     o2 5306   1.694   4.981   1.832 -0.3111  0.7757 -0.0161
  623poe    c23 5307   1.695   5.107   1.897 -0.0235  0.8390 -0.1407
  623poe    c23 5308   1.586   5.115   2.005 -0.2136  0.3014 -0.2892
  623poe     o2 5309   1.581   4.987   2.064 -0.0005  0.2490 -0.3861
  623poe    c23 5310   1.504   4.998   2.181  0.1940  0.1952 -0.2525
  623poe    c23 5311   1.482   4.853   2.227  0.1062  0.2963  0.0251
  623poe     o2 5312   1.407   4.783   2.130 -0.4141  0.5027  0.2717
  623poe    c23 5313   1.373   4.650   2.163 -0.3940  0.4201 -0.0337
  623poe    c23 5314   1.267   4.589   2.070 -0.3743 -0.0215  0.2303
  623poe     o2 5315   1.327   4.589   1.943 -0.1324  0.1047  0.3437
  623poe    c31 5316   1.268   4.485   1.867  0.3350  0.0723  0.0258
  624poe    c31 5317   4.029   5.708   2.231 -0.3174 -0.3005 -0.0565
  624poe     o2 5318   3.952   5.744   2.344 -0.0474 -0.4290  0.1698
  624poe    c23 5319   3.937   5.883   2.358  0.0888 -0.4104  0.1419
  624poe    c23 5320   3.859   5.933   2.481  0.3897  0.4161  0.0094
  624poe     o2 5321   3.897   5.855   2.593  0.2287  0.0187 -0.2101
  624poe    c23 5322   3.809   5.874   2.701  0.0426 -0.1595 -0.3295
  624poe    c23 5323   3.816   5.739   2.775 -0.1823  0.0389  0.0579
  624poe     o2 5324   3.831   5.640   2.676 -0.4072  0.2547 -0.1916
  624poe    c23 5325   3.843   5.508   2.722 -1.1008  0.2382 -0.0410
  624poe    c23 5326   3.850   5.412   2.601  0.1043  0.0219  0.1856
  624poe     o2 5327   3.935   5.468   2.504  0.2666 -0.3417  0.1151
  624poe    c31 5328   3.910   5.408   2.379 -0.1241  0.6410 -0.2956
  625poe    c31 5329   5.928   4.454   0.096 -0.0554  0.4633 -0.5321
  625poe     o2 5330   5.902   4.566   0.178  0.4609  0.0820  0.1597
  625poe    c23 5331   5.839   4.529   0.299 -0.1998  0.0406 -0.1956
  625poe    c23 5332   5.827   4.648   0.397 -0.4665 -0.5833  0.5377
  625poe     o2 5333   5.732   4.747   0.366  0.0860 -0.0575  0.4918
  625poe    c23 5334   5.744   4.851   0.460 -0.4435  0.0262  0.4677
  625poe    c23 5335   5.647   4.965   0.421  0.1008  0.3959  0.1851
  625poe     o2 5336   5.689   5.014   0.296 -0.2413  0.3594  0.0557
  625poe    c23 5337   5.579   5.074   0.231 -0.1741  0.6193  0.1786
  625poe    c23 5338   5.616   5.147   0.101 -0.6870 -0.0050 -0.3244
  625poe     o2 5339   5.716   5.071   0.037 -0.5633  0.0693 -0.2192
  625poe    c31 5340   5.731   5.127  -0.092  0.9162 -0.0987 -0.1372
  626poe    c31 5341   5.835   1.743   3.617 -0.5162  0.1347 -0.4354
  626poe     o2 5342   5.922   1.761   3.508 -0.2253 -0.1705 -0.2557
  626poe    c23 5343   6.003   1.646   3.507  0.2201  0.1268  0.4296
  626poe    c23 5344   6.144   1.684   3.457  0.3382 -0.3232  0.4203
  626poe     o2 5345   6.153   1.761   3.339 -0.2227 -0.2810  0.4036
  626poe    c23 5346   6.261   1.851   3.343 -0.7284  0.3341  0.2438
  626poe    c23 5347   6.213   1.965   3.250  0.3416  0.8325  0.2865
  626poe     o2 5348   6.083   2.003   3.289  0.0268  0.2573 -0.1784
  626poe    c23 5349   6.021   2.109   3.219  0.0399  0.1736 -0.3166
  626poe    c23 5350   5.904   2.143   3.313  0.3447  0.0568  0.1113
  626poe     o2 5351   5.853   2.023   3.367  0.1445 -0.1687 -0.5721
  626poe    c31 5352   5.772   2.050   3.479 -0.2239 -0.9033 -0.6576
  627poe    c31 5353   1.583   1.574   6.156  0.1697  0.1409 -0.0148
  627poe     o2 5354   1.563   1.693   6.229 -0.1725  0.0818 -0.0072
  627poe    c23 5355   1.603   1.805   6.154  0.3408 -0.0275  0.0989
  627poe    c23 5356   1.572   1.926   6.244  0.1084 -0.1852  0.2314
  627poe     o2 5357   1.442   1.909   6.296 -0.0194  0.2221  0.0481
  627poe    c23 5358   1.389   2.014   6.373 -0.2978  0.3302 -0.2837
  627poe    c23 5359   1.243   1.979   6.407 -0.1996  0.4352  0.2690
  627poe     o2 5360   1.224   1.855   6.471  0.2334  0.2568  0.0612
  627poe    c23 5361   1.088   1.818   6.475  0.2492  0.1917 -0.0068
  627poe    c23 5362   1.063   1.679   6.536 -0.5613  0.3944  0.1353
  627poe     o2 5363   1.132   1.579   6.464 -0.4094  0.1511  0.6134
  627poe    c31 5364   1.097   1.444   6.480 -0.1707 -0.0040 -0.1284
  628poe    c31 5365   1.000   3.054   2.673  0.7751 -0.4877 -0.7349
  628poe     o2 5366   0.914   2.954   2.621 -0.2274 -0.0690  0.0772
  628poe    c23 5367   0.911   2.856   2.722 -0.4049 -0.0408  0.0995
  628poe    c23 5368   0.783   2.774   2.696 -0.4589 -0.0539  0.4121
  628poe     o2 5369   0.785   2.755   2.557 -0.3640  0.3277  0.3583
  628poe    c23 5370   0.688   2.660   2.518  0.3370 -0.3954  0.3347
  628poe    c23 5371   0.700   2.674   2.365 -0.1800  0.0070  0.3301
  628poe     o2 5372   0.831   2.712   2.333 -0.4396  0.4791 -0.1960
  628poe    c23 5373   0.925   2.612   2.300  0.1036  1.0553 -0.4346
  628poe    c23 5374   1.048   2.702   2.282  0.5460  0.4935 -0.2481
  628poe     o2 5375   1.056   2.783   2.397  0.2912 -0.1294  0.2107
  628poe    c31 5376   1.184   2.839   2.417  0.3876 -0.1443 -0.3723
  629poe    c31 5377   5.396   5.848   2.139  0.0777  0.5098  0.1156
  629poe     o2 5378   5.481   5.755   2.077 -0.0339  0.2831  0.3002
  629poe    c23 5379   5.525   5.795   1.949  0.1965  0.3934  0.4130
  629poe    c23 5380   5.506   5.661   1.875 -0.1779  0.5061  0.3037
  629poe     o2 5381   5.560   5.555   1.951  0.0888  0.1837 -0.3349
  629poe    c23 5382   5.512   5.436   1.892  0.5003  0.0147 -0.3323
  629poe    c23 5383   5.572   5.324   1.979  0.2902  0.1748  0.0203
  629poe     o2 5384   5.558   5.362   2.114  0.4160 -1.0712  0.3928
  629poe    c23 5385   5.684   5.379   2.175  0.5736  0.2247 -0.2770
  629poe    c23 5386   5.671   5.456   2.308  0.8936 -0.0882 -0.0630
  629poe     o2 5387   5.612   5.577   2.264  0.4072 -0.2688  0.0917
  629poe    c31 5388   5.609   5.673   2.367 -0.8768 -0.2243  0.0300
  630poe    c31 5389   4.992   5.477   5.379  0.5056  0.1117 -0.1995
  630poe     o2 5390   4.886   5.508   5.291  0.3909  0.2356 -0.0179
  630poe    c23 5391   4.872   5.385   5.224 -0.8600 -0.2696  1.1440
  630poe    c23 5392   4.785   5.425   5.103  0.1085 -0.1449  0.4815
  630poe     o2 5393   4.675   5.501   5.147 -0.0217  0.1418 -0.3326
  630poe    c23 5394   4.580   5.513   5.043  0.1171 -0.3084 -0.5127
  630poe    c23 5395   4.490   5.623   5.102  0.2604 -0.6557  0.3791
  630poe     o2 5396   4.585   5.721   5.141 -0.2215 -0.1947  0.4040
  630poe    c23 5397   4.520   5.842   5.174  0.1885 -0.0062  0.5289
  630poe    c23 5398   4.510   5.933   5.050  0.1703 -0.4715  0.1824
  630poe     o2 5399   4.434   5.884   4.942  0.8917  0.0628 -0.5764
  630poe    c31 5400   4.444   5.964   4.826  0.6963 -0.1719 -0.7571
  631poe    c31 5401   0.849   6.315   2.542  0.6426 -0.1347 -0.4247
  631poe     o2 5402   0.815   6.238   2.429 -0.1358  0.2281 -0.4472
  631poe    c23 5403   0.806   6.100   2.456  0.3321  0.3239  0.2513
  631poe    c23 5404   0.824   6.015   2.328 -0.4903 -0.1732  0.4554
  631poe     o2 5405   0.753   6.067   2.218  0.1164  0.6330  0.4331
  631poe    c23 5406   0.795   6.040   2.087 -0.2147 -0.1735  0.4883
  631poe    c23 5407   0.762   6.156   1.991  0.1288 -0.4545  0.0205
  631poe     o2 5408   0.817   6.266   2.059 -0.5175  0.1425 -0.4038
  631poe    c23 5409   0.844   6.375   1.975  0.3528 -0.0932 -0.4405
  631poe    c23 5410   0.935   6.456   2.069 -0.8749  0.3073  0.4195
  631poe     o2 5411   0.878   6.457   2.198  0.3352 -1.2237  1.0019
  631poe    c31 5412   0.960   6.542   2.276 -0.3609  0.1592  0.2684
  632poe    c31 5413   5.393   5.923   6.313 -0.4088 -0.7180  0.5788
  632poe     o2 5414   5.475   5.835   6.239 -0.1495  0.3027 -0.3646
  632poe    c23 5415   5.393   5.770   6.144 -0.0539 -0.2476 -0.0703
  632poe    c23 5416   5.468   5.660   6.067 -0.2395 -0.3587 -0.0934
  632poe     o2 5417   5.583   5.711   6.002 -0.3401 -0.5179 -0.4016
  632poe    c23 5418   5.557   5.769   5.876 -0.2243  0.0634 -0.1589
  632poe    c23 5419   5.690   5.796   5.803 -0.3292  0.7699 -0.1014
  632poe     o2 5420   5.777   5.850   5.899 -0.6439 -0.1253  0.7033
  632poe    c23 5421   5.905   5.865   5.844 -1.0225 -0.6799 -0.3431
  632poe    c23 5422   5.994   5.910   5.961 -1.1419 -0.4189 -0.3519
  632poe     o2 5423   5.992   5.814   6.064 -0.0922  0.1675  0.2263
  632poe    c31 5424   6.077   5.838   6.175 -0.4367  0.4269  0.4333
  633poe    c31 5425   2.246   4.831   0.906 -0.2012  0.1586 -0.0014
  633poe     o2 5426   2.288   4.965   0.923  0.2359 -0.0444  0.5505
  633poe    c23 5427   2.268   5.033   0.801  0.0125 -0.1921  0.5028
  633poe    c23 5428   2.281   5.185   0.822 -0.0003 -0.1337  0.0858
  633poe     o2 5429   2.404   5.198   0.889 -0.1763  0.2477  0.3361
  633poe    c23 5430   2.421   5.328   0.942 -0.1937  0.4002 -0.0297
  633poe    c23 5431   2.552   5.315   1.022 -0.1175  0.1087 -0.1998
  633poe     o2 5432   2.543   5.194   1.095 -0.5505  0.3073  0.0792
  633poe    c23 5433   2.622   5.186   1.211  0.4047 -0.0511 -0.5886
  633poe    c23 5434   2.774   5.214   1.213  0.4076 -0.0282 -1.0234
  633poe     o2 5435   2.825   5.345   1.202 -0.1983  0.2967 -0.0148
  633poe    c31 5436   2.844   5.398   1.331 -0.2197 -0.0661  0.1397
  634poe    c31 5437   0.155   3.917   0.267  0.1759 -0.2432 -0.3313
  634poe     o2 5438   0.157   3.954   0.403  0.5018  0.0556 -0.4159
  634poe    c23 5439   0.164   3.849   0.497  0.1106  0.4093  0.0127
  634poe    c23 5440   0.126   3.894   0.640 -0.3507 -0.4319  0.1620
  634poe     o2 5441   0.202   4.005   0.681 -0.5662 -0.3856  0.4353
  634poe    c23 5442   0.198   4.037   0.818  0.0917  0.4397  0.2714
  634poe    c23 5443   0.254   4.181   0.823 -0.0812  0.5204 -0.0677
  634poe     o2 5444   0.390   4.174   0.787 -0.0654  0.0690  0.0696
  634poe    c23 5445   0.446   4.303   0.777 -0.1293  0.1061  0.1870
  634poe    c23 5446   0.580   4.277   0.705 -0.4193 -0.6214 -0.0993
  634poe     o2 5447   0.565   4.189   0.596 -0.2345 -0.1853 -0.4773
  634poe    c31 5448   0.692   4.165   0.540  0.2696  0.3645  0.4075
  635poe    c31 5449   3.341   4.939   0.448  0.2341  0.5522  0.4223
  635poe     o2 5450   3.274   5.034   0.527  0.2310  0.3707  0.6369
  635poe    c23 5451   3.134   5.043   0.514  0.2685  0.1763  0.0698
  635poe    c23 5452   3.076   5.162   0.594 -0.5331 -0.0824 -0.1157
  635poe     o2 5453   3.117   5.148   0.728  0.0327  0.1312 -0.2616
  635poe    c23 5454   3.061   5.245   0.813 -0.3847 -0.6504  0.3736
  635poe    c23 5455   3.117   5.221   0.955  0.6161  0.1219  0.1260
  635poe     o2 5456   3.251   5.182   0.934  0.4074 -0.5649  0.0247
  635poe    c23 5457   3.312   5.114   1.040  0.1284 -0.1832  0.4346
  635poe    c23 5458   3.355   4.986   0.966 -0.1989 -0.1167  0.1330
  635poe     o2 5459   3.405   5.008   0.836  0.0012  0.2998  0.2803
  635poe    c31 5460   3.437   4.876   0.797  0.2221  0.3990  0.1202
  636poe    c31 5461   4.477   0.229   0.911 -0.6810  0.2031  0.4021
  636poe     o2 5462   4.530   0.348   0.857  0.5564 -0.4278  0.1967
  636poe    c23 5463   4.602   0.319   0.739  0.3487 -0.0019 -0.0353
  636poe    c23 5464   4.680   0.446   0.702  0.7564 -0.0484  0.6471
  636poe     o2 5465   4.608   0.565   0.675  0.0942 -0.6848 -0.4459
  636poe    c23 5466   4.713   0.657   0.652 -0.3232 -0.0852  0.0354
  636poe    c23 5467   4.670   0.802   0.623  0.2415  0.1897  0.5485
  636poe     o2 5468   4.551   0.831   0.693  0.3460  0.6348  0.5435
  636poe    c23 5469   4.498   0.953   0.647  0.1173  0.2964 -0.1106
  636poe    c23 5470   4.360   0.992   0.702  0.0448 -0.3146  0.1488
  636poe     o2 5471   4.261   0.895   0.676 -0.1928  0.0786 -0.4443
  636poe    c31 5472   4.138   0.957   0.647  0.0024  0.6441 -0.0678
  637poe    c31 5473   5.971   0.541   1.522 -0.0633  0.5381  0.5025
  637poe     o2 5474   6.111   0.537   1.532 -0.0822  0.3428  0.7041
  637poe    c23 5475   6.161   0.665   1.563  0.1478  0.3614  0.2648
  637poe    c23 5476   6.244   0.653   1.692  0.0783 -0.2652  0.2532
  637poe     o2 5477   6.328   0.540   1.684  0.1976 -0.1358 -0.3700
  637poe    c23 5478   6.359   0.473   1.804  0.2339  0.2786 -0.1489
  637poe    c23 5479   6.415   0.335   1.764  0.2509  0.3529 -0.3849
  637poe     o2 5480   6.314   0.288   1.678 -0.1153  0.2189  0.1148
  637poe    c23 5481   6.319   0.150   1.647  0.1157  0.1969  0.2464
  637poe    c23 5482   6.192   0.115   1.567  0.0580 -0.0298  0.4357
  637poe     o2 5483   6.156   0.227   1.488 -0.1451 -0.3981  0.0047
  637poe    c31 5484   6.064   0.199   1.385  0.0079  0.1791 -0.2924
  638poe    c31 5485   0.585   2.279   2.538 -0.2608  0.1911  0.0400
  638poe     o2 5486   0.465   2.270   2.612  0.1230 -0.2229  0.6180
  638poe    c23 5487   0.369   2.263   2.510  0.2483  0.4345  0.4485
  638poe    c23 5488   0.257   2.162   2.541  0.2482  0.4443  0.4791
  638poe     o2 5489   0.177   2.207   2.648 -0.0075  0.4678  0.2790
  638poe    c23 5490   0.077   2.117   2.689  0.3265 -0.0626 -0.0550
  638poe    c23 5491  -0.019   2.193   2.783  0.3602  0.2374 -0.2616
  638poe     o2 5492   0.043   2.272   2.882 -0.1645  0.6698 -0.2742
  638poe    c23 5493  -0.048   2.346   2.960 -0.3501  0.1253  0.0333
  638poe    c23 5494   0.035   2.388   3.082  0.1827 -0.4616 -0.1235
  638poe     o2 5495   0.169   2.410   3.043 -0.0717  0.8742 -0.2890
  638poe    c31 5496   0.246   2.434   3.159  0.3228 -0.1681 -0.3279
  639poe    c31 5497   0.241   0.003   0.524  0.0322  0.1180 -0.1832
  639poe     o2 5498   0.105   0.017   0.556  0.1077 -0.0696  0.2260
  639poe    c23 5499   0.076  -0.067   0.666  0.0453 -0.4810 -0.1028
  639poe    c23 5500  -0.065  -0.018   0.703  0.1914 -0.2248  0.1205
  639poe     o2 5501  -0.119   0.020   0.579  0.2428  0.1523  0.2118
  639poe    c23 5502  -0.252   0.066   0.591  0.0896  0.0091 -0.7918
  639poe    c23 5503  -0.266   0.176   0.485 -0.7932  0.5930 -0.0789
  639poe     o2 5504  -0.181   0.143   0.378 -0.5566  0.1988  0.2276
  639poe    c23 5505  -0.167   0.258   0.298  0.0892 -0.0936 -0.0825
  639poe    c23 5506  -0.032   0.243   0.224  0.3228  0.7222  0.1678
  639poe     o2 5507   0.059   0.194   0.320  0.2053  0.1076 -0.0311
  639poe    c31 5508   0.185   0.202   0.257 -0.0427  0.1927 -0.5221
  640poe    c31 5509   2.429   3.830   4.337  0.0932  0.3406 -0.8302
  640poe     o2 5510   2.564   3.799   4.310  0.1271 -0.3911  0.1140
  640poe    c23 5511   2.604   3.822   4.177 -0.1652  0.2646  0.1348
  640poe    c23 5512   2.725   3.729   4.152 -0.2295  0.1980  0.0718
  640poe     o2 5513   2.804   3.733   4.268  0.0333 -0.8785 -0.0606
  640poe    c23 5514   2.920   3.653   4.267  0.1853 -0.6597 -0.0470
  640poe    c23 5515   2.960   3.656   4.416  0.1506  0.1680 -0.0490
  640poe     o2 5516   2.841   3.633   4.487  0.2159  0.2521  0.0875
  640poe    c23 5517   2.861   3.634   4.627  1.0438  0.1359 -0.0236
  640poe    c23 5518   2.720   3.648   4.687  0.7903 -0.1238 -0.5541
  640poe     o2 5519   2.646   3.731   4.599 -0.1200 -0.4621 -0.1220
  640poe    c31 5520   2.541   3.794   4.670 -0.1754 -0.1692 -0.4619
  641poe    c31 5521   4.715   4.388   3.802 -0.2717 -0.0892 -0.6599
  641poe     o2 5522   4.762   4.505   3.738 -0.3507  0.1632 -0.2588
  641poe    c23 5523   4.811   4.589   3.840  0.4158 -0.0772 -0.4182
  641poe    c23 5524   4.840   4.721   3.767  0.0597  0.3278  0.1627
  641poe     o2 5525   4.924   4.680   3.661  0.0468 -0.4115  0.4344
  641poe    c23 5526   4.969   4.794   3.591 -0.0680 -0.4700  0.2658
  641poe    c23 5527   5.080   4.758   3.491  0.1393 -0.1741  0.3921
  641poe     o2 5528   5.025   4.658   3.409 -0.0592  0.3206 -0.0783
  641poe    c23 5529   5.064   4.659   3.273 -0.0408 -0.3751 -0.0801
  641poe    c23 5530   5.025   4.527   3.205 -0.5002 -0.0385 -0.4844
  641poe     o2 5531   5.090   4.418   3.268 -0.8634  0.2152  0.3414
  641poe    c31 5532   5.079   4.312   3.176  0.4174  0.1742  0.2268
  642poe    c31 5533   3.818   5.113   1.870 -0.6580  0.5106  0.6860
  642poe     o2 5534   3.741   5.006   1.820 -0.1030  0.2733  0.3311
  642poe    c23 5535   3.832   4.914   1.764 -0.0679 -0.0049  0.8359
  642poe    c23 5536   3.751   4.810   1.685  0.3343  0.2968  0.0129
  642poe     o2 5537   3.635   4.791   1.764 -0.2488  0.1155 -0.8660
  642poe    c23 5538   3.570   4.667   1.746 -0.3731  0.0447  0.0316
  642poe    c23 5539   3.433   4.653   1.814 -0.4532 -0.0212 -0.1439
  642poe     o2 5540   3.381   4.782   1.792  0.0759  0.2382  0.1165
  642poe    c23 5541   3.276   4.821   1.878  0.2349  0.3462  0.2611
  642poe    c23 5542   3.273   4.974   1.899  0.2866  0.3989 -0.1117
  642poe     o2 5543   3.407   5.015   1.915  0.3023  0.2149  0.2219
  642poe    c31 5544   3.398   5.125   2.004 -0.3782  0.6854 -0.4142
  643poe    c31 5545   4.385   4.752   0.864  0.1625  0.7891 -0.4800
  643poe     o2 5546   4.275   4.824   0.814 -0.1064  0.5684 -0.2063
  643poe    c23 5547   4.287   4.833   0.674 -0.0301 -0.0198 -0.2402
  643poe    c23 5548   4.208   4.955   0.624  0.3677  0.3686  0.0737
  643poe     o2 5549   4.096   4.956   0.710  0.5089 -0.0937  0.2623
  643poe    c23 5550   4.016   5.070   0.689  0.7712  0.0611  0.0984
  643poe    c23 5551   3.912   5.062   0.803  0.6154  0.3965 -0.0219
  643poe     o2 5552   3.978   4.984   0.900 -0.4596 -0.3031  0.1560
  643poe    c23 5553   3.891   4.931   0.998 -0.3568 -0.0815  0.3677
  643poe    c23 5554   3.967   4.878   1.121  0.5414  0.0856 -0.1070
  643poe     o2 5555   4.077   4.815   1.059  0.3734 -0.0748 -0.2422
  643poe    c31 5556   4.157   4.743   1.149  0.2944  0.0756 -0.0515
  644poe    c31 5557   3.797   0.480   4.033 -0.4522  0.5151  0.0930
  644poe     o2 5558   3.889   0.443   3.932 -0.1495 -0.4978  0.7263
  644poe    c23 5559   3.868   0.310   3.889  0.4944 -0.3117 -0.1816
  644poe    c23 5560   3.973   0.267   3.785  0.2186  0.0884 -0.6331
  644poe     o2 5561   3.981   0.382   3.705 -0.4814  0.5946  0.0155
  644poe    c23 5562   4.053   0.367   3.585  0.0525  0.1580  0.3888
  644poe    c23 5563   4.087   0.506   3.529 -0.8729  0.0892 -0.3760
  644poe     o2 5564   4.113   0.581   3.646  0.7545 -0.2600 -0.4929
  644poe    c23 5565   4.250   0.576   3.679  0.6062 -0.6540  0.0708
  644poe    c23 5566   4.263   0.635   3.820 -0.2927  0.3603 -0.2522
  644poe     o2 5567   4.164   0.561   3.887 -0.3496  0.7412  0.0859
  644poe    c31 5568   4.174   0.570   4.028  0.6595  0.5462  0.0312
  645poe    c31 5569   3.265   6.335   2.995 -0.5556  0.1024  0.3016
  645poe     o2 5570   3.282   6.422   3.105  0.1514  0.5017 -0.1148
  645poe    c23 5571   3.421   6.438   3.125  0.1010 -0.0410  0.6997
  645poe    c23 5572   3.488   6.575   3.145  0.3939 -0.1295  0.3389
  645poe     o2 5573   3.529   6.642   3.028  0.2272 -0.2491  0.2120
  645poe    c23 5574   3.658   6.697   3.043 -0.0206  0.2816  0.4495
  645poe    c23 5575   3.666   6.807   2.936 -0.5152 -0.0142  0.1020
  645poe     o2 5576   3.615   6.775   2.809 -0.5837 -0.1929  0.1737
  645poe    c23 5577   3.608   6.883   2.718  0.1230 -0.3238 -0.0375
  645poe    c23 5578   3.522   6.820   2.607  0.1565 -1.1619  0.4062
  645poe     o2 5579   3.408   6.762   2.666 -0.4437 -0.3152  0.0900
  645poe    c31 5580   3.317   6.714   2.569 -0.2897 -0.0338 -0.1967
  646poe    c31 5581   5.730   3.872   6.588  0.2161  0.2652 -0.0153
  646poe     o2 5582   5.675   3.763   6.658  0.3156  0.1645 -0.0946
  646poe    c23 5583   5.708   3.635   6.608 -0.0805  0.0371 -0.0356
  646poe    c23 5584   5.622   3.523   6.669 -0.1764  0.2312  0.1886
  646poe     o2 5585   5.485   3.519   6.638 -0.0387 -0.2535 -0.3824
  646poe    c23 5586   5.422   3.405   6.693 -0.3731  0.2392  0.2677
  646poe    c23 5587   5.268   3.410   6.684 -0.3619  0.2708  0.0769
  646poe     o2 5588   5.234   3.458   6.556  0.0398 -0.2634 -0.2371
  646poe    c23 5589   5.100   3.423   6.532 -0.1240  0.0283  0.2157
  646poe    c23 5590   5.070   3.429   6.381  0.2526  0.6769  0.1629
  646poe     o2 5591   5.086   3.560   6.331  0.1605  0.6292  0.0082
  646poe    c31 5592   5.055   3.573   6.194  0.5383  0.4243 -0.0978
  647poe    c31 5593   1.840   5.615   1.704 -1.0858  0.7570  0.6146
  647poe     o2 5594   1.953   5.676   1.645 -0.4321 -0.7317  0.2724
  647poe    c23 5595   1.980   5.626   1.516  0.0663  0.4763 -0.1136
  647poe    c23 5596   2.044   5.732   1.425 -0.1940  0.7216 -0.0128
  647poe     o2 5597   2.140   5.787   1.513  0.0786 -0.0382  0.1794
  647poe    c23 5598   2.172   5.921   1.483 -0.0678 -0.1186 -0.3390
  647poe    c23 5599   2.234   5.980   1.611 -0.5459 -0.1976 -0.0690
  647poe     o2 5600   2.162   5.938   1.725 -0.2503  0.0806  0.2219
  647poe    c23 5601   2.220   5.995   1.840 -0.3507 -0.5192  0.5688
  647poe    c23 5602   2.132   5.971   1.964  0.1566 -0.2243  0.9902
  647poe     o2 5603   2.094   5.836   1.982  0.7617 -0.3739  1.1540
  647poe    c31 5604   1.990   5.817   2.075 -0.5977 -0.7947 -0.4133
  648poe    c31 5605   3.237   0.445   6.263 -0.4358 -0.5655 -0.0686
  648poe     o2 5606   3.159   0.501   6.367  0.1953  0.3675 -0.0925
  648poe    c23 5607   3.042   0.423   6.375  0.3877  0.0819 -0.0326
  648poe    c23 5608   2.970   0.458   6.507  0.2149  0.2123 -0.1608
  648poe     o2 5609   2.943   0.596   6.501  0.3958  0.2624  0.1478
  648poe    c23 5610   2.933   0.668   6.622 -0.2108  0.2116  0.1297
  648poe    c23 5611   3.072   0.698   6.681  0.1690 -0.2710 -0.5059
  648poe     o2 5612   3.135   0.759   6.570  0.1931  0.4669 -0.0953
  648poe    c23 5613   3.263   0.803   6.606  0.2516  0.3353 -0.1414
  648poe    c23 5614   3.334   0.850   6.478  0.5211  0.0321 -0.1043
  648poe     o2 5615   3.329   0.748   6.381 -0.1976  0.1350 -0.1761
  648poe    c31 5616   3.385   0.780   6.256 -0.0949  0.1941 -0.1146
  649poe    c31 5617   6.309   2.349   4.701 -0.3215  0.3684  0.2755
  649poe     o2 5618   6.305   2.291   4.830 -0.1002 -0.0582  0.0927
  649poe    c23 5619   6.173   2.271   4.875 -0.1375  0.0400  0.0273
  649poe    c23 5620   6.191   2.195   5.008 -0.3751  0.5096  0.3284
  649poe     o2 5621   6.273   2.277   5.089  0.5860 -0.0802 -0.0284
  649poe    c23 5622   6.285   2.214   5.215  0.0265 -0.6204 -0.2352
  649poe    c23 5623   6.393   2.289   5.296 -0.1885 -0.2525 -0.2868
  649poe     o2 5624   6.513   2.243   5.238 -0.0805 -0.7443  0.3118
  649poe    c23 5625   6.624   2.315   5.289 -0.0123 -0.5190 -0.1505
  649poe    c23 5626   6.758   2.288   5.219  0.1820 -0.0860  0.0541
  649poe     o2 5627   6.759   2.298   5.078  0.3181  0.1214  0.0693
  649poe    c31 5628   6.896   2.307   5.045  0.2730 -0.0773 -0.1710
  650poe    c31 5629   6.337   0.629   2.989  0.2429  0.0353 -0.2407
  650poe     o2 5630   6.270   0.599   3.109  0.1873  0.2496 -0.2172
  650poe    c23 5631   6.300   0.463   3.133  0.4889  0.4742  0.7302
  650poe    c23 5632   6.262   0.441   3.281  0.1652 -0.0368  0.5751
  650poe     o2 5633   6.127   0.481   3.282  0.3046  0.4651  0.1370
  650poe    c23 5634   6.069   0.458   3.409 -0.1442 -0.2186 -0.1849
  650poe    c23 5635   5.951   0.557   3.419  0.1910  0.1292  0.3614
  650poe     o2 5636   5.996   0.672   3.351 -0.0453  0.2561  0.4196
  650poe    c23 5637   5.918   0.789   3.361  0.2303  0.4670  0.0712
  650poe    c23 5638   5.994   0.888   3.270 -0.1160  0.7653  0.1039
  650poe     o2 5639   6.037   0.807   3.163  0.0311  0.7551  0.1700
  650poe    c31 5640   6.050   0.892   3.051 -0.4974  0.5521 -0.0514
  651poe    c31 5641   5.052   4.410   0.503 -0.6082 -0.6509  0.0369
  651poe     o2 5642   5.149   4.472   0.584 -0.3849 -0.7106 -0.1848
  651poe    c23 5643   5.267   4.491   0.508  0.1107 -0.2995  0.6612
  651poe    c23 5644   5.396   4.492   0.591  0.4563  0.0634  0.1237
  651poe     o2 5645   5.345   4.495   0.722 -0.1368 -0.3029 -0.0945
  651poe    c23 5646   5.428   4.426   0.813  0.0365 -0.3183 -0.2634
  651poe    c23 5647   5.342   4.437   0.940 -0.1332  0.4578 -0.4396
  651poe     o2 5648   5.206   4.435   0.905 -0.2671  0.7493  0.0551
  651poe    c23 5649   5.115   4.455   1.011  0.1766 -0.3746  0.6650
  651poe    c23 5650   4.986   4.423   0.933  0.6154 -0.4240 -0.0415
  651poe     o2 5651   4.995   4.499   0.814  0.0791 -0.4934 -0.1270
  651poe    c31 5652   4.879   4.577   0.794  0.6826  0.5149  0.2404
  652poe    c31 5653   1.474   2.390   0.085  0.1040 -0.2234  0.0948
  652poe     o2 5654   1.510   2.257   0.054  0.1972 -0.1216 -0.2347
  652poe    c23 5655   1.465   2.155   0.140  0.1393 -0.0987 -0.2382
  652poe    c23 5656   1.566   2.131   0.253 -0.1607 -0.2038  0.0086
  652poe     o2 5657   1.693   2.116   0.193 -0.2377  0.0150 -0.2079
  652poe    c23 5658   1.806   2.155   0.268 -0.0060 -0.4930 -0.2921
  652poe    c23 5659   1.937   2.129   0.190  0.0098 -0.6164 -0.2249
  652poe     o2 5660   1.942   2.202   0.070  0.0809  0.1903  0.2585
  652poe    c23 5661   1.942   2.343   0.071  0.1352  0.1971 -0.3397
  652poe    c23 5662   1.881   2.380  -0.066  0.2141 -0.4136 -0.5412
  652poe     o2 5663   1.753   2.323  -0.077 -0.3753  0.6341  0.6165
  652poe    c31 5664   1.685   2.361  -0.195 -0.0664  0.6697  0.4502
  653poe    c31 5665   6.516   2.559   1.014 -0.6460 -0.2225 -0.5935
  653poe     o2 5666   6.469   2.433   1.056  0.5713 -0.4210  0.2227
  653poe    c23 5667   6.374   2.437   1.160 -0.0973 -0.1748 -0.3863
  653poe    c23 5668   6.336   2.291   1.192  0.1753 -0.1504  0.0497
  653poe     o2 5669   6.331   2.216   1.073 -0.5487 -0.2416  0.1395
  653poe    c23 5670   6.280   2.085   1.085 -0.8565 -0.1456 -0.1044
  653poe    c23 5671   6.268   2.030   0.942  0.4614 -0.1783 -0.2145
  653poe     o2 5672   6.382   2.041   0.860  0.3291  0.6690 -0.2929
  653poe    c23 5673   6.405   1.915   0.803 -0.1326  0.1953  0.5474
  653poe    c23 5674   6.542   1.918   0.732 -0.1847  0.1161  0.4416
  653poe     o2 5675   6.643   1.950   0.826 -0.0032  0.0869  0.2557
  653poe    c31 5676   6.773   1.969   0.774 -0.0029 -0.3730  0.0814
  654poe    c31 5677   1.733   3.248   2.458 -0.4184 -0.0552 -0.2006
  654poe     o2 5678   1.595   3.229   2.436 -0.4666  0.1335 -0.0657
  654poe    c23 5679   1.543   3.149   2.540  0.2453 -0.2354  0.0130
  654poe    c23 5680   1.389   3.164   2.543  0.2823  0.1363  0.0877
  654poe     o2 5681   1.355   3.159   2.406  0.2765 -0.2089  0.0998
  654poe    c23 5682   1.224   3.210   2.395  0.2534 -0.3870 -0.4736
  654poe    c23 5683   1.193   3.206   2.244  0.0175  0.0215 -0.4360
  654poe     o2 5684   1.313   3.236   2.178  0.2864  0.0417  0.0565
  654poe    c23 5685   1.289   3.224   2.039 -0.0291  0.1252  0.1038
  654poe    c23 5686   1.362   3.329   1.954  0.2492 -0.1764 -0.0308
  654poe     o2 5687   1.502   3.315   1.966  0.2309  0.0726  0.4918
  654poe    c31 5688   1.561   3.415   1.886 -0.4538  0.1620  0.0940
  655poe    c31 5689   4.793   3.539   0.707  0.1534  0.2359  0.3633
  655poe     o2 5690   4.802   3.454   0.595 -0.3120  0.3881  0.2105
  655poe    c23 5691   4.875   3.512   0.489 -0.3014  0.3867  0.2170
  655poe    c23 5692   4.940   3.396   0.412 -0.3458  0.3900  0.1747
  655poe     o2 5693   4.840   3.298   0.427 -0.0586  0.0939  0.1835
  655poe    c23 5694   4.848   3.198   0.328  0.1143  0.2902 -0.0019
  655poe    c23 5695   4.742   3.087   0.333  0.3718  0.0508  0.2516
  655poe     o2 5696   4.751   3.036   0.464  0.0249 -0.2102  0.1756
  655poe    c23 5697   4.668   2.923   0.481  0.6447 -0.6830  0.0826
  655poe    c23 5698   4.650   2.883   0.629  0.0387 -0.6095  0.0301
  655poe     o2 5699   4.597   2.988   0.706  0.0526 -0.8143  0.3177
  655poe    c31 5700   4.524   2.950   0.821 -0.2496  0.2650  0.4933
  656poe    c31 5701   0.272   0.324   5.637  0.0215 -0.2691 -0.3349
  656poe     o2 5702   0.235   0.202   5.696  0.4186 -0.4173 -0.3936
  656poe    c23 5703   0.351   0.129   5.731  0.3933 -0.0792  0.4297
  656poe    c23 5704   0.343   0.096   5.881  0.0737 -0.2907  0.3677
  656poe     o2 5705   0.219   0.031   5.902 -0.4146  0.4916 -0.0306
  656poe    c23 5706   0.167   0.036   6.032  0.2002  0.1706  0.2346
  656poe    c23 5707   0.095   0.172   6.038 -0.3450 -0.0939 -0.2109
  656poe     o2 5708  -0.000   0.192   5.936  0.2075 -0.2576 -0.7589
  656poe    c23 5709  -0.052   0.322   5.931  0.7723 -0.0326 -0.8354
  656poe    c23 5710  -0.122   0.345   5.795  0.1798  0.2492 -0.4855
  656poe     o2 5711  -0.037   0.287   5.700  0.3532 -0.0271 -0.1621
  656poe    c31 5712  -0.107   0.278   5.578 -0.1859  0.1113  0.1376
  657poe    c31 5713   2.623   6.006   3.439  0.1116  0.3583  0.5284
  657poe     o2 5714   2.715   6.001   3.546  0.1755  0.2481  0.4689
  657poe    c23 5715   2.827   5.921   3.519 -0.2920 -0.0412 -0.7109
  657poe    c23 5716   2.956   5.969   3.588 -0.2948  0.0785 -0.7884
  657poe     o2 5717   2.995   6.098   3.546  0.2750  0.1747  0.0118
  657poe    c23 5718   3.118   6.123   3.612 -0.2192  0.3302  0.8879
  657poe    c23 5719   3.176   6.248   3.544  0.0610  0.0895  0.6830
  657poe     o2 5720   3.072   6.342   3.523  0.0938  0.0200  0.1853
  657poe    c23 5721   3.119   6.464   3.472 -0.0827 -0.0094 -0.0491
  657poe    c23 5722   3.009   6.521   3.381  0.1769  0.9649  0.2221
  657poe     o2 5723   2.937   6.408   3.335 -0.4226  0.7821  1.5480
  657poe    c31 5724   2.833   6.467   3.260 -0.0607 -0.1025  0.3147
  658poe    c31 5725   0.128   0.332   3.074  0.6581  0.3742  0.1922
  658poe     o2 5726   0.115   0.451   2.999 -0.1021 -0.1563 -0.5259
  658poe    c23 5727   0.005   0.457   2.911 -0.2595  0.0908 -0.3121
  658poe    c23 5728   0.001   0.600   2.854 -0.2213  0.0667 -0.3757
  658poe     o2 5729   0.137   0.625   2.827 -0.2704  0.2502 -0.4612
  658poe    c23 5730   0.157   0.739   2.748  0.5816  0.4670  0.0466
  658poe    c23 5731   0.308   0.761   2.732  0.5684  0.2978 -0.3090
  658poe     o2 5732   0.364   0.706   2.849  0.5556  0.2937 -0.3047
  658poe    c23 5733   0.407   0.781   2.960 -0.3595  0.0740  0.2101
  658poe    c23 5734   0.452   0.671   3.058  0.6064  0.0112 -0.2975
  658poe     o2 5735   0.337   0.592   3.077  0.1364  0.6884 -0.3109
  658poe    c31 5736   0.292   0.605   3.210  0.3229  0.3555 -0.2137
  659poe    c31 5737   3.844   0.642   0.733  0.2222  0.0056 -0.4490
  659poe     o2 5738   3.709   0.622   0.695  0.1569 -0.0267 -0.2024
  659poe    c23 5739   3.613   0.698   0.765  0.4915 -0.2766  0.5492
  659poe    c23 5740   3.510   0.722   0.652  0.4027 -0.2097  0.6448
  659poe     o2 5741   3.500   0.593   0.597 -0.0134  0.0066  0.2150
  659poe    c23 5742   3.399   0.580   0.500  0.0016 -0.6205  0.2820
  659poe    c23 5743   3.474   0.496   0.395  0.0571 -0.2844  0.0503
  659poe     o2 5744   3.551   0.404   0.470  0.7169 -0.1856 -0.4992
  659poe    c23 5745   3.617   0.318   0.380 -0.2372 -0.7041 -0.7157
  659poe    c23 5746   3.716   0.263   0.485 -0.2655  0.3222 -0.1382
  659poe     o2 5747   3.785   0.364   0.555  0.2586 -0.0573 -0.1023
  659poe    c31 5748   3.898   0.306   0.616  0.0316 -0.1634  0.2229
  660poe    c31 5749   3.974   5.833   1.542  0.1053 -0.2691 -0.0645
  660poe     o2 5750   3.951   5.968   1.511 -0.3589 -0.3525 -0.0910
  660poe    c23 5751   3.891   5.990   1.386 -0.1193  0.1227 -0.1294
  660poe    c23 5752   3.819   6.124   1.409 -0.2238  0.0986 -0.3099
  660poe     o2 5753   3.911   6.209   1.473  0.1276 -0.0797 -0.5724
  660poe    c23 5754   3.853   6.329   1.520  0.6529 -0.1873  0.3831
  660poe    c23 5755   3.945   6.418   1.605  0.4630  0.2633  0.1238
  660poe     o2 5756   4.008   6.325   1.691  0.1578 -0.0189  0.0448
  660poe    c23 5757   4.068   6.391   1.800 -0.2480 -0.3039  0.4450
  660poe    c23 5758   4.012   6.368   1.942 -0.1362 -0.0968  0.5229
  660poe     o2 5759   3.891   6.440   1.954 -0.1512  0.0097 -0.2201
  660poe    c31 5760   3.822   6.386   2.064 -0.1518 -0.4797 -0.4614
  661poe    c31 5761   1.994   5.858   4.797 -0.1441 -0.3921  0.2425
  661poe     o2 5762   1.915   5.975   4.800  0.4678  0.0230  0.4108
  661poe    c23 5763   1.883   6.018   4.670 -0.0419  0.5184  0.6920
  661poe    c23 5764   1.785   6.135   4.687 -0.4464  0.2602  0.1795
  661poe     o2 5765   1.826   6.202   4.805  0.1440 -0.2931  0.2940
  661poe    c23 5766   1.748   6.318   4.826  0.2150 -0.2335  0.2298
  661poe    c23 5767   1.818   6.381   4.948 -0.1896  0.2619  0.2051
  661poe     o2 5768   1.849   6.272   5.032  0.1835 -0.0196 -0.2920
  661poe    c23 5769   1.742   6.236   5.117  0.4393  0.4090  0.2166
  661poe    c23 5770   1.753   6.088   5.158  0.0562  0.3144 -0.0146
  661poe     o2 5771   1.784   6.014   5.041 -0.1035  0.2511 -0.0171
  661poe    c31 5772   1.699   5.903   5.025  0.5696 -0.2669 -0.0315
  662poe    c31 5773   5.911   5.457   4.229  0.0707 -0.2854  0.4631
  662poe     o2 5774   5.897   5.518   4.355 -0.4255  0.5772 -0.0013
  662poe    c23 5775   6.022   5.560   4.405 -0.2098 -0.0925  0.0251
  662poe    c23 5776   6.003   5.571   4.558 -0.6038 -0.3122 -0.0032
  662poe     o2 5777   5.957   5.449   4.610 -0.1175 -0.5206 -0.0509
  662poe    c23 5778   5.930   5.447   4.748  0.5058 -0.1703  0.0799
  662poe    c23 5779   5.827   5.334   4.769  0.2617  0.1283  0.5150
  662poe     o2 5780   5.736   5.336   4.661  1.1135 -0.2777 -0.2257
  662poe    c23 5781   5.666   5.216   4.642  0.0820  0.2527  0.1458
  662poe    c23 5782   5.572   5.242   4.523  0.3901 -0.4052 -0.2470
  662poe     o2 5783   5.656   5.294   4.423  0.6944 -0.6514 -0.1229
  662poe    c31 5784   5.599   5.269   4.296 -0.2665 -0.0782  0.1794
  663poe    c31 5785   4.131   3.425   0.635 -0.1479  0.2247  0.0429
  663poe     o2 5786   4.063   3.346   0.540  0.3325 -0.3964  0.2103
  663poe    c23 5787   4.098   3.210   0.529 -0.0951 -0.4901 -0.0046
  663poe    c23 5788   4.018   3.150   0.411  0.1108 -0.9179  0.0705
  663poe     o2 5789   3.887   3.200   0.428  0.4494  0.0311 -0.0619
  663poe    c23 5790   3.794   3.187   0.323  0.0353  0.0600  0.3039
  663poe    c23 5791   3.793   3.317   0.240  0.3884 -0.3885 -0.4073
  663poe     o2 5792   3.812   3.425   0.329 -0.2531 -0.4408 -0.1999
  663poe    c23 5793   3.841   3.546   0.263 -0.3041 -0.3311 -0.0195
  663poe    c23 5794   3.854   3.654   0.372  0.1663 -0.0781 -0.3221
  663poe     o2 5795   3.963   3.637   0.460  0.1962  0.0564 -0.3323
  663poe    c31 5796   4.008   3.757   0.519 -0.0605 -0.0135  0.0080
  664poe    c31 5797   0.951   2.655   4.202  0.2418 -0.4180 -0.1818
  664poe     o2 5798   0.985   2.606   4.074  0.1324 -0.7406 -0.0889
  664poe    c23 5799   1.122   2.572   4.063  0.2191 -0.3525 -0.2310
  664poe    c23 5800   1.188   2.661   3.957  0.7250 -0.2427  0.1735
  664poe     o2 5801   1.115   2.647   3.837  0.5261 -0.6762  0.3423
  664poe    c23 5802   1.154   2.741   3.739 -0.3363 -0.0548  0.5782
  664poe    c23 5803   1.036   2.750   3.640  0.2233 -0.1714 -0.1093
  664poe     o2 5804   0.926   2.777   3.723  0.3280  0.1252 -0.0663
  664poe    c23 5805   0.798   2.741   3.675  0.3526  0.3145 -0.2751
  664poe    c23 5806   0.758   2.599   3.718 -0.0435  0.4496 -0.1903
  664poe     o2 5807   0.797   2.583   3.852  0.2165 -0.2428 -0.3440
  664poe    c31 5808   0.774   2.448   3.888  0.0530 -0.1327 -0.0261
  665poe    c31 5809   2.530   0.190   3.333 -0.5781 -0.2847  0.4103
  665poe     o2 5810   2.442   0.251   3.424 -0.3923 -0.1889  0.5279
  665poe    c23 5811   2.486   0.385   3.429 -0.2306 -0.1968 -0.4290
  665poe    c23 5812   2.407   0.456   3.540 -0.1630 -0.3768 -0.2653
  665poe     o2 5813   2.270   0.444   3.511 -0.2685 -0.5626  0.2891
  665poe    c23 5814   2.187   0.506   3.606  0.1143  0.3816  0.0108
  665poe    c23 5815   2.049   0.484   3.541  0.0879  0.2286  0.1179
  665poe     o2 5816   2.042   0.350   3.498  0.1956  0.2840 -0.0739
  665poe    c23 5817   1.907   0.323   3.468  0.1530 -0.1536  0.4930
  665poe    c23 5818   1.891   0.179   3.417  0.6669 -0.2154  0.5035
  665poe     o2 5819   1.956   0.153   3.295 -0.2686  0.4932 -0.1603
  665poe    c31 5820   1.873   0.074   3.213  0.6547 -0.0505 -0.5993
  666poe    c31 5821   6.510   5.490   4.956  0.2205  0.1258  0.1243
  666poe     o2 5822   6.527   5.468   4.818  0.0819  0.1281  0.1063
  666poe    c23 5823   6.408   5.412   4.769  0.1297  0.0427  0.0887
  666poe    c23 5824   6.395   5.418   4.615  0.5039 -0.1658  0.0493
  666poe     o2 5825   6.524   5.379   4.571  0.4255 -0.0492 -0.2828
  666poe    c23 5826   6.546   5.395   4.433 -0.0615 -0.2709 -0.3873
  666poe    c23 5827   6.619   5.524   4.392 -0.3666  0.0176 -0.0304
  666poe     o2 5828   6.707   5.536   4.502  0.0816  0.0045 -0.3797
  666poe    c23 5829   6.748   5.670   4.516 -0.2859  0.0398  0.4543
  666poe    c23 5830   6.858   5.674   4.624  0.2996  0.0805 -0.1359
  666poe     o2 5831   6.809   5.599   4.733  0.2778 -0.2059 -0.3421
  666poe    c31 5832   6.901   5.607   4.839 -0.1442  0.5005 -0.0253
  667poe    c31 5833   2.156   1.336   3.486  0.5531 -0.3685 -0.0797
  667poe     o2 5834   2.225   1.432   3.410 -0.3346 -0.2289 -0.7204
  667poe    c23 5835   2.125   1.496   3.334 -0.7193  0.3583  0.2718
  667poe    c23 5836   2.196   1.607   3.255  0.0848 -0.2103  0.1866
  667poe     o2 5837   2.283   1.536   3.170 -0.2398  0.0889 -0.4048
  667poe    c23 5838   2.390   1.612   3.118 -0.1759  0.1354 -0.2067
  667poe    c23 5839   2.508   1.518   3.087 -0.0286  0.1153  0.4116
  667poe     o2 5840   2.509   1.434   3.201 -0.0782 -0.2318  0.1572
  667poe    c23 5841   2.625   1.443   3.280 -0.0246  0.5324 -0.0054
  667poe    c23 5842   2.617   1.353   3.404  0.1037  0.5249 -0.0025
  667poe     o2 5843   2.489   1.355   3.465  0.1242 -0.0468  0.0620
  667poe    c31 5844   2.490   1.288   3.589 -0.9149 -0.2428 -0.0307
  668poe    c31 5845   6.220   6.269   5.936 -0.2826  0.3402 -0.0919
  668poe     o2 5846   6.248   6.224   5.806 -0.0070 -0.0635  0.1027
  668poe    c23 5847   6.386   6.239   5.778 -0.0406 -0.3717 -0.2394
  668poe    c23 5848   6.405   6.260   5.627  0.2744  0.4729 -0.0888
  668poe     o2 5849   6.379   6.153   5.538  0.2081  0.4719 -0.0676
  668poe    c23 5850   6.479   6.158   5.439  0.0005  0.7782 -0.2672
  668poe    c23 5851   6.440   6.067   5.321 -0.0538  0.5238 -0.0554
  668poe     o2 5852   6.407   5.944   5.381  0.1249  0.4518 -0.1025
  668poe    c23 5853   6.348   5.859   5.285 -0.0833  0.1921  0.2543
  668poe    c23 5854   6.288   5.747   5.373  0.0208 -0.2098 -0.1849
  668poe     o2 5855   6.209   5.809   5.472  0.3041 -0.6541  0.3259
  668poe    c31 5856   6.109   5.724   5.524 -0.1421 -0.3663 -0.0528
  669poe    c31 5857   3.832   0.162   1.438 -0.0161  0.2785 -0.1011
  669poe     o2 5858   3.697   0.198   1.451 -0.1030  0.0759 -0.4151
  669poe    c23 5859   3.646   0.213   1.321 -0.3010  0.0277 -0.3435
  669poe    c23 5860   3.503   0.264   1.344 -0.1453  0.2835  0.0541
  669poe     o2 5861   3.520   0.374   1.431  0.2173  0.0331  0.3017
  669poe    c23 5862   3.414   0.466   1.418  0.2267 -0.0169 -0.1615
  669poe    c23 5863   3.458   0.581   1.512 -0.5787  0.2983 -0.1667
  669poe     o2 5864   3.509   0.534   1.634 -0.7234  0.6920  0.0479
  669poe    c23 5865   3.613   0.621   1.673  0.5993 -0.3873 -0.9370
  669poe    c23 5866   3.723   0.530   1.729  0.4306 -0.0407 -0.0228
  669poe     o2 5867   3.766   0.440   1.629  0.2401 -0.1101 -0.0424
  669poe    c31 5868   3.905   0.421   1.639  0.1929 -0.3191  0.2649
  670poe    c31 5869   4.314   5.501   3.410  0.4177  0.0469  0.1093
  670poe     o2 5870   4.317   5.482   3.550  0.0557  0.3195  0.1559
  670poe    c23 5871   4.328   5.614   3.599 -0.7235  0.4335  0.0318
  670poe    c23 5872   4.335   5.607   3.753 -0.5459 -0.2725 -0.0071
  670poe     o2 5873   4.417   5.498   3.789 -0.3447 -0.0025  0.3537
  670poe    c23 5874   4.416   5.472   3.927 -0.1590 -0.6517  0.2379
  670poe    c23 5875   4.523   5.363   3.944  0.0602 -0.3704  0.6745
  670poe     o2 5876   4.490   5.270   3.843 -0.0015 -0.5856  0.8926
  670poe    c23 5877   4.602   5.209   3.783  0.0444 -0.0016  0.3754
  670poe    c23 5878   4.544   5.121   3.670  0.0794  0.3683  0.0680
  670poe     o2 5879   4.471   5.207   3.585  0.3563  0.0118 -0.5300
  670poe    c31 5880   4.445   5.133   3.467  0.3604 -0.3300 -0.3191
  671poe    c31 5881   2.712   0.240   4.191 -0.2033  0.3572 -0.3499
  671poe     o2 5882   2.616   0.343   4.196 -0.1827  0.3367  0.9443
  671poe    c23 5883   2.680   0.450   4.129  0.0333 -0.1582  0.3499
  671poe    c23 5884   2.594   0.575   4.150  0.5429  0.3943 -0.7610
  671poe     o2 5885   2.463   0.547   4.107  0.5619  0.0095 -0.5692
  671poe    c23 5886   2.388   0.666   4.117  0.8990  0.2608 -1.0003
  671poe    c23 5887   2.267   0.627   4.030  0.2249 -0.2212  0.1260
  671poe     o2 5888   2.209   0.513   4.089  0.1667 -0.2164  0.0788
  671poe    c23 5889   2.068   0.508   4.093  0.1557 -0.1167 -0.1717
  671poe    c23 5890   2.032   0.358   4.096 -0.0500 -0.0650 -0.0233
  671poe     o2 5891   2.073   0.293   4.214 -0.7405 -0.1183  0.1876
  671poe    c31 5892   2.066   0.154   4.194 -0.2753 -0.0915 -0.1759
  672poe    c31 5893   0.552   1.324   5.183  0.1166  0.2829  0.8022
  672poe     o2 5894   0.493   1.196   5.188  0.2195  0.2002  0.0280
  672poe    c23 5895   0.354   1.220   5.197  0.0579 -0.1841 -1.1844
  672poe    c23 5896   0.292   1.084   5.232 -0.0332  0.0181 -0.5392
  672poe     o2 5897   0.348   0.976   5.161  0.3316  0.0092 -0.2409
  672poe    c23 5898   0.320   0.850   5.218  0.0376  0.2143  0.0671
  672poe    c23 5899   0.446   0.771   5.179  0.2343  0.2986  0.5288
  672poe     o2 5900   0.556   0.859   5.168  0.3969  0.0159 -0.1566
  672poe    c23 5901   0.654   0.790   5.094 -0.1804 -0.1288 -0.7927
  672poe    c23 5902   0.757   0.892   5.041  0.1492 -0.5055 -0.8839
  672poe     o2 5903   0.679   1.009   5.033  0.7413 -0.0539 -0.2385
  672poe    c31 5904   0.753   1.116   4.977 -0.5816  0.9368 -0.1527
  673poe    c31 5905   1.412   3.994   3.061  0.3766 -0.2440  0.1672
  673poe     o2 5906   1.436   3.946   3.191  0.0533 -0.2703  0.2183
  673poe    c23 5907   1.327   3.981   3.273  0.1389  0.1500  0.1547
  673poe    c23 5908   1.352   3.930   3.416 -0.1487  0.1186  0.1956
  673poe     o2 5909   1.390   3.797   3.390 -0.2694  0.1897 -0.3571
  673poe    c23 5910   1.417   3.733   3.513 -0.5280  0.2619 -0.2630
  673poe    c23 5911   1.490   3.611   3.454  0.3665  0.4239  0.4867
  673poe     o2 5912   1.583   3.659   3.361 -0.2122 -0.1607 -0.4085
  673poe    c23 5913   1.637   3.554   3.284  0.6468 -0.1417  0.1544
  673poe    c23 5914   1.694   3.630   3.163 -0.4190  0.3554 -0.0433
  673poe     o2 5915   1.607   3.731   3.116 -0.6378 -0.0282 -0.4627
  673poe    c31 5916   1.678   3.803   3.018  0.4357 -0.1917  0.1785
  674poe    c31 5917   5.713   5.976   3.242  0.3167 -0.1065 -0.0572
  674poe     o2 5918   5.609   5.965   3.146  0.3534  0.6196 -0.1883
  674poe    c23 5919   5.489   5.926   3.209  0.4278  0.3003 -0.2397
  674poe    c23 5920   5.388   5.882   3.102 -0.0588  0.9081 -0.0403
  674poe     o2 5921   5.409   5.983   3.007  0.3700  0.4320 -0.4607
  674poe    c23 5922   5.329   5.957   2.893  0.2411 -0.1430 -0.2420
  674poe    c23 5923   5.377   6.063   2.791 -0.2473  0.5267  0.2142
  674poe     o2 5924   5.517   6.051   2.791 -0.2745  0.1843  0.1148
  674poe    c23 5925   5.592   6.158   2.737  0.1868 -0.1110  0.1626
  674poe    c23 5926   5.604   6.269   2.842 -0.2221  0.2293 -0.1474
  674poe     o2 5927   5.622   6.214   2.970 -0.2271  0.1187 -0.1951
  674poe    c31 5928   5.667   6.308   3.065  0.1327 -0.2611  0.0147
  675poe    c31 5929   5.778   3.459   1.947  0.2654  0.1572 -0.1143
  675poe     o2 5930   5.885   3.502   2.028 -0.2291  0.4003  0.4159
  675poe    c23 5931   5.955   3.616   1.981  0.3903 -0.1964 -0.1275
  675poe    c23 5932   6.049   3.655   2.096  0.3018 -0.3387 -0.0058
  675poe     o2 5933   6.125   3.544   2.140  0.6424 -0.1594 -0.1389
  675poe    c23 5934   6.150   3.550   2.279  0.0553 -0.9196  0.0072
  675poe    c23 5935   6.027   3.499   2.355 -0.3466 -0.2492 -0.1801
  675poe     o2 5936   5.985   3.381   2.288 -0.0094 -0.1670 -0.5395
  675poe    c23 5937   5.872   3.327   2.352  0.3208 -0.0377  0.1656
  675poe    c23 5938   5.849   3.202   2.266  0.7819 -0.3291  0.4578
  675poe     o2 5939   5.856   3.236   2.129  0.1113 -0.2485  0.4371
  675poe    c31 5940   5.828   3.127   2.043  0.3469 -0.2422  0.3497
  676poe    c31 5941   4.492   4.102   4.703 -0.0494 -0.8690  0.6129
  676poe     o2 5942   4.376   4.182   4.718  0.6083  0.1574  0.3358
  676poe    c23 5943   4.315   4.136   4.836 -0.4223 -0.1352 -0.3031
  676poe    c23 5944   4.182   4.211   4.858 -0.2473  0.1479 -0.2089
  676poe     o2 5945   4.194   4.349   4.881 -0.2842  0.1369 -0.1235
  676poe    c23 5946   4.070   4.412   4.900 -0.1807  0.3418 -0.1151
  676poe    c23 5947   4.083   4.564   4.881 -0.3104  0.2994 -0.5655
  676poe     o2 5948   4.164   4.609   4.775  0.1791  0.0782 -0.2910
  676poe    c23 5949   4.171   4.750   4.765  0.1691  0.0833 -0.2298
  676poe    c23 5950   4.284   4.789   4.669  0.4896 -0.0646  0.0845
  676poe     o2 5951   4.412   4.749   4.712  0.5052  0.2412  0.3282
  676poe    c31 5952   4.490   4.798   4.606 -0.2974  0.2003 -0.2898
  677poe    c31 5953   0.935   3.481   1.734  0.4230 -0.2688 -0.5522
  677poe     o2 5954   0.824   3.395   1.721  0.0447  0.0616  0.3822
  677poe    c23 5955   0.773   3.394   1.589  0.2464 -0.2678  0.3076
  677poe    c23 5956   0.632   3.333   1.599 -0.1147  0.5633  0.3215
  677poe     o2 5957   0.638   3.227   1.692  0.0963  0.2904  0.0005
  677poe    c23 5958   0.514   3.163   1.706 -0.1972  0.9428  0.4631
  677poe    c23 5959   0.504   3.113   1.852 -0.6016 -0.3111  0.0260
  677poe     o2 5960   0.530   3.229   1.928 -0.4327 -0.8265  0.7621
  677poe    c23 5961   0.555   3.190   2.061  0.2856 -0.5976  0.7019
  677poe    c23 5962   0.646   3.298   2.120 -0.3853  0.1283  0.4304
  677poe     o2 5963   0.742   3.327   2.021 -0.5651  0.1364  0.2596
  677poe    c31 5964   0.835   3.416   2.077 -0.1048 -0.0471 -0.1986
  678poe    c31 5965   1.719   4.910   5.070 -0.1789  0.2043 -0.0701
  678poe     o2 5966   1.665   5.041   5.070 -0.1036  0.2357 -0.2724
  678poe    c23 5967   1.606   5.071   4.945  0.3109  0.1520 -0.4907
  678poe    c23 5968   1.591   5.220   4.907 -1.0286  0.0400 -0.4526
  678poe     o2 5969   1.511   5.286   5.003  0.1146  0.3523  0.3174
  678poe    c23 5970   1.529   5.420   4.962  0.2053  0.0712 -0.5994
  678poe    c23 5971   1.464   5.506   5.072  0.5815 -0.4934  0.0834
  678poe     o2 5972   1.500   5.442   5.192 -0.2392 -0.5809  0.2858
  678poe    c23 5973   1.443   5.516   5.298 -0.1787 -0.0795 -0.0284
  678poe    c23 5974   1.436   5.434   5.428 -0.4593  0.6682  0.4311
  678poe     o2 5975   1.360   5.319   5.398  0.0583  0.3751  0.2252
  678poe    c31 5976   1.366   5.245   5.518  0.1310  0.4072  0.2411
  679poe    c31 5977   1.056   1.638   1.034 -0.0763  0.6855  0.4781
  679poe     o2 5978   1.172   1.573   1.080 -0.1832  0.0681 -0.1107
  679poe    c23 5979   1.136   1.466   1.164 -0.1301  0.2155  0.1012
  679poe    c23 5980   1.244   1.411   1.259  0.0572  0.0873 -0.1832
  679poe     o2 5981   1.353   1.349   1.194  0.1942 -0.2148  0.3325
  679poe    c23 5982   1.408   1.249   1.278  0.3911 -0.1102  0.3291
  679poe    c23 5983   1.554   1.296   1.289  0.1094  0.7975  0.2689
  679poe     o2 5984   1.590   1.320   1.155 -0.0534  0.1840  0.1135
  679poe    c23 5985   1.722   1.369   1.150  0.0873 -0.2106 -0.0442
  679poe    c23 5986   1.760   1.395   1.003 -0.0226  0.0432 -0.0278
  679poe     o2 5987   1.650   1.458   0.941 -0.1400 -0.0918  0.0422
  679poe    c31 5988   1.693   1.542   0.835 -0.5327  0.4017  0.2715
  680poe    c31 5989   3.757   3.929   2.661  0.5456 -0.1903  0.0083
  680poe     o2 5990   3.681   4.044   2.692  0.7679 -0.0417 -0.0013
  680poe    c23 5991   3.621   4.029   2.818  0.0383  0.7271 -0.2489
  680poe    c23 5992   3.471   4.062   2.810  0.0057  0.4683 -0.7103
  680poe     o2 5993   3.458   4.174   2.725  0.0797  0.8808 -0.1854
  680poe    c23 5994   3.329   4.223   2.698 -0.2313  0.3257  0.2773
  680poe    c23 5995   3.362   4.357   2.631  0.0928  0.2537  0.2948
  680poe     o2 5996   3.466   4.326   2.541 -0.1994 -0.2434  0.1295
  680poe    c23 5997   3.520   4.449   2.498  0.0550 -0.3872  0.0360
  680poe    c23 5998   3.634   4.408   2.403 -0.3161 -0.5327 -0.3479
  680poe     o2 5999   3.708   4.307   2.467 -0.0020 -0.3583 -0.4370
  680poe    c31 6000   3.844   4.310   2.427  0.2007 -0.1109  0.2627
  681poe    c31 6001   2.373   4.107   3.229  0.1087  0.1037 -0.3464
  681poe     o2 6002   2.386   3.994   3.145 -0.4869  0.2009 -0.5764
  681poe    c23 6003   2.517   4.015   3.098 -0.4291  0.6310 -0.2379
  681poe    c23 6004   2.541   3.923   2.976  0.2531  0.1811  0.2256
  681poe     o2 6005   2.507   3.795   3.025 -0.4673  0.4316  0.4002
  681poe    c23 6006   2.510   3.708   2.914 -0.1744  0.7645  0.1467
  681poe    c23 6007   2.426   3.591   2.969  0.4534  0.2518  0.0228
  681poe     o2 6008   2.312   3.649   3.029  0.5028  0.2695  0.0998
  681poe    c23 6009   2.243   3.550   3.102  0.0174  0.2066 -0.4403
  681poe    c23 6010   2.151   3.634   3.191  0.0648 -0.3971  0.1839
  681poe     o2 6011   2.223   3.748   3.231  0.0158 -0.2664 -0.1018
  681poe    c31 6012   2.164   3.793   3.351 -0.2163 -0.5974 -0.0903
  682poe    c31 6013   6.422   1.930   2.622 -0.1867  0.0850  0.0196
  682poe     o2 6014   6.344   1.814   2.640  0.0847 -0.2238 -0.7305
  682poe    c23 6015   6.211   1.832   2.599 -0.1937  0.2227  0.3215
  682poe    c23 6016   6.128   1.724   2.672 -0.0630  0.2139  0.4583
  682poe     o2 6017   6.204   1.609   2.643 -0.2720  0.1593  0.1141
  682poe    c23 6018   6.141   1.497   2.703  0.0110 -0.3867 -0.5964
  682poe    c23 6019   6.259   1.400   2.720  0.1137 -0.0485  0.7503
  682poe     o2 6020   6.367   1.484   2.754  0.0821  0.1805  0.3037
  682poe    c23 6021   6.488   1.411   2.762  0.0812  0.0807 -0.5654
  682poe    c23 6022   6.585   1.505   2.835 -0.6606  0.5578 -0.1862
  682poe     o2 6023   6.575   1.632   2.774 -0.4641  0.4473 -0.4504
  682poe    c31 6024   6.674   1.718   2.826 -0.3000  0.0769 -0.1419
  683poe    c31 6025   2.952   5.722   6.361  0.7770  0.2847 -0.0046
  683poe     o2 6026   2.915   5.648   6.247 -0.1238  0.3709  0.2261
  683poe    c23 6027   2.777   5.658   6.217 -0.1524  0.1848  0.2930
  683poe    c23 6028   2.728   5.574   6.098 -0.3579  0.3668  0.2497
  683poe     o2 6029   2.798   5.601   5.978 -0.0049  0.3978  0.4626
  683poe    c23 6030   2.719   5.549   5.874  0.3609  0.2560  0.2530
  683poe    c23 6031   2.800   5.567   5.745 -0.0650 -0.0523 -0.0619
  683poe     o2 6032   2.925   5.511   5.781 -0.1943 -0.3263 -0.0376
  683poe    c23 6033   3.003   5.519   5.664 -0.4319 -0.4439 -0.2060
  683poe    c23 6034   3.109   5.410   5.687 -0.2042 -0.1986 -0.0852
  683poe     o2 6035   3.138   5.398   5.824  0.0807  0.0911 -0.1196
  683poe    c31 6036   3.249   5.312   5.835 -0.3639 -0.4135  0.5094
  684poe    c31 6037   1.348   0.192   3.939  0.1698 -0.0214 -0.1266
  684poe     o2 6038   1.450   0.123   4.009  0.3330 -0.2072 -0.5431
  684poe    c23 6039   1.563   0.163   3.934  0.4809 -0.4998 -0.4770
  684poe    c23 6040   1.691   0.109   4.000  0.5653 -0.0344 -0.2527
  684poe     o2 6041   1.651  -0.025   4.022 -0.4689  0.3471  0.2695
  684poe    c23 6042   1.750  -0.089   4.100 -0.4182 -0.4593 -0.4482
  684poe    c23 6043   1.688  -0.218   4.157 -0.5065 -0.1302  0.2141
  684poe     o2 6044   1.561  -0.169   4.192 -0.2391  0.5701  0.2092
  684poe    c23 6045   1.472  -0.258   4.255 -0.4319  0.4384 -0.2461
  684poe    c23 6046   1.363  -0.161   4.304 -0.2401  0.4231  0.2080
  684poe     o2 6047   1.334  -0.096   4.183 -0.2437  0.2637  0.1236
  684poe    c31 6048   1.194  -0.086   4.166 -0.3835 -0.9682  0.4595
  685poe    c31 6049   1.160   5.793   0.434  0.3836 -0.3281  0.3288
  685poe     o2 6050   1.075   5.760   0.327 -0.0176 -0.0527  0.5597
  685poe    c23 6051   1.109   5.635   0.269 -0.2882 -0.0294  0.3483
  685poe    c23 6052   1.021   5.587   0.152  0.0513 -0.3199  0.2133
  685poe     o2 6053   0.885   5.582   0.187 -0.0371 -0.3656 -0.1391
  685poe    c23 6054   0.809   5.555   0.071  0.1890 -0.1613 -0.3353
  685poe    c23 6055   0.685   5.648   0.067 -0.3618 -0.8780 -0.1291
  685poe     o2 6056   0.633   5.638   0.198  0.4482  0.3913  0.3055
  685poe    c23 6057   0.528   5.729   0.220  0.2738  0.2802 -0.0648
  685poe    c23 6058   0.468   5.712   0.360  0.3896  0.1729 -0.0286
  685poe     o2 6059   0.569   5.701   0.458  0.4671  0.8706 -0.0286
  685poe    c31 6060   0.509   5.692   0.586  0.3922  0.5442 -0.0860
  686poe    c31 6061   1.737   4.951   1.364 -0.2078 -0.2087 -0.4974
  686poe     o2 6062   1.758   5.042   1.258 -0.3189 -0.0832 -0.4117
  686poe    c23 6063   1.783   4.972   1.138  0.6227 -0.3623 -0.0626
  686poe    c23 6064   1.722   5.062   1.029  0.0424 -0.1509  0.4239
  686poe     o2 6065   1.769   5.191   1.059  0.1890 -0.0555 -0.1828
  686poe    c23 6066   1.710   5.279   0.966 -0.1581 -0.2065 -0.1071
  686poe    c23 6067   1.745   5.423   1.009  0.0067 -0.2287 -0.1673
  686poe     o2 6068   1.702   5.420   1.143 -0.0232 -0.1759 -0.1754
  686poe    c23 6069   1.750   5.516   1.235  0.1164 -0.1609 -0.2643
  686poe    c23 6070   1.685   5.462   1.363 -0.6524 -0.3872 -0.7407
  686poe     o2 6071   1.722   5.326   1.377  0.2105 -0.1061 -0.1675
  686poe    c31 6072   1.689   5.302   1.511  0.0061 -0.5769 -0.3013
  687poe    c31 6073   4.328   2.601   6.316 -0.3325 -0.5354 -0.0964
  687poe     o2 6074   4.278   2.720   6.260  0.6202  0.1649  0.5234
  687poe    c23 6075   4.364   2.784   6.169  0.1414 -0.2516 -0.2236
  687poe    c23 6076   4.315   2.925   6.130  0.1277 -0.1735  0.0752
  687poe     o2 6077   4.366   3.034   6.203  0.6687 -0.4892  0.1761
  687poe    c23 6078   4.404   3.140   6.118  0.3870 -0.2391  0.3588
  687poe    c23 6079   4.481   3.248   6.196 -0.2997  0.6039 -0.1200
  687poe     o2 6080   4.404   3.268   6.312 -0.5162 -0.1071 -0.1352
  687poe    c23 6081   4.476   3.317   6.424 -0.1327 -0.7053 -0.1186
  687poe    c23 6082   4.386   3.302   6.548 -0.3736 -0.4449 -0.2625
  687poe     o2 6083   4.326   3.175   6.536 -0.0556 -0.6416  0.2225
  687poe    c31 6084   4.250   3.165   6.654  0.2137 -0.4294  0.4161
  688poe    c31 6085   3.072   0.887   1.996  0.8506 -1.1894 -0.2021
  688poe     o2 6086   3.047   0.819   2.117 -0.6935 -0.3827 -0.0469
  688poe    c23 6087   2.976   0.702   2.085 -0.2536 -0.6167 -0.1714
  688poe    c23 6088   2.957   0.625   2.217  0.3137 -0.0981  0.2158
  688poe     o2 6089   3.068   0.672   2.289  0.5430 -0.5898  0.1812
  688poe    c23 6090   3.079   0.626   2.422 -0.2822 -0.0828  0.4252
  688poe    c23 6091   3.142   0.731   2.517 -0.4495  0.4825 -0.0820
  688poe     o2 6092   3.097   0.856   2.471 -0.4859  0.6182  0.3212
  688poe    c23 6093   3.176   0.959   2.527  0.9650 -0.2671 -0.0448
  688poe    c23 6094   3.122   1.079   2.448  0.4946 -0.3486  0.1479
  688poe     o2 6095   3.106   1.040   2.313  0.2983 -0.1331  0.1071
  688poe    c31 6096   3.081   1.165   2.252  0.3109  0.1232  0.6226
  689poe    c31 6097   3.414   6.122   1.299  0.5793 -0.2011 -0.1801
  689poe     o2 6098   3.355   5.994   1.295  0.2891 -0.0680 -0.2151
  689poe    c23 6099   3.251   5.973   1.203  0.1136  0.2210 -0.0826
  689poe    c23 6100   3.224   5.822   1.192 -0.1202  0.2599 -0.0393
  689poe     o2 6101   3.167   5.778   1.313 -0.0962 -0.2893 -0.2221
  689poe    c23 6102   3.128   5.643   1.325 -0.5721 -0.1032  0.3736
  689poe    c23 6103   3.148   5.586   1.466  0.0851 -0.3276  0.1917
  689poe     o2 6104   3.068   5.675   1.540  0.2080 -0.1339  0.0922
  689poe    c23 6105   3.081   5.656   1.679  1.5846  0.4642  0.0660
  689poe    c23 6106   3.018   5.783   1.739  0.1709 -0.0080 -0.3746
  689poe     o2 6107   3.067   5.901   1.680 -0.7609  0.5629 -0.0261
  689poe    c31 6108   3.061   6.013   1.766  0.2308  0.1700  0.5697
  690poe    c31 6109   2.524   6.716   1.301 -0.0302 -0.3879  0.0618
  690poe     o2 6110   2.620   6.807   1.253 -0.0764 -0.5039 -0.2488
  690poe    c23 6111   2.747   6.809   1.313  0.0757  0.1445 -0.5773
  690poe    c23 6112   2.859   6.738   1.234  0.0425 -0.3279 -0.2071
  690poe     o2 6113   2.887   6.824   1.126 -0.3481 -0.0409 -0.0814
  690poe    c23 6114   2.948   6.750   1.023  0.0590 -0.2479  0.3010
  690poe    c23 6115   3.018   6.855   0.935 -0.1102  0.5314  1.0797
  690poe     o2 6116   2.926   6.942   0.873 -0.1454  0.0111  0.3811
  690poe    c23 6117   3.000   7.036   0.798 -0.2486  0.1588  0.4625
  690poe    c23 6118   2.900   7.143   0.751  0.1642  0.3452  0.0030
  690poe     o2 6119   2.820   7.175   0.862 -0.2250 -0.1482 -0.1316
  690poe    c31 6120   2.743   7.292   0.841  0.3141  0.2684  0.2089
  691poe    c31 6121   4.436   5.404   0.310 -0.4800  0.0274  0.9090
  691poe     o2 6122   4.543   5.437   0.395  0.4262 -0.1102 -0.1478
  691poe    c23 6123   4.559   5.575   0.420  0.3290 -0.0955 -0.1675
  691poe    c23 6124   4.649   5.580   0.545  0.6813  0.4766 -0.4404
  691poe     o2 6125   4.759   5.493   0.531  0.3121 -0.0607 -0.0566
  691poe    c23 6126   4.833   5.489   0.651  0.1512 -0.3638  0.0330
  691poe    c23 6127   4.915   5.359   0.640  0.7143  0.0062 -0.1965
  691poe     o2 6128   4.814   5.271   0.595  0.5317  0.1634 -0.0975
  691poe    c23 6129   4.857   5.142   0.557 -0.3328 -0.1593  0.0111
  691poe    c23 6130   4.730   5.069   0.508 -0.3696 -0.0471 -0.0621
  691poe     o2 6131   4.651   5.151   0.425 -0.8827 -0.1285  0.3459
  691poe    c31 6132   4.551   5.084   0.351 -0.5832  0.3920 -0.5420
  692poe    c31 6133   2.566   2.348   0.177 -0.0377  0.2638 -0.3620
  692poe     o2 6134   2.645   2.257   0.250 -0.4403 -0.0887 -0.3619
  692poe    c23 6135   2.578   2.230   0.371  0.5444 -0.3190  0.1436
  692poe    c23 6136   2.675   2.154   0.463  0.8455  0.1635  0.2254
  692poe     o2 6137   2.770   2.111   0.368  0.3382 -0.1272 -0.1527
  692poe    c23 6138   2.869   2.025   0.420 -0.0574 -0.4207  0.1198
  692poe    c23 6139   3.002   2.074   0.359 -0.0564 -0.6842 -0.0927
  692poe     o2 6140   2.983   2.096   0.221  0.0392 -0.4109 -0.0640
  692poe    c23 6141   3.061   2.204   0.176 -0.3379  0.0518  0.3779
  692poe    c23 6142   3.013   2.255   0.038  0.3146 -0.3960 -0.0203
  692poe     o2 6143   2.875   2.282   0.045  0.4210  0.2361 -0.3296
  692poe    c31 6144   2.824   2.312  -0.083 -0.2171 -0.1413 -0.1667
  693poe    c31 6145   0.812   5.551   0.952  0.0556 -0.2786 -0.4588
  693poe     o2 6146   0.852   5.443   0.870  0.7207 -0.1983 -0.2412
  693poe    c23 6147   0.954   5.485   0.782  0.2067  0.4836 -0.5216
  693poe    c23 6148   1.000   5.372   0.688  0.4790  0.0833  0.0880
  693poe     o2 6149   0.983   5.252   0.761 -0.4042  0.1080 -0.0556
  693poe    c23 6150   1.039   5.141   0.694 -0.1005  0.0547  0.2809
  693poe    c23 6151   1.028   5.043   0.812 -0.2765 -0.4437 -0.1461
  693poe     o2 6152   0.910   5.073   0.882 -0.0801 -0.0296  0.0145
  693poe    c23 6153   0.899   5.009   1.007  0.2715  0.1583  0.1400
  693poe    c23 6154   0.776   5.069   1.077  0.2539  0.2561  0.0256
  693poe     o2 6155   0.800   5.205   1.052  0.2147  0.2443 -0.0750
  693poe    c31 6156   0.746   5.273   1.163 -0.0443 -0.0761 -0.0068
  694poe    c31 6157   6.572   5.170   1.863 -0.4413 -0.1197 -0.4525
  694poe     o2 6158   6.452   5.240   1.883 -0.2421  0.2490 -0.5234
  694poe    c23 6159   6.446   5.363   1.814 -0.0776  0.5986  0.0705
  694poe    c23 6160   6.306   5.410   1.856 -0.0795 -0.2665  1.0669
  694poe     o2 6161   6.214   5.316   1.804 -0.1139  0.1260  0.4055
  694poe    c23 6162   6.083   5.366   1.824 -0.2334 -0.0371  0.0303
  694poe    c23 6163   5.985   5.258   1.776 -0.1896 -0.1059  0.0960
  694poe     o2 6164   6.039   5.134   1.816  0.4102 -0.0725 -0.5938
  694poe    c23 6165   5.995   5.015   1.755  0.3121 -0.2655 -0.1526
  694poe    c23 6166   6.087   4.900   1.799  0.0111 -0.4571 -0.0243
  694poe     o2 6167   6.215   4.959   1.803 -0.1183 -0.2196  0.7629
  694poe    c31 6168   6.321   4.866   1.810  0.2902  0.1768 -0.1123
  695poe    c31 6169   3.552   4.129   4.748  0.4001 -0.3506 -0.0058
  695poe     o2 6170   3.492   4.168   4.626 -0.0307  0.0872  0.3392
  695poe    c23 6171   3.586   4.156   4.522 -0.1619 -0.3581  0.2687
  695poe    c23 6172   3.556   4.249   4.404 -0.1507 -0.1428  0.4349
  695poe     o2 6173   3.565   4.386   4.437  0.2301 -0.0814  0.0836
  695poe    c23 6174   3.567   4.464   4.320 -0.0652 -0.1904  0.0062
  695poe    c23 6175   3.574   4.611   4.367 -0.0834 -0.0988 -0.2736
  695poe     o2 6176   3.451   4.625   4.433  0.0647  0.0008 -0.0172
  695poe    c23 6177   3.437   4.753   4.490 -0.5090  0.2690 -0.7477
  695poe    c23 6178   3.299   4.744   4.559 -0.3657  0.2607 -0.4647
  695poe     o2 6179   3.291   4.624   4.633  0.2157  0.4604 -0.0695
  695poe    c31 6180   3.209   4.640   4.747 -0.0436  0.5861 -0.2720
  696poe    c31 6181   5.267   2.931   3.745 -0.0023  0.2059 -0.6701
  696poe     o2 6182   5.404   2.961   3.732  0.0759  0.3957  0.4826
  696poe    c23 6183   5.456   2.838   3.686 -0.5529  0.2081  0.2602
  696poe    c23 6184   5.608   2.841   3.708 -0.4776 -0.5039 -0.1253
  696poe     o2 6185   5.636   2.967   3.653 -0.3571 -0.4650  0.0233
  696poe    c23 6186   5.770   2.998   3.620 -0.3526 -0.3811  0.1206
  696poe    c23 6187   5.761   3.124   3.531 -0.1716 -0.7273 -0.3949
  696poe     o2 6188   5.656   3.193   3.597 -0.2399 -0.6390 -0.5949
  696poe    c23 6189   5.598   3.301   3.528  0.0441  0.0232  0.1900
  696poe    c23 6190   5.477   3.343   3.614 -0.1028 -0.3097  0.1498
  696poe     o2 6191   5.399   3.237   3.663 -0.1877 -0.2531  0.1368
  696poe    c31 6192   5.261   3.265   3.670 -0.0306  0.5083  0.2187
  697poe    c31 6193   4.055   0.508   5.484  0.3576  0.1097 -0.7296
  697poe     o2 6194   4.180   0.564   5.518  0.2081  0.0687 -0.1039
  697poe    c23 6195   4.195   0.559   5.658 -0.1642 -0.1764 -0.0716
  697poe    c23 6196   4.342   0.587   5.694 -0.2757  0.1362  0.1481
  697poe     o2 6197   4.373   0.711   5.635 -0.1168 -0.2113 -0.4990
  697poe    c23 6198   4.513   0.726   5.635 -0.1767  0.3697  0.5266
  697poe    c23 6199   4.563   0.773   5.497 -0.3289 -0.4013  0.2048
  697poe     o2 6200   4.486   0.698   5.406  0.1815 -0.3918 -0.2385
  697poe    c23 6201   4.504   0.753   5.277  0.1076  0.3507  0.0629
  697poe    c23 6202   4.412   0.665   5.191  0.1232 -0.3443  0.7474
  697poe     o2 6203   4.292   0.649   5.264 -0.0871 -0.2461  0.4290
  697poe    c31 6204   4.200   0.585   5.179 -0.0643 -0.1673  0.3457
  698poe    c31 6205   4.245   1.382   1.368  0.4483  0.4443 -0.2077
  698poe     o2 6206   4.147   1.440   1.285  0.0528  0.5581  0.3273
  698poe    c23 6207   4.184   1.575   1.263 -0.0751  0.4845 -0.3734
  698poe    c23 6208   4.093   1.621   1.148  0.0392  0.7368 -0.3619
  698poe     o2 6209   3.972   1.549   1.157  0.3390  0.2248 -0.4258
  698poe    c23 6210   3.873   1.598   1.069 -0.0601 -0.1270 -0.1767
  698poe    c23 6211   3.738   1.535   1.105 -0.2674  0.4229  0.0169
  698poe     o2 6212   3.754   1.396   1.118 -0.0284  0.4058 -0.4199
  698poe    c23 6213   3.628   1.337   1.145  0.1366  0.0116 -0.4969
  698poe    c23 6214   3.622   1.184   1.155 -0.6678  0.0319 -0.6132
  698poe     o2 6215   3.686   1.125   1.044 -0.0290 -0.0758 -0.1902
  698poe    c31 6216   3.670   0.987   1.025  0.9438 -0.2244 -0.0030
  699poe    c31 6217   3.970   2.169   6.513 -0.0875  0.3219  0.2867
  699poe     o2 6218   3.987   2.138   6.650  0.2688  0.3682  0.2540
  699poe    c23 6219   4.082   2.034   6.655  0.0687  0.1833  0.2329
  699poe    c23 6220   4.078   1.963   6.791 -0.4070 -0.4563 -0.1064
  699poe     o2 6221   4.107   2.051   6.898 -0.1071 -0.2435 -0.3608
  699poe    c23 6222   4.107   2.002   7.030 -0.1460 -0.2718 -0.3712
  699poe    c23 6223   4.120   2.108   7.141 -0.1796  0.1407 -0.7577
  699poe     o2 6224   4.033   2.214   7.106  0.2850  0.6025 -0.5254
  699poe    c23 6225   4.025   2.300   7.218  0.7781  0.0551 -0.0633
  699poe    c23 6226   3.943   2.424   7.180  0.2913 -0.2905 -0.1517
  699poe     o2 6227   3.828   2.384   7.109  0.0564  0.1471 -0.0257
  699poe    c31 6228   3.721   2.475   7.102 -0.2121 -0.0761  0.9985
  700poe    c31 6229   6.225   5.049   2.732 -0.5211 -0.0057  0.5058
  700poe     o2 6230   6.275   5.178   2.759  0.4750 -0.2158 -0.2346
  700poe    c23 6231   6.176   5.251   2.829  0.3627 -0.4826 -0.1131
  700poe    c23 6232   6.207   5.401   2.807  0.0509 -0.3442  0.3907
  700poe     o2 6233   6.220   5.439   2.672 -0.0903  0.5415  0.6258
  700poe    c23 6234   6.104   5.455   2.593  0.1266  0.1579  0.2267
  700poe    c23 6235   6.137   5.560   2.485 -0.0721 -0.1396 -0.1225
  700poe     o2 6236   6.260   5.527   2.424  0.0875  0.2336 -0.0022
  700poe    c23 6237   6.305   5.639   2.351 -0.0690  0.3586  0.0920
  700poe    c23 6238   6.421   5.584   2.266 -0.0510 -0.1526  0.4395
  700poe     o2 6239   6.494   5.497   2.349  0.3736 -0.0779  0.1457
  700poe    c31 6240   6.589   5.418   2.280  0.0781  0.0145 -0.3761
  701poe    c31 6241   5.131   4.670   4.562 -0.4325  0.0954 -0.1479
  701poe     o2 6242   5.074   4.654   4.689  0.3675 -0.4116  0.1567
  701poe    c23 6243   5.160   4.586   4.777  0.4778  0.1394  0.4827
  701poe    c23 6244   5.067   4.560   4.897  0.0203 -0.4512  0.0102
  701poe     o2 6245   5.009   4.686   4.925 -0.5679 -0.7383  0.0940
  701poe    c23 6246   4.881   4.671   4.983 -0.5207 -0.0663  0.3728
  701poe    c23 6247   4.831   4.815   5.009 -0.5814  0.0567 -0.4075
  701poe     o2 6248   4.855   4.890   4.892  0.5174  0.2568 -0.0624
  701poe    c23 6249   4.789   5.014   4.908 -0.0108 -0.1237  0.8036
  701poe    c23 6250   4.808   5.110   4.789  0.0374 -0.2342  0.7227
  701poe     o2 6251   4.743   5.059   4.675  0.5512  0.5323  0.0753
  701poe    c31 6252   4.719   5.162   4.582  0.5138  0.1584 -0.3307
  702poe    c31 6253   4.757   6.237   4.389 -0.0025  0.5926  0.2919
  702poe     o2 6254   4.765   6.319   4.275 -0.0087  0.5218  0.2404
  702poe    c23 6255   4.734   6.243   4.161  0.2522  0.2137  0.3722
  702poe    c23 6256   4.663   6.334   4.058  0.3898 -0.1343 -0.0296
  702poe     o2 6257   4.711   6.466   4.053 -0.0847  0.0754  0.7934
  702poe    c23 6258   4.611   6.547   3.996 -0.1918 -0.1262  0.6949
  702poe    c23 6259   4.635   6.684   4.062  0.5065  0.0726  0.0448
  702poe     o2 6260   4.660   6.646   4.195 -0.1163 -0.2408  0.0756
  702poe    c23 6261   4.683   6.754   4.282  0.4160 -0.1285 -0.1987
  702poe    c23 6262   4.709   6.693   4.420 -0.0462  0.1401  0.0100
  702poe     o2 6263   4.791   6.581   4.397 -0.4484 -0.2182  0.2922
  702poe    c31 6264   4.825   6.525   4.523  0.0487  0.0535  0.2815
  703poe    c31 6265   6.188   4.174   4.092  0.1696 -0.5625  0.2129
  703poe     o2 6266   6.183   4.227   4.223 -0.5608 -0.4875  0.1565
  703poe    c23 6267   6.231   4.135   4.318  0.5400 -0.2621 -0.1774
  703poe    c23 6268   6.240   4.203   4.456 -0.3945  0.1285 -0.3030
  703poe     o2 6269   6.139   4.172   4.549  0.0340 -0.1906  0.0612
  703poe    c23 6270   6.116   4.277   4.641  0.3826 -0.4981  0.5032
  703poe    c23 6271   5.974   4.268   4.700  0.1579  0.1545  0.0750
  703poe     o2 6272   5.956   4.131   4.730  0.6327  0.1225  0.2299
  703poe    c23 6273   5.856   4.110   4.827  0.5230  0.2378  0.1418
  703poe    c23 6274   5.851   3.959   4.856  0.5166  0.1718 -0.1975
  703poe     o2 6275   5.858   3.893   4.732 -0.1122 -0.3138  0.0192
  703poe    c31 6276   5.824   3.757   4.749 -0.6487 -0.2484 -0.5050
  704poe    c31 6277   5.003   2.940   1.292 -0.8241 -0.7006  0.3812
  704poe     o2 6278   5.052   2.965   1.422 -0.3701 -0.0467  0.0886
  704poe    c23 6279   4.966   3.057   1.485 -0.2885  0.0968 -0.0088
  704poe    c23 6280   5.000   3.207   1.477  0.0297  0.0406  0.2461
  704poe     o2 6281   4.956   3.266   1.357  0.4195  0.0729  0.1161
  704poe    c23 6282   4.958   3.407   1.363 -1.0693  0.1391 -0.4053
  704poe    c23 6283   4.905   3.469   1.233 -0.4070  0.8768 -0.3293
  704poe     o2 6284   4.769   3.438   1.210 -0.2716 -0.0160  0.0460
  704poe    c23 6285   4.734   3.499   1.088  0.4660 -0.0039 -0.1689
  704poe    c23 6286   4.622   3.407   1.035  0.0676  0.4075 -0.0506
  704poe     o2 6287   4.528   3.378   1.136  0.6791 -0.8500  0.1780
  704poe    c31 6288   4.423   3.323   1.060  0.1848 -0.0861  0.2930
  705poe    c31 6289   6.496   3.428   0.237  0.1026 -0.5067 -0.0293
  705poe     o2 6290   6.558   3.383   0.118 -0.1163 -0.1181 -0.2957
  705poe    c23 6291   6.686   3.441   0.117 -0.1072 -0.1246  0.2084
  705poe    c23 6292   6.758   3.437  -0.019 -0.4408 -0.5329  0.0415
  705poe     o2 6293   6.696   3.496  -0.131  0.2252  0.2797  0.0913
  705poe    c23 6294   6.790   3.476  -0.234  0.1564 -0.3034  0.1405
  705poe    c23 6295   6.744   3.550  -0.360 -0.2107 -0.4524  0.1861
  705poe     o2 6296   6.603   3.541  -0.357 -0.2106 -0.3477  0.4957
  705poe    c23 6297   6.527   3.620  -0.445  0.0143 -0.3615  0.2862
  705poe    c23 6298   6.381   3.578  -0.417 -0.1451  0.2052  0.3168
  705poe     o2 6299   6.350   3.583  -0.280 -0.0228 -0.0831  0.3540
  705poe    c31 6300   6.223   3.644  -0.271  0.1060  0.1317  0.7400
  706poe    c31 6301   2.340   6.502   5.260  0.0177 -0.4835  0.0825
  706poe     o2 6302   2.400   6.619   5.209 -0.7339 -0.2383 -0.2535
  706poe    c23 6303   2.439   6.699   5.319  0.2771 -0.3583 -0.5201
  706poe    c23 6304   2.550   6.796   5.275  0.0407 -0.1156 -0.5871
  706poe     o2 6305   2.505   6.910   5.207  0.3661  0.3094 -0.0981
  706poe    c23 6306   2.613   6.997   5.176  0.3962  0.4163  0.3072
  706poe    c23 6307   2.554   7.097   5.076  0.7119  0.3159  0.0214
  706poe     o2 6308   2.433   7.144   5.129  0.4286 -0.1778 -0.1809
  706poe    c23 6309   2.389   7.256   5.054 -0.6042 -0.5883 -0.2126
  706poe    c23 6310   2.253   7.305   5.108 -0.4563  0.0657 -0.4239
  706poe     o2 6311   2.169   7.192   5.122 -0.4919  0.1778  0.2803
  706poe    c31 6312   2.045   7.226   5.063 -0.4164  0.4027  0.2469
  707poe    c31 6313   2.533   0.050   2.441 -0.3105  0.2393  0.0797
  707poe     o2 6314   2.493   0.185   2.427 -0.0216  0.2759 -0.4222
  707poe    c23 6315   2.462   0.252   2.547  0.5571  0.2952 -0.2806
  707poe    c23 6316   2.461   0.401   2.507 -0.3209  0.3730 -0.0002
  707poe     o2 6317   2.381   0.414   2.392 -0.4973  0.4896  0.1350
  707poe    c23 6318   2.377   0.539   2.326  0.3613  0.3594 -0.1727
  707poe    c23 6319   2.295   0.513   2.198  0.7152 -0.0264 -0.3258
  707poe     o2 6320   2.322   0.381   2.158 -0.3250 -0.2153 -0.4195
  707poe    c23 6321   2.225   0.316   2.078 -0.3955 -0.5699 -0.0485
  707poe    c23 6322   2.282   0.173   2.075  0.0863 -0.3805  0.0158
  707poe     o2 6323   2.295   0.118   2.204 -0.0362 -0.0698  0.1622
  707poe    c31 6324   2.266  -0.020   2.199 -1.0472  0.1668 -0.8025
  708poe    c31 6325   3.371   5.529   5.042  0.0145  0.5190 -0.6480
  708poe     o2 6326   3.271   5.459   4.972 -0.2624 -0.1715  0.4144
  708poe    c23 6327   3.334   5.354   4.900 -0.3327  0.4162 -0.5221
  708poe    c23 6328   3.226   5.321   4.796 -0.2989  0.1350 -0.4667
  708poe     o2 6329   3.114   5.303   4.880  0.0563 -0.5451 -0.1336
  708poe    c23 6330   2.998   5.262   4.812 -0.2011 -0.2857  0.1487
  708poe    c23 6331   2.885   5.249   4.916 -0.6947 -0.4978 -0.4022
  708poe     o2 6332   2.909   5.362   4.998 -0.0559 -0.7841 -0.1850
  708poe    c23 6333   2.848   5.354   5.125  0.6130 -0.2963  0.1696
  708poe    c23 6334   2.911   5.466   5.211  0.2022 -0.3823  0.5896
  708poe     o2 6335   3.050   5.476   5.187  0.0764 -0.3018 -0.1492
  708poe    c31 6336   3.093   5.576   5.277  0.0730 -0.4755  0.0479
  709poe    c31 6337   3.120   2.062   3.459 -0.3025 -0.3877 -0.2434
  709poe     o2 6338   3.113   2.092   3.321 -0.4351  0.2861 -0.0905
  709poe    c23 6339   3.177   2.213   3.288  0.0437  0.0467 -0.0387
  709poe    c23 6340   3.118   2.280   3.163 -0.0738  0.2838  0.1443
  709poe     o2 6341   3.134   2.208   3.043  0.2985  0.0220  0.3504
  709poe    c23 6342   3.260   2.167   2.995  0.0446 -0.0880 -0.2258
  709poe    c23 6343   3.238   2.016   2.971  0.1153 -0.1279 -0.0412
  709poe     o2 6344   3.243   1.950   3.095 -0.9288 -0.1938 -0.0288
  709poe    c23 6345   3.259   1.812   3.073  0.2256 -0.0630 -0.0820
  709poe    c23 6346   3.228   1.744   3.208  0.3618  0.5447  0.2598
  709poe     o2 6347   3.102   1.794   3.246 -0.3898 -0.5970 -0.6704
  709poe    c31 6348   3.063   1.722   3.361 -0.2300 -0.4883 -0.5489
  710poe    c31 6349   5.216   0.610   2.696 -0.0360  0.5932  0.0161
  710poe     o2 6350   5.352   0.585   2.667 -0.1305  0.5425 -0.3875
  710poe    c23 6351   5.349   0.448   2.634 -0.2725  0.3481  0.4048
  710poe    c23 6352   5.478   0.370   2.666  0.1117  0.7757 -0.0918
  710poe     o2 6353   5.593   0.406   2.592  0.2310  0.4142 -0.0861
  710poe    c23 6354   5.612   0.332   2.474  0.2307  0.6761 -0.2506
  710poe    c23 6355   5.750   0.327   2.407  0.1868  0.1226 -0.3082
  710poe     o2 6356   5.857   0.300   2.495 -0.3851  0.6270  0.5476
  710poe    c23 6357   5.979   0.306   2.426 -0.3812 -0.4582  0.4474
  710poe    c23 6358   6.075   0.289   2.545  0.2704 -0.2186 -0.0360
  710poe     o2 6359   6.028   0.342   2.667  0.0781 -0.0099 -0.1975
  710poe    c31 6360   6.133   0.337   2.762  0.0054  0.5068 -0.0893
  711poe    c31 6361   4.443   1.674   6.290 -0.2100 -0.0227 -0.1593
  711poe     o2 6362   4.391   1.544   6.274  0.0733 -0.1563 -0.0046
  711poe    c23 6363   4.375   1.468   6.392 -0.0354  0.1071  0.1501
  711poe    c23 6364   4.274   1.353   6.375  0.1165 -0.0306  0.1752
  711poe     o2 6365   4.299   1.310   6.243  0.7409  0.0527  0.2616
  711poe    c23 6366   4.251   1.185   6.198  0.2762  0.3998 -0.2099
  711poe    c23 6367   4.299   1.164   6.054 -0.0142 -0.1643 -0.2259
  711poe     o2 6368   4.292   1.286   5.984 -0.1305 -0.0063  0.0630
  711poe    c23 6369   4.358   1.278   5.860  0.5209  0.2153  0.3891
  711poe    c23 6370   4.395   1.422   5.821 -0.3511  0.4044  0.2304
  711poe     o2 6371   4.445   1.491   5.934  0.3508  0.0881  0.1165
  711poe    c31 6372   4.548   1.577   5.891 -0.2100  0.5551 -0.3084
  712poe    c31 6373   6.637   0.769   4.640  0.3188  0.3659 -0.1230
  712poe     o2 6374   6.772   0.747   4.603  0.4836  0.1941  0.5753
  712poe    c23 6375   6.868   0.836   4.653  0.7191  0.1264  0.2457
  712poe    c23 6376   6.953   0.766   4.761 -0.3033 -0.8017  0.4568
  712poe     o2 6377   7.055   0.677   4.720 -0.1133 -0.3214 -0.1223
  712poe    c23 6378   7.124   0.639   4.837  0.4120 -0.2771 -0.4138
  712poe    c23 6379   7.182   0.498   4.815  0.3303 -0.3491 -0.1679
  712poe     o2 6380   7.080   0.400   4.818  0.1268 -0.1333  0.1236
  712poe    c23 6381   7.116   0.269   4.781  0.2340 -0.0855  0.0569
  712poe    c23 6382   6.988   0.185   4.797  0.3103 -0.2808 -0.3439
  712poe     o2 6383   6.872   0.255   4.760  0.2510 -0.2066 -0.0160
  712poe    c31 6384   6.763   0.166   4.760 -0.1734  0.3021 -0.4181
  713poe    c31 6385   6.002   6.333   2.715  0.4103  0.3913 -0.0389
  713poe     o2 6386   6.094   6.375   2.616 -0.1201  0.6632 -0.4214
  713poe    c23 6387   6.162   6.492   2.655  0.4806  0.1925 -0.0189
  713poe    c23 6388   6.195   6.581   2.534  0.2672 -0.2693 -0.4196
  713poe     o2 6389   6.240   6.495   2.431 -0.0165 -0.2156 -0.5878
  713poe    c23 6390   6.274   6.562   2.311  0.6401  0.5093 -0.0105
  713poe    c23 6391   6.315   6.451   2.212 -0.2455 -0.2230  0.4203
  713poe     o2 6392   6.219   6.349   2.227 -0.3486 -0.2513 -0.4071
  713poe    c23 6393   6.291   6.227   2.231  0.0356 -0.0235 -0.3121
  713poe    c23 6394   6.202   6.114   2.286 -0.1400  0.0617 -0.4180
  713poe     o2 6395   6.163   6.154   2.415  0.3342 -0.0663 -0.2292
  713poe    c31 6396   6.095   6.047   2.476  0.3415 -0.0490 -0.1902
  714poe    c31 6397   1.274   3.209   0.401  0.2044 -0.1557 -0.4069
  714poe     o2 6398   1.300   3.308   0.304  0.2677 -0.1045 -0.3386
  714poe    c23 6399   1.262   3.257   0.178 -0.6881 -0.2328 -0.0109
  714poe    c23 6400   1.343   3.324   0.065 -0.2297 -0.4303  0.1977
  714poe     o2 6401   1.377   3.456   0.098 -0.3723 -0.3357 -0.0257
  714poe    c23 6402   1.443   3.516  -0.011 -0.1474  0.1850  0.3912
  714poe    c23 6403   1.455   3.663   0.036 -0.0647  0.1569  0.4581
  714poe     o2 6404   1.499   3.665   0.169 -0.1317  0.1809  0.4802
  714poe    c23 6405   1.433   3.765   0.243  0.2402  0.5812  0.2744
  714poe    c23 6406   1.421   3.703   0.384  0.4492  0.2218  0.1344
  714poe     o2 6407   1.340   3.588   0.375  0.3277  0.2812  0.4572
  714poe    c31 6408   1.265   3.571   0.493 -0.2646 -0.2542  0.0153
  715poe    c31 6409   4.805   1.840   4.314  0.3702  0.4596 -0.2699
  715poe     o2 6410   4.723   1.889   4.417  0.2940 -0.3081  0.0407
  715poe    c23 6411   4.643   1.782   4.462  0.0149  0.1820  0.7248
  715poe    c23 6412   4.508   1.823   4.523 -0.5209  0.3105 -0.5224
  715poe     o2 6413   4.540   1.939   4.596 -0.1374 -0.1042 -0.0167
  715poe    c23 6414   4.420   2.013   4.602 -0.0131  0.1181 -0.2111
  715poe    c23 6415   4.463   2.140   4.678  0.0929  0.1905 -0.3938
  715poe     o2 6416   4.584   2.173   4.613  0.2996 -0.4413 -0.3384
  715poe    c23 6417   4.670   2.258   4.687  0.1499 -0.3649 -0.2512
  715poe    c23 6418   4.773   2.307   4.583  0.1837 -0.1514 -0.1159
  715poe     o2 6419   4.805   2.187   4.518 -0.3478 -0.5122  0.2804
  715poe    c31 6420   4.911   2.186   4.425 -0.2351  0.3327  0.3933
  716poe    c31 6421   2.509   5.632   3.381  0.1842 -0.1198  0.0706
  716poe     o2 6422   2.374   5.599   3.356  0.1153 -0.0103  0.3019
  716poe    c23 6423   2.288   5.706   3.388 -0.0066  0.1214 -0.4492
  716poe    c23 6424   2.175   5.693   3.285  0.1315 -0.3199 -0.5479
  716poe     o2 6425   2.116   5.567   3.306  0.6743 -0.4720  0.0791
  716poe    c23 6426   2.056   5.520   3.188 -0.7930  0.5658  0.3860
  716poe    c23 6427   2.062   5.366   3.195  0.0830  0.5697 -0.1877
  716poe     o2 6428   2.191   5.336   3.244 -0.4221  0.1998  0.9530
  716poe    c23 6429   2.221   5.199   3.242  0.0131  0.2990 -0.1619
  716poe    c23 6430   2.370   5.197   3.284  0.0146 -0.7879 -0.1717
  716poe     o2 6431   2.388   5.293   3.386  0.2656 -0.0407 -0.9112
  716poe    c31 6432   2.522   5.283   3.429 -0.1123 -0.6498  0.1730
  717poe    c31 6433   5.624   6.048   6.605  0.1473  0.4308 -0.1085
  717poe     o2 6434   5.620   5.948   6.704 -0.1997 -0.0323 -0.5879
  717poe    c23 6435   5.502   5.974   6.777  0.3716 -0.0952  0.3684
  717poe    c23 6436   5.463   5.843   6.850 -0.7269  0.3237  0.5524
  717poe     o2 6437   5.584   5.796   6.906 -0.3994  0.0066 -0.3997
  717poe    c23 6438   5.569   5.683   6.989  0.1959 -0.0681 -0.3934
  717poe    c23 6439   5.708   5.649   7.046  0.0838  0.1652  0.0212
  717poe     o2 6440   5.806   5.664   6.946  0.3115 -0.0386  0.2118
  717poe    c23 6441   5.932   5.625   6.994  0.1421 -0.3453  0.4097
  717poe    c23 6442   6.054   5.667   6.910 -0.1745  0.3104  0.2746
  717poe     o2 6443   6.051   5.808   6.908 -0.0798  0.3112  0.1969
  717poe    c31 6444   6.164   5.853   6.837 -0.0547  0.1916  0.1618
  718poe    c31 6445   6.526   3.970   4.215 -0.4227 -0.1555  0.1493
  718poe     o2 6446   6.602   4.005   4.329 -0.2367  0.4748 -0.1615
  718poe    c23 6447   6.544   3.951   4.445  0.1818  0.0146 -0.1640
  718poe    c23 6448   6.613   4.004   4.572 -0.1943  0.2754 -0.0646
  718poe     o2 6449   6.750   3.995   4.537 -0.2163 -0.0023 -0.0764
  718poe    c23 6450   6.823   4.063   4.636 -0.2575 -0.2199  0.1041
  718poe    c23 6451   6.962   4.068   4.570 -0.1046 -0.1551  0.4281
  718poe     o2 6452   6.939   4.104   4.436  0.3604 -0.0558  0.3736
  718poe    c23 6453   7.052   4.098   4.352  0.1502 -0.6008  0.1265
  718poe    c23 6454   7.001   4.098   4.207 -0.5108  0.3680  0.3516
  718poe     o2 6455   6.883   4.024   4.184 -0.5914  0.5408  0.2012
  718poe    c31 6456   6.866   3.982   4.051  0.7739 -0.3533  0.2826
  719poe    c31 6457   3.668   5.707   4.477 -0.3263  0.9000 -0.5728
  719poe     o2 6458   3.805   5.739   4.492 -0.1319 -0.0562 -0.2439
  719poe    c23 6459   3.823   5.878   4.485  0.1738 -0.0341  0.8014
  719poe    c23 6460   3.952   5.930   4.553  0.5109  0.1170  0.0646
  719poe     o2 6461   4.054   5.849   4.500  0.0437 -0.4193 -0.0370
  719poe    c23 6462   4.178   5.892   4.553  0.1651 -0.4288 -0.3081
  719poe    c23 6463   4.293   5.820   4.482  0.9138 -0.0271  0.4793
  719poe     o2 6464   4.249   5.687   4.473  0.5012  0.1221  0.2609
  719poe    c23 6465   4.353   5.608   4.418  0.0807 -0.2565 -0.0030
  719poe    c23 6466   4.372   5.466   4.473  0.0175 -0.1714  0.2430
  719poe     o2 6467   4.272   5.385   4.414  0.1031 -0.0512 -0.0679
  719poe    c31 6468   4.296   5.247   4.426 -0.8752 -0.1651  0.6502
  720poe    c31 6469   6.732   4.235   0.406 -0.0585  0.3393 -0.4790
  720poe     o2 6470   6.635   4.281   0.314 -0.3197  0.3324 -0.2109
  720poe    c23 6471   6.692   4.250   0.188  0.4994  0.1025  0.2053
  720poe    c23 6472   6.627   4.354   0.094  0.2781 -0.3053 -0.0930
  720poe     o2 6473   6.487   4.346   0.109  0.1862  0.2338 -0.6393
  720poe    c23 6474   6.421   4.465   0.070 -0.5073 -0.1738 -0.7122
  720poe    c23 6475   6.298   4.497   0.157 -0.1272 -0.0014 -0.2299
  720poe     o2 6476   6.348   4.450   0.280 -0.0044  0.1010 -0.2419
  720poe    c23 6477   6.267   4.493   0.387 -0.2823 -0.4556 -0.2250
  720poe    c23 6478   6.324   4.437   0.518  0.4160  0.1253 -0.2728
  720poe     o2 6479   6.325   4.298   0.536  0.0307  0.1373 -0.1369
  720poe    c31 6480   6.365   4.268   0.668  0.1887 -0.3800 -0.2967
  721poe    c31 6481   3.027   4.176   5.963  0.0931  0.1294  0.4169
  721poe     o2 6482   3.002   4.087   5.857  0.2219  0.1712  0.3511
  721poe    c23 6483   2.907   3.996   5.909 -0.2595  0.4053 -0.1130
  721poe    c23 6484   2.860   3.909   5.791 -0.6122 -0.0628  0.3683
  721poe     o2 6485   2.964   3.880   5.701 -0.4794  0.0089  0.4984
  721poe    c23 6486   2.907   3.862   5.573 -0.2523  0.0308  0.3917
  721poe    c23 6487   3.034   3.848   5.487 -0.3993  0.7722  0.0507
  721poe     o2 6488   3.134   3.936   5.532 -0.0359  0.0654  0.6427
  721poe    c23 6489   3.254   3.931   5.458 -0.1969  0.4629  0.3519
  721poe    c23 6490   3.341   4.057   5.473 -0.4090  0.6364  0.1394
  721poe     o2 6491   3.389   4.072   5.605 -0.0765  0.4376  0.0417
  721poe    c31 6492   3.491   4.169   5.613 -0.4207  0.8070 -0.0599
  722poe    c31 6493   2.658   5.700   2.789  0.1122 -0.4010  0.0221
  722poe     o2 6494   2.524   5.723   2.751  0.2383  0.5744  0.1261
  722poe    c23 6495   2.447   5.791   2.847 -0.6961  0.1822 -0.3287
  722poe    c23 6496   2.318   5.711   2.871 -0.2665 -0.3851  0.1149
  722poe     o2 6497   2.257   5.694   2.744  0.0338  0.3706 -0.1367
  722poe    c23 6498   2.131   5.631   2.747  0.2317 -0.0190  0.1801
  722poe    c23 6499   2.095   5.582   2.605  0.1840 -0.2205  0.2615
  722poe     o2 6500   2.211   5.587   2.525 -0.0394  0.0785 -0.0451
  722poe    c23 6501   2.203   5.656   2.402 -0.2743 -0.5173 -0.3715
  722poe    c23 6502   2.348   5.651   2.349 -0.0942 -0.2875  0.0940
  722poe     o2 6503   2.427   5.690   2.459 -0.0790 -0.0083 -0.0140
  722poe    c31 6504   2.560   5.722   2.427 -0.2139 -0.0573 -0.6238
  723poe    c31 6505   0.927   5.502   3.949  0.0136  0.1928 -0.3724
  723poe     o2 6506   0.982   5.631   3.938 -0.4688  0.4075 -0.2993
  723poe    c23 6507   1.022   5.674   4.066 -0.3970 -0.3812 -0.0549
  723poe    c23 6508   1.114   5.796   4.051 -0.8484  0.0321  0.4981
  723poe     o2 6509   1.053   5.883   3.958  0.0914 -0.0969 -0.2532
  723poe    c23 6510   1.116   6.009   3.949 -0.2896  0.1859  0.8836
  723poe    c23 6511   1.030   6.091   3.852  0.4766 -0.0577 -0.0115
  723poe     o2 6512   1.015   6.000   3.745 -0.9163 -0.5034  0.5410
  723poe    c23 6513   0.887   6.017   3.688 -0.4483 -0.2131 -0.4423
  723poe    c23 6514   0.846   5.885   3.620 -0.3129 -0.3090 -0.3382
  723poe     o2 6515   0.876   5.775   3.704 -0.4910 -0.3245 -0.2956
  723poe    c31 6516   0.761   5.698   3.730 -0.0334 -0.7833  0.3966
  724poe    c31 6517   3.828   2.616   5.825  0.4497 -0.9637  0.0453
  724poe     o2 6518   3.825   2.609   5.966  0.3186 -0.3663  0.0749
  724poe    c23 6519   3.946   2.560   6.019  0.0726 -0.5288  0.4880
  724poe    c23 6520   3.958   2.601   6.167  0.1384 -0.2680  0.4099
  724poe     o2 6521   3.825   2.602   6.215 -0.0463 -0.4461 -0.0941
  724poe    c23 6522   3.813   2.646   6.348 -0.0961 -0.3633 -0.1263
  724poe    c23 6523   3.663   2.674   6.367 -0.1207 -0.3386 -0.3622
  724poe     o2 6524   3.624   2.734   6.245  0.2581 -0.1034 -0.3680
  724poe    c23 6525   3.486   2.745   6.218  0.1613 -0.1485  0.0929
  724poe    c23 6526   3.443   2.617   6.144 -0.5599  0.0535  0.1566
  724poe     o2 6527   3.543   2.594   6.046 -0.5366 -0.2294  0.2475
  724poe    c31 6528   3.490   2.501   5.954 -0.7670  0.7412 -0.6151
  725poe    c31 6529   2.936   2.538   5.277  0.4199 -0.4566  0.2308
  725poe     o2 6530   2.988   2.411   5.311 -0.3034 -0.7324  0.3135
  725poe    c23 6531   3.098   2.420   5.398 -0.2383 -0.2323  0.1855
  725poe    c23 6532   3.194   2.305   5.361 -0.4180 -0.0978 -0.7350
  725poe     o2 6533   3.105   2.196   5.371 -0.2585 -0.2114 -0.5419
  725poe    c23 6534   3.166   2.073   5.336  0.2778 -0.0871 -0.0601
  725poe    c23 6535   3.062   1.963   5.366 -0.1630  0.3444  0.0122
  725poe     o2 6536   2.960   2.020   5.287  0.0208  0.2371 -0.3030
  725poe    c23 6537   2.830   1.978   5.319  0.0254  0.2114 -0.3170
  725poe    c23 6538   2.738   2.084   5.257  0.3103  0.1670 -0.8198
  725poe     o2 6539   2.782   2.207   5.311 -0.1038 -0.0886  0.1181
  725poe    c31 6540   2.673   2.297   5.309 -0.0603 -0.0384  0.0413
  726poe    c31 6541   0.834   6.162   6.481  0.1143  0.4359 -0.1418
  726poe     o2 6542   0.696   6.176   6.456  0.0368 -0.3086 -0.1582
  726poe    c23 6543   0.630   6.055   6.485 -0.4278  0.1011  0.5266
  726poe    c23 6544   0.505   6.045   6.395 -0.2643  0.3037  0.2776
  726poe     o2 6545   0.454   6.172   6.428  0.0514  0.5482 -0.1656
  726poe    c23 6546   0.344   6.192   6.342 -0.4088 -0.0139  0.2851
  726poe    c23 6547   0.322   6.344   6.340 -0.2016  0.0117 -0.1416
  726poe     o2 6548   0.452   6.399   6.330 -0.0826 -0.2860 -0.2382
  726poe    c23 6549   0.438   6.536   6.361 -0.3073 -0.4786  0.5570
  726poe    c23 6550   0.577   6.598   6.380 -0.5480  0.1352  0.3415
  726poe     o2 6551   0.632   6.501   6.466 -0.1589  0.0183 -0.0360
  726poe    c31 6552   0.735   6.562   6.541  0.2318 -0.8128  0.1119
  727poe    c31 6553   6.191   2.780   2.997  0.6732 -0.2220 -0.1179
  727poe     o2 6554   6.147   2.724   3.119  0.1292 -0.5063 -0.4429
  727poe    c23 6555   6.006   2.714   3.120  0.1365 -0.6014 -0.3698
  727poe    c23 6556   5.954   2.648   3.249  0.0133  0.3562  0.0817
  727poe     o2 6557   6.017   2.719   3.354  0.1546  0.0922  0.1750
  727poe    c23 6558   6.059   2.636   3.460 -0.2290 -0.5458 -0.1606
  727poe    c23 6559   6.185   2.693   3.528 -0.6703  0.2455  0.0043
  727poe     o2 6560   6.290   2.721   3.438 -0.0040 -0.0172  0.6850
  727poe    c23 6561   6.409   2.775   3.489 -0.0790 -0.0241  0.8659
  727poe    c23 6562   6.516   2.752   3.381 -0.4407  0.0685  0.4884
  727poe     o2 6563   6.452   2.781   3.259  0.0216  0.2577  0.2882
  727poe    c31 6564   6.546   2.788   3.154 -0.1553 -0.1586  0.0973
  728poe    c31 6565   2.710   4.524   4.423 -0.0305 -0.3744  0.1245
  728poe     o2 6566   2.835   4.515   4.359 -0.0746 -0.7808  0.0907
  728poe    c23 6567   2.945   4.483   4.441 -0.1412 -0.0813  0.4640
  728poe    c23 6568   3.074   4.438   4.369  0.0071  0.2053  0.5493
  728poe     o2 6569   3.060   4.317   4.298  0.0541  0.4896  0.0508
  728poe    c23 6570   3.191   4.272   4.273 -0.2287 -0.3989  0.1399
  728poe    c23 6571   3.175   4.132   4.211 -0.1523 -0.2337 -0.2542
  728poe     o2 6572   3.072   4.147   4.116 -0.2147 -0.2251 -0.1854
  728poe    c23 6573   3.064   4.033   4.035 -0.4084 -0.1277 -0.3057
  728poe    c23 6574   2.958   4.058   3.927 -0.4745  0.1964 -0.1649
  728poe     o2 6575   2.841   4.106   3.989 -0.5914 -0.4473  0.1166
  728poe    c31 6576   2.746   4.149   3.894  0.3048  0.1258 -0.5326
  729poe    c31 6577   3.954   5.335   5.111  0.2980  0.3825 -0.0814
  729poe     o2 6578   3.901   5.210   5.148 -0.1359  0.5425 -0.1615
  729poe    c23 6579   3.883   5.132   5.031 -0.1081  0.2516  0.0263
  729poe    c23 6580   3.884   4.981   5.061  0.5350  0.2943  0.2524
  729poe     o2 6581   3.816   4.980   5.184  0.2378  0.1770  0.0896
  729poe    c23 6582   3.817   4.854   5.247  0.1875  0.3102  0.3589
  729poe    c23 6583   3.797   4.880   5.398 -0.4023  1.0156  0.1635
  729poe     o2 6584   3.873   4.997   5.414  0.0906  0.7091  0.1068
  729poe    c23 6585   3.910   5.029   5.547  0.1624  0.0177  0.2561
  729poe    c23 6586   3.944   5.179   5.556 -0.1032  0.1110 -0.2240
  729poe     o2 6587   3.845   5.263   5.502 -0.2832  0.2435  0.3104
  729poe    c31 6588   3.869   5.399   5.533 -0.5489  0.2623  0.4469
  730poe    c31 6589   0.648   3.031   4.514 -0.3368  0.3458 -0.3410
  730poe     o2 6590   0.725   3.133   4.454 -0.1498  0.2440 -0.2770
  730poe    c23 6591   0.638   3.216   4.379 -0.1326  0.3347 -0.1965
  730poe    c23 6592   0.713   3.344   4.338  0.1001  0.3985  0.4225
  730poe     o2 6593   0.840   3.304   4.292 -0.2249  0.3757 -0.4542
  730poe    c23 6594   0.918   3.408   4.236  0.5009 -0.0017 -0.1551
  730poe    c23 6595   1.042   3.335   4.182  0.3940  0.3600 -0.8912
  730poe     o2 6596   1.069   3.240   4.283 -0.1891  0.3189 -0.7722
  730poe    c23 6597   1.177   3.152   4.260  0.0178  0.2938  0.2559
  730poe    c23 6598   1.166   3.066   4.387 -0.2492  0.4215  0.3218
  730poe     o2 6599   1.035   3.027   4.422 -0.2624 -0.0552 -0.2631
  730poe    c31 6600   1.037   2.908   4.497  0.3377  0.2574  0.2266
  731poe    c31 6601   6.281   6.369   0.743  0.6676 -0.4120  0.3802
  731poe     o2 6602   6.288   6.279   0.635 -0.1998 -0.3488  0.2649
  731poe    c23 6603   6.244   6.333   0.513 -0.1722 -0.0242  0.3982
  731poe    c23 6604   6.262   6.226   0.403  0.0818  0.4509 -0.0279
  731poe     o2 6605   6.346   6.126   0.455 -0.4712  0.0739  0.1553
  731poe    c23 6606   6.388   6.024   0.368  0.1046  0.2795  0.1871
  731poe    c23 6607   6.483   5.936   0.451 -0.1872 -0.4946 -0.2871
  731poe     o2 6608   6.425   5.934   0.579 -0.3523 -0.3785 -0.3590
  731poe    c23 6609   6.525   5.883   0.665 -0.1298  0.3471 -0.1808
  731poe    c23 6610   6.496   5.918   0.813 -0.3553 -0.3812 -0.0485
  731poe     o2 6611   6.450   6.051   0.819  0.4194 -0.1052 -0.1936
  731poe    c31 6612   6.437   6.095   0.952 -0.6275 -0.5342 -0.1437
  732poe    c31 6613   6.392   2.447   5.695  0.4063 -0.5942 -0.2675
  732poe     o2 6614   6.429   2.315   5.724  0.3090 -0.4828  0.3810
  732poe    c23 6615   6.550   2.283   5.659  0.0401  0.6999 -0.7303
  732poe    c23 6616   6.633   2.172   5.727 -1.0820  0.2739 -0.0329
  732poe     o2 6617   6.553   2.070   5.783 -0.1364 -0.6249 -0.2976
  732poe    c23 6618   6.625   1.984   5.868  0.1546 -0.2710 -0.1795
  732poe    c23 6619   6.538   1.938   5.987  0.3903  0.6929  0.3751
  732poe     o2 6620   6.460   2.055   6.004 -0.8912  0.0544 -0.8858
  732poe    c23 6621   6.355   2.029   6.095 -0.1624 -0.0883 -0.0733
  732poe    c23 6622   6.275   2.161   6.091  0.2959  0.2014  0.1815
  732poe     o2 6623   6.239   2.190   5.958 -0.5216  0.3558  0.4336
  732poe    c31 6624   6.193   2.324   5.953  0.2871  0.6253  0.0206
  733poe    c31 6625   3.694   6.737   6.673  0.8142  0.5228  0.2782
  733poe     o2 6626   3.674   6.836   6.575 -0.6841 -0.2992 -0.2860
  733poe    c23 6627   3.745   6.807   6.457  0.2433  0.0557  0.1749
  733poe    c23 6628   3.685   6.886   6.339  0.1617  0.4698  0.4921
  733poe     o2 6629   3.674   7.015   6.395 -0.1881  0.2768  0.8695
  733poe    c23 6630   3.591   7.097   6.316  0.7841  0.4501  0.0172
  733poe    c23 6631   3.593   7.229   6.395  0.3245  0.3398  0.2157
  733poe     o2 6632   3.582   7.207   6.534  0.5578 -0.3516  0.1300
  733poe    c23 6633   3.634   7.310   6.616  0.5120 -0.2474  0.0287
  733poe    c23 6634   3.665   7.237   6.748  0.5366  0.1131  0.2223
  733poe     o2 6635   3.720   7.109   6.723  0.4200  0.1822 -0.4175
  733poe    c31 6636   3.826   7.087   6.813  0.1635 -0.3862 -0.2535
  734poe    c31 6637   5.482   2.261   2.453  0.2350  0.4588 -0.0607
  734poe     o2 6638   5.536   2.208   2.572 -0.2267 -0.2380 -0.1560
  734poe    c23 6639   5.650   2.284   2.607 -0.3985 -0.0308 -0.0407
  734poe    c23 6640   5.738   2.229   2.720  0.1853  0.3899 -0.2850
  734poe     o2 6641   5.754   2.092   2.689  0.1996  0.3039  0.0915
  734poe    c23 6642   5.816   2.024   2.796  0.1920  0.0714 -0.0513
  734poe    c23 6643   5.707   1.956   2.880 -0.1785  0.4545 -0.2180
  734poe     o2 6644   5.607   1.912   2.790 -0.1542  0.2932 -0.1653
  734poe    c23 6645   5.500   1.852   2.861 -0.4088  0.4647 -0.4052
  734poe    c23 6646   5.388   1.958   2.853 -0.0030  0.9143 -0.2158
  734poe     o2 6647   5.396   2.029   2.731 -0.1113 -0.0284 -0.7820
  734poe    c31 6648   5.297   2.129   2.738  0.5570  0.5921 -0.0670
  735poe    c31 6649   2.177   1.669   2.714  0.5220 -0.3856  0.0855
  735poe     o2 6650   2.056   1.613   2.758  0.2990  0.0537  0.0314
  735poe    c23 6651   2.071   1.483   2.810 -0.5593  0.0872  0.3908
  735poe    c23 6652   1.947   1.451   2.894 -0.3866  0.0321  0.6249
  735poe     o2 6653   1.839   1.489   2.812 -0.0634 -0.1786  0.0952
  735poe    c23 6654   1.712   1.468   2.870 -0.1370 -0.2793 -0.1031
  735poe    c23 6655   1.615   1.538   2.773  0.2397  0.0668 -0.2323
  735poe     o2 6656   1.654   1.671   2.749 -0.2111  0.2354 -0.0461
  735poe    c23 6657   1.611   1.711   2.621 -0.0233  0.2532 -0.1041
  735poe    c23 6658   1.712   1.797   2.543  0.5194 -0.4479 -0.1896
  735poe     o2 6659   1.846   1.762   2.569  0.6359 -0.2449 -0.5065
  735poe    c31 6660   1.932   1.812   2.469 -0.5116  0.0413 -1.3742
  736poe    c31 6661   0.650   1.574   5.785  0.2106  0.0039  0.1257
  736poe     o2 6662   0.766   1.625   5.723  0.3680 -0.1067  0.3262
  736poe    c23 6663   0.722   1.699   5.611  0.3088 -0.1906  0.2939
  736poe    c23 6664   0.856   1.739   5.547  0.2234 -0.5580 -0.1154
  736poe     o2 6665   0.935   1.805   5.643 -0.2301  0.2774 -0.3163
  736poe    c23 6666   1.070   1.837   5.620 -0.1157  0.2099  0.2658
  736poe    c23 6667   1.135   1.839   5.760  0.3124 -0.2987  0.0760
  736poe     o2 6668   1.091   1.724   5.828  0.2898 -0.5733 -0.4026
  736poe    c23 6669   1.152   1.710   5.955  0.3008 -0.4836 -0.3980
  736poe    c23 6670   1.090   1.579   6.007  0.0236  0.0155  0.5547
  736poe     o2 6671   0.951   1.592   5.991  0.0544 -0.0695  0.2079
  736poe    c31 6672   0.895   1.519   6.098 -0.3195  0.2627  0.2420
  737poe    c31 6673   1.572   5.100   2.563 -0.2568  0.4074 -0.7098
  737poe     o2 6674   1.460   5.129   2.644  0.2694  0.2591  0.0850
  737poe    c23 6675   1.446   5.268   2.667  0.0331  0.3104 -0.3535
  737poe    c23 6676   1.328   5.284   2.765 -0.1203 -0.2191 -0.4464
  737poe     o2 6677   1.223   5.204   2.716 -0.2901 -0.3828  0.1856
  737poe    c23 6678   1.098   5.229   2.777 -0.0979  0.5162  0.2275
  737poe    c23 6679   0.995   5.209   2.665 -0.0509  0.1414  0.2481
  737poe     o2 6680   1.017   5.086   2.600 -0.2428  0.2042  0.0613
  737poe    c23 6681   0.920   5.054   2.503  0.5145  0.0069 -0.6427
  737poe    c23 6682   0.911   4.900   2.500  0.2360 -0.0112  0.5321
  737poe     o2 6683   1.019   4.834   2.438 -0.0761 -0.0410  0.0099
  737poe    c31 6684   1.024   4.705   2.494  0.5336 -0.1773 -0.3442
  738poe    c31 6685   1.484   4.653   5.920 -0.2532  0.4542 -0.4217
  738poe     o2 6686   1.611   4.645   5.860 -0.1494 -0.0582 -0.1307
  738poe    c23 6687   1.700   4.554   5.921 -0.0209  0.3379  0.2753
  738poe    c23 6688   1.842   4.543   5.862 -0.2494 -0.6726 -0.0998
  738poe     o2 6689   1.814   4.540   5.724 -0.5044 -0.4009 -0.0540
  738poe    c23 6690   1.919   4.526   5.631  0.0288  0.2591  0.4451
  738poe    c23 6691   1.851   4.517   5.493  0.3383  0.4860  0.2740
  738poe     o2 6692   1.773   4.635   5.495  0.2671  0.4506 -0.3373
  738poe    c23 6693   1.687   4.647   5.384  0.1195 -0.1774 -0.2986
  738poe    c23 6694   1.586   4.756   5.427  0.2193 -0.2219  0.0540
  738poe     o2 6695   1.530   4.732   5.554 -0.3160  0.0662 -0.1258
  738poe    c31 6696   1.431   4.824   5.595  0.0457  0.2354  0.3721
  739poe    c31 6697   5.316   0.292   5.231  0.2284  0.2708 -0.1591
  739poe     o2 6698   5.213   0.386   5.247  0.0011 -0.0638  0.3847
  739poe    c23 6699   5.167   0.406   5.379  0.6680 -0.0295  0.6156
  739poe    c23 6700   5.024   0.461   5.395  0.6644  0.1459  0.0080
  739poe     o2 6701   5.003   0.571   5.309 -0.0591  0.6746  0.8372
  739poe    c23 6702   4.865   0.577   5.279  0.1672 -0.1303 -0.4692
  739poe    c23 6703   4.855   0.638   5.138 -0.1673 -0.2817 -0.5109
  739poe     o2 6704   4.924   0.761   5.141 -0.8714  0.1146 -0.1341
  739poe    c23 6705   4.926   0.802   5.006 -0.1506  0.1310 -0.1255
  739poe    c23 6706   5.037   0.908   4.997 -0.4620  0.4466 -0.3001
  739poe     o2 6707   5.163   0.867   5.046 -0.2337  0.1398 -1.1265
  739poe    c31 6708   5.263   0.958   5.006 -0.1858  0.6342  0.0425
  740poe    c31 6709   2.532   2.863   2.582 -0.2393 -0.0880  0.2371
  740poe     o2 6710   2.405   2.814   2.618 -0.0455 -0.0550  0.9674
  740poe    c23 6711   2.360   2.739   2.508  0.5636  0.0479  0.6470
  740poe    c23 6712   2.239   2.655   2.552 -0.3716  0.8542 -0.3324
  740poe     o2 6713   2.155   2.734   2.634  0.1031  0.5614  0.4438
  740poe    c23 6714   2.033   2.668   2.657 -0.1404  0.5027 -0.8819
  740poe    c23 6715   1.940   2.774   2.719  0.3566  0.4124  0.0438
  740poe     o2 6716   2.003   2.829   2.833 -0.5320  0.3707  0.5636
  740poe    c23 6717   1.941   2.937   2.898 -0.1977  0.5343  0.6102
  740poe    c23 6718   2.000   2.983   3.033  0.1225 -0.3647  0.7801
  740poe     o2 6719   2.136   3.018   3.016 -0.2052  0.6649  0.1890
  740poe    c31 6720   2.195   3.051   3.140 -0.2544  0.3020  0.3093
  741poe    c31 6721   4.286   3.505   4.968  0.2546 -0.0134  0.3583
  741poe     o2 6722   4.186   3.414   5.006  0.2358 -0.2768 -0.3185
  741poe    c23 6723   4.181   3.300   4.923 -0.5274 -0.0306 -0.6171
  741poe    c23 6724   4.278   3.184   4.954 -0.7839 -0.1358 -0.2141
  741poe     o2 6725   4.258   3.113   5.075  0.3708  0.2749  0.2288
  741poe    c23 6726   4.364   3.024   5.100  0.6070  0.4105 -0.2697
  741poe    c23 6727   4.319   2.907   5.190  0.1483  0.4083 -0.4974
  741poe     o2 6728   4.247   2.975   5.291 -0.2422 -0.0540 -0.4608
  741poe    c23 6729   4.175   2.881   5.367 -0.0159 -0.1215 -0.3280
  741poe    c23 6730   4.066   2.956   5.446  0.2521 -0.2318  0.1478
  741poe     o2 6731   4.009   3.049   5.357 -0.0356 -0.5544 -0.0048
  741poe    c31 6732   3.907   3.128   5.415  0.3758 -0.4737  0.6141
  742poe    c31 6733   0.346   4.253   5.990  0.7121  0.0561  0.2169
  742poe     o2 6734   0.277   4.363   6.044 -0.1475 -0.3241 -0.0992
  742poe    c23 6735   0.374   4.458   6.082 -0.3190 -0.2474  0.1509
  742poe    c23 6736   0.308   4.582   6.143  0.2904  0.0858  0.1370
  742poe     o2 6737   0.247   4.670   6.051  0.8323 -0.1280 -0.4309
  742poe    c23 6738   0.132   4.611   5.995  0.5148 -0.3747  0.4663
  742poe    c23 6739   0.093   4.696   5.872 -0.3506 -0.3917  0.7267
  742poe     o2 6740   0.203   4.765   5.819 -0.9105 -0.0029  0.0514
  742poe    c23 6741   0.190   4.867   5.723  0.2541  0.0153 -0.1019
  742poe    c23 6742   0.327   4.919   5.674  0.2679 -0.2959 -0.3921
  742poe     o2 6743   0.407   4.944   5.787 -0.3330 -0.9639  0.1970
  742poe    c31 6744   0.518   5.012   5.733 -0.9129 -0.1875 -0.0468
  743poe    c31 6745   2.294   2.691   1.210  0.3710 -0.3251 -0.1883
  743poe     o2 6746   2.276   2.555   1.181  0.2263 -0.2821 -0.3023
  743poe    c23 6747   2.138   2.538   1.158  0.2879  0.0864 -0.9733
  743poe    c23 6748   2.090   2.392   1.165  0.8591 -0.0708 -0.0659
  743poe     o2 6749   2.082   2.350   1.299 -0.0039  0.1997 -0.0243
  743poe    c23 6750   2.047   2.214   1.306  0.0432  0.1896  0.0124
  743poe    c23 6751   2.007   2.183   1.451 -0.4794 -0.1259 -0.1970
  743poe     o2 6752   2.101   2.232   1.543 -0.2298 -0.2441 -0.3893
  743poe    c23 6753   2.101   2.179   1.674 -0.5937 -0.4581 -0.4755
  743poe    c23 6754   2.214   2.249   1.752 -0.8856  0.0645 -0.5194
  743poe     o2 6755   2.207   2.384   1.711 -0.0330  0.0771 -0.6273
  743poe    c31 6756   2.313   2.451   1.777  0.2735 -0.3704 -0.6626
  744poe    c31 6757   5.248   2.048   3.551  0.3191 -1.1148  0.3532
  744poe     o2 6758   5.176   2.063   3.431  0.7214  0.0089  0.2388
  744poe    c23 6759   5.130   1.938   3.384  0.4225  0.1660  0.1087
  744poe    c23 6760   5.012   1.976   3.292  0.3965 -0.4201 -0.1060
  744poe     o2 6761   5.064   2.088   3.223  0.2677  0.1484  0.6984
  744poe    c23 6762   4.970   2.135   3.130  0.6221  0.1964  0.3620
  744poe    c23 6763   5.042   2.256   3.067  0.4713  0.0224 -0.1564
  744poe     o2 6764   5.065   2.347   3.173  0.2415 -0.0647 -0.0315
  744poe    c23 6765   5.053   2.477   3.120  0.0296  0.0215  0.2275
  744poe    c23 6766   5.118   2.583   3.212  0.2831  0.1664 -0.1173
  744poe     o2 6767   5.064   2.607   3.340  0.1908  0.3437 -0.1887
  744poe    c31 6768   5.154   2.679   3.420 -0.4238  0.4324  0.4292
  745poe    c31 6769   5.571   0.485   5.846  0.0517  0.6198 -0.6109
  745poe     o2 6770   5.467   0.576   5.874 -0.0493  0.2876  0.1256
  745poe    c23 6771   5.340   0.515   5.867 -0.1140  0.3688  0.5583
  745poe    c23 6772   5.245   0.611   5.941 -0.2782  0.2766  0.4687
  745poe     o2 6773   5.279   0.745   5.912 -0.4470  0.0649 -0.7483
  745poe    c23 6774   5.192   0.835   5.976 -0.4176 -0.2106 -0.3127
  745poe    c23 6775   5.266   0.964   6.017  0.1137 -0.5668 -0.1370
  745poe     o2 6776   5.396   0.918   6.043  0.3146  0.1084  0.0849
  745poe    c23 6777   5.485   1.025   6.020  0.4760 -0.0444 -0.0008
  745poe    c23 6778   5.623   0.955   6.012  0.4129 -0.1478 -0.2113
  745poe     o2 6779   5.609   0.845   5.925 -0.2658 -0.0330 -0.2522
  745poe    c31 6780   5.733   0.780   5.922 -0.1692  0.1241  0.2132
  746poe    c31 6781   4.890   2.544   4.247 -0.1292  0.2473  0.2550
  746poe     o2 6782   4.750   2.541   4.256 -0.1043 -0.1560  0.5517
  746poe    c23 6783   4.699   2.560   4.386  0.2256  1.2807  0.4924
  746poe    c23 6784   4.545   2.556   4.375  0.2460 -0.0032  0.5234
  746poe     o2 6785   4.503   2.636   4.267 -0.1124  0.5464  1.0679
  746poe    c23 6786   4.371   2.616   4.221  0.1533 -0.0851  0.5698
  746poe    c23 6787   4.365   2.701   4.093 -0.0332 -0.0097  0.6274
  746poe     o2 6788   4.489   2.683   4.027 -0.2861  0.3239  0.0596
  746poe    c23 6789   4.468   2.746   3.902  0.1410  0.2760 -0.0385
  746poe    c23 6790   4.593   2.783   3.821  0.6167  0.0999  0.6028
  746poe     o2 6791   4.658   2.663   3.788  0.0349 -0.0256 -0.1080
  746poe    c31 6792   4.745   2.681   3.678  0.5441  0.2041  0.3324
  747poe    c31 6793   1.693   3.892   5.667 -0.0083 -0.3484  0.0473
  747poe     o2 6794   1.811   3.823   5.633  0.1079  0.0128 -0.2848
  747poe    c23 6795   1.785   3.685   5.626 -0.0635  0.0267  0.0378
  747poe    c23 6796   1.918   3.609   5.610  0.0858  0.2551  0.1956
  747poe     o2 6797   1.993   3.690   5.522  0.6375 -0.1789  0.2601
  747poe    c23 6798   2.127   3.647   5.517  0.4379 -0.7559 -0.1602
  747poe    c23 6799   2.198   3.774   5.468  0.3869 -0.4237  0.6030
  747poe     o2 6800   2.122   3.891   5.486  0.3917 -0.2862 -0.2196
  747poe    c23 6801   2.170   4.002   5.414  0.1274  0.2735  0.4566
  747poe    c23 6802   2.050   4.098   5.430  0.2467  0.4611  0.2267
  747poe     o2 6803   1.931   4.023   5.437  0.3125  0.3322 -0.0486
  747poe    c31 6804   1.833   4.116   5.395 -0.0445  0.0447  0.1461
  748poe    c31 6805   1.761   6.053   3.924 -0.0583 -0.2084  0.0732
  748poe     o2 6806   1.716   5.981   4.036 -0.0164 -0.2619  0.0553
  748poe    c23 6807   1.588   6.029   4.071 -0.0435 -0.1510 -0.1987
  748poe    c23 6808   1.534   5.916   4.160 -0.2347  0.2974  0.2556
  748poe     o2 6809   1.622   5.886   4.267  0.1667 -0.1038 -0.1820
  748poe    c23 6810   1.608   5.763   4.333  0.8130  0.1392  0.4186
  748poe    c23 6811   1.674   5.655   4.245 -0.4154  0.2340 -0.6465
  748poe     o2 6812   1.799   5.702   4.198 -0.1827  0.3806  0.1028
  748poe    c23 6813   1.859   5.592   4.133  0.3084 -0.0500  1.2536
  748poe    c23 6814   1.979   5.649   4.055 -0.4222 -0.5354 -0.2667
  748poe     o2 6815   1.931   5.753   3.972  0.0207  0.7742  1.0807
  748poe    c31 6816   2.037   5.823   3.911 -0.3347 -0.0028 -0.4580
  749poe    c31 6817   6.630   6.181   6.370 -0.0958  0.3461  0.3017
  749poe     o2 6818   6.516   6.258   6.401 -0.5822 -0.1056 -0.3645
  749poe    c23 6819   6.441   6.290   6.286  0.0868  0.5320 -0.6281
  749poe    c23 6820   6.297   6.314   6.336  0.2269  0.1866 -0.0539
  749poe     o2 6821   6.309   6.378   6.461  0.6808  0.1622 -0.0819
  749poe    c23 6822   6.281   6.515   6.447  0.0737  0.0150 -0.3408
  749poe    c23 6823   6.290   6.594   6.579 -0.0640  0.0530 -0.3533
  749poe     o2 6824   6.391   6.550   6.667  0.0136  0.1130 -0.4123
  749poe    c23 6825   6.397   6.652   6.764  0.4422 -0.3696  0.0760
  749poe    c23 6826   6.390   6.593   6.906  0.8064 -0.7025 -0.0409
  749poe     o2 6827   6.261   6.548   6.941  0.7272 -0.2986  0.1977
  749poe    c31 6828   6.149   6.634   6.940  0.6448 -0.4022  0.3887
  750poe    c31 6829   5.180   4.557   6.418 -0.1788  0.0517  0.7643
  750poe     o2 6830   5.081   4.640   6.474 -0.4271 -0.0361  0.4536
  750poe    c23 6831   4.956   4.592   6.430  0.0089 -0.5215 -0.2826
  750poe    c23 6832   4.850   4.675   6.505  0.3136 -0.3912  0.0058
  750poe     o2 6833   4.885   4.685   6.641 -0.4531 -0.0040  0.1806
  750poe    c23 6834   4.787   4.742   6.725 -0.4599 -0.1053  0.2413
  750poe    c23 6835   4.855   4.729   6.863  0.0484 -0.1364 -0.0101
  750poe     o2 6836   4.992   4.756   6.842  0.1371 -0.3051  0.3376
  750poe    c23 6837   5.051   4.778   6.968  0.0296  0.1242  0.3123
  750poe    c23 6838   5.201   4.811   6.971  0.0152  0.1852  0.3587
  750poe     o2 6839   5.271   4.691   6.946 -0.3097  0.0090  0.2907
  750poe    c31 6840   5.407   4.727   6.958 -0.3077  0.1434 -0.1396
  751poe    c31 6841   4.342   6.472   2.299 -0.7919 -0.4295  0.1538
  751poe     o2 6842   4.339   6.596   2.366 -0.0475 -0.4659  0.2596
  751poe    c23 6843   4.471   6.643   2.382 -0.2039  0.1184 -0.1515
  751poe    c23 6844   4.483   6.786   2.437 -0.1947  0.1546 -0.2481
  751poe     o2 6845   4.398   6.778   2.550  0.4043  0.4422  0.2292
  751poe    c23 6846   4.355   6.909   2.576 -0.5421  0.2053 -0.1073
  751poe    c23 6847   4.208   6.921   2.621 -0.1318  0.2010  1.2982
  751poe     o2 6848   4.142   6.827   2.538  0.7712  0.2830  0.4653
  751poe    c23 6849   4.019   6.786   2.594  0.7953 -0.2596  0.1239
  751poe    c23 6850   3.959   6.694   2.486 -0.4645  0.4009  0.2439
  751poe     o2 6851   4.043   6.586   2.454 -0.8030  0.3191 -0.3835
  751poe    c31 6852   3.994   6.499   2.355  0.0139 -0.8223  0.1801
  752poe    c31 6853   1.261   0.301   4.305 -0.0264 -0.5450 -0.0509
  752poe     o2 6854   1.240   0.282   4.443 -0.4287  0.7388  0.0737
  752poe    c23 6855   1.138   0.189   4.472  0.3924 -0.2138 -0.0731
  752poe    c23 6856   1.183   0.102   4.592  0.3360 -0.0292  0.0819
  752poe     o2 6857   1.242   0.202   4.672 -0.1220  0.2212  0.1090
  752poe    c23 6858   1.308   0.153   4.786 -0.3434 -0.2258  0.0479
  752poe    c23 6859   1.356   0.272   4.871  0.3494 -0.4670  0.0050
  752poe     o2 6860   1.405   0.367   4.779 -0.0130 -0.0934  0.1957
  752poe    c23 6861   1.386   0.501   4.819  0.0387  0.0597 -0.2798
  752poe    c23 6862   1.393   0.591   4.695 -0.4912  0.2186 -0.1966
  752poe     o2 6863   1.316   0.525   4.598 -0.3478  0.2576 -0.3388
  752poe    c31 6864   1.195   0.594   4.573 -0.6542 -0.2049 -0.1498
  753poe    c31 6865   4.723   6.721   1.460 -0.4738  0.2624 -0.0375
  753poe     o2 6866   4.655   6.838   1.419 -0.5862 -0.1727 -1.1301
  753poe    c23 6867   4.723   6.876   1.302  0.7153 -0.1867 -0.3959
  753poe    c23 6868   4.676   7.018   1.264  0.0929 -0.4740 -0.7050
  753poe     o2 6869   4.536   7.009   1.280  0.1932 -0.5499  0.1644
  753poe    c23 6870   4.485   7.140   1.269 -0.0188 -0.6019  0.5275
  753poe    c23 6871   4.371   7.141   1.373 -0.2753 -0.3722  0.2439
  753poe     o2 6872   4.419   7.072   1.486 -0.3328  0.9350  1.0906
  753poe    c23 6873   4.310   7.044   1.572 -0.5980 -0.3558  0.3628
  753poe    c23 6874   4.374   6.970   1.691 -0.1645 -0.2954  0.1714
  753poe     o2 6875   4.461   6.872   1.640  0.0850 -0.0997  0.2173
  753poe    c31 6876   4.490   6.787   1.749  0.0557  0.1058  0.3851
  754poe    c31 6877   1.874   3.619   2.192  0.1550 -0.1165 -0.5899
  754poe     o2 6878   1.988   3.537   2.200  0.3384  0.1682 -0.2776
  754poe    c23 6879   2.013   3.460   2.085 -0.0168 -0.0810 -0.1898
  754poe    c23 6880   2.155   3.463   2.024  0.1958  0.2050  0.3112
  754poe     o2 6881   2.238   3.396   2.117  0.4262  0.1142  0.0388
  754poe    c23 6882   2.372   3.415   2.078  0.2947  0.2453 -0.3595
  754poe    c23 6883   2.463   3.315   2.152 -0.0657  0.2035  0.0339
  754poe     o2 6884   2.439   3.331   2.290  0.0265  0.1008  0.0619
  754poe    c23 6885   2.498   3.234   2.373 -0.4809 -0.2164  0.0537
  754poe    c23 6886   2.490   3.269   2.523 -0.1144  0.4631 -0.0842
  754poe     o2 6887   2.356   3.284   2.567 -0.2924 -0.9266 -0.1280
  754poe    c31 6888   2.353   3.328   2.700 -0.2489 -0.4579 -0.2805
  755poe    c31 6889   3.297   5.586   3.309 -0.2297  0.0900 -0.3673
  755poe     o2 6890   3.415   5.608   3.235  0.1655 -0.2317  0.1557
  755poe    c23 6891   3.517   5.511   3.249  0.3428 -0.0026  0.4420
  755poe    c23 6892   3.649   5.566   3.192 -0.1718  0.4606 -0.3206
  755poe     o2 6893   3.730   5.632   3.287 -0.0071  0.0395 -0.1660
  755poe    c23 6894   3.841   5.695   3.228  0.0643 -0.0253 -0.1007
  755poe    c23 6895   3.950   5.760   3.316 -0.3463 -0.6561  0.8903
  755poe     o2 6896   3.924   5.880   3.385 -0.3422  0.0531 -0.2948
  755poe    c23 6897   4.040   5.952   3.421 -0.6411  0.7008 -0.6201
  755poe    c23 6898   3.970   6.078   3.474 -0.1949  0.7224 -0.0709
  755poe     o2 6899   3.862   6.030   3.552 -0.0115 -0.0493 -0.2830
  755poe    c31 6900   3.833   6.132   3.644  0.4284 -0.5769  0.4568
  756poe    c31 6901   6.059   2.125   0.264 -0.3374  0.5850  0.0058
  756poe     o2 6902   6.074   2.110   0.125  0.4686  0.1510  0.1294
  756poe    c23 6903   5.998   1.995   0.096 -0.3148  0.6815  0.0312
  756poe    c23 6904   6.012   1.964  -0.054 -0.1711 -0.5586  0.2864
  756poe     o2 6905   6.151   1.972  -0.075 -0.1248 -0.2689  0.6996
  756poe    c23 6906   6.185   1.962  -0.211 -0.3042  0.4410  0.6022
  756poe    c23 6907   6.325   2.027  -0.213 -0.1180  0.0324  0.2964
  756poe     o2 6908   6.328   2.137  -0.126  0.5334 -0.0512  0.3853
  756poe    c23 6909   6.460   2.183  -0.105  0.3964  0.1676  0.7750
  756poe    c23 6910   6.428   2.292  -0.001 -0.2235  0.2454  0.5101
  756poe     o2 6911   6.307   2.280   0.070 -0.2315 -0.7492  0.3439
  756poe    c31 6912   6.300   2.361   0.185 -0.2138 -0.1463 -0.0719
  757poe    c31 6913   1.712   2.695   0.460 -0.2008  0.3560  0.3129
  757poe     o2 6914   1.577   2.702   0.500 -0.1365  0.2542  0.5474
  757poe    c23 6915   1.490   2.791   0.434  0.0351 -0.0444 -0.0895
  757poe    c23 6916   1.346   2.771   0.486 -0.0060 -0.1332 -0.2357
  757poe     o2 6917   1.366   2.776   0.626 -0.3226 -0.2108 -0.1882
  757poe    c23 6918   1.245   2.751   0.695 -0.0753 -0.4853  0.1495
  757poe    c23 6919   1.293   2.759   0.840  0.0576 -0.0813  0.0820
  757poe     o2 6920   1.413   2.686   0.851  0.1576  0.1334  0.4689
  757poe    c23 6921   1.507   2.732   0.946 -0.0816  0.1125  0.7163
  757poe    c23 6922   1.639   2.658   0.921 -0.2015  0.0974  0.1065
  757poe     o2 6923   1.676   2.671   0.786 -0.3754  0.4221  0.0896
  757poe    c31 6924   1.806   2.620   0.769 -0.6061  0.0357 -0.5668
  758poe    c31 6925   4.701   6.360   6.049  0.0433  0.3657 -0.5079
  758poe     o2 6926   4.661   6.279   5.941 -0.7943 -0.1369  0.1635
  758poe    c23 6927   4.549   6.195   5.958 -0.6488 -0.2549  0.5335
  758poe    c23 6928   4.552   6.087   5.848  0.0278  0.2923  0.0014
  758poe     o2 6929   4.621   6.152   5.744  0.3037 -0.2137 -0.1358
  758poe    c23 6930   4.631   6.067   5.632 -0.0062 -0.2423 -0.1411
  758poe    c23 6931   4.764   6.109   5.568 -0.3929  0.4556 -0.5059
  758poe     o2 6932   4.771   6.248   5.592 -0.1321  0.3706 -0.0730
  758poe    c23 6933   4.899   6.298   5.559  0.1620 -0.1755  0.2289
  758poe    c23 6934   4.929   6.434   5.624 -0.3247  0.2057 -0.3389
  758poe     o2 6935   4.855   6.430   5.744 -0.3540  0.1560 -0.3574
  758poe    c31 6936   4.878   6.555   5.806  0.1490 -0.0640 -0.0942
  759poe    c31 6937   6.480   6.155   1.516  0.1752 -0.3226  0.5080
  759poe     o2 6938   6.357   6.130   1.578 -0.2373  0.0941 -0.1254
  759poe    c23 6939   6.294   6.056   1.476  0.1767  0.1469 -0.4214
  759poe    c23 6940   6.142   6.049   1.502  0.1455  0.5045 -0.5006
  759poe     o2 6941   6.105   6.181   1.535  0.3141  0.4093  0.0939
  759poe    c23 6942   5.970   6.194   1.575  0.3035  0.3407  0.0780
  759poe    c23 6943   5.945   6.334   1.635 -0.2257  0.3040 -0.0530
  759poe     o2 6944   6.057   6.351   1.719 -0.5198  0.1668  0.3732
  759poe    c23 6945   6.080   6.487   1.747 -0.1997  0.1199  0.3439
  759poe    c23 6946   6.214   6.487   1.823  0.0650 -0.2654 -0.1211
  759poe     o2 6947   6.301   6.396   1.760  0.3196  0.1749 -0.4101
  759poe    c31 6948   6.424   6.417   1.826  0.3268 -0.2905 -0.2674
  760poe    c31 6949   2.164   1.688   6.674  0.4420  0.1455  0.2723
  760poe     o2 6950   2.086   1.604   6.592  0.0083  0.4249  0.3924
  760poe    c23 6951   2.018   1.690   6.504  0.5959  0.0512 -0.4415
  760poe    c23 6952   1.956   1.597   6.399  0.0801  0.0291 -0.1186
  760poe     o2 6953   1.904   1.484   6.468 -0.3125  0.5269  0.4125
  760poe    c23 6954   1.832   1.396   6.384 -0.2429  0.2707  0.6223
  760poe    c23 6955   1.800   1.286   6.487  0.3804 -0.6867 -0.1966
  760poe     o2 6956   1.914   1.267   6.567  0.4049 -0.7982 -0.2570
  760poe    c23 6957   1.883   1.199   6.687 -0.1076  0.0889  0.1274
  760poe    c23 6958   2.005   1.212   6.781 -0.2702  0.1918  0.3239
  760poe     o2 6959   2.052   1.344   6.774  0.0121  0.0587 -0.3303
  760poe    c31 6960   2.124   1.375   6.891  0.2335 -0.2210 -0.3928
  761poe    c31 6961   3.226   3.359   4.256 -0.1884 -0.4773  0.2011
  761poe     o2 6962   3.306   3.327   4.368  0.4352 -0.3331 -0.2003
  761poe    c23 6963   3.344   3.193   4.351  0.2551 -0.3723 -0.3006
  761poe    c23 6964   3.427   3.163   4.478  0.0530 -0.2549 -0.1396
  761poe     o2 6965   3.488   3.285   4.513 -0.3577  0.0177 -0.3527
  761poe    c23 6966   3.550   3.271   4.639  0.0048  0.0180 -0.5300
  761poe    c23 6967   3.626   3.400   4.676  0.4123 -0.3245 -0.1558
  761poe     o2 6968   3.564   3.510   4.613  0.2544 -0.1723  0.2630
  761poe    c23 6969   3.605   3.632   4.670 -0.1770  0.1180 -0.0408
  761poe    c23 6970   3.528   3.758   4.626  0.1255  0.6929  1.0490
  761poe     o2 6971   3.391   3.758   4.661 -0.1702 -0.1788 -0.0718
  761poe    c31 6972   3.332   3.874   4.607 -0.8055 -0.3618  0.2250
  762poe    c31 6973   1.377   4.981   1.663  0.1716  0.0166 -0.3819
  762poe     o2 6974   1.259   5.044   1.619 -0.1947 -0.3937  0.0001
  762poe    c23 6975   1.152   4.953   1.602  0.0173 -0.7193  0.3824
  762poe    c23 6976   1.035   5.018   1.526  0.4778 -0.3256  0.0033
  762poe     o2 6977   0.997   5.137   1.590  0.1471 -0.2140 -0.3928
  762poe    c23 6978   0.922   5.214   1.499  0.0481 -0.0901 -0.2087
  762poe    c23 6979   0.931   5.355   1.559  0.1529 -0.1957  0.0256
  762poe     o2 6980   1.069   5.366   1.583  0.1050 -0.3793  0.3912
  762poe    c23 6981   1.103   5.471   1.671 -0.3826 -0.1565  0.3151
  762poe    c23 6982   1.254   5.473   1.700 -0.3799 -0.7768  0.3696
  762poe     o2 6983   1.288   5.341   1.737 -0.3312 -0.7574  0.3924
  762poe    c31 6984   1.408   5.347   1.810 -0.1580 -0.0149  0.0640
  763poe    c31 6985   2.782   6.390   5.297 -1.4090 -0.1124 -0.4957
  763poe     o2 6986   2.765   6.251   5.310  0.2825 -0.3163 -0.2107
  763poe    c23 6987   2.778   6.174   5.193  0.3639  0.2429 -0.5709
  763poe    c23 6988   2.810   6.029   5.235  0.1388  0.2534 -0.3631
  763poe     o2 6989   2.722   5.984   5.336  0.5494  0.4773  0.0991
  763poe    c23 6990   2.743   5.851   5.380  0.1205  0.2220 -0.4414
  763poe    c23 6991   2.638   5.819   5.487  0.5643  0.3986  0.0518
  763poe     o2 6992   2.637   5.939   5.562 -0.1479  0.4960 -0.1043
  763poe    c23 6993   2.516   5.970   5.626 -0.1511 -0.0179  0.1411
  763poe    c23 6994   2.527   6.116   5.674 -1.0516  0.2152 -0.3372
  763poe     o2 6995   2.584   6.186   5.565  0.3165 -0.2141  0.0916
  763poe    c31 6996   2.536   6.318   5.576  0.2330 -0.1766 -0.6867
  764poe    c31 6997   5.534   2.827   3.194 -0.3153 -0.0777 -0.0759
  764poe     o2 6998   5.473   2.909   3.097 -0.4607 -0.3443 -0.2088
  764poe    c23 6999   5.376   2.826   3.035 -0.4464 -0.3906 -0.1694
  764poe    c23 7000   5.250   2.901   2.989 -0.4138 -0.2683 -0.0620
  764poe     o2 7001   5.297   3.003   2.903  0.0214  0.1249  0.6319
  764poe    c23 7002   5.201   3.105   2.883  0.1438  0.2074  0.4611
  764poe    c23 7003   5.275   3.239   2.875  0.2401  0.1342  0.0871
  764poe     o2 7004   5.382   3.227   2.966  0.3863 -0.1704 -0.1241
  764poe    c23 7005   5.479   3.330   2.957  0.0767  0.1202 -0.1425
  764poe    c23 7006   5.596   3.292   3.049 -0.3062 -0.0293  0.2860
  764poe     o2 7007   5.609   3.152   3.034 -0.1391 -0.0302  0.4316
  764poe    c31 7008   5.723   3.113   3.106 -0.0365 -0.6423 -0.0556
  765poe    c31 7009   0.250   2.987   2.364  0.1602  1.2512 -0.5035
  765poe     o2 7010   0.120   3.003   2.312 -0.3005  0.6291  0.4235
  765poe    c23 7011   0.038   2.919   2.391 -0.0160 -0.0671 -0.0085
  765poe    c23 7012  -0.064   2.858   2.293  0.0648  0.0394 -0.1606
  765poe     o2 7013  -0.105   2.960   2.205 -0.0964 -0.0219 -0.1575
  765poe    c23 7014  -0.191   2.907   2.107 -0.1425  0.0840 -0.1743
  765poe    c23 7015  -0.187   3.022   2.004 -0.4944 -0.5602 -0.9161
  765poe     o2 7016  -0.059   3.077   1.985 -0.3278 -0.4852  0.3117
  765poe    c23 7017  -0.038   3.155   1.869 -0.2776 -0.1361  0.5573
  765poe    c23 7018  -0.097   3.297   1.878 -0.1657 -0.0536  0.0024
  765poe     o2 7019  -0.039   3.372   1.982 -0.3470  0.4010 -0.2190
  765poe    c31 7020  -0.105   3.497   1.988 -0.6273  0.2610 -0.4037
  766poe    c31 7021   4.719   6.531   2.643  0.0109 -0.1308 -0.5107
  766poe     o2 7022   4.852   6.568   2.612  0.3424 -0.3618  0.5946
  766poe    c23 7023   4.870   6.707   2.615  0.0415 -0.2983 -0.2825
  766poe    c23 7024   5.015   6.747   2.650 -0.1364  0.2293 -0.1325
  766poe     o2 7025   5.101   6.650   2.594 -0.2067 -0.0712  0.2779
  766poe    c23 7026   5.231   6.648   2.648 -0.1340 -0.1522  0.1011
  766poe    c23 7027   5.295   6.519   2.593 -0.0574  0.0136 -0.2015
  766poe     o2 7028   5.198   6.418   2.610 -0.1926  0.1898  0.0830
  766poe    c23 7029   5.212   6.307   2.524  0.5429  0.3272  0.0223
  766poe    c23 7030   5.082   6.226   2.532  0.2800  0.7452  0.0079
  766poe     o2 7031   4.970   6.312   2.523 -0.2397  0.0813  0.0193
  766poe    c31 7032   4.846   6.246   2.513 -0.2820  0.1044  0.3611
  767poe    c31 7033   1.878   5.017   4.518 -0.3016 -0.0940  0.6298
  767poe     o2 7034   2.019   5.013   4.526 -0.2736 -0.5420  0.0012
  767poe    c23 7035   2.076   5.017   4.397 -0.7782  0.6213 -0.2024
  767poe    c23 7036   2.091   4.878   4.332 -0.4496  0.3635  0.4106
  767poe     o2 7037   2.191   4.801   4.395 -0.2734 -0.0516 -0.3640
  767poe    c23 7038   2.185   4.672   4.337 -0.5803 -0.2485  0.0985
  767poe    c23 7039   2.296   4.587   4.402 -0.0538  0.6012  0.3438
  767poe     o2 7040   2.285   4.598   4.542 -0.7161 -0.4425  0.3863
  767poe    c23 7041   2.383   4.529   4.615 -0.4040 -0.0209  0.3706
  767poe    c23 7042   2.387   4.588   4.757  0.3456  0.4966  0.1414
  767poe     o2 7043   2.391   4.728   4.740 -0.0809  0.4944  0.0126
  767poe    c31 7044   2.421   4.793   4.862 -0.1271  0.1345  0.2197
  768poe    c31 7045   0.192   6.126   1.172  0.1403 -0.3861  0.0314
  768poe     o2 7046   0.187   6.203   1.289 -0.4065 -0.0306 -0.2237
  768poe    c23 7047   0.061   6.265   1.305 -0.2454  0.2483 -0.0215
  768poe    c23 7048   0.080   6.389   1.395 -0.3310  0.0728  0.2407
  768poe     o2 7049   0.198   6.360   1.466  0.2279  0.5897 -0.4572
  768poe    c23 7050   0.204   6.433   1.587  0.2523  0.0198 -0.1105
  768poe    c23 7051   0.346   6.486   1.611  0.2880 -0.0959 -0.0665
  768poe     o2 7052   0.431   6.375   1.627 -0.1576 -0.4351 -0.0364
  768poe    c23 7053   0.564   6.417   1.653 -0.1176 -0.6603  0.1314
  768poe    c23 7054   0.669   6.313   1.611  0.5544  0.1828 -0.3039
  768poe     o2 7055   0.656   6.304   1.471  0.3239  0.0705 -0.2761
  768poe    c31 7056   0.736   6.197   1.426 -0.1806 -0.5644  0.3128
  769poe    c31 7057   1.047   4.133   5.684 -0.5712  0.7209  0.0822
  769poe     o2 7058   1.010   4.127   5.548 -0.0998 -0.1780 -0.0156
  769poe    c23 7059   0.870   4.142   5.530 -0.2086 -0.8000  0.2846
  769poe    c23 7060   0.843   4.190   5.387  0.3749 -0.1555  0.3842
  769poe     o2 7061   0.912   4.101   5.301 -0.2090  0.0412 -0.3016
  769poe    c23 7062   0.913   4.167   5.176 -0.3958  0.1028 -0.2704
  769poe    c23 7063   1.038   4.108   5.109 -0.3205  0.0331 -0.0701
  769poe     o2 7064   1.128   4.085   5.215 -0.4686 -0.0803  0.0318
  769poe    c23 7065   1.231   3.996   5.179 -0.4821 -0.1231  0.0974
  769poe    c23 7066   1.330   3.993   5.297  0.2132  0.0263 -0.4746
  769poe     o2 7067   1.242   4.009   5.405  0.5994  0.1783 -0.1789
  769poe    c31 7068   1.312   3.954   5.514 -0.2408 -0.0730  0.2451
  770poe    c31 7069   4.110   3.174   4.565  0.0032 -0.0896 -0.2429
  770poe     o2 7070   4.133   3.053   4.496  0.3719 -0.0342 -0.2178
  770poe    c23 7071   4.181   2.961   4.591  0.1766  0.0008 -0.0846
  770poe    c23 7072   4.182   2.824   4.521 -0.2536 -0.0998  0.1053
  770poe     o2 7073   4.054   2.818   4.462 -0.4233 -0.2752  0.4897
  770poe    c23 7074   4.063   2.711   4.370 -0.2477  0.3654 -0.2472
  770poe    c23 7075   3.921   2.725   4.311 -0.2447  0.1819 -0.2975
  770poe     o2 7076   3.912   2.861   4.277 -0.0234  0.3726  0.3831
  770poe    c23 7077   3.785   2.905   4.234  0.1024  0.4680  0.1039
  770poe    c23 7078   3.803   3.056   4.214 -0.6055  0.5569  0.1306
  770poe     o2 7079   3.882   3.113   4.315  0.2708 -0.0112 -0.2269
  770poe    c31 7080   3.877   3.253   4.321  0.3263 -0.0146 -0.0757
  771poe    c31 7081   1.524   6.431   5.959  0.5252 -0.0871  0.1428
  771poe     o2 7082   1.589   6.418   5.835  0.4843  0.2893  0.0814
  771poe    c23 7083   1.635   6.286   5.851  0.6106  0.3388  0.1316
  771poe    c23 7084   1.676   6.244   5.708  0.3782 -0.2130  0.2257
  771poe     o2 7085   1.752   6.343   5.643 -0.4042  0.2576  0.0123
  771poe    c23 7086   1.826   6.284   5.539 -0.1362  0.2131  0.2251
  771poe    c23 7087   1.896   6.394   5.458 -0.2455 -0.1433 -0.3627
  771poe     o2 7088   1.802   6.486   5.407 -0.1210  0.2029  0.0272
  771poe    c23 7089   1.862   6.599   5.349  0.0577  0.1450  0.0999
  771poe    c23 7090   1.765   6.693   5.276 -0.4262 -0.3819  0.0619
  771poe     o2 7091   1.817   6.819   5.240 -0.5395 -0.1808  0.5967
  771poe    c31 7092   1.726   6.890   5.160  0.0112 -0.0530  0.0781
  772poe    c31 7093   2.814   3.879   5.127 -0.2666  0.4592 -0.3201
  772poe     o2 7094   2.855   4.014   5.122 -0.5026  0.5404 -0.0737
  772poe    c23 7095   2.994   4.029   5.143 -0.3490  0.3265 -0.8981
  772poe    c23 7096   3.031   4.176   5.172 -0.2896  0.0932  0.2328
  772poe     o2 7097   2.956   4.244   5.074  0.6485  0.3922 -0.2937
  772poe    c23 7098   2.983   4.382   5.077  0.0511  0.5152 -0.4030
  772poe    c23 7099   2.896   4.431   4.959 -0.0254 -0.1066 -0.6044
  772poe     o2 7100   2.763   4.393   4.986 -0.0420  0.1763 -0.2782
  772poe    c23 7101   2.673   4.399   4.878  0.1854  0.2926 -0.4608
  772poe    c23 7102   2.588   4.271   4.882  0.0832  0.3751  0.1609
  772poe     o2 7103   2.663   4.169   4.944  0.4614  0.2605 -0.4669
  772poe    c31 7104   2.598   4.045   4.926  0.3943  0.2876 -0.4131
  773poe    c31 7105   2.708   3.438   6.520 -0.4901  0.5544  0.2024
  773poe     o2 7106   2.699   3.495   6.649  0.0061  0.1520  0.4153
  773poe    c23 7107   2.656   3.406   6.749  0.2430  0.0756  0.4499
  773poe    c23 7108   2.643   3.466   6.891  0.3909  0.0488  0.4751
  773poe     o2 7109   2.772   3.488   6.945  0.6444  0.3877 -0.2528
  773poe    c23 7110   2.757   3.514   7.082 -0.2396 -0.4738 -0.1776
  773poe    c23 7111   2.890   3.505   7.159 -0.2988  0.8485  0.1166
  773poe     o2 7112   2.981   3.566   7.070  0.2413 -0.3406 -0.1701
  773poe    c23 7113   3.118   3.558   7.102  0.1635  0.3907  0.3598
  773poe    c23 7114   3.211   3.600   6.987 -0.0728 -0.2022 -0.0485
  773poe     o2 7115   3.156   3.539   6.872  0.0602  0.0238 -0.2337
  773poe    c31 7116   3.245   3.560   6.766  0.4484 -0.7175 -0.0629
  774poe    c31 7117   1.639   4.233   3.800  0.4610  0.2446 -0.3112
  774poe     o2 7118   1.648   4.250   3.940 -0.2050 -0.8452 -0.1281
  774poe    c23 7119   1.532   4.321   3.977  0.5461  0.2427  0.1813
  774poe    c23 7120   1.549   4.356   4.126  0.3984  0.3801  0.1660
  774poe     o2 7121   1.586   4.251   4.212 -0.0863  0.0219 -0.0606
  774poe    c23 7122   1.473   4.172   4.245 -0.2000  0.1189 -0.2174
  774poe    c23 7123   1.537   4.033   4.257 -0.4721 -0.0062 -0.2330
  774poe     o2 7124   1.610   4.023   4.137  0.0265 -0.2094  0.0849
  774poe    c23 7125   1.682   3.902   4.136 -0.0812 -0.2715 -0.1159
  774poe    c23 7126   1.739   3.873   3.996 -0.2906 -0.0693 -0.2445
  774poe     o2 7127   1.812   3.988   3.959  0.1565 -0.1208  0.4632
  774poe    c31 7128   1.906   3.952   3.861  0.0064 -0.8594  0.5820
  775poe    c31 7129   4.803   6.645   4.909 -0.3527  0.3485  0.5444
  775poe     o2 7130   4.855   6.700   5.028  0.4060 -0.3709  0.5579
  775poe    c23 7131   4.909   6.828   5.005 -0.2294 -0.1419  0.3138
  775poe    c23 7132   4.986   6.867   5.133 -0.1392  0.5025  0.0705
  775poe     o2 7133   4.908   6.813   5.237 -0.0503  0.4700  0.1202
  775poe    c23 7134   4.967   6.804   5.365 -0.5555  0.4877  0.3535
  775poe    c23 7135   4.859   6.732   5.448 -0.4367  0.3559  0.3945
  775poe     o2 7136   4.796   6.628   5.376  0.0840  0.3421 -0.0481
  775poe    c23 7137   4.662   6.601   5.413  0.2547 -0.4735  0.0007
  775poe    c23 7138   4.620   6.482   5.325  0.4970 -0.3919 -0.2310
  775poe     o2 7139   4.627   6.509   5.187 -0.5539 -0.1380 -0.2411
  775poe    c31 7140   4.541   6.423   5.116 -0.5278 -0.0687 -0.3563
  776poe    c31 7141   3.647   2.456   3.479 -0.2493 -0.0798 -0.4384
  776poe     o2 7142   3.767   2.455   3.552 -0.2819 -0.1159 -0.3851
  776poe    c23 7143   3.869   2.386   3.484 -0.0608 -0.0611 -0.1120
  776poe    c23 7144   3.997   2.383   3.569 -0.1596  0.7535  0.0719
  776poe     o2 7145   3.989   2.294   3.679  0.1367  0.4904 -0.1163
  776poe    c23 7146   3.953   2.348   3.804  0.3125  0.2925  0.0203
  776poe    c23 7147   4.001   2.261   3.921 -0.4326  0.4514  0.4541
  776poe     o2 7148   3.992   2.126   3.882  0.5910  0.4990  0.0072
  776poe    c23 7149   4.036   2.044   3.987  0.3352  0.5558  0.1604
  776poe    c23 7150   4.011   1.896   3.952  0.1647  0.5982  0.0997
  776poe     o2 7151   4.086   1.876   3.834 -0.0749  0.0846  0.0338
  776poe    c31 7152   4.092   1.736   3.816  0.7660  0.1391 -0.1227
  777poe    c31 7153   0.639   0.075   5.474 -0.4099  0.1784 -0.1638
  777poe     o2 7154   0.635   0.131   5.603 -0.3398  0.0989 -0.1260
  777poe    c23 7155   0.730   0.234   5.619 -0.1730 -0.0032 -0.4580
  777poe    c23 7156   0.723   0.286   5.764  0.1779 -0.4439 -0.2769
  777poe     o2 7157   0.776   0.200   5.862 -0.6854 -0.3187  0.3168
  777poe    c23 7158   0.784   0.267   5.986  0.3864 -0.3217  0.2585
  777poe    c23 7159   0.804   0.163   6.098  0.2530 -0.3435  0.2622
  777poe     o2 7160   0.914   0.080   6.068  0.2321 -0.2118 -0.1854
  777poe    c23 7161   0.941  -0.018   6.165 -0.1806  0.1457  0.2956
  777poe    c23 7162   1.060  -0.107   6.124  0.3661  0.8785  0.2654
  777poe     o2 7163   1.054  -0.113   5.984  0.0845  0.0663  0.3056
  777poe    c31 7164   1.171  -0.177   5.937 -0.0959  0.0378 -0.1154
  778poe    c31 7165   4.817   4.010   0.533  0.3291  0.1688  0.3688
  778poe     o2 7166   4.744   3.940   0.435  0.0950  0.6791  0.1761
  778poe    c23 7167   4.651   3.844   0.479 -0.0622  0.4459 -0.6477
  778poe    c23 7168   4.516   3.834   0.405 -0.2144  0.2873 -0.3516
  778poe     o2 7169   4.531   3.841   0.265  0.3341  0.1011 -0.3083
  778poe    c23 7170   4.407   3.885   0.213  0.2071 -0.3364 -0.3777
  778poe    c23 7171   4.408   3.854   0.062 -0.3125  0.0337 -0.4586
  778poe     o2 7172   4.536   3.886   0.012 -0.1276 -0.1871 -0.1277
  778poe    c23 7173   4.569   3.834  -0.115  0.5606 -0.6203  0.2171
  778poe    c23 7174   4.721   3.840  -0.138  0.5000  0.8310  0.0524
  778poe     o2 7175   4.770   3.767  -0.029 -0.0536  0.3553 -0.0091
  778poe    c31 7176   4.906   3.752  -0.065 -0.0105 -0.2159  0.3664
  779poe    c31 7177   6.257   5.315   6.618  1.0591  0.4304  0.0713
  779poe     o2 7178   6.330   5.350   6.503 -0.0050 -0.2994 -0.8499
  779poe    c23 7179   6.315   5.489   6.483 -0.0541 -0.1794 -0.0147
  779poe    c23 7180   6.342   5.552   6.346  0.0265 -0.1691  0.0057
  779poe     o2 7181   6.480   5.534   6.319  0.0129 -0.0037 -0.1775
  779poe    c23 7182   6.520   5.593   6.197 -0.3219  0.2203 -0.1798
  779poe    c23 7183   6.664   5.555   6.160 -0.0905  0.4946  0.4270
  779poe     o2 7184   6.751   5.552   6.271  0.1087 -0.8710  0.2512
  779poe    c23 7185   6.881   5.499   6.256  0.2317 -0.6006  0.3541
  779poe    c23 7186   6.951   5.512   6.393  0.3859 -0.0634  0.2270
  779poe     o2 7187   6.861   5.466   6.491  0.2794 -0.2303  0.0529
  779poe    c31 7188   6.931   5.426   6.607  0.5312  0.2596  0.0736
  780poe    c31 7189   2.422   5.316   0.097  0.2489 -0.3994 -0.4655
  780poe     o2 7190   2.507   5.233   0.173 -0.3569 -0.4007  0.2217
  780poe    c23 7191   2.520   5.272   0.307 -0.1226  0.1731  0.0347
  780poe    c23 7192   2.585   5.164   0.397 -0.7362  0.1387  0.4457
  780poe     o2 7193   2.551   5.039   0.341  0.4226 -0.0578  0.1413
  780poe    c23 7194   2.645   4.944   0.385  0.0316 -0.2207  0.6396
  780poe    c23 7195   2.641   4.835   0.276 -0.0046  0.4612 -0.0532
  780poe     o2 7196   2.615   4.900   0.154 -0.4473  0.2223 -0.0907
  780poe    c23 7197   2.589   4.805   0.052 -0.1335  0.0141  0.0186
  780poe    c23 7198   2.586   4.889  -0.077 -0.2076  0.3689  0.2490
  780poe     o2 7199   2.515   5.007  -0.045 -0.7692  0.1926 -0.3324
  780poe    c31 7200   2.508   5.091  -0.158  0.4964 -0.2261 -0.7353
  781poe    c31 7201   5.910   4.064   2.880  0.2918 -0.2571 -0.2994
  781poe     o2 7202   5.771   4.042   2.879  0.2443 -0.0145  0.3811
  781poe    c23 7203   5.712   4.159   2.931  0.2663  0.2588 -0.2027
  781poe    c23 7204   5.573   4.123   2.985  0.4362  0.2463  0.2309
  781poe     o2 7205   5.520   4.043   2.882  0.0344 -0.1310  0.7243
  781poe    c23 7206   5.383   4.009   2.887 -0.0116 -0.0806 -0.0653
  781poe    c23 7207   5.355   3.929   2.759 -0.2427  0.1522 -0.1599
  781poe     o2 7208   5.442   3.818   2.752 -0.1772  0.1608  0.4923
  781poe    c23 7209   5.371   3.712   2.692  0.0885  0.2717 -0.0230
  781poe    c23 7210   5.470   3.613   2.629 -0.2829 -0.3021  0.2853
  781poe     o2 7211   5.557   3.556   2.724  0.2611  0.0678  0.0111
  781poe    c31 7212   5.672   3.490   2.673  0.2532  0.3534 -0.3795
  782poe    c31 7213   2.303   1.312   2.379  0.1642 -0.2898 -0.6781
  782poe     o2 7214   2.328   1.213   2.477  0.2760  0.0308 -0.3781
  782poe    c23 7215   2.426   1.249   2.571 -0.6187  0.6622  0.3299
  782poe    c23 7216   2.432   1.150   2.689  0.4373  0.0783 -0.2015
  782poe     o2 7217   2.430   1.024   2.627  0.2536  0.0484 -0.1340
  782poe    c23 7218   2.350   0.951   2.717 -0.1944  0.5386 -0.1317
  782poe    c23 7219   2.284   0.834   2.642 -0.1372  0.2087  0.3265
  782poe     o2 7220   2.216   0.901   2.539  0.3211 -0.7773 -0.6444
  782poe    c23 7221   2.141   0.824   2.447 -0.6667 -0.1510 -0.3763
  782poe    c23 7222   2.101   0.913   2.328  0.0865  0.7865  0.0612
  782poe     o2 7223   2.213   0.994   2.297 -0.2039  1.1093 -0.1601
  782poe    c31 7224   2.197   1.024   2.160  0.6901 -0.5652 -0.6699
  783poe    c31 7225   1.305   6.124   0.260 -0.2376  0.0760  0.2067
  783poe     o2 7226   1.277   6.254   0.307 -0.0579  0.2448 -0.1547
  783poe    c23 7227   1.399   6.318   0.338 -0.0132 -0.0539  0.2933
  783poe    c23 7228   1.355   6.465   0.351 -0.0581 -0.0133 -0.2872
  783poe     o2 7229   1.241   6.464   0.434  0.2577 -0.3325  0.1502
  783poe    c23 7230   1.163   6.581   0.425  0.5793 -0.0485  0.9543
  783poe    c23 7231   1.021   6.540   0.468  0.4257 -0.8888 -0.3027
  783poe     o2 7232   0.996   6.420   0.399  0.5501 -0.7125 -0.6556
  783poe    c23 7233   0.859   6.394   0.377  0.1528  0.0547  0.8071
  783poe    c23 7234   0.869   6.288   0.265  0.3681  0.2748  0.6156
  783poe     o2 7235   0.977   6.203   0.296  0.1225 -0.3503 -0.2039
  783poe    c31 7236   0.953   6.071   0.255 -0.1214 -0.3463 -0.0744
  784poe    c31 7237   2.045   3.103   0.638  0.5043  0.4487 -0.3438
  784poe     o2 7238   2.089   3.075   0.507  0.3759 -0.4199 -0.2050
  784poe    c23 7239   2.051   3.182   0.424 -0.7006 -0.4784  0.1900
  784poe    c23 7240   2.102   3.147   0.283 -0.1787 -0.2254  0.3137
  784poe     o2 7241   2.239   3.112   0.296 -0.1781 -0.2633  0.2076
  784poe    c23 7242   2.301   3.070   0.177 -0.1272  0.1990  0.0665
  784poe    c23 7243   2.450   3.050   0.211 -0.1769  0.0389  0.1919
  784poe     o2 7244   2.468   3.005   0.343 -0.2760 -0.1919  0.1278
  784poe    c23 7245   2.605   2.984   0.370 -0.2592 -0.3651 -0.0892
  784poe    c23 7246   2.657   2.840   0.362 -0.0402 -0.2901 -0.0451
  784poe     o2 7247   2.665   2.801   0.227 -0.6510 -0.0254 -0.1584
  784poe    c31 7248   2.761   2.700   0.212 -0.7624 -0.0883 -0.4664
  785poe    c31 7249   1.311   2.973   1.150  0.4236  0.5570  0.0349
  785poe     o2 7250   1.240   3.095   1.149  0.1475  0.3964 -0.0280
  785poe    c23 7251   1.104   3.083   1.117  0.1458 -0.0406  0.1347
  785poe    c23 7252   1.028   3.215   1.098 -0.3735 -0.3674 -0.0857
  785poe     o2 7253   1.106   3.314   1.036  0.1715 -0.2230  0.8153
  785poe    c23 7254   1.033   3.413   0.967  0.7115 -0.4831 -0.1591
  785poe    c23 7255   1.134   3.494   0.884  0.6684 -0.0291  0.2241
  785poe     o2 7256   1.238   3.538   0.968  0.4078  0.4756  0.2890
  785poe    c23 7257   1.323   3.627   0.899  0.7681  0.0216  0.1390
  785poe    c23 7258   1.419   3.682   1.005  0.7395  0.4004 -0.0310
  785poe     o2 7259   1.463   3.584   1.097 -1.1962  0.1537  0.6738
  785poe    c31 7260   1.557   3.633   1.190 -0.2506  0.3785 -0.3756
  786poe    c31 7261   6.516   0.482   6.654 -0.3763  0.3964 -0.2528
  786poe     o2 7262   6.429   0.409   6.570  0.2823 -0.0533 -0.5532
  786poe    c23 7263   6.470   0.277   6.545 -0.4005 -0.4675  0.4537
  786poe    c23 7264   6.343   0.215   6.485 -0.3132 -0.2099 -0.0031
  786poe     o2 7265   6.305   0.279   6.366  0.4860 -0.3755 -0.3512
  786poe    c23 7266   6.176   0.251   6.317  0.3647  0.1203 -0.3202
  786poe    c23 7267   6.109   0.385   6.278 -0.6308 -0.2530  0.0846
  786poe     o2 7268   6.101   0.470   6.391 -0.4427  0.1208 -0.1854
  786poe    c23 7269   6.048   0.594   6.351 -0.0130  0.1077 -0.8281
  786poe    c23 7270   6.080   0.696   6.462 -0.2112 -0.6193 -0.0983
  786poe     o2 7271   6.215   0.679   6.503 -0.1175 -0.0755 -0.1794
  786poe    c31 7272   6.258   0.744   6.620 -0.2158  0.1275 -0.2545
  787poe    c31 7273   6.552   3.881   5.970  0.0028  0.2505 -0.3824
  787poe     o2 7274   6.537   3.919   6.105 -0.1070  0.0983 -0.3529
  787poe    c23 7275   6.657   3.987   6.134 -0.1241  0.0486 -0.1663
  787poe    c23 7276   6.649   4.047   6.276  1.3400 -0.0663 -0.0240
  787poe     o2 7277   6.559   4.155   6.281  0.3474 -0.9130  0.5851
  787poe    c23 7278   6.581   4.228   6.400 -0.1853  0.3903 -0.1001
  787poe    c23 7279   6.534   4.372   6.372 -0.0833  0.2698 -0.9237
  787poe     o2 7280   6.394   4.370   6.360 -0.2036 -0.9380  0.3663
  787poe    c23 7281   6.339   4.490   6.312  0.2967 -1.0483 -0.5122
  787poe    c23 7282   6.188   4.465   6.293 -0.0320  0.2807  0.2318
  787poe     o2 7283   6.179   4.334   6.243  0.0280  0.2667  0.2575
  787poe    c31 7284   6.043   4.296   6.238 -0.0082  0.3497  0.5839
  788poe    c31 7285   1.199   4.611   2.820 -0.2262  0.1953 -0.1089
  788poe     o2 7286   1.074   4.591   2.881 -0.2266 -0.1566 -0.2220
  788poe    c23 7287   1.037   4.716   2.935  0.0676 -0.2928  0.3102
  788poe    c23 7288   0.891   4.717   2.986 -0.1286  0.2240 -0.2436
  788poe     o2 7289   0.840   4.596   2.934 -0.2982  0.0502  0.3296
  788poe    c23 7290   0.703   4.570   2.956 -0.4514  0.8198  0.2950
  788poe    c23 7291   0.671   4.463   2.850  0.4404  0.7953  0.0434
  788poe     o2 7292   0.767   4.361   2.843 -0.5171 -0.1331  0.2796
  788poe    c23 7293   0.785   4.293   2.721  0.0758  0.7392 -0.1268
  788poe    c23 7294   0.923   4.226   2.738 -0.3581 -0.1746 -0.1431
  788poe     o2 7295   1.027   4.305   2.792 -0.5604 -0.0964  0.1313
  788poe    c31 7296   1.149   4.235   2.802 -0.5933 -0.2361 -0.4171
  789poe    c31 7297   2.569   3.545   6.104 -0.3176 -0.2062 -0.0415
  789poe     o2 7298   2.431   3.525   6.087 -0.3557 -0.2499  0.3125
  789poe    c23 7299   2.393   3.524   5.951  0.5447  0.2314  0.0467
  789poe    c23 7300   2.244   3.488   5.935  0.4074  0.7923  0.0240
  789poe     o2 7301   2.217   3.365   5.999 -0.0523  0.2692 -1.1456
  789poe    c23 7302   2.090   3.318   5.961 -0.5960  0.5340  0.2865
  789poe    c23 7303   2.048   3.188   6.032 -0.1167  0.1879 -0.0580
  789poe     o2 7304   2.079   3.204   6.169 -0.7567 -0.0551  0.1206
  789poe    c23 7305   2.050   3.086   6.241  0.1340 -0.5033 -0.2296
  789poe    c23 7306   2.087   3.114   6.387  0.1255  0.4409 -0.4020
  789poe     o2 7307   2.217   3.168   6.402  0.3638 -0.1306 -0.3762
  789poe    c31 7308   2.263   3.146   6.534 -0.5043  0.3542  0.0189
  790poe    c31 7309   0.245   2.329   2.180  0.4477  0.1214  0.7113
  790poe     o2 7310   0.116   2.319   2.235 -0.0503 -0.1075 -0.4633
  790poe    c23 7311   0.106   2.444   2.298 -0.5841  0.0221 -0.7920
  790poe    c23 7312  -0.033   2.466   2.361 -0.1081  0.4107  0.1494
  790poe     o2 7313  -0.126   2.484   2.257 -0.0758  0.5264  0.1401
  790poe    c23 7314  -0.253   2.495   2.318 -0.2079 -0.1090 -0.0113
  790poe    c23 7315  -0.346   2.530   2.199 -0.3315  0.0435  0.1284
  790poe     o2 7316  -0.327   2.428   2.103 -0.3992  0.0242  0.1352
  790poe    c23 7317  -0.424   2.436   2.002  0.0175 -0.0745 -0.2753
  790poe    c23 7318  -0.393   2.321   1.904  0.2012 -0.4113  0.1755
  790poe     o2 7319  -0.255   2.316   1.874  0.2763 -0.1724  0.4807
  790poe    c31 7320  -0.238   2.231   1.763  0.2324  0.0244  0.3239
  791poe    c31 7321   3.008   0.533   5.578 -0.4615 -0.2997 -0.5106
  791poe     o2 7322   3.110   0.474   5.501 -0.0289  0.1729 -0.3076
  791poe    c23 7323   3.240   0.523   5.524  0.3103 -0.5549 -0.6423
  791poe    c23 7324   3.347   0.422   5.478  0.3915 -0.9908  0.4703
  791poe     o2 7325   3.312   0.386   5.346  0.1627 -0.0872  0.2768
  791poe    c23 7326   3.390   0.279   5.298 -0.0300 -0.2661  0.3619
  791poe    c23 7327   3.352   0.243   5.153 -0.3043  0.2871  0.2942
  791poe     o2 7328   3.214   0.219   5.165 -0.3512  0.3043 -0.2043
  791poe    c23 7329   3.160   0.151   5.053 -0.5113 -0.1017  0.1132
  791poe    c23 7330   3.135   0.256   4.943 -0.4264 -0.1833  0.0163
  791poe     o2 7331   3.032   0.351   4.960  0.0025  0.2826  0.0276
  791poe    c31 7332   3.008   0.422   4.840 -0.1899 -0.6743 -0.5150
  792poe    c31 7333   6.303   2.717   6.141  0.4091 -0.4395  0.3202
  792poe     o2 7334   6.188   2.733   6.062  0.6179  0.8347  0.2545
  792poe    c23 7335   6.212   2.718   5.924 -0.0697  0.0643  0.2096
  792poe    c23 7336   6.083   2.723   5.841 -0.0579 -0.1541  0.1774
  792poe     o2 7337   6.000   2.814   5.908  0.2393  0.2434  0.0107
  792poe    c23 7338   5.871   2.819   5.851  0.2522  0.2292 -0.0207
  792poe    c23 7339   5.786   2.910   5.942 -0.6345 -0.2715 -0.3363
  792poe     o2 7340   5.814   2.859   6.070 -0.3749 -0.2655 -0.3885
  792poe    c23 7341   5.803   2.949   6.178  0.4041 -0.2519 -0.3187
  792poe    c23 7342   5.879   2.900   6.303  0.3066  0.3100 -0.0358
  792poe     o2 7343   6.015   2.873   6.278  0.0933 -0.7206 -0.1510
  792poe    c31 7344   6.067   2.827   6.401  0.0728 -0.0288  0.1190
  793poe    c31 7345   4.214   1.259   0.018  0.0852 -0.3479 -0.4153
  793poe     o2 7346   4.111   1.287   0.110  0.5210 -0.1793  0.0283
  793poe    c23 7347   4.159   1.378   0.206  0.7704  0.1192 -0.3718
  793poe    c23 7348   4.100   1.520   0.211 -0.3986 -0.3653  0.2007
  793poe     o2 7349   3.963   1.523   0.243 -0.3784 -0.2084  0.2745
  793poe    c23 7350   3.914   1.651   0.276  0.1698  0.1300 -0.2084
  793poe    c23 7351   3.772   1.627   0.330  0.2571  1.0570  0.4676
  793poe     o2 7352   3.771   1.523   0.425 -0.0332  0.5937 -0.0341
  793poe    c23 7353   3.645   1.523   0.488  0.0438  0.4486  0.1214
  793poe    c23 7354   3.656   1.414   0.596 -0.5060  0.0130 -0.2570
  793poe     o2 7355   3.693   1.291   0.538  0.4229  0.5124 -0.7323
  793poe    c31 7356   3.711   1.192   0.636 -1.2300 -0.0713 -0.9911
  794poe    c31 7357   4.896   1.363   5.031  0.3177 -1.3624 -0.5131
  794poe     o2 7358   4.885   1.337   5.169 -0.2866 -0.5257 -0.3976
  794poe    c23 7359   4.757   1.351   5.227 -0.3681 -0.2768 -0.6361
  794poe    c23 7360   4.741   1.281   5.363  0.2791  0.5567 -0.1194
  794poe     o2 7361   4.816   1.306   5.480 -0.0309 -0.3444  0.2799
  794poe    c23 7362   4.754   1.228   5.580 -0.2288 -0.3493  0.1552
  794poe    c23 7363   4.812   1.255   5.720 -0.4384 -0.3905  0.2491
  794poe     o2 7364   4.948   1.267   5.687 -0.4223  0.6216  0.6297
  794poe    c23 7365   5.018   1.299   5.805  0.2814  0.2308  0.3237
  794poe    c23 7366   5.157   1.336   5.748  0.3440 -0.3641  0.0844
  794poe     o2 7367   5.135   1.410   5.630 -0.1451 -0.0470  0.3717
  794poe    c31 7368   5.236   1.506   5.610 -0.3814  0.0472 -0.3792
  795poe    c31 7369   6.044   6.002   4.893 -0.1383  0.1792  0.5790
  795poe     o2 7370   5.943   5.926   4.957 -0.3670  0.1942  0.2359
  795poe    c23 7371   5.990   5.905   5.088 -0.1409  0.0893  0.1385
  795poe    c23 7372   5.915   5.780   5.139 -0.0406 -0.2771 -0.5952
  795poe     o2 7373   5.775   5.787   5.136 -0.0469 -0.1195 -0.0787
  795poe    c23 7374   5.724   5.662   5.177 -0.3048  0.1504  0.4380
  795poe    c23 7375   5.570   5.670   5.177 -0.3146  0.0740 -0.1937
  795poe     o2 7376   5.547   5.807   5.201 -0.4515  0.0157  0.0129
  795poe    c23 7377   5.409   5.832   5.185 -0.4029 -0.0400 -0.5238
  795poe    c23 7378   5.389   5.982   5.217 -0.4181 -0.1594  0.0376
  795poe     o2 7379   5.492   6.044   5.143 -0.1151 -0.4823  0.1817
  795poe    c31 7380   5.457   6.174   5.101  0.2285 -0.3630  0.2594
  796poe    c31 7381   1.328   1.840   2.742  0.1264  0.2339 -0.4941
  796poe     o2 7382   1.221   1.846   2.650 -0.2008 -0.2089 -0.1448
  796poe    c23 7383   1.189   1.729   2.578  0.0025  0.0817 -0.7140
  796poe    c23 7384   1.055   1.734   2.502 -0.1056 -0.7627 -0.5860
  796poe     o2 7385   1.049   1.860   2.440 -0.3235 -0.2546  0.4441
  796poe    c23 7386   0.914   1.889   2.410 -0.1819  0.3136  0.3479
  796poe    c23 7387   0.911   2.043   2.403 -0.6335  0.2801 -0.1942
  796poe     o2 7388   0.975   2.094   2.518  0.1895 -0.2538 -0.4128
  796poe    c23 7389   1.001   2.232   2.505 -0.1414 -0.1650 -0.1525
  796poe    c23 7390   1.084   2.261   2.631 -0.2148  0.2943 -0.2106
  796poe     o2 7391   1.171   2.152   2.653 -0.5468  0.1118  0.2011
  796poe    c31 7392   1.250   2.184   2.765 -0.2178  0.6904 -0.1911
  797poe    c31 7393   1.246   0.149   2.449 -0.7330 -0.7543 -0.3409
  797poe     o2 7394   1.265   0.238   2.556 -0.0580 -0.8526 -0.3756
  797poe    c23 7395   1.218   0.360   2.503  0.1788 -0.6388 -0.0970
  797poe    c23 7396   1.232   0.470   2.610 -0.2105 -0.9177  0.2432
  797poe     o2 7397   1.363   0.448   2.658 -0.0788  0.0517  0.3507
  797poe    c23 7398   1.397   0.530   2.767  0.4546  0.2650  0.0269
  797poe    c23 7399   1.544   0.490   2.787  0.3731  0.0136  0.1252
  797poe     o2 7400   1.535   0.350   2.780  0.0694  0.0547 -0.3060
  797poe    c23 7401   1.665   0.297   2.790 -0.0354 -0.0903  0.3141
  797poe    c23 7402   1.655   0.149   2.747  0.1710  0.0712 -0.3040
  797poe     o2 7403   1.553   0.138   2.651 -0.4591  0.6970  0.2808
  797poe    c31 7404   1.530   0.002   2.622 -0.0865  0.6698  0.1073
  798poe    c31 7405   5.155   5.772   1.838  0.2286  0.1006 -0.4119
  798poe     o2 7406   5.091   5.894   1.867  0.5204  0.1212  0.1550
  798poe    c23 7407   5.058   5.908   2.004 -0.1586 -0.5785  0.0669
  798poe    c23 7408   4.936   6.000   2.021  0.1113 -0.2557  0.2707
  798poe     o2 7409   4.813   5.964   1.963 -0.0099  0.7928 -0.1434
  798poe    c23 7410   4.772   6.068   1.877 -0.2769  0.4649 -0.4177
  798poe    c23 7411   4.619   6.065   1.897 -0.1664 -0.0670  0.4137
  798poe     o2 7412   4.562   5.938   1.874  0.1501 -0.1954  0.3314
  798poe    c23 7413   4.429   5.939   1.826  0.5538  0.0063 -0.8212
  798poe    c23 7414   4.378   5.795   1.806 -0.4337  0.2017  0.1623
  798poe     o2 7415   4.456   5.717   1.894 -0.1471 -0.0511 -0.3142
  798poe    c31 7416   4.382   5.598   1.909 -0.3211  0.0097 -0.6769
  799poe    c31 7417   3.676   5.775   4.864  0.1754 -0.3498  0.1795
  799poe     o2 7418   3.810   5.756   4.823  0.0754 -0.0105 -0.3172
  799poe    c23 7419   3.846   5.620   4.833  0.4208  0.1141  0.1848
  799poe    c23 7420   3.979   5.592   4.761  0.1879  0.0397 -0.2232
  799poe     o2 7421   3.968   5.571   4.622  0.2429 -0.0816 -0.2094
  799poe    c23 7422   4.004   5.437   4.597  0.1457 -0.0531 -0.5039
  799poe    c23 7423   3.929   5.414   4.464 -0.3587 -0.1676 -0.1999
  799poe     o2 7424   3.982   5.516   4.383  0.2061 -0.3075 -0.0156
  799poe    c23 7425   3.937   5.505   4.250 -0.6596  0.3028  0.2155
  799poe    c23 7426   3.987   5.632   4.178  0.1685  0.0402  0.3174
  799poe     o2 7427   3.986   5.746   4.261 -0.1710  0.0904  0.2458
  799poe    c31 7428   4.029   5.856   4.184 -0.3833 -0.2872 -0.4205
  800poe    c31 7429   5.711   6.614   1.774  0.2261 -0.2349  0.4439
  800poe     o2 7430   5.576   6.651   1.794  0.2006 -0.0932  0.0226
  800poe    c23 7431   5.530   6.583   1.908 -0.6153 -0.1216 -0.3179
  800poe    c23 7432   5.377   6.596   1.894 -0.6903 -0.4733  0.1334
  800poe     o2 7433   5.352   6.725   1.843  0.2099 -0.3697 -0.0634
  800poe    c23 7434   5.215   6.740   1.813  0.3055  0.1338 -0.2678
  800poe    c23 7435   5.185   6.865   1.729 -0.3640 -0.0192 -0.2599
  800poe     o2 7436   5.276   6.859   1.622 -0.1853 -0.4392 -0.0864
  800poe    c23 7437   5.248   6.962   1.530  0.1174 -0.1298  0.1642
  800poe    c23 7438   5.367   6.970   1.433  0.1870 -0.3535  0.2299
  800poe     o2 7439   5.494   7.014   1.474  0.1459  0.1256 -0.1340
  800poe    c31 7440   5.583   7.049   1.371  0.4306  0.2787  0.1620
  801poe    c31 7441   5.557   2.262   3.920 -0.0753 -0.6066 -0.0560
  801poe     o2 7442   5.507   2.359   4.009  0.0750  0.0916 -0.7269
  801poe    c23 7443   5.497   2.486   3.947 -0.8734  0.3329 -0.1007
  801poe    c23 7444   5.484   2.592   4.057 -0.1748 -0.1501  0.4614
  801poe     o2 7445   5.384   2.547   4.146 -0.9788 -0.6078 -0.6499
  801poe    c23 7446   5.371   2.626   4.262  0.4403 -0.3740 -0.6239
  801poe    c23 7447   5.279   2.557   4.365  0.5804  0.0725 -0.1951
  801poe     o2 7448   5.337   2.429   4.380 -0.3434 -0.3941 -0.5222
  801poe    c23 7449   5.269   2.358   4.481 -0.4895 -0.3632 -0.5974
  801poe    c23 7450   5.313   2.211   4.492 -0.3226 -0.2969 -0.3568
  801poe     o2 7451   5.269   2.119   4.395  0.2079 -0.4855 -0.4226
  801poe    c31 7452   5.293   1.982   4.423  0.4516 -0.3003  0.2999
  802poe    c31 7453   4.196   0.894   3.503  0.9371  0.6696 -0.6176
  802poe     o2 7454   4.240   0.780   3.433 -0.3089 -0.0294 -0.2872
  802poe    c23 7455   4.210   0.788   3.296 -0.3099 -0.0659 -0.2890
  802poe    c23 7456   4.228   0.657   3.217 -0.0359  0.3697 -0.9588
  802poe     o2 7457   4.359   0.607   3.221 -0.1773  0.0613  0.0321
  802poe    c23 7458   4.386   0.523   3.111  0.2987  0.1081  0.1084
  802poe    c23 7459   4.539   0.517   3.097  0.2341 -0.4128 -0.4336
  802poe     o2 7460   4.591   0.498   3.227  0.6557  0.2231 -0.5046
  802poe    c23 7461   4.732   0.501   3.235  0.6056  0.7930  0.2256
  802poe    c23 7462   4.776   0.464   3.378  0.1055  0.0700  0.1962
  802poe     o2 7463   4.694   0.531   3.471 -0.3584 -0.1768 -0.0334
  802poe    c31 7464   4.738   0.504   3.602 -0.1502 -0.3769 -0.1423
  803poe    c31 7465   4.489   5.037   5.484  0.0297 -0.6573 -0.3293
  803poe     o2 7466   4.484   4.952   5.596 -0.3848 -0.1860  0.0110
  803poe    c23 7467   4.463   5.027   5.714  0.0225  0.0200 -0.0438
  803poe    c23 7468   4.454   4.931   5.834 -0.6184 -0.7749 -0.7115
  803poe     o2 7469   4.554   4.835   5.807 -0.0276 -0.3500 -0.0655
  803poe    c23 7470   4.560   4.732   5.903  0.4206 -0.4587 -0.2063
  803poe    c23 7471   4.690   4.661   5.861  0.3414 -0.5878 -0.2339
  803poe     o2 7472   4.677   4.643   5.722  0.0671 -0.3333 -0.2426
  803poe    c23 7473   4.788   4.609   5.643 -0.0630 -0.6384 -0.2946
  803poe    c23 7474   4.736   4.625   5.499 -0.4722 -0.2597 -0.1046
  803poe     o2 7475   4.686   4.756   5.481 -0.1813 -0.1444 -0.0648
  803poe    c31 7476   4.656   4.761   5.344 -0.5063  0.2921  0.0211
  804poe    c31 7477   0.040   6.409   2.218 -0.1282 -0.3223  0.1667
  804poe     o2 7478   0.092   6.313   2.129 -0.3389 -0.0674 -0.2326
  804poe    c23 7479   0.025   6.331   2.006 -0.5643 -0.1847 -0.1285
  804poe    c23 7480   0.127   6.289   1.898 -0.7323 -0.0171 -0.3543
  804poe     o2 7481   0.172   6.160   1.933  0.1869  0.4491  0.2400
  804poe    c23 7482   0.261   6.092   1.847 -0.9581 -0.3422 -0.3418
  804poe    c23 7483   0.326   5.982   1.933  0.4593  0.6837 -0.0654
  804poe     o2 7484   0.350   6.043   2.057 -0.1818  0.3792  0.2138
  804poe    c23 7485   0.410   5.956   2.150  0.1100 -0.0082 -0.3389
  804poe    c23 7486   0.394   6.019   2.289 -0.3892 -0.3867 -0.2218
  804poe     o2 7487   0.267   6.075   2.308 -0.0236  0.2472  0.4259
  804poe    c31 7488   0.266   6.124   2.440  0.6906  0.0031  0.5261
  805poe    c31 7489   2.572   0.172   6.467 -0.1815 -0.0046 -1.1887
  805poe     o2 7490   2.561   0.307   6.509 -0.3889 -0.3934  0.0621
  805poe    c23 7491   2.584   0.399   6.405  0.0193 -0.2652  0.2646
  805poe    c23 7492   2.594   0.541   6.466 -0.3154 -0.3444  0.5070
  805poe     o2 7493   2.479   0.558   6.545 -0.4170 -0.1978  0.3293
  805poe    c23 7494   2.498   0.662   6.638  0.3069 -0.4404  0.4577
  805poe    c23 7495   2.397   0.651   6.753  0.0900 -0.0262  0.3075
  805poe     o2 7496   2.397   0.510   6.752 -0.6150 -0.0284  0.0258
  805poe    c23 7497   2.316   0.463   6.857 -0.7302 -0.0686 -0.0805
  805poe    c23 7498   2.339   0.311   6.866  0.3617  0.0793 -0.1680
  805poe     o2 7499   2.367   0.256   6.739  0.4102 -0.0947 -0.0818
  805poe    c31 7500   2.355   0.115   6.740 -0.5432 -0.0190 -0.2139
  806poe    c31 7501   1.726   0.632   4.515  0.0811 -0.3583  0.3542
  806poe     o2 7502   1.719   0.704   4.636  0.1671 -0.6707  0.5468
  806poe    c23 7503   1.839   0.687   4.708  0.4842  0.1323  0.2200
  806poe    c23 7504   1.952   0.788   4.683  0.5201 -0.0154 -0.2153
  806poe     o2 7505   1.924   0.906   4.755 -0.2835 -0.0384 -0.4759
  806poe    c23 7506   1.841   1.007   4.702 -0.1865 -0.0034 -0.5625
  806poe    c23 7507   1.896   1.091   4.585  0.5677  0.4269  0.0892
  806poe     o2 7508   2.013   1.148   4.638  0.2597  0.6207  0.5701
  806poe    c23 7509   2.072   1.247   4.556  0.5794  0.0918  0.1503
  806poe    c23 7510   2.181   1.318   4.639 -0.2252  0.0669  1.2526
  806poe     o2 7511   2.246   1.226   4.723 -0.3346 -0.9442  0.2553
  806poe    c31 7512   2.352   1.294   4.787 -0.2361 -0.1823 -0.6967
  807poe    c31 7513   3.817   3.167   2.499  0.3432 -0.1725  0.0071
  807poe     o2 7514   3.786   3.210   2.368 -0.0166  0.1454  0.1928
  807poe    c23 7515   3.687   3.310   2.366 -0.1900 -0.0283  0.0190
  807poe    c23 7516   3.692   3.369   2.224  0.5544 -0.6424 -0.2174
  807poe     o2 7517   3.683   3.257   2.140 -0.1598 -0.4765 -0.3680
  807poe    c23 7518   3.667   3.291   2.004 -0.0966  0.1045 -0.2330
  807poe    c23 7519   3.639   3.159   1.929 -0.2078  0.0851 -0.1584
  807poe     o2 7520   3.742   3.064   1.947 -0.3717 -0.0607  0.0030
  807poe    c23 7521   3.706   2.946   1.879 -0.2329 -0.1357  0.0597
  807poe    c23 7522   3.822   2.849   1.908  0.1270  0.2827  0.0212
  807poe     o2 7523   3.859   2.837   2.044  0.6678  0.7639 -0.0771
  807poe    c31 7524   3.976   2.763   2.066  0.2136 -0.1359 -0.6211
  808poe    c31 7525   4.058   0.998   1.590  0.3061 -0.1219  0.8650
  808poe     o2 7526   4.138   0.921   1.677  0.2170 -0.3178  0.7743
  808poe    c23 7527   4.230   0.857   1.591  0.3124  0.6901  0.1123
  808poe    c23 7528   4.315   0.750   1.662 -0.4299  0.2305  0.3137
  808poe     o2 7529   4.229   0.696   1.760  0.2203 -0.0336  0.7449
  808poe    c23 7530   4.296   0.647   1.874  0.4860  0.8125  0.9646
  808poe    c23 7531   4.184   0.603   1.970  0.4881 -0.1415  0.5420
  808poe     o2 7532   4.096   0.713   1.964  0.4428 -0.1872  0.3834
  808poe    c23 7533   3.966   0.672   2.000 -0.0316  0.0483 -0.9796
  808poe    c23 7534   3.881   0.799   1.985  0.1837  0.3317  0.1110
  808poe     o2 7535   3.923   0.881   1.878 -0.6835  0.1086 -0.4057
  808poe    c31 7536   3.825   0.976   1.841 -0.2235  0.8075  0.1629
  809poe    c31 7537   3.226   1.670   1.189 -0.0265  0.5276  0.1763
  809poe     o2 7538   3.209   1.658   1.329 -0.1996 -0.0985  0.1017
  809poe    c23 7539   3.318   1.592   1.389  0.0343 -0.0416 -0.2582
  809poe    c23 7540   3.306   1.597   1.542  0.1663  0.3695 -0.2601
  809poe     o2 7541   3.272   1.729   1.576 -0.1158  0.2137  0.0733
  809poe    c23 7542   3.229   1.748   1.709 -0.1243  0.0594  0.0920
  809poe    c23 7543   3.150   1.880   1.713 -0.0208  0.1237  0.0311
  809poe     o2 7544   3.055   1.879   1.608  0.1689  0.4157 -0.1438
  809poe    c23 7545   3.047   2.005   1.546 -0.2489  0.6517  0.3773
  809poe    c23 7546   2.951   1.998   1.425  0.0154 -0.0823  0.2007
  809poe     o2 7547   2.992   1.891   1.343  0.1326  0.1124  0.0039
  809poe    c31 7548   2.924   1.889   1.219  0.0300 -0.1070  0.0640
  810poe    c31 7549   2.250   4.100   1.784 -0.0891  0.2221 -0.4765
  810poe     o2 7550   2.221   4.229   1.735 -0.1108  0.6358  0.5966
  810poe    c23 7551   2.299   4.326   1.799  0.4687  0.3618  0.3094
  810poe    c23 7552   2.239   4.468   1.792 -0.1391  0.1017  0.2525
  810poe     o2 7553   2.214   4.501   1.657 -0.5696  0.0506  0.3165
  810poe    c23 7554   2.160   4.631   1.657  0.4497  0.4903  0.0802
  810poe    c23 7555   2.081   4.621   1.525  0.0770 -0.1364  0.3417
  810poe     o2 7556   2.035   4.489   1.508  0.4809 -0.2417  0.0308
  810poe    c23 7557   1.917   4.471   1.432  0.2327 -0.3572  0.4373
  810poe    c23 7558   1.886   4.322   1.455  0.1898 -0.4676 -0.3209
  810poe     o2 7559   1.965   4.271   1.559  0.3465  0.0076 -0.2055
  810poe    c31 7560   1.901   4.158   1.614  0.1703  0.2996  0.2036
  811lim     li 7561   0.807   4.821   4.409 -0.9352  0.3294 -0.0863
  812lim     li 7562   3.794   1.112   5.166  0.3222 -0.8051  1.4611
  813lim     li 7563   4.146   2.468   5.168 -1.6817  0.0300  0.2503
  814lim     li 7564   0.049   3.053   2.140 -0.3455  0.0452 -0.7789
  815lim     li 7565   5.524   3.103   3.702  0.6698  0.5889 -0.1140
  816lim     li 7566   3.586   4.707   5.797  0.2048  0.0200 -1.0717
  817lim     li 7567   3.798   3.133   2.200 -0.6077  0.0759  1.9896
  818lim     li 7568   1.159   5.211   1.660  0.6324 -0.3738  0.4791
  819lim     li 7569   4.082   5.716   0.909  0.4751 -0.8496 -1.3370
  820lim     li 7570   5.411   5.692   0.678  0.7030 -1.0398  0.2151
  821lim     li 7571   4.156   4.299   0.731 -0.4124  0.7900  0.7237
  822lim     li 7572   0.757   0.999   5.761 -0.7144  0.4409 -1.0450
  823lim     li 7573   2.910   4.207   4.155 -0.5553  0.1928  0.4935
  824lim     li 7574   6.102   5.174   3.686  0.7037  0.1968 -0.2030
  825lim     li 7575   1.480   5.218   3.843 -0.7151  0.8106  0.1700
  826lim     li 7576   6.531   3.543   6.561  0.2213 -0.1751 -0.4450
  827lim     li 7577   1.806   0.238   0.280 -1.1465  0.0818 -0.3185
  828lim     li 7578   0.149   0.433   4.745 -0.2201  0.4189  0.2237
  829lim     li 7579   0.935   2.675   3.910 -0.6149  0.8099  1.0248
  830lim     li 7580   2.682   6.106   5.446  0.9649 -1.2709  0.2761
  831lim     li 7581   1.478   5.268   5.182  0.2532 -0.3503 -1.5622
  832lim     li 7582   4.638   2.620   4.138 -0.0605  0.4171  0.6899
  833lim     li 7583   2.212   2.658   4.350 -0.6561  0.2250  0.3314
  834lim     li 7584   6.099   0.648   3.193 -0.3501  0.1999 -0.0692
  835lim     li 7585   3.322   2.693   4.949  0.2106 -0.6991 -0.8604
  836lim     li 7586   0.024   1.000   6.642 -0.2767 -0.3923 -0.0296
  837lim     li 7587   3.953   6.052   5.228 -0.2859  0.3620 -0.0170
  838lim     li 7588   3.341   5.151   6.502  0.7248 -0.0874  0.9091
  839lim     li 7589   4.318   6.603   3.289 -0.6580 -0.5036  1.0070
  840lim     li 7590   1.471   1.415   1.062 -0.0302 -0.3175 -0.3740
  841lim     li 7591   0.979   1.953   4.107  0.5713  1.0319  0.0064
  842lim     li 7592   4.386   0.671   6.657  0.1098  0.3318 -0.5604
  843lim     li 7593   1.422   1.735   6.348  0.7325  0.9246 -0.4601
  844lim     li 7594   4.883   3.610   4.537 -0.6675 -0.5003  0.7516
  845lim     li 7595   6.595   3.324   5.025 -0.5168 -0.3968 -0.2937
  846lim     li 7596   5.592   6.038   2.969 -0.1157 -0.8032  1.2793
  847lim     li 7597   4.825   6.644   5.203 -0.7744  0.1457  0.6071
  848lim     li 7598   0.061   3.212   5.781 -1.0914  0.5265  0.6052
  849lim     li 7599   1.530   2.928   3.302  0.5613 -0.4287  0.2067
  850lim     li 7600   3.582   5.888   5.675  0.5979 -0.3686  0.3032
  851lim     li 7601   3.395   4.502   4.556 -0.2528  0.4960 -0.4334
  852lim     li 7602   2.909   1.310   0.742 -1.0776 -0.2539  0.5332
  853lim     li 7603   6.058   2.858   6.072  1.4071 -1.1930 -0.0012
  854lim     li 7604   5.514   5.582   2.121 -0.3917 -0.2970 -0.8552
  855lim     li 7605   1.767   3.115   3.933 -1.2009 -1.0089 -0.1993
  856lim     li 7606   3.189   2.798   1.823 -1.2227 -0.4059  0.2781
  857lim     li 7607   4.433   3.419   3.992 -0.4238  0.6381 -1.3901
  858lim     li 7608   3.778   3.353   1.333 -0.1887  0.1238  0.3173
  859lim     li 7609   5.403   2.702   6.022 -0.6660  0.0942 -0.7944
  860lim     li 7610   6.270   0.503   6.480  0.6478 -0.1208  0.2543
  861lim     li 7611   1.116   6.277   0.383  0.6789  0.7076  0.6311
  862lim     li 7612   1.532   5.718   2.306 -0.1985 -0.0912 -0.2617
  863lim     li 7613   0.219   0.374   1.032 -0.4009 -0.6111  0.5347
  864lim     li 7614   5.882   4.459   4.141 -0.5565  0.1862 -0.7898
  865lim     li 7615   1.011   5.789   3.817  0.8593 -0.1163  0.5300
  866lim     li 7616   3.554   0.733   3.068  1.3624 -0.5356  0.8643
  867lim     li 7617   5.521   0.831   0.009 -0.7896  0.0302 -0.4411
  868lim     li 7618   4.475   0.675   0.714  0.1930 -0.2085  0.6076
  869lim     li 7619   0.456   0.373   3.707  0.0585 -0.2144  0.3201
  870lim     li 7620   2.155   1.604   1.326 -1.3745 -0.1950 -0.6776
  871lim     li 7621   6.266   3.525   3.628 -0.4576 -0.2554 -1.0568
  872lim     li 7622   2.098   5.657   5.857 -0.2588  0.1800 -0.4765
  873lim     li 7623   5.675   1.070   3.569  0.4671 -0.4948 -0.7505
  874lim     li 7624   4.626   3.361   1.282  0.4110  0.7348 -0.0262
  875lim     li 7625   6.297   6.581   3.406  0.2160  0.2381 -0.6844
  876lim     li 7626   2.639   5.255   1.836  0.4459  0.0197  0.7773
  877lim     li 7627   4.696   6.322   5.760 -0.4854 -0.5713  0.6378
  878lim     li 7628   0.102   3.421   3.679  0.2743 -0.0244  0.5330
  879lim     li 7629   2.692   5.968   1.024 -0.7936  0.5225  0.7707
  880lim     li 7630   6.545   0.632   3.855 -0.1564  0.2883  0.0208
  881lim     li 7631   1.416   2.365   5.811 -0.5261 -0.6406 -0.5523
  882lim     li 7632   4.512   1.741   2.920  0.3936 -0.0120  1.1987
  883lim     li 7633   5.977   4.119   1.394  0.3125 -0.3017  0.4215
  884lim     li 7634   0.343   4.839   5.923  0.4890 -0.0514  0.5044
  885lim     li 7635   2.029   5.012   6.479 -0.4336 -0.4027 -0.0744
  886lim     li 7636   0.853   5.250   0.890 -1.5193 -0.1450 -0.7664
  887lim     li 7637   2.612   6.413   2.739  0.1889  0.4076 -0.9366
  888lim     li 7638   3.184   1.520   0.058  0.1449  0.1698 -0.0812
  889lim     li 7639   5.794   1.106   4.985 -0.5661  0.3483 -0.1149
  890lim     li 7640   4.149   5.102   6.720 -0.6245  0.5570  1.0555
  891lim     li 7641   3.565   4.948   1.838  0.5218  0.3165 -0.3174
  892lim     li 7642   5.635   3.922   2.820  0.2930 -1.1089  0.4533
  893lim     li 7643   1.653   4.627   5.676  0.2026  0.7405 -0.8020
  894lim     li 7644   3.816   2.212   2.127  0.7796  0.5216  0.5842
  895lim     li 7645   4.990   1.358   5.546 -0.8061 -1.1403 -0.1131
  896lim     li 7646   4.865   4.529   3.563 -0.2816 -0.7321  0.3131
  897lim     li 7647   6.580   1.712   5.054 -0.0387 -1.1295 -0.2360
  898lim     li 7648   1.177   3.651   4.690 -0.1032 -0.6958 -0.6676
  899lim     li 7649   0.899   2.513   4.995  0.1600  0.4269  1.2350
  900lim     li 7650   0.255   6.168   4.757 -0.1437 -1.4858  0.4984
  901lim     li 7651   4.113   0.871   1.837 -0.0929  0.0677 -0.0903
  902lim     li 7652   5.467   3.061   2.973 -0.5422 -0.6963 -0.4088
  903lim     li 7653   3.355   5.285   4.049 -0.0806 -0.3354  0.6604
  904lim     li 7654   5.389   3.882   3.671  0.5220 -0.5729  0.5262
  905lim     li 7655   3.592   1.537   6.468  0.3473 -0.0446 -1.2287
  906lim     li 7656   0.608   6.321   6.409 -0.4382 -2.1184 -0.1671
  907lim     li 7657   0.144   2.230   3.754  0.6435  0.2050 -0.2161
  908lim     li 7658   3.434   2.302   4.048 -0.4289  0.7043  0.5593
  909lim     li 7659   1.256   6.056   1.509  0.4909 -0.0604 -0.2996
  910lim     li 7660   0.452   2.294   0.660 -0.9053  0.6006 -0.5954
  911lim     li 7661   1.350   0.345   4.596 -0.0179  0.8799  0.6189
  912lim     li 7662   2.402   0.937   0.424 -0.2169  0.2357 -0.2043
  913lim     li 7663   3.178   3.459   3.020 -0.3520  0.4384 -0.6548
  914lim     li 7664   2.839   6.737   0.291  0.1962  0.2133 -0.3806
  915lim     li 7665   4.125   0.921   2.602 -0.0210  1.0609  0.1175
  916lim     li 7666   1.375   2.045   3.235  0.0128 -0.9060 -0.4430
  917lim     li 7667   2.522   4.922   5.503 -0.5969 -0.5305 -0.8035
  918lim     li 7668   2.118   2.164   5.422  0.1954  0.5517 -0.2523
  919lim     li 7669   0.892   2.863   2.450 -0.1572  0.5193 -0.4564
  920lim     li 7670   5.521   6.565   4.824  0.9048  0.2412  0.2145
  921lim     li 7671   5.109   4.887   2.202  0.4490 -0.2317  0.8059
  922lim     li 7672   2.343   0.420   4.151 -0.2190 -0.4153  0.1961
  923lim     li 7673   3.686   6.616   4.054  0.4746 -0.2337 -0.0913
  924lim     li 7674   2.274   6.526   3.633 -1.2768 -0.2493 -0.8924
  925lim     li 7675   0.943   4.952   6.118  0.2539 -0.5457 -0.3032
  926lim     li 7676   4.462   1.682   0.778  0.8243  0.8800 -0.8220
  927lim     li 7677   1.016   4.380   1.285  0.9795 -0.4724 -0.4263
  928lim     li 7678   5.640   6.624   0.172 -0.0166  2.0604  0.4162
  929lim     li 7679   2.164   3.263   5.034 -0.6199  0.7943 -0.2705
  930lim     li 7680   0.797   6.225   3.015 -0.2033  0.8183 -0.5207
  931lim     li 7681   6.478   4.055   5.240 -0.3989  0.3641 -0.7512
  932lim     li 7682   4.148   4.888   3.894  0.2617  0.5581 -0.7089
  933lim     li 7683   1.448   6.105   6.409  0.4530  0.2687  1.0937
  934lim     li 7684   6.620   0.128   1.360 -0.0035  0.5092  0.7101
  935lim     li 7685   6.575   2.842   0.035  0.1006  0.0926 -0.1440
  936lim     li 7686   1.720   4.142   4.068  0.6668 -0.6824 -0.0183
  937lim     li 7687   6.359   1.015   4.353 -0.6132 -0.3746  0.3135
  938lim     li 7688   2.282   5.444   3.369 -0.3067  0.6813  0.6350
  939lim     li 7689   1.032   3.700   5.873  0.0392  0.3609 -0.4553
  940lim     li 7690   3.143   0.364   3.773 -0.2974  0.6489  0.0401
  941lim     li 7691   5.518   1.362   2.462  0.0150 -0.9807 -0.6688
  942lim     li 7692   5.105   5.112   6.153 -0.3043 -0.3100  2.0573
  943lim     li 7693   3.318   3.170   5.581 -0.8449 -0.4960 -0.5140
  944lim     li 7694   2.132   4.882   2.743 -0.8816  0.2235  0.3052
  945lim     li 7695   0.622   2.417   5.918 -0.0747  0.1973  0.2919
  946lim     li 7696   5.082   4.712   6.655 -0.2374 -0.8632 -1.0064
  947lim     li 7697   4.081   2.111   2.824 -0.3033 -0.1225  1.3086
  948lim     li 7698   0.819   5.764   5.665 -0.6868 -1.0718 -0.4776
  949lim     li 7699   4.135   3.106   5.221  0.3795 -0.1538 -0.7216
  950lim     li 7700   6.475   2.261   0.969  0.9294  0.6188 -0.1527
  951lim     li 7701   4.243   2.729   1.448  0.2079  1.8501  0.5480
  952lim     li 7702   0.809   3.662   3.725 -1.2404 -0.4348  0.3358
  953lim     li 7703   4.970   0.291   2.142  0.3578  0.2108 -0.6815
  954lim     li 7704   5.070   3.223   2.131  0.5000 -0.1094 -0.8256
  955lim     li 7705   1.692   2.573   2.188 -0.0754  0.6571 -0.1393
  956lim     li 7706   4.972   2.370   2.239 -0.2570  0.6349  0.2039
  957lim     li 7707   2.930   1.018   4.979 -0.0095  0.0446  1.1146
  958lim     li 7708   3.983   5.679   4.457 -0.0042 -0.8482 -1.1225
  959lim     li 7709   1.001   1.696   0.633  1.2320  0.8155  0.5816
  960lim     li 7710   4.003   6.128   1.618  0.1210  0.2537  0.0790
  961lim     li 7711   5.542   2.366   0.030  0.5487 -1.6505  0.0174
  962lim     li 7712   4.710   5.651   5.240 -0.5147  0.2847  0.1652
  963lim     li 7713   5.273   1.755   6.229 -0.4043  0.1036  0.0493
  964lim     li 7714   2.250   2.319   3.245 -0.3887  0.3092  0.3062
  965lim     li 7715   4.664   3.810   0.128 -0.2488 -0.4496  0.1110
  966lim     li 7716   0.835   0.392   0.246  0.6640  0.3238 -0.3253
  967lim     li 7717   2.831   1.523   3.972  1.1863 -0.6678  0.0217
  968lim     li 7718   1.334   3.944   1.963  0.1889 -0.2841  0.2765
  969lim     li 7719   4.243   0.158   5.101  0.1213 -0.0648  0.2261
  970lim     li 7720   6.461   4.218   2.456 -0.1867 -0.9904  1.3656
  971lim     li 7721   0.510   1.016   5.088 -0.7514 -0.2689 -0.0833
  972lim     li 7722   4.747   1.324   2.374  1.2187 -0.0381 -0.2071
  973lim     li 7723   3.696   2.669   6.090 -0.1943  0.2583 -0.1432
  974lim     li 7724   5.565   1.603   4.264 -0.0977  0.6618 -0.3158
  975lim     li 7725   0.936   3.173   4.386  0.1693  0.0279  0.4137
  976lim     li 7726   6.044   3.670   5.595  0.0251 -0.0395 -0.5825
  977lim     li 7727   6.090   4.786   1.053  1.0026  1.0560 -0.4156
  978lim     li 7728   4.749   5.534   1.309  1.1205  1.2588 -0.1604
  979lim     li 7729   6.139   6.333   2.427 -0.4477 -0.4688  0.2587
  980lim     li 7730   3.663   1.081   5.762 -0.1886 -0.4767 -0.6402
  981lim     li 7731   2.243   0.288   3.439 -0.2557  0.2746 -0.8056
  982lim     li 7732   4.529   2.097   5.726  1.0421  0.3027 -0.3567
  983lim     li 7733   2.214   6.324   6.315 -0.3575 -0.2147  0.1527
  984lim     li 7734   4.529   1.358   4.742  0.6640 -0.8875  0.1441
  985lim     li 7735   6.265   2.729   3.252  0.3097  0.2734  0.3198
  986lim     li 7736   2.303   5.417   4.997  0.4559 -0.5578 -0.8938
  987lim     li 7737   6.285   1.693   1.736 -0.8011  0.3357  0.2950
  988lim     li 7738   4.272   6.613   6.222 -0.2683 -1.0205 -0.9849
  989lim     li 7739   3.855   4.248   6.014 -1.0423  0.6043  0.3331
  990lim     li 7740   4.372   5.589   6.270  0.5185  0.5533 -0.2102
  991lim     li 7741   6.296   1.791   4.421  1.1852 -0.2646 -0.4632
  992lim     li 7742   2.414   6.590   4.566 -0.6004 -0.1638 -0.3635
  993lim     li 7743   5.866   4.806   3.434 -0.7220 -1.6010  0.2208
  994lim     li 7744   4.413   4.837   1.908 -0.4336  0.7171  0.8109
  995lim     li 7745   4.994   4.793   4.777  0.0006 -1.6617  0.1189
  996lim     li 7746   6.472   6.362   6.544  0.5439  0.1381  0.1940
  997lim     li 7747   1.406   0.544   5.424  0.3744 -1.0331 -0.8640
  998lim     li 7748   1.302   4.611   4.849 -0.3210  0.1349 -0.3903
  999lim     li 7749   6.734   1.216   0.611 -0.2761 -0.0350 -0.7360
 1000lim     li 7750   4.144   4.913   0.889 -0.0424  0.2112  0.6504
 1001lim     li 7751   1.473   3.779   3.226  0.4709  0.6776 -0.2156
 1002lim     li 7752   6.396   1.649   2.683 -0.0488  0.7672  0.7387
 1003lim     li 7753   5.034   0.964   3.429 -0.1144 -0.5072 -0.5574
 1004lim     li 7754   4.524   0.550   3.379 -0.6326  0.0911  0.7674
 1005lim     li 7755   5.737   5.834   0.074  0.0597 -0.6277  0.2825
 1006lim     li 7756   5.005   0.231   6.293  0.4654 -0.4874  0.2846
 1007lim     li 7757   4.988   6.027   6.601 -0.0147 -0.0852  0.2701
 1008lim     li 7758   0.804   6.277   2.246 -0.2665  0.4685 -0.1245
 1009lim     li 7759   6.450   5.665   3.875  0.2474 -0.1031 -0.3132
 1010lim     li 7760   0.113   4.681   1.159 -0.6942  0.4492 -0.2135
 1011lim     li 7761   3.155   0.661   6.416  0.1983 -0.2853 -1.1250
 1012lim     li 7762   6.062   2.513   2.420  0.0057 -0.0797 -0.2470
 1013lim     li 7763   3.771   2.282   1.037 -0.3963 -0.7091 -0.4076
 1014lim     li 7764   5.138   2.224   3.312  0.1780  0.0140  0.0802
 1015lim     li 7765   1.350   2.215   1.462 -0.3283 -1.1795 -1.2037
 1016lim     li 7766   3.081   0.961   4.365 -0.8244 -0.0177 -0.3388
 1017lim     li 7767   5.243   6.181   1.546  0.9331  0.8825 -0.2737
 1018lim     li 7768   0.549   1.423   2.830 -0.4239 -0.0719 -0.3620
 1019lim     li 7769   0.417   4.072   0.639 -0.2427  0.4317  0.1484
 1020lim     li 7770   1.613   4.854   1.943  0.5465 -0.6632  0.5459
 1021lim     li 7771   4.865   2.418   0.906  0.0091 -0.3027 -0.2650
 1022lim     li 7772   4.310   3.071   6.395  1.4011 -0.2436 -0.4912
 1023lim     li 7773   2.733   5.492   3.944 -0.9012 -0.4883 -0.4144
 1024lim     li 7774   3.776   1.866   4.547 -0.4520  0.4590 -0.4022
 1025lim     li 7775   5.159   4.516   0.755  0.0582  0.2929  0.0123
 1026lim     li 7776   6.244   0.416   1.566  0.7766 -1.0326 -0.6594
 1027lim     li 7777   3.061   3.819   2.235  0.0376  0.0413 -0.6646
 1028lim     li 7778   2.934   5.835   0.240 -0.9536  1.5826 -1.3878
 1029lim     li 7779   4.225   6.660   2.499  0.1917 -0.7158  0.7742
 1030lim     li 7780   0.740   5.449   3.201 -0.5314 -1.1942  0.7225
 1031lim     li 7781   5.229   0.879   1.667 -0.6009  0.6562  0.0124
 1032lim     li 7782   6.301   4.790   4.702  0.9918 -0.0687  0.2873
 1033lim     li 7783   4.772   6.501   4.229  0.4153 -0.3377  0.2091
 1034lim     li 7784   3.640   0.483   0.611 -0.0165  0.7710 -0.5285
 1035lim     li 7785   0.583   2.384   0.015 -0.1204  0.0104  0.6505
 1036lim     li 7786   0.308   6.238   1.409  1.2150  0.7547 -0.0634
 1037lim     li 7787   1.076   4.071   5.396 -0.6528 -0.1317  0.7938
 1038lim     li 7788   4.094   4.122   4.041 -0.7309 -1.8051  0.4562
 1039lim     li 7789   5.929   3.781   0.551  0.6325  0.2681 -1.0097
 1040lim     li 7790   3.642   0.283   6.590  0.5706  0.2136  0.1248
 1041lim     li 7791   1.702   6.373   2.859  1.5048  0.3495 -0.6157
 1042lim     li 7792   6.566   2.360   2.040  0.0099  0.8646  0.6690
 1043lim     li 7793   2.241   3.281   6.223 -0.8405  0.3128 -0.1092
 1044lim     li 7794   3.112   5.856   1.508  0.4284 -0.3913  0.1702
 1045lim     li 7795   6.336   4.237   6.255 -0.6818 -0.5420 -0.5577
 1046lim     li 7796   4.595   1.505   3.723 -0.8265  0.0787  0.3846
 1047lim     li 7797   3.173   2.570   2.647 -0.0724  0.1088  1.3794
 1048lim     li 7798   2.299   2.504   6.355  0.1990  0.2051  1.0732
 1049lim     li 7799   4.288   4.457   4.771  0.4672  0.4127 -0.3444
 1050lim     li 7800   2.520   5.048   0.162 -0.2223 -0.5935  0.1143
 1051lim     li 7801   3.587   6.423   0.849 -1.4377 -0.1826 -0.3739
 1052lim     li 7802   3.135   0.352   5.348 -0.0363 -0.4170 -0.4310
 1053lim     li 7803   1.401   4.727   0.444  0.7424 -0.4173 -0.1866
 1054lim     li 7804   3.101   4.003   5.706  0.6140 -0.2993  1.0681
 1055lim     li 7805   1.759   5.232   1.240 -0.1328  0.3656 -0.2458
 1056lim     li 7806   6.244   5.136   1.847 -0.2185  0.4300 -0.1355
 1057lim     li 7807   6.590   0.777   5.569 -0.7940 -0.7085 -0.4666
 1058lim     li 7808   1.517   2.694   0.679 -0.1841  0.4290  1.4047
 1059lim     li 7809   2.568   1.593   1.970  0.3698 -0.1576  0.1870
 1060lim     li 7810   1.442   0.957   0.153  0.6238 -0.5901 -0.4815
 1061lim     li 7811   0.703   3.302   1.842  0.0561 -0.1266 -0.5608
 1062lim     li 7812   5.364   3.588   6.522 -0.5410  0.4619  0.5489
 1063lim     li 7813   2.877   4.618   2.314 -0.1327  0.1930  0.7438
 1064lim     li 7814   0.648   0.560   6.574 -0.6854  1.0185 -0.0831
 1065lim     li 7815   3.113   0.850   2.289 -0.3913 -0.4022 -0.4106
 1066lim     li 7816   2.710   2.586   3.503  0.4377  0.1172 -1.0951
 1067lim     li 7817   5.517   4.209   5.792 -0.4353 -0.0235  1.4808
 1068lim     li 7818   5.003   6.497   2.542  0.1585 -0.9486 -0.8607
 1069lim     li 7819   2.948   2.213   5.280 -1.6530  0.4835  0.0501
 1070lim     li 7820   5.261   3.921   1.718  0.0739 -0.4191 -0.2529
 1071lim     li 7821   5.110   1.113   1.111 -0.2434 -1.1303 -0.0647
 1072lim     li 7822   5.339   2.181   5.004 -0.3151 -0.4281 -1.0468
 1073lim     li 7823   3.110   5.433   5.016  1.1125  0.4748  0.5914
 1074lim     li 7824   0.077   0.170   5.763  1.0452 -0.5022 -0.3888
 1075lim     li 7825   1.036   1.252   4.400 -0.2079  0.8937 -0.4625
 1076lim     li 7826   1.906   1.930   4.007 -0.1856 -0.4216 -0.1092
 1077lim     li 7827   5.795   0.314   5.222 -0.7772  0.7694  0.3435
 1078lim     li 7828   2.433   5.055   1.022  0.4510  0.3397  0.3423
 1079lim     li 7829   4.022   2.109   3.705 -0.7220  0.0763  0.0265
 1080lim     li 7830   1.584   3.452   6.175 -0.6080  0.1820 -0.8105
 1081lim     li 7831   0.355   3.950   3.055  0.1752 -0.9567 -0.2129
 1082lim     li 7832   0.395   2.803   4.854 -0.0176 -0.3195  0.7808
 1083lim     li 7833   2.434   0.394   6.608  0.5891  0.2180 -0.9253
 1084lim     li 7834   2.126   4.347   1.595  0.7995 -0.4431 -0.7957
 1085lim     li 7835   2.511   4.476   5.918 -0.1421  0.8545  0.4440
 1086lim     li 7836   2.777   2.752   1.181 -0.6494  0.2368 -0.2295
 1087lim     li 7837   0.350   4.215   5.429  0.0968  0.2914  0.6101
 1088lim     li 7838   5.153   2.855   1.509 -0.3218 -0.3101  0.0676
 1089lim     li 7839   6.107   1.222   1.001  0.4411 -0.2465  1.3383
 1090lim     li 7840   6.683   5.495   6.421 -0.3550  0.6495 -0.4971
 1091lim     li 7841   2.285   4.788   4.588  0.5467 -0.2915  0.4693
 1092lim     li 7842   2.259   0.456   1.448  0.8123 -0.6612  1.4589
 1093lim     li 7843   2.343   0.251   5.198 -0.4025  0.3416 -1.0799
 1094lim     li 7844   3.954   5.677   2.548 -0.4657  0.3786 -0.0567
 1095lim     li 7845   2.166   1.891   0.547 -0.6209 -1.1597 -0.1452
 1096lim     li 7846   4.565   6.494   0.693 -0.3832  0.2394  1.0131
 1097lim     li 7847   6.081   4.997   6.064  0.5919 -0.4997  0.0081
 1098lim     li 7848   4.650   4.162   1.375  0.2128 -0.0410 -0.3370
 1099lim     li 7849   3.446   1.496   2.868  0.1036  0.0113  1.0512
 1100lim     li 7850   5.474   2.899   0.550  0.3267 -1.0621  0.4535
 1101lim     li 7851   1.637   6.497   5.678 -0.5861 -0.8106  0.0301
 1102lim     li 7852   0.270   5.389   1.268 -0.0535  0.0528  0.9948
 1103lim     li 7853   5.114   4.438   4.197  0.6837  0.1731  0.4321
 1104lim     li 7854   0.811   2.042   3.171  0.3711  1.5152  0.7005
 1105lim     li 7855   3.277   2.048   0.746 -0.3964  0.5801 -0.5860
 1106lim     li 7856   2.344   3.802   3.099  0.4706 -0.1926  0.1398
 1107lim     li 7857   1.150   0.256   3.502 -0.9279 -0.0121  0.0051
 1108lim     li 7858   0.150   0.269   2.112 -0.4617 -0.1728  0.2831
 1109lim     li 7859   1.709   4.651   3.373  0.4095 -0.0937  0.5495
 1110lim     li 7860   1.310   3.437   1.095  0.3537 -0.2709  0.7060
 1111lim     li 7861   3.201   5.360   2.644 -0.7054 -1.5392 -0.9561
 1112lim     li 7862   6.291   5.958   5.536 -0.0830  0.3872  0.5747
 1113lim     li 7863   4.947   1.317   0.214  0.5769  0.2974  0.3066
 1114lim     li 7864   2.971   0.927   1.463 -0.4862 -0.2281  0.9724
 1115lim     li 7865   0.272   0.546   2.927 -1.0757  0.0460 -0.6484
 1116lim     li 7866   4.841   1.911   1.589  0.2952 -0.7203 -0.0055
 1117lim     li 7867   2.963   3.497   0.143 -0.3308 -1.0505 -0.4978
 1118lim     li 7868   4.504   0.170   1.461  0.6849  0.7922 -0.5756
 1119lim     li 7869   3.791   0.701   4.589 -0.5837  0.7654 -0.1173
 1120lim     li 7870   2.012   1.337   5.886 -0.0671  0.5234  0.9092
 1121lim     li 7871   5.656   2.407   1.382 -0.4116  0.9475 -0.8627
 1122lim     li 7872   3.593   1.250   3.799  1.0504  0.3293  0.4908
 1123lim     li 7873   0.421   4.539   1.988  0.6742 -0.5521 -0.1500
 1124lim     li 7874   0.435   0.451   4.361  0.5744  1.0949 -0.7217
 1125lim     li 7875   5.727   1.756   0.659 -0.0815  0.6367  0.0644
 1126lim     li 7876   2.732   0.161   5.986  1.1415  0.0365 -0.2806
 1127lim     li 7877   1.968   3.877   5.561 -0.0220  0.1305 -0.4539
 1128lim     li 7878   0.978   0.260   1.374  0.0589 -0.3651  0.9037
 1129lim     li 7879   1.733   1.265   4.061 -1.2220  0.3940  0.2544
 1130lim     li 7880   1.309   5.051   2.639  0.8566 -0.7159 -1.2495
 1131lim     li 7881   2.012   1.442   6.611  0.7431  1.0985  1.1508
 1132lim     li 7882   1.601   5.640   0.665 -0.5847 -0.1813  0.4982
 1133lim     li 7883   0.828   1.034   1.398  0.1245 -0.2659 -0.1842
 1134lim     li 7884   2.756   0.865   3.104  0.2615 -0.1716  0.5507
 1135lim     li 7885   3.842   3.922   1.562 -1.0028  0.1380  0.4548
 1136lim     li 7886   5.783   5.405   4.506 -0.7936  0.7701  0.8849
 1137lim     li 7887   1.935   3.724   4.748 -0.9440 -0.9495  0.1937
 1138lim     li 7888   6.209   5.851   3.320 -0.1909  0.0634 -0.1861
 1139lim     li 7889   6.651   5.080   2.969 -0.1083  0.8111 -0.1206
 1140lim     li 7890   5.633   3.263   4.598 -0.0687 -0.9447 -0.0288
 1141lim     li 7891   6.507   3.303   2.748  0.5948 -0.3527 -0.3292
 1142lim     li 7892   1.798   5.862   4.131 -0.1119  1.5273 -0.4031
 1143lim     li 7893   1.486   0.378   6.219  0.3603 -0.2220  0.5725
 1144lim     li 7894   1.423   3.453   0.278 -0.5153  1.8813  0.9357
 1145lim     li 7895   1.147   1.169   3.351 -0.0921 -0.6384  0.4560
 1146lim     li 7896   5.419   4.799   1.496 -0.3391 -0.4327 -0.2653
 1147lim     li 7897   6.674   5.465   4.683  0.9506  0.1567 -0.8245
 1148lim     li 7898   4.769   3.284   0.584  0.0121  0.4829  0.0176
 1149lim     li 7899   3.408   4.683   3.154 -0.1619  0.4390 -0.4542
 1150lim     li 7900   2.289   3.024   0.451  0.2784 -0.4087  0.8951
 1151lim     li 7901   0.409   6.157   3.991 -0.1463  0.0777  0.6788
 1152lim     li 7902   3.881   3.384   0.487 -1.1807 -1.0310 -0.9136
 1153lim     li 7903   3.221   6.145   6.484  0.0811  0.8598 -0.4548
 1154lim     li 7904   6.369   0.347   4.299 -0.5549  1.0229 -0.0359
 1155lim     li 7905   2.731   6.595   1.896  0.1553  0.6011  0.6894
 1156lim     li 7906   5.450   6.747   1.691  0.4359 -0.9456 -0.4689
 1157lim     li 7907   1.598   5.759   3.274  0.6045  0.3823 -0.8570
 1158lim     li 7908   1.858   4.141   0.885  0.2122 -0.4824  0.1806
 1159lim     li 7909   4.688   2.040   4.552  0.6420 -0.0111  0.8680
 1160lim     li 7910   3.421   6.527   5.724  0.2108 -0.7578  0.0421
 1161lim     li 7911   6.422   2.837   0.589 -0.1767  1.1690 -0.3558
 1162lim     li 7912   0.020   4.070   4.376  1.0864 -0.2373  0.9611
 1163lim     li 7913   2.331   1.016   2.454  1.5396  0.8752  0.1385
 1164lim     li 7914   4.699   5.336   0.446 -0.7986 -1.8870  0.2827
 1165lim     li 7915   3.785   5.888   3.487 -0.0878 -1.0462 -0.1584
 1166lim     li 7916   3.018   1.827   4.655  0.8631  0.0015  0.1567
 1167lim     li 7917   0.884   4.517   3.717  0.1760  1.1441 -0.6778
 1168lim     li 7918   3.117   1.785   1.436  0.1315 -0.5603  0.2738
 1169lim     li 7919   3.585   4.201   2.584  0.8300 -0.3932 -1.0863
 1170lim     li 7920   6.221   2.103   0.027  0.0390  0.8332 -0.5687
 1171lim     li 7921   4.560   4.785   5.645  0.9562 -0.6032  0.6459
 1172lim     li 7922   3.226   3.093   0.630  0.1216  0.3787 -0.2109
 1173lim     li 7923   1.409   1.227   5.246  0.7083 -1.0523 -1.2819
 1174lim     li 7924   0.230   5.867   5.770  0.2310 -0.4919 -0.0035
 1175lim     li 7925   3.053   4.390   0.630 -0.3689  0.2093 -0.6838
 1176lim     li 7926   6.363   2.732   4.244  0.3864 -0.1690 -0.8376
 1177lim     li 7927   4.105   3.917   2.106 -0.7742  0.2044  0.5522
 1178lim     li 7928   0.802   0.443   2.574 -0.1431  0.7121 -0.2849
 1179lim     li 7929   1.478   3.253   2.281  0.9952 -1.2548  1.0593
 1180lim     li 7930   5.978   3.380   2.108 -0.3510  0.5672 -0.4443
 1181lim     li 7931   2.276   4.480   3.781 -0.3847 -0.3304  0.1311
 1182lim     li 7932   0.290   2.210   1.660 -0.1508  0.5722  0.8251
 1183lim     li 7933   0.928   0.009   5.909  0.7488 -0.4913 -0.6197
 1184lim     li 7934   2.113   0.926   6.189  0.3780 -0.0627  0.0381
 1185lim     li 7935   0.484   5.282   2.146 -0.1073 -1.0024  0.2477
 1186lim     li 7936   6.575   1.196   3.495 -0.3189  0.4614  0.5508
 1187lim     li 7937   0.347   1.668   6.453  0.3132  1.0518 -1.1232
 1188lim     li 7938   0.121   6.523   2.933  0.1936 -0.4637 -0.7067
 1189lim     li 7939   4.670   2.226   0.048  0.4479  0.1643 -1.6724
 1190lim     li 7940   2.691   3.739   4.421  0.5004 -0.5566 -1.2331
 1191lim     li 7941   5.844   2.883   5.255  0.4684 -0.3328  0.4128
 1192lim     li 7942   4.378   5.345   3.656 -0.3320 -0.0430  0.5881
 1193lim     li 7943   0.431   3.769   1.197  0.8180 -0.0639 -1.1465
 1194lim     li 7944   2.992   5.431   5.932  0.4927 -0.5264  0.3353
 1195lim     li 7945   2.810   2.829   4.619  0.2165 -0.1023 -0.6269
 1196lim     li 7946   5.296   3.778   5.183  0.7578 -0.4389 -0.7306
 1197lim     li 7947   3.156   5.985   2.418 -0.1550 -0.3374  0.6624
 1198lim     li 7948   1.483   0.835   2.068 -0.6336 -0.4788  0.1953
 1199lim     li 7949   2.962   2.087   6.053 -0.6607  0.8531 -0.4840
 1200lim     li 7950   2.567   4.075   6.438 -0.0359 -0.8366  0.4915
 1201lim     li 7951   5.458   0.751   5.949 -0.1730  0.1416  0.2281
 1202lim     li 7952   2.596   3.664   0.945  0.3313  1.1908  0.4944
 1203lim     li 7953   1.657   6.575   1.053  0.0506 -0.4561  0.1142
 1204lim     li 7954   1.890   6.099   4.933 -0.2385 -0.7165  0.4337
 1205lim     li 7955   2.808   2.174   0.199  0.4086 -0.6028  0.6346
 1206lim     li 7956   5.358   6.749   3.303  0.5666 -0.0948  0.4701
 1207lim     li 7957   6.419   5.377   1.213  0.5397  0.4364 -0.4333
 1208lim     li 7958   3.992   5.041   2.847 -0.4693 -0.4827  1.4568
 1209lim     li 7959   4.894   2.942   5.907  0.6669  0.8037  0.2404
 1210lim     li 7960   4.344   1.433   6.111 -0.1053 -0.5389  0.0492
 1211lim     li 7961   5.236   5.489   3.737 -0.3528 -0.6194  0.1811
 1212lim     li 7962   5.752   6.255   1.072 -0.8021 -0.2322  1.5784
 1213lim     li 7963   1.879   1.657   2.724 -0.4465  0.4678  0.2633
 1214lim     li 7964   2.149   4.214   2.440  1.3283  0.7102  0.7370
 1215lim     li 7965   6.427   0.020   5.085  0.3693  0.4685  0.5640
 1216lim     li 7966   0.917   1.702   5.815 -0.2070 -0.2531 -0.6797
 1217lim     li 7967   4.015   2.991   4.363 -0.0030  0.0798 -1.3499
 1218lim     li 7968   5.063   5.590   2.776  1.2292  0.5046 -0.1366
 1219lim     li 7969   1.348   2.837   5.382 -0.1342  0.1804  0.2310
 1220lim     li 7970   4.623   5.786   1.909  1.1166  0.2843 -0.5278
 1221lim     li 7971   4.268   4.103   3.182 -0.0083 -0.5895 -1.1615
 1222lim     li 7972   4.930   3.201   5.222  0.3946 -0.0951  0.6228
 1223lim     li 7973   5.487   4.833   5.331 -0.4542 -0.1991 -0.3112
 1224lim     li 7974   3.840   1.356   0.401 -0.3358 -0.3693  0.6359
 1225lim     li 7975   6.450   4.302   0.275  0.2717 -0.7735 -0.6014
 1226lim     li 7976   4.133   0.001   4.447  0.8000 -0.1558  0.3251
 1227lim     li 7977   2.931   6.246   3.452  0.7052 -0.6970 -0.3400
 1228lim     li 7978   4.633   3.285   3.201 -0.1357  0.5648  0.6178
 1229lim     li 7979   0.671   3.515   0.123  0.2739  0.4637  0.1203
 1230lim     li 7980   2.784   4.195   5.084  0.3947  0.6889  0.4762
 1231lim     li 7981   4.601   4.304   6.387  0.0470 -0.6567  0.0308
 1232lim     li 7982   3.822   5.127   5.293  1.0190  0.3010 -0.4907
 1233lim     li 7983   3.438   6.686   1.991  0.2005 -1.6450 -0.0760
 1234lim     li 7984   1.070   3.799   2.505  0.6880 -0.4202 -0.3372
 1235lim     li 7985   3.201   3.031   6.579  1.0433  1.0875 -0.8165
 1236lim     li 7986   4.333   3.116   2.580 -1.2176 -0.9100 -0.5505
 1237lim     li 7987   5.922   1.540   5.874 -0.0199 -0.0580 -0.8662
 1238lim     li 7988   6.240   6.246   1.667 -0.3429  0.6679  0.8438
 1239lim     li 7989   3.997   0.549   3.784  0.4072  0.0607  0.2934
 1240lim     li 7990   2.385   1.414   3.344  1.2011  0.3327  0.3066
 1241lim     li 7991   1.743   0.741   3.049 -1.3380 -0.4227 -0.7053
 1242lim     li 7992   5.865   0.532   0.674  0.6164 -0.0924 -0.0269
 1243lim     li 7993   1.145   2.000   2.570  0.7482 -0.0142  0.2443
 1244lim     li 7994   0.998   5.639   4.786  0.1836 -0.0152 -0.9649
 1245lim     li 7995   0.205   2.352   2.879 -0.6722  0.1650  0.5651
 1246lim     li 7996   6.568   1.224   5.760 -1.7303  0.1932 -1.5185
 1247lim     li 7997   2.126   1.101   4.768  0.2318 -0.0395 -0.4103
 1248lim     li 7998   3.985   3.811   5.176 -0.4609 -0.6592  0.5885
 1249lim     li 7999   3.627   0.330   1.559 -0.1344  0.4578  0.3960
 1250lim     li 8000   3.083   1.969   3.207  1.9441  0.3897 -0.2023
 1251lim     li 8001   3.969   1.400   1.237  0.4273  0.2915  0.0384
 1252lim     li 8002   6.561   3.241   1.297  0.5388 -1.2369 -0.1016
 1253lim     li 8003   2.136   6.019   0.353 -0.1633  0.7672 -0.9806
 1254lim     li 8004   2.741   4.535   1.307 -0.3109 -0.2656  0.2693
 1255lim     li 8005   0.540   3.072   3.260 -0.3829  0.6696  0.6662
 1256lim     li 8006   5.509   0.682   2.645 -0.2325  0.2053  0.3276
 1257lim     li 8007   3.437   3.153   3.660 -0.5562  0.1553 -0.7027
 1258lim     li 8008   4.814   4.961   2.968  0.7444 -0.1535 -0.9023
 1259lim     li 8009   6.393   5.444   2.509  1.0951 -0.1051  0.0032
 1260lim     li 8010   4.872   0.723   4.285  0.1387  0.1041  0.5591
 1261lim     li 8011   0.466   3.512   5.327  0.1733 -1.7141 -0.8011
 1262lim     li 8012   5.689   3.364   1.148 -0.9522  1.2787 -0.6368
 1263lim     li 8013   2.412   3.605   3.688  0.0118 -0.5232  0.3328
 1264lim     li 8014   6.736   0.050   0.438 -0.0238 -1.1119 -0.3888
 1265lim     li 8015   5.846   0.368   2.649  1.1170  0.1535  0.6099
 1266lim     li 8016   2.271   3.397   2.369  1.2673  1.1647  0.5488
 1267lim     li 8017   0.225   6.151   2.119  0.0822  0.7419 -1.2614
 1268lim     li 8018   2.360   5.628   2.607 -0.1526 -1.0446 -0.8504
 1269lim     li 8019   5.645   4.251   2.036 -0.4823 -1.1550 -0.8836
 1270lim     li 8020   0.255   4.774   4.954  0.0606  1.0083  0.1980
 1271lim     li 8021   0.712   5.600   0.360  1.0811 -0.7283 -0.3879
 1272lim     li 8022   6.392   2.369   4.977 -0.4841 -0.0751 -0.6792
 1273lim     li 8023   5.652   5.954   5.134 -0.5003 -0.3464  0.5141
 1274lim     li 8024   5.107   5.729   4.479  0.3957  1.5184 -0.3547
 1275lim     li 8025   5.796   4.669   2.456 -0.7851 -0.3675 -0.3842
 1276lim     li 8026   0.759   1.714   2.039  0.2146 -0.8911  0.0531
 1277lim     li 8027   2.252   2.867   2.706 -0.3271 -0.6738  0.1883
 1278lim     li 8028   0.097   1.039   1.995  1.3512 -0.3597  0.4044
 1279lim     li 8029   1.475   5.382   6.425  0.2302 -0.2448 -0.1821
 1280lim     li 8030   2.050   3.977   0.234  0.8613  0.7100  1.2142
 1281lim     li 8031   5.541   6.405   3.900 -0.4773  0.7027  0.2784
 1282lim     li 8032   6.000   3.999   4.619 -1.0619  1.0398  0.0425
 1283lim     li 8033   3.304   5.126   0.765 -0.0152  0.7217 -0.4206
 1284lim     li 8034   3.103   4.644   3.567  0.3390 -1.1335  0.4414
 1285lim     li 8035   1.521   4.327   6.477  0.3624 -0.5775  0.6849
 1286lim     li 8036   1.409   0.260   2.674  1.0745  0.1191 -0.1636
 1287lim     li 8037   5.508   0.811   4.236 -0.1090  0.4409 -0.5832
 1288lim     li 8038   1.739   0.696   1.083  0.4602  0.3357  0.6790
 1289lim     li 8039   5.565   1.712   1.632 -0.4210 -0.3763  0.1096
 1290lim     li 8040   0.066   4.003   1.803  0.0002 -0.5411  0.9175
 1291lim     li 8041   2.399   0.277   2.276 -0.2950  0.3869  0.0016
 1292lim     li 8042   5.558   2.038   2.651 -0.0801 -0.8137 -0.2595
 1293lim     li 8043   5.649   6.496   5.995  0.2173  0.9348  0.8595
 1294lim     li 8044   3.886   2.258   0.244 -0.9616  0.1983  0.2437
 1295lim     li 8045   0.430   1.793   4.641 -0.9759  1.1790  0.1482
 1296lim     li 8046   0.415   5.306   4.263 -0.2785 -0.1808 -0.2687
 1297lim     li 8047   5.616   1.792   5.299 -0.3828 -0.0219 -0.1170
 1298lim     li 8048   6.171   6.592   4.392 -0.4146 -0.2023 -0.4697
 1299lim     li 8049   2.523   2.930   5.608 -0.7053 -0.8142  0.9113
 1300lim     li 8050   6.358   4.130   3.451 -0.5500  0.7976 -0.3788
 1301lim     li 8051   5.191   0.243   0.695 -0.0633 -0.5318  0.4026
 1302lim     li 8052   3.709   5.827   0.127  0.4034  0.6833 -0.0590
 1303lim     li 8053   5.946   1.355   6.496  0.1577 -0.0581  0.2173
 1304lim     li 8054   6.735   5.341   0.311 -0.1714 -0.1969  0.1931
 1305lim     li 8055   4.955   6.195   3.499  0.3533 -0.6701 -0.2613
 1306lim     li 8056   3.472   6.660   2.843 -0.1508 -1.5748  0.3180
 1307lim     li 8057   0.202   4.808   3.603  1.0446  0.0866  0.6956
 1308lim     li 8058   1.003   6.611   5.211 -0.9915  0.2103 -0.3421
 1309lim     li 8059   5.793   5.754   6.048 -0.1611  0.0581  0.1986
 1310lim     li 8060   1.604   1.963   4.789  0.7879 -0.3519 -0.2767
 1311lim     li 8061   4.544   3.914   5.696  0.6695  0.4045  0.0478
 1312lim     li 8062   0.588   1.224   3.774  0.0218 -0.4176 -0.0621
 1313lim     li 8063   1.116   2.950   6.477 -0.6615  1.5257  0.3678
 1314lim     li 8064   2.533   2.192   2.344 -0.5325 -0.2577  0.6503
 1315lim     li 8065   4.310   0.678   5.457  0.3783 -0.3288 -0.0744
 1316lim     li 8066   3.736   2.048   5.835  0.1831 -0.6032 -0.3336
 1317lim     li 8067   2.707   5.871   4.516  1.4430  1.5120 -0.3052
 1318lim     li 8068   0.492   4.796   0.092 -0.2144  0.4808 -0.5145
 1319lim     li 8069   0.795   1.153   0.445 -1.5461  0.4658  0.2272
 1320lim     li 8070   3.469   3.858   3.386  0.1187  0.0223  1.0316
 1321lim     li 8071   6.409   2.162   5.851  0.4497  0.3391  0.1762
 1322lim     li 8072   3.881   3.002   3.188 -0.5233  0.2086 -0.0596
 1323lim     li 8073   3.331   6.433   4.571 -0.0766  0.8403 -0.9565
 1324lim     li 8074   3.911   3.453   6.235 -0.9466  0.0393  0.0595
 1325lim     li 8075   6.305   0.805   2.347 -0.1870 -0.0229  0.5812
 1326lim     li 8076   5.121   0.738   5.181 -0.3628  0.6707 -0.3930
 1327lim     li 8077   0.143   1.563   1.255  0.0310 -0.5609  0.1954
 1328lim     li 8078   2.139   2.395   1.550  0.2165 -0.6684 -0.7480
 1329lim     li 8079   2.705   1.305   5.655 -0.4140  0.0717 -0.4503
 1330lim     li 8080   0.542   3.010   0.964  0.9510 -0.1179  0.6498
 1331lim     li 8081   3.614   4.323   0.132  0.0030  0.0994 -0.4112
 1332lim     li 8082   2.867   3.672   1.593  0.5187  1.6222  0.2998
 1333lim     li 8083   1.582   1.516   1.965 -0.2811  0.4471 -0.0683
 1334lim     li 8084   2.096   5.780   1.683 -0.4928  0.2238 -0.1560
 1335lim     li 8085   2.816   0.282   0.986  0.0238  0.3446  0.0088
 1336lim     li 8086   5.446   2.356   4.173  0.3639 -1.3114 -0.3614
 1337lim     li 8087   1.718   6.730   1.884 -0.7638 -0.7205 -0.3381
 1338lim     li 8088   5.799   4.977   0.156  0.1725  0.3467  0.2603
 1339lim     li 8089   3.755   1.389   1.993 -0.8003 -0.2780  0.7263
 1340lim     li 8090   0.976   4.443   2.891  0.0835  0.8976 -0.3626
 1341lim     li 8091   6.357   6.108   0.638 -0.1536  0.4003  1.0161
 1342lim     li 8092   1.862   3.198   1.535 -0.1501  0.2988 -0.2208
 1343lim     li 8093   1.476   6.694   4.072  0.0607  0.4978  0.2258
 1344lim     li 8094   6.323   5.058   5.538 -0.0662 -0.4068  0.9552
 1345lim     li 8095   4.687   3.731   2.579 -1.4835 -0.7796  0.5640
 1346lim     li 8096   0.475   6.181   0.742 -0.1410  0.5203  0.6937
 1347lim     li 8097   1.689   2.191   0.020 -0.1886 -0.2012 -0.7119
 1348lim     li 8098   3.424   3.445   4.493 -0.0852 -0.9918 -0.2903
 1349lim     li 8099   3.641   5.363   1.424 -0.5656 -0.3039  0.9143
 1350lim     li 8100   5.980   1.881   3.373 -0.6547  0.1439 -0.9914
 1351ntf    cn1 8101   6.580   5.845   6.707 -0.0335 -0.1378 -0.0884
 1351ntf    sn2 8102   6.610   5.667   6.695 -0.0056 -0.1401  0.0083
 1351ntf    nn3 8103   6.724   5.649   6.801  0.1189  0.1653 -0.0747
 1351ntf    sn2 8104   6.711   5.654   6.957 -0.0346  0.0732 -0.0842
 1351ntf    cn1 8105   6.796   5.806   7.010  0.0313 -0.1181  0.3658
 1351ntf    fn4 8106   6.486   5.896   6.629 -0.3605  0.1539  0.4799
 1351ntf    fn4 8107   6.531   5.878   6.826 -0.5189 -0.3745 -0.2205
 1351ntf    fn4 8108   6.693   5.912   6.694 -0.0086 -0.1074  0.2605
 1351ntf    on5 8109   6.485   5.605   6.732 -0.1355  0.5684  0.7718
 1351ntf    on5 8110   6.643   5.645   6.556  0.5053 -0.7002  0.2150
 1351ntf    on5 8111   6.774   5.539   7.018  0.1784  0.0102 -0.4229
 1351ntf    on5 8112   6.578   5.668   7.012  0.2037 -0.3537  0.6249
 1351ntf    fn4 8113   6.925   5.793   6.987  0.0405  0.1647  0.2588
 1351ntf    fn4 8114   6.762   5.904   6.928  0.5155 -0.0718  0.2197
 1351ntf    fn4 8115   6.784   5.838   7.138  0.2995 -0.0337  0.3690
 1352ntf    cn1 8116   0.963   4.128   3.176 -0.3540  0.0784 -0.2167
 1352ntf    sn2 8117   1.037   4.293   3.195  0.0436 -0.1148 -0.0717
 1352ntf    nn3 8118   0.971   4.341   3.329  0.2759 -0.0370  0.0160
 1352ntf    sn2 8119   1.054   4.352   3.461  0.4315 -0.0612 -0.0798
 1352ntf    cn1 8120   1.168   4.490   3.427  0.1187  0.2394  0.0818
 1352ntf    fn4 8121   0.979   4.047   3.280  0.6528  0.1428 -0.3073
 1352ntf    fn4 8122   0.832   4.127   3.164 -0.4036  0.1866  0.3178
 1352ntf    fn4 8123   1.024   4.067   3.075  0.0611  0.3533 -0.1346
 1352ntf    on5 8124   1.179   4.266   3.192 -0.0399 -0.4851 -1.3146
 1352ntf    on5 8125   0.979   4.358   3.081  0.1076  0.6134  0.3093
 1352ntf    on5 8126   1.133   4.234   3.486  0.1503 -0.1754  0.2714
 1352ntf    on5 8127   0.974   4.403   3.569 -0.0027  0.2186 -0.5308
 1352ntf    fn4 8128   1.203   4.540   3.544 -0.0309 -1.2159  0.7726
 1352ntf    fn4 8129   1.277   4.465   3.355 -0.0850 -0.1553 -0.0933
 1352ntf    fn4 8130   1.105   4.588   3.365 -0.5794 -0.4944 -0.3858
 1353ntf    cn1 8131   5.208   5.116   4.154  0.1121  0.0925 -0.6484
 1353ntf    sn2 8132   5.128   4.955   4.125  0.0500  0.0209 -0.0952
 1353ntf    nn3 8133   4.985   5.003   4.169 -0.1257 -0.3121 -0.3018
 1353ntf    sn2 8134   4.868   4.908   4.211 -0.1265 -0.2197 -0.0947
 1353ntf    cn1 8135   4.725   5.016   4.181  0.1283  0.0790 -0.2309
 1353ntf    fn4 8136   5.183   5.190   4.047  0.2244  0.1923 -0.6063
 1353ntf    fn4 8137   5.166   5.193   4.253  0.7270 -0.1631 -0.1781
 1353ntf    fn4 8138   5.340   5.102   4.162  0.0307 -0.4218 -0.1133
 1353ntf    on5 8139   5.148   4.929   3.984 -0.1872 -0.2197 -0.0835
 1353ntf    on5 8140   5.193   4.871   4.223  0.1067  0.2393  0.0544
 1353ntf    on5 8141   4.863   4.889   4.354 -0.3428 -0.8601 -0.1808
 1353ntf    on5 8142   4.853   4.789   4.130 -0.2209 -0.1344 -0.2038
 1353ntf    fn4 8143   4.687   5.020   4.054 -0.5935  0.5178 -0.0082
 1353ntf    fn4 8144   4.614   4.989   4.247  0.3343  0.4295  0.2630
 1353ntf    fn4 8145   4.744   5.143   4.211 -0.3532  0.0641  0.1511
 1354ntf    cn1 8146   0.201   4.364   3.778  0.1666 -0.2928  0.0868
 1354ntf    sn2 8147   0.349   4.272   3.727  0.1372 -0.2709 -0.0380
 1354ntf    nn3 8148   0.467   4.370   3.759  0.0692  0.0435 -0.7430
 1354ntf    sn2 8149   0.610   4.340   3.817 -0.2091  0.2535  0.0640
 1354ntf    cn1 8150   0.580   4.389   3.989  0.4360 -0.1310  0.2870
 1354ntf    fn4 8151   0.092   4.289   3.780 -0.1778  0.1893 -0.4029
 1354ntf    fn4 8152   0.215   4.412   3.900 -0.1694 -0.1960  0.0892
 1354ntf    fn4 8153   0.174   4.470   3.703 -0.2935 -0.1001  0.5201
 1354ntf    on5 8154   0.334   4.147   3.797 -0.1482 -0.2745 -0.1028
 1354ntf    on5 8155   0.318   4.270   3.586  0.0004  0.0396 -0.0123
 1354ntf    on5 8156   0.707   4.434   3.768 -0.2570 -0.0196 -0.5738
 1354ntf    on5 8157   0.648   4.201   3.829 -0.1703  0.2278 -0.3232
 1354ntf    fn4 8158   0.504   4.303   4.053 -0.1871 -0.1597 -0.4793
 1354ntf    fn4 8159   0.691   4.401   4.061  0.3329 -0.2754  0.4695
 1354ntf    fn4 8160   0.525   4.509   4.001  0.2564 -0.2181  0.3214
 1355ntf    cn1 8161   0.977   0.169   1.998 -0.0279  0.1368  0.4117
 1355ntf    sn2 8162   1.009   0.335   2.065  0.1355  0.1877  0.2104
 1355ntf    nn3 8163   0.914   0.423   1.977 -0.0803 -0.1770  0.0747
 1355ntf    sn2 8164   0.760   0.438   2.004  0.0041  0.4392  0.2237
 1355ntf    cn1 8165   0.758   0.620   2.016 -0.1064  0.4646 -0.1575
 1355ntf    fn4 8166   1.070   0.076   2.014 -0.2647 -0.1757 -0.0259
 1355ntf    fn4 8167   0.864   0.121   2.048 -0.0762 -0.1442  0.0362
 1355ntf    fn4 8168   0.961   0.181   1.867 -0.5536  0.2587  0.4874
 1355ntf    on5 8169   0.984   0.314   2.206 -0.3454  0.1273  0.1184
 1355ntf    on5 8170   1.146   0.350   2.024  0.0727 -0.8136 -0.4011
 1355ntf    on5 8171   0.705   0.413   2.135  0.0612  0.1185  0.1858
 1355ntf    on5 8172   0.677   0.406   1.890  0.1754  0.6728  0.0332
 1355ntf    fn4 8173   0.809   0.670   2.128  0.2147  0.2584 -0.2100
 1355ntf    fn4 8174   0.835   0.669   1.920 -0.0714  0.1595 -0.2864
 1355ntf    fn4 8175   0.636   0.670   2.011 -0.3899 -0.2007  0.0636
 1356ntf    cn1 8176   5.046   4.332   2.222  0.0667  0.2171 -0.1176
 1356ntf    sn2 8177   5.167   4.257   2.336  0.0936  0.0537 -0.2544
 1356ntf    nn3 8178   5.179   4.377   2.436 -0.9802  0.1486 -0.2227
 1356ntf    sn2 8179   5.209   4.365   2.590  0.1559  0.0800 -0.4363
 1356ntf    cn1 8180   5.037   4.342   2.645  0.2371  0.5979  0.0456
 1356ntf    fn4 8181   5.094   4.445   2.173 -0.0023  0.2395 -0.1328
 1356ntf    fn4 8182   5.011   4.262   2.116 -0.0830  0.1592 -0.0312
 1356ntf    fn4 8183   4.940   4.371   2.291 -0.4684 -0.6063 -0.4587
 1356ntf    on5 8184   5.099   4.137   2.378 -0.3674  0.4391  0.1062
 1356ntf    on5 8185   5.280   4.236   2.248 -0.1534 -0.0394 -0.5538
 1356ntf    on5 8186   5.242   4.495   2.643 -0.0713  0.1470 -0.4589
 1356ntf    on5 8187   5.284   4.252   2.637 -0.7302  0.0367  0.9202
 1356ntf    fn4 8188   4.948   4.433   2.612 -0.5023 -0.0547  0.2179
 1356ntf    fn4 8189   4.980   4.230   2.604 -0.0676  0.8965 -0.3530
 1356ntf    fn4 8190   5.040   4.331   2.777  0.6599 -0.2147 -0.0262
 1357ntf    cn1 8191   5.729   1.773   0.224  0.3455 -0.1114 -0.0105
 1357ntf    sn2 8192   5.565   1.718   0.165  0.3565 -0.4729  0.2903
 1357ntf    nn3 8193   5.592   1.564   0.169  0.6918 -0.4226  0.0213
 1357ntf    sn2 8194   5.538   1.459   0.064 -0.0706 -0.2019  0.1854
 1357ntf    cn1 8195   5.414   1.361   0.153 -0.1047 -0.1248  0.2221
 1357ntf    fn4 8196   5.754   1.752   0.352  0.2243 -0.2193 -0.0033
 1357ntf    fn4 8197   5.833   1.713   0.168 -0.1582 -0.5886 -0.4644
 1357ntf    fn4 8198   5.741   1.902   0.200  0.3467 -0.1359 -0.1437
 1357ntf    on5 8199   5.479   1.761   0.273 -0.2497 -0.2468 -0.2803
 1357ntf    on5 8200   5.557   1.778   0.034 -0.1058  0.1801  0.6100
 1357ntf    on5 8201   5.641   1.360   0.045 -0.4812 -0.6019  0.0447
 1357ntf    on5 8202   5.464   1.510  -0.048 -0.1675 -0.4787  0.1243
 1357ntf    fn4 8203   5.457   1.316   0.270 -0.2562  0.5751  0.5568
 1357ntf    fn4 8204   5.300   1.426   0.172  0.0014  0.0332  0.3196
 1357ntf    fn4 8205   5.370   1.261   0.079 -0.1248 -0.2034  0.3408
 1358ntf    cn1 8206   0.562   3.419   6.478  0.1940  0.1164  0.1670
 1358ntf    sn2 8207   0.497   3.355   6.635 -0.0107  0.0124  0.0403
 1358ntf    nn3 8208   0.480   3.201   6.609 -0.6354  0.0645  0.1111
 1358ntf    sn2 8209   0.351   3.118   6.574 -0.1139 -0.5926 -0.2801
 1358ntf    cn1 8210   0.406   3.010   6.439  0.2919  0.1149 -0.6890
 1358ntf    fn4 8211   0.568   3.551   6.479 -0.3157  0.1405  0.7641
 1358ntf    fn4 8212   0.685   3.379   6.450 -0.0643 -0.2472 -0.4691
 1358ntf    fn4 8213   0.490   3.378   6.374  0.1062  0.6575  0.0141
 1358ntf    on5 8214   0.600   3.379   6.732  0.0711 -0.2880  0.0293
 1358ntf    on5 8215   0.378   3.432   6.662 -0.2218 -0.3819  0.2432
 1358ntf    on5 8216   0.242   3.191   6.516  0.1527 -0.1789 -0.2691
 1358ntf    on5 8217   0.328   3.022   6.679 -0.0387 -0.2849  0.0208
 1358ntf    fn4 8218   0.429   3.093   6.339 -0.6248  0.1710 -0.8621
 1358ntf    fn4 8219   0.515   2.940   6.463 -0.0913 -0.2370  0.0722
 1358ntf    fn4 8220   0.309   2.927   6.402  0.1209  0.0826 -0.1729
 1359ntf    cn1 8221   2.700   2.530   2.618  0.2958  0.3524  0.2539
 1359ntf    sn2 8222   2.734   2.355   2.583 -0.1160  0.4281 -0.5542
 1359ntf    nn3 8223   2.716   2.289   2.724  0.4129  0.5370 -0.4338
 1359ntf    sn2 8224   2.835   2.259   2.823 -0.0443 -0.0573 -0.0560
 1359ntf    cn1 8225   2.900   2.116   2.732 -0.0260  0.0018 -0.1362
 1359ntf    fn4 8226   2.794   2.601   2.678  0.4927  0.2438  0.0745
 1359ntf    fn4 8227   2.677   2.599   2.507 -0.2020  0.0891  0.1889
 1359ntf    fn4 8228   2.586   2.541   2.684 -0.1622  0.4286 -0.5394
 1359ntf    on5 8229   2.623   2.313   2.501 -0.5866  0.8206 -0.1275
 1359ntf    on5 8230   2.867   2.349   2.529  0.2512 -0.5080  0.4165
 1359ntf    on5 8231   2.798   2.206   2.952 -0.0233  0.8853  0.3405
 1359ntf    on5 8232   2.941   2.356   2.826 -0.1837  0.1203 -0.7259
 1359ntf    fn4 8233   2.978   2.159   2.633 -0.4037  0.2567 -0.3259
 1359ntf    fn4 8234   2.993   2.053   2.801 -0.1224  0.5006  0.4526
 1359ntf    fn4 8235   2.812   2.028   2.687  0.0805 -0.0015 -0.3401
 1360ntf    cn1 8236   2.682   0.464   0.381 -0.1262  0.5812 -0.1020
 1360ntf    sn2 8237   2.740   0.577   0.251  0.2690  0.4047 -0.0809
 1360ntf    nn3 8238   2.881   0.603   0.315  0.0622 -0.1392  0.6077
 1360ntf    sn2 8239   2.930   0.724   0.401  0.0631  0.4953 -0.2651
 1360ntf    cn1 8240   3.035   0.815   0.285  0.1655  0.4197 -0.2310
 1360ntf    fn4 8241   2.651   0.522   0.496 -0.4460 -0.2582  0.2460
 1360ntf    fn4 8242   2.574   0.398   0.341  0.3834 -0.2171 -0.1738
 1360ntf    fn4 8243   2.774   0.371   0.398 -0.3345  0.4611  0.3959
 1360ntf    on5 8244   2.742   0.501   0.128  0.3075 -0.1725  0.2708
 1360ntf    on5 8245   2.644   0.684   0.256 -0.8036 -0.5190 -0.3649
 1360ntf    on5 8246   3.015   0.684   0.511 -0.4416 -0.3378 -0.1656
 1360ntf    on5 8247   2.830   0.821   0.440 -0.4884 -0.1494 -0.0520
 1360ntf    fn4 8248   2.977   0.863   0.176  0.6058  0.0472 -0.6366
 1360ntf    fn4 8249   3.099   0.909   0.351  0.0032 -0.0623  0.6271
 1360ntf    fn4 8250   3.124   0.730   0.235  0.2582  0.7517 -0.6420
 1361ntf    cn1 8251   2.641   0.432   4.591 -0.0886  0.0413  0.0113
 1361ntf    sn2 8252   2.502   0.549   4.606 -0.2271 -0.1544  0.2545
 1361ntf    nn3 8253   2.386   0.451   4.566 -0.1743 -0.1716  0.1437
 1361ntf    sn2 8254   2.270   0.478   4.464  0.0032  0.1902  0.0356
 1361ntf    cn1 8255   2.144   0.371   4.539 -0.1484  0.4921  0.2125
 1361ntf    fn4 8256   2.628   0.331   4.675  0.2183  0.4296  0.5380
 1361ntf    fn4 8257   2.642   0.375   4.472 -0.5767 -0.4751  0.2514
 1361ntf    fn4 8258   2.761   0.484   4.610 -0.0275 -0.2810  0.5396
 1361ntf    on5 8259   2.490   0.578   4.747 -0.1055 -0.7366  0.3868
 1361ntf    on5 8260   2.542   0.655   4.517 -0.8841 -0.4617 -0.4113
 1361ntf    on5 8261   2.309   0.413   4.341 -0.3043  0.1317 -0.0320
 1361ntf    on5 8262   2.219   0.613   4.469 -0.0832  0.1397  0.4877
 1361ntf    fn4 8263   2.085   0.423   4.646 -0.0208 -0.0366  0.5421
 1361ntf    fn4 8264   2.048   0.352   4.450 -0.1363 -0.5340  0.3991
 1361ntf    fn4 8265   2.177   0.248   4.574 -0.3411  0.4692  0.3177
 1362ntf    cn1 8266   4.013   1.786   5.156 -0.1573  0.3853  0.4126
 1362ntf    sn2 8267   4.118   1.785   5.304  0.2765 -0.0858  0.1048
 1362ntf    nn3 8268   4.121   1.633   5.340 -0.1426 -0.1584 -0.1712
 1362ntf    sn2 8269   4.165   1.563   5.473 -0.3703 -0.0310 -0.0272
 1362ntf    cn1 8270   4.299   1.456   5.412 -0.0357  0.1938  0.3115
 1362ntf    fn4 8271   4.063   1.694   5.074  0.4586  0.4529  0.7066
 1362ntf    fn4 8272   3.887   1.755   5.183 -0.1917  0.3419  0.2059
 1362ntf    fn4 8273   4.011   1.903   5.094 -0.1865  0.3016  0.2538
 1362ntf    on5 8274   4.240   1.845   5.254 -0.3268  0.7451 -0.4030
 1362ntf    on5 8275   4.046   1.868   5.397  0.0907 -0.5023  0.3331
 1362ntf    on5 8276   4.062   1.472   5.520  0.3544 -0.7004  0.2964
 1362ntf    on5 8277   4.230   1.652   5.566  0.0407 -0.6775  0.3127
 1362ntf    fn4 8278   4.256   1.360   5.332  0.0135  0.2821  0.1780
 1362ntf    fn4 8279   4.382   1.529   5.340 -0.3398  0.5115  0.2839
 1362ntf    fn4 8280   4.368   1.404   5.513  0.3627  0.0356 -0.0390
 1363ntf    cn1 8281   4.631   0.329   5.110 -0.3943  0.0466 -0.2262
 1363ntf    sn2 8282   4.545   0.213   5.220  0.0179 -0.1008 -0.0595
 1363ntf    nn3 8283   4.602   0.266   5.356  0.1417 -0.3992  0.0060
 1363ntf    sn2 8284   4.543   0.366   5.461 -0.2506 -0.4122 -0.2006
 1363ntf    cn1 8285   4.526   0.243   5.595 -0.0816 -0.1705  0.0426
 1363ntf    fn4 8286   4.603   0.453   5.147 -0.6693  0.0164 -0.3365
 1363ntf    fn4 8287   4.762   0.312   5.119 -0.4269  0.1502  0.5388
 1363ntf    fn4 8288   4.594   0.314   4.984  0.9121  0.2019 -0.6497
 1363ntf    on5 8289   4.405   0.238   5.196  0.1114  0.6883  0.1984
 1363ntf    on5 8290   4.604   0.090   5.171  0.5102  0.1143 -0.0170
 1363ntf    on5 8291   4.408   0.413   5.444 -0.1387 -0.0468 -0.0893
 1363ntf    on5 8292   4.646   0.449   5.518 -0.6745  0.3740 -0.5645
 1363ntf    fn4 8293   4.643   0.192   5.630  0.0963  0.3620  0.2328
 1363ntf    fn4 8294   4.474   0.299   5.703 -0.4085 -0.4328  0.0208
 1363ntf    fn4 8295   4.451   0.140   5.559  0.1946 -0.3197 -0.1021
 1364ntf    cn1 8296   6.203   3.574   1.587  0.4916 -0.0510 -0.0554
 1364ntf    sn2 8297   6.293   3.443   1.676  0.2340 -0.0198  0.2498
 1364ntf    nn3 8298   6.245   3.318   1.594  0.1810  0.2139 -0.0770
 1364ntf    sn2 8299   6.325   3.195   1.537  0.2494  0.1599  0.1356
 1364ntf    cn1 8300   6.191   3.072   1.529  0.0650  0.3897 -0.3072
 1364ntf    fn4 8301   6.074   3.549   1.578  0.4328  0.0923  0.4166
 1364ntf    fn4 8302   6.214   3.696   1.635 -0.0725  0.0107 -0.0772
 1364ntf    fn4 8303   6.237   3.572   1.459  0.2512  0.5394 -0.1314
 1364ntf    on5 8304   6.426   3.495   1.660  0.2002  0.0032  0.0303
 1364ntf    on5 8305   6.232   3.448   1.807 -0.0066 -0.0992  0.1417
 1364ntf    on5 8306   6.419   3.137   1.630  0.0241 -0.1750  0.1580
 1364ntf    on5 8307   6.372   3.218   1.402  0.5645  0.3455  0.2747
 1364ntf    fn4 8308   6.249   2.953   1.534 -0.3434  0.2061  0.0793
 1364ntf    fn4 8309   6.120   3.090   1.638  0.1573 -0.0031 -0.1807
 1364ntf    fn4 8310   6.116   3.084   1.420 -0.6847 -0.3279  0.1276
 1365ntf    cn1 8311   0.558   5.861   1.311 -0.6941 -0.1865 -0.3026
 1365ntf    sn2 8312   0.670   5.759   1.412 -0.4687  0.1302 -0.2286
 1365ntf    nn3 8313   0.696   5.857   1.531 -0.0301 -0.2711  0.0057
 1365ntf    sn2 8314   0.605   5.877   1.658  0.0826 -0.1394  0.0660
 1365ntf    cn1 8315   0.668   5.761   1.783 -0.2538 -0.0487  0.3195
 1365ntf    fn4 8316   0.617   5.975   1.277  0.3539 -0.6015  0.0678
 1365ntf    fn4 8317   0.509   5.802   1.203 -0.7011 -0.1798 -0.3028
 1365ntf    fn4 8318   0.451   5.900   1.378 -0.3839  0.4940 -0.1869
 1365ntf    on5 8319   0.598   5.641   1.454  0.4966 -0.3178  0.1889
 1365ntf    on5 8320   0.785   5.740   1.326 -0.3283  0.3093 -0.0796
 1365ntf    on5 8321   0.467   5.837   1.644  0.1291 -0.2020 -0.2252
 1365ntf    on5 8322   0.625   6.004   1.723 -0.3344 -0.1495  0.2153
 1365ntf    fn4 8323   0.618   5.797   1.900 -0.1868  0.5298  0.1732
 1365ntf    fn4 8324   0.658   5.631   1.761 -0.3029  0.1373 -0.7902
 1365ntf    fn4 8325   0.797   5.786   1.798 -0.2688  0.4940 -0.3893
 1366ntf    cn1 8326   4.356   1.435   2.317 -0.1609  0.1787 -0.0451
 1366ntf    sn2 8327   4.392   1.282   2.408  0.2232  0.4212  0.2095
 1366ntf    nn3 8328   4.338   1.179   2.303  0.0419  0.0573  0.6581
 1366ntf    sn2 8329   4.296   1.029   2.322  0.1123 -0.0068  0.3064
 1366ntf    cn1 8330   4.460   0.952   2.306  0.0853 -0.0182  0.0787
 1366ntf    fn4 8331   4.229   1.469   2.326 -0.2425 -0.2165  0.3640
 1366ntf    fn4 8332   4.415   1.541   2.370 -0.6222  0.2233  0.3893
 1366ntf    fn4 8333   4.383   1.424   2.188  0.2788  0.5409  0.0109
 1366ntf    on5 8334   4.536   1.287   2.421  0.2452  0.3443 -0.0134
 1366ntf    on5 8335   4.298   1.294   2.517  0.5355 -0.1142  0.5417
 1366ntf    on5 8336   4.217   0.968   2.218  0.8953 -0.1548 -0.2102
 1366ntf    on5 8337   4.252   0.996   2.455 -0.3188 -0.0283  0.1601
 1366ntf    fn4 8338   4.459   0.831   2.361 -0.2916  0.0172  0.1514
 1366ntf    fn4 8339   4.500   0.935   2.181 -0.5224  0.4880 -0.1881
 1366ntf    fn4 8340   4.554   1.029   2.359  0.2528 -0.2653  0.1425
 1367ntf    cn1 8341   5.663   4.752   0.908 -0.2668 -0.1765  0.0557
 1367ntf    sn2 8342   5.798   4.648   0.971 -0.0795  0.0678  0.0594
 1367ntf    nn3 8343   5.850   4.578   0.841 -0.0522  0.2765 -0.0417
 1367ntf    sn2 8344   5.847   4.429   0.791 -0.0649  0.2955 -0.0975
 1367ntf    cn1 8345   6.002   4.369   0.864  0.0276  0.1901 -0.3774
 1367ntf    fn4 8346   5.583   4.678   0.832 -0.2437  0.1338 -0.2743
 1367ntf    fn4 8347   5.586   4.808   1.000 -0.1144 -0.0993  0.1375
 1367ntf    fn4 8348   5.707   4.842   0.822  0.5188  0.5770  1.2080
 1367ntf    on5 8349   5.895   4.741   1.025 -0.4982  0.1126  0.7493
 1367ntf    on5 8350   5.739   4.570   1.077 -0.6222  0.1259 -0.2013
 1367ntf    on5 8351   5.869   4.419   0.649 -0.4048  0.1001 -0.1362
 1367ntf    on5 8352   5.747   4.347   0.855  0.4569 -0.3363 -0.0821
 1367ntf    fn4 8353   6.010   4.391   0.995  0.3040 -0.1173 -0.3406
 1367ntf    fn4 8354   6.011   4.238   0.848 -0.1443  0.1273  0.0281
 1367ntf    fn4 8355   6.107   4.422   0.805  0.1547  0.2394 -0.1099
 1368ntf    cn1 8356   1.985   6.150   0.996  0.0693  0.0548  0.3034
 1368ntf    sn2 8357   2.007   5.990   1.078 -0.1399 -0.0923  0.0749
 1368ntf    nn3 8358   2.016   5.896   0.953  0.6242 -0.1833  0.1886
 1368ntf    sn2 8359   2.037   5.740   0.948 -0.0251 -0.2738  0.1153
 1368ntf    cn1 8360   2.219   5.730   0.951 -0.0202 -0.2989 -0.1885
 1368ntf    fn4 8361   2.020   6.249   1.076  0.0492  0.6122 -0.3636
 1368ntf    fn4 8362   2.038   6.167   0.876 -0.6059  0.4815  0.0629
 1368ntf    fn4 8363   1.857   6.165   0.966  0.3974  0.6822 -0.8547
 1368ntf    on5 8364   2.129   5.999   1.155 -0.1372 -0.5170  0.1234
 1368ntf    on5 8365   1.890   5.973   1.160 -0.1778  0.3090  0.1053
 1368ntf    on5 8366   2.004   5.686   0.818 -0.4869  0.3168 -0.0162
 1368ntf    on5 8367   1.984   5.672   1.063 -0.1097 -0.0395  0.2161
 1368ntf    fn4 8368   2.268   5.818   0.866 -0.3982  0.1445  0.0492
 1368ntf    fn4 8369   2.261   5.752   1.074  0.1276 -0.1547 -0.2653
 1368ntf    fn4 8370   2.256   5.610   0.909  0.3114 -0.1616 -0.2875
 1369ntf    cn1 8371   6.476   6.141   4.422 -0.3551  0.1159  0.1524
 1369ntf    sn2 8372   6.417   5.979   4.478  0.3722 -0.2170 -0.0414
 1369ntf    nn3 8373   6.385   6.004   4.629 -0.2013  0.3076 -0.2466
 1369ntf    sn2 8374   6.465   5.960   4.757 -0.5001 -0.1439 -0.2158
 1369ntf    cn1 8375   6.419   6.113   4.843 -0.2268 -0.1592 -0.0404
 1369ntf    fn4 8376   6.538   6.140   4.305  0.2215  0.0488  0.4567
 1369ntf    fn4 8377   6.385   6.237   4.419 -0.5094 -0.0391 -0.1484
 1369ntf    fn4 8378   6.563   6.187   4.511 -0.2035  0.3185 -0.0989
 1369ntf    on5 8379   6.296   5.955   4.403  0.0344  0.3909  0.3085
 1369ntf    on5 8380   6.530   5.894   4.448  0.2886 -0.2779 -0.1869
 1369ntf    on5 8381   6.608   5.971   4.740 -0.4573 -0.6750 -0.2171
 1369ntf    on5 8382   6.425   5.846   4.836 -0.8058  0.5581  0.6574
 1369ntf    fn4 8383   6.421   6.228   4.778  0.6332  0.1964  0.5992
 1369ntf    fn4 8384   6.295   6.098   4.889 -0.1674  0.0032  0.1736
 1369ntf    fn4 8385   6.493   6.131   4.951 -0.5250 -0.2987  0.1887
 1370ntf    cn1 8386   5.707   3.494   5.832 -0.5201  0.0116  0.0171
 1370ntf    sn2 8387   5.867   3.574   5.863 -0.2710 -0.4789  0.0067
 1370ntf    nn3 8388   5.935   3.455   5.940 -0.1960 -0.6660 -0.3462
 1370ntf    sn2 8389   5.971   3.425   6.090 -0.2761 -0.0601 -0.1999
 1370ntf    cn1 8390   6.122   3.525   6.106 -0.5240  0.3538 -0.4418
 1370ntf    fn4 8391   5.722   3.394   5.747  0.0442 -0.1281  0.2762
 1370ntf    fn4 8392   5.657   3.440   5.942  0.0590  0.0180  0.2905
 1370ntf    fn4 8393   5.610   3.572   5.786 -0.1932  0.4465  0.0545
 1370ntf    on5 8394   5.927   3.599   5.734 -0.3648 -0.2926 -0.0021
 1370ntf    on5 8395   5.834   3.692   5.939 -0.2215 -0.0284 -0.6610
 1370ntf    on5 8396   6.015   3.289   6.111  0.1034  0.0220 -0.4490
 1370ntf    on5 8397   5.888   3.479   6.195  0.0713 -0.9501  0.5484
 1370ntf    fn4 8398   6.118   3.631   6.027 -0.3044  0.3810 -0.4154
 1370ntf    fn4 8399   6.143   3.577   6.226 -0.5602 -0.2355 -0.1757
 1370ntf    fn4 8400   6.232   3.461   6.073 -0.5392  0.0428  0.0893
 1371ntf    cn1 8401   5.784   3.091   2.643 -0.5429 -0.3211  0.1540
 1371ntf    sn2 8402   5.637   2.984   2.657 -0.5493 -0.3236  0.0685
 1371ntf    nn3 8403   5.700   2.842   2.641  0.1538  0.0215 -0.2769
 1371ntf    sn2 8404   5.730   2.740   2.757  0.1465  0.4622  0.1114
 1371ntf    cn1 8405   5.607   2.614   2.712  0.2870  0.2579  0.3005
 1371ntf    fn4 8406   5.755   3.218   2.663  0.1970 -0.1873  0.3849
 1371ntf    fn4 8407   5.875   3.059   2.734  0.0989  0.7997 -0.0848
 1371ntf    fn4 8408   5.839   3.081   2.523  0.1220 -0.2149  0.4496
 1371ntf    on5 8409   5.592   3.021   2.789 -0.2707 -0.3521  0.1721
 1371ntf    on5 8410   5.557   3.018   2.542 -0.4556  0.4137  0.2137
 1371ntf    on5 8411   5.680   2.769   2.890  0.0660 -0.1523  0.2166
 1371ntf    on5 8412   5.857   2.672   2.749 -0.2796 -0.3728  0.3934
 1371ntf    fn4 8413   5.482   2.654   2.723 -0.0802 -0.7368 -0.1780
 1371ntf    fn4 8414   5.615   2.572   2.587 -0.2367 -0.2711  0.4429
 1371ntf    fn4 8415   5.622   2.498   2.775  0.1496 -0.0805 -0.2846
 1372ntf    cn1 8416   4.898   6.137   0.997 -0.2315  0.0727 -0.3016
 1372ntf    sn2 8417   4.945   6.140   0.822 -0.0547 -0.3889 -0.2631
 1372ntf    nn3 8418   4.884   6.006   0.769 -0.0745 -0.3785 -0.2675
 1372ntf    sn2 8419   4.762   5.987   0.672 -0.1519 -0.1619 -0.2119
 1372ntf    cn1 8420   4.855   5.966   0.517  0.0890 -0.0323 -0.0856
 1372ntf    fn4 8421   4.985   6.066   1.066 -0.3424  0.3848  0.1633
 1372ntf    fn4 8422   4.891   6.261   1.042  0.2352 -0.0776  0.1853
 1372ntf    fn4 8423   4.784   6.073   1.018 -0.1307 -0.1013 -0.2901
 1372ntf    on5 8424   4.895   6.271   0.787  0.6436  0.0603  0.3844
 1372ntf    on5 8425   5.089   6.130   0.831 -0.0529 -0.0069  0.1672
 1372ntf    on5 8426   4.689   6.108   0.644 -0.3452 -0.2577 -0.1218
 1372ntf    on5 8427   4.690   5.864   0.689 -0.8890  0.3154  0.1821
 1372ntf    fn4 8428   4.775   5.969   0.412 -0.2186  0.0960  0.1520
 1372ntf    fn4 8429   4.938   6.066   0.494 -0.0100  0.2229  0.6275
 1372ntf    fn4 8430   4.923   5.852   0.515 -0.2325 -0.2228 -0.3055
 1373ntf    cn1 8431   1.628   4.715   4.239  0.1096  0.0437  0.0762
 1373ntf    sn2 8432   1.698   4.758   4.078  0.1097 -0.2788 -0.0105
 1373ntf    nn3 8433   1.586   4.860   4.035  0.1452 -0.1527  0.1969
 1373ntf    sn2 8434   1.457   4.841   3.948  0.1659  0.3981  0.0431
 1373ntf    cn1 8435   1.332   4.879   4.073 -0.0966 -0.1254 -0.0595
 1373ntf    fn4 8436   1.558   4.816   4.291 -0.5810 -0.2017 -0.3655
 1373ntf    fn4 8437   1.538   4.619   4.228 -0.1496  0.3056 -0.1232
 1373ntf    fn4 8438   1.715   4.678   4.332 -0.0600 -0.3079  0.0956
 1373ntf    on5 8439   1.820   4.829   4.109  0.2582 -0.3028 -0.5237
 1373ntf    on5 8440   1.711   4.631   4.010  0.4076 -0.2152 -0.0769
 1373ntf    on5 8441   1.418   4.708   3.909 -0.6098  0.7326 -0.3303
 1373ntf    on5 8442   1.438   4.949   3.854  0.7431  0.4287 -0.0460
 1373ntf    fn4 8443   1.358   4.992   4.137 -0.2427  0.0626 -0.3324
 1373ntf    fn4 8444   1.211   4.891   4.021 -0.3190  0.4512  0.5727
 1373ntf    fn4 8445   1.328   4.789   4.170  0.2468  0.1596  0.2203
 1374ntf    cn1 8446   5.251   2.240   0.327 -0.1257  0.0898 -0.0532
 1374ntf    sn2 8447   5.314   2.409   0.306  0.2122 -0.0128  0.1307
 1374ntf    nn3 8448   5.356   2.447   0.453 -0.1367 -0.4415  0.3421
 1374ntf    sn2 8449   5.494   2.477   0.521 -0.1823  0.1430  0.1843
 1374ntf    cn1 8450   5.460   2.443   0.696  0.1748 -0.1261  0.2026
 1374ntf    fn4 8451   5.244   2.165   0.219 -0.5977 -0.4396  0.3375
 1374ntf    fn4 8452   5.327   2.173   0.412  0.2564 -0.0833 -0.5320
 1374ntf    fn4 8453   5.129   2.233   0.378 -0.2470  0.2046 -0.3271
 1374ntf    on5 8454   5.410   2.400   0.199 -0.1905  0.3866 -0.2715
 1374ntf    on5 8455   5.190   2.476   0.277  0.3267  0.0842 -0.1305
 1374ntf    on5 8456   5.523   2.618   0.517  0.2922  0.0499  0.2326
 1374ntf    on5 8457   5.598   2.381   0.490 -0.3145  0.1423 -0.2672
 1374ntf    fn4 8458   5.384   2.538   0.748 -0.2964 -0.2669 -0.2324
 1374ntf    fn4 8459   5.395   2.328   0.699 -0.1740  0.0449 -0.6872
 1374ntf    fn4 8460   5.565   2.418   0.773  0.1552 -1.0862 -0.0739
 1375ntf    cn1 8461   0.701   1.982   2.768  0.0293  0.3763  0.0342
 1375ntf    sn2 8462   0.835   1.896   2.856 -0.1713  0.0479  0.0221
 1375ntf    nn3 8463   0.805   1.743   2.839  0.3323 -0.0657  0.1156
 1375ntf    sn2 8464   0.814   1.621   2.937 -0.1900 -0.0342  0.2083
 1375ntf    cn1 8465   0.980   1.558   2.899 -0.1255  0.1381  0.2051
 1375ntf    fn4 8466   0.708   2.113   2.787  0.3545  0.3451  0.1278
 1375ntf    fn4 8467   0.692   1.969   2.637  0.6659 -0.0572  0.0309
 1375ntf    fn4 8468   0.582   1.939   2.808  0.2277 -0.3829 -0.1645
 1375ntf    on5 8469   0.957   1.930   2.786 -0.0923 -0.1081  0.0820
 1375ntf    on5 8470   0.822   1.955   2.986  0.4270 -0.2571  0.2250
 1375ntf    on5 8471   0.725   1.512   2.903 -0.2065  0.0140  0.0958
 1375ntf    on5 8472   0.819   1.655   3.077 -0.2362  0.1311  0.1703
 1375ntf    fn4 8473   1.079   1.644   2.919  0.5136 -0.4975 -0.1838
 1375ntf    fn4 8474   1.004   1.450   2.973 -0.4848  0.2941  0.5517
 1375ntf    fn4 8475   0.989   1.519   2.773  0.2119  0.1299  0.2287
 1376ntf    cn1 8476   3.888   2.836   0.756  0.3261  0.0781  0.1016
 1376ntf    sn2 8477   3.860   2.909   0.920 -0.1929  0.0177  0.0424
 1376ntf    nn3 8478   3.968   3.023   0.921 -0.0519 -0.1141 -0.1547
 1376ntf    sn2 8479   3.948   3.165   0.986 -0.1709 -0.1048 -0.2102
 1376ntf    cn1 8480   4.119   3.227   0.975 -0.1087 -0.2218  0.1012
 1376ntf    fn4 8481   4.012   2.789   0.749  0.2877 -0.0198  0.0785
 1376ntf    fn4 8482   3.810   2.731   0.737  0.3650  0.1881 -0.6676
 1376ntf    fn4 8483   3.877   2.918   0.654  0.0633 -0.2645 -0.1500
 1376ntf    on5 8484   3.725   2.956   0.905 -0.1324  0.0419 -0.4517
 1376ntf    on5 8485   3.880   2.794   1.005  0.2175  0.0435 -0.0151
 1376ntf    on5 8486   3.917   3.170   1.126 -0.0744  0.4915 -0.2078
 1376ntf    on5 8487   3.881   3.256   0.896 -0.1581  0.1983  0.0870
 1376ntf    fn4 8488   4.196   3.160   1.059 -0.0171 -0.1114  0.1043
 1376ntf    fn4 8489   4.176   3.226   0.856 -0.1335 -0.1522  0.0893
 1376ntf    fn4 8490   4.124   3.349   1.026 -0.0545 -0.3568  0.4217
 1377ntf    cn1 8491   1.097   2.288   5.573 -0.0062  0.0321  0.1973
 1377ntf    sn2 8492   1.190   2.443   5.578  0.2362 -0.1055 -0.0224
 1377ntf    nn3 8493   1.274   2.440   5.445  0.3578  0.3831  0.0404
 1377ntf    sn2 8494   1.253   2.510   5.306  0.1048 -0.2574 -0.2452
 1377ntf    cn1 8495   1.389   2.444   5.205  0.1305  0.0328 -0.3993
 1377ntf    fn4 8496   1.161   2.176   5.543 -0.2143 -0.0057 -0.1157
 1377ntf    fn4 8497   1.024   2.279   5.683 -0.1984 -0.0686  0.0640
 1377ntf    fn4 8498   1.008   2.306   5.477 -0.4807  0.2656  0.6757
 1377ntf    on5 8499   1.090   2.547   5.583  0.3515  0.0115 -0.1264
 1377ntf    on5 8500   1.274   2.426   5.694 -0.2220 -0.3718  0.2697
 1377ntf    on5 8501   1.271   2.652   5.319 -0.0010 -0.2754  0.1331
 1377ntf    on5 8502   1.138   2.468   5.230 -0.2674  0.4370 -0.0680
 1377ntf    fn4 8503   1.509   2.448   5.260  0.0682 -0.0242 -0.2586
 1377ntf    fn4 8504   1.368   2.316   5.178  0.1062 -0.0770  0.1357
 1377ntf    fn4 8505   1.397   2.514   5.093 -0.3134  0.6175 -0.0762
 1378ntf    cn1 8506   1.243   5.573   1.246 -0.1436 -0.1784  0.2383
 1378ntf    sn2 8507   1.170   5.437   1.151 -0.0964 -0.1161  0.1124
 1378ntf    nn3 8508   1.300   5.350   1.140 -0.2406 -0.3389  0.1494
 1378ntf    sn2 8509   1.346   5.242   1.244 -0.0601 -0.5418 -0.1402
 1378ntf    cn1 8510   1.251   5.090   1.208 -0.2924 -0.3783 -0.2224
 1378ntf    fn4 8511   1.339   5.640   1.185 -0.7476  0.0966 -0.4255
 1378ntf    fn4 8512   1.144   5.658   1.273 -0.2199 -0.2947  0.3248
 1378ntf    fn4 8513   1.292   5.530   1.361  0.3605  0.3939  0.2421
 1378ntf    on5 8514   1.061   5.371   1.219 -0.2567 -0.1116 -0.1366
 1378ntf    on5 8515   1.144   5.501   1.024  0.7302 -0.2381 -0.1225
 1378ntf    on5 8516   1.316   5.270   1.382  0.3606 -0.6377 -0.0303
 1378ntf    on5 8517   1.484   5.209   1.219 -0.0898 -0.4827 -0.3824
 1378ntf    fn4 8518   1.122   5.106   1.231 -0.0978 -0.0077  0.6505
 1378ntf    fn4 8519   1.273   5.045   1.086 -0.3479  0.1376 -0.4238
 1378ntf    fn4 8520   1.293   4.994   1.288  0.1084 -0.4237 -0.4839
 1379ntf    cn1 8521   1.616   2.692   1.330 -0.4036 -0.0740  0.1457
 1379ntf    sn2 8522   1.777   2.607   1.342 -0.5569 -0.3144  0.5268
 1379ntf    nn3 8523   1.762   2.528   1.477 -0.0476 -0.3046  0.5918
 1379ntf    sn2 8524   1.861   2.510   1.597  0.2132 -0.0496  0.4159
 1379ntf    cn1 8525   1.817   2.658   1.694  0.1286  0.0265  0.2610
 1379ntf    fn4 8526   1.593   2.772   1.433 -0.7920 -0.2042  0.1582
 1379ntf    fn4 8527   1.598   2.761   1.219  0.1247 -0.1886 -0.0152
 1379ntf    fn4 8528   1.516   2.606   1.326 -0.0538 -0.4608 -0.4211
 1379ntf    on5 8529   1.776   2.520   1.227 -0.8304  0.1925  0.1419
 1379ntf    on5 8530   1.874   2.713   1.335 -0.2815 -0.5771  0.3514
 1379ntf    on5 8531   2.000   2.535   1.570  0.1260  0.0378  0.0458
 1379ntf    on5 8532   1.821   2.402   1.685 -0.6388 -0.1476 -0.0789
 1379ntf    fn4 8533   1.784   2.756   1.612  0.3393 -0.1829 -0.0782
 1379ntf    fn4 8534   1.704   2.644   1.761 -0.0599  0.1642 -0.0260
 1379ntf    fn4 8535   1.910   2.696   1.780  0.1358 -0.5430  0.5096
 1380ntf    cn1 8536   3.106   0.878   5.398 -0.0929 -0.0797  0.1701
 1380ntf    sn2 8537   3.112   0.836   5.221 -0.2416 -0.0164  0.1506
 1380ntf    nn3 8538   3.263   0.860   5.188 -0.3786 -0.2801 -0.6678
 1380ntf    sn2 8539   3.341   0.822   5.057  0.3342  0.0609 -0.3502
 1380ntf    cn1 8540   3.429   0.674   5.115  0.2793  0.1220 -0.1114
 1380ntf    fn4 8541   3.118   1.008   5.416  0.1526  0.0146 -0.6368
 1380ntf    fn4 8542   2.990   0.852   5.455 -0.5266  0.1050 -0.6320
 1380ntf    fn4 8543   3.207   0.829   5.469 -0.3801 -0.2351  0.4772
 1380ntf    on5 8544   3.084   0.695   5.228 -0.2387 -0.0281 -0.0779
 1380ntf    on5 8545   3.018   0.926   5.160  0.1700  0.4177  0.1537
 1380ntf    on5 8546   3.452   0.909   5.027  0.1200  0.3705 -0.2444
 1380ntf    on5 8547   3.268   0.777   4.940  0.0090  0.2634 -0.2264
 1380ntf    fn4 8548   3.515   0.634   5.023  0.1457 -0.4699  0.0171
 1380ntf    fn4 8549   3.498   0.692   5.227  0.0033 -0.0945  0.0935
 1380ntf    fn4 8550   3.350   0.572   5.143 -0.0246  0.3436 -0.1597
 1381ntf    cn1 8551   1.937   1.813   3.136 -0.2534  0.0354 -0.1357
 1381ntf    sn2 8552   1.868   1.899   2.992  0.0195  0.2067 -0.1631
 1381ntf    nn3 8553   1.965   2.022   2.978 -0.0611  0.3250  0.2897
 1381ntf    sn2 8554   2.034   2.101   2.861 -0.0744  0.0761  0.1127
 1381ntf    cn1 8555   2.192   2.129   2.946  0.2060 -0.1002 -0.3474
 1381ntf    fn4 8556   1.881   1.842   3.253 -0.0883  0.0469 -0.0582
 1381ntf    fn4 8557   1.931   1.681   3.129  0.4976 -0.0251  0.2178
 1381ntf    fn4 8558   2.062   1.852   3.156 -0.2150 -0.1254 -0.0607
 1381ntf    on5 8559   1.876   1.794   2.894 -0.1962 -0.5289  0.5971
 1381ntf    on5 8560   1.737   1.940   3.034 -0.2662 -0.5076 -0.3516
 1381ntf    on5 8561   1.980   2.233   2.839 -0.1824 -0.0016 -0.0944
 1381ntf    on5 8562   2.074   2.018   2.751 -0.6230 -0.5942  0.4124
 1381ntf    fn4 8563   2.171   2.214   3.045  0.4201 -0.4068 -0.0359
 1381ntf    fn4 8564   2.240   2.015   2.993 -0.3353 -0.1299  0.1425
 1381ntf    fn4 8565   2.290   2.182   2.874  0.3666  0.6044  0.3726
 1382ntf    cn1 8566   0.250   0.698   6.067  0.1181 -0.1578  0.1882
 1382ntf    sn2 8567   0.277   0.659   5.891 -0.1749  0.0536  0.0947
 1382ntf    nn3 8568   0.415   0.731   5.865 -0.0901 -0.1883 -0.1235
 1382ntf    sn2 8569   0.447   0.843   5.761  0.3358  0.2093  0.4302
 1382ntf    cn1 8570   0.381   0.781   5.603  0.0904  0.1678  0.5485
 1382ntf    fn4 8571   0.159   0.618   6.120  0.1580 -0.2120  0.1745
 1382ntf    fn4 8572   0.363   0.688   6.134  0.0839  0.0698  0.2805
 1382ntf    fn4 8573   0.209   0.823   6.084  0.5995  0.0173  0.0764
 1382ntf    on5 8574   0.283   0.516   5.900  0.1945  0.0399 -0.3555
 1382ntf    on5 8575   0.165   0.716   5.821  0.0489  0.2988 -0.0695
 1382ntf    on5 8576   0.588   0.868   5.746  0.1381  0.9856 -0.3012
 1382ntf    on5 8577   0.360   0.956   5.786 -0.0896  0.0434 -0.2475
 1382ntf    fn4 8578   0.250   0.795   5.591  0.1073 -0.0163  0.1382
 1382ntf    fn4 8579   0.426   0.837   5.492  0.2711 -1.0354 -0.0069
 1382ntf    fn4 8580   0.401   0.652   5.583 -0.3041  0.1639  0.1690
 1383ntf    cn1 8581   3.555   1.278   1.642 -0.3422 -0.0276  0.0566
 1383ntf    sn2 8582   3.728   1.331   1.660 -0.4286  0.2689  0.0093
 1383ntf    nn3 8583   3.716   1.478   1.604  0.0123  0.4436  0.3706
 1383ntf    sn2 8584   3.803   1.555   1.499  0.3475 -0.1569  0.2030
 1383ntf    cn1 8585   3.916   1.651   1.604 -0.0224  0.1100  0.3550
 1383ntf    fn4 8586   3.539   1.148   1.663 -0.1103 -0.0816 -0.1026
 1383ntf    fn4 8587   3.463   1.329   1.722 -0.2667  0.2060 -0.0055
 1383ntf    fn4 8588   3.517   1.300   1.517 -0.2884  0.1822  0.0761
 1383ntf    on5 8589   3.736   1.338   1.804 -0.3686  0.3932  0.0002
 1383ntf    on5 8590   3.803   1.228   1.594 -0.0295  0.0085  0.8553
 1383ntf    on5 8591   3.730   1.660   1.432 -0.4417 -0.8057  0.0387
 1383ntf    on5 8592   3.892   1.477   1.416  0.1818 -0.4701  0.3186
 1383ntf    fn4 8593   3.849   1.749   1.664  0.0672  0.1201  0.4391
 1383ntf    fn4 8594   3.963   1.578   1.704 -0.9877 -0.6363  0.2789
 1383ntf    fn4 8595   4.015   1.710   1.539 -0.1671 -0.0386 -0.0018
 1384ntf    cn1 8596   4.057   1.340   0.766 -0.1170  0.0171 -0.1300
 1384ntf    sn2 8597   4.099   1.398   0.600  0.2207 -0.2656 -0.1426
 1384ntf    nn3 8598   4.074   1.553   0.601 -0.1643 -0.3287 -0.0875
 1384ntf    sn2 8599   4.169   1.672   0.639 -0.0195 -0.3541 -0.3645
 1384ntf    cn1 8600   4.048   1.773   0.729  0.4252 -0.1234 -0.0240
 1384ntf    fn4 8601   4.046   1.208   0.771 -0.0816  0.0236  0.1355
 1384ntf    fn4 8602   4.145   1.378   0.857 -0.1897 -0.1698  0.0202
 1384ntf    fn4 8603   3.941   1.390   0.808 -0.4674 -0.3326 -0.6667
 1384ntf    on5 8604   4.239   1.361   0.593  0.2558 -0.2499  0.4896
 1384ntf    on5 8605   4.005   1.328   0.516  0.0958  0.1116 -0.3187
 1384ntf    on5 8606   4.206   1.753   0.526 -0.3506  0.2394 -0.0517
 1384ntf    on5 8607   4.270   1.640   0.736  0.1028  0.2070 -0.3039
 1384ntf    fn4 8608   4.091   1.889   0.777  0.6191 -0.1949 -0.0264
 1384ntf    fn4 8609   3.942   1.805   0.656  0.3642 -0.0078  0.1146
 1384ntf    fn4 8610   3.997   1.707   0.832 -0.3840  0.0637 -0.2942
 1385ntf    cn1 8611   4.606   6.324   1.573 -0.1822  0.1908 -0.4975
 1385ntf    sn2 8612   4.576   6.175   1.472  0.0349 -0.1838 -0.0156
 1385ntf    nn3 8613   4.421   6.191   1.487  0.0030 -0.5017 -0.0106
 1385ntf    sn2 8614   4.302   6.089   1.487 -0.2677 -0.1875 -0.1423
 1385ntf    cn1 8615   4.249   6.098   1.313 -0.0741 -0.1684 -0.1999
 1385ntf    fn4 8616   4.569   6.289   1.696  0.4728 -0.0894 -0.3745
 1385ntf    fn4 8617   4.733   6.354   1.593 -0.1917 -0.0639 -0.0271
 1385ntf    fn4 8618   4.544   6.436   1.542  0.2560  0.5146 -0.2061
 1385ntf    on5 8619   4.636   6.217   1.347  0.0282  0.0016  0.0422
 1385ntf    on5 8620   4.637   6.074   1.555  0.0955 -0.1767 -0.0510
 1385ntf    on5 8621   4.187   6.143   1.555 -0.1931  0.0259 -0.1866
 1385ntf    on5 8622   4.345   5.954   1.513 -0.1090 -0.0939  0.0788
 1385ntf    fn4 8623   4.173   6.201   1.280  0.1061  0.1011  0.2153
 1385ntf    fn4 8624   4.355   6.088   1.234 -0.2117  0.8136 -0.5223
 1385ntf    fn4 8625   4.168   5.998   1.282  0.1139 -0.2013 -0.5891
 1386ntf    cn1 8626   2.612   6.339   1.443  0.2814 -0.2332 -0.0956
 1386ntf    sn2 8627   2.785   6.308   1.394  0.3578  0.2749 -0.1494
 1386ntf    nn3 8628   2.770   6.249   1.249  0.1172 -0.1117  0.0315
 1386ntf    sn2 8629   2.887   6.209   1.153  0.2815 -0.1350  0.2400
 1386ntf    cn1 8630   2.885   6.342   1.029 -0.0856 -0.2125  0.1626
 1386ntf    fn4 8631   2.548   6.225   1.465 -0.1707  0.1380  0.5402
 1386ntf    fn4 8632   2.611   6.404   1.557 -0.6663 -0.5476  0.0811
 1386ntf    fn4 8633   2.538   6.411   1.360  0.2519 -0.5226 -0.3224
 1386ntf    on5 8634   2.852   6.436   1.403  0.1848  0.3541  0.0285
 1386ntf    on5 8635   2.827   6.205   1.486  0.0396  0.1102 -0.1861
 1386ntf    on5 8636   2.852   6.096   1.070  0.0150  0.1697 -0.0636
 1386ntf    on5 8637   3.022   6.203   1.203  0.3681 -0.2208 -0.0033
 1386ntf    fn4 8638   2.778   6.322   0.953 -0.0321  0.0264  0.0252
 1386ntf    fn4 8639   2.874   6.463   1.081 -0.0371 -0.3716  0.5432
 1386ntf    fn4 8640   2.996   6.334   0.957 -0.1914  0.1201 -0.0411
 1387ntf    cn1 8641   6.321   3.684   2.776 -0.0015  0.1965  0.0543
 1387ntf    sn2 8642   6.497   3.640   2.768 -0.0875 -0.0970 -0.2240
 1387ntf    nn3 8643   6.553   3.727   2.649  0.0176  0.2288  0.0643
 1387ntf    sn2 8644   6.580   3.699   2.497 -0.0681 -0.0771  0.1066
 1387ntf    cn1 8645   6.758   3.660   2.488 -0.0158  0.2276 -0.1886
 1387ntf    fn4 8646   6.290   3.809   2.809 -0.6006  0.1673 -0.3819
 1387ntf    fn4 8647   6.261   3.653   2.663  0.7411  0.0069 -0.2935
 1387ntf    fn4 8648   6.264   3.610   2.869 -0.0514  0.2010  0.0271
 1387ntf    on5 8649   6.554   3.685   2.892 -0.0293  0.2001 -0.3566
 1387ntf    on5 8650   6.483   3.498   2.749 -0.7557 -0.0915  0.2219
 1387ntf    on5 8651   6.567   3.820   2.422  0.2592  0.0723  0.2886
 1387ntf    on5 8652   6.517   3.583   2.440 -0.3858  0.2910 -0.2930
 1387ntf    fn4 8653   6.838   3.745   2.550 -0.3933  0.4032  0.0651
 1387ntf    fn4 8654   6.777   3.538   2.537  0.3427  0.0950 -0.6473
 1387ntf    fn4 8655   6.802   3.650   2.364 -0.4089 -0.1202 -0.3030
 1388ntf    cn1 8656   3.358   0.316   3.177 -0.2293  0.0499  0.3187
 1388ntf    sn2 8657   3.206   0.318   3.078 -0.0844 -0.0022  0.0962
 1388ntf    nn3 8658   3.110   0.280   3.196  0.1149 -0.0185  0.2525
 1388ntf    sn2 8659   3.058   0.137   3.233 -0.0673  0.0240  0.1563
 1388ntf    cn1 8660   2.939   0.111   3.097 -0.3778  0.3152  0.3714
 1388ntf    fn4 8661   3.467   0.344   3.107 -0.3892 -0.3975 -0.1159
 1388ntf    fn4 8662   3.344   0.409   3.270  0.0129  0.2182  0.1875
 1388ntf    fn4 8663   3.382   0.203   3.242 -0.7258  0.1943  0.7620
 1388ntf    on5 8664   3.188   0.455   3.039 -0.3329 -0.0263  0.1233
 1388ntf    on5 8665   3.224   0.220   2.972 -0.2907 -0.6292  0.6339
 1388ntf    on5 8666   2.967   0.127   3.344  0.2956 -0.4947  0.4102
 1388ntf    on5 8667   3.159   0.035   3.225 -0.0111  0.0556  0.4687
 1388ntf    fn4 8668   2.825   0.178   3.106 -0.3550  0.4375 -0.2135
 1388ntf    fn4 8669   2.987   0.143   2.978 -0.2173  0.0085  0.3535
 1388ntf    fn4 8670   2.896  -0.014   3.088  0.0188  0.2032  0.0102
 1389ntf    cn1 8671   5.288   1.060   2.697 -0.0186  0.0665  0.1062
 1389ntf    sn2 8672   5.414   1.014   2.575  0.0791  0.1077  0.1920
 1389ntf    nn3 8673   5.318   0.984   2.454  0.0540 -0.1345  0.2707
 1389ntf    sn2 8674   5.265   0.849   2.395 -0.1325  0.0683 -0.0263
 1389ntf    cn1 8675   5.270   0.899   2.220  0.0511 -0.5961 -0.2126
 1389ntf    fn4 8676   5.191   0.972   2.720  0.0480  0.0017  0.1385
 1389ntf    fn4 8677   5.348   1.088   2.811 -0.1480 -0.1613  0.2312
 1389ntf    fn4 8678   5.233   1.173   2.654  0.1623  0.1644  0.1313
 1389ntf    on5 8679   5.487   1.136   2.551 -0.2505  0.2892  0.1049
 1389ntf    on5 8680   5.476   0.894   2.627 -0.1197  0.0515  0.2992
 1389ntf    on5 8681   5.126   0.819   2.421 -0.1555  0.1933 -0.0070
 1389ntf    on5 8682   5.353   0.735   2.383 -0.3052 -0.0587 -0.0838
 1389ntf    fn4 8683   5.395   0.906   2.177  0.0730 -0.3449 -0.1055
 1389ntf    fn4 8684   5.192   0.822   2.145 -0.3108  0.0138 -0.4700
 1389ntf    fn4 8685   5.219   1.020   2.207 -0.1711 -0.6809 -0.1396
 1390ntf    cn1 8686   3.642   0.250   5.626  0.5061  0.0760  0.0892
 1390ntf    sn2 8687   3.579   0.295   5.790 -0.1035 -0.0471 -0.1100
 1390ntf    nn3 8688   3.716   0.339   5.853 -0.2982 -0.0374  0.3124
 1390ntf    sn2 8689   3.835   0.261   5.919 -0.0523  0.2152  0.1719
 1390ntf    cn1 8690   3.983   0.338   5.847  0.2950  0.0977  0.7553
 1390ntf    fn4 8691   3.550   0.259   5.531  0.0786 -0.3090  0.4663
 1390ntf    fn4 8692   3.740   0.330   5.586  0.1334  0.2541 -0.4841
 1390ntf    fn4 8693   3.691   0.127   5.630  0.2757 -0.0061  0.3457
 1390ntf    on5 8694   3.485   0.402   5.769 -0.0134  0.0218 -0.1620
 1390ntf    on5 8695   3.534   0.170   5.846  0.1463 -0.0700  0.0432
 1390ntf    on5 8696   3.845   0.123   5.880  0.2558  0.1975  0.3139
 1390ntf    on5 8697   3.858   0.288   6.058 -0.0591  0.8733  0.0476
 1390ntf    fn4 8698   3.981   0.326   5.715 -0.3849 -0.3730  0.8031
 1390ntf    fn4 8699   3.991   0.468   5.870 -0.2787  0.3246 -0.2512
 1390ntf    fn4 8700   4.091   0.278   5.893  0.4424 -0.0557  0.2087
 1391ntf    cn1 8701   3.767   6.408   4.550  0.2180 -0.1384 -0.1350
 1391ntf    sn2 8702   3.665   6.495   4.427 -0.0062 -0.0441  0.1176
 1391ntf    nn3 8703   3.723   6.640   4.442  0.2855 -0.1874  0.3619
 1391ntf    sn2 8704   3.792   6.742   4.344 -0.2540 -0.1233  0.0490
 1391ntf    cn1 8705   3.718   6.893   4.414 -0.2849 -0.1602  0.0968
 1391ntf    fn4 8706   3.747   6.278   4.565 -0.1750 -0.0337  0.2483
 1391ntf    fn4 8707   3.894   6.431   4.519  0.2363 -0.1588 -0.0737
 1391ntf    fn4 8708   3.743   6.453   4.672  0.3858  0.0160 -0.1583
 1391ntf    on5 8709   3.694   6.429   4.302  0.4371  0.7988 -0.2316
 1391ntf    on5 8710   3.527   6.496   4.467  0.0748 -0.8796  0.4290
 1391ntf    on5 8711   3.754   6.748   4.205  0.0143  0.8862  0.0167
 1391ntf    on5 8712   3.932   6.738   4.375 -0.3181  0.3208  0.3947
 1391ntf    fn4 8713   3.598   6.880   4.467 -0.2415 -0.1182  0.2042
 1391ntf    fn4 8714   3.791   6.949   4.509 -0.1787  0.4497 -0.3353
 1391ntf    fn4 8715   3.710   6.982   4.316 -0.6007 -0.0321  0.2401
 1392ntf    cn1 8716   3.009   5.835   4.973  0.1724 -0.1011  0.1492
 1392ntf    sn2 8717   2.951   5.695   4.872 -0.0235  0.1447 -0.0833
 1392ntf    nn3 8718   2.958   5.769   4.734 -0.6590  0.1922 -0.0921
 1392ntf    sn2 8719   2.980   5.704   4.593  0.0593 -0.0442  0.1285
 1392ntf    cn1 8720   3.145   5.762   4.545  0.1109 -0.1376  0.1895
 1392ntf    fn4 8721   2.932   5.941   4.956  0.3939  0.1328  0.5880
 1392ntf    fn4 8722   3.002   5.818   5.104 -0.4282  0.1498  0.1556
 1392ntf    fn4 8723   3.133   5.864   4.938  0.0170  0.0519 -0.2846
 1392ntf    on5 8724   3.055   5.599   4.899 -0.3606 -0.4086 -0.7286
 1392ntf    on5 8725   2.818   5.661   4.916  0.2340 -0.6786  0.0862
 1392ntf    on5 8726   2.885   5.754   4.497 -0.5851  0.1539  0.8578
 1392ntf    on5 8727   3.005   5.562   4.600  0.2743 -0.0115  0.0484
 1392ntf    fn4 8728   3.238   5.726   4.632  0.1642 -0.0118  0.1856
 1392ntf    fn4 8729   3.176   5.726   4.421  0.1318 -0.3018  0.2431
 1392ntf    fn4 8730   3.145   5.895   4.542  0.1146 -0.1481 -0.3275
 1393ntf    cn1 8731   1.320   0.899   4.917  0.0198  0.3280  0.0324
 1393ntf    sn2 8732   1.269   1.059   4.986 -0.0307  0.2940  0.0725
 1393ntf    nn3 8733   1.350   1.151   4.889 -0.0385  0.3993  0.1666
 1393ntf    sn2 8734   1.452   1.266   4.924  0.3244  0.1061  0.0819
 1393ntf    cn1 8735   1.613   1.193   4.884  0.0204 -0.2272 -0.5526
 1393ntf    fn4 8736   1.251   0.865   4.810 -0.2278  0.6772  0.0813
 1393ntf    fn4 8737   1.448   0.886   4.885  0.1797  0.7293  0.4980
 1393ntf    fn4 8738   1.297   0.799   5.001 -0.7954  0.4151 -0.0842
 1393ntf    on5 8739   1.127   1.068   4.959 -0.0503 -0.2477 -0.0141
 1393ntf    on5 8740   1.312   1.058   5.124 -0.4097 -0.3368  0.1922
 1393ntf    on5 8741   1.469   1.289   5.065 -0.8193  0.1176  0.2310
 1393ntf    on5 8742   1.447   1.381   4.837  0.2919  0.0592  0.0216
 1393ntf    fn4 8743   1.702   1.291   4.893 -0.5469  0.2444 -0.0381
 1393ntf    fn4 8744   1.653   1.097   4.965 -0.2865  0.2102  0.1251
 1393ntf    fn4 8745   1.615   1.138   4.764  0.7931 -0.0951 -0.6075
 1394ntf    cn1 8746   3.557   2.827   2.617 -0.0683 -0.0909  0.5280
 1394ntf    sn2 8747   3.444   2.835   2.475  0.1566  0.2890  0.3703
 1394ntf    nn3 8748   3.368   2.963   2.526 -0.2196  0.0781  0.3364
 1394ntf    sn2 8749   3.369   3.104   2.458  0.3262  0.1093  0.4103
 1394ntf    cn1 8750   3.196   3.155   2.475  0.2532  0.0772 -0.2099
 1394ntf    fn4 8751   3.629   2.938   2.619  0.3110 -0.3088 -0.4024
 1394ntf    fn4 8752   3.492   2.820   2.732 -0.3890  0.4974  0.3865
 1394ntf    fn4 8753   3.645   2.728   2.611  0.1537  0.1551 -0.3853
 1394ntf    on5 8754   3.541   2.835   2.368 -0.1815  0.3784  0.0591
 1394ntf    on5 8755   3.367   2.715   2.496 -0.0200  0.2934 -0.2160
 1394ntf    on5 8756   3.390   3.112   2.316  0.5006 -0.3173  0.4103
 1394ntf    on5 8757   3.438   3.203   2.538  1.0777  0.3804 -0.5515
 1394ntf    fn4 8758   3.177   3.286   2.477  0.3664  0.0998 -0.5877
 1394ntf    fn4 8759   3.128   3.117   2.368  0.0853 -0.0381 -0.0632
 1394ntf    fn4 8760   3.144   3.101   2.584 -0.1951  0.8058 -0.0528
 1395ntf    cn1 8761   2.144   4.437   0.996  0.1136  0.2140  0.0030
 1395ntf    sn2 8762   2.193   4.263   1.011 -0.1585  0.1534  0.2130
 1395ntf    nn3 8763   2.251   4.270   1.157  0.2414  0.1510  0.0571
 1395ntf    sn2 8764   2.256   4.177   1.283  0.1026  0.3097  0.1794
 1395ntf    cn1 8765   2.429   4.125   1.262 -0.0640 -0.1491 -0.0720
 1395ntf    fn4 8766   2.093   4.472   0.879 -0.1353  0.2649  0.1265
 1395ntf    fn4 8767   2.054   4.473   1.086  0.1966  0.2642  0.0666
 1395ntf    fn4 8768   2.246   4.518   1.023 -0.1522  0.5414  0.0307
 1395ntf    on5 8769   2.065   4.200   0.991 -0.1421  0.1382  0.1553
 1395ntf    on5 8770   2.298   4.240   0.914  0.0823  0.3888  0.4144
 1395ntf    on5 8771   2.183   4.054   1.271  0.1490  0.2390  0.6009
 1395ntf    on5 8772   2.252   4.249   1.408 -0.0105  0.1465  0.2708
 1395ntf    fn4 8773   2.459   4.033   1.352  0.2135  0.0379  0.0285
 1395ntf    fn4 8774   2.438   4.073   1.141  0.2315  0.5686 -0.3675
 1395ntf    fn4 8775   2.517   4.223   1.275 -0.3382  0.1134 -0.1816
 1396ntf    cn1 8776   6.745   5.530   0.989 -0.2561  0.0101 -0.2702
 1396ntf    sn2 8777   6.732   5.534   1.171 -0.0067  0.0564 -0.2531
 1396ntf    nn3 8778   6.774   5.685   1.185 -0.1973  0.1198 -0.3613
 1396ntf    sn2 8779   6.744   5.785   1.302 -0.3976  0.0409 -0.3446
 1396ntf    cn1 8780   6.633   5.907   1.225 -0.3531  0.3486  0.0753
 1396ntf    fn4 8781   6.658   5.608   0.927 -0.1877 -0.1043 -0.5128
 1396ntf    fn4 8782   6.868   5.567   0.958 -0.1152  0.2342  0.5196
 1396ntf    fn4 8783   6.725   5.409   0.940  0.1889 -0.2377  0.1523
 1396ntf    on5 8784   6.593   5.500   1.189  0.2284 -0.5086  0.5261
 1396ntf    on5 8785   6.836   5.442   1.209 -0.3188 -0.1890  0.0060
 1396ntf    on5 8786   6.858   5.861   1.348 -0.0199 -0.4658 -0.4405
 1396ntf    on5 8787   6.660   5.716   1.398  0.2710 -0.0618  0.1752
 1396ntf    fn4 8788   6.685   5.954   1.113  0.2506 -0.3298  0.0677
 1396ntf    fn4 8789   6.514   5.854   1.198 -0.1580 -0.2938  0.4413
 1396ntf    fn4 8790   6.609   6.014   1.300  0.0498  0.1647  0.4737
 1397ntf    cn1 8791   2.057   4.585   6.185  0.1456  0.3404 -0.2956
 1397ntf    sn2 8792   2.082   4.525   6.355 -0.5562  0.5448 -0.1175
 1397ntf    nn3 8793   2.097   4.668   6.418 -0.6228  0.3491  0.3498
 1397ntf    sn2 8794   2.222   4.745   6.473 -0.2678  0.0063  0.0273
 1397ntf    cn1 8795   2.215   4.694   6.647  0.2850  0.1316  0.0885
 1397ntf    fn4 8796   2.013   4.500   6.095  0.1723  0.2060 -0.1819
 1397ntf    fn4 8797   1.963   4.678   6.182 -0.1757  0.0123 -0.4681
 1397ntf    fn4 8798   2.160   4.649   6.131  0.0431  0.1167 -0.7557
 1397ntf    on5 8799   1.951   4.477   6.391 -0.1888 -0.2552  0.1834
 1397ntf    on5 8800   2.193   4.433   6.358 -0.6771  0.4033  0.0655
 1397ntf    on5 8801   2.198   4.887   6.479  0.1595  0.0655  0.3743
 1397ntf    on5 8802   2.349   4.698   6.424 -0.2984 -0.1415  0.0894
 1397ntf    fn4 8803   2.308   4.755   6.719  0.3849  0.1242 -0.0335
 1397ntf    fn4 8804   2.096   4.713   6.702  0.1904  0.8269 -0.3371
 1397ntf    fn4 8805   2.231   4.563   6.655  0.3284  0.1055 -0.3939
 1398ntf    cn1 8806   6.001   2.908   2.385 -0.2023 -0.0196  0.3272
 1398ntf    sn2 8807   6.121   2.833   2.271 -0.4728 -0.1994  0.1594
 1398ntf    nn3 8808   6.066   2.867   2.128  0.0640 -0.4974 -0.1250
 1398ntf    sn2 8809   6.149   2.875   1.995 -0.0264  0.0686 -0.1510
 1398ntf    cn1 8810   6.026   2.819   1.874 -0.1024  0.1028 -0.0897
 1398ntf    fn4 8811   6.031   2.866   2.507 -0.0251  0.1989  0.3583
 1398ntf    fn4 8812   6.014   3.039   2.391  0.7331 -0.1006  0.2200
 1398ntf    fn4 8813   5.875   2.884   2.354 -0.0368  0.4028 -0.6964
 1398ntf    on5 8814   6.249   2.887   2.310 -0.4521 -0.1747  0.0591
 1398ntf    on5 8815   6.104   2.693   2.302 -0.4384 -0.1880  0.2313
 1398ntf    on5 8816   6.256   2.779   1.983  0.2598  0.2589  0.7470
 1398ntf    on5 8817   6.176   3.011   1.958 -0.2953  0.0897 -0.2731
 1398ntf    fn4 8818   5.925   2.905   1.864 -0.3390 -0.2157 -0.4787
 1398ntf    fn4 8819   6.070   2.803   1.750  0.2670 -0.0045  0.0562
 1398ntf    fn4 8820   5.964   2.711   1.918  0.2431  0.0567  0.2808
 1399ntf    cn1 8821   3.394   5.557   0.841  0.3701  0.2978 -0.2242
 1399ntf    sn2 8822   3.377   5.547   0.660  0.1347 -0.0795 -0.1813
 1399ntf    nn3 8823   3.512   5.472   0.629  0.2777 -0.1378  0.5584
 1399ntf    sn2 8824   3.550   5.321   0.639  0.1314 -0.1972  0.2273
 1399ntf    cn1 8825   3.554   5.267   0.465  0.2789 -0.0703  0.1910
 1399ntf    fn4 8826   3.301   5.635   0.893  0.2565 -0.2881  0.4615
 1399ntf    fn4 8827   3.384   5.440   0.903 -0.2733  0.2789 -0.3553
 1399ntf    fn4 8828   3.513   5.597   0.883  0.4102 -0.1749  0.1266
 1399ntf    on5 8829   3.269   5.457   0.627 -0.1712  0.0551  0.4289
 1399ntf    on5 8830   3.379   5.684   0.617 -0.0019  0.0745  0.2983
 1399ntf    on5 8831   3.452   5.232   0.697  0.1311 -0.2679  0.1183
 1399ntf    on5 8832   3.685   5.300   0.684  0.3428  0.1635 -0.2343
 1399ntf    fn4 8833   3.447   5.319   0.407  0.3155 -0.5374 -0.2962
 1399ntf    fn4 8834   3.654   5.320   0.398  0.0761 -0.4455 -0.4204
 1399ntf    fn4 8835   3.560   5.137   0.443 -0.2576 -0.0577 -0.0486
 1400ntf    cn1 8836   1.868   5.829   6.180 -0.0409  0.1168 -0.1931
 1400ntf    sn2 8837   1.913   5.912   6.025  0.1783  0.0469 -0.1669
 1400ntf    nn3 8838   2.006   6.018   6.094  0.2075 -0.3377  0.3903
 1400ntf    sn2 8839   1.959   6.164   6.127 -0.0284 -0.3349  0.0546
 1400ntf    cn1 8840   1.971   6.267   5.977  0.1516 -0.3651  0.0485
 1400ntf    fn4 8841   1.793   5.722   6.158 -0.0977  0.2001 -0.4061
 1400ntf    fn4 8842   1.979   5.797   6.245 -0.2174 -0.2467 -0.0648
 1400ntf    fn4 8843   1.798   5.912   6.255  0.5114 -0.0316  0.4920
 1400ntf    on5 8844   1.991   5.812   5.956  0.2667  0.4287 -0.6241
 1400ntf    on5 8845   1.788   5.958   5.969 -0.1016 -0.1937  0.2550
 1400ntf    on5 8846   2.063   6.228   6.206 -0.2665  0.4621 -0.2635
 1400ntf    on5 8847   1.825   6.175   6.179 -0.2020 -0.0330 -0.4541
 1400ntf    fn4 8848   1.934   6.213   5.862  0.3503 -0.1528 -0.1152
 1400ntf    fn4 8849   1.923   6.389   5.994 -0.5123 -0.5763 -0.2781
 1400ntf    fn4 8850   2.101   6.283   5.957  0.2066 -0.1588  0.5592
 1401ntf    cn1 8851   1.344   0.950   1.562 -0.1740  0.1932  0.0284
 1401ntf    sn2 8852   1.461   0.882   1.683  0.0056  0.2422 -0.1179
 1401ntf    nn3 8853   1.593   0.965   1.662  0.1793  0.0419  0.1671
 1401ntf    sn2 8854   1.719   0.929   1.575 -0.0606  0.0664 -0.1939
 1401ntf    cn1 8855   1.795   1.093   1.556  0.2317  0.0071  0.4284
 1401ntf    fn4 8856   1.398   1.019   1.463 -0.1829 -0.4999 -0.4701
 1401ntf    fn4 8857   1.284   0.855   1.493  0.0501  0.0743 -0.0036
 1401ntf    fn4 8858   1.242   1.017   1.614 -0.1157  0.1686  0.1740
 1401ntf    on5 8859   1.379   0.902   1.800 -0.5646  0.6386 -0.5825
 1401ntf    on5 8860   1.478   0.745   1.642  0.1100  0.0913  0.4169
 1401ntf    on5 8861   1.695   0.897   1.437  0.9226 -0.6256 -0.2091
 1401ntf    on5 8862   1.820   0.860   1.651 -0.1088  0.0784 -0.1187
 1401ntf    fn4 8863   1.893   1.099   1.467 -0.2226 -0.1105 -0.0841
 1401ntf    fn4 8864   1.709   1.184   1.514  0.0081 -0.4196 -0.0511
 1401ntf    fn4 8865   1.840   1.141   1.671  0.5711 -0.7477  0.6187
 1402ntf    cn1 8866   6.644   0.628   0.392 -0.1694 -0.0133  0.1580
 1402ntf    sn2 8867   6.494   0.705   0.460 -0.1410 -0.1830  0.4157
 1402ntf    nn3 8868   6.501   0.850   0.401  0.0622 -0.3615 -0.0068
 1402ntf    sn2 8869   6.415   0.901   0.280 -0.0883 -0.1693  0.1809
 1402ntf    cn1 8870   6.271   0.967   0.371  0.0443  0.8219 -0.3172
 1402ntf    fn4 8871   6.676   0.515   0.453  0.6163 -0.0637 -0.3405
 1402ntf    fn4 8872   6.633   0.597   0.264  0.7158  0.2056  0.0220
 1402ntf    fn4 8873   6.750   0.707   0.405 -0.2184  0.0483  0.1811
 1402ntf    on5 8874   6.391   0.616   0.410 -0.5348  0.4633  0.0575
 1402ntf    on5 8875   6.520   0.718   0.601  0.0918  0.1904  0.3386
 1402ntf    on5 8876   6.365   0.797   0.194 -0.2461  0.0004  0.0678
 1402ntf    on5 8877   6.466   1.020   0.218  0.0591 -0.0070  0.6091
 1402ntf    fn4 8878   6.216   0.879   0.453  0.8117  0.6497  0.0304
 1402ntf    fn4 8879   6.319   1.058   0.454  0.4311 -0.1354  0.5399
 1402ntf    fn4 8880   6.178   1.028   0.299 -0.6542 -0.0927 -0.2070
 1403ntf    cn1 8881   0.982   4.043   6.461  0.1522  0.0047 -0.2082
 1403ntf    sn2 8882   1.136   3.961   6.512  0.0214 -0.0224  0.1464
 1403ntf    nn3 8883   1.204   4.071   6.602 -0.0227  0.0908  0.0424
 1403ntf    sn2 8884   1.356   4.092   6.636 -0.0164 -0.0684  0.1144
 1403ntf    cn1 8885   1.350   4.100   6.818  0.1367 -0.3220  0.1309
 1403ntf    fn4 8886   0.908   3.973   6.376 -0.2507 -0.2038  0.3093
 1403ntf    fn4 8887   0.908   4.071   6.567  0.5654 -0.0135  0.0881
 1403ntf    fn4 8888   0.996   4.157   6.395 -0.2542  0.3067  0.2255
 1403ntf    on5 8889   1.089   3.843   6.579  0.0653 -0.0947  0.0494
 1403ntf    on5 8890   1.210   3.940   6.390 -0.5123 -0.0134 -0.1799
 1403ntf    on5 8891   1.409   4.219   6.592 -0.7837  0.2867  0.1925
 1403ntf    on5 8892   1.438   3.979   6.602  0.2864  0.2484 -0.2110
 1403ntf    fn4 8893   1.270   4.190   6.872  0.7170  0.3801 -0.1764
 1403ntf    fn4 8894   1.310   3.987   6.874  0.0953 -0.5756 -0.4042
 1403ntf    fn4 8895   1.470   4.123   6.866  0.0649  0.1764  0.0788
 1404ntf    cn1 8896   0.450   5.542   0.954  0.0235  0.4057  0.1525
 1404ntf    sn2 8897   0.388   5.372   0.948  0.1504  0.3607  0.1147
 1404ntf    nn3 8898   0.512   5.285   0.906 -0.3775 -0.3657  0.0234
 1404ntf    sn2 8899   0.563   5.251   0.761 -0.1370 -0.1275  0.0501
 1404ntf    cn1 8900   0.469   5.101   0.719 -0.0429 -0.1123 -0.2129
 1404ntf    fn4 8901   0.538   5.563   1.051 -0.0717  0.3595  0.2489
 1404ntf    fn4 8902   0.503   5.577   0.838  0.2457 -0.0219  0.1215
 1404ntf    fn4 8903   0.353   5.626   0.987 -0.3370  0.0290  0.0550
 1404ntf    on5 8904   0.351   5.354   1.086  0.0737 -0.4584 -0.0066
 1404ntf    on5 8905   0.281   5.366   0.851 -0.0111 -0.3532  0.3334
 1404ntf    on5 8906   0.701   5.209   0.766 -0.1207 -0.0305  0.4424
 1404ntf    on5 8907   0.532   5.349   0.661  0.1299  0.1395  0.2267
 1404ntf    fn4 8908   0.476   5.010   0.814 -0.0036 -0.0642 -0.1694
 1404ntf    fn4 8909   0.340   5.123   0.701 -0.1805 -0.3666  0.4447
 1404ntf    fn4 8910   0.515   5.041   0.610  0.4437 -0.2127  0.0479
 1405ntf    cn1 8911   1.896   1.275   0.696 -0.4687  0.0788 -0.2832
 1405ntf    sn2 8912   2.002   1.214   0.561 -0.0169 -0.2647  0.2258
 1405ntf    nn3 8913   2.140   1.280   0.598 -0.2729  0.2726  0.2403
 1405ntf    sn2 8914   2.282   1.214   0.603 -0.2326  0.3274 -0.1145
 1405ntf    cn1 8915   2.305   1.174   0.779  0.0124  0.4887 -0.1093
 1405ntf    fn4 8916   1.768   1.243   0.684 -0.3581 -0.3842 -0.2231
 1405ntf    fn4 8917   1.929   1.236   0.818 -0.3916  0.0321 -0.3191
 1405ntf    fn4 8918   1.898   1.407   0.697  0.4845  0.0692 -0.4485
 1405ntf    on5 8919   1.999   1.070   0.571  0.5230 -0.2940 -0.0221
 1405ntf    on5 8920   1.951   1.269   0.438 -0.4238  0.0992  0.5490
 1405ntf    on5 8921   2.387   1.311   0.584  0.2181 -0.0455  0.4225
 1405ntf    on5 8922   2.295   1.095   0.522  0.2789  0.0857  0.3078
 1405ntf    fn4 8923   2.282   1.277   0.858  0.6052  0.3353  0.2782
 1405ntf    fn4 8924   2.223   1.078   0.819  0.5739 -0.0172 -0.1471
 1405ntf    fn4 8925   2.430   1.134   0.800 -0.0551  0.3884  0.1022
 1406ntf    cn1 8926   4.780   5.116   6.576  0.2030 -0.1607 -0.0870
 1406ntf    sn2 8927   4.912   5.218   6.649  0.0337 -0.1040  0.1397
 1406ntf    nn3 8928   5.021   5.110   6.682  0.2222  0.1580  0.3762
 1406ntf    sn2 8929   5.120   5.044   6.580  0.1225  0.0959  0.3206
 1406ntf    cn1 8930   5.265   5.147   6.615  0.2229  0.0941 -0.0899
 1406ntf    fn4 8931   4.671   5.191   6.571  0.1105 -0.2785  0.1307
 1406ntf    fn4 8932   4.805   5.073   6.454 -0.3044  0.2857 -0.3472
 1406ntf    fn4 8933   4.749   5.015   6.656 -0.0530 -0.2032 -0.2403
 1406ntf    on5 8934   4.935   5.317   6.547 -0.2196 -0.0234  0.1613
 1406ntf    on5 8935   4.849   5.271   6.768 -0.6972 -0.0163 -0.2785
 1406ntf    on5 8936   5.090   5.065   6.440  0.1373  0.1742  0.3292
 1406ntf    on5 8937   5.151   4.910   6.625 -0.1766 -0.0356  0.1403
 1406ntf    fn4 8938   5.240   5.274   6.643 -0.0884 -0.0481  0.2710
 1406ntf    fn4 8939   5.329   5.095   6.717 -0.3311  0.2817  0.3592
 1406ntf    fn4 8940   5.354   5.150   6.517  0.0729 -0.1369 -0.2342
 1407ntf    cn1 8941   5.260   0.905   0.423  0.2922  0.1826  0.1997
 1407ntf    sn2 8942   5.440   0.877   0.414  0.2695  0.1413 -0.1610
 1407ntf    nn3 8943   5.487   1.013   0.477 -0.4195  0.2701  0.0924
 1407ntf    sn2 8944   5.621   1.045   0.553 -0.0885 -0.0482 -0.3454
 1407ntf    cn1 8945   5.694   1.152   0.426  0.6766 -0.1366  0.0189
 1407ntf    fn4 8946   5.212   0.997   0.340  0.0927  0.1728  0.3052
 1407ntf    fn4 8947   5.199   0.793   0.387  0.5814  0.1622 -0.2366
 1407ntf    fn4 8948   5.207   0.941   0.538  0.4700 -0.1091  0.3724
 1407ntf    on5 8949   5.453   0.759   0.495 -0.2017  0.3031  0.1592
 1407ntf    on5 8950   5.474   0.868   0.274  0.0869 -0.2325 -0.1826
 1407ntf    on5 8951   5.708   0.931   0.565  0.0652  0.0139 -0.8577
 1407ntf    on5 8952   5.594   1.127   0.669 -0.2345  0.1107 -0.4913
 1407ntf    fn4 8953   5.699   1.082   0.314 -0.7684 -0.1985 -0.0145
 1407ntf    fn4 8954   5.623   1.261   0.406  0.2011 -0.3901  0.3106
 1407ntf    fn4 8955   5.822   1.181   0.443  0.5822  0.1708  0.2101
 1408ntf    cn1 8956   0.999   5.374   2.228  0.0977  0.1674 -0.5255
 1408ntf    sn2 8957   1.135   5.269   2.171  0.0534 -0.1113 -0.1219
 1408ntf    nn3 8958   1.042   5.163   2.102  0.1931 -0.2914 -0.0376
 1408ntf    sn2 8959   0.999   5.143   1.952 -0.2595 -0.1851  0.0771
 1408ntf    cn1 8960   0.971   4.964   1.968 -0.3382 -0.1591  0.2489
 1408ntf    fn4 8961   1.041   5.470   2.308 -0.1689  0.0755 -0.2715
 1408ntf    fn4 8962   0.924   5.424   2.131 -0.4207 -0.2189 -0.3310
 1408ntf    fn4 8963   0.918   5.299   2.301  0.6898 -0.2191 -0.2644
 1408ntf    on5 8964   1.218   5.349   2.085 -0.2574  0.4194  0.0730
 1408ntf    on5 8965   1.193   5.209   2.289  0.4190 -0.3456 -0.4200
 1408ntf    on5 8966   1.102   5.160   1.854 -0.0965  0.1008  0.2952
 1408ntf    on5 8967   0.871   5.204   1.928 -0.0597  0.0308 -0.4314
 1408ntf    fn4 8968   0.876   4.923   2.050 -0.4742  0.3024  0.3277
 1408ntf    fn4 8969   0.953   4.909   1.849 -0.1013  0.1818  0.0543
 1408ntf    fn4 8970   1.080   4.904   2.010  0.1091  0.3465 -0.1741
 1409ntf    cn1 8971   6.658   0.528   3.425 -0.0641 -0.5123  0.0233
 1409ntf    sn2 8972   6.663   0.475   3.599  0.0040  0.0250  0.1895
 1409ntf    nn3 8973   6.817   0.480   3.625  0.0567 -0.4244 -0.0167
 1409ntf    sn2 8974   6.904   0.571   3.720  0.2111 -0.3778 -0.2033
 1409ntf    cn1 8975   6.948   0.704   3.604  0.1956 -0.0179  0.1994
 1409ntf    fn4 8976   6.723   0.442   3.348  0.3850 -0.3889  0.2571
 1409ntf    fn4 8977   6.540   0.549   3.369  0.2488  0.1316 -0.4174
 1409ntf    fn4 8978   6.725   0.641   3.407 -0.2998 -0.3509  0.1639
 1409ntf    on5 8979   6.590   0.568   3.681 -0.5136 -0.2675  0.0716
 1409ntf    on5 8980   6.612   0.340   3.598 -0.6331  0.2592  0.0247
 1409ntf    on5 8981   7.032   0.512   3.747  0.3425  0.3090  0.7100
 1409ntf    on5 8982   6.827   0.637   3.822 -0.1790  0.2827 -0.9063
 1409ntf    fn4 8983   6.847   0.784   3.578  0.3636  0.0902 -0.1286
 1409ntf    fn4 8984   7.046   0.780   3.650  0.4842  0.2330 -0.7984
 1409ntf    fn4 8985   6.981   0.655   3.485 -0.5202 -0.5630  0.2222
 1410ntf    cn1 8986   3.461   0.899   0.156 -0.1607  0.3851 -0.3329
 1410ntf    sn2 8987   3.564   0.964   0.291 -0.2704  0.0129 -0.0670
 1410ntf    nn3 8988   3.626   0.830   0.344  0.0543  0.2398  0.1273
 1410ntf    sn2 8989   3.757   0.758   0.294 -0.0581  0.2958 -0.2509
 1410ntf    cn1 8990   3.898   0.853   0.358 -0.1645  0.4827 -0.2957
 1410ntf    fn4 8991   3.527   0.826   0.067  0.1091 -0.0227  0.1927
 1410ntf    fn4 8992   3.367   0.821   0.208 -0.0190  0.2631 -0.2603
 1410ntf    fn4 8993   3.408   0.999   0.087 -0.1473 -0.0945 -1.0512
 1410ntf    on5 8994   3.649   1.062   0.229 -0.2329 -0.1457 -0.2714
 1410ntf    on5 8995   3.471   1.010   0.391 -0.0601 -0.4021  0.3243
 1410ntf    on5 8996   3.781   0.756   0.152  0.3832  0.5912 -0.1798
 1410ntf    on5 8997   3.781   0.629   0.355  0.6182  0.5997  0.1280
 1410ntf    fn4 8998   3.901   0.974   0.302  1.2443  0.3943 -0.4248
 1410ntf    fn4 8999   3.887   0.862   0.489  0.0973 -0.8781 -0.1706
 1410ntf    fn4 9000   4.018   0.809   0.327 -0.2671  0.2606 -0.3746
 1411ntf    cn1 9001   2.359   4.285   4.128  0.4624  0.0691 -0.0813
 1411ntf    sn2 9002   2.215   4.247   4.023  0.6301 -0.2774 -0.1874
 1411ntf    nn3 9003   2.101   4.300   4.117  0.7951 -0.7919  0.3094
 1411ntf    sn2 9004   2.007   4.215   4.210  0.0113 -0.3801 -0.0982
 1411ntf    cn1 9005   1.998   4.330   4.351 -0.2534 -0.1375 -0.3113
 1411ntf    fn4 9006   2.465   4.224   4.077  0.1927 -0.5418  0.0892
 1411ntf    fn4 9007   2.381   4.415   4.143  0.1212  0.1203 -0.0102
 1411ntf    fn4 9008   2.347   4.236   4.250 -0.5051 -0.1270 -0.2460
 1411ntf    on5 9009   2.240   4.337   3.913  0.2479 -0.1769 -0.1936
 1411ntf    on5 9010   2.217   4.107   3.992 -0.0699 -0.2066 -0.5552
 1411ntf    on5 9011   2.061   4.095   4.269  0.6913  0.1900  0.4631
 1411ntf    on5 9012   1.868   4.208   4.170 -0.2196  0.5517  0.4825
 1411ntf    fn4 9013   1.935   4.443   4.325 -0.0317  0.0867  0.1231
 1411ntf    fn4 9014   1.933   4.276   4.453  0.2756 -0.3096 -0.0622
 1411ntf    fn4 9015   2.116   4.350   4.407 -0.2228 -0.8202 -0.1242
 1412ntf    cn1 9016   4.329   1.391   4.181  0.3658  0.4437  0.0113
 1412ntf    sn2 9017   4.238   1.544   4.141 -0.4384  0.0049  0.1273
 1412ntf    nn3 9018   4.317   1.598   4.017 -0.1376  0.1131  0.3613
 1412ntf    sn2 9019   4.463   1.652   4.003 -0.1348  0.0306  0.0589
 1412ntf    cn1 9020   4.432   1.831   4.004 -0.0014  0.0546  0.0228
 1412ntf    fn4 9021   4.361   1.322   4.074 -0.0628 -0.1134  0.2384
 1412ntf    fn4 9022   4.441   1.410   4.249  0.5257 -0.2046 -0.0727
 1412ntf    fn4 9023   4.247   1.325   4.262  0.3833  0.1946 -0.1767
 1412ntf    on5 9024   4.108   1.491   4.110 -0.2948  0.0040 -0.4736
 1412ntf    on5 9025   4.257   1.623   4.261 -0.0558 -0.2764  0.2545
 1412ntf    on5 9026   4.519   1.622   3.873  0.2113  0.2659  0.1491
 1412ntf    on5 9027   4.556   1.636   4.113 -0.0322  0.5443  0.0506
 1412ntf    fn4 9028   4.359   1.874   4.106 -0.4676 -0.5680 -0.0406
 1412ntf    fn4 9029   4.543   1.903   3.999 -0.2720  0.4598 -0.2947
 1412ntf    fn4 9030   4.372   1.877   3.895 -0.2134  0.3807  0.2727
 1413ntf    cn1 9031   6.594   4.330   5.845 -0.7003 -0.3327  0.0081
 1413ntf    sn2 9032   6.454   4.446   5.855 -0.2863  0.1809 -0.1388
 1413ntf    nn3 9033   6.372   4.407   5.727 -0.0992  0.1467 -0.2494
 1413ntf    sn2 9034   6.292   4.275   5.700  0.0894  0.0350 -0.2634
 1413ntf    cn1 9035   6.134   4.362   5.678  0.1660  0.2891  0.2026
 1413ntf    fn4 9036   6.639   4.324   5.721  0.0888 -0.1289  0.2799
 1413ntf    fn4 9037   6.696   4.367   5.921 -0.6258 -0.4914 -0.0152
 1413ntf    fn4 9038   6.567   4.207   5.885 -0.1271 -0.3980  0.1967
 1413ntf    on5 9039   6.393   4.414   5.981  0.0551  0.2342  0.0424
 1413ntf    on5 9040   6.520   4.574   5.847  0.3388 -0.1721 -0.6813
 1413ntf    on5 9041   6.268   4.188   5.812  0.1648  0.6939  0.2678
 1413ntf    on5 9042   6.317   4.218   5.569  0.3460 -0.2691 -0.0826
 1413ntf    fn4 9043   6.135   4.445   5.575  0.0059 -0.0125 -0.0449
 1413ntf    fn4 9044   6.035   4.275   5.668  0.0979  0.3394  0.4361
 1413ntf    fn4 9045   6.100   4.430   5.787  0.4013  0.8060 -0.0416
 1414ntf    cn1 9046   3.661   4.423   1.396  0.2815 -0.0117  0.1606
 1414ntf    sn2 9047   3.808   4.438   1.291  0.1677  0.2642  0.0416
 1414ntf    nn3 9048   3.918   4.490   1.390 -0.1359  0.8084  0.0972
 1414ntf    sn2 9049   4.044   4.414   1.445 -0.4054  0.2226 -0.0912
 1414ntf    cn1 9050   4.078   4.508   1.597  0.1901 -0.1008 -0.0229
 1414ntf    fn4 9051   3.560   4.352   1.349  0.1496 -0.1647  0.6628
 1414ntf    fn4 9052   3.692   4.385   1.519  0.0435  0.3549  0.3343
 1414ntf    fn4 9053   3.613   4.545   1.409 -0.1175 -0.1738  0.2232
 1414ntf    on5 9054   3.828   4.303   1.246 -0.4363  0.0757  0.3398
 1414ntf    on5 9055   3.768   4.534   1.191  0.0714  0.3243  0.1370
 1414ntf    on5 9056   4.154   4.428   1.353 -0.1106 -0.0721  0.2143
 1414ntf    on5 9057   4.021   4.278   1.487 -0.1547  0.3266  0.3928
 1414ntf    fn4 9058   4.175   4.448   1.664 -0.0298 -0.0701  0.3228
 1414ntf    fn4 9059   4.119   4.630   1.564  0.0628 -0.0872 -0.1281
 1414ntf    fn4 9060   3.970   4.532   1.669  0.0267 -0.1017 -0.2690
 1415ntf    cn1 9061   0.652   3.820   5.057  0.2671 -0.3493  0.2242
 1415ntf    sn2 9062   0.651   3.794   5.237  0.0787 -0.2389  0.2404
 1415ntf    nn3 9063   0.805   3.792   5.267  0.1809 -0.4670 -0.2737
 1415ntf    sn2 9064   0.880   3.763   5.402 -0.1009  0.2775  0.0453
 1415ntf    cn1 9065   0.969   3.609   5.368 -0.2043  0.1371  0.4084
 1415ntf    fn4 9066   0.728   3.730   4.997  0.5588 -0.0112  0.0811
 1415ntf    fn4 9067   0.534   3.804   4.998  0.1744 -0.2834  0.3929
 1415ntf    fn4 9068   0.700   3.937   5.018 -0.1008 -0.2792 -0.0363
 1415ntf    on5 9069   0.574   3.904   5.288 -0.1464 -0.2807 -0.0026
 1415ntf    on5 9070   0.585   3.667   5.253 -0.3666 -0.0317  0.0551
 1415ntf    on5 9071   0.797   3.729   5.515 -0.2559 -0.3848 -0.2671
 1415ntf    on5 9072   0.984   3.859   5.432 -0.2827  0.5763 -0.2705
 1415ntf    fn4 9073   0.959   3.509   5.455  0.2499 -0.6911 -0.4683
 1415ntf    fn4 9074   0.936   3.549   5.255  0.2293  0.0751  0.3131
 1415ntf    fn4 9075   1.100   3.622   5.353 -0.2020 -0.2440  0.0593
 1416ntf    cn1 9076   0.187   1.216   4.688 -0.2620  0.1665  0.1227
 1416ntf    sn2 9077   0.075   1.326   4.779 -0.3261  0.4664 -0.3119
 1416ntf    nn3 9078  -0.024   1.219   4.837 -0.3239  0.9815  0.6659
 1416ntf    sn2 9079  -0.019   1.151   4.979  0.3410  0.4209  0.3814
 1416ntf    cn1 9080  -0.176   1.061   4.975  0.2797  0.5321  0.2209
 1416ntf    fn4 9081   0.130   1.175   4.576  0.2891 -0.7613  0.1780
 1416ntf    fn4 9082   0.295   1.276   4.641 -0.4286  0.1246 -0.3188
 1416ntf    fn4 9083   0.232   1.114   4.759 -1.2817 -0.4266 -0.0642
 1416ntf    on5 9084   0.166   1.389   4.871  0.1641 -0.3282 -0.2431
 1416ntf    on5 9085   0.024   1.419   4.681 -0.0821  0.5081 -0.4000
 1416ntf    on5 9086  -0.042   1.248   5.083 -0.0582  0.2913  0.4149
 1416ntf    on5 9087   0.071   1.041   4.999 -0.4356 -0.2782  0.0527
 1416ntf    fn4 9088  -0.186   0.987   5.084  0.2001 -0.0551 -0.1791
 1416ntf    fn4 9089  -0.281   1.141   4.967 -0.2419 -0.1858 -0.3606
 1416ntf    fn4 9090  -0.201   0.984   4.870  0.5041 -0.0809  0.6142
 1417ntf    cn1 9091   0.616   4.981   1.397  0.3451  0.1109  0.0403
 1417ntf    sn2 9092   0.492   5.060   1.503  0.1940 -0.2313  0.1213
 1417ntf    nn3 9093   0.361   4.996   1.443  0.1076  0.0647 -0.0101
 1417ntf    sn2 9094   0.232   5.075   1.402  0.1350  0.2789  0.3064
 1417ntf    cn1 9095   0.157   5.080   1.568 -0.1379  0.0799  0.1896
 1417ntf    fn4 9096   0.740   5.026   1.408  0.3538  0.1568 -0.2262
 1417ntf    fn4 9097   0.625   4.856   1.440  0.0948 -0.0573 -0.3912
 1417ntf    fn4 9098   0.591   4.981   1.267 -0.1957  0.3723  0.1445
 1417ntf    on5 9099   0.524   5.009   1.634  0.1032 -0.4874  0.0442
 1417ntf    on5 9100   0.529   5.196   1.469  0.0091 -0.1594  0.2042
 1417ntf    on5 9101   0.134   4.998   1.328  0.6951 -0.2728  0.1314
 1417ntf    on5 9102   0.245   5.215   1.373 -0.4428  0.2272 -0.2307
 1417ntf    fn4 9103   0.121   4.959   1.609 -0.1209  0.0439  0.0992
 1417ntf    fn4 9104   0.243   5.124   1.658  0.5917  0.1396 -0.5264
 1417ntf    fn4 9105   0.049   5.155   1.580 -0.1734  0.0984 -0.2168
 1418ntf    cn1 9106   4.868   2.384   6.307 -0.1210  0.2902  0.1200
 1418ntf    sn2 9107   4.928   2.220   6.358 -0.1920  0.2915  0.2076
 1418ntf    nn3 9108   4.810   2.178   6.453 -0.3883 -0.0022 -0.1634
 1418ntf    sn2 9109   4.792   2.046   6.535 -0.2790 -0.1169 -0.3238
 1418ntf    cn1 9110   4.681   1.952   6.427 -0.2766 -0.1956 -0.2584
 1418ntf    fn4 9111   4.757   2.368   6.237  0.1935 -0.2628 -0.2591
 1418ntf    fn4 9112   4.841   2.473   6.401  0.0611  0.5169 -0.0423
 1418ntf    fn4 9113   4.953   2.438   6.221  0.1219 -0.1083  0.1105
 1418ntf    on5 9114   4.941   2.147   6.235  0.6116  0.9752 -0.1178
 1418ntf    on5 9115   5.049   2.256   6.427  0.1888 -0.3671 -0.1064
 1418ntf    on5 9116   4.719   2.069   6.657 -0.2976 -0.2025 -0.3189
 1418ntf    on5 9117   4.914   1.970   6.550  0.0631  0.5020  0.1113
 1418ntf    fn4 9118   4.663   1.825   6.459  0.0180 -0.1266  0.1820
 1418ntf    fn4 9119   4.562   2.006   6.414 -0.0237  0.4186 -0.0372
 1418ntf    fn4 9120   4.723   1.949   6.301  0.4108  0.1901 -0.0425
 1419ntf    cn1 9121   3.714   3.173   5.024  0.3203  0.3161  0.3185
 1419ntf    sn2 9122   3.820   3.026   5.012 -0.3855 -0.1754  0.0382
 1419ntf    nn3 9123   3.837   2.994   4.859 -0.0501  0.3744 -0.0399
 1419ntf    sn2 9124   3.733   2.910   4.778 -0.0786  0.0992  0.2767
 1419ntf    cn1 9125   3.757   2.985   4.614 -0.3340 -0.0084  0.1892
 1419ntf    fn4 9126   3.763   3.289   4.985  0.1702  0.2349 -0.1208
 1419ntf    fn4 9127   3.601   3.163   4.956  0.4666  0.2216  0.0917
 1419ntf    fn4 9128   3.676   3.199   5.149 -0.0797  0.2193  0.2196
 1419ntf    on5 9129   3.940   3.079   5.071  0.1643 -0.6289 -0.6565
 1419ntf    on5 9130   3.749   2.932   5.095  0.6973 -1.0594 -0.0087
 1419ntf    on5 9131   3.592   2.932   4.801 -0.2310 -0.3860 -0.1684
 1419ntf    on5 9132   3.773   2.774   4.754 -0.5882 -0.0035 -0.0047
 1419ntf    fn4 9133   3.796   3.112   4.612 -0.5981  0.0817  0.6243
 1419ntf    fn4 9134   3.856   2.930   4.546 -0.4846 -0.2357  0.1542
 1419ntf    fn4 9135   3.655   2.976   4.530  0.2211  0.2618 -0.5259
 1420ntf    cn1 9136   5.898   1.853   1.051  0.2170 -0.0718  0.5018
 1420ntf    sn2 9137   5.861   1.696   0.967 -0.0200  0.2860 -0.0659
 1420ntf    nn3 9138   6.011   1.653   0.949 -0.0490  0.0379  0.2771
 1420ntf    sn2 9139   6.094   1.549   1.031  0.0897 -0.1193 -0.0633
 1420ntf    cn1 9140   6.256   1.633   1.030 -0.0242  0.1106  0.5057
 1420ntf    fn4 9141   5.793   1.922   1.093  0.1579 -0.1419  0.4703
 1420ntf    fn4 9142   5.964   1.830   1.163  0.1456  0.2052  0.6016
 1420ntf    fn4 9143   5.976   1.931   0.978  0.1015 -0.6676 -0.2702
 1420ntf    on5 9144   5.791   1.614   1.062  0.3817  0.2894  0.2300
 1420ntf    on5 9145   5.801   1.732   0.840  0.0633  0.7549  0.0250
 1420ntf    on5 9146   6.110   1.415   0.978  0.2840  0.0621 -0.4733
 1420ntf    on5 9147   6.064   1.557   1.171  0.7062 -0.1760  0.0772
 1420ntf    fn4 9148   6.351   1.565   1.093  0.0891 -0.1848  0.0252
 1420ntf    fn4 9149   6.292   1.651   0.904 -0.5274  0.0998  0.3582
 1420ntf    fn4 9150   6.244   1.755   1.078 -0.1741  0.3748 -0.1929
 1421ntf    cn1 9151   4.776   1.748   5.406  0.4040 -0.3471  0.1254
 1421ntf    sn2 9152   4.890   1.723   5.545  0.3623  0.2586  0.2717
 1421ntf    nn3 9153   5.028   1.769   5.486  0.3219 -0.0254 -0.0443
 1421ntf    sn2 9154   5.092   1.912   5.476  0.1340  0.0263 -0.5742
 1421ntf    cn1 9155   5.199   1.917   5.623 -0.5458 -0.0269 -0.0723
 1421ntf    fn4 9156   4.807   1.682   5.295 -0.5997 -0.1375 -0.2891
 1421ntf    fn4 9157   4.652   1.718   5.439  0.3541  0.2191  0.4718
 1421ntf    fn4 9158   4.760   1.875   5.371  0.9010 -0.1697  0.5200
 1421ntf    on5 9159   4.827   1.797   5.652 -0.5430 -0.5401  0.2968
 1421ntf    on5 9160   4.882   1.580   5.556 -0.2423  0.2631 -0.0774
 1421ntf    on5 9161   5.010   2.030   5.488 -0.1578 -0.2121 -0.2051
 1421ntf    on5 9162   5.190   1.922   5.371  0.9065  0.2338  0.1541
 1421ntf    fn4 9163   5.255   2.034   5.651 -0.3252 -0.1366 -0.0488
 1421ntf    fn4 9164   5.139   1.869   5.731 -0.3670 -0.1324 -0.0190
 1421ntf    fn4 9165   5.305   1.838   5.610 -0.1336  0.5723 -0.3519
 1422ntf    cn1 9166   1.803   1.239   2.494 -0.5199  0.0954  0.1929
 1422ntf    sn2 9167   1.833   1.398   2.410  0.0092  0.0036  0.2063
 1422ntf    nn3 9168   1.890   1.349   2.272 -0.2429  0.1435  0.0514
 1422ntf    sn2 9169   1.822   1.334   2.131  0.1358  0.1730 -0.1361
 1422ntf    cn1 9170   1.977   1.342   2.037  0.1337 -0.1495 -0.1700
 1422ntf    fn4 9171   1.781   1.252   2.623 -0.6847 -0.0310  0.1785
 1422ntf    fn4 9172   1.701   1.174   2.440 -0.0694 -0.3226 -0.1659
 1422ntf    fn4 9173   1.905   1.157   2.475 -0.4181  0.2520  0.0577
 1422ntf    on5 9174   1.703   1.459   2.399  0.2097  0.3634 -0.1824
 1422ntf    on5 9175   1.932   1.467   2.488  0.2511 -0.2627  0.1342
 1422ntf    on5 9176   1.746   1.444   2.077 -0.0452  0.3345  0.4425
 1422ntf    on5 9177   1.769   1.201   2.110 -0.0333  0.1595  0.3714
 1422ntf    fn4 9178   2.043   1.456   2.048 -0.2390  0.0316  0.2110
 1422ntf    fn4 9179   2.065   1.252   2.076  0.2524  0.0767  0.0884
 1422ntf    fn4 9180   1.967   1.320   1.906 -0.2258 -0.1316 -0.1474
 1423ntf    cn1 9181   6.433   3.869   3.761 -0.1094 -0.0205 -0.0629
 1423ntf    sn2 9182   6.424   3.809   3.590 -0.0529  0.0469 -0.0893
 1423ntf    nn3 9183   6.561   3.734   3.577 -0.0210  0.0883  0.0106
 1423ntf    sn2 9184   6.580   3.580   3.551  0.0220  0.1287 -0.1951
 1423ntf    cn1 9185   6.614   3.575   3.372  0.2070  0.0222 -0.1567
 1423ntf    fn4 9186   6.324   3.939   3.792 -0.2309 -0.1952 -0.0947
 1423ntf    fn4 9187   6.435   3.771   3.850  0.2005  0.1890  0.1613
 1423ntf    fn4 9188   6.541   3.941   3.784 -0.2042  0.1316 -0.0939
 1423ntf    on5 9189   6.306   3.727   3.592  0.2012 -0.3089  0.1821
 1423ntf    on5 9190   6.426   3.927   3.506 -0.7970  0.2154  0.1160
 1423ntf    on5 9191   6.462   3.499   3.569  0.4145 -0.2818  0.5932
 1423ntf    on5 9192   6.693   3.512   3.607 -0.3221 -0.1213  0.1976
 1423ntf    fn4 9193   6.522   3.632   3.297  0.0476  0.2580  0.2156
 1423ntf    fn4 9194   6.732   3.630   3.345  0.1311  0.5298  0.5325
 1423ntf    fn4 9195   6.624   3.450   3.331 -0.6335 -0.1692  0.2152
 1424ntf    cn1 9196   5.913   1.904   2.170  0.0283  0.3097  0.0571
 1424ntf    sn2 9197   5.798   1.951   2.303  0.1080  0.0106  0.2330
 1424ntf    nn3 9198   5.694   1.833   2.289  0.4261 -0.2924  0.4098
 1424ntf    sn2 9199   5.569   1.815   2.382  0.1141  0.0568  0.0616
 1424ntf    cn1 9200   5.429   1.852   2.271 -0.0554  0.1710  0.3118
 1424ntf    fn4 9201   5.985   1.799   2.206 -0.2226  0.2756  0.4759
 1424ntf    fn4 9202   5.863   1.882   2.049  0.3112 -0.2213  0.0314
 1424ntf    fn4 9203   5.999   2.002   2.147 -0.1918  0.4351 -0.2394
 1424ntf    on5 9204   5.891   1.956   2.412 -0.0186  0.3135  0.3286
 1424ntf    on5 9205   5.752   2.076   2.247 -0.5365 -0.3179  0.0148
 1424ntf    on5 9206   5.561   1.909   2.490  0.1440 -0.2434  0.3250
 1424ntf    on5 9207   5.539   1.678   2.417 -0.1113  0.1068  0.0693
 1424ntf    fn4 9208   5.420   1.768   2.169  0.0418  0.4167  0.0988
 1424ntf    fn4 9209   5.315   1.838   2.337 -0.2155  0.3234  0.0678
 1424ntf    fn4 9210   5.438   1.971   2.213 -0.2891 -0.0541 -0.1941
 1425ntf    cn1 9211   3.207   5.920   4.191  0.4408 -0.2688 -0.3046
 1425ntf    sn2 9212   3.363   5.826   4.179  0.4981 -0.1901 -0.1710
 1425ntf    nn3 9213   3.412   5.852   4.032  0.6772  0.0784 -0.0662
 1425ntf    sn2 9214   3.491   5.976   3.977  0.4011 -0.0518 -0.7675
 1425ntf    cn1 9215   3.665   5.929   3.999  0.1939 -0.5018 -0.0426
 1425ntf    fn4 9216   3.123   5.881   4.096  0.0142  0.2868 -0.1559
 1425ntf    fn4 9217   3.137   5.920   4.303  0.0457 -0.1211 -0.5509
 1425ntf    fn4 9218   3.224   6.047   4.157  0.3535 -0.1115  0.2351
 1425ntf    on5 9219   3.454   5.880   4.277 -0.1397 -0.2919  0.4854
 1425ntf    on5 9220   3.321   5.691   4.206 -0.8032  0.2492  0.1138
 1425ntf    on5 9221   3.476   6.098   4.051 -0.4182 -0.7041  0.1674
 1425ntf    on5 9222   3.481   5.992   3.834 -0.0699 -0.4304 -0.7795
 1425ntf    fn4 9223   3.708   5.934   4.124 -0.7610 -0.4306  0.2839
 1425ntf    fn4 9224   3.692   5.808   3.951  0.8313 -0.2306 -0.3930
 1425ntf    fn4 9225   3.747   6.007   3.930  0.0230  0.1962  0.5392
 1426ntf    cn1 9226   1.759   5.365   2.963  0.0924  0.2647  0.2186
 1426ntf    sn2 9227   1.729   5.502   2.848  0.0254  0.0371 -0.0376
 1426ntf    nn3 9228   1.800   5.608   2.940  0.3136 -0.1048 -0.0963
 1426ntf    sn2 9229   1.764   5.757   2.972 -0.0711 -0.1994 -0.0732
 1426ntf    cn1 9230   1.932   5.826   2.982 -0.1842  0.0858 -0.1341
 1426ntf    fn4 9231   1.752   5.399   3.090 -0.0328 -0.3963  0.3940
 1426ntf    fn4 9232   1.674   5.264   2.947 -0.2905  0.5789  0.2625
 1426ntf    fn4 9233   1.879   5.310   2.954  0.2011  0.4586  0.4708
 1426ntf    on5 9234   1.809   5.473   2.732 -0.3717  0.4936 -0.4308
 1426ntf    on5 9235   1.585   5.511   2.841 -0.0342 -0.7252  0.1591
 1426ntf    on5 9236   1.703   5.780   3.101  0.7975  0.4372  0.2422
 1426ntf    on5 9237   1.700   5.830   2.865 -0.1153 -0.4757 -0.2345
 1426ntf    fn4 9238   1.953   5.940   2.917  0.0351  0.1295  0.0116
 1426ntf    fn4 9239   1.960   5.854   3.108 -0.0105 -0.1980 -0.1101
 1426ntf    fn4 9240   2.025   5.739   2.946  0.0839  0.2595  0.1286
 1427ntf    cn1 9241   2.007   3.499   6.556  0.0455 -0.2077  0.1541
 1427ntf    sn2 9242   2.104   3.648   6.517 -0.1095 -0.2473 -0.3881
 1427ntf    nn3 9243   2.058   3.731   6.642  0.7581  0.2355 -0.3848
 1427ntf    sn2 9244   1.995   3.874   6.654  0.1639 -0.0690  0.1846
 1427ntf    cn1 9245   1.816   3.846   6.667  0.1666 -0.0867  0.1827
 1427ntf    fn4 9246   1.989   3.422   6.450 -0.2262 -0.1579  0.1608
 1427ntf    fn4 9247   2.051   3.426   6.657  0.3858  0.3685  0.4293
 1427ntf    fn4 9248   1.884   3.532   6.594  0.0572 -0.1525  0.1453
 1427ntf    on5 9249   2.238   3.595   6.525  0.1332  0.4828  0.5307
 1427ntf    on5 9250   2.061   3.686   6.385  0.0042 -0.6674 -0.5467
 1427ntf    on5 9251   2.006   3.957   6.536 -0.3861 -0.6530 -0.2884
 1427ntf    on5 9252   2.025   3.934   6.781 -0.0876  0.9482 -0.2242
 1427ntf    fn4 9253   1.776   3.768   6.767 -0.4774  0.2311  0.1793
 1427ntf    fn4 9254   1.755   3.963   6.669 -0.1073 -0.2196 -0.3294
 1427ntf    fn4 9255   1.770   3.782   6.561  0.1510  0.3998 -0.1063
 1428ntf    cn1 9256   4.727   2.758   6.323  0.1588 -0.0576 -0.1980
 1428ntf    sn2 9257   4.733   2.876   6.462 -0.1722  0.0011 -0.2330
 1428ntf    nn3 9258   4.852   2.968   6.417 -0.1159  0.2075  0.3347
 1428ntf    sn2 9259   4.999   2.952   6.468 -0.0828 -0.0188  0.1703
 1428ntf    cn1 9260   4.981   3.026   6.633  0.4338  0.3849  0.0496
 1428ntf    fn4 9261   4.626   2.673   6.331  0.4110 -0.2909  0.6464
 1428ntf    fn4 9262   4.703   2.829   6.214  0.3076  0.1383 -0.1048
 1428ntf    fn4 9263   4.831   2.680   6.302  0.1705 -0.0594 -0.1328
 1428ntf    on5 9264   4.601   2.931   6.438 -0.3957 -0.5108 -0.1916
 1428ntf    on5 9265   4.742   2.781   6.570  0.0532 -0.1982 -0.4272
 1428ntf    on5 9266   5.080   3.052   6.402 -0.5310  0.3259  0.1351
 1428ntf    on5 9267   5.056   2.820   6.478 -0.0377 -0.0321 -0.2434
 1428ntf    fn4 9268   5.093   3.015   6.702  0.2979 -0.0567  0.1991
 1428ntf    fn4 9269   4.962   3.157   6.636  0.1272  0.3438 -0.0567
 1428ntf    fn4 9270   4.887   2.978   6.712  0.3081 -0.5767 -0.6688
 1429ntf    cn1 9271   1.172   5.613   4.415  0.0715  0.2309 -0.0523
 1429ntf    sn2 9272   1.051   5.484   4.459  0.1070  0.1404 -0.2148
 1429ntf    nn3 9273   1.143   5.357   4.460 -0.0873 -0.0019 -0.5346
 1429ntf    sn2 9274   1.288   5.349   4.521 -0.3237  0.2131  0.0604
 1429ntf    cn1 9275   1.308   5.171   4.549 -0.0167  0.2128 -0.1623
 1429ntf    fn4 9276   1.228   5.586   4.298 -0.5925  0.3057 -0.3913
 1429ntf    fn4 9277   1.120   5.734   4.411  0.0713  0.2515  0.5089
 1429ntf    fn4 9278   1.267   5.626   4.506  0.0070 -0.3361  0.1021
 1429ntf    on5 9279   1.012   5.533   4.589  0.3347  0.1033 -0.1325
 1429ntf    on5 9280   0.950   5.493   4.356  0.1277 -0.1092 -0.2556
 1429ntf    on5 9281   1.301   5.413   4.649  0.5916  0.0625  0.0437
 1429ntf    on5 9282   1.391   5.375   4.424 -0.1070 -0.4435  0.1127
 1429ntf    fn4 9283   1.401   5.150   4.641 -0.3721  0.2197  0.1988
 1429ntf    fn4 9284   1.196   5.117   4.593  0.2418 -0.1713  0.0341
 1429ntf    fn4 9285   1.341   5.102   4.440  0.2705  0.1557 -0.0399
 1430ntf    cn1 9286   1.791   3.471   0.838 -0.1623  0.0572 -0.3620
 1430ntf    sn2 9287   1.668   3.396   0.727 -0.3160  0.0573 -0.1928
 1430ntf    nn3 9288   1.709   3.246   0.743 -0.5704 -0.0387 -0.4389
 1430ntf    sn2 9289   1.651   3.117   0.812  0.0436 -0.1733 -0.1682
 1430ntf    cn1 9290   1.792   3.040   0.898  0.0802  0.1481  0.0647
 1430ntf    fn4 9291   1.781   3.447   0.968  0.3764  0.0397 -0.3196
 1430ntf    fn4 9292   1.914   3.435   0.806 -0.1189  0.2794 -0.4421
 1430ntf    fn4 9293   1.795   3.603   0.833 -0.0201  0.0582 -0.2339
 1430ntf    on5 9294   1.540   3.424   0.786 -0.2356 -0.1292  0.0716
 1430ntf    on5 9295   1.700   3.447   0.596 -0.5209  0.0870 -0.2322
 1430ntf    on5 9296   1.613   3.014   0.719 -0.4644 -0.1902  0.0534
 1430ntf    on5 9297   1.561   3.140   0.923  0.2542 -0.0049 -0.0319
 1430ntf    fn4 9298   1.754   2.998   1.017  0.1220  0.4335  0.1784
 1430ntf    fn4 9299   1.852   2.942   0.832  0.2389 -0.1971  0.7185
 1430ntf    fn4 9300   1.895   3.120   0.918  0.2072 -0.0320  0.1386
 1431ntf    cn1 9301   3.242   0.755   1.153 -0.3358  0.2743 -0.1172
 1431ntf    sn2 9302   3.062   0.727   1.156 -0.3537  0.3755 -0.2402
 1431ntf    nn3 9303   3.056   0.570   1.158 -0.2351  0.3786  0.2756
 1431ntf    sn2 9304   2.945   0.477   1.219  0.4750 -0.7766 -0.1576
 1431ntf    cn1 9305   3.056   0.372   1.317  0.1993 -0.9133  0.0094
 1431ntf    fn4 9306   3.306   0.738   1.268 -0.2823  0.6947 -0.0853
 1431ntf    fn4 9307   3.304   0.676   1.066  0.2039  0.4509  0.1033
 1431ntf    fn4 9308   3.261   0.878   1.110 -0.0492  0.2137 -0.1635
 1431ntf    on5 9309   3.026   0.794   1.278  0.1387 -0.0034  0.1201
 1431ntf    on5 9310   3.023   0.791   1.033  0.1560 -0.1298 -0.6733
 1431ntf    on5 9311   2.875   0.381   1.137  0.0321 -0.2480 -0.4085
 1431ntf    on5 9312   2.867   0.532   1.327  0.6677 -0.2551 -0.2818
 1431ntf    fn4 9313   3.158   0.329   1.244  0.0601 -0.2647 -0.5752
 1431ntf    fn4 9314   3.123   0.437   1.411 -0.0925 -0.5806 -0.0097
 1431ntf    fn4 9315   2.990   0.275   1.378 -0.6880 -0.0625  0.4195
 1432ntf    cn1 9316   2.854   1.465   2.530 -0.0234  0.3441 -0.2522
 1432ntf    sn2 9317   2.933   1.454   2.693 -0.0898  0.1932 -0.2304
 1432ntf    nn3 9318   2.926   1.604   2.737  0.1938  0.2319 -0.3116
 1432ntf    sn2 9319   2.861   1.665   2.867 -0.2012 -0.0072 -0.3960
 1432ntf    cn1 9320   2.688   1.691   2.818 -0.1873  0.1896 -0.3396
 1432ntf    fn4 9321   2.865   1.354   2.459 -0.2339 -0.1300  0.4479
 1432ntf    fn4 9322   2.722   1.463   2.543 -0.0270  0.0173 -0.3104
 1432ntf    fn4 9323   2.874   1.575   2.459  0.1107  0.4749 -0.0112
 1432ntf    on5 9324   2.850   1.359   2.763  0.1080  0.2022  0.0187
 1432ntf    on5 9325   3.068   1.415   2.658 -0.0934 -0.0324  0.0061
 1432ntf    on5 9326   2.906   1.799   2.895  0.0579 -0.1267 -0.2408
 1432ntf    on5 9327   2.868   1.566   2.972 -0.1499  0.2047 -0.2014
 1432ntf    fn4 9328   2.617   1.780   2.885  0.0123 -0.0352  0.1761
 1432ntf    fn4 9329   2.692   1.744   2.697 -0.5034  0.2819 -0.3115
 1432ntf    fn4 9330   2.612   1.585   2.797 -0.1438  0.1310 -0.2038
 1433ntf    cn1 9331   4.513   1.410   1.824  0.0568 -0.1081 -0.4155
 1433ntf    sn2 9332   4.493   1.231   1.798 -0.1565 -0.1162 -0.1974
 1433ntf    nn3 9333   4.490   1.225   1.641 -0.2337  0.1909 -0.2085
 1433ntf    sn2 9334   4.607   1.233   1.537 -0.1700 -0.0970 -0.1595
 1433ntf    cn1 9335   4.614   1.060   1.481 -0.1892 -0.0658 -0.2578
 1433ntf    fn4 9336   4.627   1.453   1.773  0.4458 -0.2901  0.2894
 1433ntf    fn4 9337   4.416   1.484   1.772  0.0330 -0.0158 -0.2374
 1433ntf    fn4 9338   4.513   1.434   1.954 -0.1811  0.2402 -0.4783
 1433ntf    on5 9339   4.608   1.169   1.858 -0.4298 -0.0487  0.4032
 1433ntf    on5 9340   4.370   1.191   1.861 -0.1189 -0.3103 -0.2474
 1433ntf    on5 9341   4.738   1.252   1.594 -0.1738 -0.7652  0.0813
 1433ntf    on5 9342   4.569   1.299   1.415  0.0089  0.4493  0.0778
 1433ntf    fn4 9343   4.494   1.025   1.439 -0.0510 -0.5866 -0.2242
 1433ntf    fn4 9344   4.705   1.046   1.386  0.5647  0.1530  0.4165
 1433ntf    fn4 9345   4.650   0.969   1.569 -0.4860 -0.0134 -0.0823
 1434ntf    cn1 9346   1.363   1.649   0.030 -0.3931  0.2245 -0.4586
 1434ntf    sn2 9347   1.495   1.718  -0.074 -0.0084  0.0365 -0.0960
 1434ntf    nn3 9348   1.606   1.611  -0.043  0.0033 -0.0683 -0.4950
 1434ntf    sn2 9349   1.752   1.646   0.005 -0.1432  0.2231 -0.2567
 1434ntf    cn1 9350   1.713   1.646   0.183 -0.3993 -0.4004 -0.3102
 1434ntf    fn4 9351   1.257   1.726   0.044 -0.5443 -0.1427  0.4708
 1434ntf    fn4 9352   1.319   1.537  -0.025 -0.3590 -0.0074 -0.0148
 1434ntf    fn4 9353   1.407   1.619   0.151 -0.5136 -0.3345 -0.5472
 1434ntf    on5 9354   1.448   1.716  -0.210  0.3926 -0.3569 -0.2325
 1434ntf    on5 9355   1.522   1.848  -0.016  0.6397  0.0270 -0.3678
 1434ntf    on5 9356   1.795   1.781  -0.019  0.2010  0.2051  0.2391
 1434ntf    on5 9357   1.845   1.537  -0.010 -0.4192  0.0238 -0.5257
 1434ntf    fn4 9358   1.646   1.540   0.225 -0.4753 -0.2448 -0.0375
 1434ntf    fn4 9359   1.829   1.652   0.246 -0.3050  0.3190 -0.5406
 1434ntf    fn4 9360   1.636   1.744   0.226  0.3156  0.3521 -0.7306
 1435ntf    cn1 9361   0.993   5.090   0.147  0.0451 -0.0948 -0.2470
 1435ntf    sn2 9362   0.837   5.112   0.237  0.2289  0.1145  0.0210
 1435ntf    nn3 9363   0.735   5.077   0.123 -0.2337 -0.1531  0.5096
 1435ntf    sn2 9364   0.585   5.115   0.098 -0.1482 -0.2892 -0.2266
 1435ntf    cn1 9365   0.599   5.207  -0.058  0.4604 -0.1348 -0.0798
 1435ntf    fn4 9366   0.986   5.138   0.024  0.3205  0.0718 -0.1981
 1435ntf    fn4 9367   1.099   5.148   0.202 -0.3410  0.3920 -0.0082
 1435ntf    fn4 9368   1.030   4.965   0.124  0.6979 -0.1731  1.0915
 1435ntf    on5 9369   0.852   5.012   0.339  0.4172 -0.0467 -0.1659
 1435ntf    on5 9370   0.835   5.247   0.289  0.1179 -0.0434  0.4312
 1435ntf    on5 9371   0.535   5.210   0.194 -0.1375 -0.4733 -0.0380
 1435ntf    on5 9372   0.498   5.005   0.064  0.1299 -0.4968 -0.2715
 1435ntf    fn4 9373   0.486   5.222  -0.125  0.3894  0.1256  0.0969
 1435ntf    fn4 9374   0.646   5.328  -0.035  0.2202 -0.0994  0.2229
 1435ntf    fn4 9375   0.680   5.145  -0.143  0.1423 -0.1560 -0.3704
 1436ntf    cn1 9376   6.080   6.509   1.314 -0.3627  0.0377 -0.0223
 1436ntf    sn2 9377   6.256   6.464   1.323 -0.2685  0.3597 -0.2086
 1436ntf    nn3 9378   6.316   6.603   1.282 -0.1872  0.4554  0.2281
 1436ntf    sn2 9379   6.458   6.614   1.217 -0.0383 -0.1939  0.4307
 1436ntf    cn1 9380   6.424   6.598   1.039  0.3067 -0.1405  0.3600
 1436ntf    fn4 9381   5.998   6.411   1.346  0.0848 -0.4101 -0.2409
 1436ntf    fn4 9382   6.060   6.623   1.380 -0.3164 -0.1649  0.3451
 1436ntf    fn4 9383   6.046   6.539   1.190  0.0986 -0.5285 -0.2888
 1436ntf    on5 9384   6.278   6.425   1.460  0.2701  0.1458 -0.3555
 1436ntf    on5 9385   6.264   6.359   1.224 -0.3401 -0.1089  0.2741
 1436ntf    on5 9386   6.555   6.513   1.253 -0.5458 -0.7546  0.2404
 1436ntf    on5 9387   6.505   6.750   1.230  0.1664 -0.1839 -0.3650
 1436ntf    fn4 9388   6.345   6.689   0.986  0.4365 -0.1458  0.1546
 1436ntf    fn4 9389   6.535   6.595   0.966  0.0277 -0.3878 -0.0585
 1436ntf    fn4 9390   6.359   6.486   1.013 -0.5610  0.5109 -0.3231
 1437ntf    cn1 9391   1.525   1.201   6.213  0.2288  0.0926 -0.1341
 1437ntf    sn2 9392   1.373   1.276   6.279  0.3186  0.1704 -0.0151
 1437ntf    nn3 9393   1.296   1.141   6.300  0.0639  0.3078 -0.0549
 1437ntf    sn2 9394   1.173   1.080   6.224  0.2162 -0.0727  0.0010
 1437ntf    cn1 9395   1.093   1.000   6.367 -0.1489 -0.3177 -0.3374
 1437ntf    fn4 9396   1.503   1.159   6.090  0.5984 -0.1095 -0.1320
 1437ntf    fn4 9397   1.631   1.280   6.222  0.2407  0.0031  0.5484
 1437ntf    fn4 9398   1.558   1.088   6.274  0.1546  0.3163  0.3276
 1437ntf    on5 9399   1.415   1.334   6.404  0.2058  0.4318 -0.0984
 1437ntf    on5 9400   1.324   1.368   6.180 -0.7309 -0.5896 -0.2144
 1437ntf    on5 9401   1.202   0.962   6.147  0.1882  0.0119 -0.1378
 1437ntf    on5 9402   1.073   1.176   6.184  0.3058 -0.0322 -0.1272
 1437ntf    fn4 9403   1.172   0.920   6.436  0.1321 -0.3641 -0.7087
 1437ntf    fn4 9404   1.061   1.093   6.456 -0.0426 -0.2637 -0.3547
 1437ntf    fn4 9405   0.983   0.933   6.339 -0.0603 -0.5091 -0.2256
 1438ntf    cn1 9406   5.053   3.190   0.937 -0.4016  0.0976  0.3367
 1438ntf    sn2 9407   5.053   3.148   0.760  0.1058 -0.0261  0.3662
 1438ntf    nn3 9408   5.197   3.198   0.723  0.1642 -0.2982  0.2209
 1438ntf    sn2 9409   5.278   3.176   0.590 -0.1054  0.0844 -0.0134
 1438ntf    cn1 9410   5.340   3.344   0.560  0.3632 -0.0740  0.0499
 1438ntf    fn4 9411   5.059   3.321   0.958 -0.0840  0.1436 -0.0421
 1438ntf    fn4 9412   4.935   3.155   0.987 -0.4934  0.0710  0.1003
 1438ntf    fn4 9413   5.147   3.132   1.010 -0.0803  0.0526 -0.1128
 1438ntf    on5 9414   5.045   3.004   0.774  0.1675 -0.0707 -0.0544
 1438ntf    on5 9415   4.944   3.223   0.704  0.4430 -0.0159 -0.2792
 1438ntf    on5 9416   5.201   3.152   0.471  0.3267 -0.7318 -0.1429
 1438ntf    on5 9417   5.400   3.099   0.604 -0.0184  0.1946 -0.1643
 1438ntf    fn4 9418   5.452   3.356   0.629  0.2075 -0.0477  0.3005
 1438ntf    fn4 9419   5.368   3.359   0.432 -0.0957 -0.1570 -0.0625
 1438ntf    fn4 9420   5.253   3.439   0.592  0.2890 -0.1409  0.0485
 1439ntf    cn1 9421   6.212   1.583   0.377 -0.0708  0.1639  0.0290
 1439ntf    sn2 9422   6.315   1.733   0.382 -0.2458  0.2917 -0.1950
 1439ntf    nn3 9423   6.353   1.723   0.230 -0.6895 -0.2811 -0.2739
 1439ntf    sn2 9424   6.423   1.838   0.150 -0.4473 -0.3787 -0.2043
 1439ntf    cn1 9425   6.540   1.911   0.268 -0.6508 -0.1608 -0.1366
 1439ntf    fn4 9426   6.096   1.583   0.313  0.1758 -0.4645 -0.4204
 1439ntf    fn4 9427   6.277   1.482   0.322 -0.1892 -0.1720  0.4942
 1439ntf    fn4 9428   6.195   1.549   0.504 -0.0719  0.3873  0.0896
 1439ntf    on5 9429   6.222   1.841   0.403 -0.2006  0.3279 -0.1826
 1439ntf    on5 9430   6.422   1.705   0.474 -0.0618 -0.2078 -0.5549
 1439ntf    on5 9431   6.338   1.954   0.134 -0.0781 -0.1138 -0.2646
 1439ntf    on5 9432   6.505   1.797   0.038 -0.0229  0.5819 -0.2570
 1439ntf    fn4 9433   6.472   1.970   0.365 -0.8765  0.1319 -0.4669
 1439ntf    fn4 9434   6.626   1.826   0.321 -0.2790  0.2173 -0.1238
 1439ntf    fn4 9435   6.618   2.000   0.207 -0.1619 -0.6856 -0.2859
 1440ntf    cn1 9436   2.497   5.822   0.384  0.0215 -0.2338  0.0863
 1440ntf    sn2 9437   2.644   5.786   0.484 -0.0185 -0.2334  0.1453
 1440ntf    nn3 9438   2.604   5.644   0.537 -0.3995 -0.2251 -0.1193
 1440ntf    sn2 9439   2.579   5.594   0.684 -0.3350 -0.3040 -0.1353
 1440ntf    cn1 9440   2.745   5.527   0.719 -0.0579  0.5059  0.1340
 1440ntf    fn4 9441   2.459   5.724   0.305 -0.2644  0.0824 -0.1724
 1440ntf    fn4 9442   2.394   5.856   0.461 -0.4026 -0.3777 -0.4069
 1440ntf    fn4 9443   2.497   5.929   0.306  0.5223  0.1954  0.6667
 1440ntf    on5 9444   2.748   5.785   0.384 -0.7029  0.0447 -0.5792
 1440ntf    on5 9445   2.650   5.891   0.583 -0.1734  0.0735 -0.1656
 1440ntf    on5 9446   2.495   5.477   0.680 -0.1668 -0.4166 -0.4105
 1440ntf    on5 9447   2.549   5.697   0.780 -0.5138 -1.0816  0.6601
 1440ntf    fn4 9448   2.768   5.417   0.648 -0.1025  0.5429  0.0610
 1440ntf    fn4 9449   2.843   5.607   0.682  0.4097 -0.1873 -0.1378
 1440ntf    fn4 9450   2.765   5.499   0.847  0.1751 -0.4084 -0.0920
 1441ntf    cn1 9451   5.153   5.349   5.792  0.0346 -0.4327 -0.0696
 1441ntf    sn2 9452   5.171   5.171   5.826  0.0135 -0.3898  0.1648
 1441ntf    nn3 9453   5.097   5.100   5.707  0.2476 -0.4611  0.0613
 1441ntf    sn2 9454   4.944   5.066   5.697  0.0948  0.2949 -0.2906
 1441ntf    cn1 9455   4.920   5.032   5.520 -0.0138 -0.1649 -0.1884
 1441ntf    fn4 9456   5.234   5.428   5.859 -0.5459  0.3054 -0.2297
 1441ntf    fn4 9457   5.150   5.394   5.667 -0.1973  0.6548  0.3209
 1441ntf    fn4 9458   5.035   5.392   5.834  0.2136 -0.2664  0.2642
 1441ntf    on5 9459   5.313   5.145   5.823  0.0261 -0.2783 -0.3368
 1441ntf    on5 9460   5.108   5.155   5.955 -0.0563  0.4570  0.2414
 1441ntf    on5 9461   4.859   5.181   5.716  0.0778  0.2703 -0.2137
 1441ntf    on5 9462   4.901   4.941   5.755 -0.2053  0.6354  0.2321
 1441ntf    fn4 9463   4.981   4.922   5.477  0.2095 -0.0320 -0.2117
 1441ntf    fn4 9464   4.790   5.015   5.505 -0.0584  0.5183 -0.5820
 1441ntf    fn4 9465   4.962   5.130   5.442  0.1539 -0.2929 -0.2620
 1442ntf    cn1 9466   0.523   6.580   5.017  0.7496 -0.1179  0.2851
 1442ntf    sn2 9467   0.487   6.557   4.840  0.1131 -0.1409  0.4179
 1442ntf    nn3 9468   0.582   6.444   4.788  0.1813 -0.3893  1.0678
 1442ntf    sn2 9469   0.548   6.308   4.716 -0.2052  0.3335 -0.1415
 1442ntf    cn1 9470   0.686   6.210   4.781 -0.0909  0.6208  0.0527
 1442ntf    fn4 9471   0.510   6.465   5.081 -0.0080 -0.1795  0.0269
 1442ntf    fn4 9472   0.651   6.612   5.023  0.7441  0.0715 -0.4483
 1442ntf    fn4 9473   0.447   6.670   5.077  0.2082 -0.0527 -0.4789
 1442ntf    on5 9474   0.348   6.516   4.846  0.1349 -0.3415 -0.3776
 1442ntf    on5 9475   0.517   6.684   4.780  0.0623 -0.2053  0.2567
 1442ntf    on5 9476   0.569   6.299   4.574 -0.5296 -0.2921 -0.1523
 1442ntf    on5 9477   0.438   6.243   4.783 -0.1508  0.4685  0.0776
 1442ntf    fn4 9478   0.674   6.197   4.912 -0.1903  0.5326  0.0350
 1442ntf    fn4 9479   0.694   6.087   4.733 -0.3422  0.4682  0.4031
 1442ntf    fn4 9480   0.807   6.261   4.760  0.3021 -0.5014 -0.5224
 1443ntf    cn1 9481   5.063   1.860   3.888  0.2289  0.0379  0.2372
 1443ntf    sn2 9482   5.030   1.999   4.000  0.3972  0.0843  0.2299
 1443ntf    nn3 9483   5.066   2.117   3.903  0.0958 -0.1883 -0.2204
 1443ntf    sn2 9484   4.977   2.237   3.857  0.0978 -0.2532 -0.3943
 1443ntf    cn1 9485   5.106   2.365   3.849 -0.0847 -0.0671 -0.3747
 1443ntf    fn4 9486   4.985   1.867   3.782  0.2895 -0.1303  0.1815
 1443ntf    fn4 9487   5.186   1.838   3.844 -0.0649 -0.2155 -0.4672
 1443ntf    fn4 9488   5.030   1.747   3.948 -0.6935  0.2746  0.1912
 1443ntf    on5 9489   4.891   1.990   4.039  0.3403 -0.2258 -0.0393
 1443ntf    on5 9490   5.128   1.995   4.105  0.2673  0.6375  0.3744
 1443ntf    on5 9491   4.887   2.294   3.955 -0.1259 -0.4316 -0.4942
 1443ntf    on5 9492   4.939   2.239   3.718  0.5129  0.4592 -0.5021
 1443ntf    fn4 9493   5.196   2.340   3.756  0.3263  0.1169 -0.0267
 1443ntf    fn4 9494   5.057   2.485   3.822  0.0779 -0.0001 -0.3725
 1443ntf    fn4 9495   5.174   2.379   3.961  0.0424  0.4910 -0.5184
 1444ntf    cn1 9496   5.708   4.050   3.448  0.0431  0.1836  0.6265
 1444ntf    sn2 9497   5.680   3.875   3.490 -0.2576  0.0709 -0.0340
 1444ntf    nn3 9498   5.694   3.807   3.349  0.2919 -0.4479  0.2649
 1444ntf    sn2 9499   5.580   3.761   3.251  0.1024  0.0853  0.2326
 1444ntf    cn1 9500   5.575   3.587   3.303  0.4190  0.1550  0.4982
 1444ntf    fn4 9501   5.628   4.099   3.355  0.1881  0.2638  0.5441
 1444ntf    fn4 9502   5.706   4.133   3.550  0.3196  0.4340  0.4280
 1444ntf    fn4 9503   5.832   4.061   3.404 -0.0707 -0.2799  0.1720
 1444ntf    on5 9504   5.793   3.841   3.573  0.1688 -0.7336 -0.9197
 1444ntf    on5 9505   5.551   3.868   3.554 -0.1192  0.2481  0.2680
 1444ntf    on5 9506   5.620   3.760   3.113 -0.2764  0.5404  0.1151
 1444ntf    on5 9507   5.442   3.795   3.276  0.2215  0.2232  0.7060
 1444ntf    fn4 9508   5.536   3.575   3.429  0.4092  0.3496  0.5135
 1444ntf    fn4 9509   5.481   3.513   3.246  0.0844  0.5272  0.5620
 1444ntf    fn4 9510   5.686   3.515   3.295  0.4283  0.2150  0.0527
 1445ntf    cn1 9511   6.603   2.627   2.717  0.1250  0.1479  0.1749
 1445ntf    sn2 9512   6.742   2.740   2.746  0.4413 -0.1799 -0.0514
 1445ntf    nn3 9513   6.844   2.702   2.633  0.1760 -0.1500 -0.3019
 1445ntf    sn2 9514   6.964   2.602   2.652  0.0659 -0.2501 -0.1323
 1445ntf    cn1 9515   7.072   2.701   2.760 -0.1047  0.3362 -0.4905
 1445ntf    fn4 9516   6.564   2.628   2.591  0.7155 -0.1196 -0.0179
 1445ntf    fn4 9517   6.640   2.504   2.749 -0.2411  0.0407  0.1893
 1445ntf    fn4 9518   6.495   2.648   2.790 -0.1799 -0.2301 -0.1587
 1445ntf    on5 9519   6.691   2.873   2.721  0.2756 -0.1773  0.2942
 1445ntf    on5 9520   6.774   2.713   2.884  0.2911 -0.4521 -0.0696
 1445ntf    on5 9521   7.041   2.585   2.531  0.3891 -0.1701  0.0590
 1445ntf    on5 9522   6.923   2.488   2.731 -0.4902 -0.2311 -0.3897
 1445ntf    fn4 9523   7.081   2.671   2.889 -0.0432 -0.3949 -0.6588
 1445ntf    fn4 9524   7.196   2.705   2.715  0.1784  0.1857  0.2530
 1445ntf    fn4 9525   7.037   2.828   2.760 -0.1116  0.3344 -0.4291
 1446ntf    cn1 9526   3.560   1.862   1.030 -0.5234  0.0443  0.1145
 1446ntf    sn2 9527   3.510   2.036   1.012  0.3056  0.2811  0.0868
 1446ntf    nn3 9528   3.437   2.054   1.150  0.0653 -0.0233  0.0004
 1446ntf    sn2 9529   3.284   2.040   1.183  0.0352 -0.0975 -0.1714
 1446ntf    cn1 9530   3.230   2.212   1.205  0.3061  0.0013 -0.2674
 1446ntf    fn4 9531   3.661   1.853   1.115 -0.0308 -0.0174 -0.4693
 1446ntf    fn4 9532   3.464   1.785   1.078 -0.5816  0.3656  0.5144
 1446ntf    fn4 9533   3.602   1.809   0.916 -0.6520 -0.6331  0.3805
 1446ntf    on5 9534   3.632   2.114   1.009  0.2368  0.3758 -0.2178
 1446ntf    on5 9535   3.430   2.040   0.893  0.4119  0.2048  0.0122
 1446ntf    on5 9536   3.261   1.982   1.313 -0.0694  0.1236 -0.0909
 1446ntf    on5 9537   3.198   1.998   1.075  0.2926 -0.2699 -0.3108
 1446ntf    fn4 9538   3.107   2.218   1.252  0.1032 -0.2300 -0.7613
 1446ntf    fn4 9539   3.302   2.278   1.295 -0.4257 -0.0309  0.3533
 1446ntf    fn4 9540   3.241   2.280   1.092  0.0105  0.3483 -0.0895
 1447ntf    cn1 9541   5.893   3.973   2.500  0.2016 -0.1351  0.0134
 1447ntf    sn2 9542   5.712   3.955   2.485  0.1926 -0.0640  0.0360
 1447ntf    nn3 9543   5.704   3.800   2.463 -0.2651 -0.0482  0.0886
 1447ntf    sn2 9544   5.711   3.733   2.321 -0.1865 -0.0441  0.0907
 1447ntf    cn1 9545   5.545   3.769   2.258 -0.1072  0.1669  0.0020
 1447ntf    fn4 9546   5.957   3.959   2.386  0.0973 -0.3914 -0.0146
 1447ntf    fn4 9547   5.916   4.089   2.559 -0.3467  0.1500 -0.3201
 1447ntf    fn4 9548   5.946   3.888   2.587  0.0461 -0.0423  0.2005
 1447ntf    on5 9549   5.657   3.986   2.615  0.4448  0.1856  0.0850
 1447ntf    on5 9550   5.677   4.036   2.371 -0.6686 -0.2198  0.1885
 1447ntf    on5 9551   5.711   3.590   2.340 -0.1096 -0.0369  0.1503
 1447ntf    on5 9552   5.804   3.796   2.230 -0.4680 -0.0384 -0.1936
 1447ntf    fn4 9553   5.513   3.663   2.186 -0.1610  0.0364  0.2157
 1447ntf    fn4 9554   5.452   3.783   2.351 -0.1269  0.4235 -0.0556
 1447ntf    fn4 9555   5.528   3.873   2.178 -0.5619  0.0016 -0.1212
 1448ntf    cn1 9556   0.284   3.451   1.983  0.2325 -0.1626  0.3736
 1448ntf    sn2 9557   0.296   3.555   1.835  0.1483 -0.1115  0.4024
 1448ntf    nn3 9558   0.402   3.664   1.877 -0.1246  0.2335  0.2020
 1448ntf    sn2 9559   0.558   3.665   1.865 -0.1317 -0.0717  0.0702
 1448ntf    cn1 9560   0.617   3.747   2.017  0.1636  0.4510 -0.3240
 1448ntf    fn4 9561   0.223   3.516   2.081  0.0660  0.3294 -0.0524
 1448ntf    fn4 9562   0.222   3.335   1.966  0.2861 -0.1507  0.0884
 1448ntf    fn4 9563   0.406   3.421   2.026  0.1066 -0.1919  0.7133
 1448ntf    on5 9564   0.330   3.463   1.729  0.0441 -0.1627  0.4137
 1448ntf    on5 9565   0.171   3.627   1.827  0.1955  0.0153  0.7602
 1448ntf    on5 9566   0.604   3.760   1.767 -0.4333 -0.0205 -0.0208
 1448ntf    on5 9567   0.625   3.537   1.872 -0.2881 -0.1769 -0.3548
 1448ntf    fn4 9568   0.643   3.656   2.109 -0.1320  0.6363 -0.0559
 1448ntf    fn4 9569   0.734   3.808   2.003  0.3603  0.1139 -0.1584
 1448ntf    fn4 9570   0.527   3.828   2.069 -0.0908 -0.3374  0.4890
 1449ntf    cn1 9571   3.217   0.629   4.040  0.2161 -0.4147  0.6017
 1449ntf    sn2 9572   3.086   0.504   4.056 -0.0278 -0.2033  0.2927
 1449ntf    nn3 9573   3.159   0.396   4.144 -0.3418 -0.3004  0.4346
 1449ntf    sn2 9574   3.210   0.399   4.292  0.3650  0.1853  0.1879
 1449ntf    cn1 9575   3.068   0.334   4.385  0.0360  0.5581 -0.0496
 1449ntf    fn4 9576   3.181   0.716   3.946 -0.2681 -0.9562  0.2751
 1449ntf    fn4 9577   3.229   0.702   4.150  0.0154 -0.1005  0.4186
 1449ntf    fn4 9578   3.332   0.577   4.000  0.0518 -0.0715 -0.3611
 1449ntf    on5 9579   2.978   0.578   4.115  0.0047 -0.4842  0.7052
 1449ntf    on5 9580   3.063   0.464   3.919  0.3212  0.1526  0.1280
 1449ntf    on5 9581   3.213   0.525   4.361 -0.0628  0.0769  0.4104
 1449ntf    on5 9582   3.314   0.301   4.318  0.2688 -0.0022 -0.1255
 1449ntf    fn4 9583   2.953   0.399   4.386 -0.0692  0.3734  0.0025
 1449ntf    fn4 9584   3.037   0.210   4.349  0.5497  0.4273 -0.0506
 1449ntf    fn4 9585   3.106   0.322   4.512 -0.8668 -0.7149  0.1269
 1450ntf    cn1 9586   1.000   1.315   5.324  0.2030  0.1209 -0.6142
 1450ntf    sn2 9587   1.134   1.311   5.446 -0.0581 -0.2022 -0.3373
 1450ntf    nn3 9588   1.078   1.221   5.562 -0.4838  0.3283 -0.1290
 1450ntf    sn2 9589   1.013   1.256   5.700 -0.0127  0.3766  0.0829
 1450ntf    cn1 9590   1.150   1.295   5.813  0.0584  0.1007  0.0909
 1450ntf    fn4 9591   1.012   1.393   5.217 -0.5045  0.2036 -0.6420
 1450ntf    fn4 9592   0.980   1.194   5.276 -0.7497  0.0117  0.0330
 1450ntf    fn4 9593   0.883   1.337   5.381  0.3287 -0.0667 -0.2852
 1450ntf    on5 9594   1.233   1.243   5.365  0.6019  0.5532 -0.1796
 1450ntf    on5 9595   1.144   1.454   5.458  0.7297 -0.2145 -0.7551
 1450ntf    on5 9596   0.945   1.140   5.752 -0.1783  0.4687  0.0740
 1450ntf    on5 9597   0.948   1.385   5.691 -0.3630  0.1516 -0.7261
 1450ntf    fn4 9598   1.219   1.183   5.825  0.2229  0.1851 -0.0647
 1450ntf    fn4 9599   1.231   1.390   5.771 -0.3343  0.3695 -0.0646
 1450ntf    fn4 9600   1.113   1.331   5.935  0.0011 -0.2054  0.1655
 1451ntf    cn1 9601   2.612   1.002   2.030  0.0165  0.0639 -0.0884
 1451ntf    sn2 9602   2.568   0.835   2.089  0.4617 -0.1256 -0.2828
 1451ntf    nn3 9603   2.653   0.822   2.220  0.1340 -0.4950 -0.1060
 1451ntf    sn2 9604   2.614   0.859   2.368 -0.0935 -0.0119 -0.2845
 1451ntf    cn1 9605   2.759   0.953   2.425 -0.0487 -0.3446  0.1552
 1451ntf    fn4 9606   2.740   1.018   2.000 -0.0094 -0.0078 -0.2390
 1451ntf    fn4 9607   2.554   1.034   1.916  0.1238 -0.0393 -0.1724
 1451ntf    fn4 9608   2.587   1.097   2.119 -0.0243  0.0307 -0.0640
 1451ntf    on5 9609   2.425   0.849   2.107  0.4649 -0.4404 -0.0098
 1451ntf    on5 9610   2.611   0.746   1.985  0.1931 -0.2088 -0.3246
 1451ntf    on5 9611   2.605   0.749   2.461  0.0975  0.2262  0.0159
 1451ntf    on5 9612   2.509   0.955   2.384 -0.2599 -0.3252  0.5128
 1451ntf    fn4 9613   2.752   0.974   2.555  0.1333 -0.1864  0.1403
 1451ntf    fn4 9614   2.871   0.889   2.394  0.0050 -0.1709 -0.0076
 1451ntf    fn4 9615   2.772   1.073   2.372 -0.0117 -0.0741  0.7788
 1452ntf    cn1 9616   3.492   3.399   3.321 -0.2864 -0.2610  0.2888
 1452ntf    sn2 9617   3.447   3.541   3.218  0.2492 -0.1770  0.1672
 1452ntf    nn3 9618   3.554   3.529   3.104 -0.1984  0.1562 -0.2956
 1452ntf    sn2 9619   3.670   3.629   3.069 -0.0451  0.0360 -0.1292
 1452ntf    cn1 9620   3.712   3.567   2.903  0.0333  0.0546 -0.1162
 1452ntf    fn4 9621   3.616   3.417   3.363 -0.3717  0.4063  0.2589
 1452ntf    fn4 9622   3.418   3.397   3.431 -0.4779  0.5589  0.1795
 1452ntf    fn4 9623   3.490   3.276   3.273 -0.0469 -0.0607 -0.2388
 1452ntf    on5 9624   3.317   3.509   3.164  0.1897  0.3098  0.0154
 1452ntf    on5 9625   3.448   3.656   3.305  0.2195 -0.2104  0.2113
 1452ntf    on5 9626   3.798   3.613   3.135  0.1609  0.2317 -0.4790
 1452ntf    on5 9627   3.624   3.760   3.032  0.0661  0.0528 -0.2073
 1452ntf    fn4 9628   3.606   3.573   2.824 -0.2222  0.4657  0.2510
 1452ntf    fn4 9629   3.810   3.635   2.846  0.1091  0.1226  0.0930
 1452ntf    fn4 9630   3.758   3.443   2.908  0.2381  0.1522  0.5888
 1453ntf    cn1 9631   1.901   5.007   5.411 -0.6742  0.0531 -0.1675
 1453ntf    sn2 9632   1.835   5.107   5.548  0.1218  0.2207  0.1006
 1453ntf    nn3 9633   1.907   5.055   5.677  0.0035 -0.0914  0.0422
 1453ntf    sn2 9634   1.849   4.941   5.770  0.1630 -0.1856  0.0258
 1453ntf    cn1 9635   1.733   5.034   5.874  0.2625 -0.0959  0.0577
 1453ntf    fn4 9636   1.912   4.876   5.428 -0.4883  0.1742  0.6778
 1453ntf    fn4 9637   1.835   5.026   5.298 -0.3967 -0.0225 -0.3437
 1453ntf    fn4 9638   2.028   5.041   5.391 -0.6533  0.2947  0.3764
 1453ntf    on5 9639   1.878   5.234   5.495 -0.6101  0.3078 -0.2942
 1453ntf    on5 9640   1.695   5.079   5.533  0.2453 -0.5197  0.2900
 1453ntf    on5 9641   1.940   4.894   5.871 -0.2196 -0.2495  0.3408
 1453ntf    on5 9642   1.771   4.837   5.707 -0.2322  0.4583 -0.5658
 1453ntf    fn4 9643   1.788   5.144   5.922  0.3590  0.0021 -0.2714
 1453ntf    fn4 9644   1.627   5.078   5.808  0.3790  0.1484  0.0326
 1453ntf    fn4 9645   1.688   4.959   5.973  0.3256 -0.0338  0.1339
 1454ntf    cn1 9646   0.153   1.302   2.596 -0.1611 -0.1397 -0.3330
 1454ntf    sn2 9647   0.257   1.188   2.693 -0.1559 -0.1747 -0.3798
 1454ntf    nn3 9648   0.149   1.109   2.775  0.2985 -0.6884 -0.2766
 1454ntf    sn2 9649   0.108   1.134   2.924  0.0261 -0.3871 -0.4015
 1454ntf    cn1 9650  -0.057   1.058   2.925 -0.0484 -0.2231 -0.3770
 1454ntf    fn4 9651   0.062   1.236   2.526  0.0471 -0.5666 -0.2030
 1454ntf    fn4 9652   0.079   1.376   2.678  0.1234 -0.1397 -0.0727
 1454ntf    fn4 9653   0.209   1.390   2.515 -0.5587 -0.0955 -0.5625
 1454ntf    on5 9654   0.302   1.100   2.588  0.8171 -0.1686  0.0224
 1454ntf    on5 9655   0.359   1.269   2.755 -0.1573 -0.0447 -0.5453
 1454ntf    on5 9656   0.079   1.268   2.968  0.8585 -0.5041  0.5402
 1454ntf    on5 9657   0.189   1.049   3.008 -0.6420 -0.3011  0.3406
 1454ntf    fn4 9658  -0.053   0.934   2.880 -0.3625 -0.2360 -0.3712
 1454ntf    fn4 9659  -0.116   1.056   3.043  0.4847 -0.1431 -0.1067
 1454ntf    fn4 9660  -0.143   1.118   2.844  0.1084  0.0472 -0.3459
 1455ntf    cn1 9661   1.734   4.699   2.534  0.6865 -0.0814  0.3217
 1455ntf    sn2 9662   1.633   4.674   2.683 -0.0036  0.1962 -0.0974
 1455ntf    nn3 9663   1.573   4.536   2.637  0.0197  0.1969 -0.1297
 1455ntf    sn2 9664   1.640   4.395   2.643  0.0512  0.2213  0.0876
 1455ntf    cn1 9665   1.568   4.324   2.794 -0.1545  0.0301 -0.0990
 1455ntf    fn4 9666   1.666   4.671   2.424  0.4644  0.0549  0.4258
 1455ntf    fn4 9667   1.771   4.826   2.532 -0.0223  0.1240 -0.2076
 1455ntf    fn4 9668   1.844   4.625   2.537  0.5989 -0.2306 -0.0783
 1455ntf    on5 9669   1.732   4.662   2.786 -0.0543 -0.0796 -0.0791
 1455ntf    on5 9670   1.541   4.785   2.692 -0.3010 -0.0624  0.0690
 1455ntf    on5 9671   1.783   4.391   2.660  0.0238  0.2519  0.3328
 1455ntf    on5 9672   1.591   4.303   2.543 -0.7584  0.8087 -0.0658
 1455ntf    fn4 9673   1.638   4.220   2.837  0.0217 -0.2023 -0.9274
 1455ntf    fn4 9674   1.558   4.412   2.893 -0.2013  0.3827 -0.4166
 1455ntf    fn4 9675   1.445   4.278   2.782 -0.2161  0.2223 -0.2098
 1456ntf    cn1 9676   0.983   1.820   3.528 -0.1669 -0.3635 -0.4847
 1456ntf    sn2 9677   1.012   1.968   3.427 -0.2683 -0.0043  0.0096
 1456ntf    nn3 9678   0.960   2.073   3.532  0.4853 -0.1093  0.4902
 1456ntf    sn2 9679   0.846   2.178   3.509  0.3290 -0.3557  0.1359
 1456ntf    cn1 9680   0.948   2.328   3.522  0.3345 -0.3472  0.0061
 1456ntf    fn4 9681   1.021   1.708   3.469  0.2034 -0.3615 -0.2519
 1456ntf    fn4 9682   1.057   1.838   3.637 -0.5981  0.0259 -0.2518
 1456ntf    fn4 9683   0.859   1.797   3.567 -0.1137 -0.2742 -0.2585
 1456ntf    on5 9684   1.154   1.975   3.407 -0.3053  0.0178 -0.2422
 1456ntf    on5 9685   0.930   1.950   3.309 -0.3954 -0.0152  0.0986
 1456ntf    on5 9686   0.752   2.187   3.618  0.0360 -0.0326 -0.1430
 1456ntf    on5 9687   0.792   2.187   3.375 -0.1855 -0.3944  0.3381
 1456ntf    fn4 9688   1.043   2.334   3.430  0.0843  0.2065 -0.2218
 1456ntf    fn4 9689   0.879   2.441   3.515  0.3850 -0.3171  0.0001
 1456ntf    fn4 9690   1.010   2.337   3.639 -0.4883 -0.6055  0.4666
 1457ntf    cn1 9691   5.390   3.871   4.270 -0.0126 -0.1595  0.3353
 1457ntf    sn2 9692   5.472   4.008   4.357 -0.0178  0.3191 -0.4014
 1457ntf    nn3 9693   5.385   4.030   4.485  0.3594 -0.2335 -0.0440
 1457ntf    sn2 9694   5.428   4.015   4.635 -0.1021 -0.1329  0.1024
 1457ntf    cn1 9695   5.474   4.188   4.663 -0.0793 -0.1230  0.0067
 1457ntf    fn4 9696   5.259   3.862   4.274 -0.0518  0.0297 -0.2768
 1457ntf    fn4 9697   5.429   3.871   4.143  0.1760  0.7667  0.3842
 1457ntf    fn4 9698   5.428   3.757   4.326  0.1404 -0.0630  0.4304
 1457ntf    on5 9699   5.603   3.952   4.379 -0.3660 -0.5872 -0.6085
 1457ntf    on5 9700   5.465   4.115   4.261  0.6312  0.5327 -0.2171
 1457ntf    on5 9701   5.549   3.944   4.670  0.3320  0.3404 -0.4301
 1457ntf    on5 9702   5.312   3.991   4.718 -0.0398  0.2385  0.2955
 1457ntf    fn4 9703   5.563   4.240   4.580  0.0043  0.1589  0.2664
 1457ntf    fn4 9704   5.373   4.273   4.674  0.1857  0.1772  0.1479
 1457ntf    fn4 9705   5.534   4.198   4.781 -0.3194  0.0832  0.1135
 1458ntf    cn1 9706   0.786   4.679   0.920 -0.2546  0.5344  0.1492
 1458ntf    sn2 9707   0.700   4.548   1.012  0.0508  0.2089 -0.0259
 1458ntf    nn3 9708   0.689   4.613   1.154  0.1583  0.2540 -0.0378
 1458ntf    sn2 9709   0.756   4.584   1.293  0.3173  0.0738 -0.1533
 1458ntf    cn1 9710   0.870   4.725   1.309  0.0467  0.2459  0.2579
 1458ntf    fn4 9711   0.912   4.690   0.960 -0.1173  0.3457 -0.2213
 1458ntf    fn4 9712   0.790   4.648   0.791  0.0365 -0.2872  0.3500
 1458ntf    fn4 9713   0.725   4.796   0.928 -0.3101  0.4709  0.6601
 1458ntf    on5 9714   0.569   4.542   0.953 -0.0184 -0.2180  0.1728
 1458ntf    on5 9715   0.779   4.428   0.999  0.1645  0.2787  0.0209
 1458ntf    on5 9716   0.828   4.459   1.296  0.4556  0.1569  0.0168
 1458ntf    on5 9717   0.665   4.602   1.403 -0.0852  0.3214 -0.5231
 1458ntf    fn4 9718   0.985   4.707   1.248  0.0886 -0.8367  0.6402
 1458ntf    fn4 9719   0.817   4.835   1.258  0.1718 -0.0106 -0.4474
 1458ntf    fn4 9720   0.901   4.759   1.433 -0.2472 -0.3731  0.5068
 1459ntf    cn1 9721   5.501   4.860   3.657  0.2613 -0.2042  0.3665
 1459ntf    sn2 9722   5.541   4.811   3.486 -0.1305 -0.0412  0.2279
 1459ntf    nn3 9723   5.441   4.691   3.472  0.1172 -0.2011 -0.1603
 1459ntf    sn2 9724   5.478   4.540   3.496  0.0078 -0.1802  0.1391
 1459ntf    cn1 9725   5.521   4.497   3.325  0.1780  0.2192  0.0805
 1459ntf    fn4 9726   5.556   4.974   3.698  0.5013 -0.2113  0.0671
 1459ntf    fn4 9727   5.370   4.870   3.669  0.1219 -0.8005 -0.6165
 1459ntf    fn4 9728   5.546   4.770   3.743  0.3919 -0.5090 -0.0183
 1459ntf    on5 9729   5.491   4.919   3.405 -0.1946 -0.3162 -0.1018
 1459ntf    on5 9730   5.683   4.787   3.493 -0.2035 -0.5332  0.0386
 1459ntf    on5 9731   5.364   4.456   3.526 -0.1282 -0.0454 -0.0024
 1459ntf    on5 9732   5.598   4.516   3.573  0.3832 -0.2963 -0.4725
 1459ntf    fn4 9733   5.614   4.576   3.274  0.0381  0.4278  0.1498
 1459ntf    fn4 9734   5.577   4.378   3.315  0.6231  0.4175  0.1677
 1459ntf    fn4 9735   5.417   4.483   3.244  0.3541 -0.5917 -0.0148
 1460ntf    cn1 9736   6.227   0.312   0.119  0.1912  0.3536  0.5849
 1460ntf    sn2 9737   6.107   0.415   0.030  0.0033 -0.2897  0.0800
 1460ntf    nn3 9738   5.975   0.332   0.047 -0.3308  0.0780 -0.6400
 1460ntf    sn2 9739   5.936   0.204  -0.035  0.0121 -0.2565 -0.2873
 1460ntf    cn1 9740   5.830   0.272  -0.166  0.1166 -0.0423 -0.2620
 1460ntf    fn4 9741   6.238   0.189   0.070  0.2163  0.4511  0.3462
 1460ntf    fn4 9742   6.350   0.360   0.121  0.1915  0.3699  0.2635
 1460ntf    fn4 9743   6.201   0.294   0.247 -0.2499 -0.1639  0.4281
 1460ntf    on5 9744   6.112   0.534   0.111  0.2253 -0.1638 -0.1152
 1460ntf    on5 9745   6.154   0.432  -0.106  0.1270 -0.5749  0.0866
 1460ntf    on5 9746   5.851   0.121   0.046 -0.2183  0.1234 -0.1392
 1460ntf    on5 9747   6.045   0.134  -0.099 -0.1687 -0.2178 -0.6401
 1460ntf    fn4 9748   5.794   0.177  -0.250  0.1994 -0.0794 -0.2556
 1460ntf    fn4 9749   5.716   0.319  -0.117  0.1260 -0.7744  0.4938
 1460ntf    fn4 9750   5.885   0.371  -0.234  0.2267  0.3721  0.4227
 1461ntf    cn1 9751   1.808   5.352   2.372  0.1226 -0.2503 -0.0751
 1461ntf    sn2 9752   1.756   5.457   2.233  0.1762  0.0194  0.1066
 1461ntf    nn3 9753   1.891   5.479   2.156  0.3521 -0.5264  0.2515
 1461ntf    sn2 9754   1.932   5.417   2.018  0.1193 -0.2978  0.0786
 1461ntf    cn1 9755   2.012   5.262   2.070 -0.3627 -0.6438 -0.1919
 1461ntf    fn4 9756   1.931   5.369   2.420 -0.2162  0.6735  0.4971
 1461ntf    fn4 9757   1.725   5.360   2.474  1.0879  0.5603  0.6774
 1461ntf    fn4 9758   1.793   5.228   2.331 -0.1250 -0.0829 -0.5014
 1461ntf    on5 9759   1.653   5.380   2.168  0.1629  0.4749 -0.4167
 1461ntf    on5 9760   1.701   5.573   2.298 -0.1206 -0.1634  0.1810
 1461ntf    on5 9761   2.041   5.494   1.965  0.0133  0.2472  0.6408
 1461ntf    on5 9762   1.829   5.376   1.925  0.1823 -0.3403  0.0270
 1461ntf    fn4 9763   2.124   5.287   2.136 -0.3577  0.2704 -0.5344
 1461ntf    fn4 9764   1.933   5.189   2.147 -0.4933 -0.0592  0.2338
 1461ntf    fn4 9765   2.044   5.187   1.966 -0.1727 -0.5248 -0.2203
 1462ntf    cn1 9766   5.384   4.873   4.783  0.1262  0.0621 -0.5644
 1462ntf    sn2 9767   5.269   5.009   4.749 -0.2049 -0.1151 -0.1743
 1462ntf    nn3 9768   5.322   5.102   4.863 -0.2138  0.1245 -0.3638
 1462ntf    sn2 9769   5.246   5.220   4.933  0.1949  0.0882  0.1475
 1462ntf    cn1 9770   5.182   5.131   5.078 -0.2419 -0.1740 -0.2037
 1462ntf    fn4 9771   5.509   4.912   4.801  0.2107 -0.2662 -0.4301
 1462ntf    fn4 9772   5.344   4.822   4.899 -0.6177  0.0851 -0.8051
 1462ntf    fn4 9773   5.381   4.785   4.684 -0.3751  0.0038 -0.5030
 1462ntf    on5 9774   5.309   5.046   4.615 -0.1977  0.7100  0.0528
 1462ntf    on5 9775   5.143   4.941   4.768  0.0134 -0.4851 -0.0424
 1462ntf    on5 9776   5.126   5.267   4.868  0.1057  0.2077  0.3955
 1462ntf    on5 9777   5.332   5.318   4.994  0.4309 -0.0143 -0.0230
 1462ntf    fn4 9778   5.272   5.057   5.142 -0.1826  0.3127  0.2796
 1462ntf    fn4 9779   5.123   5.210   5.166  0.1645 -0.7961  0.6481
 1462ntf    fn4 9780   5.092   5.039   5.048 -0.1269 -0.1877 -0.5095
 1463ntf    cn1 9781   3.878   5.804   1.882 -0.0331  0.1767 -0.1631
 1463ntf    sn2 9782   3.838   5.981   1.892  0.1651  0.2082  0.0915
 1463ntf    nn3 9783   3.685   5.978   1.855  0.1460  0.5968  0.1301
 1463ntf    sn2 9784   3.601   6.025   1.731  0.0382 -0.1648 -0.0932
 1463ntf    cn1 9785   3.442   6.045   1.818 -0.0559 -0.1917 -0.2590
 1463ntf    fn4 9786   3.809   5.740   1.789 -0.7503 -0.3349  0.7011
 1463ntf    fn4 9787   4.006   5.776   1.867 -0.0906 -0.6609  0.7832
 1463ntf    fn4 9788   3.839   5.747   1.995  0.1948  0.4572  0.0595
 1463ntf    on5 9789   3.861   6.003   2.032  0.3408 -0.3417  0.1510
 1463ntf    on5 9790   3.925   6.041   1.795 -0.2984  0.4995 -0.1500
 1463ntf    on5 9791   3.578   5.911   1.646 -0.8989  0.2652 -0.4352
 1463ntf    on5 9792   3.622   6.157   1.678 -0.3350  0.0817  0.3620
 1463ntf    fn4 9793   3.455   6.101   1.937 -0.0588 -0.0188 -0.3404
 1463ntf    fn4 9794   3.354   6.116   1.750  0.0393 -0.3435 -0.5439
 1463ntf    fn4 9795   3.384   5.929   1.841 -0.1616 -0.0796  0.0337
 1464ntf    cn1 9796   3.389   3.250   0.228 -0.0507  0.2158  0.3137
 1464ntf    sn2 9797   3.258   3.144   0.295 -0.1329  0.1902  0.1147
 1464ntf    nn3 9798   3.132   3.216   0.235 -0.1253  0.0182 -0.1055
 1464ntf    sn2 9799   3.063   3.193   0.096  0.5097 -0.4409 -0.3508
 1464ntf    cn1 9800   2.943   3.068   0.150 -0.0277  0.1951 -0.0577
 1464ntf    fn4 9801   3.365   3.277   0.100 -0.1762  0.6087  0.4186
 1464ntf    fn4 9802   3.402   3.367   0.288  0.4343  0.2108  0.2215
 1464ntf    fn4 9803   3.505   3.187   0.227 -0.3742 -0.3804  0.1716
 1464ntf    on5 9804   3.289   3.011   0.247 -0.1896  0.0914  0.3481
 1464ntf    on5 9805   3.262   3.164   0.438 -0.7545  0.7774  0.0542
 1464ntf    on5 9806   3.134   3.137  -0.017  0.2386  0.5927 -1.0509
 1464ntf    on5 9807   2.985   3.310   0.065  0.6014 -0.2240  0.2427
 1464ntf    fn4 9808   3.000   2.948   0.140 -0.2821  0.0181  0.5742
 1464ntf    fn4 9809   2.899   3.082   0.274  0.0680  0.0150 -0.0022
 1464ntf    fn4 9810   2.833   3.072   0.077 -0.0948  0.4820  0.0614
 1465ntf    cn1 9811   2.318   0.718   3.239 -0.1760  0.1004 -0.3989
 1465ntf    sn2 9812   2.347   0.837   3.105 -0.1753  0.0416 -0.4512
 1465ntf    nn3 9813   2.339   0.966   3.194 -0.3616 -0.0642 -0.3137
 1465ntf    sn2 9814   2.303   1.114   3.157  0.1265  0.1084 -0.1172
 1465ntf    cn1 9815   2.122   1.094   3.170  0.0902  0.0798 -0.6363
 1465ntf    fn4 9816   2.302   0.594   3.195 -0.1831 -0.2814  0.6393
 1465ntf    fn4 9817   2.413   0.710   3.332 -0.0258 -0.0351 -0.5624
 1465ntf    fn4 9818   2.209   0.751   3.307  0.3343  0.6115  0.1856
 1465ntf    on5 9819   2.483   0.806   3.068 -0.2873 -0.5752 -0.3472
 1465ntf    on5 9820   2.246   0.814   3.005  0.2038 -0.4846 -0.7189
 1465ntf    on5 9821   2.325   1.144   3.018 -0.0026  0.1387 -0.1318
 1465ntf    on5 9822   2.344   1.203   3.263 -0.1480 -0.2897  0.3273
 1465ntf    fn4 9823   2.090   1.005   3.078  0.2330 -0.7574  0.1066
 1465ntf    fn4 9824   2.076   1.030   3.277 -0.2650  0.0557 -0.8030
 1465ntf    fn4 9825   2.044   1.199   3.153 -0.0614  0.0482 -0.1599
 1466ntf    cn1 9826   6.610   2.224   6.300  0.0850 -0.1628  0.1533
 1466ntf    sn2 9827   6.688   2.384   6.333  0.1789 -0.1039 -0.3414
 1466ntf    nn3 9828   6.644   2.468   6.209  0.0263  0.0520 -0.1816
 1466ntf    sn2 9829   6.664   2.427   6.058 -0.3612  0.3079 -0.3049
 1466ntf    cn1 9830   6.686   2.589   5.979 -0.0467  0.2167 -0.4018
 1466ntf    fn4 9831   6.604   2.188   6.173 -0.2042 -0.0757  0.1439
 1466ntf    fn4 9832   6.669   2.120   6.357  0.0765 -0.0737  0.3244
 1466ntf    fn4 9833   6.487   2.217   6.348  0.0938  0.1842  0.2301
 1466ntf    on5 9834   6.623   2.436   6.451  0.1855 -0.4872 -0.1693
 1466ntf    on5 9835   6.825   2.344   6.353  0.3601  0.5846 -0.1460
 1466ntf    on5 9836   6.549   2.368   5.993 -0.2819 -0.5550  0.3212
 1466ntf    on5 9837   6.792   2.368   6.031 -0.3380  0.1738  0.0854
 1466ntf    fn4 9838   6.579   2.663   6.001 -0.2066 -0.3324  0.6899
 1466ntf    fn4 9839   6.791   2.655   6.025 -0.1931  0.0503  0.1667
 1466ntf    fn4 9840   6.703   2.589   5.847  0.1131  0.0634 -0.3820
 1467ntf    cn1 9841   6.546   2.957   4.808  0.3384  0.1698  0.2046
 1467ntf    sn2 9842   6.456   2.805   4.846  0.1879  0.2606  0.2116
 1467ntf    nn3 9843   6.503   2.786   4.994  0.2632  0.1757  0.1768
 1467ntf    sn2 9844   6.482   2.674   5.102  0.0853  0.0115 -0.0273
 1467ntf    cn1 9845   6.393   2.762   5.234  0.3099 -0.0417  0.1628
 1467ntf    fn4 9846   6.549   2.990   4.680 -0.0002 -0.4681  0.0294
 1467ntf    fn4 9847   6.515   3.067   4.876  0.0865 -0.0393  0.4264
 1467ntf    fn4 9848   6.676   2.940   4.828  0.3045 -0.4030 -0.0441
 1467ntf    on5 9849   6.314   2.831   4.831  0.1308  0.0146  0.3137
 1467ntf    on5 9850   6.516   2.712   4.754 -0.4202 -0.1118  0.1837
 1467ntf    on5 9851   6.603   2.636   5.171  0.4038  0.2504 -0.4491
 1467ntf    on5 9852   6.403   2.563   5.054 -0.1848 -0.0434  0.5267
 1467ntf    fn4 9853   6.272   2.790   5.188  0.1817 -0.6597  0.1108
 1467ntf    fn4 9854   6.368   2.693   5.344 -0.3033 -0.1748 -0.0530
 1467ntf    fn4 9855   6.459   2.871   5.270  0.3185  0.0816 -0.2191
 1468ntf    cn1 9856   5.907   6.146   6.294  0.0832 -0.2949  0.0737
 1468ntf    sn2 9857   5.879   6.292   6.398  0.1639 -0.1651 -0.0874
 1468ntf    nn3 9858   5.958   6.396   6.310  0.0105  0.4226  0.4582
 1468ntf    sn2 9859   5.918   6.488   6.190 -0.3666 -0.0658  0.2014
 1468ntf    cn1 9860   5.955   6.649   6.266 -0.0328 -0.0878  0.0859
 1468ntf    fn4 9861   6.033   6.124   6.262  0.0100 -0.1614 -0.3068
 1468ntf    fn4 9862   5.864   6.037   6.356 -0.2375 -0.2784 -0.1128
 1468ntf    fn4 9863   5.839   6.158   6.181  0.1014 -0.1060  0.0830
 1468ntf    on5 9864   5.735   6.299   6.395  0.1529 -0.2550  0.1384
 1468ntf    on5 9865   5.942   6.252   6.522  0.0462  0.4561  0.1791
 1468ntf    on5 9866   5.781   6.505   6.150 -0.5643 -0.4998  0.6970
 1468ntf    on5 9867   6.012   6.487   6.081  0.2045  0.5480  0.6777
 1468ntf    fn4 9868   5.940   6.745   6.175 -0.2046 -0.1106  0.0912
 1468ntf    fn4 9869   5.877   6.673   6.370  0.2670  0.1453  0.2603
 1468ntf    fn4 9870   6.079   6.667   6.310 -0.1575  0.0491  0.3854
 1469ntf    cn1 9871   2.487   6.571   0.277  0.2776  0.0439  0.2397
 1469ntf    sn2 9872   2.634   6.505   0.193  0.1765  0.0177  0.0834
 1469ntf    nn3 9873   2.612   6.557   0.047 -0.7745  0.3323  0.3341
 1469ntf    sn2 9874   2.558   6.475  -0.076 -0.4030  0.2917  0.1987
 1469ntf    cn1 9875   2.695   6.373  -0.137 -0.4349  0.2712  0.1618
 1469ntf    fn4 9876   2.491   6.576   0.410 -0.1958  0.7271  0.2318
 1469ntf    fn4 9877   2.458   6.691   0.231 -0.3279 -0.0967  0.2533
 1469ntf    fn4 9878   2.385   6.493   0.246  0.3761  0.1152 -0.2590
 1469ntf    on5 9879   2.742   6.572   0.260  0.6200 -0.4732 -0.1307
 1469ntf    on5 9880   2.629   6.361   0.209  0.1788  0.0232  0.1333
 1469ntf    on5 9881   2.535   6.559  -0.191  0.8526  0.2918 -0.0648
 1469ntf    on5 9882   2.459   6.376  -0.044  0.1094 -0.2512  0.1181
 1469ntf    fn4 9883   2.771   6.324  -0.040 -0.4527 -0.4009 -0.1566
 1469ntf    fn4 9884   2.653   6.265  -0.201  0.3857 -0.2815  0.5451
 1469ntf    fn4 9885   2.766   6.433  -0.232 -0.3134 -0.3809 -0.1688
 1470ntf    cn1 9886   5.779   6.150   0.648 -0.1913  0.0438 -0.3361
 1470ntf    sn2 9887   5.832   6.032   0.520 -0.0678  0.0821 -0.3201
 1470ntf    nn3 9888   5.987   6.031   0.546 -0.0198 -0.6104 -0.6125
 1470ntf    sn2 9889   6.063   5.948   0.655 -0.2319  0.4378  0.3477
 1470ntf    cn1 9890   6.110   5.801   0.560 -0.1320  0.4835  0.3266
 1470ntf    fn4 9891   5.849   6.262   0.644 -0.1587  0.0144 -0.6313
 1470ntf    fn4 9892   5.650   6.179   0.649 -0.3761 -0.7502  0.0365
 1470ntf    fn4 9893   5.802   6.109   0.772  0.4074  0.4424 -0.3155
 1470ntf    on5 9894   5.767   5.908   0.557  0.3985 -0.0147  0.1916
 1470ntf    on5 9895   5.796   6.089   0.393 -0.1151 -0.4005 -0.5240
 1470ntf    on5 9896   5.982   5.895   0.761  0.1573  0.3655  0.6114
 1470ntf    on5 9897   6.185   6.017   0.690  0.3021 -0.2288 -0.1693
 1470ntf    fn4 9898   6.191   5.729   0.637  0.0797  0.3023 -0.0588
 1470ntf    fn4 9899   6.008   5.727   0.520  0.2964 -0.0743  0.2442
 1470ntf    fn4 9900   6.179   5.827   0.450 -0.1658 -0.0627  0.1735
 1471ntf    cn1 9901   2.533   5.132   6.274  0.2583  0.1507  0.2651
 1471ntf    sn2 9902   2.541   5.164   6.096 -0.2699  0.0858  0.2284
 1471ntf    nn3 9903   2.693   5.201   6.085 -0.0678 -0.7771  0.0328
 1471ntf    sn2 9904   2.791   5.156   5.971  0.1840  0.1061 -0.1081
 1471ntf    cn1 9905   2.859   5.006   6.047  0.5720 -0.0013 -0.6618
 1471ntf    fn4 9906   2.560   5.242   6.341  0.2810  0.2912  0.0247
 1471ntf    fn4 9907   2.414   5.095   6.317  0.1591  0.2733  0.0940
 1471ntf    fn4 9908   2.615   5.037   6.317  0.1939  0.0202  0.1002
 1471ntf    on5 9909   2.500   5.040   6.035  0.8816 -0.1078 -0.1742
 1471ntf    on5 9910   2.453   5.277   6.075  0.6213  0.6460 -0.5982
 1471ntf    on5 9911   2.903   5.245   5.956 -0.0155  0.2846 -0.5765
 1471ntf    on5 9912   2.730   5.109   5.849 -0.3852  0.1579  0.1534
 1471ntf    fn4 9913   2.777   4.905   6.022  0.1498  0.1885 -0.0524
 1471ntf    fn4 9914   2.975   4.962   6.001  0.5733 -0.2417 -0.4308
 1471ntf    fn4 9915   2.868   5.025   6.178  0.3480  0.0557 -0.6553
 1472ntf    cn1 9916   6.019   3.272   0.170  0.2991  0.2947 -0.3314
 1472ntf    sn2 9917   5.864   3.238   0.082  0.2505 -0.1458 -0.0768
 1472ntf    nn3 9918   5.850   3.086   0.119 -0.0988  0.0527  0.6173
 1472ntf    sn2 9919   5.895   2.958   0.040 -0.1685  0.2205  0.3058
 1472ntf    cn1 9920   5.780   2.972  -0.100  0.1496 -0.2729 -0.0078
 1472ntf    fn4 9921   6.109   3.180   0.137  0.2131  0.1164 -0.0677
 1472ntf    fn4 9922   6.068   3.393   0.150  0.1520  0.5175  0.6092
 1472ntf    fn4 9923   5.999   3.256   0.300  1.1017 -0.1562 -0.2573
 1472ntf    on5 9924   5.770   3.328   0.143  0.7088  0.3101 -0.0412
 1472ntf    on5 9925   5.894   3.271  -0.055 -0.0903 -0.4370 -0.2252
 1472ntf    on5 9926   5.850   2.837   0.103  0.2276 -0.1577 -0.1346
 1472ntf    on5 9927   6.026   2.956  -0.020 -0.0817 -0.8835  0.5123
 1472ntf    fn4 9928   5.747   2.860  -0.163 -0.2517 -0.1890  0.0517
 1472ntf    fn4 9929   5.661   3.013  -0.059  0.3130 -0.1235  0.3177
 1472ntf    fn4 9930   5.824   3.045  -0.201 -0.1872  0.1399  0.1381
 1473ntf    cn1 9931   4.358   2.623   5.555 -0.2828 -0.0290  0.1901
 1473ntf    sn2 9932   4.266   2.621   5.712 -0.2679  0.0240  0.1995
 1473ntf    nn3 9933   4.291   2.468   5.737  0.2592 -0.0021 -0.4508
 1473ntf    sn2 9934   4.405   2.397   5.818 -0.0568 -0.0556 -0.0499
 1473ntf    cn1 9935   4.335   2.406   5.986  0.2707  0.2094  0.0733
 1473ntf    fn4 9936   4.284   2.608   5.446  0.0457  0.6932 -0.1373
 1473ntf    fn4 9937   4.423   2.738   5.545 -0.2854 -0.0362  0.0971
 1473ntf    fn4 9938   4.448   2.527   5.551 -0.0822  0.1876 -0.8983
 1473ntf    on5 9939   4.336   2.706   5.804 -0.1840 -0.1294  0.2787
 1473ntf    on5 9940   4.129   2.646   5.676 -0.3631 -0.1479  0.4350
 1473ntf    on5 9941   4.534   2.461   5.824 -0.0877 -0.0205  0.3068
 1473ntf    on5 9942   4.410   2.256   5.791  0.6812 -0.2183  0.8625
 1473ntf    fn4 9943   4.243   2.315   6.013  0.2726  0.2272  0.1378
 1473ntf    fn4 9944   4.427   2.397   6.081  0.4903 -0.0709 -0.1616
 1473ntf    fn4 9945   4.266   2.517   6.005 -0.1601 -0.1112  0.3988
 1474ntf    cn1 9946   2.419   1.783   4.971  0.2754  0.2016  0.0861
 1474ntf    sn2 9947   2.504   1.747   5.127 -0.1110 -0.5269  0.1331
 1474ntf    nn3 9948   2.399   1.665   5.210 -0.5164 -0.3054 -0.1529
 1474ntf    sn2 9949   2.391   1.509   5.229  0.0618 -0.3505 -0.2456
 1474ntf    cn1 9950   2.268   1.498   5.362  0.1616 -0.4928 -0.1652
 1474ntf    fn4 9951   2.365   1.675   4.917 -0.1397  0.2463  0.4101
 1474ntf    fn4 9952   2.317   1.867   4.983  0.2140  0.1425 -0.0130
 1474ntf    fn4 9953   2.491   1.832   4.871  0.0710 -0.4648 -0.4006
 1474ntf    on5 9954   2.627   1.685   5.083  0.0957 -0.2284  0.2859
 1474ntf    on5 9955   2.523   1.877   5.188  0.5445 -0.3361 -0.4658
 1474ntf    on5 9956   2.508   1.450   5.289  0.3992  0.0912 -0.4622
 1474ntf    on5 9957   2.322   1.448   5.117 -0.0648  0.5702 -0.6829
 1474ntf    fn4 9958   2.317   1.559   5.469  0.0389 -0.1460 -0.3058
 1474ntf    fn4 9959   2.147   1.541   5.332  0.2668 -0.1186 -0.0576
 1474ntf    fn4 9960   2.254   1.372   5.401 -0.3567 -0.3544  0.0932
 1475ntf    cn1 9961   5.018   2.308   1.305 -0.1438 -0.0114  0.5834
 1475ntf    sn2 9962   5.101   2.392   1.167 -0.2038 -0.3009  0.3718
 1475ntf    nn3 9963   5.119   2.535   1.230  0.3974  0.0027 -0.4714
 1475ntf    sn2 9964   5.245   2.602   1.295 -0.1715  0.0677  0.5884
 1475ntf    cn1 9965   5.303   2.695   1.150 -0.5142 -0.3815  0.1593
 1475ntf    fn4 9966   5.094   2.300   1.413 -0.0090  0.2465  0.5077
 1475ntf    fn4 9967   4.905   2.368   1.339 -0.4832 -0.2599 -0.1055
 1475ntf    fn4 9968   4.977   2.191   1.260  0.0585  0.0141  0.3311
 1475ntf    on5 9969   5.225   2.322   1.146  0.1261  0.3385  0.1860
 1475ntf    on5 9970   5.001   2.389   1.063  0.8225  0.5367 -0.6704
 1475ntf    on5 9971   5.361   2.523   1.328  0.0664 -0.0040 -0.3925
 1475ntf    on5 9972   5.217   2.710   1.386  0.2110  0.1420  0.6224
 1475ntf    fn4 9973   5.414   2.760   1.181 -0.2990 -0.4840 -0.3903
 1475ntf    fn4 9974   5.328   2.622   1.043 -0.5434 -0.2627  0.0706
 1475ntf    fn4 9975   5.220   2.791   1.110  0.1385  0.3689  0.5685
 1476ntf    cn1 9976   5.706   4.386   5.088  0.0661 -0.5111  0.0207
 1476ntf    sn2 9977   5.694   4.359   5.267  0.2045  0.0345  0.1118
 1476ntf    nn3 9978   5.759   4.491   5.323  0.1529  0.0487  0.1377
 1476ntf    sn2 9979   5.711   4.593   5.433 -0.1888  0.1513 -0.1069
 1476ntf    cn1 9980   5.870   4.669   5.477  0.0674 -0.1856 -0.4412
 1476ntf    fn4 9981   5.649   4.291   5.015 -0.6216  0.3185 -0.5421
 1476ntf    fn4 9982   5.643   4.496   5.053 -0.1504 -0.8824 -0.7846
 1476ntf    fn4 9983   5.832   4.395   5.048 -0.1691  0.2763 -0.5519
 1476ntf    on5 9984   5.553   4.344   5.290  0.2094 -0.5293 -0.2142
 1476ntf    on5 9985   5.777   4.245   5.297  0.5116  0.1542 -0.2726
 1476ntf    on5 9986   5.657   4.526   5.548 -0.0698  0.3344  0.0563
 1476ntf    on5 9987   5.634   4.706   5.386  0.2512  0.3112 -0.4491
 1476ntf    fn4 9988   5.929   4.721   5.371 -0.1032 -0.3138 -0.6002
 1476ntf    fn4 9989   5.858   4.764   5.568 -0.4613 -0.4505 -0.2292
 1476ntf    fn4 9990   5.945   4.575   5.532 -0.2474 -0.4372 -0.4341
 1477ntf    cn1 9991   0.561   5.534   6.260  0.4624 -0.2678  0.1230
 1477ntf    sn2 9992   0.645   5.679   6.332 -0.1196  0.0894  0.0840
 1477ntf    nn3 9993   0.774   5.609   6.386  0.3749  0.4896 -0.5593
 1477ntf    sn2 9994   0.907   5.680   6.431  0.4787 -0.2533  0.3410
 1477ntf    cn1 9995   1.017   5.658   6.289 -0.0872  0.2375 -0.1768
 1477ntf    fn4 9996   0.439   5.571   6.225  0.6977  0.3845 -0.0336
 1477ntf    fn4 9997   0.611   5.483   6.149 -0.4378 -0.1347 -0.3520
 1477ntf    fn4 9998   0.544   5.431   6.342  0.1432 -0.5130 -0.2515
 1477ntf    on5 9999   0.668   5.760   6.215 -0.0507 -0.1287 -0.0549
 1477ntf    on510000   0.549   5.730   6.428 -0.3147  0.1043 -0.1172
 1477ntf    on510001   0.973   5.605   6.535  0.2648 -0.7230  0.1415
 1477ntf    on510002   0.893   5.822   6.450 -0.1115 -0.1908 -0.5135
 1477ntf    fn410003   1.118   5.580   6.323  0.1736  0.4894 -0.3626
 1477ntf    fn410004   0.965   5.584   6.193 -0.1505 -0.0664  0.0934
 1477ntf    fn410005   1.066   5.765   6.227 -0.2497  0.2495 -0.2866
 1478ntf    cn110006   4.535   3.777   0.879 -0.1977  0.3209 -0.1276
 1478ntf    sn210007   4.402   3.683   0.800 -0.0234  0.1355 -0.2010
 1478ntf    nn310008   4.304   3.667   0.922  0.0088  0.3456 -0.1480
 1478ntf    sn210009   4.237   3.784   1.002  0.1075  0.3605 -0.0871
 1478ntf    cn110010   4.074   3.791   0.923  0.0173  0.2123  0.0850
 1478ntf    fn410011   4.539   3.908   0.856 -0.0951  0.4007  0.3295
 1478ntf    fn410012   4.537   3.765   1.011  0.1611 -0.5398 -0.2068
 1478ntf    fn410013   4.652   3.731   0.837 -0.0993  0.4442  0.0106
 1478ntf    on510014   4.357   3.772   0.696  0.0941  0.2315 -0.1692
 1478ntf    on510015   4.469   3.559   0.768 -0.0592  0.0991 -0.1355
 1478ntf    on510016   4.287   3.918   0.982  0.3382  0.3148  0.1745
 1478ntf    on510017   4.206   3.742   1.137 -0.1524  0.1533 -0.2126
 1478ntf    fn410018   4.072   3.875   0.821 -0.0891 -0.1438 -0.2096
 1478ntf    fn410019   4.036   3.670   0.883 -0.3702  0.5319 -0.5335
 1478ntf    fn410020   3.978   3.841   0.998  0.0503  0.9425 -0.3524
 1479ntf    cn110021   1.811   3.258   0.008  0.4253 -0.3182  0.0048
 1479ntf    sn210022   1.713   3.106   0.023  0.0614 -0.0837  0.0036
 1479ntf    nn310023   1.818   3.008   0.084  0.3541  0.2044 -0.0342
 1479ntf    sn210024   1.887   2.884   0.016 -0.1760 -0.1306  0.0310
 1479ntf    cn110025   1.767   2.751   0.044 -0.5086  0.0282 -0.5974
 1479ntf    fn410026   1.924   3.238  -0.058  0.4135  0.2574 -0.1950
 1479ntf    fn410027   1.738   3.352  -0.049 -0.2471 -0.5152  0.5318
 1479ntf    fn410028   1.841   3.305   0.128 -0.1369  0.9091 -0.3226
 1479ntf    on510029   1.616   3.137   0.125 -0.7452  1.0678 -1.0786
 1479ntf    on510030   1.667   3.082  -0.112 -0.5137  0.5416  0.0807
 1479ntf    on510031   2.013   2.845   0.074  0.0376  0.1147 -0.2612
 1479ntf    on510032   1.897   2.895  -0.128  0.4664 -0.6257  0.0337
 1479ntf    fn410033   1.799   2.634  -0.009  0.3290  0.0294 -0.1273
 1479ntf    fn410034   1.749   2.726   0.173 -0.0063  0.6551 -0.4016
 1479ntf    fn410035   1.650   2.786  -0.006 -0.4359  0.3066 -0.5736
 1480ntf    cn110036   1.310   1.346   2.620  0.1641  0.1915 -0.0204
 1480ntf    sn210037   1.168   1.245   2.565  0.2339  0.0208  0.1122
 1480ntf    nn310038   1.167   1.132   2.673  0.9461 -0.2681 -0.1781
 1480ntf    sn210039   1.098   0.992   2.658  0.0755  0.0828  0.4638
 1480ntf    cn110040   1.248   0.892   2.632  0.0539  0.1460  0.0855
 1480ntf    fn410041   1.426   1.282   2.614 -0.0907 -0.2731 -0.0694
 1480ntf    fn410042   1.317   1.450   2.539  0.1083 -0.3285 -0.7098
 1480ntf    fn410043   1.291   1.383   2.745 -0.4490 -0.1379 -0.0097
 1480ntf    on510044   1.057   1.336   2.574  0.1368 -0.1141  0.2828
 1480ntf    on510045   1.216   1.201   2.436  0.0144 -0.6008  0.2416
 1480ntf    on510046   1.017   0.967   2.541  0.1297 -0.0667  0.4576
 1480ntf    on510047   1.041   0.945   2.782 -0.0882  0.0253  0.3677
 1480ntf    fn410048   1.224   0.780   2.567  0.1871  0.3590 -0.3346
 1480ntf    fn410049   1.340   0.961   2.568  0.4745 -0.2330  0.2776
 1480ntf    fn410050   1.299   0.855   2.748  0.5023  0.7037  0.0700
 1481ntf    cn110051   2.999   2.395   6.321 -0.0345 -0.3660  0.1527
 1481ntf    sn210052   3.147   2.300   6.273  0.1350  0.0610 -0.1788
 1481ntf    nn310053   3.171   2.233   6.413  0.5938  0.8494  0.1264
 1481ntf    sn210054   3.301   2.165   6.469  0.1220  0.0046  0.2098
 1481ntf    cn110055   3.373   2.307   6.556 -0.2937  0.3769 -0.0556
 1481ntf    fn410056   2.966   2.486   6.231 -0.3342 -0.0738  0.5598
 1481ntf    fn410057   2.894   2.317   6.342 -0.3242 -0.0192 -0.0150
 1481ntf    fn410058   3.024   2.457   6.435  0.3024 -0.4358  0.1177
 1481ntf    on510059   3.099   2.211   6.171  0.1314  0.1293 -0.2365
 1481ntf    on510060   3.235   2.408   6.236 -0.3101  0.4252 -0.1927
 1481ntf    on510061   3.399   2.127   6.371 -0.0677  0.1876 -0.0500
 1481ntf    on510062   3.279   2.070   6.576 -0.2425 -0.1640 -0.0159
 1481ntf    fn410063   3.404   2.399   6.466  0.7824  0.4275  0.3545
 1481ntf    fn410064   3.293   2.369   6.642  0.3290  0.2400  0.6378
 1481ntf    fn410065   3.482   2.283   6.627 -0.1116  0.4935 -0.2921
 1482ntf    cn110066   2.014   0.314   6.612 -0.0797  0.0643  0.1256
 1482ntf    sn210067   2.131   0.303   6.474 -0.1463 -0.1096  0.0824
 1482ntf    nn310068   2.048   0.379   6.364 -0.3262  0.2160  0.4440
 1482ntf    sn210069   2.098   0.456   6.237  0.0419 -0.1645  0.3556
 1482ntf    cn110070   2.038   0.345   6.107  0.1047  0.1718  0.0357
 1482ntf    fn410071   2.056   0.253   6.721 -0.0861  0.5212  0.3881
 1482ntf    fn410072   1.986   0.437   6.652 -0.0472  0.0507  0.1891
 1482ntf    fn410073   1.899   0.257   6.580 -0.0414 -0.1010  0.2830
 1482ntf    on510074   2.252   0.367   6.521 -0.0153  0.1937 -0.6359
 1482ntf    on510075   2.137   0.160   6.462  0.2549 -0.0705 -0.2330
 1482ntf    on510076   2.241   0.456   6.220  0.0753  0.0916  0.6338
 1482ntf    on510077   2.021   0.575   6.206  0.4663  0.0432  0.0839
 1482ntf    fn410078   2.103   0.229   6.105 -0.0555  0.0833 -0.1510
 1482ntf    fn410079   1.909   0.313   6.108  0.0840  0.1581 -1.0099
 1482ntf    fn410080   2.054   0.399   5.987  0.1064 -0.1293 -0.1011
 1483ntf    cn110081   0.464   6.550   2.140 -0.2014  0.0507  0.2164
 1483ntf    sn210082   0.467   6.396   2.237  0.0945 -0.2112 -0.2039
 1483ntf    nn310083   0.392   6.436   2.369  0.1017 -0.4250 -0.1343
 1483ntf    sn210084   0.447   6.426   2.516  0.2391 -0.1523 -0.1670
 1483ntf    cn110085   0.554   6.573   2.517 -0.1203  0.1094  0.1134
 1483ntf    fn410086   0.532   6.646   2.201  0.3333 -0.0507 -0.2067
 1483ntf    fn410087   0.513   6.528   2.019 -0.1087  0.2742  0.2129
 1483ntf    fn410088   0.339   6.587   2.118 -0.0042  0.4384 -0.2537
 1483ntf    on510089   0.385   6.316   2.150 -0.5004  0.1094  0.0523
 1483ntf    on510090   0.605   6.356   2.244 -0.0135 -0.6008 -0.2793
 1483ntf    on510091   0.528   6.313   2.554  0.3660 -0.0037  0.0080
 1483ntf    on510092   0.346   6.455   2.614  0.6584  0.0723  0.2029
 1483ntf    fn410093   0.625   6.574   2.629  0.1881 -0.3312 -0.0785
 1483ntf    fn410094   0.641   6.573   2.417  0.0824  0.5495  0.2839
 1483ntf    fn410095   0.481   6.682   2.501 -0.3236 -0.0930 -0.3516
 1484ntf    cn110096   5.396   1.649   3.685 -0.3206  0.1043 -0.2271
 1484ntf    sn210097   5.353   1.508   3.792  0.0056  0.0610 -0.1509
 1484ntf    nn310098   5.386   1.385   3.701  0.3108 -0.0168  0.0649
 1484ntf    sn210099   5.450   1.250   3.749  0.0024 -0.1546  0.0924
 1484ntf    cn110100   5.319   1.140   3.687  0.1761 -0.2759 -0.0612
 1484ntf    fn410101   5.318   1.652   3.578 -0.6114  0.1018 -0.0181
 1484ntf    fn410102   5.373   1.761   3.754  0.6648 -0.0601  0.3867
 1484ntf    fn410103   5.521   1.658   3.644 -0.1730  0.1642  0.2276
 1484ntf    on510104   5.449   1.522   3.898  0.1145 -0.0569 -0.2337
 1484ntf    on510105   5.212   1.532   3.811  0.0441  0.6198 -0.5294
 1484ntf    on510106   5.464   1.227   3.891  0.4302  0.1238  0.0969
 1484ntf    on510107   5.568   1.221   3.671  0.4076 -0.6603  0.8791
 1484ntf    fn410108   5.201   1.193   3.713  0.4862  0.2511  0.2923
 1484ntf    fn410109   5.323   1.128   3.556  0.4593 -0.0394 -0.0751
 1484ntf    fn410110   5.319   1.019   3.741 -0.1454  0.1238  0.8624
 1485ntf    cn110111   2.081   0.251   2.729  0.2351  0.2007  0.4407
 1485ntf    sn210112   2.145   0.095   2.798 -0.0468 -0.0155  0.2188
 1485ntf    nn310113   2.297   0.134   2.805 -0.1396  0.4385 -0.2523
 1485ntf    sn210114   2.382   0.133   2.936 -0.2888  0.1521 -0.1574
 1485ntf    cn110115   2.516   0.241   2.875 -0.1253  0.1377  0.1728
 1485ntf    fn410116   1.951   0.251   2.704  0.3121 -0.1822  0.0205
 1485ntf    fn410117   2.103   0.353   2.810  0.1192  0.2649  0.3919
 1485ntf    fn410118   2.142   0.288   2.618  0.4437  0.2389  0.5680
 1485ntf    on510119   2.079   0.061   2.922 -0.0247 -0.4409  0.1158
 1485ntf    on510120   2.135  -0.006   2.696  0.0978 -0.1028  0.2912
 1485ntf    on510121   2.445   0.007   2.969 -0.6031  0.2101  0.6976
 1485ntf    on510122   2.331   0.213   3.044  0.1321 -0.5066  0.5451
 1485ntf    fn410123   2.593   0.276   2.977  0.1937 -0.0481 -0.0023
 1485ntf    fn410124   2.596   0.175   2.794 -0.3244  0.1932 -0.0713
 1485ntf    fn410125   2.470   0.345   2.808 -0.2425 -0.0442 -0.0324
 1486ntf    cn110126   3.079   6.217   4.956 -0.2877 -0.0562  0.1872
 1486ntf    sn210127   3.102   6.387   4.894 -0.1435 -0.1774 -0.0955
 1486ntf    nn310128   2.966   6.447   4.944  0.0630  0.1092  0.1285
 1486ntf    sn210129   2.874   6.556   4.878  0.1389 -0.1805 -0.4701
 1486ntf    cn110130   2.853   6.672   5.017  0.1581 -0.1223 -0.5147
 1486ntf    fn410131   3.167   6.132   4.906 -0.4594  0.0043 -0.2243
 1486ntf    fn410132   3.087   6.207   5.087  0.2680  0.0406  0.1652
 1486ntf    fn410133   2.956   6.174   4.934 -0.2441 -0.0587 -0.0528
 1486ntf    on510134   3.219   6.432   4.965 -0.2563  0.8641 -0.5512
 1486ntf    on510135   3.110   6.371   4.751  0.2737 -0.0631 -0.0849
 1486ntf    on510136   2.746   6.502   4.841  0.1115 -0.3238 -0.1675
 1486ntf    on510137   2.943   6.637   4.781  0.3341 -0.5796 -0.6637
 1486ntf    fn410138   2.841   6.798   4.978  0.1034  0.0752  0.1238
 1486ntf    fn410139   2.746   6.642   5.089  0.2532  0.0199 -0.3137
 1486ntf    fn410140   2.956   6.671   5.100 -0.3133 -0.6083  0.0783
 1487ntf    cn110141   2.932   4.081   3.071 -0.3157  0.3401  0.0085
 1487ntf    sn210142   3.034   4.096   2.922 -0.1581 -0.2127  0.0570
 1487ntf    nn310143   2.970   4.223   2.856  0.6212  0.1286 -0.0509
 1487ntf    sn210144   2.850   4.228   2.755  0.3937  0.0518  0.2169
 1487ntf    cn110145   2.757   4.367   2.827  0.3296  0.2753 -0.2960
 1487ntf    fn410146   2.974   3.982   3.149 -0.2936 -0.0487 -0.4927
 1487ntf    fn410147   2.940   4.191   3.144 -0.4678  0.1582  0.3033
 1487ntf    fn410148   2.805   4.047   3.058 -0.1239 -0.4825  0.1878
 1487ntf    on510149   3.170   4.117   2.966 -0.1974  0.2337 -0.0297
 1487ntf    on510150   3.013   3.972   2.850 -0.0926 -0.3314  0.2442
 1487ntf    on510151   2.758   4.118   2.771  0.3250  0.0370 -0.2645
 1487ntf    on510152   2.875   4.281   2.624 -0.0432  0.0707  0.1383
 1487ntf    fn410153   2.812   4.485   2.804  0.0932  0.2938 -0.7677
 1487ntf    fn410154   2.630   4.374   2.789  0.0720 -0.1793  0.4477
 1487ntf    fn410155   2.749   4.361   2.959  0.1053  0.1173 -0.3159
 1488ntf    cn110156   5.953   1.166   5.831  0.1359 -0.0989  0.0367
 1488ntf    sn210157   6.004   1.284   5.702 -0.3513  0.1513  0.0709
 1488ntf    nn310158   6.161   1.274   5.704 -0.3069  0.7501 -0.1302
 1488ntf    sn210159   6.255   1.176   5.625 -0.1440  0.2749  0.6478
 1488ntf    cn110160   6.284   1.263   5.468 -0.0891 -0.3020  0.3322
 1488ntf    fn410161   5.974   1.037   5.811 -0.0629 -0.0237 -0.6954
 1488ntf    fn410162   6.008   1.192   5.948  0.2518 -0.3302  0.0338
 1488ntf    fn410163   5.823   1.164   5.853  0.0716  0.2234 -0.2932
 1488ntf    on510164   5.940   1.237   5.582  0.0757 -0.1535 -0.0405
 1488ntf    on510165   5.956   1.409   5.756 -0.2958  0.1536  0.1145
 1488ntf    on510166   6.197   1.047   5.595 -0.1296  0.2354  0.7885
 1488ntf    on510167   6.390   1.184   5.674  0.0081 -0.1032  0.3003
 1488ntf    fn410168   6.378   1.202   5.399  0.1315 -0.0685  0.4254
 1488ntf    fn410169   6.183   1.274   5.384  0.4070  0.4187 -0.1743
 1488ntf    fn410170   6.328   1.386   5.488  0.2931 -0.3825 -0.0165
 1489ntf    cn110171   1.299   0.189   5.729 -0.2451 -0.3707  0.2456
 1489ntf    sn210172   1.137   0.243   5.792 -0.0530  0.2714  0.1905
 1489ntf    nn310173   1.166   0.284   5.940 -0.3308  0.1382  0.2840
 1489ntf    sn210174   1.234   0.417   5.989 -0.0116  0.0697  0.0299
 1489ntf    cn110175   1.094   0.519   6.044  0.0415 -0.0407  0.3692
 1489ntf    fn410176   1.350   0.094   5.806  0.4551 -0.1643  0.0392
 1489ntf    fn410177   1.286   0.139   5.607 -0.0770  0.0180  0.0671
 1489ntf    fn410178   1.388   0.286   5.727 -0.1757 -0.4275  0.5122
 1489ntf    on510179   1.095   0.352   5.706 -0.0743  0.0791 -0.0449
 1489ntf    on510180   1.048   0.129   5.790 -0.2027  0.3868  0.2626
 1489ntf    on510181   1.283   0.497   5.878 -0.8137  0.2136 -0.2295
 1489ntf    on510182   1.328   0.410   6.098  0.5095 -0.1744 -0.4297
 1489ntf    fn410183   1.000   0.453   6.110 -0.1286  0.2046  0.3767
 1489ntf    fn410184   1.133   0.626   6.110 -0.4904  0.4774 -0.1365
 1489ntf    fn410185   1.030   0.563   5.936 -0.2038 -0.3024  0.4050
 1490ntf    cn110186   1.656   4.083   4.642 -0.0630 -0.2406  0.1591
 1490ntf    sn210187   1.635   3.915   4.708 -0.3547 -0.2701 -0.0076
 1490ntf    nn310188   1.638   3.958   4.859 -0.1408  0.5623 -0.2462
 1490ntf    sn210189   1.533   3.999   4.969  0.2040  0.1759  0.2261
 1490ntf    cn110190   1.624   4.142   5.035  0.4189  0.2805 -0.2934
 1490ntf    fn410191   1.647   4.094   4.510  0.0765 -0.1958  0.1536
 1490ntf    fn410192   1.571   4.174   4.686 -0.3053 -0.6432  0.5332
 1490ntf    fn410193   1.768   4.139   4.683  0.0215 -0.1099 -0.2452
 1490ntf    on510194   1.514   3.869   4.644  0.0714 -0.6092 -0.5832
 1490ntf    on510195   1.758   3.850   4.671 -0.1023  0.0228  0.3153
 1490ntf    on510196   1.531   3.894   5.069  0.3900  0.1223  0.1743
 1490ntf    on510197   1.411   4.056   4.918  0.3091  0.5764  0.4232
 1490ntf    fn410198   1.751   4.124   5.066  0.1495 -0.3002  0.4916
 1490ntf    fn410199   1.609   4.256   4.969 -0.1131  0.4931  0.1825
 1490ntf    fn410200   1.567   4.176   5.150  0.0921 -0.0434 -0.3558
 1491ntf    cn110201   5.090   3.920   3.100 -0.1809  0.3399  0.1863
 1491ntf    sn210202   4.915   3.931   3.149 -0.1648 -0.0991  0.3462
 1491ntf    nn310203   4.922   3.981   3.298 -0.0013 -0.2057  0.3746
 1491ntf    sn210204   4.805   4.038   3.385 -0.0747  0.3662 -0.0944
 1491ntf    cn110205   4.750   3.889   3.474  0.1829 -0.0833 -0.6768
 1491ntf    fn410206   5.093   3.874   2.976 -0.6198 -0.5606  0.4982
 1491ntf    fn410207   5.163   4.031   3.101  0.1707  0.1145 -0.1524
 1491ntf    fn410208   5.158   3.827   3.166 -0.4615 -0.0305 -0.0444
 1491ntf    on510209   4.863   4.024   3.052  0.2754  0.5855  0.7570
 1491ntf    on510210   4.863   3.796   3.143 -0.0226 -0.1724  0.7021
 1491ntf    on510211   4.688   4.082   3.312 -0.4423 -0.5147 -0.0472
 1491ntf    on510212   4.853   4.123   3.490 -0.4695  0.0928  0.3111
 1491ntf    fn410213   4.687   3.804   3.394 -0.7252  0.2197 -0.2953
 1491ntf    fn410214   4.854   3.826   3.525  0.1965  0.2907 -0.2378
 1491ntf    fn410215   4.666   3.922   3.570  0.2677 -0.1831 -0.5670
 1492ntf    cn110216   6.210   5.208   3.263 -0.1585 -0.0290 -0.4172
 1492ntf    sn210217   6.207   5.319   3.407 -0.0028 -0.4325 -0.1014
 1492ntf    nn310218   6.149   5.441   3.326 -0.2941 -0.4811  0.0302
 1492ntf    sn210219   6.047   5.551   3.373  0.0137 -0.1941  0.0356
 1492ntf    cn110220   5.919   5.533   3.244 -0.0334  0.5518 -0.0234
 1492ntf    fn410221   6.324   5.221   3.197 -0.0658  0.4067 -0.1745
 1492ntf    fn410222   6.208   5.084   3.309 -0.4606  0.2297  0.2939
 1492ntf    fn410223   6.108   5.220   3.179 -0.2759  0.2575 -0.2357
 1492ntf    on510224   6.122   5.250   3.501 -0.1676 -0.0583  0.0284
 1492ntf    on510225   6.344   5.339   3.447 -0.1352  0.3857 -0.0320
 1492ntf    on510226   6.102   5.682   3.351  0.5142 -0.4787 -0.4548
 1492ntf    on510227   5.969   5.524   3.491  0.0430  0.3079  0.1709
 1492ntf    fn410228   5.825   5.448   3.281  0.3109  0.0875 -0.2056
 1492ntf    fn410229   5.855   5.646   3.217 -0.2549  0.4605  0.1188
 1492ntf    fn410230   5.965   5.482   3.131  0.2950 -0.3113  0.4896
 1493ntf    cn110231   2.536   0.163   3.853  0.0289 -0.3820  0.1895
 1493ntf    sn210232   2.375   0.160   3.938  0.0672 -0.1740  0.2717
 1493ntf    nn310233   2.287   0.191   3.812  0.2167 -0.1023  0.1842
 1493ntf    sn210234   2.211   0.096   3.713 -0.0353 -0.0497  0.3247
 1493ntf    cn110235   2.036   0.106   3.760 -0.1182  0.1109 -0.0199
 1493ntf    fn410236   2.640   0.112   3.916  0.2640  0.1710  0.2611
 1493ntf    fn410237   2.529   0.104   3.735 -0.2371 -0.4520  0.2404
 1493ntf    fn410238   2.577   0.286   3.824  0.3204 -0.6085 -0.3847
 1493ntf    on510239   2.376   0.026   3.992  0.2635 -0.1979  0.2108
 1493ntf    on510240   2.378   0.274   4.025  0.3987 -0.0716  0.1319
 1493ntf    on510241   2.244  -0.045   3.720  0.0514 -0.0296  0.3307
 1493ntf    on510242   2.211   0.150   3.579  0.0812  0.3523  0.4852
 1493ntf    fn410243   1.988   0.229   3.756 -0.2082  0.0673 -0.3985
 1493ntf    fn410244   1.957   0.040   3.676  0.6404 -0.1828 -0.5136
 1493ntf    fn410245   2.018   0.057   3.881 -0.2592  0.0042 -0.0829
 1494ntf    cn110246   4.747   5.448   4.254 -0.0407  0.0781 -0.0581
 1494ntf    sn210247   4.730   5.627   4.225 -0.1224  0.1060  0.1583
 1494ntf    nn310248   4.681   5.652   4.372 -0.0832  0.0709  0.1775
 1494ntf    sn210249   4.754   5.704   4.501  0.0113  0.0521  0.1315
 1494ntf    cn110250   4.710   5.881   4.497  0.1012  0.0703 -0.0883
 1494ntf    fn410251   4.806   5.430   4.371 -0.5035 -0.3396  0.1146
 1494ntf    fn410252   4.628   5.389   4.255  0.0450 -0.0924  0.0644
 1494ntf    fn410253   4.821   5.388   4.163  0.1138 -0.1905  0.2424
 1494ntf    on510254   4.860   5.674   4.185  0.0225 -0.1032  0.3792
 1494ntf    on510255   4.619   5.636   4.134 -0.3288 -0.0560  0.3912
 1494ntf    on510256   4.898   5.697   4.494  0.0679  0.6372  0.6300
 1494ntf    on510257   4.692   5.661   4.623  0.0155  0.5991  0.3317
 1494ntf    fn410258   4.747   5.949   4.390 -0.3019  0.0474 -0.2462
 1494ntf    fn410259   4.579   5.893   4.512  0.0400 -0.0326 -0.5084
 1494ntf    fn410260   4.773   5.937   4.598  0.3680  0.0345 -0.2331
 1495ntf    cn110261   1.193   1.776   1.595  0.7981 -0.0733  0.0652
 1495ntf    sn210262   1.244   1.630   1.690  0.3779 -0.2538  0.0143
 1495ntf    nn310263   1.114   1.570   1.754  0.0981  0.0077 -0.3122
 1495ntf    sn210264   1.017   1.459   1.699  0.0593 -0.1108 -0.0024
 1495ntf    cn110265   1.089   1.313   1.780  0.1959  0.0498  0.1666
 1495ntf    fn410266   1.119   1.851   1.675  0.3727 -0.4772  0.0472
 1495ntf    fn410267   1.291   1.857   1.555  0.7749  0.1512  0.4625
 1495ntf    fn410268   1.117   1.746   1.491 -0.2060  0.0886  0.7388
 1495ntf    on510269   1.304   1.549   1.588  0.2616 -0.4824  0.1253
 1495ntf    on510270   1.332   1.682   1.793 -0.0326  0.4241  0.0314
 1495ntf    on510271   1.026   1.432   1.558  0.3708 -0.3887  0.0697
 1495ntf    on510272   0.887   1.467   1.761 -0.0097  0.0751 -0.1692
 1495ntf    fn410273   1.171   1.249   1.698 -0.1597 -0.0311 -0.1292
 1495ntf    fn410274   1.149   1.337   1.895  0.2151 -0.0978  0.1872
 1495ntf    fn410275   0.999   1.225   1.821 -0.0705 -0.0887 -0.6941
 1496ntf    cn110276   0.041   3.725   5.036 -0.1285  0.6877  0.4587
 1496ntf    sn210277  -0.003   3.598   5.158  0.0845 -0.1061 -0.2875
 1496ntf    nn310278  -0.132   3.663   5.219  0.1331 -0.3724  0.1039
 1496ntf    sn210279  -0.145   3.747   5.351 -0.0783 -0.1569 -0.0527
 1496ntf    cn110280  -0.254   3.632   5.440  0.0148  0.1526  0.4659
 1496ntf    fn410281   0.026   3.847   5.086 -0.2082  0.8150  0.1307
 1496ntf    fn410282   0.171   3.719   5.018 -0.1271 -0.0932  0.7055
 1496ntf    fn410283  -0.014   3.719   4.916  0.3946 -0.2600  0.2654
 1496ntf    on510284  -0.032   3.473   5.093  0.7296 -0.2967 -0.2151
 1496ntf    on510285   0.118   3.595   5.236 -0.1569 -0.5346  0.0755
 1496ntf    on510286  -0.217   3.869   5.323 -0.0843 -0.1855 -0.1607
 1496ntf    on510287  -0.027   3.750   5.433  0.2167  0.0264 -0.4790
 1496ntf    fn410288  -0.374   3.631   5.385  0.2551  0.7241 -0.0905
 1496ntf    fn410289  -0.212   3.507   5.430 -0.0696  0.1972 -0.5773
 1496ntf    fn410290  -0.273   3.653   5.569 -0.4039  0.3708  0.3675
 1497ntf    cn110291   2.141   4.266   5.107 -0.0604 -0.1764 -0.1708
 1497ntf    sn210292   2.197   4.433   5.149 -0.1640 -0.2450  0.2480
 1497ntf    nn310293   2.132   4.518   5.034 -0.2253 -0.3561  0.2003
 1497ntf    sn210294   2.012   4.620   5.036  0.2235  0.1870 -0.1093
 1497ntf    cn110295   2.075   4.759   5.135  0.0876  0.0005  0.2422
 1497ntf    fn410296   2.013   4.248   5.136 -0.1685 -0.3170 -0.7236
 1497ntf    fn410297   2.152   4.232   4.979 -0.2322  0.6680 -0.4125
 1497ntf    fn410298   2.207   4.174   5.176 -0.8175 -0.6122 -0.0140
 1497ntf    on510299   2.146   4.464   5.280  0.3897  0.3352  0.3339
 1497ntf    on510300   2.341   4.441   5.135 -0.2108 -0.4768 -0.4036
 1497ntf    on510301   1.897   4.572   5.108  0.3631  0.3167  0.2027
 1497ntf    on510302   1.999   4.680   4.906  0.6340  0.2375 -0.1285
 1497ntf    fn410303   2.206   4.749   5.149  0.1274  0.1078 -0.0484
 1497ntf    fn410304   2.056   4.876   5.076  0.0561 -0.1346 -0.0174
 1497ntf    fn410305   2.027   4.760   5.258 -0.3198 -0.2996  0.0856
 1498ntf    cn110306   4.152   3.164   1.959  0.0191 -0.0083  0.1285
 1498ntf    sn210307   4.125   3.188   2.137 -0.3272 -0.2715  0.1122
 1498ntf    nn310308   4.190   3.052   2.181  0.6979 -0.0735 -0.7601
 1498ntf    sn210309   4.333   3.036   2.245  0.3217  0.0069  0.1113
 1498ntf    cn110310   4.373   2.859   2.225 -0.5384 -0.1356 -0.4097
 1498ntf    fn410311   4.099   3.264   1.889  0.2534  0.3468  0.4540
 1498ntf    fn410312   4.281   3.162   1.933 -0.0115 -0.3547 -0.0032
 1498ntf    fn410313   4.102   3.051   1.912 -0.5379  0.5554 -0.6596
 1498ntf    on510314   4.192   3.310   2.172 -0.3873 -0.2839  0.2701
 1498ntf    on510315   3.981   3.191   2.139 -0.3297 -0.6437  0.6783
 1498ntf    on510316   4.327   3.065   2.386  0.5784  0.2303  0.0750
 1498ntf    on510317   4.433   3.104   2.167 -0.3101  0.4265 -0.3484
 1498ntf    fn410318   4.277   2.782   2.273 -0.4516 -0.0287 -0.0638
 1498ntf    fn410319   4.391   2.835   2.096 -0.0885 -0.0536 -0.3640
 1498ntf    fn410320   4.488   2.836   2.285 -0.3086  0.6392 -0.5319
 1499ntf    cn110321   0.041   1.937   4.790  0.1693  0.3329  0.0054
 1499ntf    sn210322  -0.139   1.910   4.788  0.2774 -0.4044 -0.2488
 1499ntf    nn310323  -0.173   1.887   4.636 -0.5067 -0.1696 -0.1130
 1499ntf    sn210324  -0.197   1.991   4.521 -0.0558 -0.2897 -0.3163
 1499ntf    cn110325  -0.037   1.969   4.437 -0.0682 -0.0460 -0.4032
 1499ntf    fn410326   0.069   2.048   4.724 -0.1353  0.2380 -0.2888
 1499ntf    fn410327   0.085   1.961   4.912 -0.2741  0.5726  0.1184
 1499ntf    fn410328   0.106   1.834   4.739 -0.2880  0.1891 -0.2996
 1499ntf    on510329  -0.140   1.792   4.871  0.1624 -0.1055  0.1750
 1499ntf    on510330  -0.191   2.028   4.852  0.2839 -0.3585 -0.3267
 1499ntf    on510331  -0.198   2.133   4.546  0.6441 -0.2720 -0.3508
 1499ntf    on510332  -0.299   1.943   4.431 -0.3262 -0.0423 -0.1410
 1499ntf    fn410333  -0.034   1.848   4.386 -0.7247 -0.1953 -0.0964
 1499ntf    fn410334  -0.024   2.053   4.336 -0.0182 -0.0988 -0.4407
 1499ntf    fn410335   0.062   1.983   4.525  0.0016 -0.2612 -0.4473
 1500ntf    cn110336   1.609   6.483   6.361  0.0650 -0.3435  0.1891
 1500ntf    sn210337   1.431   6.453   6.383 -0.0437  0.2667  0.1539
 1500ntf    nn310338   1.405   6.540   6.511 -0.1988  0.3834  0.0433
 1500ntf    sn210339   1.301   6.516   6.626 -0.3546  0.0744 -0.1614
 1500ntf    cn110340   1.179   6.644   6.588  0.0935  0.5994  0.1471
 1500ntf    fn410341   1.628   6.603   6.309  0.4231 -0.4251  0.1336
 1500ntf    fn410342   1.679   6.476   6.473 -0.1942 -0.3591  0.3530
 1500ntf    fn410343   1.657   6.398   6.271 -0.2901 -0.5186  0.1599
 1500ntf    on510344   1.376   6.513   6.264  0.2614  0.5954  0.1779
 1500ntf    on510345   1.422   6.310   6.404  0.1319  0.3263  0.6492
 1500ntf    on510346   1.350   6.559   6.755 -0.2880  0.0299 -0.1718
 1500ntf    on510347   1.215   6.400   6.617 -0.6366  0.2378  0.3515
 1500ntf    fn410348   1.069   6.659   6.661 -0.1221  0.3673 -0.1243
 1500ntf    fn410349   1.234   6.764   6.577  0.3223  0.5119  0.3478
 1500ntf    fn410350   1.141   6.622   6.463  0.2426  0.1441  0.1826
 1501ntf    cn110351   1.014   0.505   6.394  0.0005  0.5958  0.4013
 1501ntf    sn210352   0.967   0.439   6.557  0.1562 -0.0673  0.1821
 1501ntf    nn310353   1.087   0.492   6.644  0.2879  0.3015 -0.2196
 1501ntf    sn210354   1.085   0.548   6.790  0.3314 -0.0777 -0.0718
 1501ntf    cn110355   1.231   0.457   6.850  0.2487 -0.2018 -0.0576
 1501ntf    fn410356   0.918   0.467   6.312  0.2684  0.0345  0.3448
 1501ntf    fn410357   1.022   0.637   6.393  0.5976  0.5547 -0.5500
 1501ntf    fn410358   1.132   0.462   6.353 -0.0558  0.5103  0.3287
 1501ntf    on510359   0.841   0.506   6.581  0.1421 -0.0215 -0.0235
 1501ntf    on510360   0.961   0.297   6.536 -0.7229  0.0254 -0.2451
 1501ntf    on510361   0.978   0.498   6.873  0.2887 -0.0005 -0.0812
 1501ntf    on510362   1.127   0.685   6.806 -0.0849  0.1301 -0.7210
 1501ntf    fn410363   1.231   0.334   6.802  0.0176 -0.2757  0.1248
 1501ntf    fn410364   1.347   0.506   6.810 -0.0640  0.5456 -0.0673
 1501ntf    fn410365   1.236   0.443   6.982  0.5592 -0.1083 -0.0594
 1502ntf    cn110366   2.610   4.151   4.453 -0.0824 -0.1951  0.0412
 1502ntf    sn210367   2.776   4.077   4.442 -0.1241 -0.3334  0.3176
 1502ntf    nn310368   2.848   4.137   4.568 -0.0929  0.4382 -0.0588
 1502ntf    sn210369   2.998   4.118   4.610 -0.1643  0.3253  0.1504
 1502ntf    cn110370   2.988   4.009   4.755 -0.3193  0.4077  0.2019
 1502ntf    fn410371   2.609   4.275   4.500 -0.5826 -0.2970  0.3118
 1502ntf    fn410372   2.553   4.151   4.334 -0.1199  0.3913  0.0579
 1502ntf    fn410373   2.530   4.087   4.537 -0.4513 -0.0708 -0.2116
 1502ntf    on510374   2.744   3.937   4.451 -0.1824 -0.3123  0.4334
 1502ntf    on510375   2.832   4.130   4.320 -0.0306 -0.4989  0.2881
 1502ntf    on510376   3.059   4.235   4.669  0.5061  0.2431 -0.3579
 1502ntf    on510377   3.081   4.042   4.519 -0.1876 -0.1788  0.5457
 1502ntf    fn410378   3.112   3.977   4.788 -0.4407  0.3968  0.6550
 1502ntf    fn410379   2.920   4.063   4.854 -0.1033 -0.1470  0.6593
 1502ntf    fn410380   2.920   3.899   4.727 -0.3532  0.4723  0.0325
 1503ntf    cn110381   2.160   3.011   2.188 -0.1637  0.2711  0.4243
 1503ntf    sn210382   2.005   2.965   2.272 -0.1395 -0.1489  0.2423
 1503ntf    nn310383   2.022   2.809   2.268  0.3635 -0.1055  0.6921
 1503ntf    sn210384   1.985   2.724   2.142  0.0503  0.3088  0.5008
 1503ntf    cn110385   2.128   2.611   2.140  0.0142  0.2699 -0.0056
 1503ntf    fn410386   2.259   2.936   2.234 -0.6027 -0.2908  0.4644
 1503ntf    fn410387   2.147   3.003   2.057  0.1123 -0.4684  0.4369
 1503ntf    fn410388   2.189   3.136   2.220  0.2580  0.2310  0.2062
 1503ntf    on510389   2.018   3.013   2.407 -0.0267  0.2744  0.0854
 1503ntf    on510390   1.893   3.022   2.201 -0.0802 -0.2215  0.0901
 1503ntf    on510391   1.991   2.798   2.019  0.0581 -0.6767 -0.1011
 1503ntf    on510392   1.876   2.632   2.164  0.2417 -0.0338  0.0203
 1503ntf    fn410393   2.120   2.512   2.053 -0.2290 -0.1698  0.5068
 1503ntf    fn410394   2.240   2.676   2.111  0.0288  0.2013 -0.1039
 1503ntf    fn410395   2.147   2.555   2.258 -0.1293  0.2485  0.0075
 1504ntf    cn110396   2.023   1.830   1.932 -0.1306  0.2388 -0.0249
 1504ntf    sn210397   2.129   1.907   2.058 -0.2694  0.1271  0.1611
 1504ntf    nn310398   2.228   1.790   2.090 -0.2367  0.1360  0.0937
 1504ntf    sn210399   2.371   1.796   2.156 -0.1553 -0.1341 -0.0587
 1504ntf    cn110400   2.327   1.718   2.314 -0.1453  0.0091  0.0152
 1504ntf    fn410401   1.940   1.741   1.985 -0.0468  0.1201 -0.0938
 1504ntf    fn410402   1.942   1.922   1.880 -0.5738  0.0600  0.3426
 1504ntf    fn410403   2.088   1.780   1.828 -0.3286 -0.2365  0.0798
 1504ntf    on510404   2.191   2.016   1.987  0.0414  0.1120  0.4077
 1504ntf    on510405   2.034   1.941   2.161 -0.4527 -0.2523  0.1166
 1504ntf    on510406   2.425   1.924   2.195  0.1989 -0.3721  0.2327
 1504ntf    on510407   2.465   1.706   2.094  0.9631  0.4867  0.7023
 1504ntf    fn410408   2.309   1.589   2.288  0.0817 -0.0107 -0.0508
 1504ntf    fn410409   2.425   1.725   2.402 -0.4991  0.6034  0.3649
 1504ntf    fn410410   2.221   1.771   2.371 -0.1804 -0.4024  0.3378
 1505ntf    cn110411   2.364   2.442   3.673  0.2152  0.1127 -0.0290
 1505ntf    sn210412   2.373   2.499   3.501  0.0671  0.2132 -0.0033
 1505ntf    nn310413   2.269   2.617   3.512 -0.0851  0.0564  0.2510
 1505ntf    sn210414   2.294   2.768   3.480 -0.0315 -0.0480 -0.2216
 1505ntf    cn110415   2.122   2.824   3.500 -0.0937 -0.4067  0.2880
 1505ntf    fn410416   2.382   2.544   3.756 -0.4101  0.0079  0.2379
 1505ntf    fn410417   2.243   2.397   3.700  0.2104 -0.2382 -0.6329
 1505ntf    fn410418   2.453   2.349   3.704 -0.3609 -0.4734 -0.1399
 1505ntf    on510419   2.507   2.549   3.488  0.2160 -0.3439 -0.6673
 1505ntf    on510420   2.332   2.388   3.418  1.4549 -0.5119  0.2579
 1505ntf    on510421   2.313   2.799   3.341  0.3570 -0.6920 -0.3141
 1505ntf    on510422   2.357   2.842   3.587 -0.2549  0.2786 -0.3144
 1505ntf    fn410423   2.083   2.825   3.626 -0.5487 -0.1825  0.1457
 1505ntf    fn410424   2.082   2.939   3.446  0.4856 -0.1810  0.3308
 1505ntf    fn410425   2.041   2.737   3.442 -0.6544  0.2191  0.1194
 1506ntf    cn110426   0.296   0.595   0.513  0.6457  0.4580 -0.1925
 1506ntf    sn210427   0.407   0.709   0.425  0.6838  0.2732 -0.3838
 1506ntf    nn310428   0.535   0.620   0.408  0.2316 -0.3938 -0.3766
 1506ntf    sn210429   0.686   0.661   0.394  0.0672  0.2487 -0.3025
 1506ntf    cn110430   0.729   0.632   0.568 -0.4697 -0.0475 -0.2168
 1506ntf    fn410431   0.264   0.487   0.444  0.1464  0.4008  0.1188
 1506ntf    fn410432   0.358   0.533   0.612 -0.2923 -0.4637 -0.1608
 1506ntf    fn410433   0.186   0.648   0.565  0.5213 -0.2001  0.2268
 1506ntf    on510434   0.339   0.734   0.301 -0.3190 -1.0258 -0.1220
 1506ntf    on510435   0.424   0.824   0.509 -0.1940  0.6907 -0.7618
 1506ntf    on510436   0.727   0.797   0.366  0.1221  0.3548  0.2883
 1506ntf    on510437   0.756   0.563   0.314  0.4975  0.4082 -0.1250
 1506ntf    fn410438   0.732   0.503   0.596  0.9123  0.1159  0.4632
 1506ntf    fn410439   0.845   0.687   0.599 -0.2887 -0.0421 -0.8795
 1506ntf    fn410440   0.640   0.688   0.647 -0.3919 -0.2997  0.0510
 1507ntf    cn110441   5.930   6.748   2.793 -0.2040  0.0304  0.1851
 1507ntf    sn210442   5.765   6.807   2.744 -0.1276  0.0550 -0.0417
 1507ntf    nn310443   5.755   6.770   2.592  0.0601 -0.3414  0.0417
 1507ntf    sn210444   5.721   6.638   2.513 -0.1591 -0.2988  0.0669
 1507ntf    cn110445   5.606   6.711   2.392 -0.2570 -0.3985  0.0990
 1507ntf    fn410446   5.938   6.617   2.777 -0.3158  0.0296  0.1312
 1507ntf    fn410447   6.025   6.811   2.727  0.0052 -0.5492 -0.0751
 1507ntf    fn410448   5.943   6.764   2.924  0.5045 -0.2212  0.1453
 1507ntf    on510449   5.670   6.735   2.826 -0.1308  0.3578  0.2193
 1507ntf    on510450   5.778   6.949   2.762 -0.8349  0.1100  0.0731
 1507ntf    on510451   5.648   6.531   2.576 -0.4245 -0.0551  0.1779
 1507ntf    on510452   5.833   6.597   2.432 -0.0803  0.0668 -0.0123
 1507ntf    fn410453   5.569   6.621   2.303  0.0562  0.2209 -0.6789
 1507ntf    fn410454   5.497   6.747   2.457 -0.2564 -0.1401 -0.0384
 1507ntf    fn410455   5.651   6.816   2.324 -0.3282 -0.2283  0.3132
 1508ntf    cn110456   4.223   3.399   5.702  0.2116 -0.1905  0.0221
 1508ntf    sn210457   4.365   3.382   5.590  0.1970  0.0376 -0.0308
 1508ntf    nn310458   4.441   3.518   5.610 -0.3696  0.2576  0.6850
 1508ntf    sn210459   4.441   3.642   5.514  0.0059 -0.2869 -0.0284
 1508ntf    cn110460   4.599   3.623   5.426  0.0171  0.2376 -0.1209
 1508ntf    fn410461   4.267   3.410   5.826 -0.1595 -0.5617  0.1911
 1508ntf    fn410462   4.154   3.511   5.685 -0.2482 -0.4930 -0.1413
 1508ntf    fn410463   4.142   3.294   5.696  0.0579 -0.0591 -0.2286
 1508ntf    on510464   4.448   3.280   5.649  0.0629  0.0978  0.2629
 1508ntf    on510465   4.305   3.361   5.460  0.4162 -0.2248 -0.0913
 1508ntf    on510466   4.462   3.763   5.588 -0.5832 -0.0377 -0.2589
 1508ntf    on510467   4.339   3.655   5.412  0.4532  0.8367 -0.3447
 1508ntf    fn410468   4.652   3.732   5.371 -0.1076  0.1098 -0.5026
 1508ntf    fn410469   4.685   3.575   5.514 -0.0474  0.2889 -0.0302
 1508ntf    fn410470   4.588   3.538   5.326 -0.4650  0.1859 -0.0249
 1509ntf    cn110471   6.097   3.102   3.720 -0.2993  0.3275 -0.0431
 1509ntf    sn210472   6.255   3.150   3.644 -0.1865  0.1161  0.0551
 1509ntf    nn310473   6.254   3.054   3.520  0.2715  0.2414 -0.0473
 1509ntf    sn210474   6.209   3.081   3.372  0.2854  0.0626 -0.0847
 1509ntf    cn110475   6.361   3.164   3.318  0.1897  0.3130  0.0299
 1509ntf    fn410476   6.073   2.972   3.712  0.3388  0.2202 -0.2978
 1509ntf    fn410477   6.096   3.148   3.844  0.1960  0.1933  0.0114
 1509ntf    fn410478   5.997   3.157   3.652 -0.3730 -0.4381 -0.5661
 1509ntf    on510479   6.241   3.292   3.619  0.5342  0.0398 -0.8370
 1509ntf    on510480   6.353   3.117   3.744  0.1328  0.4568 -0.1440
 1509ntf    on510481   6.100   3.172   3.349 -0.0640 -0.2881  0.1708
 1509ntf    on510482   6.212   2.959   3.294  0.5782  0.0948 -0.1245
 1509ntf    fn410483   6.393   3.268   3.393  0.1576  0.0314  0.4361
 1509ntf    fn410484   6.465   3.083   3.306 -0.1000 -0.0085 -0.3285
 1509ntf    fn410485   6.352   3.207   3.193 -0.5814  0.7660  0.2348
 1510ntf    cn110486   6.452   4.956   1.450 -0.1918  0.0658 -0.2690
 1510ntf    sn210487   6.345   5.102   1.432 -0.0596  0.1615 -0.2733
 1510ntf    nn310488   6.217   5.031   1.375 -0.1506  0.3334 -0.2826
 1510ntf    sn210489   6.124   5.073   1.256  0.0551 -0.0861 -0.5910
 1510ntf    cn110490   5.960   5.072   1.336  0.0473 -0.0244 -0.6073
 1510ntf    fn410491   6.574   4.977   1.495 -0.1035  0.1073 -0.5285
 1510ntf    fn410492   6.395   4.866   1.529 -0.4727  0.1644 -0.3557
 1510ntf    fn410493   6.467   4.897   1.333 -0.2367  0.2551 -0.3700
 1510ntf    on510494   6.324   5.152   1.565  0.0418  0.6405 -0.4338
 1510ntf    on510495   6.413   5.187   1.337  0.4571 -0.0687 -0.1127
 1510ntf    on510496   6.110   4.966   1.159 -0.8232 -0.3113 -0.2258
 1510ntf    on510497   6.131   5.208   1.206 -0.1375  0.2251  0.2131
 1510ntf    fn410498   5.861   5.091   1.251 -0.1818  0.8493 -0.1642
 1510ntf    fn410499   5.934   4.962   1.405 -0.2143  0.1796 -0.3769
 1510ntf    fn410500   5.950   5.173   1.421  0.2808 -0.2042 -0.3645
 1511ntf    cn110501   5.497   3.001   1.687  0.1801 -0.2931  0.0570
 1511ntf    sn210502   5.445   3.054   1.520 -0.2269 -0.2412  0.1980
 1511ntf    nn310503   5.502   3.200   1.520 -0.2523 -0.2323 -0.3313
 1511ntf    sn210504   5.425   3.333   1.487  0.0769  0.1294  0.3288
 1511ntf    cn110505   5.505   3.427   1.620 -0.1206  0.4003  0.2572
 1511ntf    fn410506   5.441   2.887   1.723  0.2277 -0.3914 -0.1758
 1511ntf    fn410507   5.628   2.987   1.699  0.2967  0.3665 -0.4031
 1511ntf    fn410508   5.465   3.082   1.786  0.7037 -0.0859  0.0553
 1511ntf    on510509   5.520   2.976   1.424 -1.1758 -0.2895 -0.5087
 1511ntf    on510510   5.306   3.017   1.517 -0.2513 -0.1388  0.0631
 1511ntf    on510511   5.288   3.344   1.530  0.2040  0.0441  0.7578
 1511ntf    on510512   5.470   3.389   1.362  0.2665  0.4132  0.5250
 1511ntf    fn410513   5.499   3.557   1.597  0.5202  0.3781 -0.0506
 1511ntf    fn410514   5.459   3.407   1.743 -0.0603  1.0427  0.3861
 1511ntf    fn410515   5.635   3.407   1.630 -0.0837  0.4557 -0.1213
 1512ntf    cn110516   1.372   6.204   4.545 -0.6570  0.1103 -0.1697
 1512ntf    sn210517   1.264   6.170   4.403 -0.0523  0.0969 -0.6296
 1512ntf    nn310518   1.181   6.303   4.393  0.2347  0.3204 -0.0768
 1512ntf    sn210519   1.045   6.335   4.463  0.1231 -0.1669 -0.0686
 1512ntf    cn110520   0.926   6.257   4.349 -0.1596 -0.0474  0.1432
 1512ntf    fn410521   1.482   6.131   4.543 -0.3142  0.6283 -0.4904
 1512ntf    fn410522   1.414   6.330   4.540  0.6907 -0.3079  0.2342
 1512ntf    fn410523   1.314   6.196   4.664  0.0203  0.0735  0.1651
 1512ntf    on510524   1.361   6.147   4.299  0.5231 -0.1797 -0.0389
 1512ntf    on510525   1.193   6.053   4.448 -0.0961  0.2941 -0.1796
 1512ntf    on510526   0.999   6.471   4.455  0.1075 -0.1244  0.6714
 1512ntf    on510527   1.017   6.268   4.588  0.0405 -0.2666 -0.1399
 1512ntf    fn410528   0.926   6.328   4.238 -0.7466 -0.2312  0.0246
 1512ntf    fn410529   0.965   6.135   4.314  0.4760  0.2210 -0.1001
 1512ntf    fn410530   0.802   6.252   4.394  0.0521 -0.0799  0.7332
 1513ntf    cn110531   4.662   2.793   1.614 -0.1279  0.1506 -0.0091
 1513ntf    sn210532   4.568   2.791   1.458 -0.0455 -0.3303 -0.0536
 1513ntf    nn310533   4.624   2.926   1.402 -0.2086  0.0422  0.6621
 1513ntf    sn210534   4.547   3.042   1.329  0.1566 -0.2658 -0.2376
 1513ntf    cn110535   4.562   2.989   1.156 -0.3265 -0.7112 -0.1459
 1513ntf    fn410536   4.786   2.753   1.596 -0.1468  0.0166  0.1527
 1513ntf    fn410537   4.667   2.912   1.673  0.1838  0.3070 -0.3525
 1513ntf    fn410538   4.612   2.712   1.707  0.0432 -0.1512 -0.1787
 1513ntf    on510539   4.620   2.671   1.397 -0.1108 -0.3199 -0.1283
 1513ntf    on510540   4.432   2.779   1.503 -0.0153  0.0075  0.1326
 1513ntf    on510541   4.614   3.170   1.331 -0.1534 -0.1019 -0.2323
 1513ntf    on510542   4.403   3.037   1.336  0.1663 -0.0280  0.1601
 1513ntf    fn410543   4.569   2.857   1.150 -0.0351 -0.6976 -0.1047
 1513ntf    fn410544   4.454   3.028   1.091 -0.2500 -0.0852  0.0921
 1513ntf    fn410545   4.668   3.035   1.092 -0.6855  0.0758 -0.1868
 1514ntf    cn110546   1.809   0.295   1.663 -0.2435 -0.2663 -0.0910
 1514ntf    sn210547   1.930   0.205   1.764 -0.0210 -0.0454 -0.1615
 1514ntf    nn310548   2.016   0.145   1.647 -0.0317  0.0970 -0.2423
 1514ntf    sn210549   2.171   0.122   1.646 -0.0634 -0.1478  0.2450
 1514ntf    cn110550   2.166  -0.001   1.512  0.0292  0.1308 -0.0162
 1514ntf    fn410551   1.857   0.383   1.576 -0.3614 -0.2927 -0.1843
 1514ntf    fn410552   1.736   0.213   1.589 -0.1573 -0.2999 -0.1388
 1514ntf    fn410553   1.712   0.353   1.733 -0.0282  0.2746 -0.2374
 1514ntf    on510554   1.995   0.304   1.847  0.0751  0.0659 -0.3658
 1514ntf    on510555   1.854   0.107   1.837 -0.2092  0.5592  0.4642
 1514ntf    on510556   2.225   0.048   1.757  0.1298 -0.0952  0.1865
 1514ntf    on510557   2.247   0.228   1.583 -0.1886 -0.3195 -0.1980
 1514ntf    fn410558   2.062   0.020   1.433 -0.5000 -0.2985  0.5575
 1514ntf    fn410559   2.271   0.010   1.433  0.1653 -0.0158  0.1456
 1514ntf    fn410560   2.148  -0.123   1.558 -0.1351  0.2013  0.1093
 1515ntf    cn110561   0.183   1.424   4.173 -0.5402 -0.4694  0.1608
 1515ntf    sn210562   0.144   1.503   4.015  0.2284  0.2602  0.3309
 1515ntf    nn310563   0.212   1.645   4.016 -0.1492  0.4446  0.0522
 1515ntf    sn210564   0.366   1.674   4.019 -0.0410 -0.1399  0.1453
 1515ntf    cn110565   0.399   1.722   3.847  0.2589  0.0616  0.2590
 1515ntf    fn410566   0.132   1.302   4.178 -0.4316 -0.5112  0.2518
 1515ntf    fn410567   0.311   1.409   4.205 -0.5011  0.0662  0.2624
 1515ntf    fn410568   0.130   1.490   4.275  0.0745 -0.0710  0.2298
 1515ntf    on510569   0.193   1.409   3.917  0.1367  0.4158  0.1331
 1515ntf    on510570   0.002   1.523   4.023  0.1610  0.1870 -0.5343
 1515ntf    on510571   0.456   1.565   4.048  0.0201 -0.0463  0.3101
 1515ntf    on510572   0.392   1.793   4.096  0.2229 -0.1972  0.1453
 1515ntf    fn410573   0.521   1.772   3.830  0.2718 -0.0846 -0.0915
 1515ntf    fn410574   0.399   1.614   3.770 -0.3334  0.1791  0.0929
 1515ntf    fn410575   0.313   1.808   3.795  0.0924 -0.2327  0.0490
 1516ntf    cn110576   2.285   6.233   4.884  0.5386  0.0222  0.0767
 1516ntf    sn210577   2.218   6.111   5.001 -0.0829  0.2762 -0.0144
 1516ntf    nn310578   2.285   6.170   5.130 -0.1447  0.0338  0.1303
 1516ntf    sn210579   2.322   6.090   5.260  0.1460 -0.0526 -0.0036
 1516ntf    cn110580   2.195   6.159   5.371  0.1974 -0.1535  0.1179
 1516ntf    fn410581   2.251   6.350   4.936 -0.3666 -0.1572 -0.1057
 1516ntf    fn410582   2.416   6.230   4.867  0.5331  0.0412  0.0310
 1516ntf    fn410583   2.231   6.232   4.763  0.4845 -0.1277  0.1021
 1516ntf    on510584   2.074   6.122   4.998 -0.0796  0.2388 -0.4210
 1516ntf    on510585   2.272   5.986   4.954 -0.0409  0.1567  0.3468
 1516ntf    on510586   2.442   6.143   5.320  0.2374 -0.6458  0.3379
 1516ntf    on510587   2.301   5.948   5.256 -0.1619 -0.0162  0.2528
 1516ntf    fn410588   2.184   6.291   5.360 -0.0855 -0.2014 -0.1964
 1516ntf    fn410589   2.078   6.105   5.345 -0.0494  0.3235  0.2248
 1516ntf    fn410590   2.219   6.128   5.497  0.1593  0.3007  0.2403
 1517ntf    cn110591   3.252   4.956   5.238  0.3343  0.0701  0.1614
 1517ntf    sn210592   3.213   5.130   5.272  0.2213  0.0797 -0.0146
 1517ntf    nn310593   3.356   5.190   5.246  0.3214 -0.1407  0.0268
 1517ntf    sn210594   3.470   5.193   5.355  0.0853  0.2207  0.2671
 1517ntf    cn110595   3.455   5.367   5.403  0.1118  0.3451 -0.1708
 1517ntf    fn410596   3.365   4.922   5.298  0.2527  0.1750  0.3755
 1517ntf    fn410597   3.155   4.873   5.271 -0.1064  0.5267  0.0126
 1517ntf    fn410598   3.277   4.932   5.110 -0.1781 -0.0081  0.0769
 1517ntf    on510599   3.129   5.174   5.164  0.0080  0.1067  0.1618
 1517ntf    on510600   3.162   5.134   5.407 -0.0136  0.2162 -0.1084
 1517ntf    on510601   3.603   5.196   5.300 -0.1306 -0.6601 -0.3299
 1517ntf    on510602   3.457   5.114   5.475 -0.1315  0.6850  0.5521
 1517ntf    fn410603   3.560   5.391   5.481  0.2280 -0.3155 -0.1208
 1517ntf    fn410604   3.461   5.435   5.289  0.2361 -0.2999 -0.5515
 1517ntf    fn410605   3.344   5.396   5.468 -0.0005 -0.1883 -0.1286
 1518ntf    cn110606   4.578   2.609   5.178 -0.1563  0.0464 -0.0611
 1518ntf    sn210607   4.444   2.548   5.072 -0.2628 -0.1363  0.1772
 1518ntf    nn310608   4.419   2.670   4.976 -0.0389 -0.0771  0.1948
 1518ntf    sn210609   4.428   2.671   4.819  0.0034  0.1957  0.1986
 1518ntf    cn110610   4.604   2.711   4.796  0.0297 -0.1413 -0.1902
 1518ntf    fn410611   4.601   2.522   5.275 -0.3559 -0.0183 -0.0720
 1518ntf    fn410612   4.694   2.633   5.119  0.1661 -0.1968  0.4759
 1518ntf    fn410613   4.540   2.724   5.231 -0.1945 -0.2392  0.5276
 1518ntf    on510614   4.495   2.426   5.014 -0.4344  0.0643 -0.4035
 1518ntf    on510615   4.335   2.535   5.165 -0.4350 -0.0890 -0.0161
 1518ntf    on510616   4.359   2.789   4.775  0.6191  0.6753  0.5112
 1518ntf    on510617   4.399   2.547   4.750  0.3244  0.4447 -0.3889
 1518ntf    fn410618   4.621   2.840   4.772  0.0885 -0.2810 -0.9320
 1518ntf    fn410619   4.674   2.666   4.899  0.4774  0.1071 -0.3819
 1518ntf    fn410620   4.654   2.647   4.691  0.2056 -0.4365  0.0715
 1519ntf    cn110621   3.479   2.137   1.839  0.1184 -0.6567  0.0685
 1519ntf    sn210622   3.482   2.171   2.018  0.2110 -0.2478 -0.0104
 1519ntf    nn310623   3.372   2.066   2.057  0.0548 -0.1938 -0.2990
 1519ntf    sn210624   3.358   1.973   2.183 -0.0961 -0.1475 -0.2821
 1519ntf    cn110625   3.180   1.957   2.216 -0.0828  0.2014 -0.0305
 1519ntf    fn410626   3.489   2.009   1.806 -0.1540 -0.3690 -1.1893
 1519ntf    fn410627   3.360   2.169   1.790  0.4893  0.1360 -0.3264
 1519ntf    fn410628   3.566   2.208   1.769 -0.4509 -0.0376 -0.0230
 1519ntf    on510629   3.621   2.145   2.049  0.0768 -0.3145  0.5398
 1519ntf    on510630   3.431   2.306   2.025  0.1339 -0.2927  0.2995
 1519ntf    on510631   3.420   2.030   2.301  0.2847  0.2165 -0.6527
 1519ntf    on510632   3.397   1.840   2.143  0.2745 -0.0662 -0.1916
 1519ntf    fn410633   3.128   2.079   2.221  0.1141  0.2964 -0.2601
 1519ntf    fn410634   3.119   1.892   2.118 -0.1866  0.7769 -0.3523
 1519ntf    fn410635   3.155   1.897   2.331  0.0069  0.6648  0.2309
 1520ntf    cn110636   2.851   5.164   0.030  0.0911 -0.1131  0.1566
 1520ntf    sn210637   2.980   5.057   0.101 -0.0175 -0.4696 -0.1790
 1520ntf    nn310638   2.976   4.933   0.005 -0.4161 -0.1157 -0.6235
 1520ntf    sn210639   3.067   4.888  -0.115  0.0088  0.0583 -0.3664
 1520ntf    cn110640   3.187   4.778  -0.033 -0.3444 -0.0528  0.0080
 1520ntf    fn410641   2.816   5.129  -0.093 -0.3947 -0.2323  0.3257
 1520ntf    fn410642   2.740   5.144   0.099  0.4099  0.0693  0.7316
 1520ntf    fn410643   2.882   5.292   0.031 -0.1231 -0.0593 -0.0424
 1520ntf    on510644   3.102   5.134   0.113 -0.4511  0.1873  0.1073
 1520ntf    on510645   2.935   5.024   0.234  0.2175  0.3652  0.1175
 1520ntf    on510646   3.150   4.993  -0.169 -0.0142  0.2729  0.0087
 1520ntf    on510647   2.989   4.810  -0.207 -0.3385  0.1113 -0.1208
 1520ntf    fn410648   3.236   4.826   0.080 -0.2494 -0.3602  0.0965
 1520ntf    fn410649   3.135   4.664   0.008 -0.1441 -0.2209 -0.2047
 1520ntf    fn410650   3.293   4.753  -0.109 -0.2686 -0.3082  0.1993
 1521ntf    cn110651   1.779   4.503   2.080 -0.1239  0.0526  0.0646
 1521ntf    sn210652   1.867   4.658   2.047  0.1628 -0.0991  0.1127
 1521ntf    nn310653   1.950   4.677   2.180 -0.2236  0.0483  0.3341
 1521ntf    sn210654   2.100   4.643   2.210 -0.2066  0.0213  0.2202
 1521ntf    cn110655   2.174   4.804   2.170  0.1066 -0.2104 -0.1399
 1521ntf    fn410656   1.743   4.477   2.205 -0.0693 -0.2470  0.0200
 1521ntf    fn410657   1.662   4.499   2.020 -0.2683 -0.1119  0.3537
 1521ntf    fn410658   1.860   4.401   2.052  0.3036  0.4895 -0.3134
 1521ntf    on510659   1.942   4.629   1.927 -0.5111  0.0448 -0.3454
 1521ntf    on510660   1.761   4.755   2.036 -0.1444 -0.4851 -0.3462
 1521ntf    on510661   2.170   4.551   2.123  0.0373  0.0217  0.4141
 1521ntf    on510662   2.124   4.630   2.352  0.1771  0.3066  0.1821
 1521ntf    fn410663   2.306   4.810   2.166  0.1189 -0.1390  0.2900
 1521ntf    fn410664   2.129   4.856   2.058  0.2442  0.0167 -0.0904
 1521ntf    fn410665   2.142   4.893   2.263 -0.2659 -0.3088 -0.1701
 1522ntf    cn110666   4.471   0.870   4.705 -0.0681 -0.0663  0.2837
 1522ntf    sn210667   4.383   0.927   4.854  0.0082  0.2327  0.2152
 1522ntf    nn310668   4.509   0.970   4.938  0.0964  0.2442  0.0789
 1522ntf    sn210669   4.546   1.115   4.985  0.2599  0.1695  0.1800
 1522ntf    cn110670   4.431   1.138   5.123 -0.0641 -0.3174 -0.0030
 1522ntf    fn410671   4.376   0.836   4.619 -0.3583 -0.4540  0.7465
 1522ntf    fn410672   4.528   0.975   4.648  0.7650 -0.5014  0.3102
 1522ntf    fn410673   4.563   0.776   4.708  0.3314  0.3143  0.0284
 1522ntf    on510674   4.296   1.033   4.810  0.1158  0.1271 -0.2609
 1522ntf    on510675   4.326   0.802   4.897 -0.0010  0.2266  0.1844
 1522ntf    on510676   4.528   1.228   4.898 -0.0250  0.3530  0.4776
 1522ntf    on510677   4.672   1.104   5.055  0.4890  0.0458 -0.2402
 1522ntf    fn410678   4.416   1.030   5.198  0.4782 -0.3929  0.0011
 1522ntf    fn410679   4.481   1.228   5.207  0.5119 -0.3810 -0.2716
 1522ntf    fn410680   4.311   1.176   5.084  0.1960  0.2414 -0.2759
 1523ntf    cn110681   1.105   3.623   2.116 -0.1944  0.1269  0.3606
 1523ntf    sn210682   1.203   3.737   2.218  0.0152  0.3515 -0.0941
 1523ntf    nn310683   1.296   3.627   2.280 -0.1487 -0.0170 -0.5013
 1523ntf    sn210684   1.448   3.600   2.251 -0.1554 -0.0314 -0.5233
 1523ntf    cn110685   1.517   3.685   2.396 -0.2261 -0.4807 -0.2250
 1523ntf    fn410686   1.142   3.585   1.995  0.0620 -0.3021  0.5714
 1523ntf    fn410687   1.095   3.509   2.183 -0.7041  0.0834  0.2153
 1523ntf    fn410688   0.977   3.655   2.105 -0.2243 -0.0524  0.1876
 1523ntf    on510689   1.253   3.829   2.118 -0.1837  0.2472 -0.2920
 1523ntf    on510690   1.114   3.784   2.321  0.1372 -0.2995  0.3136
 1523ntf    on510691   1.506   3.672   2.140  0.4531  0.3798  0.0571
 1523ntf    on510692   1.474   3.458   2.255  0.7068  0.1316 -0.0091
 1523ntf    fn410693   1.645   3.712   2.380 -0.2889  0.1200  0.2338
 1523ntf    fn410694   1.459   3.800   2.426 -0.1425 -0.5047  0.0311
 1523ntf    fn410695   1.512   3.614   2.508  0.0669 -0.0369  0.0722
 1524ntf    cn110696   6.579   0.582   6.165  0.2148 -0.2067 -0.3314
 1524ntf    sn210697   6.452   0.667   6.264  0.3595  0.0169 -0.3376
 1524ntf    nn310698   6.365   0.730   6.150  0.1405  0.0942 -0.1277
 1524ntf    sn210699   6.395   0.864   6.073 -0.5287  0.3429  0.0389
 1524ntf    cn110700   6.250   0.944   6.149 -0.6236  0.0426  0.1771
 1524ntf    fn410701   6.624   0.658   6.067  0.6999 -0.4863 -0.3294
 1524ntf    fn410702   6.686   0.549   6.235  0.3667 -0.1114 -0.5189
 1524ntf    fn410703   6.523   0.483   6.098 -0.0796 -0.3704  0.1493
 1524ntf    on510704   6.384   0.562   6.335  0.4388  0.3246  0.1993
 1524ntf    on510705   6.528   0.752   6.353  0.1532 -0.1940  0.0416
 1524ntf    on510706   6.369   0.867   5.932 -1.0570  0.3071  0.1309
 1524ntf    on510707   6.504   0.949   6.114 -0.1002 -0.4312  0.5344
 1524ntf    fn410708   6.278   0.982   6.272 -0.1873  0.0589  0.0732
 1524ntf    fn410709   6.214   1.053   6.083 -0.4393  0.1777  0.2987
 1524ntf    fn410710   6.146   0.862   6.152 -0.3465 -0.2976  0.4259
 1525ntf    cn110711   0.602   1.918   6.014 -0.4385 -0.3191 -0.3332
 1525ntf    sn210712   0.783   1.937   6.018 -0.4703  0.0030 -0.4146
 1525ntf    nn310713   0.807   2.089   5.987  0.6056 -0.0464  0.1355
 1525ntf    sn210714   0.799   2.209   6.087  0.0105 -0.0895  0.1398
 1525ntf    cn110715   0.976   2.229   6.126  0.2275  0.0034 -0.8862
 1525ntf    fn410716   0.564   1.937   5.889 -0.0611 -0.1681 -0.4261
 1525ntf    fn410717   0.579   1.793   6.052  0.3305 -0.1439  0.7627
 1525ntf    fn410718   0.532   1.994   6.097  0.5227  0.1241  0.0981
 1525ntf    on510719   0.828   1.894   6.149  0.0042  0.0951 -0.5459
 1525ntf    on510720   0.834   1.850   5.915  0.5415  0.6045 -0.4342
 1525ntf    on510721   0.729   2.185   6.211 -0.2986  0.0697 -0.0021
 1525ntf    on510722   0.769   2.334   6.022 -0.4743 -0.1087  0.3216
 1525ntf    fn410723   1.019   2.119   6.184 -0.3662  0.3110  0.1560
 1525ntf    fn410724   1.050   2.248   6.018  0.4036 -0.5323 -0.8567
 1525ntf    fn410725   0.996   2.329   6.210 -0.1243 -0.7098  0.0634
 1526ntf    cn110726   6.346   5.838   5.924  0.0403 -0.4809 -0.1412
 1526ntf    sn210727   6.483   5.821   5.806  0.3517 -0.1329  0.1686
 1526ntf    nn310728   6.575   5.942   5.845 -0.3832  0.4108  0.2445
 1526ntf    sn210729   6.680   5.944   5.962  0.0594 -0.1098 -0.1439
 1526ntf    cn110730   6.688   6.125   5.976 -0.0391 -0.1436  0.3703
 1526ntf    fn410731   6.256   5.742   5.904 -0.2001 -0.3169  0.1403
 1526ntf    fn410732   6.385   5.845   6.050  0.3127  0.0820 -0.2533
 1526ntf    fn410733   6.292   5.957   5.905  0.7878 -0.0895  0.1316
 1526ntf    on510734   6.542   5.694   5.838 -0.3070 -0.2311  1.0103
 1526ntf    on510735   6.418   5.841   5.678  0.5508  0.1080  0.1048
 1526ntf    on510736   6.813   5.913   5.915  0.0620 -0.3467  0.0181
 1526ntf    on510737   6.647   5.899   6.095  0.1010 -0.1030 -0.1313
 1526ntf    fn410738   6.577   6.167   6.034  0.0458  0.5577  0.0342
 1526ntf    fn410739   6.791   6.150   6.055  0.3668  0.2379 -0.2623
 1526ntf    fn410740   6.698   6.185   5.858  0.2816 -0.0783  0.4306
 1527ntf    cn110741   3.686   5.894   1.109 -0.0364  0.2938 -0.0287
 1527ntf    sn210742   3.669   5.952   0.938  0.0321 -0.4750 -0.2968
 1527ntf    nn310743   3.794   6.046   0.925  0.0102 -0.5737 -1.2821
 1527ntf    sn210744   3.943   6.013   0.886  0.4076  0.3653 -0.5833
 1527ntf    cn110745   4.031   6.131   0.994 -0.1349  0.0041  0.2644
 1527ntf    fn410746   3.802   5.835   1.134  0.0659  0.5849  0.1965
 1527ntf    fn410747   3.689   6.001   1.187  0.7566  0.1419  0.1594
 1527ntf    fn410748   3.595   5.808   1.150  0.0485  0.3989  0.3931
 1527ntf    on510749   3.668   5.836   0.851 -0.4369  0.0964 -1.0652
 1527ntf    on510750   3.546   6.026   0.939  0.3131 -0.0007 -0.4587
 1527ntf    on510751   3.987   6.054   0.755 -0.4471 -0.2468 -1.0742
 1527ntf    on510752   3.990   5.885   0.933 -0.0092  0.2481 -0.4813
 1527ntf    fn410753   3.985   6.253   0.971  0.2280  0.0767 -0.0919
 1527ntf    fn410754   4.000   6.108   1.120  0.3253  0.0601  0.3854
 1527ntf    fn410755   4.162   6.123   0.980 -0.1430  0.2325  0.0488
 1528ntf    cn110756   2.859   0.930   6.275 -0.0144 -0.0540  0.0019
 1528ntf    sn210757   2.908   0.765   6.217  0.0691 -0.0783  0.1423
 1528ntf    nn310758   2.929   0.798   6.065  0.2406 -0.0171  0.1783
 1528ntf    sn210759   2.885   0.713   5.940  0.2610 -0.0021  0.1606
 1528ntf    cn110760   2.708   0.752   5.945  0.3100  0.2351  0.0107
 1528ntf    fn410761   2.859   0.951   6.405 -0.3353  0.3515 -0.0588
 1528ntf    fn410762   2.953   1.013   6.233  0.0716  0.0004  0.3012
 1528ntf    fn410763   2.743   0.970   6.224  0.0953 -0.0137 -0.2173
 1528ntf    on510764   3.031   0.745   6.290  0.3923  0.3887 -0.2642
 1528ntf    on510765   2.797   0.683   6.257  0.0543 -0.1749 -0.0965
 1528ntf    on510766   2.885   0.568   5.941  0.1485 -0.0002  0.5204
 1528ntf    on510767   2.927   0.783   5.822 -0.2914 -0.2722 -0.1986
 1528ntf    fn410768   2.680   0.878   5.974  0.1203  0.3015 -0.4470
 1528ntf    fn410769   2.642   0.726   5.833 -0.5072  0.0683  0.5216
 1528ntf    fn410770   2.658   0.667   6.032 -0.0124  0.1135 -0.2917
 1529ntf    cn110771   3.228   1.317   4.455 -0.1373  0.4090  0.5749
 1529ntf    sn210772   3.053   1.272   4.475 -0.0981 -0.0183 -0.0092
 1529ntf    nn310773   2.996   1.319   4.336  0.1277  0.1385 -0.0488
 1529ntf    sn210774   2.887   1.425   4.298  0.1535  0.2508  0.1850
 1529ntf    cn110775   2.735   1.331   4.327  0.3002 -0.0135  0.0997
 1529ntf    fn410776   3.285   1.242   4.362 -0.2892  0.0838  0.7418
 1529ntf    fn410777   3.240   1.440   4.408  0.1292  0.1611 -0.0103
 1529ntf    fn410778   3.306   1.309   4.562  0.2273 -0.3418  0.2593
 1529ntf    on510779   3.062   1.128   4.481 -0.4992 -0.0318  0.3134
 1529ntf    on510780   3.009   1.346   4.591 -0.2043 -0.4432  0.2228
 1529ntf    on510781   2.887   1.458   4.157 -0.1086  0.5006  0.2442
 1529ntf    on510782   2.875   1.534   4.391  0.3862  0.1034  0.3901
 1529ntf    fn410783   2.679   1.291   4.213  0.3365 -0.2150  0.1513
 1529ntf    fn410784   2.744   1.224   4.404 -0.0296  0.0871  0.2778
 1529ntf    fn410785   2.639   1.404   4.381  0.5651  0.6413 -0.3020
 1530ntf    cn110786   5.912   4.939   4.814 -0.1928  0.1600  0.0771
 1530ntf    sn210787   5.965   4.846   4.667 -0.1794 -0.5622  0.5366
 1530ntf    nn310788   5.917   4.939   4.550  0.5229 -0.7293  0.1050
 1530ntf    sn210789   5.994   5.058   4.482 -0.3163  0.0098  0.4142
 1530ntf    cn110790   6.044   4.985   4.324  0.0435  0.2360  0.4231
 1530ntf    fn410791   5.970   5.057   4.829  0.0615 -0.0015  0.3718
 1530ntf    fn410792   5.783   4.968   4.809 -0.2491 -0.1041 -0.0634
 1530ntf    fn410793   5.927   4.870   4.926  0.4000  0.2168  0.0357
 1530ntf    on510794   6.107   4.825   4.678  0.0011  0.0106 -0.5224
 1530ntf    on510795   5.878   4.730   4.668  0.0201 -0.7266 -0.4123
 1530ntf    on510796   6.121   5.091   4.542  0.1152 -0.3685 -0.2824
 1530ntf    on510797   5.909   5.164   4.435 -0.2574 -0.0357  0.2054
 1530ntf    fn410798   5.941   4.946   4.250  0.2639 -0.3503  0.4178
 1530ntf    fn410799   6.117   5.066   4.249  0.7845 -0.5972  0.2167
 1530ntf    fn410800   6.122   4.878   4.332  0.3028  0.4042  0.1727
 1531ntf    cn110801   1.014   3.165   0.609 -0.1776  0.2514  0.0044
 1531ntf    sn210802   0.875   3.053   0.642 -0.0435  0.0397 -0.1520
 1531ntf    nn310803   0.920   2.922   0.568  0.0740  0.1352 -0.2508
 1531ntf    sn210804   0.901   2.894   0.415 -0.2008  0.2060 -0.2296
 1531ntf    cn110805   0.720   2.871   0.411 -0.2002  0.1563 -0.0226
 1531ntf    fn410806   0.998   3.203   0.483  0.2062  0.2455 -0.0474
 1531ntf    fn410807   1.007   3.269   0.691  0.6791  0.3802 -0.0796
 1531ntf    fn410808   1.135   3.116   0.626 -0.1585  0.2832 -0.0402
 1531ntf    on510809   0.884   3.040   0.785 -0.2392  0.3533 -0.1094
 1531ntf    on510810   0.763   3.128   0.590  0.1210  0.7775  0.5350
 1531ntf    on510811   0.956   2.766   0.377  0.0499 -0.0298  0.8746
 1531ntf    on510812   0.928   3.006   0.330 -0.0423  0.4216  0.1028
 1531ntf    fn410813   0.669   2.796   0.507  0.7920  0.0348  0.4189
 1531ntf    fn410814   0.649   2.982   0.416  0.1768  0.3927  0.1918
 1531ntf    fn410815   0.685   2.810   0.298  0.3693 -0.1532 -0.0399
 1532ntf    cn110816   0.377   0.922   1.393 -0.1953  0.0939  0.2966
 1532ntf    sn210817   0.526   0.820   1.379 -0.1650  0.1789 -0.0117
 1532ntf    nn310818   0.530   0.804   1.223 -0.3120  0.1458 -0.0121
 1532ntf    sn210819   0.647   0.824   1.120  0.0201 -0.0664  0.3225
 1532ntf    cn110820   0.551   0.857   0.969  0.5219  0.3631  0.0898
 1532ntf    fn410821   0.325   0.923   1.515  0.0273  0.5209  0.3911
 1532ntf    fn410822   0.391   1.051   1.364 -0.2388  0.0251 -0.0362
 1532ntf    fn410823   0.288   0.878   1.305 -0.1782  0.7149 -0.0395
 1532ntf    on510824   0.624   0.915   1.426  0.0935 -0.1541  0.1254
 1532ntf    on510825   0.494   0.701   1.453 -0.1845  0.2443  0.0850
 1532ntf    on510826   0.715   0.701   1.088 -0.6590 -0.2295 -0.5055
 1532ntf    on510827   0.729   0.942   1.134  0.0372 -0.1154  0.6314
 1532ntf    fn410828   0.462   0.954   0.987  0.2245  0.0759  0.1934
 1532ntf    fn410829   0.626   0.904   0.871  0.4560 -0.1679 -0.2200
 1532ntf    fn410830   0.486   0.750   0.925  0.2688  0.2920  0.6227
 1533ntf    cn110831   5.833   3.828   1.672  0.1761 -0.0346 -0.3066
 1533ntf    sn210832   5.737   3.944   1.570  0.0438  0.0402 -0.0976
 1533ntf    nn310833   5.701   4.059   1.671 -0.0819  0.1970 -0.3190
 1533ntf    sn210834   5.564   4.096   1.738  0.1463 -0.3586  0.4697
 1533ntf    cn110835   5.510   4.234   1.633  0.5387 -0.4692  0.1225
 1533ntf    fn410836   5.961   3.850   1.693  0.1677 -0.1009 -0.1865
 1533ntf    fn410837   5.784   3.829   1.795 -0.2591  0.0513 -0.4771
 1533ntf    fn410838   5.821   3.707   1.619  0.2564 -0.2949  0.2629
 1533ntf    on510839   5.830   3.990   1.469 -0.3285 -0.5956 -0.7386
 1533ntf    on510840   5.623   3.869   1.524 -0.0036  0.2641 -0.3473
 1533ntf    on510841   5.589   4.169   1.860 -0.5089  0.2254  0.2636
 1533ntf    on510842   5.458   3.999   1.749 -0.0847 -0.0635  0.8696
 1533ntf    fn410843   5.393   4.279   1.672  0.2507 -0.2465 -0.9505
 1533ntf    fn410844   5.591   4.336   1.655 -0.0056  0.1752 -0.8058
 1533ntf    fn410845   5.509   4.214   1.502 -0.1540 -0.0339  0.0584
 1534ntf    cn110846   1.510   5.736   1.506  0.1117 -0.1977 -0.1249
 1534ntf    sn210847   1.504   5.880   1.617  0.0918 -0.2693 -0.0335
 1534ntf    nn310848   1.658   5.904   1.636 -0.0084  0.1839  0.2063
 1534ntf    sn210849   1.752   6.030   1.639  0.3898 -0.1148  0.3142
 1534ntf    cn110850   1.765   6.047   1.820 -0.1870 -0.1434  0.3584
 1534ntf    fn410851   1.589   5.644   1.558 -0.4268 -0.2013  0.7126
 1534ntf    fn410852   1.387   5.686   1.500  0.3279 -0.7686  0.1467
 1534ntf    fn410853   1.545   5.766   1.382  0.8157 -0.0244  0.1172
 1534ntf    on510854   1.434   5.978   1.539  0.1833 -0.6471 -0.5960
 1534ntf    on510855   1.443   5.831   1.738 -0.0143  0.0487  0.0420
 1534ntf    on510856   1.696   6.154   1.594 -0.6866 -0.6331  0.2033
 1534ntf    on510857   1.885   5.987   1.604  0.3314 -0.4297  0.4748
 1534ntf    fn410858   1.651   6.064   1.885 -0.0289  0.3144  0.5172
 1534ntf    fn410859   1.828   5.949   1.882  0.7212  0.0548 -0.2459
 1534ntf    fn410860   1.836   6.155   1.846  0.1289 -0.2041 -0.2358
 1535ntf    cn110861   1.508   4.601   1.360  0.0238 -0.0660 -0.0203
 1535ntf    sn210862   1.482   4.525   1.523 -0.4895 -0.1312 -0.1308
 1535ntf    nn310863   1.545   4.382   1.504  0.0207  0.1446 -0.5337
 1535ntf    sn210864   1.472   4.255   1.450  0.1559 -0.0340 -0.2992
 1535ntf    cn110865   1.408   4.173   1.599 -0.0445 -0.0952 -0.4174
 1535ntf    fn410866   1.463   4.525   1.261  0.1436  0.2416 -0.3129
 1535ntf    fn410867   1.434   4.710   1.350  0.3345  0.1329 -0.1358
 1535ntf    fn410868   1.633   4.637   1.339  0.1468 -0.2053  0.4694
 1535ntf    on510869   1.559   4.600   1.619  0.0040 -0.7362 -0.0470
 1535ntf    on510870   1.338   4.535   1.536 -0.5031 -0.1015 -0.3076
 1535ntf    on510871   1.569   4.156   1.410  0.0217 -0.4370  0.3444
 1535ntf    on510872   1.346   4.275   1.383 -0.3184 -0.3726  0.4777
 1535ntf    fn410873   1.504   4.128   1.679  0.0867  0.8859 -0.0078
 1535ntf    fn410874   1.331   4.256   1.667 -0.0277 -0.5774  0.2008
 1535ntf    fn410875   1.335   4.064   1.582  0.2623 -0.2475 -0.7697
 1536ntf    cn110876   5.262   6.061   5.743 -0.2661 -0.2670  0.0861
 1536ntf    sn210877   5.150   6.078   5.885  0.2384  0.3842  0.4152
 1536ntf    nn310878   5.086   5.935   5.876  0.1552  0.4225  0.4001
 1536ntf    sn210879   4.934   5.898   5.895  0.2804 -0.2835  0.0638
 1536ntf    cn110880   4.950   5.739   5.982 -0.0908 -0.3555  0.0042
 1536ntf    fn410881   5.340   6.166   5.720 -0.1706 -0.3992 -0.2046
 1536ntf    fn410882   5.349   5.961   5.754  0.2213  0.1500  0.0736
 1536ntf    fn410883   5.195   6.049   5.630  0.0788  0.4820 -0.2066
 1536ntf    on510884   5.232   6.091   6.003  0.3026  0.3916  0.3701
 1536ntf    on510885   5.065   6.189   5.851 -0.2679 -0.0365  0.2783
 1536ntf    on510886   4.863   5.870   5.773 -0.1767 -0.3456  0.3417
 1536ntf    on510887   4.861   5.979   5.989 -0.0728 -0.3044 -0.1910
 1536ntf    fn410888   4.998   5.639   5.910  0.5145  0.0327 -0.1402
 1536ntf    fn410889   5.042   5.755   6.076  0.0708  0.2934 -0.2529
 1536ntf    fn410890   4.847   5.690   6.048  0.1448 -0.0952  0.5753
 1537ntf    cn110891   1.998   2.378   4.969  0.2314 -0.0739 -0.0047
 1537ntf    sn210892   1.846   2.447   5.040  0.1341 -0.2172 -0.0716
 1537ntf    nn310893   1.906   2.584   5.091 -0.6517  0.0280  0.2030
 1537ntf    sn210894   1.910   2.723   5.019  0.2380 -0.2373 -0.2635
 1537ntf    cn110895   2.028   2.802   5.132 -0.0705  0.1182 -0.1883
 1537ntf    fn410896   2.052   2.436   4.863 -0.5695 -0.0196 -0.3901
 1537ntf    fn410897   2.094   2.366   5.060  0.3835  0.1564 -0.1359
 1537ntf    fn410898   1.965   2.257   4.926 -0.1258 -0.2044  0.6195
 1537ntf    on510899   1.756   2.458   4.928 -0.0370  0.0803  0.0930
 1537ntf    on510900   1.814   2.357   5.148  0.2093 -0.1481  0.0088
 1537ntf    on510901   1.792   2.804   5.033 -0.0771 -0.8079  0.4166
 1537ntf    on510902   1.975   2.727   4.890  0.1157 -0.4839 -0.3341
 1537ntf    fn410903   1.978   2.795   5.254 -0.4069 -0.2422 -0.3439
 1537ntf    fn410904   2.144   2.738   5.128 -0.2285 -0.1861  0.0396
 1537ntf    fn410905   2.044   2.930   5.104 -0.0162  0.1423 -0.0486
 1538ntf    cn110906   0.312   3.380   3.061  0.0467  0.2135 -0.4430
 1538ntf    sn210907   0.399   3.393   3.220 -0.3106 -0.2114 -0.2098
 1538ntf    nn310908   0.511   3.498   3.187 -0.4647 -0.0009 -0.0603
 1538ntf    sn210909   0.538   3.641   3.246 -0.0719 -0.1801  0.1933
 1538ntf    cn110910   0.701   3.671   3.171 -0.0573  0.0645  0.3231
 1538ntf    fn410911   0.395   3.386   2.958  0.3633 -0.1582 -0.2129
 1538ntf    fn410912   0.242   3.268   3.046 -0.1311  0.2480  0.1059
 1538ntf    fn410913   0.217   3.471   3.043 -0.0766  0.1817  0.0394
 1538ntf    on510914   0.294   3.442   3.305  0.1975  0.1475  0.2154
 1538ntf    on510915   0.443   3.258   3.244 -0.2449 -0.1522  0.0041
 1538ntf    on510916   0.568   3.638   3.387 -0.0034  0.1226  0.1854
 1538ntf    on510917   0.457   3.753   3.204  0.0778 -0.0504  0.2480
 1538ntf    fn410918   0.787   3.576   3.203  0.3545  0.4134  0.2748
 1538ntf    fn410919   0.697   3.679   3.039  0.4228 -0.1652  0.2925
 1538ntf    fn410920   0.759   3.783   3.213 -0.1917  0.0121  0.6538
 1539ntf    cn110921   2.777   5.883   3.060  0.0838 -0.3103 -0.0637
 1539ntf    sn210922   2.912   5.777   3.119  0.0285 -0.1048  0.4350
 1539ntf    nn310923   2.994   5.874   3.211  0.3635 -0.0126  0.0442
 1539ntf    sn210924   3.041   6.018   3.169  0.1527  0.1145  0.2402
 1539ntf    cn110925   3.217   6.011   3.212  0.2015 -0.1106 -0.0003
 1539ntf    fn410926   2.815   5.942   2.947 -0.5978  0.2297 -0.0177
 1539ntf    fn410927   2.671   5.808   3.037 -0.1058 -0.1374  0.2481
 1539ntf    fn410928   2.742   5.972   3.151 -0.2591 -0.3901 -0.1158
 1539ntf    on510929   2.848   5.676   3.199 -0.0275 -0.0282  0.4863
 1539ntf    on510930   2.982   5.738   2.999 -0.1693  1.0583 -0.0735
 1539ntf    on510931   2.981   6.121   3.251 -0.3408  0.2445 -0.2753
 1539ntf    on510932   3.040   6.047   3.028 -0.4101  0.4422  0.3053
 1539ntf    fn410933   3.243   6.045   3.337 -0.5547 -0.5168  0.2709
 1539ntf    fn410934   3.261   5.887   3.195  0.0566 -0.2658  0.7222
 1539ntf    fn410935   3.286   6.093   3.134  0.0186  0.1110  0.0721
 1540ntf    cn110936   4.789   1.354   6.312 -0.6866  0.2531 -0.1354
 1540ntf    sn210937   4.718   1.301   6.153 -0.4998 -0.0878 -0.1046
 1540ntf    nn310938   4.723   1.146   6.174  0.5116 -0.0430  0.0568
 1540ntf    sn210939   4.812   1.034   6.109  0.4794 -0.0225 -0.0234
 1540ntf    cn110940   4.793   0.903   6.233 -0.3562  0.2625  0.1501
 1540ntf    fn410941   4.751   1.477   6.345 -0.3385  0.2593  0.2387
 1540ntf    fn410942   4.726   1.281   6.403 -0.6807  0.0360 -0.3068
 1540ntf    fn410943   4.919   1.340   6.331 -0.6714 -0.1051 -0.4853
 1540ntf    on510944   4.584   1.354   6.156 -0.6249 -0.3606 -0.6683
 1540ntf    on510945   4.810   1.358   6.057  0.2839  0.2168  0.8025
 1540ntf    on510946   4.952   1.068   6.114  0.3256  0.6477 -0.1361
 1540ntf    on510947   4.770   0.967   5.989 -0.4982  0.1184  0.2339
 1540ntf    fn410948   4.858   0.790   6.208 -0.4625  0.2307  0.0153
 1540ntf    fn410949   4.848   0.939   6.348 -0.0153 -0.3443  0.1817
 1540ntf    fn410950   4.666   0.871   6.256 -0.3461  0.2318  0.1638
 1541ntf    cn110951   4.335   6.109   2.710  0.0515  0.2704  0.2763
 1541ntf    sn210952   4.195   6.208   2.651 -0.1333 -0.1769 -0.0451
 1541ntf    nn310953   4.186   6.307   2.772  0.4554 -0.0194 -0.1276
 1541ntf    sn210954   4.210   6.461   2.794  0.0411  0.0488 -0.1438
 1541ntf    cn110955   4.043   6.521   2.833  0.0659  0.1442 -0.1835
 1541ntf    fn410956   4.345   5.995   2.643 -0.1261  0.4158  0.0051
 1541ntf    fn410957   4.453   6.167   2.708  0.1212  0.1167 -0.0936
 1541ntf    fn410958   4.310   6.079   2.837  0.4723 -0.3876  0.2080
 1541ntf    on510959   4.243   6.261   2.525  0.0598  0.4900  0.3050
 1541ntf    on510960   4.081   6.120   2.653 -0.2409 -0.0329  0.2870
 1541ntf    on510961   4.240   6.541   2.678 -0.1636  0.0247 -0.2139
 1541ntf    on510962   4.290   6.490   2.911 -0.6227 -0.4054  0.4258
 1541ntf    fn410963   3.958   6.474   2.743  0.3205 -0.0761 -0.3103
 1541ntf    fn410964   4.003   6.483   2.952  0.0194  0.0521 -0.2284
 1541ntf    fn410965   4.026   6.652   2.827 -0.6994  0.0564  0.0268
 1542ntf    cn110966   4.613   2.985   4.454 -0.3404 -0.1761  0.1388
 1542ntf    sn210967   4.551   3.074   4.309  0.0137  0.1159  0.1680
 1542ntf    nn310968   4.688   3.081   4.232 -0.1537  0.1764 -0.1266
 1542ntf    sn210969   4.745   2.974   4.132  0.0763  0.1313  0.0540
 1542ntf    cn110970   4.925   2.987   4.159  0.0874  0.1987 -0.0485
 1542ntf    fn410971   4.532   2.955   4.555 -0.5553 -0.2680 -0.0598
 1542ntf    fn410972   4.663   2.866   4.426 -0.2888 -0.0339 -0.3756
 1542ntf    fn410973   4.717   3.044   4.510 -0.1252 -0.4445  0.0276
 1542ntf    on510974   4.444   2.994   4.254  0.3504 -0.5628  0.4888
 1542ntf    on510975   4.504   3.201   4.358  0.1891  0.2887 -0.1046
 1542ntf    on510976   4.735   3.024   3.997 -0.2500  0.2716  0.1301
 1542ntf    on510977   4.719   2.837   4.166  0.3091  0.0360 -0.1480
 1542ntf    fn410978   4.947   2.964   4.287 -0.2644  0.0883 -0.0045
 1542ntf    fn410979   4.996   2.901   4.088  0.0025 -0.0213  0.1318
 1542ntf    fn410980   4.970   3.108   4.129 -0.0807  0.1842 -0.3689
 1543ntf    cn110981   4.261   0.641   6.211  0.1945  0.2023 -0.0313
 1543ntf    sn210982   4.239   0.754   6.352  0.2084 -0.2737  0.3579
 1543ntf    nn310983   4.087   0.735   6.389  0.0225  0.3523 -0.0673
 1543ntf    sn210984   3.962   0.815   6.339 -0.2527 -0.1041 -0.1072
 1543ntf    cn110985   3.950   0.945   6.465 -0.0439 -0.0892 -0.1033
 1543ntf    fn410986   4.206   0.682   6.098  0.2438  0.0579 -0.1082
 1543ntf    fn410987   4.387   0.611   6.183 -0.0402 -0.6287 -0.2229
 1543ntf    fn410988   4.203   0.527   6.245  0.3518  0.0914 -0.1304
 1543ntf    on510989   4.313   0.689   6.457 -0.4662 -0.7146  0.5671
 1543ntf    on510990   4.283   0.884   6.309 -0.3502  0.0080  0.6266
 1543ntf    on510991   3.835   0.747   6.347 -0.1413 -0.2438  0.5028
 1543ntf    on510992   3.974   0.883   6.213 -0.5330 -0.7076 -0.4687
 1543ntf    fn410993   3.958   0.899   6.589 -0.2160  0.2617  0.0383
 1543ntf    fn410994   4.056   1.024   6.456  0.0324 -0.1434  0.2922
 1543ntf    fn410995   3.838   1.015   6.462  0.2373  0.3682 -0.0482
 1544ntf    cn110996   4.991   5.806   2.431 -0.0702 -0.0153  0.3728
 1544ntf    sn210997   5.153   5.747   2.488  0.0438 -0.1593 -0.0964
 1544ntf    nn310998   5.203   5.692   2.349 -0.8384  0.0906 -0.5229
 1544ntf    sn210999   5.235   5.546   2.301 -0.2365  0.0977 -0.1560
 1544ntf    cn111000   5.068   5.514   2.237  0.0766 -0.5628 -0.6602
 1544ntf    fn411001   4.919   5.708   2.378  0.1782 -0.3098  0.5806
 1544ntf    fn411002   4.909   5.870   2.513  0.1863 -0.0387  0.6487
 1544ntf    fn411003   5.006   5.878   2.321  0.3878 -0.7293 -0.0406
 1544ntf    on511004   5.224   5.867   2.523 -0.2608  0.1152 -0.4085
 1544ntf    on511005   5.127   5.640   2.581 -0.1314  0.1267  0.1849
 1544ntf    on511006   5.254   5.443   2.400  0.1282  0.6328  0.3346
 1544ntf    on511007   5.330   5.542   2.193  0.1768 -0.5160  0.2174
 1544ntf    fn411008   4.990   5.495   2.342  0.8727  0.1326  0.0670
 1544ntf    fn411009   5.004   5.611   2.173 -0.3572 -0.6593 -0.3782
 1544ntf    fn411010   5.060   5.403   2.165  0.6539 -0.2321 -1.2507
 1545ntf    cn111011   3.439   4.348   5.974  0.2408  0.1848 -0.2679
 1545ntf    sn211012   3.596   4.434   6.004  0.2873  0.0232 -0.0431
 1545ntf    nn311013   3.585   4.471   6.156  0.5368  0.3885 -0.1113
 1545ntf    sn211014   3.528   4.604   6.216 -0.0844  0.0897 -0.0269
 1545ntf    cn111015   3.413   4.548   6.345  0.2003  0.3471  0.3411
 1545ntf    fn411016   3.400   4.373   5.850 -0.2481  0.6155 -0.0339
 1545ntf    fn411017   3.450   4.217   5.985  0.0444  0.1870 -0.0100
 1545ntf    fn411018   3.349   4.390   6.062  0.5091 -0.0297  0.1094
 1545ntf    on511019   3.691   4.331   5.970  0.7932  0.4335  0.1211
 1545ntf    on511020   3.589   4.549   5.917  0.2718  0.3327  0.3667
 1545ntf    on511021   3.452   4.691   6.130  0.2509  0.5303  0.1139
 1545ntf    on511022   3.618   4.673   6.305  0.2797  0.2178 -0.4937
 1545ntf    fn411023   3.385   4.657   6.414 -0.1508  0.4638  0.0180
 1545ntf    fn411024   3.298   4.506   6.296  0.4467  0.1563 -0.0885
 1545ntf    fn411025   3.462   4.462   6.433  0.0327  0.2178  0.3078
 1546ntf    cn111026   1.588   5.652   3.801 -0.0067  0.3601 -0.1418
 1546ntf    sn211027   1.434   5.556   3.799  0.3082 -0.1594  0.1638
 1546ntf    nn311028   1.388   5.612   3.660 -0.4544 -0.2452  0.3754
 1546ntf    sn211029   1.251   5.679   3.624 -0.4125 -0.4004 -0.0883
 1546ntf    cn111030   1.154   5.530   3.584 -0.2270 -0.5707  0.0945
 1546ntf    fn411031   1.577   5.781   3.774  0.0999  0.4423  0.2061
 1546ntf    fn411032   1.643   5.647   3.921  0.2529  0.0725 -0.2714
 1546ntf    fn411033   1.681   5.595   3.725 -0.0441 -0.3680  0.3488
 1546ntf    on511034   1.491   5.424   3.792  0.5317 -0.0449 -0.1799
 1546ntf    on511035   1.362   5.593   3.919  0.2734 -0.1470  0.1391
 1546ntf    on511036   1.256   5.751   3.500 -0.4616  0.0909  0.1923
 1546ntf    on511037   1.185   5.751   3.731 -0.8645 -0.6229 -0.2153
 1546ntf    fn411038   1.029   5.560   3.554 -0.1940  0.0122  0.5146
 1546ntf    fn411039   1.219   5.464   3.490  0.6628  0.4417 -0.0173
 1546ntf    fn411040   1.161   5.451   3.690 -1.1669 -0.3128  0.3603
 1547ntf    cn111041   6.428   5.371   5.333 -0.3672  0.2426  0.0023
 1547ntf    sn211042   6.310   5.243   5.280  0.1282 -0.2147 -0.0055
 1547ntf    nn311043   6.171   5.300   5.323  0.2459  0.2432 -0.2262
 1547ntf    sn211044   6.055   5.353   5.232  0.0008  0.1885  0.0515
 1547ntf    cn111045   5.995   5.192   5.173 -0.3614  0.2305  0.3004
 1547ntf    fn411046   6.410   5.385   5.463  0.5359  0.0785  0.1531
 1547ntf    fn411047   6.551   5.325   5.317 -0.4456  0.2779 -0.7655
 1547ntf    fn411048   6.424   5.483   5.264  0.2189 -0.0831 -0.5779
 1547ntf    on511049   6.334   5.226   5.138 -0.3905 -0.2181 -0.0945
 1547ntf    on511050   6.359   5.135   5.362  0.2006 -0.0656  0.1487
 1547ntf    on511051   6.092   5.419   5.109 -0.2219  0.1501 -0.0377
 1547ntf    on511052   5.947   5.404   5.314 -0.0016  0.3169 -0.0305
 1547ntf    fn411053   5.923   5.133   5.267 -0.0810 -0.7500 -0.0817
 1547ntf    fn411054   5.922   5.198   5.063  0.4214  0.1042 -0.2394
 1547ntf    fn411055   6.093   5.106   5.147 -0.5888  0.0867 -0.0926
 1548ntf    cn111056   1.190   4.512   5.610  0.1073  0.1764 -0.2947
 1548ntf    sn211057   1.278   4.412   5.486 -0.0767 -0.2523 -0.0818
 1548ntf    nn311058   1.343   4.313   5.589  0.1953  0.1021  0.0901
 1548ntf    sn211059   1.491   4.314   5.640  0.2708  0.0704 -0.1304
 1548ntf    cn111060   1.467   4.262   5.813  0.0890  0.1934 -0.1183
 1548ntf    fn411061   1.090   4.432   5.645 -0.0176  0.5757  0.2770
 1548ntf    fn411062   1.272   4.539   5.710 -0.2870 -0.4460  0.1962
 1548ntf    fn411063   1.138   4.624   5.561  0.4953  0.3163 -0.3951
 1548ntf    on511064   1.172   4.353   5.409  0.0947 -0.5956 -0.0529
 1548ntf    on511065   1.371   4.503   5.424  0.1997 -0.3048  0.2539
 1548ntf    on511066   1.556   4.442   5.654  0.2647  0.0475  0.1073
 1548ntf    on511067   1.574   4.205   5.596 -0.0955 -0.3100  0.1142
 1548ntf    fn411068   1.573   4.282   5.890  0.1913  0.3518 -0.2973
 1548ntf    fn411069   1.366   4.326   5.870 -0.1642 -0.0592 -0.2826
 1548ntf    fn411070   1.443   4.132   5.818 -0.0551  0.2180 -0.1460
 1549ntf    cn111071   0.472   1.886   3.386 -0.2203  0.4827  0.2202
 1549ntf    sn211072   0.494   1.912   3.208 -0.0690 -0.5175  0.0891
 1549ntf    nn311073   0.365   1.997   3.181 -0.0250 -0.5116 -0.1047
 1549ntf    sn211074   0.221   1.956   3.132 -0.2314  0.5766 -0.4346
 1549ntf    cn111075   0.229   1.960   2.951  0.0054  0.3795 -0.4288
 1549ntf    fn411076   0.565   1.804   3.432 -0.0230  0.6218  0.0693
 1549ntf    fn411077   0.481   2.001   3.452 -0.2999  0.6285 -0.0235
 1549ntf    fn411078   0.357   1.831   3.422  0.1652 -0.6816 -0.3024
 1549ntf    on511079   0.617   1.988   3.208 -0.5401  0.2542 -0.1278
 1549ntf    on511080   0.498   1.778   3.155 -0.5841 -0.4684 -0.0737
 1549ntf    on511081   0.113   2.048   3.161 -0.3973  0.2642 -0.0560
 1549ntf    on511082   0.190   1.821   3.171  0.1648  0.5854 -0.0737
 1549ntf    fn411083   0.279   2.069   2.896 -0.1275  0.5878 -0.1408
 1549ntf    fn411084   0.312   1.869   2.903  0.2722 -0.0012  0.7209
 1549ntf    fn411085   0.108   1.939   2.902 -0.1357  0.2106 -0.0060
 1550ntf    cn111086   6.498   4.920   0.623 -0.3489 -0.3023  0.0306
 1550ntf    sn211087   6.606   4.779   0.662  0.1087  0.0376  0.0028
 1550ntf    nn311088   6.723   4.800   0.559  0.2275 -0.1493  0.0986
 1550ntf    sn211089   6.732   4.740   0.414 -0.0358 -0.0309  0.0331
 1550ntf    cn111090   6.819   4.873   0.324 -0.2166  0.1369  0.1045
 1550ntf    fn411091   6.400   4.931   0.711  0.0512  0.2183  0.4142
 1550ntf    fn411092   6.559   5.037   0.629 -0.1269 -0.4139 -0.0186
 1550ntf    fn411093   6.433   4.903   0.509  0.3109  0.4669 -0.4710
 1550ntf    on511094   6.648   4.808   0.797 -0.1019  0.3660 -0.0018
 1550ntf    on511095   6.536   4.654   0.643  0.0517  0.1283 -0.3998
 1550ntf    on511096   6.607   4.737   0.343 -0.1508  0.1782  0.2259
 1550ntf    on511097   6.819   4.626   0.396  0.3087  0.2206  0.0771
 1550ntf    fn411098   6.830   4.843   0.196 -0.2038 -0.1421  0.1702
 1550ntf    fn411099   6.750   4.985   0.316 -0.0491  0.2478  0.1937
 1550ntf    fn411100   6.942   4.899   0.365 -0.2276 -0.0637  0.2687
 1551ntf    cn111101   6.142   2.385   6.517  0.0453  0.0430  0.4024
 1551ntf    sn211102   5.997   2.424   6.413  0.4099  0.2755 -0.0220
 1551ntf    nn311103   5.955   2.275   6.392 -0.4214  0.4910  0.0985
 1551ntf    sn211104   5.813   2.206   6.395 -0.0890 -0.2060  0.0677
 1551ntf    cn111105   5.834   2.085   6.261  0.3231 -0.1789  0.1047
 1551ntf    fn411106   6.229   2.316   6.444  0.0591  0.0477  0.4152
 1551ntf    fn411107   6.211   2.487   6.564  0.1742  0.2492 -0.2229
 1551ntf    fn411108   6.100   2.317   6.622  0.2677  0.5624  0.8280
 1551ntf    on511109   5.923   2.505   6.507  0.7638 -0.1095  0.5988
 1551ntf    on511110   6.053   2.482   6.294  0.0663  0.0594 -0.2886
 1551ntf    on511111   5.701   2.287   6.353  0.0718 -0.1462 -0.2523
 1551ntf    on511112   5.809   2.114   6.506 -0.1617 -0.6634 -0.3097
 1551ntf    fn411113   5.739   1.993   6.273 -0.4534  0.5140 -0.5592
 1551ntf    fn411114   5.821   2.131   6.137 -0.2147 -0.3304  0.1012
 1551ntf    fn411115   5.947   2.016   6.258  0.3169 -0.1986  0.3328
 1552ntf    cn111116   4.490   5.236   0.745  0.3068  0.4580 -0.3216
 1552ntf    sn211117   4.352   5.342   0.798 -0.0402  0.0362 -0.3739
 1552ntf    nn311118   4.353   5.303   0.950  0.7508 -0.9662 -0.6208
 1552ntf    sn211119   4.260   5.200   1.024  0.2649 -0.2271 -0.1797
 1552ntf    cn111120   4.337   5.183   1.188  0.3562  0.0546 -0.1920
 1552ntf    fn411121   4.451   5.110   0.743  0.3331  0.4516 -0.4360
 1552ntf    fn411122   4.537   5.265   0.624  0.9102  0.1464 -0.1627
 1552ntf    fn411123   4.588   5.249   0.833  0.3149 -0.6159 -0.1676
 1552ntf    on511124   4.397   5.477   0.772 -0.2235  0.0573 -0.5869
 1552ntf    on511125   4.239   5.297   0.722 -0.0131 -0.5440 -0.0737
 1552ntf    on511126   4.261   5.067   0.968 -0.4865 -0.2275 -0.1956
 1552ntf    on511127   4.127   5.247   1.055  0.5078  0.5900 -0.3418
 1552ntf    fn411128   4.466   5.152   1.182  0.2719 -0.2456 -0.5730
 1552ntf    fn411129   4.326   5.290   1.265  0.3980 -0.0225 -0.0785
 1552ntf    fn411130   4.278   5.090   1.261  0.3948  0.2675  0.1082
 1553ntf    cn111131   2.694   6.676   5.638 -0.2343 -0.2116 -0.0870
 1553ntf    sn211132   2.785   6.833   5.652 -0.0367 -0.3453  0.1431
 1553ntf    nn311133   2.930   6.776   5.631  0.3386  0.5591  0.2662
 1553ntf    sn211134   3.034   6.820   5.523  0.1519  0.2086 -0.0544
 1553ntf    cn111135   3.031   6.682   5.404 -0.1844  0.1208  0.0552
 1553ntf    fn411136   2.563   6.688   5.649 -0.2508 -0.4854  0.0265
 1553ntf    fn411137   2.706   6.619   5.519  0.4131  0.2056 -0.2240
 1553ntf    fn411138   2.729   6.582   5.725  0.5908  0.0337 -0.1468
 1553ntf    on511139   2.738   6.909   5.539  0.0603 -0.3130  0.1248
 1553ntf    on511140   2.754   6.882   5.784  0.0809  0.2881 -0.0611
 1553ntf    on511141   3.171   6.815   5.569  0.1374  0.0442 -0.0276
 1553ntf    on511142   3.005   6.938   5.445 -0.5274 -0.3978 -0.7393
 1553ntf    fn411143   2.913   6.665   5.345 -0.3317  0.2355  0.3164
 1553ntf    fn411144   3.118   6.696   5.306 -0.6612 -0.7213 -0.4991
 1553ntf    fn411145   3.058   6.568   5.465  0.4982  0.1238 -0.2365
 1554ntf    cn111146   4.918   1.779   0.627  0.1337 -0.6670 -0.2125
 1554ntf    sn211147   4.910   1.719   0.798  0.1581 -0.2208 -0.0550
 1554ntf    nn311148   4.968   1.578   0.762  0.1820 -0.1373 -0.3432
 1554ntf    sn211149   4.944   1.444   0.840  0.0121  0.0805 -0.0170
 1554ntf    cn111150   5.108   1.405   0.909 -0.0195 -0.1533 -0.0709
 1554ntf    fn411151   4.839   1.719   0.539 -0.3832  0.0966 -0.2765
 1554ntf    fn411152   4.875   1.904   0.627  0.1177 -0.6715  0.3384
 1554ntf    fn411153   5.042   1.775   0.581 -0.0532  0.2141 -0.8202
 1554ntf    on511154   5.009   1.805   0.858 -0.1488 -0.2014  0.4311
 1554ntf    on511155   4.771   1.730   0.836  0.0175 -0.6743 -0.4391
 1554ntf    on511156   4.917   1.332   0.753 -0.3047  0.0265  0.1485
 1554ntf    on511157   4.868   1.451   0.962  0.1306 -0.5449  0.0990
 1554ntf    fn411158   5.114   1.291   0.976  0.0432 -0.1464 -0.0649
 1554ntf    fn411159   5.203   1.389   0.819 -0.1126  0.0344 -0.2030
 1554ntf    fn411160   5.157   1.499   0.989 -0.0311 -0.1949 -0.0151
 1555ntf    cn111161   4.934   2.774   1.896  0.2517  0.1836  0.1652
 1555ntf    sn211162   5.092   2.829   1.825  0.0086 -0.2106 -0.6957
 1555ntf    nn311163   5.182   2.722   1.897  0.2882  0.4665 -0.0317
 1555ntf    sn211164   5.231   2.586   1.836  0.0249  0.2883  0.1525
 1555ntf    cn111165   5.374   2.566   1.947  0.2036  0.3052 -0.0739
 1555ntf    fn411166   4.834   2.810   1.817  0.2651  0.1040  0.1120
 1555ntf    fn411167   4.929   2.642   1.897  0.3670  0.1749 -0.2509
 1555ntf    fn411168   4.900   2.815   2.017 -0.5586 -0.4264  0.1553
 1555ntf    on511169   5.072   2.815   1.683 -0.2844 -0.0811 -0.6678
 1555ntf    on511170   5.112   2.962   1.875 -0.7252 -0.5182  0.4556
 1555ntf    on511171   5.294   2.593   1.707  0.2002  0.1691  0.2301
 1555ntf    on511172   5.141   2.480   1.876  0.5611 -0.2091  0.0578
 1555ntf    fn411173   5.341   2.569   2.075 -0.0120  0.0154 -0.1207
 1555ntf    fn411174   5.431   2.448   1.924  0.4962  0.4438 -0.0696
 1555ntf    fn411175   5.464   2.662   1.931  0.1065  0.4117  0.0177
 1556ntf    cn111176   1.583   1.782   1.330  0.2577  0.0556 -0.2645
 1556ntf    sn211177   1.754   1.726   1.353  0.1835 -0.2702 -0.4930
 1556ntf    nn311178   1.805   1.731   1.205  0.1601  0.5546 -0.4791
 1556ntf    sn211179   1.943   1.746   1.131  0.3691  0.3447 -0.1331
 1556ntf    cn111180   1.936   1.924   1.095 -0.0073  0.2453 -0.5541
 1556ntf    fn411181   1.510   1.762   1.438  0.6909  0.0398  0.0255
 1556ntf    fn411182   1.574   1.910   1.296 -0.1582  0.1856  0.3334
 1556ntf    fn411183   1.524   1.720   1.229 -0.2650 -0.0437  0.1006
 1556ntf    on511184   1.804   1.833   1.436 -0.5295 -0.0468 -0.3488
 1556ntf    on511185   1.746   1.592   1.404  0.1520 -0.1466 -0.1683
 1556ntf    on511186   1.941   1.676   1.005 -0.6520  0.5494 -0.2366
 1556ntf    on511187   2.057   1.737   1.219  0.0698 -0.0350  0.2219
 1556ntf    fn411188   2.042   1.974   1.034  0.2559  0.4327  0.0559
 1556ntf    fn411189   1.838   1.936   1.007 -0.1941  0.4413 -0.3218
 1556ntf    fn411190   1.900   2.000   1.197 -0.0664 -0.1051 -0.3131
 1557ntf    cn111191   0.779   5.704   2.609  0.2088  0.1248 -0.2454
 1557ntf    sn211192   0.901   5.658   2.736 -0.1662  0.1988  0.1394
 1557ntf    nn311193   0.943   5.795   2.801  0.3044 -0.2772  0.8465
 1557ntf    sn211194   1.072   5.881   2.776  0.1527 -0.3449 -0.2279
 1557ntf    cn111195   1.162   5.807   2.916  0.0367  0.1982  0.1353
 1557ntf    fn411196   0.745   5.603   2.532 -0.3441  0.1325 -0.0093
 1557ntf    fn411197   0.669   5.743   2.671  0.3867  0.5855 -0.2123
 1557ntf    fn411198   0.818   5.801   2.528  0.4958 -0.1332 -0.4178
 1557ntf    on511199   0.833   5.572   2.830 -0.6073  0.6721  0.2645
 1557ntf    on511200   1.007   5.594   2.663 -0.2341  0.0692  0.1538
 1557ntf    on511201   1.057   6.013   2.832  0.1022 -0.1942 -0.5965
 1557ntf    on511202   1.143   5.857   2.653 -0.0371  0.3585 -0.4782
 1557ntf    fn411203   1.087   5.799   3.025 -0.0325  0.0988  0.0805
 1557ntf    fn411204   1.192   5.680   2.898  0.2649  0.2340  0.2617
 1557ntf    fn411205   1.274   5.869   2.949 -0.0435  0.4889 -0.1311
 1558ntf    cn111206   4.105   6.433   0.294 -0.4215  0.1560 -0.0546
 1558ntf    sn211207   4.245   6.544   0.260  0.2578 -0.6561  0.0604
 1558ntf    nn311208   4.182   6.669   0.330  0.5118 -0.1270 -0.6325
 1558ntf    sn211209   4.118   6.790   0.255  0.0848 -0.1309 -0.2847
 1558ntf    cn111210   4.233   6.927   0.288  0.0662 -0.0748 -0.4495
 1558ntf    fn411211   4.003   6.465   0.217 -0.4619 -0.2934 -0.1949
 1558ntf    fn411212   4.137   6.306   0.271  0.3783  0.3914 -0.2718
 1558ntf    fn411213   4.067   6.444   0.420 -0.4597  0.0733 -0.0588
 1558ntf    on511214   4.356   6.489   0.334  0.7927  0.1873 -0.1085
 1558ntf    on511215   4.270   6.543   0.117 -0.0730  0.3574 -0.0119
 1558ntf    on511216   3.996   6.836   0.317 -0.0026  0.1928 -0.6820
 1558ntf    on511217   4.108   6.784   0.111  0.5780 -0.7148 -0.2960
 1558ntf    fn411218   4.342   6.917   0.213  0.2694  0.1551 -0.1876
 1558ntf    fn411219   4.177   7.045   0.269  0.7116  0.2872 -0.1494
 1558ntf    fn411220   4.264   6.927   0.417  0.1751  0.0549 -0.4760
 1559ntf    cn111221   2.256   3.609   0.651  0.0081 -0.2933 -0.1445
 1559ntf    sn211222   2.420   3.538   0.687  0.2226  0.1241 -0.2921
 1559ntf    nn311223   2.384   3.386   0.677  0.0429  0.1094  0.4587
 1559ntf    sn211224   2.466   3.265   0.619 -0.0015  0.1586  0.2927
 1559ntf    cn111225   2.529   3.191   0.773  0.5792 -0.1298 -0.0779
 1559ntf    fn411226   2.154   3.545   0.705  0.0547 -0.5893 -0.4004
 1559ntf    fn411227   2.244   3.735   0.688 -0.2075 -0.3931  0.1294
 1559ntf    fn411228   2.226   3.601   0.522 -0.7378  0.5234 -0.0322
 1559ntf    on511229   2.498   3.596   0.581  0.4460  0.6073  0.1302
 1559ntf    on511230   2.453   3.584   0.820 -1.0075  0.1305  0.0333
 1559ntf    on511231   2.584   3.299   0.542 -0.2622  0.1164 -0.1298
 1559ntf    on511232   2.375   3.168   0.564 -0.0899  0.5208 -0.2111
 1559ntf    fn411233   2.434   3.130   0.842 -0.0694  0.6489 -0.2585
 1559ntf    fn411234   2.621   3.098   0.757  0.6305 -0.1710  0.4601
 1559ntf    fn411235   2.579   3.279   0.858 -0.4069  0.1956  0.1798
 1560ntf    cn111236   5.916   3.699   4.099 -0.0538  0.3598  0.0887
 1560ntf    sn211237   6.062   3.786   4.163  0.1663 -0.0220  0.1030
 1560ntf    nn311238   6.108   3.682   4.272 -0.1540 -0.2239  0.0450
 1560ntf    sn211239   6.245   3.634   4.332 -0.2076 -0.0785  0.2807
 1560ntf    cn111240   6.221   3.455   4.310  0.0351 -0.0262 -0.4273
 1560ntf    fn411241   5.940   3.575   4.061 -0.1176  0.4937 -0.4065
 1560ntf    fn411242   5.828   3.689   4.197 -0.5144  0.4987 -0.3063
 1560ntf    fn411243   5.859   3.754   3.992  0.4577  0.0155 -0.3692
 1560ntf    on511244   6.156   3.797   4.054 -0.2847  0.6977 -0.2170
 1560ntf    on511245   6.011   3.911   4.213 -0.0821 -0.1897  0.2668
 1560ntf    on511246   6.252   3.640   4.476  0.2653 -0.2335  0.2661
 1560ntf    on511247   6.361   3.675   4.257  0.0228 -0.1756  0.5836
 1560ntf    fn411248   6.324   3.385   4.355  0.3948  0.5578 -0.3198
 1560ntf    fn411249   6.118   3.414   4.381  0.3637 -0.5638 -0.2583
 1560ntf    fn411250   6.198   3.428   4.183 -0.0209  0.6074 -0.5547
 1561ntf    cn111251   4.874   0.267   2.905  0.0863  0.3619  0.0194
 1561ntf    sn211252   4.853   0.428   2.824  0.0714  0.2786 -0.1432
 1561ntf    nn311253   4.698   0.448   2.811  0.0559  0.3420  0.1178
 1561ntf    sn211254   4.607   0.433   2.684 -0.0992 -0.2959  0.2998
 1561ntf    cn111255   4.640   0.582   2.586 -0.2734 -0.3085  0.2210
 1561ntf    fn411256   4.824   0.164   2.838 -0.2223  0.4422  0.1251
 1561ntf    fn411257   5.001   0.243   2.936  0.1509  0.4470 -0.1834
 1561ntf    fn411258   4.805   0.252   3.017 -0.3061  0.1902 -0.2441
 1561ntf    on511259   4.919   0.514   2.919 -0.4694 -0.0213  0.5107
 1561ntf    on511260   4.922   0.404   2.700  0.0246  0.2739 -0.1678
 1561ntf    on511261   4.469   0.454   2.719  0.0450 -0.5040  1.0055
 1561ntf    on511262   4.623   0.323   2.591  0.3731 -0.1387  0.1919
 1561ntf    fn411263   4.582   0.587   2.468 -0.2610 -0.2063  0.2185
 1561ntf    fn411264   4.595   0.689   2.650  0.5599  0.0117  0.2951
 1561ntf    fn411265   4.771   0.602   2.572 -0.3389 -0.2295 -0.3075
 1562ntf    cn111266   3.260   5.723   6.693 -0.1436  0.3270  0.0238
 1562ntf    sn211267   3.212   5.892   6.738 -0.2709  0.2596  0.1417
 1562ntf    nn311268   3.322   5.932   6.843 -0.3055  0.3981  0.1254
 1562ntf    sn211269   3.444   6.031   6.837 -0.0308  0.0570  0.0358
 1562ntf    cn111270   3.440   6.109   7.002  0.0673  0.2508 -0.0532
 1562ntf    fn411271   3.385   5.712   6.652  0.0107 -0.1534  0.5907
 1562ntf    fn411272   3.264   5.644   6.800  0.2243  0.1489 -0.1185
 1562ntf    fn411273   3.179   5.663   6.608 -0.0353  0.5986 -0.2721
 1562ntf    on511274   3.225   5.960   6.612 -0.0818  0.2032  0.1303
 1562ntf    on511275   3.079   5.876   6.792 -0.2027 -0.3959  0.1242
 1562ntf    on511276   3.435   6.141   6.745  0.2839  0.0445 -0.0116
 1562ntf    on511277   3.566   5.955   6.830  0.2380  0.4745  0.1321
 1562ntf    fn411278   3.447   6.028   7.106  0.5166  0.4290  0.0569
 1562ntf    fn411279   3.533   6.202   7.016  0.3077  0.0189 -0.1162
 1562ntf    fn411280   3.331   6.183   7.019  0.1794  0.3504  0.2327
 1563ntf    cn111281   3.479   2.130   0.150 -0.1585  0.3092  0.1418
 1563ntf    sn211282   3.609   2.050   0.248 -0.2271  0.1832  0.1299
 1563ntf    nn311283   3.543   2.089   0.385 -0.3430  0.6364 -0.0532
 1563ntf    sn211284   3.499   1.989   0.498 -0.0134  0.1750 -0.3290
 1563ntf    cn111285   3.647   1.990   0.603 -0.0021  0.3358 -0.3452
 1563ntf    fn411286   3.483   2.106   0.020  0.0896  0.7885  0.0586
 1563ntf    fn411287   3.356   2.105   0.191 -0.2081  0.4731  0.0965
 1563ntf    fn411288   3.501   2.260   0.160 -0.3933  0.3387  0.2780
 1563ntf    on511289   3.606   1.911   0.210 -0.1666  0.1870  0.1114
 1563ntf    on511290   3.727   2.132   0.232  0.3375 -0.5817  0.2965
 1563ntf    on511291   3.467   1.854   0.458 -0.0298  0.2525 -0.5796
 1563ntf    on511292   3.404   2.047   0.590  0.1759 -0.0646  0.0177
 1563ntf    fn411293   3.622   1.920   0.713  0.0988 -0.0208 -0.5487
 1563ntf    fn411294   3.756   1.938   0.549 -0.3977 -0.2248 -0.6228
 1563ntf    fn411295   3.684   2.112   0.638  0.7140  0.0690 -0.1463
 1564ntf    cn111296   4.720   4.561   1.165  0.0005 -0.1193 -0.3353
 1564ntf    sn211297   4.767   4.449   1.300 -0.3713  0.0808 -0.0375
 1564ntf    nn311298   4.757   4.543   1.425 -0.5203 -0.1461  0.1221
 1564ntf    sn211299   4.784   4.512   1.576 -0.3314 -0.3555  0.0456
 1564ntf    cn111300   4.928   4.620   1.600 -0.5602  0.0211 -0.2677
 1564ntf    fn411301   4.689   4.497   1.054 -0.4313 -0.0367 -0.2648
 1564ntf    fn411302   4.615   4.639   1.185  0.0953 -0.0588 -0.0711
 1564ntf    fn411303   4.823   4.640   1.136  0.2096 -0.2046  0.1724
 1564ntf    on511304   4.669   4.343   1.297 -0.4122  0.1107  0.2415
 1564ntf    on511305   4.900   4.410   1.260 -0.5281  0.2697 -0.7705
 1564ntf    on511306   4.827   4.379   1.611 -0.3656 -0.3327  0.1747
 1564ntf    on511307   4.683   4.570   1.660 -0.2351 -0.9237  0.5655
 1564ntf    fn411308   4.966   4.633   1.726 -0.2649 -0.1858 -0.3359
 1564ntf    fn411309   5.033   4.581   1.531 -0.3180 -0.1448  0.1880
 1564ntf    fn411310   4.897   4.740   1.554 -0.2746  0.0781 -0.3086
 1565ntf    cn111311   6.508   6.479   4.171 -0.0183 -0.2359  0.4539
 1565ntf    sn211312   6.616   6.561   4.292  0.0368 -0.0085  0.2524
 1565ntf    nn311313   6.573   6.712   4.286  0.6197  0.1476 -0.0363
 1565ntf    sn211314   6.467   6.775   4.383  0.2142 -0.1861 -0.2651
 1565ntf    cn111315   6.571   6.805   4.528  0.0210  0.1055 -0.1866
 1565ntf    fn411316   6.512   6.536   4.051  0.5197  0.0685  0.6165
 1565ntf    fn411317   6.538   6.352   4.153 -0.5964 -0.2688 -0.3276
 1565ntf    fn411318   6.379   6.486   4.202 -0.0717  0.3487  0.1369
 1565ntf    on511319   6.589   6.490   4.415  0.0571  0.1072  0.3242
 1565ntf    on511320   6.746   6.541   4.233 -0.2082 -0.7020 -0.0679
 1565ntf    on511321   6.358   6.692   4.429  0.3359 -0.0398  0.2900
 1565ntf    on511322   6.429   6.908   4.342 -0.4208 -0.2867 -0.0186
 1565ntf    fn411323   6.621   6.697   4.586  0.2996  0.3706  0.0746
 1565ntf    fn411324   6.676   6.880   4.503  0.3129  0.1502  1.0971
 1565ntf    fn411325   6.508   6.874   4.622 -0.0501 -0.4394  0.1767
 1566ntf    cn111326   2.241   0.907   1.521 -0.1226 -0.3619  0.0716
 1566ntf    sn211327   2.256   0.835   1.355  0.0572 -0.5371  0.1636
 1566ntf    nn311328   2.372   0.920   1.292 -0.1611 -0.3795 -0.0249
 1566ntf    sn211329   2.369   1.014   1.166  0.1971 -0.2169  0.0893
 1566ntf    cn111330   2.462   0.902   1.058  0.6510  0.3908 -0.1586
 1566ntf    fn411331   2.123   0.880   1.574 -0.1373 -0.3747  0.0313
 1566ntf    fn411332   2.337   0.859   1.599  0.3831 -0.2765 -0.4895
 1566ntf    fn411333   2.263   1.037   1.533 -0.3919 -0.3431  0.3612
 1566ntf    on511334   2.313   0.704   1.374  0.2446 -0.4382  0.2989
 1566ntf    on511335   2.121   0.837   1.306 -0.0357  0.3463  0.4323
 1566ntf    on511336   2.468   1.119   1.176 -0.1412  0.1249 -0.1386
 1566ntf    on511337   2.243   1.049   1.107  0.0471 -0.0870  0.4830
 1566ntf    fn411338   2.592   0.886   1.077  0.6423  0.0385 -0.3882
 1566ntf    fn411339   2.404   0.783   1.062  0.8155  0.3115 -0.1299
 1566ntf    fn411340   2.458   0.937   0.930  0.4437  0.4214 -0.1437
 1567ntf    cn111341   4.485   2.050   2.060  0.0234  0.1083  0.0754
 1567ntf    sn211342   4.319   2.072   2.129  0.0081 -0.0096  0.0762
 1567ntf    nn311343   4.315   2.228   2.144  0.2860  0.0063 -0.0127
 1567ntf    sn211344   4.189   2.322   2.159  0.1529 -0.1505 -0.1440
 1567ntf    cn111345   4.220   2.421   2.009  0.1626 -0.0051 -0.0457
 1567ntf    fn411346   4.576   2.097   2.143  0.3530  0.1492 -0.3038
 1567ntf    fn411347   4.521   1.924   2.040  0.0486  0.2005 -0.4775
 1567ntf    fn411348   4.490   2.112   1.943 -0.1548  0.2722  0.1562
 1567ntf    on511349   4.238   2.003   2.032 -0.0644 -0.3106  0.3487
 1567ntf    on511350   4.321   2.007   2.258 -0.0824 -0.2392 -0.0361
 1567ntf    on511351   4.198   2.411   2.272 -0.0885 -0.3568  0.0391
 1567ntf    on511352   4.058   2.265   2.145  0.1012  0.0472 -0.4832
 1567ntf    fn411353   4.336   2.483   2.015 -0.2021  0.6920 -0.1434
 1567ntf    fn411354   4.213   2.349   1.898  0.0437 -0.0203 -0.0282
 1567ntf    fn411355   4.125   2.512   1.999  0.3831  0.1887 -0.3612
 1568ntf    cn111356   0.439   3.749   6.114  0.0369 -0.1012  0.3540
 1568ntf    sn211357   0.375   3.834   5.966  0.2170  0.0716  0.3754
 1568ntf    nn311358   0.480   3.950   5.949 -0.2044  0.3678 -0.2286
 1568ntf    sn211359   0.601   3.972   5.852 -0.1032 -0.1101 -0.2135
 1568ntf    cn111360   0.706   4.084   5.949  0.1515 -0.1517 -0.4403
 1568ntf    fn411361   0.382   3.634   6.147  0.2489 -0.3786 -0.2463
 1568ntf    fn411362   0.566   3.716   6.102  0.0004 -0.0861 -0.0911
 1568ntf    fn411363   0.431   3.827   6.221  0.1889  0.1765  0.1643
 1568ntf    on511364   0.372   3.727   5.869 -0.3268 -0.2367  0.7238
 1568ntf    on511365   0.244   3.884   5.998 -0.0349 -0.1281 -0.3339
 1568ntf    on511366   0.574   4.049   5.734 -0.1148 -0.4410 -0.4265
 1568ntf    on511367   0.698   3.866   5.840 -0.3146 -0.3497  0.1721
 1568ntf    fn411368   0.782   4.020   6.036 -0.5746 -0.6923 -0.1981
 1568ntf    fn411369   0.779   4.171   5.881  0.4846 -0.2327 -0.1904
 1568ntf    fn411370   0.633   4.167   6.023 -0.1904 -0.6703 -0.1905
 1569ntf    cn111371   2.600   2.146   4.185 -0.1541 -0.1461  0.4572
 1569ntf    sn211372   2.621   2.326   4.189 -0.0232 -0.1513  0.0696
 1569ntf    nn311373   2.526   2.356   4.310 -0.0399 -0.0659  0.0351
 1569ntf    sn211374   2.370   2.371   4.317 -0.0283  0.1735 -0.1711
 1569ntf    cn111375   2.349   2.263   4.462 -0.1872  0.1248 -0.2304
 1569ntf    fn411376   2.475   2.107   4.170 -0.0579 -0.2303 -0.1451
 1569ntf    fn411377   2.659   2.090   4.080 -0.2775  0.6191 -0.0271
 1569ntf    fn411378   2.655   2.088   4.291 -0.4596  0.3129  0.8714
 1569ntf    on511379   2.761   2.341   4.223 -0.0707  0.1329  0.1421
 1569ntf    on511380   2.584   2.370   4.057 -0.2632 -0.4894  0.0242
 1569ntf    on511381   2.283   2.301   4.225 -0.0879 -0.0889  0.0810
 1569ntf    on511382   2.336   2.502   4.367 -0.0022 -0.1021  0.5889
 1569ntf    fn411383   2.222   2.237   4.488 -0.1106 -0.1847 -0.1544
 1569ntf    fn411384   2.406   2.143   4.456 -0.3520 -0.0022  0.5383
 1569ntf    fn411385   2.386   2.313   4.579 -0.5821 -0.3308  0.0910
 1570ntf    cn111386   5.775   0.403   3.071 -0.1243  0.0754  0.0589
 1570ntf    sn211387   5.844   0.536   2.968  0.1966 -0.1923 -0.0749
 1570ntf    nn311388   5.751   0.654   3.012  0.0004 -0.3775  0.0062
 1570ntf    sn211389   5.622   0.722   2.951  0.1642 -0.0833 -0.0117
 1570ntf    cn111390   5.693   0.879   2.892 -0.0435  0.0291  0.0380
 1570ntf    fn411391   5.773   0.418   3.202  0.1025  0.2375  0.0444
 1570ntf    fn411392   5.649   0.380   3.037 -0.0442 -0.4108  0.0762
 1570ntf    fn411393   5.841   0.291   3.044 -0.0946  0.1333 -0.1112
 1570ntf    on511394   5.973   0.551   3.031  0.1177  0.2429 -0.0118
 1570ntf    on511395   5.830   0.486   2.834 -0.2456  0.1334 -0.1505
 1570ntf    on511396   5.527   0.767   3.050  0.0800  0.3629 -0.2924
 1570ntf    on511397   5.568   0.662   2.832 -0.1269 -0.3310  0.2432
 1570ntf    fn411398   5.764   0.865   2.781 -0.1367 -0.0392 -0.0129
 1570ntf    fn411399   5.598   0.965   2.860  0.0893  0.0356 -0.3387
 1570ntf    fn411400   5.780   0.930   2.978  0.1417  0.1959 -0.2468
 1571ntf    cn111401   3.229   1.608   5.402 -0.1876  0.0517  0.0956
 1571ntf    sn211402   3.218   1.650   5.579  0.2214 -0.0754  0.1527
 1571ntf    nn311403   3.282   1.524   5.647  0.0686 -0.2923 -0.1022
 1571ntf    sn211404   3.255   1.461   5.788  0.2941  0.0954  0.1166
 1571ntf    cn111405   3.118   1.349   5.747  0.4238 -0.0087 -0.0334
 1571ntf    fn411406   3.356   1.584   5.373 -0.1466  0.5930 -0.1723
 1571ntf    fn411407   3.161   1.500   5.366 -0.1156  0.1180 -0.2396
 1571ntf    fn411408   3.200   1.702   5.315  0.0110 -0.0881 -0.1221
 1571ntf    on511409   3.297   1.770   5.586 -0.0676  0.1439 -0.3012
 1571ntf    on511410   3.077   1.670   5.602  0.1669 -0.4960  0.2002
 1571ntf    on511411   3.222   1.545   5.900  0.2797  0.2839 -0.0292
 1571ntf    on511412   3.357   1.363   5.820 -0.1852 -0.4237  0.0607
 1571ntf    fn411413   3.140   1.252   5.659 -0.2642 -0.2186  0.0181
 1571ntf    fn411414   3.077   1.290   5.858 -0.0860  0.3253 -0.0401
 1571ntf    fn411415   3.011   1.404   5.692  0.2837 -0.1578  0.0899
 1572ntf    cn111416   4.594   1.537   6.732 -0.1517 -0.3352  0.3033
 1572ntf    sn211417   4.559   1.531   6.910  0.2019  0.0744  0.3889
 1572ntf    nn311418   4.526   1.377   6.910  0.0119  0.1149  0.4303
 1572ntf    sn211419   4.614   1.250   6.936 -0.0021  0.0295  0.0748
 1572ntf    cn111420   4.515   1.167   7.064 -0.0870  0.0433  0.0180
 1572ntf    fn411421   4.666   1.639   6.687 -0.6457 -0.2884 -0.3993
 1572ntf    fn411422   4.665   1.436   6.685 -0.1172 -0.0429 -0.2790
 1572ntf    fn411423   4.483   1.528   6.661 -0.0621  0.3114  0.0709
 1572ntf    on511424   4.681   1.574   6.975  0.4885 -0.4534  0.2093
 1572ntf    on511425   4.440   1.610   6.929  0.1588  0.0660  0.1527
 1572ntf    on511426   4.747   1.275   6.988  0.3388  0.1244 -0.8299
 1572ntf    on511427   4.607   1.152   6.831  0.0849 -0.6998  0.7447
 1572ntf    fn411428   4.395   1.138   7.016 -0.0051 -0.0087 -0.1579
 1572ntf    fn411429   4.564   1.051   7.105  0.0579 -0.1451 -0.6629
 1572ntf    fn411430   4.507   1.241   7.173  0.0666  0.1656 -0.0545
 1573ntf    cn111431   1.341   6.358   5.410  0.0973 -0.2502 -0.2400
 1573ntf    sn211432   1.393   6.529   5.440  0.1536 -0.3012 -0.0446
 1573ntf    nn311433   1.428   6.572   5.293 -0.2462  0.0129 -0.0518
 1573ntf    sn211434   1.345   6.650   5.185  0.0567  0.0242 -0.2778
 1573ntf    cn111435   1.380   6.530   5.053  0.0578 -0.5510  0.2346
 1573ntf    fn411436   1.221   6.366   5.354  0.1362 -0.1308 -0.3047
 1573ntf    fn411437   1.426   6.289   5.336 -0.0131 -0.3483 -0.2782
 1573ntf    fn411438   1.314   6.282   5.515  0.0605 -0.2471 -0.2470
 1573ntf    on511439   1.279   6.594   5.500 -0.0719 -0.1075 -0.6760
 1573ntf    on511440   1.509   6.508   5.523  0.1115 -0.4475 -0.0226
 1573ntf    on511441   1.402   6.777   5.148  0.5113 -0.0338  0.2190
 1573ntf    on511442   1.201   6.641   5.193  0.0876  0.3100  0.6840
 1573ntf    fn411443   1.316   6.416   5.068 -0.5697 -0.3014 -0.4412
 1573ntf    fn411444   1.352   6.570   4.930  0.1548 -0.1661  0.3374
 1573ntf    fn411445   1.506   6.491   5.056  0.2309 -0.0686 -0.3104
 1574ntf    cn111446   6.369   0.837   3.302  0.1013 -0.5452  0.4164
 1574ntf    sn211447   6.374   0.948   3.446  0.3175 -0.1163  0.0803
 1574ntf    nn311448   6.398   0.849   3.566  0.2161  0.0369  0.2262
 1574ntf    sn211449   6.348   0.867   3.714  0.0432  0.1486  0.1548
 1574ntf    cn111450   6.196   0.769   3.704 -0.0192  0.2278  0.3163
 1574ntf    fn411451   6.337   0.908   3.195 -0.0688 -0.5361  0.4723
 1574ntf    fn411452   6.487   0.779   3.287  0.2027 -0.1850 -0.1818
 1574ntf    fn411453   6.280   0.739   3.300 -0.2357 -0.2349  0.0512
 1574ntf    on511454   6.490   1.032   3.427 -0.0734  0.4861  0.3408
 1574ntf    on511455   6.242   1.005   3.452  0.1989 -0.4616  0.8992
 1574ntf    on511456   6.298   0.997   3.751 -0.4855  0.1294 -0.4840
 1574ntf    on511457   6.424   0.789   3.809 -0.0057  0.1937  0.2304
 1574ntf    fn411458   6.108   0.821   3.620  0.1847  0.3135  0.1561
 1574ntf    fn411459   6.215   0.643   3.670  0.1012  0.3959 -0.2502
 1574ntf    fn411460   6.135   0.781   3.821 -0.0381 -0.1067  0.3420
 1575ntf    cn111461   3.827   4.910   4.482 -0.0341 -0.5390  0.0774
 1575ntf    sn211462   3.736   5.065   4.452  0.2740 -0.3101  0.3141
 1575ntf    nn311463   3.772   5.146   4.582  0.2108  0.0747  0.0914
 1575ntf    sn211464   3.668   5.215   4.677  0.0872 -0.2566  0.1953
 1575ntf    cn111465   3.602   5.076   4.775  0.1504 -0.4300 -0.0070
 1575ntf    fn411466   3.958   4.923   4.477 -0.0817 -0.2893 -0.6005
 1575ntf    fn411467   3.792   4.865   4.602  0.8080  0.2976  0.6553
 1575ntf    fn411468   3.795   4.826   4.386 -0.0402  0.0514 -0.4471
 1575ntf    on511469   3.799   5.113   4.332  0.2455 -0.4666  0.2366
 1575ntf    on511470   3.600   5.018   4.442  0.0545  0.3831 -0.0119
 1575ntf    on511471   3.551   5.274   4.618  0.4231  0.1115 -0.1084
 1575ntf    on511472   3.734   5.294   4.778  0.1768 -0.3889  0.2419
 1575ntf    fn411473   3.691   4.980   4.795  0.3220 -0.3008 -0.1473
 1575ntf    fn411474   3.572   5.124   4.894 -0.0456 -0.6613  0.0349
 1575ntf    fn411475   3.497   5.018   4.719 -0.0795  0.1709 -0.2061
 1576ntf    cn111476   0.431   4.902   4.231  0.3573 -0.0528  0.1304
 1576ntf    sn211477   0.579   5.007   4.245  0.0478  0.3821  0.1381
 1576ntf    nn311478   0.603   5.030   4.091  0.0935 -0.3065  0.0421
 1576ntf    sn211479   0.742   4.994   4.026 -0.1156 -0.5153 -0.2901
 1576ntf    cn111480   0.708   5.051   3.857 -0.1580 -0.4900 -0.2726
 1576ntf    fn411481   0.402   4.876   4.357  0.1682  0.4639  0.1957
 1576ntf    fn411482   0.327   4.960   4.174 -0.2170 -0.5951  0.6268
 1576ntf    fn411483   0.454   4.784   4.176 -0.0097 -0.2233  0.3407
 1576ntf    on511484   0.540   5.134   4.303 -0.4205 -0.0076  0.6866
 1576ntf    on511485   0.675   4.931   4.320 -0.2028 -0.2393 -0.1696
 1576ntf    on511486   0.768   4.853   4.011  0.4036 -0.5116  0.5083
 1576ntf    on511487   0.851   5.080   4.063 -0.0273 -0.3462 -0.9458
 1576ntf    fn411488   0.792   5.007   3.766 -0.2023 -0.3475 -0.3822
 1576ntf    fn411489   0.587   5.011   3.824 -0.3667  0.1590 -0.3210
 1576ntf    fn411490   0.713   5.183   3.840 -0.2729 -0.4480  0.0134
 1577ntf    cn111491   2.453   3.838   2.051 -0.0354  0.1862 -0.3939
 1577ntf    sn211492   2.570   3.832   2.191 -0.0886  0.1519 -0.3510
 1577ntf    nn311493   2.519   3.703   2.265  0.1834  0.2393 -0.0141
 1577ntf    sn211494   2.403   3.706   2.371  0.1114  0.4767 -0.0991
 1577ntf    cn111495   2.506   3.743   2.516  0.0096 -0.2339  0.1561
 1577ntf    fn411496   2.486   3.919   1.952 -0.1884  0.1403 -0.4813
 1577ntf    fn411497   2.435   3.717   2.000  0.2176 -0.0622  0.0884
 1577ntf    fn411498   2.331   3.870   2.089 -0.1899 -0.3896 -0.3943
 1577ntf    on511499   2.694   3.801   2.124 -0.0620  0.1012 -0.2781
 1577ntf    on511500   2.551   3.957   2.258  0.0878 -0.0129  0.0092
 1577ntf    on511501   2.366   3.569   2.395  0.3646  0.4167 -0.0517
 1577ntf    on511502   2.294   3.800   2.362 -0.4715 -0.1554  0.2434
 1577ntf    fn411503   2.453   3.768   2.635 -0.0645  0.0068  0.0715
 1577ntf    fn411504   2.589   3.641   2.534 -0.3044 -0.4647  0.3196
 1577ntf    fn411505   2.580   3.852   2.503 -0.3661 -0.0509 -0.4795
 1578ntf    cn111506   0.974   1.894   4.945 -0.1301 -0.3112  0.0459
 1578ntf    sn211507   0.988   1.839   4.773  0.0441  0.0996 -0.0722
 1578ntf    nn311508   0.836   1.862   4.739  0.1429  0.4670 -0.2684
 1578ntf    sn211509   0.775   1.909   4.603 -0.5757  0.3282  0.0031
 1578ntf    cn111510   0.768   2.089   4.626 -0.0909  0.3156  0.2548
 1578ntf    fn411511   0.885   1.816   5.005  0.2153 -0.4443  0.3887
 1578ntf    fn411512   1.086   1.888   5.015  0.0352 -0.2800 -0.2156
 1578ntf    fn411513   0.924   2.016   4.945  0.5541 -0.0269 -0.0672
 1578ntf    on511514   1.076   1.938   4.716 -0.0270  0.3482  0.2494
 1578ntf    on511515   1.030   1.701   4.782  0.4236  0.2147 -0.0639
 1578ntf    on511516   0.639   1.861   4.604 -0.4549 -0.0143  0.3110
 1578ntf    on511517   0.857   1.884   4.487 -0.0253  0.2903  0.3973
 1578ntf    fn411518   0.681   2.123   4.720  0.1786  0.2706  0.5246
 1578ntf    fn411519   0.884   2.139   4.665 -0.1498  0.1891  0.5999
 1578ntf    fn411520   0.731   2.149   4.515 -0.2992 -0.4429 -0.0885
 1579ntf    cn111521   3.606   1.947   5.356  0.4606  0.2718 -0.3727
 1579ntf    sn211522   3.623   2.127   5.330 -0.1725  0.4236  0.2229
 1579ntf    nn311523   3.667   2.158   5.478  0.3603 -0.0384  0.1662
 1579ntf    sn211524   3.585   2.222   5.595  0.0018  0.0746 -0.1476
 1579ntf    cn111525   3.613   2.397   5.554 -0.4058  0.2567  0.3340
 1579ntf    fn411526   3.554   1.881   5.254 -0.2394 -0.0488  0.1851
 1579ntf    fn411527   3.719   1.882   5.378  0.4347  0.1893 -0.4851
 1579ntf    fn411528   3.531   1.925   5.463  0.4550  0.4188 -0.3451
 1579ntf    on511529   3.740   2.139   5.246 -0.5651  0.2927 -0.3442
 1579ntf    on511530   3.492   2.164   5.284 -0.0519 -0.0448 -0.5120
 1579ntf    on511531   3.656   2.208   5.719 -0.2297 -0.0086 -0.0241
 1579ntf    on511532   3.441   2.211   5.605 -0.0214  0.9218  0.6153
 1579ntf    fn411533   3.552   2.425   5.440 -0.3033  0.3367  0.2982
 1579ntf    fn411534   3.573   2.491   5.638  0.4578  0.5774  0.3944
 1579ntf    fn411535   3.742   2.419   5.537 -0.3713  0.0145  0.2734
 1580ntf    cn111536   3.550   6.451   3.537  0.1476  0.0587 -0.3759
 1580ntf    sn211537   3.719   6.497   3.488  0.2615 -0.0187 -0.0577
 1580ntf    nn311538   3.692   6.645   3.443  0.0610  0.1589  0.6279
 1580ntf    sn211539   3.650   6.772   3.525  0.0522  0.3378  0.3466
 1580ntf    cn111540   3.803   6.870   3.515  0.1078  0.2307  0.1475
 1580ntf    fn411541   3.495   6.531   3.626 -0.3882 -0.4327 -0.2584
 1580ntf    fn411542   3.468   6.456   3.433 -0.7354 -0.8871  0.2550
 1580ntf    fn411543   3.538   6.331   3.592  0.4293  0.0406 -0.3530
 1580ntf    on511544   3.797   6.488   3.609  0.5145  0.0324 -0.2158
 1580ntf    on511545   3.755   6.415   3.375 -0.1768 -0.1525 -0.1021
 1580ntf    on511546   3.638   6.752   3.667 -0.1656 -0.0786  0.2711
 1580ntf    on511547   3.557   6.859   3.457 -0.1006  0.0760  0.2171
 1580ntf    fn411548   3.774   6.995   3.544 -0.2453  0.0298  0.6872
 1580ntf    fn411549   3.887   6.821   3.604 -0.4545 -0.3004  0.3914
 1580ntf    fn411550   3.851   6.866   3.392 -0.1776 -0.1971  0.0441
 1581ntf    cn111551   0.792   4.287   4.654 -0.1124  0.2754 -0.2342
 1581ntf    sn211552   0.849   4.389   4.793 -0.2104 -0.1567  0.1238
 1581ntf    nn311553   1.002   4.354   4.781 -0.0801  0.4137  0.0974
 1581ntf    sn211554   1.108   4.415   4.682  0.3199 -0.0639  0.2310
 1581ntf    cn111555   1.152   4.255   4.607 -0.5044 -0.1967  0.0218
 1581ntf    fn411556   0.665   4.305   4.621 -0.1181  0.0993 -0.3094
 1581ntf    fn411557   0.870   4.296   4.547  0.0010  0.1145 -0.1645
 1581ntf    fn411558   0.806   4.161   4.690 -0.3144  0.2910 -0.1039
 1581ntf    on511559   0.800   4.521   4.761  0.2383  0.0282  0.1843
 1581ntf    on511560   0.798   4.320   4.909 -0.4680  0.0099  0.1091
 1581ntf    on511561   1.228   4.459   4.750  0.6614 -0.5173 -0.0699
 1581ntf    on511562   1.065   4.493   4.569  0.1138 -0.5613 -0.0396
 1581ntf    fn411563   1.265   4.265   4.538 -0.0502 -0.1541  0.7565
 1581ntf    fn411564   1.167   4.166   4.704 -0.4998  0.1418  0.3330
 1581ntf    fn411565   1.056   4.207   4.529  0.1903 -0.4020 -0.7246
 1582ntf    cn111566   4.471   0.937   3.999 -0.1621  0.1804  0.0344
 1582ntf    sn211567   4.593   0.890   3.873 -0.2272  0.2194 -0.0429
 1582ntf    nn311568   4.722   0.959   3.929  0.1189  0.0748 -0.6433
 1582ntf    sn211569   4.834   0.902   4.023 -0.0765  0.7530  0.0101
 1582ntf    cn111570   4.925   1.054   4.066  0.0980  0.5712  0.2849
 1582ntf    fn411571   4.346   0.918   3.960 -0.1466  0.0896  0.0290
 1582ntf    fn411572   4.471   0.859   4.106 -0.1790 -0.4679 -0.4365
 1582ntf    fn411573   4.475   1.065   4.032  0.1158  0.1532  0.1088
 1582ntf    on511574   4.593   0.745   3.873 -0.0526  0.2194 -0.1024
 1582ntf    on511575   4.543   0.945   3.749  0.3117  0.1378 -0.2991
 1582ntf    on511576   4.944   0.830   3.965 -0.5211 -0.0973  0.2095
 1582ntf    on511577   4.791   0.860   4.155  0.1082  0.4238 -0.0341
 1582ntf    fn411578   5.018   1.027   4.157 -0.1144 -0.0870  0.3143
 1582ntf    fn411579   4.983   1.120   3.967 -0.1093  0.1426 -0.1269
 1582ntf    fn411580   4.847   1.141   4.128 -0.5542  0.2158 -0.0270
 1583ntf    cn111581   6.383   4.496   3.172 -0.4566  0.1331 -0.2361
 1583ntf    sn211582   6.293   4.398   3.048 -0.2850  0.1092 -0.3421
 1583ntf    nn311583   6.243   4.511   2.951 -0.5451  0.0689 -0.2546
 1583ntf    sn211584   6.165   4.492   2.816 -0.4021  0.2986 -0.3703
 1583ntf    cn111585   6.037   4.619   2.834 -0.1938  0.4470  0.0777
 1583ntf    fn411586   6.330   4.613   3.205 -1.0715 -0.2116  0.0050
 1583ntf    fn411587   6.384   4.442   3.293 -0.2324  0.9688  0.1475
 1583ntf    fn411588   6.511   4.510   3.142 -0.3794 -0.1225 -0.0342
 1583ntf    on511589   6.400   4.317   2.995 -0.1841  0.1064 -0.1358
 1583ntf    on511590   6.181   4.337   3.115  0.2036 -0.0330  0.3634
 1583ntf    on511591   6.092   4.369   2.795  0.1182  0.0070 -0.5063
 1583ntf    on511592   6.246   4.547   2.710  0.3553 -0.1677 -0.0488
 1583ntf    fn411593   5.955   4.592   2.935 -0.2367  0.7039  0.1109
 1583ntf    fn411594   6.093   4.736   2.857  0.5633  0.1419 -0.1925
 1583ntf    fn411595   5.971   4.625   2.719  0.1898  0.2349 -0.1538
 1584ntf    cn111596   4.782   0.625   2.000 -0.0870  0.3621 -0.0789
 1584ntf    sn211597   4.923   0.541   1.920 -0.2421  0.3146 -0.3025
 1584ntf    nn311598   4.877   0.522   1.771 -0.0757  0.4911 -0.3764
 1584ntf    sn211599   4.857   0.387   1.693  0.2840  0.2522 -0.0580
 1584ntf    cn111600   4.697   0.442   1.628  0.1161 -0.1415  0.0194
 1584ntf    fn411601   4.812   0.670   2.120  0.2541  0.4587 -0.1972
 1584ntf    fn411602   4.733   0.720   1.923 -1.1135  0.2098  0.3708
 1584ntf    fn411603   4.679   0.544   2.013  0.0636  0.2030  0.1428
 1584ntf    on511604   5.024   0.643   1.928  0.4073 -0.3698  0.3947
 1584ntf    on511605   4.961   0.428   2.002 -0.3493 -0.0729 -0.7797
 1584ntf    on511606   4.825   0.275   1.778 -0.1703 -0.1083 -0.6933
 1584ntf    on511607   4.936   0.366   1.574  0.0536  0.0231 -0.1702
 1584ntf    fn411608   4.709   0.544   1.544 -0.0056 -0.2874 -0.1779
 1584ntf    fn411609   4.639   0.344   1.561  0.4718 -0.6391  0.4283
 1584ntf    fn411610   4.610   0.482   1.719  0.5912  0.5432  0.1801
 1585ntf    cn111611   1.396   3.596   3.871  0.0329 -0.0583 -0.7847
 1585ntf    sn211612   1.320   3.617   4.035 -0.0664  0.1543 -0.8583
 1585ntf    nn311613   1.167   3.622   3.999 -0.1954 -0.1169 -0.3633
 1585ntf    sn211614   1.091   3.740   3.927  0.1355  0.2521 -0.1127
 1585ntf    cn111615   1.003   3.819   4.065  0.1929  0.0594  0.0356
 1585ntf    fn411616   1.436   3.471   3.854  0.1236 -0.1175 -0.1712
 1585ntf    fn411617   1.301   3.619   3.781 -0.5407 -0.3225 -0.2571
 1585ntf    fn411618   1.502   3.670   3.843 -0.3816  0.7758 -0.1725
 1585ntf    on511619   1.352   3.494   4.103 -0.1519  0.5627 -0.0736
 1585ntf    on511620   1.371   3.740   4.091 -0.9511  0.2377 -0.2281
 1585ntf    on511621   0.988   3.683   3.845  0.1100  0.2212 -0.0594
 1585ntf    on511622   1.172   3.846   3.872  0.2501  0.1285 -0.1821
 1585ntf    fn411623   0.923   3.915   4.020 -0.3432 -0.3294  0.1452
 1585ntf    fn411624   0.932   3.738   4.143  0.4257 -0.0521  0.1323
 1585ntf    fn411625   1.087   3.876   4.150  0.2660  0.3404 -0.2256
 1586ntf    cn111626   5.578   4.962   1.850  0.2712 -0.0360 -0.1991
 1586ntf    sn211627   5.526   4.790   1.823 -0.0437  0.0474 -0.1206
 1586ntf    nn311628   5.439   4.762   1.950  0.0514  0.9319  0.1466
 1586ntf    sn211629   5.283   4.747   1.959  0.1119  0.0645 -0.1312
 1586ntf    cn111630   5.261   4.572   1.916 -0.2261  0.0522  0.0819
 1586ntf    fn411631   5.483   5.040   1.899 -0.1086 -0.5567 -0.0954
 1586ntf    fn411632   5.677   4.984   1.935 -0.5999  0.3180  0.7460
 1586ntf    fn411633   5.618   5.024   1.741  0.0656  0.6863  0.1298
 1586ntf    on511634   5.459   4.792   1.696  0.2414 -0.3258 -0.2786
 1586ntf    on511635   5.650   4.716   1.830  0.1204  0.3397  0.1126
 1586ntf    on511636   5.205   4.807   1.853  0.4795  0.1874 -0.3313
 1586ntf    on511637   5.232   4.765   2.093 -0.7149 -0.1861 -0.4046
 1586ntf    fn411638   5.322   4.535   1.805 -0.1689  0.3267  0.0227
 1586ntf    fn411639   5.310   4.487   2.004 -0.4417  0.2587  0.4018
 1586ntf    fn411640   5.133   4.540   1.903 -0.0772 -0.5600  0.0922
 1587ntf    cn111641   2.887   4.868   3.915 -0.2447  0.1573 -0.0479
 1587ntf    sn211642   2.960   4.705   3.881 -0.3770  0.0893 -0.0057
 1587ntf    nn311643   3.072   4.690   3.990  0.0799 -0.2794 -0.5228
 1587ntf    sn211644   3.221   4.738   3.992  0.0007 -0.0458 -0.1096
 1587ntf    cn111645   3.301   4.616   4.101  0.3009 -0.1842 -0.4832
 1587ntf    fn411646   2.895   4.902   4.043 -0.4119 -0.4031  0.1118
 1587ntf    fn411647   2.938   4.972   3.850 -0.0893  0.3542  0.3847
 1587ntf    fn411648   2.758   4.864   3.886 -0.3511 -0.1800  0.4680
 1587ntf    on511649   2.860   4.603   3.897 -0.0796 -0.2005  0.0021
 1587ntf    on511650   3.007   4.714   3.745 -0.3851  0.9866  0.0423
 1587ntf    on511651   3.247   4.865   4.054  0.4967  0.2309 -0.8720
 1587ntf    on511652   3.286   4.717   3.865 -0.1712 -0.1596 -0.1802
 1587ntf    fn411653   3.250   4.620   4.222 -0.0069 -0.6945 -0.5951
 1587ntf    fn411654   3.263   4.499   4.053 -0.3063 -0.0975 -0.2227
 1587ntf    fn411655   3.433   4.609   4.113  0.2241 -0.2572  0.3377
 1588ntf    cn111656   5.583   1.577   4.822 -0.0480 -0.2941 -0.2847
 1588ntf    sn211657   5.760   1.545   4.853  0.0149  0.3519  0.0405
 1588ntf    nn311658   5.780   1.691   4.907  0.2887  0.3228  0.0186
 1588ntf    sn211659   5.823   1.742   5.049  0.3209 -0.0538  0.1445
 1588ntf    cn111660   5.923   1.892   5.028  0.2659 -0.0355  0.0152
 1588ntf    fn411661   5.571   1.696   4.766 -0.3507 -0.1205  0.1494
 1588ntf    fn411662   5.522   1.492   4.741 -0.6056  0.3111 -0.5050
 1588ntf    fn411663   5.511   1.585   4.933  0.3589  0.5034 -0.0747
 1588ntf    on511664   5.755   1.427   4.936 -0.0905  0.0250 -0.4266
 1588ntf    on511665   5.828   1.524   4.728 -0.4679  0.2914 -0.2145
 1588ntf    on511666   5.912   1.646   5.110  0.0926 -0.0247  0.5275
 1588ntf    on511667   5.712   1.785   5.130  0.4702 -0.3837  0.5310
 1588ntf    fn411668   6.021   1.879   4.941 -0.0338  0.0070 -0.3301
 1588ntf    fn411669   5.850   1.991   4.978 -0.2584 -0.3060  0.2292
 1588ntf    fn411670   5.983   1.936   5.138 -0.1224 -0.0241  0.2270
 1589ntf    cn111671   6.004   1.686   6.244  0.2738 -0.3856  0.2872
 1589ntf    sn211672   6.062   1.519   6.201 -0.0318 -0.4208  0.0101
 1589ntf    nn311673   6.216   1.544   6.184 -0.0451 -0.3098  0.0576
 1589ntf    sn211674   6.331   1.526   6.289  0.0054  0.0798  0.0722
 1589ntf    cn111675   6.408   1.690   6.288  0.7577 -0.2651  0.1017
 1589ntf    fn411676   6.020   1.763   6.137 -0.6014 -0.6273 -0.0265
 1589ntf    fn411677   5.875   1.690   6.273  0.1649 -0.7603 -0.1298
 1589ntf    fn411678   6.065   1.743   6.347  0.4697  0.3433 -0.2206
 1589ntf    on511679   6.011   1.437   6.309  0.3163  0.3966  0.8110
 1589ntf    on511680   6.009   1.498   6.069  0.4868  0.8430 -0.4086
 1589ntf    on511681   6.441   1.437   6.259 -0.0328 -0.0437  0.2977
 1589ntf    on511682   6.277   1.521   6.422 -0.3258 -0.2407 -0.0746
 1589ntf    fn411683   6.517   1.709   6.360  0.5750 -0.9230  0.5588
 1589ntf    fn411684   6.445   1.724   6.165  0.0847  0.1953  0.0151
 1589ntf    fn411685   6.317   1.782   6.317  0.2917 -0.6266 -0.1906
 1590ntf    cn111686   5.563   3.600   5.464  0.1717 -0.2170  0.0642
 1590ntf    sn211687   5.381   3.598   5.465  0.1682  0.0325  0.0231
 1590ntf    nn311688   5.347   3.673   5.598  0.2166  0.0635  0.0184
 1590ntf    sn211689   5.203   3.689   5.661  0.1369  0.1647 -0.1874
 1590ntf    cn111690   5.208   3.864   5.708  0.2891  0.0182  0.3503
 1590ntf    fn411691   5.611   3.715   5.508 -0.2212 -0.2002  0.4560
 1590ntf    fn411692   5.619   3.515   5.550 -0.1305 -0.4182  0.0616
 1590ntf    fn411693   5.619   3.589   5.345  0.5433 -0.8465  0.2924
 1590ntf    on511694   5.356   3.686   5.354 -0.0700  0.5592  0.4912
 1590ntf    on511695   5.337   3.461   5.458  0.6580 -0.1552  0.4757
 1590ntf    on511696   5.195   3.618   5.787  0.0357 -0.1590 -0.3724
 1590ntf    on511697   5.091   3.669   5.572  0.0409 -0.1087 -0.0074
 1590ntf    fn411698   5.313   3.884   5.785  0.0884  0.6189  0.4754
 1590ntf    fn411699   5.224   3.944   5.603  0.1835 -0.5135 -0.0755
 1590ntf    fn411700   5.097   3.898   5.771  0.1518  0.2734 -0.0227
 1591ntf    cn111701   5.361   0.762   4.655 -0.0705  0.1028  0.1060
 1591ntf    sn211702   5.346   0.853   4.499 -0.0617  0.2387  0.1845
 1591ntf    nn311703   5.344   0.999   4.558  0.4308  0.1892  0.3271
 1591ntf    sn211704   5.220   1.087   4.595  0.1048 -0.0892 -0.0954
 1591ntf    cn111705   5.175   1.158   4.434 -0.2501  0.3028  0.1763
 1591ntf    fn411706   5.423   0.646   4.640 -0.4607 -0.1413  0.3574
 1591ntf    fn411707   5.426   0.832   4.747  0.3633 -0.3110  0.1152
 1591ntf    fn411708   5.245   0.736   4.714 -0.1894  0.0629 -0.1443
 1591ntf    on511709   5.466   0.811   4.430 -0.3595 -0.0495 -0.1656
 1591ntf    on511710   5.224   0.811   4.435  0.1597  0.4300 -0.3718
 1591ntf    on511711   5.266   1.205   4.664  0.4936 -0.4408  0.2548
 1591ntf    on511712   5.102   1.020   4.644 -0.1920  0.1956 -0.4154
 1591ntf    fn411713   5.272   1.237   4.391 -0.1055  0.1466  0.2157
 1591ntf    fn411714   5.146   1.073   4.337  0.0713 -0.3255  0.6241
 1591ntf    fn411715   5.067   1.235   4.438 -0.4378  0.0249  0.4715
 1592ntf    cn111716   3.461   0.845   3.819 -0.4941 -0.1444  0.2759
 1592ntf    sn211717   3.585   0.931   3.920 -0.1109 -0.1498 -0.1895
 1592ntf    nn311718   3.710   0.838   3.901  0.3788  0.3518  0.5080
 1592ntf    sn211719   3.807   0.821   3.779 -0.0989 -0.3311  0.2131
 1592ntf    cn111720   3.959   0.905   3.835  0.0202 -0.1310 -0.4035
 1592ntf    fn411721   3.475   0.864   3.689  0.4175 -0.1599  0.3692
 1592ntf    fn411722   3.457   0.716   3.848 -0.3728 -0.2476 -0.1739
 1592ntf    fn411723   3.339   0.891   3.842 -0.4333  0.0909  0.1295
 1592ntf    on511724   3.604   1.059   3.856  0.1414  0.1763  0.5199
 1592ntf    on511725   3.545   0.929   4.058  0.4855  0.0746 -0.0075
 1592ntf    on511726   3.773   0.892   3.658  0.3918 -0.4794 -0.0122
 1592ntf    on511727   3.857   0.688   3.756 -0.6006 -0.3620 -0.7220
 1592ntf    fn411728   4.019   0.839   3.932 -0.2294 -0.3048 -0.3676
 1592ntf    fn411729   4.048   0.916   3.737  0.1521  0.0020 -0.2691
 1592ntf    fn411730   3.938   1.032   3.865  0.3594 -0.2349  0.2839
 1593ntf    cn111731   3.425   4.048   2.179  0.1105  0.1833 -0.1928
 1593ntf    sn211732   3.432   3.984   2.350  0.2024 -0.3211 -0.3843
 1593ntf    nn311733   3.472   3.834   2.326  0.7453 -0.2311 -0.0560
 1593ntf    sn211734   3.375   3.726   2.266  0.1961  0.0990  0.2284
 1593ntf    cn111735   3.356   3.612   2.407 -0.0944 -0.1173  0.0138
 1593ntf    fn411736   3.446   4.179   2.180  0.2182  0.1654  0.2381
 1593ntf    fn411737   3.517   3.993   2.102  0.3541  0.1412  0.1256
 1593ntf    fn411738   3.304   4.035   2.126  0.2716 -0.3734 -0.4233
 1593ntf    on511739   3.542   4.063   2.400 -0.0437 -0.4316  0.3289
 1593ntf    on511740   3.304   4.008   2.413  0.3245 -0.5041 -0.0683
 1593ntf    on511741   3.429   3.647   2.159 -0.3697 -0.3893  0.2971
 1593ntf    on511742   3.241   3.774   2.242  0.2419  0.1223  0.0220
 1593ntf    fn411743   3.302   3.681   2.506 -0.0733 -0.0390 -0.0289
 1593ntf    fn411744   3.280   3.508   2.375  0.4906 -0.7059  0.5403
 1593ntf    fn411745   3.469   3.559   2.448 -0.0081 -0.1853 -0.3026
 1594ntf    cn111746   3.058   4.744   0.827 -0.0401  0.0085  0.0013
 1594ntf    sn211747   2.964   4.778   0.978 -0.1320 -0.0251 -0.0485
 1594ntf    nn311748   2.860   4.874   0.910 -0.0438  0.1678  0.0896
 1594ntf    sn211749   2.706   4.859   0.883 -0.0013  0.0245 -0.0740
 1594ntf    cn111750   2.691   4.914   0.711 -0.1889 -0.4030 -0.1956
 1594ntf    fn411751   3.165   4.674   0.861 -0.0320 -0.0317 -0.1048
 1594ntf    fn411752   2.989   4.674   0.739  0.1670  0.2298 -0.3405
 1594ntf    fn411753   3.096   4.853   0.761 -0.1103  0.3047  0.4481
 1594ntf    on511754   2.917   4.647   1.018  0.6482 -0.1829  0.3769
 1594ntf    on511755   3.054   4.845   1.069 -0.2585  0.1476 -0.0509
 1594ntf    on511756   2.621   4.944   0.963 -0.0104 -0.0797  0.0286
 1594ntf    on511757   2.664   4.722   0.869  0.1019  0.0119 -0.2651
 1594ntf    fn411758   2.779   4.847   0.638 -0.2057 -0.3876 -0.2295
 1594ntf    fn411759   2.573   4.884   0.660 -0.3680 -0.6107  0.3340
 1594ntf    fn411760   2.716   5.042   0.691  0.0158 -0.3641  0.2906
 1595ntf    cn111761   0.158   0.058   1.643 -0.1764 -0.3990 -0.5133
 1595ntf    sn211762  -0.023   0.044   1.659 -0.1727 -0.0973 -0.1849
 1595ntf    nn311763  -0.047   0.117   1.796  0.0204 -0.1040 -0.1469
 1595ntf    sn211764  -0.037   0.061   1.942  0.1569  0.1609 -0.0541
 1595ntf    cn111765  -0.211   0.016   1.964  0.3443 -0.3510  0.4072
 1595ntf    fn411766   0.223   0.015   1.750 -0.8853  0.3216  0.2283
 1595ntf    fn411767   0.196  -0.010   1.536  0.8826  0.3364 -0.6277
 1595ntf    fn411768   0.195   0.185   1.633  0.2794 -0.4905 -0.0458
 1595ntf    on511769  -0.069   0.124   1.548 -0.2110  0.4098  0.1940
 1595ntf    on511770  -0.053  -0.097   1.661  0.0008 -0.1340 -0.0808
 1595ntf    on511771  -0.009   0.164   2.039 -0.0644  0.0364  0.1429
 1595ntf    on511772   0.042  -0.058   1.960 -0.0034  0.1370  0.4840
 1595ntf    fn411773  -0.236  -0.051   2.075  0.0962 -0.5546  0.2320
 1595ntf    fn411774  -0.283   0.127   1.962  0.5973 -0.1902  0.1821
 1595ntf    fn411775  -0.250  -0.064   1.866 -0.5697 -0.2914  0.7088
 1596ntf    cn111776   3.170   5.269   1.614 -0.3892 -0.2007  0.0983
 1596ntf    sn211777   3.208   5.177   1.462 -0.3876  0.1422 -0.1081
 1596ntf    nn311778   3.314   5.075   1.517 -0.2196  0.2386 -0.2487
 1596ntf    sn211779   3.470   5.091   1.516 -0.1933 -0.0021 -0.0631
 1596ntf    cn111780   3.527   4.967   1.395 -0.2285  0.0477 -0.1309
 1596ntf    fn411781   3.180   5.185   1.716 -0.4892 -0.5079 -0.1415
 1596ntf    fn411782   3.242   5.374   1.648 -0.6661 -0.0531  0.2309
 1596ntf    fn411783   3.045   5.313   1.620 -0.2395  0.2718 -0.2066
 1596ntf    on511784   3.083   5.112   1.434 -0.1941  0.0700 -0.8423
 1596ntf    on511785   3.245   5.285   1.373 -0.7093 -0.0136 -0.4340
 1596ntf    on511786   3.518   5.048   1.645 -0.6016  0.9844  0.4269
 1596ntf    on511787   3.524   5.213   1.463 -0.2399 -0.2397 -0.6715
 1596ntf    fn411788   3.440   4.957   1.296 -0.0360 -0.0194 -0.2943
 1596ntf    fn411789   3.643   5.000   1.342 -0.0736 -0.3120 -0.0232
 1596ntf    fn411790   3.541   4.847   1.449  0.1306 -0.1384 -0.6289
 1597ntf    cn111791   1.387   2.707   4.551  0.5023  0.1848  0.1442
 1597ntf    sn211792   1.476   2.653   4.402 -0.2371 -0.2023 -0.1623
 1597ntf    nn311793   1.593   2.758   4.399 -0.6248  0.2256 -0.4971
 1597ntf    sn211794   1.609   2.901   4.337  0.2174  0.2695 -0.1854
 1597ntf    cn111795   1.608   2.984   4.499  0.2404 -0.0749 -0.0085
 1597ntf    fn411796   1.295   2.622   4.596  0.3529  0.4164  0.2785
 1597ntf    fn411797   1.471   2.749   4.644  0.4726 -0.5892  0.5303
 1597ntf    fn411798   1.318   2.817   4.526  0.7627  0.3678  0.2330
 1597ntf    on511799   1.522   2.518   4.424 -0.3521 -0.2236 -0.0470
 1597ntf    on511800   1.385   2.669   4.291  0.0158 -0.1619 -0.3660
 1597ntf    on511801   1.487   2.950   4.277 -0.0186 -0.5463 -0.3771
 1597ntf    on511802   1.737   2.928   4.276  0.2920  0.1254 -0.0937
 1597ntf    fn411803   1.598   3.114   4.481  0.6628 -0.0234  0.1210
 1597ntf    fn411804   1.513   2.937   4.579 -0.0951 -0.1607 -0.4554
 1597ntf    fn411805   1.727   2.969   4.555 -0.1583 -0.2254  0.8132
 1598ntf    cn111806   2.614   5.912   1.665 -0.0721  0.1395 -0.1476
 1598ntf    sn211807   2.595   5.801   1.807  0.3746 -0.1019 -0.2729
 1598ntf    nn311808   2.538   5.674   1.735 -0.1431 -0.3197  0.5040
 1598ntf    sn211809   2.624   5.568   1.658  0.1732  0.2013  0.1287
 1598ntf    cn111810   2.504   5.538   1.525  0.0880  0.0251  0.2444
 1598ntf    fn411811   2.712   5.868   1.587  0.2174 -0.0747  0.3375
 1598ntf    fn411812   2.505   5.913   1.590 -0.1999 -0.0952  0.0376
 1598ntf    fn411813   2.650   6.035   1.701  0.1633 -0.1572  0.6420
 1598ntf    on511814   2.725   5.797   1.869  0.3836 -0.0072 -0.2862
 1598ntf    on511815   2.497   5.864   1.893  0.0082  0.0102 -0.7677
 1598ntf    on511816   2.632   5.439   1.724 -0.1547 -0.1462 -0.5025
 1598ntf    on511817   2.735   5.618   1.582 -0.1749  0.0713 -0.4694
 1598ntf    fn411818   2.469   5.648   1.460 -0.2542 -0.5785 -0.6044
 1598ntf    fn411819   2.545   5.449   1.436 -0.5382 -0.1192  0.0902
 1598ntf    fn411820   2.390   5.486   1.569  0.1586 -0.5916 -0.2947
 1599ntf    cn111821   3.314   2.684   1.451 -0.2904  0.3137 -0.1889
 1599ntf    sn211822   3.349   2.604   1.610 -0.3081  0.2028 -0.2407
 1599ntf    nn311823   3.496   2.561   1.575 -0.3157  0.1571 -0.2185
 1599ntf    sn211824   3.629   2.645   1.576 -0.2490  0.0490 -0.1122
 1599ntf    cn111825   3.690   2.637   1.405  0.0843  0.6876 -0.0270
 1599ntf    fn411826   3.183   2.701   1.443 -0.3952 -0.4718 -0.2708
 1599ntf    fn411827   3.374   2.801   1.439 -0.1742  0.3264  0.5025
 1599ntf    fn411828   3.356   2.613   1.347 -0.0200  0.2804 -0.0586
 1599ntf    on511829   3.324   2.703   1.712 -0.3008  0.1581 -0.1954
 1599ntf    on511830   3.247   2.503   1.625  0.0549 -0.2332 -0.7094
 1599ntf    on511831   3.728   2.572   1.651 -0.5707  0.0254  0.2922
 1599ntf    on511832   3.618   2.788   1.590  0.2240  0.0736  0.0344
 1599ntf    fn411833   3.803   2.702   1.384  0.5201 -0.0688 -0.0585
 1599ntf    fn411834   3.711   2.513   1.361 -0.1537  0.2264  1.1239
 1599ntf    fn411835   3.599   2.681   1.319 -0.0262 -0.1110 -0.3327
 1600ntf    cn111836   0.870   2.600   6.365 -0.4100  0.6348  0.1141
 1600ntf    sn211837   0.951   2.639   6.523 -0.0642 -0.0172  0.1009
 1600ntf    nn311838   1.040   2.513   6.553 -0.0773 -0.0682 -0.0728
 1600ntf    sn211839   1.193   2.492   6.523 -0.1758 -0.5699 -0.2305
 1600ntf    cn111840   1.190   2.311   6.535 -0.1400 -0.5442  0.1841
 1600ntf    fn411841   0.952   2.549   6.274 -0.7463  0.5196 -0.1271
 1600ntf    fn411842   0.783   2.500   6.374 -0.0968  0.3691  0.1975
 1600ntf    fn411843   0.806   2.705   6.315  0.2451  0.7053 -0.5920
 1600ntf    on511844   1.040   2.745   6.482  0.6820 -0.6733  0.0055
 1600ntf    on511845   0.852   2.667   6.624 -0.4795  0.2699 -0.3759
 1600ntf    on511846   1.281   2.531   6.630  0.3645  0.5460 -1.0683
 1600ntf    on511847   1.233   2.515   6.386  0.0786 -0.0285 -0.0668
 1600ntf    fn411848   1.164   2.278   6.660  0.0567 -0.3633  0.2736
 1600ntf    fn411849   1.098   2.266   6.451  0.2557 -0.6448 -0.2007
 1600ntf    fn411850   1.304   2.251   6.503 -0.0568 -0.1101 -0.3467
 1601ntf    cn111851   2.947   2.290   0.801 -0.1902  0.1885  0.0032
 1601ntf    sn211852   3.093   2.342   0.706 -0.1059  0.3400  0.2139
 1601ntf    nn311853   3.040   2.348   0.558 -0.0805  0.0633  0.1925
 1601ntf    sn211854   2.975   2.468   0.480  0.0192 -0.1595 -0.2340
 1601ntf    cn111855   3.123   2.534   0.397  0.0217 -0.2093 -0.2695
 1601ntf    fn411856   2.948   2.159   0.822  0.3701  0.1624 -0.1496
 1601ntf    fn411857   2.947   2.346   0.921 -0.1400  0.0685  0.0598
 1601ntf    fn411858   2.837   2.336   0.746 -0.1606  0.2629  0.0069
 1601ntf    on511859   3.133   2.473   0.751  0.8195  0.2654 -0.3706
 1601ntf    on511860   3.186   2.235   0.730  0.0104  0.4343  0.1854
 1601ntf    on511861   2.921   2.573   0.563  0.4436 -0.2029  0.1025
 1601ntf    on511862   2.896   2.427   0.367 -0.6793  0.3849  0.0445
 1601ntf    fn411863   3.101   2.629   0.307 -0.2860 -0.0299 -0.0103
 1601ntf    fn411864   3.214   2.585   0.478 -0.0990 -0.0478 -0.2325
 1601ntf    fn411865   3.185   2.438   0.331  0.1794 -0.2760 -0.0288
 1602ntf    cn111866   4.683   0.083   3.259  0.0713 -0.0123 -0.1335
 1602ntf    sn211867   4.603   0.050   3.418 -0.1860 -0.1616 -0.2931
 1602ntf    nn311868   4.554   0.195   3.456 -0.1752 -0.0995 -0.5188
 1602ntf    sn211869   4.412   0.255   3.482  0.0412  0.0202  0.4114
 1602ntf    cn111870   4.410   0.240   3.663  0.0547 -0.1364  0.3985
 1602ntf    fn411871   4.780   0.173   3.262  0.0815 -0.0206 -0.2081
 1602ntf    fn411872   4.744  -0.020   3.201 -0.2001 -0.0570 -0.3413
 1602ntf    fn411873   4.586   0.118   3.176  0.0893  0.4701  0.0523
 1602ntf    on511874   4.497  -0.043   3.387  0.1309 -0.1830 -1.3222
 1602ntf    on511875   4.712   0.005   3.501 -0.1411 -0.2665 -0.4085
 1602ntf    on511876   4.299   0.173   3.446  0.4954 -0.3773 -0.1155
 1602ntf    on511877   4.416   0.394   3.442 -0.3530 -0.0152  0.2501
 1602ntf    fn411878   4.407   0.113   3.702  0.3784 -0.3570 -0.2819
 1602ntf    fn411879   4.512   0.301   3.721 -0.0445 -0.1515  0.5908
 1602ntf    fn411880   4.302   0.296   3.715 -0.0707  0.0555 -0.0624
 1603ntf    cn111881   4.607   6.153   0.029  0.0187 -0.4332  0.0110
 1603ntf    sn211882   4.619   6.055  -0.124 -0.0850  0.0156 -0.2905
 1603ntf    nn311883   4.526   5.936  -0.080 -0.0761  0.1884  0.2033
 1603ntf    sn211884   4.520   5.785  -0.121 -0.1737  0.2575 -0.0404
 1603ntf    cn111885   4.552   5.708   0.040  0.0260  0.2448 -0.0851
 1603ntf    fn411886   4.682   6.262   0.027 -0.1236 -0.3257  0.6003
 1603ntf    fn411887   4.480   6.188   0.043  0.1279 -0.1237  0.2407
 1603ntf    fn411888   4.638   6.077   0.132 -0.1665  0.4615  0.7378
 1603ntf    on511889   4.555   6.142  -0.219 -0.0797  0.4757  0.1268
 1603ntf    on511890   4.761   6.026  -0.127 -0.0673  0.0726 -0.0718
 1603ntf    on511891   4.629   5.748  -0.208  0.3532  0.3835  0.5635
 1603ntf    on511892   4.387   5.747  -0.160 -0.1892 -0.0482  0.3069
 1603ntf    fn411893   4.539   5.576   0.044  0.0192  0.2431 -0.1667
 1603ntf    fn411894   4.677   5.729   0.076  0.0527  0.6628 -0.4173
 1603ntf    fn411895   4.472   5.767   0.127 -0.3461 -0.5414  0.1232
 1604ntf    cn111896   0.332   2.503   5.631 -0.0244 -0.5487  0.5110
 1604ntf    sn211897   0.275   2.389   5.501  0.2887 -0.0368 -0.0772
 1604ntf    nn311898   0.397   2.294   5.477 -0.1339 -0.6740  0.2907
 1604ntf    sn211899   0.420   2.197   5.355  0.2065 -0.1641 -0.0539
 1604ntf    cn111900   0.505   2.058   5.436  0.2306  0.0527  0.2968
 1604ntf    fn411901   0.432   2.578   5.588 -0.6424 -0.0224 -0.0322
 1604ntf    fn411902   0.241   2.586   5.678 -0.0899 -0.0382 -0.4905
 1604ntf    fn411903   0.379   2.435   5.734  0.8005  0.0130  0.5124
 1604ntf    on511904   0.168   2.323   5.572  0.0433  0.7059  0.2517
 1604ntf    on511905   0.241   2.476   5.391  0.0142 -0.2035 -0.1237
 1604ntf    on511906   0.506   2.246   5.251  0.5284 -0.1989  0.1934
 1604ntf    on511907   0.299   2.128   5.315  0.0440 -0.2298  0.5403
 1604ntf    fn411908   0.494   1.949   5.361 -0.1550  0.1934  0.1425
 1604ntf    fn411909   0.635   2.080   5.440  0.2662 -0.0740 -0.1642
 1604ntf    fn411910   0.459   2.021   5.555 -0.1145  0.1162  0.1859
 1605ntf    cn111911   1.705   2.534   3.053 -0.0906 -0.7144 -0.0690
 1605ntf    sn211912   1.592   2.518   2.911 -0.0448 -0.0512 -0.1843
 1605ntf    nn311913   1.515   2.654   2.902 -0.6411 -0.3670  0.0713
 1605ntf    sn211914   1.469   2.720   2.767  0.0547 -0.1467 -0.0625
 1605ntf    cn111915   1.292   2.694   2.795  0.0681 -0.2776 -0.1011
 1605ntf    fn411916   1.788   2.431   3.062  0.4876 -0.1921  0.7196
 1605ntf    fn411917   1.786   2.639   3.054 -0.6802 -0.2546 -0.0896
 1605ntf    fn411918   1.626   2.534   3.158 -0.6948  0.0578 -0.5101
 1605ntf    on511919   1.690   2.490   2.809 -0.2449 -0.2019 -0.3332
 1605ntf    on511920   1.513   2.403   2.945  0.7267 -0.5748 -0.1329
 1605ntf    on511921   1.502   2.650   2.645  0.1821  0.4372 -0.3719
 1605ntf    on511922   1.483   2.864   2.771  0.2908 -0.1751  0.1328
 1605ntf    fn411923   1.262   2.565   2.788  0.3287 -0.3472  0.0463
 1605ntf    fn411924   1.241   2.731   2.911  0.4655 -0.2855  0.0757
 1605ntf    fn411925   1.221   2.755   2.701  0.1609  0.0600  0.0465
 1606ntf    cn111926   3.658   1.706   3.849 -0.5240  0.1316 -0.2647
 1606ntf    sn211927   3.560   1.850   3.901  0.1748  0.4121  0.2734
 1606ntf    nn311928   3.504   1.887   3.760 -0.1043 -0.2021  0.2203
 1606ntf    sn211929   3.362   1.863   3.696  0.1057  0.2775 -0.4418
 1606ntf    cn111930   3.410   1.895   3.524  0.2443  0.2261 -0.4126
 1606ntf    fn411931   3.611   1.646   3.740 -0.1821  0.4104 -0.5675
 1606ntf    fn411932   3.784   1.737   3.828 -0.2080 -0.5563  0.5624
 1606ntf    fn411933   3.661   1.612   3.942  0.1868  0.1761 -0.2400
 1606ntf    on511934   3.463   1.792   3.990  0.0751 -0.4170 -0.3702
 1606ntf    on511935   3.663   1.939   3.950  0.0349  0.3376  0.7118
 1606ntf    on511936   3.271   1.970   3.729  0.1619  0.2987 -0.3540
 1606ntf    on511937   3.321   1.725   3.706  1.0880  0.0501  0.7583
 1606ntf    fn411938   3.316   1.851   3.442 -0.3391 -0.0607  0.4021
 1606ntf    fn411939   3.439   2.022   3.502 -0.0478  0.2438 -0.7052
 1606ntf    fn411940   3.519   1.829   3.488  0.2590  0.0453 -0.0429
 1607ntf    cn111941   2.149   1.956   6.046  0.2278  0.4938  0.3429
 1607ntf    sn211942   1.985   1.927   6.118  0.1002 -0.1931 -0.2161
 1607ntf    nn311943   2.009   1.972   6.266  0.4621 -0.1473 -0.2879
 1607ntf    sn211944   1.962   2.105   6.335 -0.0417 -0.2871 -0.3549
 1607ntf    cn111945   2.078   2.102   6.475 -0.5702 -0.0468  0.0918
 1607ntf    fn411946   2.248   1.918   6.125 -0.0785 -0.4856  0.2697
 1607ntf    fn411947   2.166   1.886   5.935  0.1833  0.5820  0.2805
 1607ntf    fn411948   2.161   2.083   6.010 -0.0570  0.2365 -0.6937
 1607ntf    on511949   1.895   2.004   6.035  0.6061  0.0740 -0.5180
 1607ntf    on511950   1.968   1.784   6.110 -0.1081 -0.1640 -0.3181
 1607ntf    on511951   1.833   2.105   6.398  0.1250 -0.3718 -0.0114
 1607ntf    on511952   1.997   2.223   6.259  0.2656  0.0849  0.3570
 1607ntf    fn411953   2.203   2.103   6.431 -0.4892 -0.4398  0.3079
 1607ntf    fn411954   2.076   2.204   6.559  0.2139 -0.1579  0.2557
 1607ntf    fn411955   2.068   1.992   6.547  0.4589 -0.2116  0.0022
 1608ntf    cn111956   3.254   0.386   6.717  0.1464 -0.3240 -0.0046
 1608ntf    sn211957   3.315   0.220   6.676  0.2892 -0.2738  0.0065
 1608ntf    nn311958   3.217   0.195   6.556  0.4895 -0.4136 -0.1307
 1608ntf    sn211959   3.112   0.080   6.536  0.1968 -0.1105 -0.3422
 1608ntf    cn111960   3.194  -0.027   6.415  0.5456 -0.0099 -0.1957
 1608ntf    fn411961   3.134   0.381   6.774  0.0177 -0.1677 -0.2587
 1608ntf    fn411962   3.334   0.439   6.807 -0.0738  0.1512 -0.0870
 1608ntf    fn411963   3.242   0.471   6.616  0.1559 -0.2738  0.0369
 1608ntf    on511964   3.449   0.250   6.634  0.5623 -0.7455  0.5166
 1608ntf    on511965   3.302   0.142   6.797 -0.3499 -0.1095  0.0477
 1608ntf    on511966   2.991   0.129   6.474  0.5354 -0.0863 -0.9803
 1608ntf    on511967   3.081  -0.005   6.648  0.0704  0.1574 -0.1705
 1608ntf    fn411968   3.224   0.032   6.300 -0.0152  0.2324 -0.2207
 1608ntf    fn411969   3.307  -0.080   6.458  0.1641 -0.6348  0.0597
 1608ntf    fn411970   3.122  -0.133   6.383 -0.0642  0.5273 -0.6289
 1609ntf    cn111971   5.969   5.551   6.555 -0.1483 -0.0815 -0.1020
 1609ntf    sn211972   5.810   5.639   6.551 -0.0153  0.1799  0.3743
 1609ntf    nn311973   5.711   5.517   6.549  0.3364 -0.0994 -0.2945
 1609ntf    sn211974   5.603   5.468   6.447 -0.2503 -0.0181  0.2818
 1609ntf    cn111975   5.458   5.560   6.506 -0.1036  0.3889  0.0057
 1609ntf    fn411976   6.029   5.502   6.447 -0.4287  0.8877 -0.7045
 1609ntf    fn411977   6.061   5.637   6.596 -0.0556 -0.3384  0.2381
 1609ntf    fn411978   5.965   5.444   6.634  0.0643 -0.3622 -0.4676
 1609ntf    on511979   5.792   5.718   6.671  0.2306 -0.0348  0.5555
 1609ntf    on511980   5.814   5.710   6.426 -0.5923  0.1588  0.3426
 1609ntf    on511981   5.553   5.336   6.478 -0.1294 -0.1737 -0.1769
 1609ntf    on511982   5.622   5.510   6.311 -0.3395 -0.0997  0.2442
 1609ntf    fn411983   5.427   5.523   6.629  0.3559 -0.0598 -0.0111
 1609ntf    fn411984   5.479   5.691   6.507 -0.0281  0.3765  0.0107
 1609ntf    fn411985   5.354   5.535   6.428  0.3670 -0.0911 -0.4708
 1610ntf    cn111986   2.401   5.396   5.656 -0.0945 -0.3218 -0.2385
 1610ntf    sn211987   2.399   5.478   5.494  0.1352 -0.0861 -0.1204
 1610ntf    nn311988   2.347   5.362   5.403 -0.5562  0.3852 -0.3353
 1610ntf    sn211989   2.402   5.272   5.287 -0.2678  0.0407  0.0633
 1610ntf    cn111990   2.363   5.110   5.360 -0.1345  0.0486  0.1510
 1610ntf    fn411991   2.478   5.465   5.737 -0.0954 -0.3135 -0.2452
 1610ntf    fn411992   2.283   5.392   5.716  0.1597 -0.0836  0.2772
 1610ntf    fn411993   2.447   5.273   5.640  0.0838 -0.3115  0.1897
 1610ntf    on511994   2.307   5.588   5.511  0.3403  0.0071  0.4081
 1610ntf    on511995   2.537   5.512   5.464  0.0638 -0.1147 -0.4838
 1610ntf    on511996   2.545   5.268   5.271 -0.2195  0.4405  0.4078
 1610ntf    on511997   2.322   5.278   5.167  0.0809 -0.5587 -0.2063
 1610ntf    fn411998   2.415   5.087   5.480  0.6544 -0.0797 -0.2150
 1610ntf    fn411999   2.234   5.081   5.373 -0.0560 -0.4033 -0.0636
 1610ntf    fn412000   2.416   5.012   5.289 -0.3492  0.2704 -0.3209
 1611ntf    cn112001   0.006   6.246   0.422  0.2846 -0.1125  0.2125
 1611ntf    sn212002  -0.102   6.328   0.543 -0.0956 -0.2015 -0.0631
 1611ntf    nn312003   0.014   6.369   0.641  0.5197 -0.1581 -0.7965
 1611ntf    sn212004   0.082   6.286   0.757  0.0833  0.0413 -0.3943
 1611ntf    cn112005  -0.005   6.351   0.902  0.1422 -0.1912 -0.2550
 1611ntf    fn412006   0.067   6.137   0.468  0.2257 -0.2900 -0.1289
 1611ntf    fn412007  -0.069   6.203   0.322  0.1421  0.6817 -0.0316
 1611ntf    fn412008   0.100   6.320   0.365 -0.1144  0.2003 -0.0386
 1611ntf    on512009  -0.155   6.436   0.464 -0.4160 -0.1044  0.2827
 1611ntf    on512010  -0.190   6.225   0.590 -0.0506  0.0100  0.4995
 1611ntf    on512011   0.217   6.331   0.780 -0.0026  0.2387 -0.2736
 1611ntf    on512012   0.058   6.144   0.759  0.0245  0.0571  0.1281
 1611ntf    fn412013  -0.135   6.352   0.875  0.0412  0.5740  0.2045
 1611ntf    fn412014   0.011   6.292   1.019 -0.0245 -0.5282 -0.4033
 1611ntf    fn412015   0.031   6.473   0.938 -0.1672 -0.2256  0.1841
 1612ntf    cn112016   4.540   2.427   0.379  0.2423 -0.3461  0.3123
 1612ntf    sn212017   4.513   2.372   0.550 -0.1408  0.0107  0.3703
 1612ntf    nn312018   4.466   2.508   0.613  0.0258  0.3732 -0.2713
 1612ntf    sn212019   4.334   2.548   0.688  0.1192  0.2118 -0.0172
 1612ntf    cn112020   4.264   2.656   0.559 -0.2417 -0.0127 -0.0103
 1612ntf    fn412021   4.636   2.514   0.351 -0.6152  0.4346 -0.2760
 1612ntf    fn412022   4.583   2.333   0.297  0.1463  0.3351 -0.5396
 1612ntf    fn412023   4.432   2.490   0.335  0.4011 -0.1793  0.1564
 1612ntf    on512024   4.416   2.269   0.525 -0.0909  0.0070  0.1886
 1612ntf    on512025   4.645   2.328   0.590 -0.1403 -0.0465  0.3069
 1612ntf    on512026   4.360   2.631   0.803 -0.5948  0.1553  0.1862
 1612ntf    on512027   4.240   2.440   0.704  0.5916 -0.1480  0.3610
 1612ntf    fn412028   4.139   2.689   0.588 -0.2364  0.0787 -0.0926
 1612ntf    fn412029   4.325   2.771   0.537  0.2526 -0.2601  0.0394
 1612ntf    fn412030   4.260   2.601   0.438 -0.0046 -0.2934  0.1060
 1613ntf    cn112031   6.238   0.312   3.882 -0.0852 -0.2731  0.1257
 1613ntf    sn212032   6.286   0.452   3.988  0.3110 -0.3569  0.0615
 1613ntf    nn312033   6.162   0.547   3.969  0.1505 -0.5750  0.0013
 1613ntf    sn212034   6.021   0.531   4.036 -0.0493 -0.2691 -0.3436
 1613ntf    cn112035   5.921   0.533   3.884 -0.1308 -0.1422 -0.2888
 1613ntf    fn412036   6.127   0.251   3.920 -0.3692 -0.2563 -0.6634
 1613ntf    fn412037   6.212   0.337   3.755 -0.0301  0.2791  0.2187
 1613ntf    fn412038   6.334   0.221   3.886  0.3493  0.2020  0.6880
 1613ntf    on512039   6.301   0.402   4.123  0.0489  0.2797  0.3294
 1613ntf    on512040   6.402   0.504   3.922 -0.0411  0.9110  0.4137
 1613ntf    on512041   5.980   0.651   4.104 -0.2939 -0.3345 -0.3769
 1613ntf    on512042   5.989   0.404   4.096  0.0562 -0.4159 -0.5948
 1613ntf    fn412043   5.931   0.648   3.820 -0.3370 -0.0627 -0.1784
 1613ntf    fn412044   5.959   0.433   3.805  0.3442  0.2052 -0.5056
 1613ntf    fn412045   5.795   0.512   3.919 -0.1901  0.0318 -0.3952
 1614ntf    cn112046   3.157   3.905   6.420  0.2394  0.3882  0.2858
 1614ntf    sn212047   3.041   3.798   6.330  0.7038  0.1535 -0.0345
 1614ntf    nn312048   3.134   3.687   6.268  0.0140 -0.5020  0.0834
 1614ntf    sn212049   3.169   3.676   6.115  0.1221 -0.2319  0.0859
 1614ntf    cn112050   3.012   3.598   6.064  0.0030 -0.0125  0.1154
 1614ntf    fn412051   3.114   4.028   6.445 -0.0575  0.3553 -0.0595
 1614ntf    fn412052   3.185   3.846   6.535 -0.3591 -0.2091  0.1286
 1614ntf    fn412053   3.274   3.915   6.360  0.1529  0.0133  0.0571
 1614ntf    on512054   2.963   3.743   6.438  0.4663  0.0963 -0.2362
 1614ntf    on512055   2.976   3.886   6.237  0.0864 -0.0997  0.1575
 1614ntf    on512056   3.270   3.579   6.081  0.2943 -0.0236  0.0052
 1614ntf    on512057   3.179   3.806   6.056  0.2827 -0.3457 -0.1378
 1614ntf    fn412058   2.915   3.686   6.076  0.1994  0.2005  0.1484
 1614ntf    fn412059   3.012   3.554   5.939  0.3429 -0.0779  0.1368
 1614ntf    fn412060   2.991   3.492   6.140  1.0533 -0.1945  0.1764
 1615ntf    cn112061   1.353   4.801   0.860  0.2115  0.6029 -0.2143
 1615ntf    sn212062   1.496   4.843   0.756  0.6496  0.0979  0.1787
 1615ntf    nn312063   1.622   4.782   0.826  0.3663  0.2459  0.8213
 1615ntf    sn212064   1.727   4.695   0.747 -0.2932  0.3143 -0.1384
 1615ntf    cn112065   1.863   4.724   0.863 -0.2733 -0.3568  0.0121
 1615ntf    fn412066   1.359   4.855   0.980 -0.0896  0.1905 -0.0111
 1615ntf    fn412067   1.240   4.846   0.809  0.1616  0.3040 -0.3705
 1615ntf    fn412068   1.336   4.670   0.871 -0.2700  0.6825  0.0154
 1615ntf    on512069   1.454   4.786   0.630  0.1975  0.2010  0.2807
 1615ntf    on512070   1.511   4.986   0.759 -0.0226  0.1843 -0.2744
 1615ntf    on512071   1.786   4.747   0.626 -0.4537  0.7375 -0.0384
 1615ntf    on512072   1.703   4.553   0.758  0.3750  0.2186  0.1192
 1615ntf    fn412073   1.978   4.684   0.811 -0.3915 -0.2707 -0.3133
 1615ntf    fn412074   1.892   4.852   0.881 -0.3256 -0.3091 -0.2507
 1615ntf    fn412075   1.851   4.663   0.980 -0.0723 -0.7092 -0.1519
 1616ntf    cn112076   2.584   2.924   6.621  0.0928  0.0783 -0.0323
 1616ntf    sn212077   2.530   2.903   6.449 -0.4006 -0.1064  0.1453
 1616ntf    nn312078   2.633   2.792   6.412  0.0990  0.3689  0.0997
 1616ntf    sn212079   2.621   2.646   6.355 -0.0403  0.4339 -0.0392
 1616ntf    cn112080   2.638   2.674   6.176  0.0856  0.1697 -0.0688
 1616ntf    fn412081   2.704   2.981   6.619  0.2299 -0.2055 -0.0633
 1616ntf    fn412082   2.497   2.993   6.692 -0.0106 -0.1691  0.0819
 1616ntf    fn412083   2.602   2.807   6.680 -0.0131  0.0318 -0.0927
 1616ntf    on512084   2.390   2.870   6.459 -0.5299  0.4624  0.2856
 1616ntf    on512085   2.562   3.031   6.390 -0.8685 -0.1160 -0.1445
 1616ntf    on512086   2.491   2.586   6.371  0.2711 -0.3632 -0.4473
 1616ntf    on512087   2.739   2.567   6.385  0.1690  0.7400 -0.0536
 1616ntf    fn412088   2.548   2.761   6.134 -0.2116 -0.1107 -0.0215
 1616ntf    fn412089   2.757   2.717   6.137  0.1784 -0.1409 -0.1368
 1616ntf    fn412090   2.619   2.564   6.104  0.3912  0.3505 -0.4260
 1617ntf    cn112091   6.626   3.943   6.673  0.0584  0.1578  0.5188
 1617ntf    sn212092   6.470   3.852   6.693  0.0057  0.1038 -0.1395
 1617ntf    nn312093   6.387   3.902   6.569 -0.2000 -0.1549 -0.1071
 1617ntf    sn212094   6.308   4.037   6.555  0.1189  0.0069 -0.3687
 1617ntf    cn112095   6.150   3.982   6.625  0.1965 -0.0243 -0.2167
 1617ntf    fn412096   6.712   3.930   6.774  0.2748 -0.1267  0.3013
 1617ntf    fn412097   6.693   3.905   6.565 -0.3027 -0.0356  0.3641
 1617ntf    fn412098   6.600   4.072   6.659  0.1779  0.1333  0.0711
 1617ntf    on512099   6.506   3.715   6.669  0.3678  0.2569 -0.4962
 1617ntf    on512100   6.433   3.885   6.828  0.0354 -0.1856 -0.0600
 1617ntf    on512101   6.281   4.077   6.420 -0.0803  0.1602 -0.2843
 1617ntf    on512102   6.351   4.135   6.653 -0.5144  0.2606 -0.3395
 1617ntf    fn412103   6.162   3.914   6.738  0.5184  0.5460  0.0940
 1617ntf    fn412104   6.073   4.085   6.655  0.4313  0.0004  0.3013
 1617ntf    fn412105   6.089   3.893   6.547  0.0227 -0.6914  0.6670
 1618ntf    cn112106   1.267   2.360   0.787  0.0056  0.0577 -0.1706
 1618ntf    sn212107   1.385   2.374   0.649  0.0388 -0.0278 -0.1505
 1618ntf    nn312108   1.466   2.241   0.672  0.0338  0.0661  0.4072
 1618ntf    sn212109   1.618   2.217   0.641 -0.0119 -0.0872  0.3081
 1618ntf    cn112110   1.687   2.199   0.808  0.0995 -0.0414  0.2674
 1618ntf    fn412111   1.190   2.467   0.798 -0.3634 -0.2072 -0.1768
 1618ntf    fn412112   1.197   2.248   0.784 -0.2349  0.1901  0.3179
 1618ntf    fn412113   1.326   2.344   0.905 -0.5522  0.1051  0.1192
 1618ntf    on512114   1.293   2.371   0.537  0.6595  0.5866 -0.6819
 1618ntf    on512115   1.465   2.491   0.671 -0.5408  0.2959  0.2762
 1618ntf    on512116   1.694   2.320   0.575  0.5001 -0.5881  0.1037
 1618ntf    on512117   1.633   2.082   0.590 -0.1903  0.1673 -0.4258
 1618ntf    fn412118   1.817   2.176   0.808  0.1392  0.1745 -0.2957
 1618ntf    fn412119   1.665   2.308   0.880 -0.2058  0.1627 -0.1302
 1618ntf    fn412120   1.638   2.102   0.885  0.5566 -0.3979  0.1128
 1619ntf    cn112121   5.151   0.254   1.124  0.1878 -0.0969 -0.1654
 1619ntf    sn212122   5.028   0.315   1.005 -0.0210  0.0297  0.1165
 1619ntf    nn312123   5.012   0.463   1.055 -0.1442 -0.0205  0.2272
 1619ntf    sn212124   5.055   0.603   0.999 -0.4071  0.1135  0.3591
 1619ntf    cn112125   4.900   0.690   1.037 -0.3246  0.3930  0.0661
 1619ntf    fn412126   5.166   0.123   1.108 -0.1575 -0.2282  0.5754
 1619ntf    fn412127   5.267   0.317   1.117  0.3641 -0.3482  0.4381
 1619ntf    fn412128   5.112   0.276   1.248 -0.4412  0.0452 -0.3841
 1619ntf    on512129   5.092   0.295   0.877 -0.1682 -0.0377  0.0533
 1619ntf    on512130   4.913   0.233   1.037 -0.2002  0.1179 -0.2961
 1619ntf    on512131   5.050   0.619   0.855  0.1824  0.8019  0.4095
 1619ntf    on512132   5.156   0.670   1.077  0.0827  0.0291 -0.1993
 1619ntf    fn412133   4.791   0.618   1.015 -0.2045  0.3602 -0.4227
 1619ntf    fn412134   4.904   0.737   1.161 -0.9920 -0.3970  0.3925
 1619ntf    fn412135   4.887   0.797   0.960  0.2997  0.2728 -0.2073
 1620ntf    cn112136   4.177   2.213   3.224 -0.2053  0.4728 -0.0811
 1620ntf    sn212137   4.270   2.109   3.107 -0.0127  0.4688  0.0750
 1620ntf    nn312138   4.413   2.171   3.123  0.1632  0.0190  0.2648
 1620ntf    sn212139   4.536   2.118   3.205  0.3026 -0.3560 -0.1816
 1620ntf    cn112140   4.598   2.280   3.258 -0.4898 -0.0550 -0.1558
 1620ntf    fn412141   4.246   2.225   3.336  0.6333 -0.4258 -0.4791
 1620ntf    fn412142   4.158   2.336   3.180 -0.3173  0.3954 -0.2540
 1620ntf    fn412143   4.056   2.166   3.248  0.0684 -0.2300 -0.0558
 1620ntf    on512144   4.236   1.977   3.155  0.1894  0.2174 -0.4634
 1620ntf    on512145   4.208   2.137   2.980  0.2187  0.7231  0.0172
 1620ntf    on512146   4.630   2.057   3.114  0.3940 -0.0953 -0.2628
 1620ntf    on512147   4.505   2.041   3.323 -0.4059  0.6009  0.2727
 1620ntf    fn412148   4.698   2.288   3.345 -0.5059  0.3256 -0.1693
 1620ntf    fn412149   4.633   2.360   3.158 -0.0888 -0.1760 -0.1152
 1620ntf    fn412150   4.497   2.339   3.319  0.0419  0.1412  0.5455
 1621ntf    cn112151   6.507   4.468   5.202  0.3693 -0.3276  0.4913
 1621ntf    sn212152   6.689   4.468   5.206  0.3804 -0.1380  0.0073
 1621ntf    nn312153   6.710   4.403   5.065 -0.2368 -0.0496 -0.1279
 1621ntf    sn212154   6.719   4.250   5.032  0.4351 -0.0713  0.1447
 1621ntf    cn112155   6.609   4.258   4.887  0.0588 -0.1533  0.4250
 1621ntf    fn412156   6.448   4.560   5.127 -0.0773 -0.4117  0.7323
 1621ntf    fn412157   6.455   4.353   5.163  0.2301 -0.1105  0.0273
 1621ntf    fn412158   6.455   4.482   5.323  0.5346  0.0920  0.5173
 1621ntf    on512159   6.731   4.606   5.216 -0.1975  0.0078  0.4884
 1621ntf    on512160   6.714   4.392   5.325  0.4376 -0.3588 -0.1459
 1621ntf    on512161   6.646   4.156   5.113 -0.3016 -0.1007 -0.5323
 1621ntf    on512162   6.848   4.211   4.980  0.0799 -0.2148 -0.6534
 1621ntf    fn412163   6.639   4.349   4.796  0.1984 -0.0546  0.5688
 1621ntf    fn412164   6.599   4.147   4.816  0.4059  0.0421  0.0681
 1621ntf    fn412165   6.484   4.285   4.923  0.1587  0.4625  0.3221
 1622ntf    cn112166   5.815   1.003   1.484  0.0384  0.2431 -0.0854
 1622ntf    sn212167   5.654   1.086   1.474  0.0572  0.2178 -0.6369
 1622ntf    nn312168   5.572   0.978   1.395  0.5081 -0.2506 -0.4700
 1622ntf    sn212169   5.454   0.880   1.426  0.1748  0.1587 -0.4378
 1622ntf    cn112170   5.554   0.729   1.435  0.0899  0.1260 -0.0470
 1622ntf    fn412171   5.806   0.885   1.543 -0.3433  0.2496 -0.1333
 1622ntf    fn412172   5.873   0.986   1.366  0.7744 -0.5020  0.3691
 1622ntf    fn412173   5.897   1.073   1.561  0.0522 -0.0310  0.1508
 1622ntf    on512174   5.628   1.092   1.615 -0.3805  0.1692 -0.7138
 1622ntf    on512175   5.685   1.208   1.402  0.7528  0.4268 -0.0055
 1622ntf    on512176   5.372   0.864   1.308  0.1954 -0.1471 -0.4115
 1622ntf    on512177   5.394   0.879   1.557  0.1760 -0.1751 -0.4390
 1622ntf    fn412178   5.492   0.612   1.436  0.1117  0.1144  0.3000
 1622ntf    fn412179   5.655   0.722   1.351  0.3733  1.0856  0.2035
 1622ntf    fn412180   5.621   0.739   1.549 -0.1414  0.1023  0.0932
 1623ntf    cn112181   2.170   6.080   3.053 -0.3007  0.0404  0.1547
 1623ntf    sn212182   2.265   6.180   3.170  0.0197  0.1065 -0.1602
 1623ntf    nn312183   2.208   6.111   3.299 -0.0028  0.4092 -0.0059
 1623ntf    sn212184   2.172   6.161   3.444  0.0997  0.1028  0.1264
 1623ntf    cn112185   2.235   6.034   3.557  0.0189 -0.1840 -0.1509
 1623ntf    fn412186   2.212   5.956   3.034 -0.2170  0.1867 -0.6434
 1623ntf    fn412187   2.044   6.073   3.094 -0.2351  0.0807  0.3644
 1623ntf    fn412188   2.170   6.127   2.930  0.2092 -0.5734 -0.0863
 1623ntf    on512189   2.404   6.151   3.146  0.0777  0.2367  0.0119
 1623ntf    on512190   2.219   6.315   3.149 -0.2755  0.1419  0.6551
 1623ntf    on512191   2.030   6.152   3.466  0.0874 -0.3052 -0.1158
 1623ntf    on512192   2.235   6.281   3.494  0.3922 -0.1169  0.2869
 1623ntf    fn412193   2.181   5.913   3.545 -0.1320 -0.0853 -0.4698
 1623ntf    fn412194   2.367   6.020   3.560  0.0603  0.1595 -0.3627
 1623ntf    fn412195   2.211   6.069   3.682  0.5713 -0.1307 -0.0579
 1624ntf    cn112196   5.938   5.281   0.536  0.2464 -0.0274  0.0822
 1624ntf    sn212197   6.106   5.280   0.467  0.1392  0.1828 -0.1812
 1624ntf    nn312198   6.082   5.201   0.333 -0.3495  0.2896 -0.1592
 1624ntf    sn212199   6.083   5.045   0.312  0.5001  0.2705 -0.0433
 1624ntf    cn112200   6.242   5.013   0.232  0.5619  0.0644  0.1619
 1624ntf    fn412201   5.890   5.158   0.537  0.6026 -0.1685  0.2708
 1624ntf    fn412202   5.935   5.321   0.663  0.2757  0.0980  0.0437
 1624ntf    fn412203   5.859   5.364   0.469  0.1982 -0.0531  0.1076
 1624ntf    on512204   6.124   5.422   0.453  0.1801  0.1567 -0.4077
 1624ntf    on512205   6.198   5.219   0.559  0.1216  0.4175 -0.0068
 1624ntf    on512206   5.979   5.009   0.218 -0.5845  0.2320  1.1338
 1624ntf    on512207   6.086   4.958   0.427 -0.0485 -0.3325 -0.4762
 1624ntf    fn412208   6.262   5.093   0.129 -0.0383  0.0609  0.0416
 1624ntf    fn412209   6.344   5.029   0.315  0.4682  0.5725  0.1804
 1624ntf    fn412210   6.254   4.889   0.187  0.2945  0.1671 -0.1884
 1625ntf    cn112211   2.655   4.693   3.080 -0.2136  0.1656 -0.3437
 1625ntf    sn212212   2.536   4.810   3.153  0.1081  0.0340  0.3982
 1625ntf    nn312213   2.543   4.753   3.299  0.8175 -0.5273  0.1556
 1625ntf    sn212214   2.467   4.630   3.361 -0.0011 -0.0276  0.1555
 1625ntf    cn112215   2.347   4.708   3.474 -0.2144  0.4001 -0.3611
 1625ntf    fn412216   2.783   4.719   3.102 -0.1343 -0.6603  0.2425
 1625ntf    fn412217   2.637   4.567   3.117  0.2276  0.2105  0.0404
 1625ntf    fn412218   2.638   4.686   2.949 -0.2012  0.3033 -0.3526
 1625ntf    on512219   2.610   4.933   3.144 -0.0167  0.0627 -0.3152
 1625ntf    on512220   2.414   4.796   3.078  0.3880 -0.2411 -0.0137
 1625ntf    on512221   2.558   4.560   3.448  0.5284  0.0496 -0.3297
 1625ntf    on512222   2.391   4.549   3.269  0.2929  0.1036 -0.2080
 1625ntf    fn412223   2.273   4.800   3.414 -0.2661  0.6238  0.0428
 1625ntf    fn412224   2.275   4.623   3.546 -0.1990  0.1828 -0.5957
 1625ntf    fn412225   2.418   4.776   3.562 -0.4471  0.4898 -0.2418
 1626ntf    cn112226   6.710   0.385   4.111 -0.4250 -0.0650 -0.0031
 1626ntf    sn212227   6.676   0.470   4.268  0.0756 -0.0453  0.0949
 1626ntf    nn312228   6.729   0.613   4.231 -0.1165 -0.1167 -0.4592
 1626ntf    sn212229   6.637   0.729   4.180 -0.0488  0.1449  0.0120
 1626ntf    cn112230   6.756   0.865   4.191 -0.0067  0.1434 -0.4407
 1626ntf    fn412231   6.654   0.452   4.011 -0.1116 -0.3326 -0.3599
 1626ntf    fn412232   6.841   0.382   4.093 -0.4092  0.2818  0.0379
 1626ntf    fn412233   6.658   0.264   4.096 -0.5499 -0.0642  0.4059
 1626ntf    on512234   6.535   0.456   4.292  0.1284 -0.5816  0.1055
 1626ntf    on512235   6.765   0.396   4.355  0.1724  0.3214  0.3086
 1626ntf    on512236   6.540   0.773   4.278 -0.1646 -1.0597  0.4626
 1626ntf    on512237   6.586   0.717   4.046  0.0308 -0.0607 -0.0013
 1626ntf    fn412238   6.741   0.935   4.302  0.6624 -0.2079 -0.1251
 1626ntf    fn412239   6.880   0.819   4.200 -0.1848 -0.2620 -0.0712
 1626ntf    fn412240   6.759   0.965   4.104 -0.4401  0.7451  0.2243
 1627ntf    cn112241   3.516   3.423   1.661  0.2480  0.0894  0.6615
 1627ntf    sn212242   3.629   3.546   1.589  0.0073  0.0677  0.2400
 1627ntf    nn312243   3.740   3.552   1.701  0.1192  0.0932  0.1274
 1627ntf    sn212244   3.792   3.681   1.773 -0.2679  0.2268  0.1732
 1627ntf    cn112245   3.668   3.712   1.903 -0.2339  0.8188  0.0664
 1627ntf    fn412246   3.563   3.301   1.637  0.3850  0.1545  0.5959
 1627ntf    fn412247   3.489   3.437   1.789 -1.2425  0.0553  0.3617
 1627ntf    fn412248   3.395   3.422   1.609  0.3026 -0.0863  0.5344
 1627ntf    on512249   3.677   3.481   1.471 -0.1260  0.2693  0.0731
 1627ntf    on512250   3.551   3.666   1.572  0.1262  0.1120  0.0108
 1627ntf    on512251   3.780   3.794   1.685  0.4593  0.1465 -0.0332
 1627ntf    on512252   3.925   3.656   1.825 -0.1190  0.1169 -0.2609
 1627ntf    fn412253   3.652   3.612   1.987  0.4880 -0.0169 -0.7606
 1627ntf    fn412254   3.698   3.811   1.985 -0.0131  0.8062  0.0022
 1627ntf    fn412255   3.546   3.742   1.860 -0.1712  0.5352 -0.3219
 1628ntf    cn112256   3.433   0.841   1.995 -0.1924 -0.0163 -0.2015
 1628ntf    sn212257   3.436   0.802   2.173 -0.0259 -0.0032 -0.2016
 1628ntf    nn312258   3.413   0.647   2.182 -0.0407  0.0081 -0.0373
 1628ntf    sn212259   3.507   0.525   2.151 -0.0928 -0.0715  0.1168
 1628ntf    cn112260   3.550   0.475   2.320  0.1723 -0.0426  0.0585
 1628ntf    fn412261   3.545   0.803   1.936 -0.1030  0.2033 -0.1712
 1628ntf    fn412262   3.335   0.780   1.930 -0.0389 -0.1093 -0.3461
 1628ntf    fn412263   3.422   0.970   1.970  0.2728  0.1938  0.6274
 1628ntf    on512264   3.565   0.850   2.213 -0.0401 -0.0142 -0.1424
 1628ntf    on512265   3.322   0.875   2.224  0.2081  0.1766  0.0686
 1628ntf    on512266   3.639   0.556   2.101 -0.0496 -0.2824  0.1004
 1628ntf    on512267   3.443   0.410   2.091 -0.2458  0.2308 -0.3021
 1628ntf    fn412268   3.444   0.486   2.399 -0.1809 -0.6793 -0.3164
 1628ntf    fn412269   3.586   0.348   2.324  0.2380 -0.0520 -0.7462
 1628ntf    fn412270   3.646   0.543   2.379  0.0289  0.1456  0.0755
 1629ntf    cn112271   4.905   2.959   3.476 -0.4405  0.0839 -0.0120
 1629ntf    sn212272   4.932   3.138   3.465 -0.1170  0.0432  0.0800
 1629ntf    nn312273   5.083   3.140   3.424 -0.3048  0.6713 -0.6128
 1629ntf    sn212274   5.153   3.165   3.286  0.6185  0.0866 -0.2643
 1629ntf    cn112275   5.172   3.345   3.295 -0.0857  0.1489  0.0519
 1629ntf    fn412276   4.904   2.891   3.363 -0.2245  0.2188 -0.0961
 1629ntf    fn412277   4.990   2.897   3.557 -0.4604  0.0403 -0.0245
 1629ntf    fn412278   4.785   2.927   3.520 -0.4509 -0.1397 -0.1982
 1629ntf    on512279   4.836   3.187   3.369  0.1708  0.7536  0.1466
 1629ntf    on512280   4.924   3.178   3.603  0.4092 -0.1723  0.1731
 1629ntf    on512281   5.060   3.148   3.176  0.6883 -0.6063 -0.2184
 1629ntf    on512282   5.284   3.107   3.272  0.4107 -0.3842 -0.3063
 1629ntf    fn412283   5.055   3.404   3.316  0.1465  0.6518 -0.0617
 1629ntf    fn412284   5.252   3.392   3.390  0.3938 -0.1046 -0.2255
 1629ntf    fn412285   5.215   3.395   3.181  0.1296 -0.4907 -0.1492
 1630ntf    cn112286   4.845   6.338   2.985  0.2610 -0.1429  0.1576
 1630ntf    sn212287   5.024   6.364   2.971  0.2025  0.0005 -0.3705
 1630ntf    nn312288   5.065   6.364   3.123  0.1636 -0.2531 -0.3602
 1630ntf    sn212289   5.126   6.251   3.213 -0.2385 -0.1032  0.1059
 1630ntf    cn112290   5.296   6.315   3.223 -0.3026  0.0723  0.0748
 1630ntf    fn412291   4.783   6.338   2.867 -0.1381 -0.6870  0.3605
 1630ntf    fn412292   4.807   6.221   3.033  0.0494 -0.2443 -0.2439
 1630ntf    fn412293   4.784   6.434   3.052 -0.0765 -0.0998 -0.2020
 1630ntf    on512294   5.076   6.255   2.894  0.6022 -0.1138  0.0586
 1630ntf    on512295   5.039   6.493   2.908 -0.2341  0.2352 -0.0024
 1630ntf    on512296   5.130   6.118   3.158 -0.0057 -0.2674  0.5138
 1630ntf    on512297   5.089   6.263   3.352 -0.1606 -0.4609  0.1579
 1630ntf    fn412298   5.306   6.442   3.260 -0.0610  0.0189  0.1954
 1630ntf    fn412299   5.367   6.247   3.311 -0.3251 -0.1397 -0.0724
 1630ntf    fn412300   5.362   6.307   3.109 -0.2127  0.0481  0.1283
 1631ntf    cn112301   3.428   3.599   5.544 -0.1515  0.1685  0.4716
 1631ntf    sn212302   3.587   3.677   5.501 -0.1588 -0.0485  0.0493
 1631ntf    nn312303   3.618   3.750   5.636 -0.1465 -0.9062  0.5210
 1631ntf    sn212304   3.749   3.829   5.673 -0.3421 -0.3000 -0.0633
 1631ntf    cn112305   3.810   3.703   5.789  0.1049  0.1855  0.2341
 1631ntf    fn412306   3.398   3.494   5.470 -0.6103  0.3989  0.3307
 1631ntf    fn412307   3.427   3.548   5.666 -0.3098 -0.0019  0.3995
 1631ntf    fn412308   3.329   3.687   5.536 -0.3388 -0.0945 -0.1118
 1631ntf    on512309   3.665   3.559   5.474 -0.4971 -0.1762 -0.3827
 1631ntf    on512310   3.553   3.764   5.392 -0.0268 -0.2693 -0.1676
 1631ntf    on512311   3.722   3.941   5.761  0.8487  0.1550 -0.2571
 1631ntf    on512312   3.856   3.825   5.576 -0.2001 -0.2842  0.0924
 1631ntf    fn412313   3.847   3.596   5.722  0.1307  0.1303  0.3374
 1631ntf    fn412314   3.916   3.739   5.859 -0.0400  0.1776  0.4608
 1631ntf    fn412315   3.722   3.663   5.880  0.1505  0.0605  0.2228
 1632ntf    cn112316   6.554   6.142   3.820  0.0037  0.0570  0.3352
 1632ntf    sn212317   6.530   5.995   3.715 -0.0477  0.0779  0.3176
 1632ntf    nn312318   6.669   5.989   3.643 -0.2647  0.7587 -0.1684
 1632ntf    sn212319   6.717   5.992   3.493 -0.0539 -0.1414 -0.1276
 1632ntf    cn112320   6.764   5.818   3.470  0.0218 -0.0967 -0.3094
 1632ntf    fn412321   6.444   6.192   3.872 -0.0068  0.0066  0.3608
 1632ntf    fn412322   6.640   6.120   3.918  0.1238  0.4293  0.3124
 1632ntf    fn412323   6.605   6.244   3.753 -0.5717  0.3063  0.2701
 1632ntf    on512324   6.519   5.895   3.818  0.3398 -0.2451  0.0467
 1632ntf    on512325   6.418   6.028   3.630  0.0098 -0.1600  0.1476
 1632ntf    on512326   6.835   6.073   3.470 -0.1570  0.0573  0.0324
 1632ntf    on512327   6.610   6.006   3.398 -0.6527 -0.1081  0.5466
 1632ntf    fn412328   6.673   5.730   3.506 -0.1298  0.2845  0.2747
 1632ntf    fn412329   6.798   5.804   3.343  0.3664  0.1150 -0.2439
 1632ntf    fn412330   6.867   5.796   3.551 -0.1661  0.4611  0.0891
 1633ntf    cn112331   4.765   6.611   6.330  0.0788  0.0312  0.1854
 1633ntf    sn212332   4.739   6.777   6.260  0.0524  0.0864  0.3268
 1633ntf    nn312333   4.694   6.757   6.111 -0.4115 -0.4529  0.5353
 1633ntf    sn212334   4.555   6.753   6.038 -0.2182  0.1866  0.1305
 1633ntf    cn112335   4.546   6.921   5.969 -0.2812 -0.0486 -0.4356
 1633ntf    fn412336   4.834   6.619   6.442  0.5043  0.1493 -0.0815
 1633ntf    fn412337   4.653   6.547   6.359 -0.0008  0.3040  0.4870
 1633ntf    fn412338   4.833   6.531   6.249  0.2350 -0.0891  0.4325
 1633ntf    on512339   4.637   6.840   6.339 -0.1843  0.5365 -0.3346
 1633ntf    on512340   4.870   6.837   6.263  0.0838  0.0733 -0.4875
 1633ntf    on512341   4.437   6.734   6.119 -0.1049 -0.8017  0.0710
 1633ntf    on512342   4.560   6.668   5.921 -0.1291  0.2276  0.1048
 1633ntf    fn412343   4.562   7.017   6.058 -0.5939 -0.3154 -0.0914
 1633ntf    fn412344   4.625   6.945   5.865  0.3650 -0.7103 -0.1025
 1633ntf    fn412345   4.424   6.935   5.918 -0.4247 -0.0808 -0.1021
 1634ntf    cn112346   0.802   5.949   0.861  0.4971 -0.1451  0.0754
 1634ntf    sn212347   0.805   6.031   0.699 -0.1368  0.0899  0.1803
 1634ntf    nn312348   0.924   6.132   0.713 -0.0704  0.0305  0.0411
 1634ntf    sn212349   1.078   6.113   0.686 -0.0615 -0.3162  0.3254
 1634ntf    cn112350   1.138   6.218   0.822 -0.1016  0.2952 -0.1252
 1634ntf    fn412351   0.910   5.881   0.897  0.8501  0.4146  0.0874
 1634ntf    fn412352   0.774   6.028   0.963  0.3123  0.2128 -0.2506
 1634ntf    fn412353   0.707   5.858   0.877  0.1672  0.1508 -0.1824
 1634ntf    on512354   0.819   5.921   0.608 -0.0250  0.3774 -0.1536
 1634ntf    on512355   0.678   6.099   0.707 -0.0832  0.2052  0.0562
 1634ntf    on512356   1.113   6.185   0.566 -0.2823 -0.6612  0.0518
 1634ntf    on512357   1.134   5.982   0.703  0.2575 -0.2197  0.0209
 1634ntf    fn412358   1.059   6.321   0.847  0.0603  0.4309 -0.1730
 1634ntf    fn412359   1.154   6.161   0.940  0.5557  0.3174 -0.1991
 1634ntf    fn412360   1.261   6.263   0.800  0.1765  0.1360  1.0488
 1635ntf    cn112361   5.564   5.669   4.738 -0.1731  0.0365 -0.5043
 1635ntf    sn212362   5.584   5.699   4.560  0.2572 -0.2408 -0.5024
 1635ntf    nn312363   5.662   5.835   4.568  0.0877 -0.1813  0.1984
 1635ntf    sn212364   5.602   5.980   4.564  0.3040 -0.1010 -0.1465
 1635ntf    cn112365   5.714   6.064   4.448  0.2313  0.0169 -0.1325
 1635ntf    fn412366   5.484   5.758   4.795  0.1781  0.1621 -0.2041
 1635ntf    fn412367   5.507   5.551   4.755 -0.4002  0.2751  0.4483
 1635ntf    fn412368   5.679   5.670   4.803 -0.4547  0.3340  0.0014
 1635ntf    on512369   5.677   5.591   4.536  0.8207  0.1799 -0.2365
 1635ntf    on512370   5.453   5.689   4.500  0.0309 -0.5820  0.0409
 1635ntf    on512371   5.618   6.058   4.685 -0.3975 -0.3167  0.0911
 1635ntf    on512372   5.478   6.004   4.494 -0.0814 -0.1750  0.4991
 1635ntf    fn412373   5.821   6.110   4.509 -0.0157  0.2046  0.1596
 1635ntf    fn412374   5.746   5.983   4.348  0.1401 -0.3544  0.1376
 1635ntf    fn412375   5.655   6.167   4.388 -0.3970 -0.0932  0.2906
 1636ntf    cn112376   0.298   2.531   4.014  0.3520  0.2265 -0.0881
 1636ntf    sn212377   0.289   2.526   3.833  0.0452  0.0211 -0.0674
 1636ntf    nn312378   0.194   2.647   3.802  0.5610  0.3797 -0.2827
 1636ntf    sn212379   0.166   2.731   3.672 -0.1364 -0.1056 -0.4531
 1636ntf    cn112380   0.060   2.622   3.572 -0.0010 -0.5009 -0.1693
 1636ntf    fn412381   0.183   2.509   4.076  0.3218 -0.1088 -0.2647
 1636ntf    fn412382   0.375   2.432   4.056  0.0613  0.3761  0.8246
 1636ntf    fn412383   0.349   2.641   4.068  0.2978  0.3500 -0.2886
 1636ntf    on512384   0.425   2.539   3.784 -0.0606  0.5120 -0.2436
 1636ntf    on512385   0.221   2.402   3.808  0.0301  0.0557 -0.1999
 1636ntf    on512386   0.278   2.755   3.585  0.0843  0.1736 -0.0953
 1636ntf    on512387   0.077   2.840   3.702 -0.3471 -0.4826  0.3438
 1636ntf    fn412388   0.008   2.686   3.469  0.2061 -0.2765 -0.1353
 1636ntf    fn412389   0.136   2.527   3.520  0.5898 -0.1028 -0.0385
 1636ntf    fn412390  -0.033   2.559   3.642 -0.1237  0.1478  0.2643
 1637ntf    cn112391   2.671   2.360   5.656  0.0229 -0.1216 -0.6447
 1637ntf    sn212392   2.521   2.263   5.692 -0.0361  0.0701 -0.3694
 1637ntf    nn312393   2.581   2.150   5.783  0.3693  0.6990  0.1535
 1637ntf    sn212394   2.620   2.002   5.749 -0.6462  0.3659  0.3793
 1637ntf    cn112395   2.464   1.913   5.776 -0.1893 -0.4721  0.2753
 1637ntf    fn412396   2.646   2.450   5.562 -0.3682  0.1048 -0.3268
 1637ntf    fn412397   2.717   2.428   5.759  0.1803 -0.8964 -0.1955
 1637ntf    fn412398   2.762   2.277   5.609  0.2196 -0.1550 -0.2132
 1637ntf    on512399   2.443   2.356   5.769  0.3090  0.1241 -0.0801
 1637ntf    on512400   2.469   2.223   5.563 -0.3767 -0.2901 -0.1232
 1637ntf    on512401   2.712   1.953   5.849 -0.0277  0.1187 -0.3037
 1637ntf    on512402   2.655   1.963   5.615  0.1217 -0.0256  0.6869
 1637ntf    fn412403   2.454   1.862   5.898 -0.1163 -0.8234  0.1371
 1637ntf    fn412404   2.353   1.981   5.755 -0.3192 -0.9597 -0.6622
 1637ntf    fn412405   2.447   1.806   5.700 -0.0112 -0.5261  0.3103
 1638ntf    cn112406   4.688   3.794   6.180 -0.0203 -0.1101  0.1507
 1638ntf    sn212407   4.520   3.755   6.237  0.0014 -0.5080 -0.0546
 1638ntf    nn312408   4.475   3.883   6.315  0.5126 -0.2475 -0.1828
 1638ntf    sn212409   4.435   4.028   6.269  0.5415 -0.2300 -0.1533
 1638ntf    cn112410   4.260   4.017   6.315  0.4758  0.2443 -0.2770
 1638ntf    fn412411   4.783   3.815   6.269  0.4094 -0.2436 -0.2726
 1638ntf    fn412412   4.739   3.710   6.092  0.1261  0.3407 -0.2018
 1638ntf    fn412413   4.680   3.907   6.111  0.0538 -0.3760 -0.3048
 1638ntf    on512414   4.448   3.743   6.113 -0.1643 -0.3631  0.0280
 1638ntf    on512415   4.542   3.633   6.312 -0.3103 -0.3878  0.2330
 1638ntf    on512416   4.427   4.054   6.127  0.0456  0.0616 -0.0737
 1638ntf    on512417   4.486   4.135   6.351 -0.6278  0.4093 -0.2450
 1638ntf    fn412418   4.189   4.127   6.296  0.4899  0.2892 -0.0643
 1638ntf    fn412419   4.202   3.922   6.243  0.4192 -0.2161  0.3722
 1638ntf    fn412420   4.254   3.977   6.441 -0.3459 -0.2332 -0.4551
 1639ntf    cn112421   0.871   4.453   2.082 -0.1098  0.2478  0.0265
 1639ntf    sn212422   0.854   4.408   2.257 -0.0571  0.0919 -0.0081
 1639ntf    nn312423   1.006   4.417   2.299 -0.1795 -0.1657  0.4966
 1639ntf    sn212424   1.111   4.300   2.300  0.3124  0.2625 -0.2789
 1639ntf    cn112425   1.215   4.382   2.425  0.2302 -0.1103  0.0364
 1639ntf    fn412426   0.762   4.434   2.009 -0.3685  0.1359  0.4404
 1639ntf    fn412427   0.891   4.583   2.066 -0.3231  0.2318 -0.3993
 1639ntf    fn412428   0.978   4.394   2.030 -0.2638 -0.2773  0.2966
 1639ntf    on512429   0.774   4.511   2.318  0.4248  0.3904  0.1328
 1639ntf    on512430   0.790   4.279   2.256 -0.0958  0.1090  0.1893
 1639ntf    on512431   1.188   4.289   2.179  0.7766  0.4099  0.0015
 1639ntf    on512432   1.065   4.175   2.356  0.1497  0.4242 -0.0494
 1639ntf    fn412433   1.303   4.306   2.487  0.4882  0.1215 -0.0445
 1639ntf    fn412434   1.288   4.479   2.373 -0.4009  0.2610 -0.1749
 1639ntf    fn412435   1.135   4.436   2.516 -0.1316 -0.3609 -0.1286
 1640ntf    cn112436   6.064   0.190   0.925 -0.3271 -0.0107 -0.3621
 1640ntf    sn212437   6.013   0.197   0.751 -0.5925  0.0277 -0.2830
 1640ntf    nn312438   5.867   0.143   0.773 -0.4947 -0.2480 -0.3201
 1640ntf    sn212439   5.731   0.219   0.784 -0.1987  0.2126  0.2074
 1640ntf    cn112440   5.675   0.180   0.953 -0.2660 -0.1470  0.1013
 1640ntf    fn412441   6.098   0.070   0.968 -0.3781 -0.1116 -0.6075
 1640ntf    fn412442   6.165   0.272   0.950 -0.1647 -0.3336  0.0422
 1640ntf    fn412443   5.976   0.237   1.012 -0.1337  0.2438 -0.3002
 1640ntf    on512444   6.013   0.334   0.704  0.5025  0.0345 -0.2912
 1640ntf    on512445   6.095   0.102   0.680 -0.2191  0.4295 -0.3925
 1640ntf    on512446   5.628   0.174   0.694 -0.6324  0.2870  0.6598
 1640ntf    on512447   5.749   0.362   0.780  0.5097  0.1322  0.4213
 1640ntf    fn412448   5.543   0.181   0.961 -0.2844  0.3460 -0.2436
 1640ntf    fn412449   5.706   0.056   0.986  0.5382  0.0687  0.1715
 1640ntf    fn412450   5.728   0.260   1.044  0.1611 -0.6263  0.2793
 1641ntf    cn112451   0.537   3.097   2.594 -0.2154 -0.3384 -0.1456
 1641ntf    sn212452   0.609   3.249   2.525 -0.1773 -0.3581 -0.1487
 1641ntf    nn312453   0.492   3.292   2.429  0.1419 -0.2200 -0.4799
 1641ntf    sn212454   0.357   3.365   2.460  0.1312 -0.3213 -0.2858
 1641ntf    cn112455   0.400   3.537   2.419 -0.1739 -0.2506 -0.3146
 1641ntf    fn412456   0.426   3.117   2.662 -0.1444  0.0984 -0.1569
 1641ntf    fn412457   0.510   3.001   2.507 -0.2137 -0.3070 -0.1807
 1641ntf    fn412458   0.613   3.039   2.685  0.0769 -0.0546 -0.2064
 1641ntf    on512459   0.627   3.349   2.626  0.0892 -0.0381 -0.5102
 1641ntf    on512460   0.730   3.209   2.457  0.1105 -0.1794  0.2512
 1641ntf    on512461   0.323   3.374   2.600  0.2812 -0.2379 -0.2547
 1641ntf    on512462   0.259   3.342   2.356 -0.0824 -1.0739  0.0729
 1641ntf    fn412463   0.505   3.541   2.338  0.0728  0.1125  0.0194
 1641ntf    fn412464   0.301   3.605   2.362 -0.4466 -0.1889  0.2259
 1641ntf    fn412465   0.430   3.604   2.529  0.6762 -0.8145 -0.1969
 1642ntf    cn112466   3.104   4.020   0.364 -0.0735  0.1713 -0.0636
 1642ntf    sn212467   2.992   4.163   0.372 -0.2411  0.0469 -0.1901
 1642ntf    nn312468   2.855   4.107   0.320 -0.6529  0.6667  0.2082
 1642ntf    sn212469   2.753   4.014   0.395 -0.1169  0.0053  0.1251
 1642ntf    cn112470   2.640   4.137   0.467 -0.2324 -0.2013  0.2987
 1642ntf    fn412471   3.218   4.062   0.416 -0.0371  0.1408 -0.1200
 1642ntf    fn412472   3.068   3.921   0.445  0.4239  0.1266  0.1042
 1642ntf    fn412473   3.106   3.973   0.241 -0.2426 -0.1154  0.0406
 1642ntf    on512474   2.997   4.203   0.511  0.3625 -0.5080 -0.0519
 1642ntf    on512475   3.041   4.249   0.267 -0.4022  0.9563  0.4595
 1642ntf    on512476   2.806   3.928   0.498 -0.3044 -0.0238  0.1987
 1642ntf    on512477   2.679   3.948   0.290  0.0629  0.2267 -0.1419
 1642ntf    fn412478   2.544   4.077   0.534 -0.4509 -0.3356 -0.1358
 1642ntf    fn412479   2.711   4.215   0.548  0.0807 -0.2694  0.0928
 1642ntf    fn412480   2.578   4.223   0.387  0.0697  0.1177  0.4027
 1643ntf    cn112481   2.633   5.395   2.484  0.5136  0.2321  0.3505
 1643ntf    sn212482   2.505   5.329   2.596  0.1231 -0.1898 -0.3311
 1643ntf    nn312483   2.611   5.273   2.697  0.0977  0.2272 -0.0694
 1643ntf    sn212484   2.577   5.188   2.825  0.5830  0.2783  0.0970
 1643ntf    cn112485   2.564   5.323   2.947 -0.0379  0.3788 -0.0773
 1643ntf    fn412486   2.724   5.303   2.459  0.3751 -0.0005  0.6843
 1643ntf    fn412487   2.592   5.439   2.366  0.4274  0.2697  0.3944
 1643ntf    fn412488   2.696   5.495   2.542 -0.0666  0.6816  0.2127
 1643ntf    on512489   2.439   5.451   2.636 -0.0573 -0.2273 -0.5180
 1643ntf    on512490   2.439   5.227   2.519 -0.2970 -0.2038  0.0400
 1643ntf    on512491   2.691   5.113   2.870  0.6161 -0.1259 -0.6433
 1643ntf    on512492   2.453   5.116   2.830  0.5252  0.3706  0.0176
 1643ntf    fn412493   2.555   5.280   3.072  0.4624  0.0016 -0.1679
 1643ntf    fn412494   2.671   5.400   2.936 -0.0342  0.4781  0.5841
 1643ntf    fn412495   2.462   5.400   2.912 -0.3180  0.2886  0.5319
 1644ntf    cn112496   3.514   3.819   6.585  0.0278 -0.2112  0.5332
 1644ntf    sn212497   3.630   3.731   6.693  0.2942 -0.3581  0.1286
 1644ntf    nn312498   3.770   3.780   6.642  0.0272 -0.0296 -0.2859
 1644ntf    sn212499   3.860   3.894   6.701 -0.3047 -0.0017  0.1677
 1644ntf    cn112500   3.949   3.942   6.550 -0.1663 -0.0846  0.2237
 1644ntf    fn412501   3.388   3.782   6.602 -0.1116 -0.1797 -0.4073
 1644ntf    fn412502   3.516   3.951   6.599  0.9893 -0.1939  0.2639
 1644ntf    fn412503   3.532   3.802   6.455 -0.2404  0.8897  0.3412
 1644ntf    on512504   3.588   3.778   6.823 -0.6305 -0.7261 -0.0308
 1644ntf    on512505   3.600   3.595   6.654  0.3394 -0.2320 -0.3414
 1644ntf    on512506   3.965   3.854   6.791 -0.1598  0.2601  0.1149
 1644ntf    on512507   3.796   4.016   6.742 -0.6427 -0.0117 -0.3313
 1644ntf    fn412508   4.039   3.854   6.510 -0.0514  0.1372 -0.0051
 1644ntf    fn412509   3.866   3.955   6.448  0.0700  0.1980  0.0656
 1644ntf    fn412510   4.008   4.060   6.556  0.6060 -0.4379 -0.3100
 1645ntf    cn112511   2.675   4.994   2.311  0.1670  0.1387  0.1471
 1645ntf    sn212512   2.802   4.930   2.197  0.0290 -0.2292  0.1988
 1645ntf    nn312513   2.715   4.888   2.073 -0.1449 -0.1928  0.3080
 1645ntf    sn212514   2.703   4.938   1.925  0.1457 -0.2054  0.2791
 1645ntf    cn112515   2.538   4.870   1.887 -0.0069  0.3636 -0.0874
 1645ntf    fn412516   2.715   4.976   2.436 -0.0967 -0.3419  0.1645
 1645ntf    fn412517   2.644   5.119   2.282 -0.6195 -0.2199 -0.5960
 1645ntf    fn412518   2.567   4.923   2.281  0.1304  0.2099  0.1087
 1645ntf    on512519   2.889   5.043   2.177 -0.3675  0.0635  0.0943
 1645ntf    on512520   2.843   4.815   2.274  0.6239  0.1635  0.4695
 1645ntf    on512521   2.780   4.871   1.823  0.8651  0.1944  0.5537
 1645ntf    on512522   2.677   5.079   1.907  0.3012 -0.1263  0.6612
 1645ntf    fn412523   2.518   4.861   1.757  0.1650 -0.6163 -0.0505
 1645ntf    fn412524   2.529   4.746   1.932  0.2366  0.3058 -0.1976
 1645ntf    fn412525   2.439   4.938   1.943 -0.1298  0.3334 -0.2675
 1646ntf    cn112526   6.637   4.403   1.681 -0.2737 -0.0651 -0.1131
 1646ntf    sn212527   6.786   4.354   1.772 -0.2003  0.4933  0.0749
 1646ntf    nn312528   6.764   4.420   1.913 -0.1638 -0.2570  0.4422
 1646ntf    sn212529   6.852   4.522   1.993 -0.0801 -0.0955  0.1461
 1646ntf    cn112530   6.767   4.682   1.976  0.1519  0.0207  0.0718
 1646ntf    fn412531   6.530   4.361   1.746 -0.1268 -0.3983 -0.0860
 1646ntf    fn412532   6.625   4.533   1.659 -0.3015 -0.1682 -0.7369
 1646ntf    fn412533   6.629   4.357   1.557  0.0851 -0.2278 -0.0763
 1646ntf    on512534   6.766   4.211   1.786 -0.6864  0.5165 -0.3713
 1646ntf    on512535   6.891   4.406   1.689 -0.2385 -0.0340 -0.3096
 1646ntf    on512536   6.986   4.546   1.948  0.1230 -0.4609  0.5488
 1646ntf    on512537   6.836   4.496   2.134  0.3841  0.0740  0.2314
 1646ntf    fn412538   6.797   4.757   2.081  0.5945  0.3277 -0.2709
 1646ntf    fn412539   6.798   4.739   1.861  0.0146  0.2151  0.1295
 1646ntf    fn412540   6.635   4.677   1.984  0.0994  0.6501 -0.3334
 1647ntf    cn112541   6.026   1.269   3.975 -0.0557  0.2475  0.0768
 1647ntf    sn212542   6.030   1.395   4.107 -0.1481  0.2893  0.0399
 1647ntf    nn312543   6.121   1.321   4.211  0.0912  0.1277 -0.2823
 1647ntf    sn212544   6.086   1.242   4.343  0.1484  0.1171 -0.2735
 1647ntf    cn112545   6.081   1.362   4.480 -0.1484 -0.1746 -0.0291
 1647ntf    fn412546   5.973   1.153   4.013  0.2079  0.1617  0.1818
 1647ntf    fn412547   5.952   1.297   3.869  0.0014  0.3022  0.0515
 1647ntf    fn412548   6.146   1.247   3.926  0.0621 -0.0024  0.4756
 1647ntf    on512549   6.102   1.506   4.050 -0.0849  0.0626 -0.3241
 1647ntf    on512550   5.891   1.413   4.142 -0.1426 -0.4425  0.4704
 1647ntf    on512551   6.193   1.154   4.383  0.1485  0.0304 -0.4604
 1647ntf    on512552   5.957   1.180   4.355  0.3061 -0.1058  0.2418
 1647ntf    fn412553   6.017   1.472   4.445  0.1623  0.1405  0.3798
 1647ntf    fn412554   6.028   1.317   4.593 -0.3886  0.2655  0.0335
 1647ntf    fn412555   6.205   1.392   4.516 -0.0235 -0.0328 -0.5669
 1648ntf    cn112556   6.222   5.354   4.068  0.2691 -0.2017  0.2551
 1648ntf    sn212557   6.318   5.320   3.917  0.0941  0.1413  0.0667
 1648ntf    nn312558   6.406   5.195   3.952 -0.3569  0.0229  0.7983
 1648ntf    sn212559   6.550   5.190   4.012  0.0327 -0.1837 -0.1370
 1648ntf    cn112560   6.546   5.039   4.113  0.2886  0.2711  0.5641
 1648ntf    fn412561   6.167   5.474   4.062  0.4779 -0.1180 -0.0260
 1648ntf    fn412562   6.123   5.266   4.075  0.6785 -0.7397 -0.5254
 1648ntf    fn412563   6.299   5.347   4.175  0.5034 -0.3772  0.0783
 1648ntf    on512564   6.217   5.288   3.819  0.1228  0.1633  0.0301
 1648ntf    on512565   6.392   5.443   3.900  0.0015  0.1904  0.0123
 1648ntf    on512566   6.577   5.295   4.107 -0.0578 -0.4395  0.1717
 1648ntf    on512567   6.656   5.161   3.918 -0.4641 -0.8569 -0.5037
 1648ntf    fn412568   6.491   4.938   4.048  0.6285  0.3484  0.1496
 1648ntf    fn412569   6.665   4.994   4.149  0.2356 -0.2127  0.1622
 1648ntf    fn412570   6.467   5.061   4.216  0.1248  0.0171  0.4936
 1649ntf    cn112571   1.858   0.378   2.419 -0.1157  0.0251  0.0872
 1649ntf    sn212572   1.884   0.555   2.385  0.2430 -0.0664 -0.1295
 1649ntf    nn312573   1.737   0.589   2.341  0.0217 -0.0874  0.5695
 1649ntf    sn212574   1.650   0.719   2.356  0.2228  0.1277 -0.0834
 1649ntf    cn112575   1.529   0.645   2.468  0.2872 -0.3337 -0.3157
 1649ntf    fn412576   1.765   0.361   2.511 -0.3514  0.2062 -0.1155
 1649ntf    fn412577   1.822   0.311   2.311  0.6758  0.1000 -0.2337
 1649ntf    fn412578   1.968   0.318   2.462 -0.1756  0.2644  0.5805
 1649ntf    on512579   1.925   0.606   2.514 -0.7802  0.3787  0.0316
 1649ntf    on512580   1.975   0.557   2.273 -0.0198 -0.0073 -0.3430
 1649ntf    on512581   1.574   0.744   2.236  0.3304 -0.0065 -0.1793
 1649ntf    on512582   1.717   0.828   2.424  0.2856  0.0292  0.0127
 1649ntf    fn412583   1.558   0.680   2.592  0.0186  0.3246 -0.4344
 1649ntf    fn412584   1.404   0.686   2.449  0.4243  0.3443  0.2299
 1649ntf    fn412585   1.526   0.513   2.463  0.3889 -0.3764  0.5060
 1650ntf    cn112586   0.706   1.696   0.301  0.0443  0.0126  0.2344
 1650ntf    sn212587   0.862   1.648   0.221  0.1558  0.3075  0.2752
 1650ntf    nn312588   0.875   1.499   0.269 -0.1995  0.1359 -0.1656
 1650ntf    sn212589   0.946   1.457   0.402 -0.2302 -0.2192 -0.2607
 1650ntf    cn112590   1.113   1.412   0.344 -0.0542 -0.0820  0.1381
 1650ntf    fn412591   0.651   1.800   0.241  0.4842  0.0134 -0.1637
 1650ntf    fn412592   0.621   1.594   0.302 -0.0992  0.1295  0.1332
 1650ntf    fn412593   0.730   1.736   0.425  0.2292  0.1936  0.1396
 1650ntf    on512594   0.829   1.664   0.082  0.6940 -0.2694  0.0780
 1650ntf    on512595   0.963   1.740   0.268  0.5324  0.1628 -0.2416
 1650ntf    on512596   0.895   1.335   0.458  0.2334 -0.1322  0.3649
 1650ntf    on512597   0.960   1.564   0.497  0.2635 -0.2687 -0.2720
 1650ntf    fn412598   1.175   1.337   0.434 -0.3227 -0.4559  0.0131
 1650ntf    fn412599   1.120   1.349   0.228 -0.3048  0.2277 -0.0449
 1650ntf    fn412600   1.192   1.515   0.320 -0.1241 -0.0944 -0.1492
 1651ntf    cn112601   0.225   4.039   6.567 -0.0115  0.0650 -0.3363
 1651ntf    sn212602   0.289   4.196   6.632  0.0188 -0.0000 -0.2081
 1651ntf    nn312603   0.420   4.137   6.696 -0.3236 -0.3959  0.1305
 1651ntf    sn212604   0.492   4.192   6.824 -0.4247 -0.1853  0.0988
 1651ntf    cn112605   0.660   4.205   6.757 -0.5866  0.1871 -0.2366
 1651ntf    fn412606   0.321   3.969   6.509 -0.1620 -0.0674 -0.4270
 1651ntf    fn412607   0.177   3.968   6.667  0.2819  0.3552  0.0135
 1651ntf    fn412608   0.124   4.061   6.484 -0.3385 -0.8299 -0.1832
 1651ntf    on512609   0.316   4.269   6.510 -0.3946  0.6430  0.0801
 1651ntf    on512610   0.183   4.242   6.718  0.3724 -0.4438  0.4678
 1651ntf    on512611   0.509   4.105   6.938  0.2391  0.3555  0.4245
 1651ntf    on512612   0.476   4.332   6.854 -0.7832 -0.0845 -0.5555
 1651ntf    fn412613   0.724   4.091   6.732 -0.5469  0.0007  0.6877
 1651ntf    fn412614   0.647   4.264   6.639  0.0366 -0.5854 -0.7083
 1651ntf    fn412615   0.743   4.275   6.832  0.1172 -0.4160 -0.4313
 1652ntf    cn112616   2.265   2.469   0.829  0.1035  0.0468  0.1774
 1652ntf    sn212617   2.328   2.469   0.659  0.0577  0.3538  0.1599
 1652ntf    nn312618   2.203   2.503   0.570  0.2240  0.4371 -0.0439
 1652ntf    sn212619   2.185   2.443   0.427  0.0120  0.0537  0.1417
 1652ntf    cn112620   2.292   2.553   0.329  0.3873 -0.1977  0.2682
 1652ntf    fn412621   2.150   2.406   0.849 -0.2059  0.4565 -0.3126
 1652ntf    fn412622   2.352   2.416   0.913  0.0965 -0.3778 -0.0793
 1652ntf    fn412623   2.244   2.591   0.875 -0.9615 -0.0695  0.0184
 1652ntf    on512624   2.437   2.564   0.655  0.4325 -0.0843 -0.1810
 1652ntf    on512625   2.370   2.331   0.646 -0.4488  0.2416 -0.3180
 1652ntf    on512626   2.058   2.479   0.368 -0.1565  0.2417  0.6178
 1652ntf    on512627   2.231   2.310   0.393  0.3979  0.1621  0.2350
 1652ntf    fn412628   2.297   2.509   0.204 -0.1433 -0.0735  0.2005
 1652ntf    fn412629   2.251   2.678   0.317  0.3482 -0.2712 -0.4241
 1652ntf    fn412630   2.416   2.557   0.373  0.3376 -0.4917  0.4364
 1653ntf    cn112631   2.329   3.511   4.709  0.2185 -0.2444  0.1503
 1653ntf    sn212632   2.215   3.541   4.846  0.2085  0.0301  0.0815
 1653ntf    nn312633   2.286   3.671   4.899 -0.5692  0.5197 -0.0501
 1653ntf    sn212634   2.336   3.689   5.047  0.0505  0.1412 -0.2076
 1653ntf    cn112635   2.510   3.638   5.039  0.0600  0.1609 -0.1140
 1653ntf    fn412636   2.311   3.595   4.608  0.2562 -0.7733 -0.3038
 1653ntf    fn412637   2.456   3.515   4.745  0.2550  0.0666 -0.0113
 1653ntf    fn412638   2.313   3.384   4.672 -0.7301  0.0164 -0.3658
 1653ntf    on512639   2.086   3.564   4.786 -0.0821  0.5524  0.8857
 1653ntf    on512640   2.232   3.424   4.928  0.1230 -0.3384 -0.4218
 1653ntf    on512641   2.287   3.600   5.150 -0.0944 -0.1617 -0.5346
 1653ntf    on512642   2.347   3.827   5.085  0.0655  0.0057  0.2906
 1653ntf    fn412643   2.588   3.725   4.977 -0.3778  0.2297 -0.5705
 1653ntf    fn412644   2.561   3.618   5.160 -0.4093 -0.1367  0.0387
 1653ntf    fn412645   2.527   3.525   4.973 -0.1419  0.0056  0.0972
 1654ntf    cn112646   0.058   6.731   1.042  0.1924 -0.1912 -0.1180
 1654ntf    sn212647   0.145   6.822   1.173 -0.1151  0.2063 -0.1858
 1654ntf    nn312648   0.250   6.718   1.228  0.3341  0.6228 -0.2456
 1654ntf    sn212649   0.392   6.697   1.165  0.3317 -0.1966  0.0133
 1654ntf    cn112650   0.489   6.803   1.276 -0.1740  0.1961  0.0838
 1654ntf    fn412651   0.144   6.680   0.955 -0.0727  0.1114 -0.5600
 1654ntf    fn412652   0.001   6.622   1.091  0.6422 -0.6289 -0.5512
 1654ntf    fn412653  -0.038   6.801   0.984  0.0281 -0.2346  0.1029
 1654ntf    on512654   0.204   6.938   1.112 -0.1145  0.0464 -0.4917
 1654ntf    on512655   0.038   6.844   1.267 -0.3419 -0.1703 -0.3525
 1654ntf    on512656   0.417   6.745   1.031  0.1204  0.2773  0.1412
 1654ntf    on512657   0.431   6.561   1.195  0.2637 -0.0964  0.5660
 1654ntf    fn412658   0.479   6.756   1.399 -0.6566  0.1865  0.0423
 1654ntf    fn412659   0.619   6.796   1.253 -0.3330  0.1461 -0.8356
 1654ntf    fn412660   0.475   6.934   1.268  0.7169  0.3094  0.2951
 1655ntf    cn112661   3.838   0.247   5.268 -0.3545 -0.1046  0.3453
 1655ntf    sn212662   3.942   0.256   5.120 -0.6694 -0.0965  0.1237
 1655ntf    nn312663   3.927   0.114   5.055 -0.1246 -0.3830  0.6162
 1655ntf    sn212664   3.825   0.066   4.945  0.0848  0.3847  0.0801
 1655ntf    cn112665   3.795  -0.104   5.002 -0.1941  0.2732 -0.4027
 1655ntf    fn412666   3.711   0.221   5.240 -0.1228 -0.2758 -0.5620
 1655ntf    fn412667   3.869   0.147   5.349 -0.1925 -0.3394 -0.0044
 1655ntf    fn412668   3.834   0.354   5.346  0.3794  0.4285 -0.3413
 1655ntf    on512669   3.889   0.372   5.051 -0.1649 -0.1104 -0.2938
 1655ntf    on512670   4.079   0.261   5.164 -0.4154 -0.2442 -0.6249
 1655ntf    on512671   3.878   0.044   4.813 -0.5643  0.2972 -0.1696
 1655ntf    on512672   3.696   0.130   4.957 -0.1402  0.0434 -0.4730
 1655ntf    fn412673   3.736  -0.112   5.120  0.2464 -0.1945 -0.2159
 1655ntf    fn412674   3.713  -0.174   4.924  0.0957 -0.1450 -0.3329
 1655ntf    fn412675   3.910  -0.168   4.999 -0.1613  0.2948  0.3273
 1656ntf    cn112676   4.225   2.681   0.157 -0.4647  0.5295 -0.2322
 1656ntf    sn212677   4.117   2.669   0.011 -0.2143 -0.1312 -0.3651
 1656ntf    nn312678   3.975   2.708   0.065  0.0522  0.0309  0.2282
 1656ntf    sn212679   3.879   2.821   0.013  0.1108 -0.0467 -0.0480
 1656ntf    cn112680   3.800   2.879   0.166  0.2684 -0.1148  0.0588
 1656ntf    fn412681   4.176   2.615   0.261  0.0180  0.6783  0.0945
 1656ntf    fn412682   4.350   2.647   0.133 -0.3643  0.8316 -0.1423
 1656ntf    fn412683   4.237   2.808   0.192  0.2313  0.3690  0.1321
 1656ntf    on512684   4.176   2.753  -0.090  0.1761  0.2558  0.1797
 1656ntf    on512685   4.124   2.528  -0.019  0.9043 -0.0998 -0.2884
 1656ntf    on512686   3.771   2.761  -0.063 -0.0681  0.0579  0.1235
 1656ntf    on512687   3.950   2.937  -0.033  0.1831 -0.0351  0.0906
 1656ntf    fn412688   3.725   2.788   0.226  0.0843 -0.1653 -0.2464
 1656ntf    fn412689   3.888   2.904   0.262 -0.4386  0.1496  0.6466
 1656ntf    fn412690   3.733   2.992   0.151 -0.2699 -0.4640 -0.1844
 1657ntf    cn112691   4.826   0.983   3.029 -0.3384  0.0259 -0.1952
 1657ntf    sn212692   4.771   0.957   3.201 -0.3932  0.0844 -0.2045
 1657ntf    nn312693   4.709   1.097   3.239 -0.2447  0.2831 -0.6880
 1657ntf    sn212694   4.581   1.132   3.321  0.1931  0.0646  0.0965
 1657ntf    cn112695   4.477   1.155   3.174  0.2041  0.1652  0.1040
 1657ntf    fn412696   4.723   1.002   2.949  0.1470  0.0092 -0.8270
 1657ntf    fn412697   4.901   1.092   3.020 -0.2071  0.0143  0.6536
 1657ntf    fn412698   4.894   0.884   2.973  0.1785  0.3525 -0.1572
 1657ntf    on512699   4.669   0.856   3.192 -0.7865  0.4373  0.2481
 1657ntf    on512700   4.893   0.930   3.272 -0.2699  0.3745 -0.3015
 1657ntf    on512701   4.593   1.264   3.379 -0.0079  0.0613  0.1485
 1657ntf    on512702   4.522   1.032   3.407 -0.1790  0.2908  0.1092
 1657ntf    fn412703   4.443   1.038   3.123  0.3353  0.0723  0.2305
 1657ntf    fn412704   4.359   1.211   3.197  0.0737 -0.1162  0.1211
 1657ntf    fn412705   4.533   1.226   3.078 -0.0865  0.5060  0.1828
 1658ntf    cn112706   6.214   6.030   2.933  0.0815  0.1767 -0.4447
 1658ntf    sn212707   6.084   5.967   3.043  0.2687  0.0817 -0.2770
 1658ntf    nn312708   6.011   5.872   2.943  0.1804  0.4733 -0.5869
 1658ntf    sn212709   5.890   5.893   2.845 -0.1453  0.0884 -0.2709
 1658ntf    cn112710   5.806   5.731   2.843 -0.1069  0.0648  0.0309
 1658ntf    fn412711   6.152   6.080   2.827 -0.5595 -0.3332 -0.3152
 1658ntf    fn412712   6.289   6.130   2.974 -0.3448  0.1762  0.3489
 1658ntf    fn412713   6.294   5.938   2.881 -0.2610 -0.2575 -0.2143
 1658ntf    on512714   6.165   5.892   3.136 -0.1324 -0.0246 -0.0107
 1658ntf    on512715   6.019   6.089   3.084  0.3440  0.1757 -0.4375
 1658ntf    on512716   5.933   5.925   2.711  0.3043 -0.4075 -0.2478
 1658ntf    on512717   5.786   5.973   2.905 -0.2654  0.1230 -0.5246
 1658ntf    fn412718   5.711   5.717   2.752  0.2436 -0.2609 -0.2851
 1658ntf    fn412719   5.902   5.643   2.823  0.0809  0.2310  0.1953
 1658ntf    fn412720   5.753   5.696   2.959 -0.3678  0.0400 -0.0962
 1659ntf    cn112721   1.480   0.248   0.951  0.2301  0.1155  0.1232
 1659ntf    sn212722   1.651   0.196   0.986  0.1073 -0.1456  0.3400
 1659ntf    nn312723   1.652   0.200   1.143  0.2042 -0.3634  0.3451
 1659ntf    sn212724   1.648   0.086   1.251 -0.2276 -0.3285  0.3667
 1659ntf    cn112725   1.819   0.088   1.312 -0.1697 -0.0479  0.1962
 1659ntf    fn412726   1.449   0.258   0.823 -0.1771  0.0742  0.2172
 1659ntf    fn412727   1.389   0.180   1.020  0.4340 -0.2718  0.0134
 1659ntf    fn412728   1.465   0.374   0.988  0.4504  0.0887  0.3075
 1659ntf    on512729   1.669   0.064   0.933 -0.1505 -0.1946  0.3715
 1659ntf    on512730   1.734   0.297   0.925 -0.6233  0.4202  0.2628
 1659ntf    on512731   1.630  -0.048   1.203 -0.1003 -0.3238  0.3068
 1659ntf    on512732   1.571   0.117   1.370  0.0916  0.3098  0.4148
 1659ntf    fn412733   1.907   0.071   1.215 -0.2157  0.3466  0.0820
 1659ntf    fn412734   1.850   0.198   1.379 -0.1234 -0.1557  0.3531
 1659ntf    fn412735   1.834  -0.015   1.394  0.0091 -0.1990 -0.0270
 1660ntf    cn112736   1.778   0.287   4.429 -0.6312 -0.0335  0.1743
 1660ntf    sn212737   1.630   0.199   4.490 -0.4212 -0.5675 -0.0784
 1660ntf    nn312738   1.703   0.133   4.613  0.0533 -0.3227 -0.2236
 1660ntf    sn212739   1.762  -0.012   4.622 -0.1606 -0.3901  0.0840
 1660ntf    cn112740   1.622  -0.101   4.698 -0.1900 -0.2746  0.1656
 1660ntf    fn412741   1.756   0.353   4.317 -0.2318  0.1942  0.2289
 1660ntf    fn412742   1.834   0.366   4.519 -0.2770  0.6405 -0.6343
 1660ntf    fn412743   1.874   0.202   4.398  0.2429  0.8146  0.5229
 1660ntf    on512744   1.550   0.312   4.531 -0.0454 -0.2813 -0.1235
 1660ntf    on512745   1.572   0.117   4.387 -0.0188 -0.2459 -0.5663
 1660ntf    on512746   1.867  -0.024   4.720 -0.3466 -0.4940  0.2731
 1660ntf    on512747   1.782  -0.089   4.501 -0.4720 -0.0666 -0.1736
 1660ntf    fn412748   1.631  -0.233   4.690  0.4686 -0.2376  0.2902
 1660ntf    fn412749   1.602  -0.078   4.826  0.2030  0.1297  0.1564
 1660ntf    fn412750   1.506  -0.064   4.645  0.0063  0.2399  0.0963
 1661ntf    cn112751   0.301   3.039   1.333  0.3274  0.0863  0.0941
 1661ntf    sn212752   0.225   3.121   1.189 -0.2376  0.1034  0.3976
 1661ntf    nn312753   0.179   2.994   1.110  0.1430  0.0471  0.2634
 1661ntf    sn212754   0.254   2.889   1.020  0.1893  0.3502 -0.0561
 1661ntf    cn112755   0.201   2.741   1.111  0.0951  0.0868 -0.5397
 1661ntf    fn412756   0.313   3.131   1.428 -0.2119 -0.2105  0.4569
 1661ntf    fn412757   0.221   2.950   1.390  0.4343 -0.0089  0.0940
 1661ntf    fn412758   0.420   2.982   1.322  0.3516  0.0597  0.4577
 1661ntf    on512759   0.114   3.186   1.255 -0.4129 -0.0387  0.2412
 1661ntf    on512760   0.336   3.199   1.139 -0.3302 -0.1188 -0.1557
 1661ntf    on512761   0.395   2.901   1.045  0.2991 -0.4663 -0.2536
 1661ntf    on512762   0.204   2.875   0.886  0.2350  0.1033 -0.0470
 1661ntf    fn412763   0.247   2.734   1.235  0.5494 -0.0070 -0.7118
 1661ntf    fn412764   0.069   2.735   1.120  0.1389 -0.2340 -0.0991
 1661ntf    fn412765   0.244   2.632   1.049 -0.3133 -0.4501  0.0945
 1662ntf    cn112766   3.470   2.934   4.060 -0.1532 -0.3697  0.2683
 1662ntf    sn212767   3.336   2.926   3.937  0.3465  0.0338 -0.3050
 1662ntf    nn312768   3.219   2.972   4.031  0.5915 -0.3308  0.1825
 1662ntf    sn212769   3.144   2.892   4.143  0.0262  0.0068  0.0496
 1662ntf    cn112770   2.993   2.855   4.050  0.1717  0.4106 -0.3473
 1662ntf    fn412771   3.519   3.057   4.059 -0.0162 -0.4261 -0.2207
 1662ntf    fn412772   3.442   2.894   4.183  0.2686 -0.4842  0.3259
 1662ntf    fn412773   3.568   2.856   4.020  0.2750  0.3142 -0.0236
 1662ntf    on512774   3.384   3.025   3.843  0.2498 -0.1067 -0.5027
 1662ntf    on512775   3.337   2.792   3.884  0.5737 -0.1808  0.2254
 1662ntf    on512776   3.095   2.977   4.249 -0.3381  0.7007 -0.6705
 1662ntf    on512777   3.191   2.760   4.179  0.2538 -0.0793 -0.5466
 1662ntf    fn412778   2.906   2.775   4.109  0.1164  0.3179 -0.5530
 1662ntf    fn412779   2.925   2.966   4.023 -0.2073  0.1616 -0.4277
 1662ntf    fn412780   3.019   2.802   3.932 -0.4555  0.0782 -0.3384
 1663ntf    cn112781   5.825   5.458   1.364 -0.1307  0.3212  0.1473
 1663ntf    sn212782   5.790   5.615   1.449 -0.1878  0.3737  0.0270
 1663ntf    nn312783   5.667   5.676   1.373  0.0295  0.4980 -0.2313
 1663ntf    sn212784   5.518   5.689   1.423 -0.0716  0.0729 -0.4188
 1663ntf    cn112785   5.477   5.513   1.446 -0.2611  0.1851  0.1232
 1663ntf    fn412786   5.799   5.462   1.234  0.1335  0.2980  0.0930
 1663ntf    fn412787   5.955   5.430   1.370 -0.2012  0.0464  0.3954
 1663ntf    fn412788   5.768   5.351   1.415  0.2886  0.3212  0.6253
 1663ntf    on512789   5.773   5.588   1.589  0.5376  0.0785  0.0647
 1663ntf    on512790   5.907   5.688   1.404 -0.0986 -0.0249 -0.4037
 1663ntf    on512791   5.432   5.725   1.314 -0.0339 -0.3860 -0.6026
 1663ntf    on512792   5.494   5.752   1.551 -0.5502 -0.2756 -0.3371
 1663ntf    fn412793   5.576   5.449   1.506  0.3574  0.1725 -0.8759
 1663ntf    fn412794   5.367   5.497   1.518 -0.5018  0.6876 -0.1281
 1663ntf    fn412795   5.466   5.453   1.329  0.2353  0.4233 -0.0492
 1664ntf    cn112796   2.282   6.581   0.646  0.3206 -0.1333  0.4489
 1664ntf    sn212797   2.276   6.730   0.750 -0.1829  0.1720 -0.0170
 1664ntf    nn312798   2.326   6.834   0.643 -0.0052  0.0813 -0.0231
 1664ntf    sn212799   2.437   6.945   0.655 -0.0722  0.1615 -0.1366
 1664ntf    cn112800   2.336   7.095   0.633 -0.3850 -0.0398 -0.0893
 1664ntf    fn412801   2.405   6.558   0.602  0.2487  0.2776  0.0321
 1664ntf    fn412802   2.235   6.472   0.706  0.0242 -0.1375  0.2105
 1664ntf    fn412803   2.207   6.589   0.538  0.0652 -0.3663  0.6084
 1664ntf    on512804   2.136   6.749   0.777 -0.2576 -0.5438  0.1089
 1664ntf    on512805   2.366   6.688   0.854 -0.2181  0.5897  0.1861
 1664ntf    on512806   2.530   6.952   0.546  0.1074  0.0542  0.0081
 1664ntf    on512807   2.493   6.961   0.787  0.6576  0.0082 -0.4237
 1664ntf    fn412808   2.221   7.090   0.698 -0.5491  0.0113 -0.3777
 1664ntf    fn412809   2.397   7.195   0.694 -0.7223  0.1827 -0.1167
 1664ntf    fn412810   2.304   7.125   0.509 -0.2889 -0.6701 -0.2710
 1665ntf    cn112811   5.679   1.634   3.167  0.0159 -0.1305 -0.1992
 1665ntf    sn212812   5.857   1.647   3.132  0.0294 -0.1611 -0.1472
 1665ntf    nn312813   5.894   1.500   3.173 -0.1850 -0.2196 -0.1618
 1665ntf    sn212814   6.031   1.425   3.159 -0.1303 -0.1273 -0.1234
 1665ntf    cn112815   5.991   1.324   3.013  0.3180 -0.4033 -0.0579
 1665ntf    fn412816   5.602   1.730   3.119  0.4800  0.3246 -0.0437
 1665ntf    fn412817   5.631   1.521   3.116  0.2355 -0.4076  0.1982
 1665ntf    fn412818   5.656   1.628   3.298 -0.3981  0.4797 -0.2394
 1665ntf    on512819   5.859   1.674   2.990  0.3140 -0.0641 -0.1248
 1665ntf    on512820   5.903   1.752   3.220 -0.0909 -0.5891  0.4306
 1665ntf    on512821   6.065   1.325   3.257 -0.3597  0.0177  0.1055
 1665ntf    on512822   6.140   1.507   3.111 -0.5284  0.3323 -0.2488
 1665ntf    fn412823   6.086   1.241   2.975  0.3673 -0.4042  0.0675
 1665ntf    fn412824   5.892   1.239   3.038 -0.6811  0.7729  0.0967
 1665ntf    fn412825   5.953   1.393   2.907 -0.2735 -0.5792  0.0315
 1666ntf    cn112826   4.930   5.175   2.333  0.3348 -0.2993 -0.1705
 1666ntf    sn212827   4.772   5.223   2.257  0.1357 -0.0216  0.4102
 1666ntf    nn312828   4.670   5.119   2.315 -0.7238  0.2096 -0.6499
 1666ntf    sn212829   4.606   5.109   2.458  0.3649  0.4464 -0.1333
 1666ntf    cn112830   4.440   5.177   2.425  0.3079  0.1878 -0.3881
 1666ntf    fn412831   4.913   5.134   2.458 -0.1098  0.5711  0.0589
 1666ntf    fn412832   4.979   5.067   2.274 -0.0851 -0.5222 -0.1199
 1666ntf    fn412833   5.027   5.264   2.328 -0.0038  0.0874  0.0797
 1666ntf    on512834   4.753   5.360   2.297 -0.8340 -0.0009 -0.0955
 1666ntf    on512835   4.793   5.197   2.116 -0.3075  0.6544  0.2141
 1666ntf    on512836   4.654   5.190   2.567  0.6451  0.4210 -0.2372
 1666ntf    on512837   4.569   4.976   2.497 -0.0819  0.4143 -0.6392
 1666ntf    fn412838   4.370   5.107   2.338 -0.2684  0.5377 -0.2126
 1666ntf    fn412839   4.364   5.195   2.532  0.2861 -0.0323 -0.3667
 1666ntf    fn412840   4.454   5.297   2.371 -0.0324  0.3770 -0.0635
 1667ntf    cn112841   4.891   3.901   3.900  0.1280  0.3228 -0.1140
 1667ntf    sn212842   4.954   3.861   4.065  0.1449 -0.3671 -0.2832
 1667ntf    nn312843   4.818   3.848   4.144  0.0898  0.5457 -0.2138
 1667ntf    sn212844   4.727   3.961   4.203 -0.3153  0.1259 -0.0236
 1667ntf    cn112845   4.795   3.952   4.371  0.1105  0.0556 -0.1975
 1667ntf    fn412846   4.985   3.945   3.817 -0.0334  0.2756 -0.3236
 1667ntf    fn412847   4.837   3.800   3.832 -0.0652 -0.0392  0.5751
 1667ntf    fn412848   4.800   3.997   3.909  0.2636  0.4300  0.1173
 1667ntf    on512849   5.017   3.732   4.050  0.3523 -0.2913 -0.0731
 1667ntf    on512850   5.033   3.977   4.098  0.1417 -0.2811 -0.5812
 1667ntf    on512851   4.593   3.915   4.225 -0.1380 -0.2119  0.3666
 1667ntf    on512852   4.740   4.098   4.157 -0.1713  0.0737 -0.1387
 1667ntf    fn412853   4.759   4.061   4.436  0.3007  0.3148 -0.5249
 1667ntf    fn412854   4.770   3.844   4.444 -0.1401 -0.0454 -0.4331
 1667ntf    fn412855   4.927   3.957   4.363  0.1285  0.0043  0.0698
 1668ntf    cn112856   4.094   1.249   3.299  0.0434  0.4236  0.1558
 1668ntf    sn212857   3.976   1.326   3.184 -0.1536 -0.4398 -0.2279
 1668ntf    nn312858   3.960   1.469   3.245  0.2677 -0.5246  0.0920
 1668ntf    sn212859   3.862   1.523   3.356  0.3001  0.1049 -0.1826
 1668ntf    cn112860   3.974   1.537   3.499  0.2287  0.1597 -0.1318
 1668ntf    fn412861   4.152   1.148   3.236  0.2971  0.4240  0.3843
 1668ntf    fn412862   4.190   1.331   3.338  0.1523  0.4882 -0.2437
 1668ntf    fn412863   4.035   1.202   3.409 -0.2100 -0.2955 -0.2790
 1668ntf    on512864   4.048   1.329   3.059  0.7562  0.0923  0.2914
 1668ntf    on512865   3.861   1.239   3.194 -0.0376 -0.5189  0.4935
 1668ntf    on512866   3.760   1.434   3.404  0.1861  0.0375 -0.5472
 1668ntf    on512867   3.821   1.659   3.331  0.4149  0.2861  0.5760
 1668ntf    fn412868   4.039   1.422   3.514 -0.1055  0.0169  0.2328
 1668ntf    fn412869   4.080   1.616   3.488  0.6878 -0.3836  0.3200
 1668ntf    fn412870   3.906   1.559   3.609  0.1039  0.1460 -0.2067
 1669ntf    cn112871   0.475   5.607   5.203  0.2926  0.3280  0.2585
 1669ntf    sn212872   0.417   5.686   5.357  0.0831  0.3520  0.1672
 1669ntf    nn312873   0.521   5.636   5.463 -0.2194  0.0061  0.3018
 1669ntf    sn212874   0.509   5.653   5.619  0.0899 -0.1299  0.3399
 1669ntf    cn112875   0.450   5.492   5.680 -0.1213 -0.1167  0.1728
 1669ntf    fn412876   0.406   5.653   5.100  0.2850 -0.3454 -0.0386
 1669ntf    fn412877   0.600   5.635   5.171  0.2084  0.0101 -0.3551
 1669ntf    fn412878   0.466   5.475   5.202 -0.0247  0.3527 -0.1555
 1669ntf    on512879   0.431   5.827   5.332 -0.5291  0.4077  0.1183
 1669ntf    on512880   0.287   5.627   5.374  0.4855 -0.6623 -0.1935
 1669ntf    on512881   0.410   5.750   5.656  0.2183  0.1565 -0.0635
 1669ntf    on512882   0.642   5.673   5.673  0.4514  0.0332 -0.5953
 1669ntf    fn412883   0.441   5.486   5.812  0.0323 -0.2863  0.1767
 1669ntf    fn412884   0.329   5.474   5.630 -0.0440  0.0764 -0.0884
 1669ntf    fn412885   0.522   5.385   5.649  0.5151  0.3750 -0.0726
 1670ntf    cn112886   5.159   6.362   2.176 -0.1789  0.0634  0.0202
 1670ntf    sn212887   5.058   6.511   2.205  0.1793  0.3372 -0.1355
 1670ntf    nn312888   4.930   6.454   2.135  0.4182 -0.2747 -0.0881
 1670ntf    sn212889   4.787   6.426   2.194  0.3812  0.3783  0.1424
 1670ntf    cn112890   4.690   6.471   2.048 -0.0100 -0.0426  0.2726
 1670ntf    fn412891   5.190   6.345   2.049  0.4026  0.0093  0.1652
 1670ntf    fn412892   5.275   6.359   2.239 -0.2735 -0.4741  0.1727
 1670ntf    fn412893   5.093   6.253   2.212  0.2136 -0.2701 -0.2636
 1670ntf    on512894   5.041   6.524   2.348 -0.4612 -0.0028 -0.1772
 1670ntf    on512895   5.124   6.620   2.139  0.2253  0.4855  0.1517
 1670ntf    on512896   4.747   6.512   2.303 -0.1737  0.2927  0.0107
 1670ntf    on512897   4.757   6.285   2.201  0.0221  0.4338 -0.2553
 1670ntf    fn412898   4.560   6.446   2.061 -0.2394  0.8985 -0.1495
 1670ntf    fn412899   4.690   6.600   2.020 -0.4602 -0.0740  0.1125
 1670ntf    fn412900   4.731   6.416   1.934 -0.2246  0.1972  0.0791
 1671ntf    cn112901   4.228   3.418   2.975 -0.3973 -0.1057  0.3126
 1671ntf    sn212902   4.337   3.274   2.999 -0.2011 -0.0538 -0.2481
 1671ntf    nn312903   4.247   3.174   3.079 -0.4949  0.2073 -0.2500
 1671ntf    sn212904   4.161   3.055   3.023 -0.2320  0.0378 -0.2968
 1671ntf    cn112905   4.285   2.923   3.040 -0.0902  0.2308  0.1800
 1671ntf    fn412906   4.190   3.467   3.092  0.0254  0.5492  0.1813
 1671ntf    fn412907   4.294   3.515   2.914 -0.2955 -0.3849 -0.0259
 1671ntf    fn412908   4.121   3.384   2.906  0.0080 -0.7011 -0.0366
 1671ntf    on512909   4.367   3.233   2.864  0.7309 -0.0413 -0.0475
 1671ntf    on512910   4.443   3.322   3.083 -0.1596  0.4149 -0.5637
 1671ntf    on512911   4.116   3.060   2.886 -0.2027 -0.2725 -0.3183
 1671ntf    on512912   4.059   3.016   3.117 -0.1957  0.0118 -0.2689
 1671ntf    fn412913   4.238   2.807   2.998 -0.1610  0.1209  0.5606
 1671ntf    fn412914   4.400   2.949   2.980 -0.1325  0.4691  0.2026
 1671ntf    fn412915   4.316   2.909   3.168  0.2473 -0.3246  0.0367
 1672ntf    cn112916   1.099   3.297   3.829  0.3437 -0.1349  0.1341
 1672ntf    sn212917   1.027   3.130   3.819 -0.1470  0.0874 -0.0307
 1672ntf    nn312918   0.922   3.131   3.936 -0.2436  0.1584 -0.1177
 1672ntf    sn212919   0.853   3.008   4.004 -0.0289  0.0753 -0.0498
 1672ntf    cn112920   0.690   3.008   3.923  0.0886  0.7091 -0.2899
 1672ntf    fn412921   1.170   3.321   3.938  0.3358 -0.4714  0.2161
 1672ntf    fn412922   1.174   3.323   3.723 -0.0337 -0.0818 -0.1221
 1672ntf    fn412923   1.003   3.388   3.822  0.2515 -0.2614 -0.2771
 1672ntf    on512924   0.979   3.135   3.682  0.5075  0.8375 -0.2383
 1672ntf    on512925   1.139   3.046   3.852 -0.1437  0.2320  0.3217
 1672ntf    on512926   0.823   3.036   4.142 -0.5269 -0.2110 -0.0959
 1672ntf    on512927   0.904   2.877   3.974 -0.4090 -0.3084  0.9403
 1672ntf    fn412928   0.605   3.103   3.956 -0.4516  0.0779  0.1489
 1672ntf    fn412929   0.710   3.008   3.792  0.1200  0.4368 -0.2849
 1672ntf    fn412930   0.621   2.898   3.944 -0.1981  0.8415 -0.5273
 1673ntf    cn112931   1.377   6.603   3.073 -0.2514  0.0486  0.0051
 1673ntf    sn212932   1.387   6.497   2.926  0.0245 -0.2646  0.2453
 1673ntf    nn312933   1.306   6.593   2.831  0.3848  0.0688  0.2691
 1673ntf    sn212934   1.153   6.589   2.795  0.4206 -0.2726  0.1469
 1673ntf    cn112935   1.154   6.486   2.645 -0.2032  0.2832 -0.2455
 1673ntf    fn412936   1.258   6.650   3.107  0.0435  0.3881  0.5810
 1673ntf    fn412937   1.428   6.542   3.179 -0.5053  0.3120  0.2791
 1673ntf    fn412938   1.451   6.710   3.052 -0.5732  0.2649 -0.0313
 1673ntf    on512939   1.527   6.487   2.894 -0.0637 -0.7478 -0.0040
 1673ntf    on512940   1.316   6.380   2.969  0.2567 -0.3115  0.4978
 1673ntf    on512941   1.103   6.715   2.746  0.1191 -0.4493 -0.0072
 1673ntf    on512942   1.067   6.519   2.887 -0.1682  0.1628 -0.0669
 1673ntf    fn412943   1.056   6.517   2.562 -0.2844 -0.5073 -0.4531
 1673ntf    fn412944   1.264   6.491   2.572 -0.1977  0.3863 -0.2298
 1673ntf    fn412945   1.135   6.360   2.680  0.5942  0.1510 -0.2708
 1674ntf    cn112946   0.346   1.200   1.664  0.1384 -0.0264  0.2466
 1674ntf    sn212947   0.333   1.278   1.828  0.1811 -0.1315  0.3003
 1674ntf    nn312948   0.231   1.391   1.792  0.6008  0.1084 -0.1595
 1674ntf    sn212949   0.252   1.547   1.793  0.4615  0.1271  0.0510
 1674ntf    cn112950   0.167   1.602   1.943 -0.1785 -0.1278 -0.2165
 1674ntf    fn412951   0.235   1.144   1.621  0.0996 -0.0960  0.4380
 1674ntf    fn412952   0.378   1.294   1.577 -0.3710 -0.0749  0.0044
 1674ntf    fn412953   0.437   1.103   1.665 -0.2148 -0.3628 -0.0025
 1674ntf    on512954   0.281   1.171   1.908 -0.3186  0.0496  0.2174
 1674ntf    on512955   0.467   1.325   1.855  0.0501  0.5404 -0.1787
 1674ntf    on512956   0.174   1.605   1.687  0.2816 -0.4079 -0.1136
 1674ntf    on512957   0.390   1.588   1.801  0.4967  0.1128 -0.4586
 1674ntf    fn412958   0.187   1.731   1.968  0.2244 -0.3254  0.5034
 1674ntf    fn412959   0.038   1.572   1.943 -0.1468 -0.2663  0.1659
 1674ntf    fn412960   0.225   1.544   2.047 -0.1610 -0.0957 -0.2082
 1675ntf    cn112961   2.678   6.280   2.318  0.0933 -0.0673  0.0377
 1675ntf    sn212962   2.779   6.387   2.425  0.0128  0.0271  0.0202
 1675ntf    nn312963   2.896   6.289   2.464 -0.2395 -0.2562  0.0712
 1675ntf    sn212964   3.025   6.275   2.376 -0.1376  0.2569  0.1373
 1675ntf    cn112965   3.110   6.433   2.406  0.3100  0.1300 -0.4363
 1675ntf    fn412966   2.750   6.240   2.215 -0.2846  0.2497 -0.3495
 1675ntf    fn412967   2.632   6.170   2.377  0.4499 -0.1819  0.1030
 1675ntf    fn412968   2.578   6.346   2.262  0.0520 -0.2943 -0.1576
 1675ntf    on512969   2.816   6.496   2.339  0.3256  0.3615  0.5750
 1675ntf    on512970   2.692   6.418   2.535  0.1090 -0.2692  0.1812
 1675ntf    on512971   3.008   6.260   2.233 -0.9192  0.4583  0.2036
 1675ntf    on512972   3.115   6.183   2.442 -0.2084 -0.2251 -0.4291
 1675ntf    fn412973   3.057   6.500   2.507 -0.1352 -1.0667  0.1480
 1675ntf    fn412974   3.237   6.428   2.444  0.1219  0.0199  0.1930
 1675ntf    fn412975   3.101   6.511   2.300 -0.0431  0.4302 -0.1884
 1676ntf    cn112976   0.668   5.159   3.514 -0.4220 -0.0078  0.1877
 1676ntf    sn212977   0.611   5.332   3.518 -0.1090  0.0929  0.3636
 1676ntf    nn312978   0.459   5.305   3.543 -0.0565 -0.6405 -0.0655
 1676ntf    sn212979   0.343   5.294   3.438 -0.0227 -0.1359 -0.1560
 1676ntf    cn112980   0.275   5.461   3.464  0.2083 -0.0829  0.1037
 1676ntf    fn412981   0.614   5.083   3.608 -0.4767 -0.1489  0.0415
 1676ntf    fn412982   0.639   5.110   3.395 -0.6091 -0.0707  0.2592
 1676ntf    fn412983   0.800   5.157   3.523 -0.4409 -0.0496  0.4806
 1676ntf    on512984   0.671   5.380   3.640  0.2545  0.3719  0.0773
 1676ntf    on512985   0.648   5.387   3.389 -0.1932  0.0019  0.3006
 1676ntf    on512986   0.235   5.208   3.480 -0.0399 -0.1444 -0.2179
 1676ntf    on512987   0.378   5.287   3.299  0.5539 -0.1563 -0.0136
 1676ntf    fn412988   0.206   5.500   3.359  0.2430  0.0894  0.1445
 1676ntf    fn412989   0.193   5.470   3.567 -0.0234  0.0715 -0.0939
 1676ntf    fn412990   0.367   5.555   3.481 -0.2341  0.4162 -0.2625
 1677ntf    cn112991   6.017   2.164   5.684 -0.2950 -0.2567  0.0066
 1677ntf    sn212992   6.141   2.043   5.631 -0.1063 -0.1132  0.1205
 1677ntf    nn312993   6.070   1.907   5.663  0.2084 -0.3988 -0.3762
 1677ntf    sn212994   6.101   1.787   5.760 -0.0336 -0.0810  0.1005
 1677ntf    cn112995   6.196   1.686   5.642  0.0054 -0.0602  0.1141
 1677ntf    fn412996   6.062   2.288   5.670 -0.0213 -0.3475  0.0808
 1677ntf    fn412997   5.910   2.154   5.607  0.3086 -0.1570 -0.8527
 1677ntf    fn412998   5.986   2.146   5.812  0.0587  0.1957  0.1605
 1677ntf    on512999   6.153   2.067   5.489  0.3047  0.3457  0.2271
 1677ntf    on513000   6.262   2.066   5.707  0.2216 -0.1019 -0.3967
 1677ntf    on513001   5.987   1.706   5.792  0.1730 -0.2032  0.5297
 1677ntf    on513002   6.195   1.808   5.868 -0.3278 -0.5576  0.4488
 1677ntf    fn413003   6.240   1.571   5.691 -0.0915 -0.1184  0.0634
 1677ntf    fn413004   6.127   1.661   5.532  0.1036  0.4505 -0.0686
 1677ntf    fn413005   6.303   1.749   5.597 -0.3698  0.3248 -0.2473
 1678ntf    cn113006   0.846   2.874   1.946  0.0478 -0.0140  0.1885
 1678ntf    sn213007   0.960   3.016   1.937  0.0678 -0.0279  0.2209
 1678ntf    nn313008   1.070   2.948   1.847 -0.3382 -0.1412 -0.1956
 1678ntf    sn213009   1.211   2.892   1.887 -0.2959 -0.0087 -0.1583
 1678ntf    cn113010   1.158   2.720   1.860  0.0948 -0.1699  0.1000
 1678ntf    fn413011   0.864   2.801   1.837 -0.1647  0.3580 -0.1016
 1678ntf    fn413012   0.864   2.787   2.043  0.5194 -0.0066  0.1101
 1678ntf    fn413013   0.720   2.912   1.965  0.1115  0.1948  0.1959
 1678ntf    on513014   0.885   3.115   1.864  0.5041  0.0084 -0.1783
 1678ntf    on513015   0.985   3.032   2.078 -0.5243  0.0676  0.3163
 1678ntf    on513016   1.249   2.889   2.026  0.3826  0.1773 -0.3374
 1678ntf    on513017   1.306   2.911   1.780 -0.3529  0.6840 -0.0910
 1678ntf    fn413018   1.158   2.684   1.732  0.1305 -0.9504  0.3140
 1678ntf    fn413019   1.236   2.629   1.917 -0.0800 -0.6259 -0.3828
 1678ntf    fn413020   1.042   2.688   1.914 -0.0295 -0.0314 -0.0793
 1679ntf    cn113021   6.363   2.257   3.390  0.1208 -0.3793  0.1900
 1679ntf    sn213022   6.365   2.366   3.244  0.4077 -0.2580  0.2827
 1679ntf    nn313023   6.317   2.258   3.140 -0.7934  0.5376 -0.0058
 1679ntf    sn213024   6.255   2.297   3.001 -0.0596 -0.1909 -0.5465
 1679ntf    cn113025   6.263   2.136   2.917 -0.1257 -0.5267  0.0824
 1679ntf    fn413026   6.240   2.212   3.408  0.0946 -0.1000  0.7332
 1679ntf    fn413027   6.443   2.152   3.386  0.1413 -0.3566  0.0014
 1679ntf    fn413028   6.388   2.331   3.497  0.3709 -0.2634  0.0511
 1679ntf    on513029   6.266   2.467   3.270  0.4169 -0.2766  0.3898
 1679ntf    on513030   6.501   2.411   3.239  0.1342  0.4956 -0.6545
 1679ntf    on513031   6.340   2.374   2.913 -0.0750  0.3358 -0.1072
 1679ntf    on513032   6.114   2.329   3.004  0.0202  0.1287 -0.0461
 1679ntf    fn413033   6.215   2.143   2.794  0.1175  0.2152  0.0279
 1679ntf    fn413034   6.388   2.095   2.906  0.0999  0.2718 -0.4280
 1679ntf    fn413035   6.189   2.041   2.972 -0.4312 -0.4808 -0.2408
 1680ntf    cn113036   5.284   6.724   4.084 -0.1484 -0.0696  0.1291
 1680ntf    sn213037   5.251   6.571   3.992  0.1857  0.1442 -0.3543
 1680ntf    nn313038   5.233   6.476   4.116  0.0404 -0.3723 -0.7680
 1680ntf    sn213039   5.099   6.402   4.154 -0.1664  0.2215 -0.3298
 1680ntf    cn113040   5.143   6.354   4.324 -0.3860 -0.0877 -0.3589
 1680ntf    fn413041   5.355   6.809   4.012 -0.1084 -0.1091  0.1214
 1680ntf    fn413042   5.166   6.774   4.119 -0.0199 -0.0522  0.5386
 1680ntf    fn413043   5.351   6.706   4.196  0.0242  0.8270  0.1815
 1680ntf    on513044   5.136   6.608   3.914  0.3119  0.8083 -0.2277
 1680ntf    on513045   5.376   6.550   3.923  0.2795 -0.0700 -0.1242
 1680ntf    on513046   5.082   6.272   4.094  0.1967  0.0883 -0.1526
 1680ntf    on513047   4.984   6.484   4.180 -0.2663 -0.0713  0.1556
 1680ntf    fn413048   5.048   6.280   4.379  0.4703 -0.7700  0.2250
 1680ntf    fn413049   5.252   6.281   4.308 -0.3942 -0.1605 -0.0824
 1680ntf    fn413050   5.168   6.451   4.411  0.0132 -0.4156 -0.1043
 1681ntf    cn113051   3.989   2.968   5.924 -0.1115 -0.1154  0.1130
 1681ntf    sn213052   3.867   2.985   6.057 -0.1200 -0.5157  0.1591
 1681ntf    nn313053   3.958   3.002   6.184 -0.1346 -0.1405  0.1225
 1681ntf    sn213054   3.985   3.123   6.279  0.0862  0.0011 -0.1174
 1681ntf    cn113055   3.888   3.065   6.422 -0.1717  0.3265 -0.1578
 1681ntf    fn413056   4.085   3.059   5.930 -0.1950  0.0081 -0.3299
 1681ntf    fn413057   4.040   2.846   5.909 -0.3029 -0.2206  0.3097
 1681ntf    fn413058   3.922   2.993   5.812  0.1361  0.3230  0.0600
 1681ntf    on513059   3.795   3.103   6.016  0.3317 -0.0625  0.6565
 1681ntf    on513060   3.790   2.863   6.061  0.0954 -0.6417  0.5083
 1681ntf    on513061   3.943   3.258   6.246 -0.1953  0.0072  0.2622
 1681ntf    on513062   4.118   3.109   6.332 -0.1402 -1.1615  0.1647
 1681ntf    fn413063   3.927   3.137   6.525 -0.7110 -0.0227  0.2930
 1681ntf    fn413064   3.761   3.092   6.399 -0.2166  0.0758 -0.2075
 1681ntf    fn413065   3.905   2.936   6.447  0.4401  0.5529  0.6033
 1682ntf    cn113066   1.174   4.821   3.266  0.3958  0.1891  0.4406
 1682ntf    sn213067   1.256   4.975   3.214  0.1229  0.2683  0.2436
 1682ntf    nn313068   1.403   4.946   3.261  0.1677  0.3013  0.1238
 1682ntf    sn213069   1.517   4.861   3.194 -0.2261  0.0115 -0.1828
 1682ntf    cn113070   1.627   4.998   3.146  0.1113 -0.1090  0.2422
 1682ntf    fn413071   1.048   4.842   3.301  0.0720 -0.2238 -0.4624
 1682ntf    fn413072   1.169   4.725   3.176  0.5395  0.0814  0.5479
 1682ntf    fn413073   1.224   4.783   3.382  0.8545 -0.4446  0.0362
 1682ntf    on513074   1.244   4.979   3.070 -0.6230  0.1142  0.2986
 1682ntf    on513075   1.188   5.077   3.290 -0.1434  0.6066 -0.4407
 1682ntf    on513076   1.481   4.787   3.076 -0.4998  0.2749 -0.2669
 1682ntf    on513077   1.600   4.799   3.294  0.1562  0.1335 -0.4230
 1682ntf    fn413078   1.714   4.955   3.056  0.5908 -0.5681  0.9138
 1682ntf    fn413079   1.557   5.091   3.083  0.4845 -0.1333 -0.2130
 1682ntf    fn413080   1.699   5.055   3.241  0.1101 -0.0428  0.2037
 1683ntf    cn113081   1.635   4.134   0.525 -0.3950 -0.1100  0.1746
 1683ntf    sn213082   1.585   4.049   0.678 -0.3973 -0.0855  0.1869
 1683ntf    nn313083   1.443   4.114   0.697 -0.0493  0.4811  0.8746
 1683ntf    sn213084   1.311   4.032   0.678  0.2175  0.1915  0.2418
 1683ntf    cn113085   1.193   4.167   0.648 -0.1508 -0.2052 -0.1199
 1683ntf    fn413086   1.713   4.057   0.450 -0.0346  0.3067  0.1248
 1683ntf    fn413087   1.530   4.169   0.452 -0.2827 -0.1482 -0.0052
 1683ntf    fn413088   1.699   4.246   0.552 -0.1337 -0.2239  0.0362
 1683ntf    on513089   1.592   3.912   0.634 -0.4462 -0.2711  0.7486
 1683ntf    on513090   1.682   4.094   0.775 -0.4536 -0.2279  0.3096
 1683ntf    on513091   1.258   3.972   0.798 -0.4271 -0.1777 -0.2225
 1683ntf    on513092   1.304   3.957   0.555 -0.0098 -0.5269  0.6842
 1683ntf    fn413093   1.242   4.253   0.560 -0.0753  0.0117  0.1299
 1683ntf    fn413094   1.091   4.114   0.584  0.0037 -0.5449 -0.0879
 1683ntf    fn413095   1.161   4.236   0.757  0.2517 -0.1957 -0.0060
 1684ntf    cn113096   3.522   4.111   3.662 -0.0413 -0.0301 -0.2371
 1684ntf    sn213097   3.512   4.245   3.540 -0.3241  0.1426 -0.0259
 1684ntf    nn313098   3.504   4.363   3.642 -0.0117  0.3425 -0.2293
 1684ntf    sn213099   3.616   4.467   3.678  0.0137  0.2383 -0.0017
 1684ntf    cn113100   3.605   4.463   3.859 -0.3123 -0.0349 -0.0270
 1684ntf    fn413101   3.643   4.103   3.717 -0.1178  0.5354  0.0258
 1684ntf    fn413102   3.436   4.119   3.762 -0.0683  0.5440 -0.3018
 1684ntf    fn413103   3.513   3.991   3.608  0.1303 -0.2531  0.2284
 1684ntf    on513104   3.633   4.240   3.461 -0.2647 -0.1021  0.0804
 1684ntf    on513105   3.391   4.210   3.469 -0.2670  0.3865 -0.2455
 1684ntf    on513106   3.576   4.603   3.650  0.4072  0.2481 -0.5401
 1684ntf    on513107   3.755   4.437   3.654  0.0382  0.6074 -0.3355
 1684ntf    fn413108   3.480   4.447   3.900 -0.1029 -0.2208  0.5527
 1684ntf    fn413109   3.673   4.360   3.908 -0.2321  0.2288  0.4215
 1684ntf    fn413110   3.663   4.570   3.909  0.7738 -0.6545  0.0681
 1685ntf    cn113111   5.472   1.049   5.575 -0.1805  0.3354 -0.0346
 1685ntf    sn213112   5.382   0.895   5.544 -0.1344  0.2745  0.1368
 1685ntf    nn313113   5.234   0.943   5.563 -0.2902 -0.3344  0.4815
 1685ntf    sn213114   5.118   0.913   5.461  0.0050 -0.0321  0.0560
 1685ntf    cn113115   5.024   0.801   5.569  0.0696  0.1920  0.3440
 1685ntf    fn413116   5.595   1.049   5.526 -0.1174  0.2034  0.1270
 1685ntf    fn413117   5.408   1.156   5.529 -0.6961  0.0251 -0.0388
 1685ntf    fn413118   5.491   1.068   5.704  0.0028  0.0418 -0.0175
 1685ntf    on513119   5.414   0.848   5.411 -0.1552 -0.2142  0.3009
 1685ntf    on513120   5.426   0.811   5.653 -0.2479  0.1788  0.1093
 1685ntf    on513121   5.146   0.827   5.348  0.0470  0.3264 -0.2074
 1685ntf    on513122   5.044   1.033   5.432 -0.8004 -0.4310  0.4524
 1685ntf    fn413123   5.088   0.686   5.585  0.2161  0.1856 -0.2909
 1685ntf    fn413124   5.008   0.856   5.689  0.1673  0.4795  0.2261
 1685ntf    fn413125   4.899   0.784   5.531  0.0672  0.0727  0.4065
 1686ntf    cn113126   3.307   1.444   0.847  0.0208  0.0880 -0.2149
 1686ntf    sn213127   3.175   1.506   0.739  0.0336  0.0837 -0.2331
 1686ntf    nn313128   3.161   1.656   0.785 -0.0267  0.0352 -0.0932
 1686ntf    sn213129   3.081   1.778   0.728  0.4189  0.3664 -0.0127
 1686ntf    cn113130   2.927   1.786   0.824  0.1169  0.0110 -0.4592
 1686ntf    fn413131   3.272   1.435   0.975  0.4665  0.3717 -0.0723
 1686ntf    fn413132   3.347   1.324   0.808 -0.5089 -0.1755  0.0475
 1686ntf    fn413133   3.410   1.526   0.854  0.3093 -0.2869 -0.0153
 1686ntf    on513134   3.242   1.475   0.615 -0.2038 -0.4865 -0.2199
 1686ntf    on513135   3.067   1.421   0.781  0.2841  0.0193  0.2883
 1686ntf    on513136   3.041   1.753   0.591 -0.4775 -0.4105  0.3877
 1686ntf    on513137   3.134   1.908   0.761 -0.1204  0.6186 -0.1349
 1686ntf    fn413138   2.878   1.907   0.799 -0.0039  0.1495  0.4069
 1686ntf    fn413139   2.841   1.688   0.805  0.8255 -0.7728  0.3197
 1686ntf    fn413140   2.956   1.787   0.953 -0.4494 -0.3970 -0.3295
 1687ntf    cn113141   3.980   4.026   4.584 -0.5291  0.0115 -0.3019
 1687ntf    sn213142   3.984   3.867   4.671  0.2789  0.0848 -0.1957
 1687ntf    nn313143   4.031   3.773   4.554  0.2491  0.1909 -0.2918
 1687ntf    sn213144   4.049   3.618   4.557 -0.4380  0.1172  0.1417
 1687ntf    cn113145   4.221   3.616   4.615 -0.3495  0.3872 -0.1095
 1687ntf    fn413146   3.877   4.024   4.501 -0.6540 -0.8098 -0.1339
 1687ntf    fn413147   3.957   4.129   4.663  0.0735  0.2131 -0.3834
 1687ntf    fn413148   4.096   4.049   4.524 -0.3075  0.1900  0.1949
 1687ntf    on513149   4.080   3.889   4.777 -0.3456  0.0107  0.3889
 1687ntf    on513150   3.846   3.856   4.709  0.3124  0.0563 -0.0806
 1687ntf    on513151   4.053   3.557   4.426 -0.4215  0.0083  0.1923
 1687ntf    on513152   3.978   3.543   4.658  0.5774 -0.6205  0.3207
 1687ntf    fn413153   4.247   3.676   4.730 -0.3048  0.5892 -0.2267
 1687ntf    fn413154   4.267   3.492   4.625  0.0631  0.5767  0.4160
 1687ntf    fn413155   4.304   3.668   4.526 -0.1555  0.6118  0.2025
 1688ntf    cn113156   6.536   4.939   2.181  0.3839  0.2302  0.5368
 1688ntf    sn213157   6.387   4.887   2.271  0.0383  0.0326 -0.1358
 1688ntf    nn313158   6.274   4.950   2.183 -0.3689  0.1310  0.4471
 1688ntf    sn213159   6.216   5.096   2.185 -0.6747  0.0192 -0.0251
 1688ntf    cn113160   6.039   5.065   2.214 -0.5722 -0.3138  0.2569
 1688ntf    fn413161   6.539   4.895   2.056 -0.1374  0.0626  0.5809
 1688ntf    fn413162   6.550   5.070   2.175  0.1665  0.2483  0.4219
 1688ntf    fn413163   6.650   4.893   2.229  0.4917 -0.4465 -0.3318
 1688ntf    on513164   6.397   4.744   2.251  0.6424  0.0511  0.0127
 1688ntf    on513165   6.415   4.941   2.402 -0.3377 -0.0638 -0.0144
 1688ntf    on513166   6.220   5.152   2.053  0.7896  0.9555  0.3938
 1688ntf    on513167   6.256   5.181   2.295  0.0160  0.0980 -0.3314
 1688ntf    fn413168   6.023   5.021   2.337 -0.4490 -0.8604  0.0842
 1688ntf    fn413169   5.971   5.178   2.204  0.2130  0.1548  0.0961
 1688ntf    fn413170   5.987   4.977   2.130 -0.3004  0.1702 -0.4351
 1689ntf    cn113171   3.821   6.195   6.015 -0.3985 -0.0978  0.1788
 1689ntf    sn213172   3.745   6.177   6.179 -0.2371 -0.0280  0.2625
 1689ntf    nn313173   3.854   6.248   6.266 -0.2962  0.3694  0.0144
 1689ntf    sn213174   3.862   6.387   6.338 -0.5133  0.4789 -0.1692
 1689ntf    cn113175   3.789   6.341   6.498 -0.1805  0.3462 -0.0543
 1689ntf    fn413176   3.929   6.119   6.001 -0.0506  0.4667 -0.2228
 1689ntf    fn413177   3.743   6.149   5.918  0.0003 -0.7110  0.1429
 1689ntf    fn413178   3.861   6.319   5.994  0.1077 -0.3214 -0.2200
 1689ntf    on513179   3.622   6.252   6.171 -0.0060  0.3524  0.2517
 1689ntf    on513180   3.736   6.036   6.210 -0.0288 -0.1143 -0.0615
 1689ntf    on513181   3.776   6.496   6.301 -0.2192  0.5822 -0.5506
 1689ntf    on513182   3.998   6.416   6.378 -0.5033  0.2135 -0.0088
 1689ntf    fn413183   3.787   6.451   6.573  0.2190  0.1860  0.1926
 1689ntf    fn413184   3.663   6.300   6.489  0.0205 -0.3094  0.1035
 1689ntf    fn413185   3.865   6.251   6.559 -0.1406  0.4809  0.0975
 1690ntf    cn113186   4.176   5.656   5.918 -0.1931  0.2764  0.1431
 1690ntf    sn213187   4.290   5.514   5.934 -0.3289  0.1174 -0.2895
 1690ntf    nn313188   4.205   5.391   5.886  0.0968 -0.1931 -0.2511
 1690ntf    sn213189   4.184   5.243   5.934  0.4727 -0.0976  0.2190
 1690ntf    cn113190   4.035   5.256   6.038  0.4685 -0.0479  0.2070
 1690ntf    fn413191   4.090   5.640   5.819 -0.2871  0.5630  0.1801
 1690ntf    fn413192   4.117   5.672   6.035 -0.0363  0.2241  0.2297
 1690ntf    fn413193   4.235   5.773   5.902 -0.2530  0.3240  0.2697
 1690ntf    on513194   4.400   5.553   5.850  0.2503 -1.0670 -0.0912
 1690ntf    on513195   4.307   5.524   6.077  0.3306  0.0084 -0.3584
 1690ntf    on513196   4.274   5.174   6.022  0.0080 -0.2685  0.5649
 1690ntf    on513197   4.136   5.164   5.824  0.5195  0.3765 -0.1467
 1690ntf    fn413198   3.940   5.316   5.967  0.1524  0.1115  0.7576
 1690ntf    fn413199   3.992   5.137   6.075  0.0266  0.0694  0.0764
 1690ntf    fn413200   4.045   5.327   6.150 -0.9402  0.4073  0.0597
 1691ntf    cn113201   1.683   2.633   6.151  0.1381  0.1841  0.5856
 1691ntf    sn213202   1.731   2.801   6.102  0.0362  0.0386 -0.0220
 1691ntf    nn313203   1.855   2.773   6.010  0.0462  0.2310 -0.0671
 1691ntf    sn213204   1.857   2.733   5.858  0.0197  0.0692 -0.0260
 1691ntf    cn113205   1.854   2.900   5.786  0.3785 -0.0331 -0.2837
 1691ntf    fn413206   1.783   2.548   6.167 -0.0083 -0.0557  0.2423
 1691ntf    fn413207   1.607   2.619   6.259 -0.5346 -0.1200  0.0774
 1691ntf    fn413208   1.612   2.579   6.053  0.1110  0.4743  0.4472
 1691ntf    on513209   1.611   2.859   6.046  0.0863 -0.0643 -0.2375
 1691ntf    on513210   1.776   2.857   6.227  0.3717  0.5965 -0.3908
 1691ntf    on513211   1.745   2.665   5.800 -0.0207 -0.0000  0.1324
 1691ntf    on513212   1.987   2.685   5.820 -0.2829 -0.4211 -0.4394
 1691ntf    fn413213   1.733   2.953   5.803  0.2288 -0.3606 -0.3246
 1691ntf    fn413214   1.933   2.986   5.849 -0.1845  0.5959 -0.4237
 1691ntf    fn413215   1.883   2.898   5.657 -0.0319 -0.3615 -0.3729
 1692ntf    cn113216   2.707   0.867   3.860  0.0404  0.0139 -0.1437
 1692ntf    sn213217   2.608   1.017   3.889  0.2321  0.0758  0.1998
 1692ntf    nn313218   2.507   1.002   3.770  0.0831  0.4539  0.2757
 1692ntf    sn213219   2.355   0.967   3.756  0.2848 -0.1738 -0.4268
 1692ntf    cn113220   2.351   0.878   3.597  0.2672 -0.2846 -0.3646
 1692ntf    fn413221   2.640   0.757   3.890 -0.5361  0.3800 -0.0751
 1692ntf    fn413222   2.746   0.860   3.734 -0.1634  0.0435 -0.2082
 1692ntf    fn413223   2.818   0.874   3.931 -0.1907  0.3042  0.1950
 1692ntf    on513224   2.547   1.002   4.019 -0.6984 -0.8981 -0.3381
 1692ntf    on513225   2.704   1.124   3.879 -0.7120  0.8978 -0.2259
 1692ntf    on513226   2.275   1.086   3.747  0.4148 -0.0202  0.3894
 1692ntf    on513227   2.306   0.870   3.852 -0.2003  0.1216 -0.3708
 1692ntf    fn413228   2.231   0.831   3.567 -0.1031  0.4990 -0.1487
 1692ntf    fn413229   2.390   0.953   3.495  0.1755  0.1839 -0.0604
 1692ntf    fn413230   2.444   0.784   3.599  0.2573 -0.2902  0.6936
 1693ntf    cn113231   5.744   0.740   6.426 -0.1984 -0.3642 -0.5370
 1693ntf    sn213232   5.564   0.764   6.427 -0.1328  0.1193  0.0393
 1693ntf    nn313233   5.524   0.614   6.401 -0.5536  0.2167  0.1152
 1693ntf    sn213234   5.460   0.545   6.276 -0.0777 -0.3100  0.1543
 1693ntf    cn113235   5.558   0.393   6.272  0.2975 -0.0648  0.0505
 1693ntf    fn413236   5.799   0.741   6.306  0.4457  0.4094 -0.2431
 1693ntf    fn413237   5.805   0.839   6.489 -0.3051 -0.3927 -0.3891
 1693ntf    fn413238   5.778   0.626   6.484  0.2590  0.2125  0.3454
 1693ntf    on513239   5.548   0.800   6.566  0.6575  0.0448  0.1535
 1693ntf    on513240   5.547   0.873   6.334 -0.7491  0.5473  0.6449
 1693ntf    on513241   5.483   0.608   6.148 -0.2128 -0.3199  0.1241
 1693ntf    on513242   5.325   0.500   6.300 -0.4980  0.6979 -0.2501
 1693ntf    fn413243   5.497   0.309   6.190  0.2001  0.0068  0.0507
 1693ntf    fn413244   5.686   0.393   6.237  0.2146 -0.1276 -0.2627
 1693ntf    fn413245   5.552   0.342   6.394  0.0666 -0.0352  0.0513
 1694ntf    cn113246   6.548   4.256   1.338  0.0503 -0.0320 -0.1033
 1694ntf    sn213247   6.509   4.195   1.171  0.1357 -0.2452 -0.0460
 1694ntf    nn313248   6.476   4.043   1.192  0.0929 -0.2720 -0.3098
 1694ntf    sn213249   6.581   3.927   1.184  0.2045 -0.1945  0.0229
 1694ntf    cn113250   6.548   3.871   1.014 -0.0434 -0.0185  0.0115
 1694ntf    fn413251   6.434   4.252   1.405  0.2767 -0.8462  0.2396
 1694ntf    fn413252   6.636   4.180   1.401 -0.0685 -0.2326 -0.1819
 1694ntf    fn413253   6.586   4.383   1.331 -0.0460 -0.0046 -0.1373
 1694ntf    on513254   6.387   4.268   1.145  0.1422 -0.2060  0.0358
 1694ntf    on513255   6.625   4.229   1.092 -0.0032  0.6726  0.1296
 1694ntf    on513256   6.537   3.806   1.249 -0.2622  0.0857  0.2315
 1694ntf    on513257   6.721   3.961   1.181  0.1884 -0.1601 -0.4123
 1694ntf    fn413258   6.424   3.828   0.997 -0.0900  0.1080  0.0323
 1694ntf    fn413259   6.567   3.963   0.922  0.0250 -0.3282 -0.2862
 1694ntf    fn413260   6.619   3.764   0.978  0.0138  0.1144 -0.2707
 1695ntf    cn113261   4.113   0.389   2.891 -0.1954  0.0052  0.4569
 1695ntf    sn213262   3.955   0.446   2.822  0.3133  0.5373 -0.2853
 1695ntf    nn313263   3.859   0.450   2.946  1.1446  0.0032  0.3823
 1695ntf    sn213264   3.847   0.555   3.062 -0.2215  0.0359  0.2327
 1695ntf    cn113265   3.878   0.459   3.213  0.5761 -0.2657 -0.1145
 1695ntf    fn413266   4.101   0.276   2.960 -0.0905 -0.0417  0.3982
 1695ntf    fn413267   4.206   0.378   2.797 -0.1580  0.0730  0.4861
 1695ntf    fn413268   4.157   0.470   2.986  0.2071  0.0862  0.2044
 1695ntf    on513269   3.981   0.576   2.765  0.6224  0.2229 -0.8668
 1695ntf    on513270   3.920   0.335   2.737  0.2625  0.1452  0.2471
 1695ntf    on513271   3.713   0.604   3.080 -0.2439  0.0011  0.1628
 1695ntf    on513272   3.953   0.654   3.066  0.1353 -0.3546  0.5065
 1695ntf    fn413273   3.783   0.369   3.233  0.0824  0.1652 -0.4792
 1695ntf    fn413274   3.989   0.389   3.199  0.5160 -0.3572 -0.1295
 1695ntf    fn413275   3.882   0.532   3.324 -0.4786 -0.2932 -0.0444
 1696ntf    cn113276   5.814   5.283   5.774 -0.5707  0.2844  0.4165
 1696ntf    sn213277   5.950   5.380   5.845 -0.0664  0.1849 -0.4050
 1696ntf    nn313278   6.079   5.330   5.770  0.3119  0.3713  0.1166
 1696ntf    sn213279   6.175   5.214   5.817 -0.0309 -0.0259 -0.1577
 1696ntf    cn113280   6.301   5.319   5.894 -0.3723 -0.2138  0.6674
 1696ntf    fn413281   5.813   5.163   5.829 -0.2934  0.3456  0.5497
 1696ntf    fn413282   5.693   5.337   5.776 -0.6880  0.0432  0.0836
 1696ntf    fn413283   5.844   5.266   5.646  0.2096  0.7460  0.5344
 1696ntf    on513284   5.916   5.515   5.807  0.2412  0.4039  0.0923
 1696ntf    on513285   5.934   5.353   5.986 -0.2882 -0.0831 -0.4802
 1696ntf    on513286   6.242   5.153   5.705  0.0973 -0.5652  0.2126
 1696ntf    on513287   6.123   5.137   5.927 -0.2814  0.6592  0.2140
 1696ntf    fn413288   6.382   5.242   5.963  0.3894  0.0217  0.0537
 1696ntf    fn413289   6.377   5.397   5.818 -0.0069 -0.3306  0.9117
 1696ntf    fn413290   6.248   5.397   5.987 -0.1021  0.2507  0.4386
 1697ntf    cn113291   6.420   0.071   2.723  0.3090  0.3960 -0.1237
 1697ntf    sn213292   6.516   0.136   2.863  0.3588  0.0623 -0.0026
 1697ntf    nn313293   6.478   0.021   2.963  0.3761  0.1453  0.0994
 1697ntf    sn213294   6.560  -0.111   2.989  0.1285 -0.0133  0.0668
 1697ntf    cn113295   6.595  -0.091   3.166  0.5113 -0.1298  0.0050
 1697ntf    fn413296   6.312   0.006   2.762  0.7582 -0.5565 -0.4415
 1697ntf    fn413297   6.395   0.161   2.629 -0.2554  0.2666 -0.1000
 1697ntf    fn413298   6.492  -0.023   2.664  0.0230 -0.1059  0.3226
 1697ntf    on513299   6.651   0.148   2.812  0.2785 -0.1301 -0.2650
 1697ntf    on513300   6.457   0.264   2.893 -0.5375 -0.4136  0.3145
 1697ntf    on513301   6.695  -0.115   2.939  0.2022 -0.2601  0.2840
 1697ntf    on513302   6.477  -0.229   2.983  0.0393  0.0657 -0.3321
 1697ntf    fn413303   6.676  -0.180   3.220  0.1002 -0.3163  0.3242
 1697ntf    fn413304   6.633   0.029   3.207  0.5190 -0.0547 -0.2181
 1697ntf    fn413305   6.482  -0.110   3.232 -0.0424 -0.3713 -0.9846
 1698ntf    cn113306   1.796   3.529   3.800 -0.1782 -0.0398 -0.0676
 1698ntf    sn213307   1.906   3.390   3.759 -0.0455  0.0436  0.0052
 1698ntf    nn313308   1.898   3.377   3.603  0.1166 -0.0547  0.0050
 1698ntf    sn213309   2.007   3.411   3.495  0.1778 -0.1772  0.0277
 1698ntf    cn113310   2.069   3.246   3.450 -0.1960 -0.3437  0.1143
 1698ntf    fn413311   1.853   3.644   3.768 -0.2569  0.0033 -0.0527
 1698ntf    fn413312   1.679   3.523   3.739  0.1361  0.2964 -0.7191
 1698ntf    fn413313   1.762   3.527   3.927 -0.5040  0.4478 -0.1450
 1698ntf    on513314   2.036   3.424   3.811 -0.0383 -0.1363  0.1081
 1698ntf    on513315   1.834   3.282   3.822  0.2982 -0.1233  0.1194
 1698ntf    on513316   2.124   3.478   3.547 -0.0039 -0.0822  0.3178
 1698ntf    on513317   1.944   3.454   3.373  0.1096 -0.4520 -0.0345
 1698ntf    fn413318   1.974   3.180   3.388 -0.2271 -0.3243  0.1414
 1698ntf    fn413319   2.165   3.259   3.360 -0.0813 -0.2605  0.2471
 1698ntf    fn413320   2.109   3.175   3.554  0.2235  0.0267  0.2123
 1699ntf    cn113321   4.909   2.839   2.718 -0.1515  0.0670  0.0722
 1699ntf    sn213322   4.917   2.664   2.669  0.3494  0.0084  0.3578
 1699ntf    nn313323   5.053   2.658   2.590  0.1055 -0.4472 -0.0316
 1699ntf    sn213324   5.066   2.628   2.436  0.0250  0.0422 -0.1364
 1699ntf    cn113325   5.246   2.645   2.422  0.0628 -0.1065  0.1513
 1699ntf    fn413326   4.941   2.919   2.618  0.2370  0.0121  0.1520
 1699ntf    fn413327   4.791   2.868   2.770 -0.0144  0.2471  0.2853
 1699ntf    fn413328   5.001   2.864   2.810 -0.0218 -0.5030  0.1010
 1699ntf    on513329   4.921   2.597   2.796 -0.0199 -0.2538  0.2333
 1699ntf    on513330   4.802   2.647   2.583  0.8148 -0.0474 -0.2651
 1699ntf    on513331   5.005   2.723   2.347 -0.4751 -0.2707 -0.1314
 1699ntf    on513332   5.055   2.488   2.402  0.3608 -0.0371  0.0796
 1699ntf    fn413333   5.304   2.535   2.466  0.3336  0.1352  0.4020
 1699ntf    fn413334   5.285   2.645   2.296 -0.3046  0.2156  0.0352
 1699ntf    fn413335   5.294   2.749   2.488 -0.1305  0.1507 -0.1115
 1700ntf    cn113336   0.209   0.268   5.249 -0.4736  0.1599 -0.1570
 1700ntf    sn213337   0.074   0.390   5.257 -0.3174  0.3109  0.1832
 1700ntf    nn313338   0.089   0.460   5.118 -0.0325 -0.3396 -0.1168
 1700ntf    sn213339  -0.021   0.502   5.014 -0.0990  0.1442  0.1470
 1700ntf    cn113340  -0.061   0.668   5.076  0.0535  0.2436 -0.0179
 1700ntf    fn413341   0.207   0.180   5.347 -0.1610 -0.1438 -0.4186
 1700ntf    fn413342   0.215   0.203   5.133 -0.6256  0.0449 -0.1006
 1700ntf    fn413343   0.323   0.335   5.257 -0.6084  0.3442  0.2113
 1700ntf    on513344  -0.046   0.311   5.269 -0.2093  0.1500  0.2221
 1700ntf    on513345   0.113   0.479   5.363 -0.1225 -0.2118  0.5580
 1700ntf    on513346  -0.144   0.427   5.019  0.0033 -0.0953 -0.7604
 1700ntf    on513347   0.031   0.519   4.880  0.5761  0.4282  0.4403
 1700ntf    fn413348   0.043   0.749   5.070 -0.1674  0.5612  0.3809
 1700ntf    fn413349  -0.159   0.729   5.011 -0.0115 -0.2468 -0.3860
 1700ntf    fn413350  -0.094   0.669   5.204  0.0173 -0.0664 -0.0233
 1701ntf    cn113351   5.010   3.218   4.736  0.1236  0.1411  0.0434
 1701ntf    sn213352   4.943   3.378   4.788 -0.1082  0.0341  0.0751
 1701ntf    nn313353   4.796   3.342   4.828  0.0280 -0.0096  0.5463
 1701ntf    sn213354   4.727   3.313   4.966 -0.1939 -0.3682  0.3610
 1701ntf    cn113355   4.631   3.465   4.996  0.2476  0.0902 -0.5063
 1701ntf    fn413356   5.132   3.221   4.684  0.0378 -0.7107 -0.2239
 1701ntf    fn413357   5.010   3.121   4.825  0.2400 -0.0070 -0.1166
 1701ntf    fn413358   4.941   3.169   4.634  0.6253  0.1060 -0.2886
 1701ntf    on513359   5.026   3.434   4.893 -0.3865 -0.4567  0.5652
 1701ntf    on513360   4.936   3.456   4.667 -0.0111  0.1168  0.1220
 1701ntf    on513361   4.819   3.299   5.076  0.0411  0.7363  0.3227
 1701ntf    on513362   4.614   3.224   4.964 -0.6239  0.1733 -0.0013
 1701ntf    fn413363   4.565   3.498   4.887  0.3397  0.2056 -0.5273
 1701ntf    fn413364   4.542   3.453   5.093 -0.0588  0.0881 -0.7875
 1701ntf    fn413365   4.701   3.575   5.021  0.4178 -0.1006 -0.1351
 1702ntf    cn113366   6.135   2.394   1.582  0.3167  0.0941 -0.0032
 1702ntf    sn213367   6.009   2.294   1.667  0.2101  0.4959  0.3151
 1702ntf    nn313368   6.010   2.170   1.570 -0.3657  0.4495  0.3628
 1702ntf    sn213369   5.906   2.146   1.455  0.4202 -0.1063 -0.2484
 1702ntf    cn113370   6.014   2.185   1.314  0.2775 -0.3816 -0.4351
 1702ntf    fn413371   6.087   2.448   1.471  0.1652 -0.1230 -0.0443
 1702ntf    fn413372   6.175   2.491   1.662 -0.2189  0.5145 -0.2401
 1702ntf    fn413373   6.237   2.320   1.541  0.3488  0.0188  0.2103
 1702ntf    on513374   6.074   2.246   1.786  0.0922  0.5599  0.4059
 1702ntf    on513375   5.890   2.376   1.669  0.2840  0.6256 -0.3429
 1702ntf    on513376   5.798   2.241   1.439  0.2034 -0.2671  0.2188
 1702ntf    on513377   5.877   2.007   1.429 -0.3895  0.0207 -0.0612
 1702ntf    fn413378   6.075   2.302   1.312 -0.1467 -0.1249  0.6165
 1702ntf    fn413379   6.107   2.092   1.309  0.5564 -0.1410  0.1969
 1702ntf    fn413380   5.955   2.175   1.196 -0.2515  0.1619 -0.2209
 1703ntf    cn113381   2.432   1.388   6.445 -0.1031 -0.0623  0.1419
 1703ntf    sn213382   2.279   1.293   6.422  0.0015 -0.2155  0.0842
 1703ntf    nn313383   2.231   1.342   6.281 -0.1251 -0.2289  0.1228
 1703ntf    sn213384   2.186   1.256   6.158 -0.2829 -0.2446  0.1919
 1703ntf    cn113385   2.343   1.228   6.071 -0.4706 -0.2140 -0.1583
 1703ntf    fn413386   2.479   1.362   6.566  0.1682 -0.4553 -0.0496
 1703ntf    fn413387   2.526   1.359   6.356 -0.2701 -0.2203  0.0156
 1703ntf    fn413388   2.408   1.519   6.447  0.4502  0.0379  0.3824
 1703ntf    on513389   2.335   1.160   6.430 -0.1026 -0.2380  0.4514
 1703ntf    on513390   2.191   1.339   6.526  0.7916  0.3115  0.5329
 1703ntf    on513391   2.101   1.331   6.069  0.0693  0.2176  0.2463
 1703ntf    on513392   2.137   1.123   6.186  0.0046 -0.4195 -0.1235
 1703ntf    fn413393   2.440   1.184   6.149  0.0198  0.3157 -0.4641
 1703ntf    fn413394   2.340   1.142   5.970  0.0920 -0.0722 -0.2997
 1703ntf    fn413395   2.399   1.335   6.018  0.1494 -0.2545  0.4121
 1704ntf    cn113396   1.884   0.622   0.382 -0.1567  0.1460  0.1922
 1704ntf    sn213397   1.862   0.563   0.211 -0.1123  0.1429  0.1876
 1704ntf    nn313398   1.741   0.651   0.166 -0.2459 -0.2714 -0.2647
 1704ntf    sn213399   1.751   0.793   0.099  0.2055 -0.1767  0.0018
 1704ntf    cn113400   1.755   0.759  -0.079 -0.1403  0.1159 -0.0624
 1704ntf    fn413401   1.982   0.554   0.440 -0.1009  0.2288  0.1952
 1704ntf    fn413402   1.914   0.751   0.386 -0.2722  0.1696  0.2934
 1704ntf    fn413403   1.781   0.603   0.463 -0.1609 -0.1187  0.1265
 1704ntf    on513404   1.983   0.574   0.133 -0.1899  0.5801  0.1251
 1704ntf    on513405   1.808   0.431   0.233 -0.4654  0.2640  0.0438
 1704ntf    on513406   1.871   0.869   0.121 -0.0339  0.2753 -0.2566
 1704ntf    on513407   1.625   0.862   0.109  0.3784  0.1983 -0.4140
 1704ntf    fn413408   1.871   0.724  -0.131 -0.0597 -0.2713  0.3756
 1704ntf    fn413409   1.659   0.674  -0.114  0.3078 -0.5221  0.2387
 1704ntf    fn413410   1.727   0.868  -0.149 -0.3161  0.0920 -0.0301
 1705ntf    cn113411   1.220   6.150   2.444  0.0684  0.0962  0.0448
 1705ntf    sn213412   1.221   6.176   2.264 -0.0520  0.2193  0.0625
 1705ntf    nn313413   1.354   6.257   2.243  0.4079 -0.7786 -0.9413
 1705ntf    sn213414   1.372   6.387   2.157 -0.2066  0.0602  0.1619
 1705ntf    cn113415   1.478   6.315   2.027 -0.0931  0.3566  0.0898
 1705ntf    fn413416   1.112   6.095   2.495  0.0732  0.2883  0.2660
 1705ntf    fn413417   1.324   6.083   2.491 -0.2505 -0.5258 -0.1401
 1705ntf    fn413418   1.219   6.268   2.506  0.0932 -0.0055  0.2388
 1705ntf    on513419   1.221   6.046   2.203 -0.4814  0.2556 -0.0214
 1705ntf    on513420   1.100   6.248   2.231  0.1001  0.3111 -0.3000
 1705ntf    on513421   1.458   6.484   2.218 -0.3988  0.2995  0.0535
 1705ntf    on513422   1.258   6.423   2.076 -0.0088  0.4437  0.0530
 1705ntf    fn413423   1.511   6.396   1.928  0.0360  0.3859  0.1568
 1705ntf    fn413424   1.586   6.260   2.080 -0.4029  0.0571  0.4149
 1705ntf    fn413425   1.414   6.215   1.969  0.4419 -0.0272  0.1623
 1706ntf    cn113426   1.303   5.094   6.156  0.1436  0.2018 -0.1063
 1706ntf    sn213427   1.408   5.239   6.123  0.1394  0.2583  0.1228
 1706ntf    nn313428   1.352   5.280   5.982 -0.0929  0.1183  0.1733
 1706ntf    sn213429   1.287   5.414   5.932 -0.1694 -0.0896 -0.2878
 1706ntf    cn113430   1.426   5.506   5.861 -0.0475 -0.0147  0.0474
 1706ntf    fn413431   1.356   5.017   6.250 -0.0248  0.3232  0.0885
 1706ntf    fn413432   1.183   5.121   6.203  0.1444 -0.2757  0.1833
 1706ntf    fn413433   1.281   5.025   6.045 -0.5554 -0.4754  0.4430
 1706ntf    on513434   1.382   5.331   6.230 -0.7216  0.1839 -0.0159
 1706ntf    on513435   1.540   5.184   6.105  0.4610  1.1394 -0.2687
 1706ntf    on513436   1.233   5.492   6.040  0.3402 -0.1819  0.0345
 1706ntf    on513437   1.199   5.392   5.819 -0.0019 -0.2520 -0.3875
 1706ntf    fn413438   1.473   5.451   5.750 -0.0369 -0.4633  0.2706
 1706ntf    fn413439   1.390   5.627   5.820  0.5012  0.1304 -0.0154
 1706ntf    fn413440   1.526   5.526   5.946 -0.2534 -0.4440  0.3905
 1707ntf    cn113441   4.213   6.286   4.283  0.0436  0.0333  0.4058
 1707ntf    sn213442   4.311   6.391   4.395  0.2895 -0.0015  0.2236
 1707ntf    nn313443   4.312   6.299   4.522  0.5923 -0.0110  0.2134
 1707ntf    sn213444   4.230   6.307   4.655  0.1036  0.0398 -0.0896
 1707ntf    cn113445   4.349   6.380   4.771 -0.2237  0.0668  0.2296
 1707ntf    fn413446   4.086   6.292   4.321 -0.0474 -0.0086  0.1187
 1707ntf    fn413447   4.214   6.324   4.156  0.2789 -0.2725  0.3164
 1707ntf    fn413448   4.246   6.158   4.280 -0.8143 -0.1904  0.2266
 1707ntf    on513449   4.439   6.404   4.329  0.4638 -0.0830  0.5473
 1707ntf    on513450   4.239   6.515   4.406 -0.2668 -0.2864 -0.1130
 1707ntf    on513451   4.205   6.182   4.722 -0.1739  0.1215 -0.0377
 1707ntf    on513452   4.118   6.398   4.662 -0.2427 -0.3828 -0.1265
 1707ntf    fn413453   4.398   6.497   4.735 -0.0693  0.0098  0.2586
 1707ntf    fn413454   4.294   6.397   4.891  0.0059 -0.7181  0.4516
 1707ntf    fn413455   4.446   6.294   4.795 -0.6660 -0.4429  0.1883
 1708ntf    cn113456   4.155   1.066   5.594 -0.4080  0.3058  0.0322
 1708ntf    sn213457   4.090   0.963   5.459  0.0859 -0.1202  0.1168
 1708ntf    nn313458   3.952   0.920   5.520  0.0141  0.3619  0.3056
 1708ntf    sn213459   3.808   0.968   5.481  0.0040 -0.0391 -0.1729
 1708ntf    cn113460   3.737   0.815   5.414 -0.5065  0.1986 -0.1793
 1708ntf    fn413461   4.265   1.134   5.565 -0.2563 -0.1122 -0.3713
 1708ntf    fn413462   4.073   1.159   5.642 -0.5060  0.1559  0.1532
 1708ntf    fn413463   4.181   0.988   5.698  0.3867  0.1003 -0.3167
 1708ntf    on513464   4.072   1.049   5.344 -0.1052 -0.0679  0.1857
 1708ntf    on513465   4.180   0.852   5.440  0.0014 -0.1190 -0.3034
 1708ntf    on513466   3.795   1.060   5.371 -0.3620 -0.0062 -0.1033
 1708ntf    on513467   3.724   0.990   5.597  0.4275 -0.1795  0.1643
 1708ntf    fn413468   3.625   0.847   5.351 -0.5875  0.5667  0.1458
 1708ntf    fn413469   3.822   0.771   5.323 -0.3263  0.1349  0.0196
 1708ntf    fn413470   3.704   0.719   5.498  0.0636  0.2802  0.1387
 1709ntf    cn113471   1.819   0.761   3.803 -0.0468  0.0966  0.0535
 1709ntf    sn213472   1.662   0.671   3.816  0.1195 -0.2201 -0.1207
 1709ntf    nn313473   1.594   0.747   3.935 -0.1536 -0.3539 -0.1908
 1709ntf    sn213474   1.615   0.742   4.091  0.4102 -0.0967 -0.2559
 1709ntf    cn113475   1.467   0.645   4.134  0.4712 -0.0738  0.0065
 1709ntf    fn413476   1.901   0.738   3.904 -0.4154 -0.3582  0.2512
 1709ntf    fn413477   1.878   0.735   3.687 -0.3271 -0.1478 -0.0346
 1709ntf    fn413478   1.799   0.892   3.790 -0.2711  0.0292 -0.2996
 1709ntf    on513479   1.599   0.698   3.689  0.1474  0.1196 -0.0625
 1709ntf    on513480   1.707   0.536   3.842 -0.2249 -0.2967  0.0909
 1709ntf    on513481   1.598   0.869   4.158 -0.4841 -0.3018 -0.0726
 1709ntf    on513482   1.726   0.661   4.135  0.1733 -0.3388 -0.0928
 1709ntf    fn413483   1.456   0.535   4.061 -0.4146 -0.0520  0.0999
 1709ntf    fn413484   1.465   0.600   4.258 -0.2683  0.0627  0.0472
 1709ntf    fn413485   1.359   0.718   4.112  0.1342 -0.6127 -0.1555
 1710ntf    cn113486   2.778   6.080   6.027  0.2253  0.0950  0.4131
 1710ntf    sn213487   2.873   6.214   5.950  0.3570 -0.1944  0.0691
 1710ntf    nn313488   2.854   6.161   5.804  0.0970  0.0231  0.0224
 1710ntf    sn213489   2.961   6.165   5.689  0.1001 -0.3276  0.0129
 1710ntf    cn113490   3.034   6.000   5.711  0.2071 -0.2847 -0.0168
 1710ntf    fn413491   2.663   6.061   5.964 -0.2048  0.5659  1.0389
 1710ntf    fn413492   2.847   5.966   6.029 -0.1768 -0.1528  0.2736
 1710ntf    fn413493   2.742   6.089   6.154  0.2799 -0.1589  0.4472
 1710ntf    on513494   2.799   6.333   5.985  0.8194  0.0443  0.2492
 1710ntf    on513495   3.008   6.211   6.003  0.5952  0.0900 -0.5160
 1710ntf    on513496   3.071   6.256   5.710 -0.1069 -0.1849  0.4774
 1710ntf    on513497   2.896   6.149   5.561  0.0292 -0.5883  0.0794
 1710ntf    fn413498   3.090   5.990   5.831  0.3357 -0.1819 -0.0686
 1710ntf    fn413499   2.954   5.896   5.695  0.3566 -0.2839 -0.8089
 1710ntf    fn413500   3.126   5.981   5.618  0.4140  0.2717  0.0749
 1711ntf    cn113501   3.720   5.643   5.194 -0.6411 -0.0530  0.3019
 1711ntf    sn213502   3.707   5.773   5.320 -0.0052  0.1468  0.1675
 1711ntf    nn313503   3.556   5.809   5.294 -0.0795 -0.3172 -0.0546
 1711ntf    sn213504   3.428   5.813   5.384 -0.0778  0.1383 -0.0723
 1711ntf    cn113505   3.332   5.932   5.286  0.0940  0.0905 -0.2978
 1711ntf    fn413506   3.726   5.522   5.249  0.0952 -0.2139 -0.1100
 1711ntf    fn413507   3.627   5.642   5.100 -0.2283  0.1057 -0.1123
 1711ntf    fn413508   3.832   5.655   5.124 -0.4075  0.1439  0.7075
 1711ntf    on513509   3.735   5.709   5.446  0.3252 -0.4860 -0.2188
 1711ntf    on513510   3.790   5.884   5.282 -0.2438  0.0332 -0.7124
 1711ntf    on513511   3.457   5.876   5.511  0.1950  0.4003 -0.2634
 1711ntf    on513512   3.356   5.688   5.382 -0.3107  0.2410  1.1421
 1711ntf    fn413513   3.241   5.983   5.367  0.1856 -0.0164 -0.1276
 1711ntf    fn413514   3.401   6.035   5.238 -0.1296  0.2441 -0.2942
 1711ntf    fn413515   3.275   5.866   5.187 -0.7021  0.8556 -0.3687
 1712ntf    cn113516   2.133   4.865   1.260  0.0514 -0.3021  0.1748
 1712ntf    sn213517   2.254   4.990   1.311  0.0820 -0.2452 -0.0341
 1712ntf    nn313518   2.146   5.102   1.334  0.1256 -0.1721 -0.1867
 1712ntf    sn213519   2.100   5.222   1.244 -0.4391 -0.2669 -0.0271
 1712ntf    cn113520   2.206   5.353   1.310 -0.5567  0.1061 -0.5719
 1712ntf    fn413521   2.078   4.896   1.144 -0.0423 -0.3220  0.2144
 1712ntf    fn413522   2.183   4.744   1.243 -0.1966 -0.2470 -1.0429
 1712ntf    fn413523   2.034   4.848   1.345  0.4323 -0.5854  0.5694
 1712ntf    on513524   2.315   4.937   1.431 -0.0137  0.0778  0.1606
 1712ntf    on513525   2.337   4.998   1.193  0.5232 -0.9464  0.2219
 1712ntf    on513526   1.962   5.251   1.274 -0.4692 -0.2386 -0.1905
 1712ntf    on513527   2.137   5.209   1.105  0.1065 -0.7271  0.1569
 1712ntf    fn413528   2.172   5.475   1.271 -0.2857  0.3496 -0.0623
 1712ntf    fn413529   2.200   5.361   1.442 -0.5559  0.0361 -0.5680
 1712ntf    fn413530   2.334   5.329   1.286 -0.3257  0.0432  0.6474
 1713ntf    cn113531   2.273   3.922   5.811  0.0811  0.5179  0.4149
 1713ntf    sn213532   2.098   3.933   5.860 -0.1957 -0.0359 -0.4296
 1713ntf    nn313533   2.103   4.057   5.956 -0.0909 -0.3220 -0.0629
 1713ntf    sn213534   2.038   4.198   5.931  0.5360 -0.0022  0.0926
 1713ntf    cn113535   1.917   4.198   6.066  0.4422 -0.1675  0.0092
 1713ntf    fn413536   2.300   3.816   5.736 -0.6148  0.0551  0.8128
 1713ntf    fn413537   2.300   4.024   5.730 -0.8294  0.0976 -0.4443
 1713ntf    fn413538   2.359   3.933   5.910  0.2249  0.2988  0.3142
 1713ntf    on513539   2.026   3.956   5.737 -0.5217  0.0459 -0.2250
 1713ntf    on513540   2.082   3.805   5.926  0.5819  0.0664 -0.0260
 1713ntf    on513541   1.964   4.216   5.808 -0.0118 -0.1026  0.4044
 1713ntf    on513542   2.130   4.303   5.964 -0.1116  0.5160  0.2704
 1713ntf    fn413543   1.830   4.298   6.063  0.5374 -0.1018 -0.6644
 1713ntf    fn413544   1.838   4.093   6.055  0.3699 -0.0874 -0.2357
 1713ntf    fn413545   1.973   4.191   6.186  0.2467 -0.0250  0.1088
 1714ntf    cn113546   3.656   3.822   0.675  0.0489  0.1321 -0.0797
 1714ntf    sn213547   3.531   3.690   0.675 -0.2728  0.4314  0.1702
 1714ntf    nn313548   3.407   3.759   0.742 -0.4413  0.3633 -0.0710
 1714ntf    sn213549   3.334   3.724   0.877 -0.6171  0.2215 -0.2020
 1714ntf    cn113550   3.413   3.841   0.992  0.0281 -0.0807 -0.3371
 1714ntf    fn413551   3.776   3.772   0.653 -0.0425 -0.1325  0.0211
 1714ntf    fn413552   3.640   3.912   0.579 -0.2726 -0.0067 -0.1586
 1714ntf    fn413553   3.659   3.886   0.791  0.0623  0.3451 -0.1958
 1714ntf    on513554   3.514   3.663   0.535  0.0386 -0.0129  0.2132
 1714ntf    on513555   3.592   3.581   0.748  0.3162  0.6628  0.0314
 1714ntf    on513556   3.360   3.595   0.934 -0.4409  0.0892 -0.5754
 1714ntf    on513557   3.196   3.765   0.876 -0.5497  0.4423 -0.5712
 1714ntf    fn413558   3.385   3.967   0.962  0.3426  0.1885  0.4836
 1714ntf    fn413559   3.371   3.826   1.116  0.1775 -0.4353 -0.3273
 1714ntf    fn413560   3.545   3.830   0.992  0.0346  0.0020 -0.2071
 1715ntf    cn113561   0.754   0.009   0.388 -0.1627 -0.4919 -0.0795
 1715ntf    sn213562   0.744   0.154   0.496  0.0018 -0.1924 -0.4627
 1715ntf    nn313563   0.885   0.156   0.565  0.1567 -0.2537 -0.7750
 1715ntf    sn213564   1.018   0.232   0.530  0.3293 -0.0856  0.2066
 1715ntf    cn113565   1.054   0.310   0.690 -0.2054  0.1386  0.2219
 1715ntf    fn413566   0.657   0.010   0.297 -0.5115 -0.5591  0.2872
 1715ntf    fn413567   0.865   0.002   0.316  0.2490  0.1525  0.4913
 1715ntf    fn413568   0.747  -0.106   0.453  0.3247 -0.3425  0.2354
 1715ntf    on513569   0.713   0.253   0.397  0.0724 -0.7690 -1.0669
 1715ntf    on513570   0.644   0.121   0.595  0.4046  0.5810  0.2121
 1715ntf    on513571   0.999   0.331   0.426  0.7658  0.1220  0.3254
 1715ntf    on513572   1.130   0.142   0.518 -0.0015 -0.3776 -0.7701
 1715ntf    fn413573   0.963   0.394   0.737 -0.5463 -0.2112  0.1865
 1715ntf    fn413574   1.060   0.214   0.780  0.0806 -0.2988 -0.2600
 1715ntf    fn413575   1.170   0.374   0.689  0.3560 -0.8549  0.5791
 1716ntf    cn113576   4.043   4.597   5.282  0.0396 -0.0856 -0.4074
 1716ntf    sn213577   4.051   4.541   5.455 -0.1943 -0.0586 -0.3880
 1716ntf    nn313578   4.179   4.618   5.501 -0.0961 -0.4324 -0.0329
 1716ntf    sn213579   4.314   4.552   5.546  0.0377 -0.0217  0.1800
 1716ntf    cn113580   4.395   4.506   5.390  0.2955  0.0350  0.2965
 1716ntf    fn413581   4.053   4.728   5.265  0.0339  0.0641  0.6771
 1716ntf    fn413582   4.144   4.550   5.210 -0.2621 -0.7599 -0.3946
 1716ntf    fn413583   3.932   4.559   5.223  0.1193  0.0768 -0.6646
 1716ntf    on513584   3.935   4.601   5.517 -0.0825  0.2706 -0.4936
 1716ntf    on513585   4.061   4.398   5.448 -0.2057 -0.1293  0.8803
 1716ntf    on513586   4.298   4.435   5.629  0.2743 -0.2316 -0.0677
 1716ntf    on513587   4.408   4.652   5.593  0.0699  0.1963 -0.3458
 1716ntf    fn413588   4.517   4.455   5.399  0.1988 -0.5132 -1.2459
 1716ntf    fn413589   4.335   4.424   5.305 -0.2265  0.3038  0.4064
 1716ntf    fn413590   4.420   4.617   5.322  0.2562 -0.0900  0.0770
 1717ntf    cn113591   0.770   4.501   5.779  0.6599 -0.1646  0.2770
 1717ntf    sn213592   0.687   4.663   5.789  0.2608 -0.3173 -0.5052
 1717ntf    nn313593   0.749   4.713   5.924 -0.5479 -0.3858 -0.1036
 1717ntf    sn213594   0.675   4.792   6.038 -0.2367  0.1554 -0.2771
 1717ntf    cn113595   0.674   4.675   6.176 -0.0601  0.1103 -0.3141
 1717ntf    fn413596   0.711   4.419   5.864  0.1950 -0.5215 -0.3819
 1717ntf    fn413597   0.757   4.443   5.661 -0.1581 -0.8611  0.6999
 1717ntf    fn413598   0.896   4.518   5.816  0.4901  0.5777  0.5371
 1717ntf    on513599   0.739   4.743   5.682 -0.0512  0.1235 -0.3301
 1717ntf    on513600   0.546   4.633   5.781  0.1498  0.0464  0.0268
 1717ntf    on513601   0.536   4.825   6.020 -0.1664  0.2858 -0.5924
 1717ntf    on513602   0.757   4.896   6.095 -0.2041  0.1698 -0.3502
 1717ntf    fn413603   0.792   4.658   6.234 -0.3432 -0.0417  0.2303
 1717ntf    fn413604   0.593   4.699   6.278  0.3665  0.4105 -0.0450
 1717ntf    fn413605   0.646   4.552   6.137 -0.1041  0.0560 -0.1169
 1718ntf    cn113606   0.916   6.264   6.076 -0.1725  0.1565  0.0824
 1718ntf    sn213607   0.744   6.319   6.091 -0.1627  0.2693 -0.2212
 1718ntf    nn313608   0.738   6.452   6.008 -0.0982  0.3406 -0.1108
 1718ntf    sn213609   0.747   6.473   5.853  0.8392 -0.0507 -0.1173
 1718ntf    cn113610   0.574   6.510   5.811  0.7350  0.2654  0.5846
 1718ntf    fn413611   0.947   6.265   5.948 -0.5998 -0.3838 -0.0289
 1718ntf    fn413612   1.003   6.331   6.151  0.2583 -0.3058  0.0066
 1718ntf    fn413613   0.919   6.140   6.123  0.2640  0.0802 -0.1441
 1718ntf    on513614   0.664   6.220   6.023  0.2222  0.1163 -0.4570
 1718ntf    on513615   0.729   6.337   6.233  0.6749  0.7127 -0.1833
 1718ntf    on513616   0.784   6.358   5.774  0.6899  0.3158 -0.7318
 1718ntf    on513617   0.812   6.600   5.833  0.1098  0.4489  0.6232
 1718ntf    fn413618   0.551   6.520   5.681  0.2074 -0.0557  0.6523
 1718ntf    fn413619   0.493   6.419   5.862  0.3015  0.1131 -0.3659
 1718ntf    fn413620   0.538   6.627   5.861  0.4324  0.4014  0.0591
 1719ntf    cn113621   4.215   2.009   1.549 -0.3954 -0.3847  0.1391
 1719ntf    sn213622   4.325   1.980   1.406 -0.0192 -0.2592  0.3999
 1719ntf    nn313623   4.464   2.006   1.474  0.0906  0.0886  0.0466
 1719ntf    sn213624   4.591   2.078   1.418 -0.0140  0.3908  0.1933
 1719ntf    cn113625   4.556   2.254   1.441  0.1836  0.4668 -0.0752
 1719ntf    fn413626   4.088   1.999   1.514 -0.4161 -0.4704  0.2400
 1719ntf    fn413627   4.234   1.936   1.658 -0.2351 -0.1028  0.3004
 1719ntf    fn413628   4.230   2.134   1.588 -1.0811 -0.1699 -0.2762
 1719ntf    on513629   4.308   1.840   1.377 -0.0108 -0.0775 -0.5023
 1719ntf    on513630   4.270   2.075   1.312  0.5367 -0.3807 -0.0506
 1719ntf    on513631   4.605   2.070   1.275 -1.0718 -0.4515  0.1252
 1719ntf    on513632   4.708   2.050   1.498  0.0534 -0.7293 -0.2675
 1719ntf    fn413633   4.515   2.283   1.564 -0.1610 -0.7085  0.0922
 1719ntf    fn413634   4.664   2.325   1.413 -0.0390  0.6962 -0.3584
 1719ntf    fn413635   4.460   2.301   1.363 -0.0901  0.0305 -0.0031
 1720ntf    cn113636   0.809   2.320   2.027  0.2268 -0.1171 -0.3844
 1720ntf    sn213637   0.636   2.273   2.056  0.2543  0.0068 -0.0080
 1720ntf    nn313638   0.666   2.121   2.084  0.0690  0.0863  0.6320
 1720ntf    sn213639   0.571   1.996   2.092 -0.1335  0.2011  0.0859
 1720ntf    cn113640   0.517   2.024   2.263 -0.4286  0.2201 -0.0102
 1720ntf    fn413641   0.864   2.262   1.922  0.2582 -0.0608 -0.3991
 1720ntf    fn413642   0.821   2.451   2.020  0.4790 -0.1239 -0.1120
 1720ntf    fn413643   0.880   2.282   2.132 -0.2269  0.3535  0.0982
 1720ntf    on513644   0.601   2.348   2.174  0.3038 -0.3918  0.2628
 1720ntf    on513645   0.556   2.302   1.940  0.1279  0.4375  0.1855
 1720ntf    on513646   0.646   1.874   2.112 -0.3413 -0.0089 -0.4181
 1720ntf    on513647   0.447   1.991   2.019 -0.2257  0.3218  0.2351
 1720ntf    fn413648   0.621   2.054   2.339 -0.4862 -0.0716  0.1848
 1720ntf    fn413649   0.438   2.130   2.266 -0.0813  0.4692  0.4953
 1720ntf    fn413650   0.450   1.924   2.319  0.1826  0.1233  0.5636
 1721ntf    cn113651   5.281   6.493   5.499  0.3114 -0.1108 -0.5065
 1721ntf    sn213652   5.382   6.629   5.565  0.0032 -0.1527  0.0571
 1721ntf    nn313653   5.259   6.716   5.607  0.2050 -0.0713  0.4929
 1721ntf    sn213654   5.242   6.847   5.692  0.2886  0.0782  0.2798
 1721ntf    cn113655   5.208   6.774   5.855  0.0477 -0.2041  0.1032
 1721ntf    fn413656   5.204   6.441   5.593  0.3028  0.0648 -0.4163
 1721ntf    fn413657   5.194   6.544   5.413 -0.4440  0.1284  0.3864
 1721ntf    fn413658   5.351   6.396   5.444  0.5503 -0.1515 -0.1367
 1721ntf    on513659   5.464   6.578   5.672 -0.0305 -0.3020  0.0122
 1721ntf    on513660   5.449   6.678   5.448 -0.0214  0.3258  0.2426
 1721ntf    on513661   5.121   6.918   5.657  0.1116 -0.4018 -0.0908
 1721ntf    on513662   5.354   6.932   5.724  0.3377  0.2371 -0.3099
 1721ntf    fn413663   5.308   6.710   5.912  0.3652 -0.1496 -0.3828
 1721ntf    fn413664   5.180   6.866   5.945 -0.3933 -0.2699  0.0363
 1721ntf    fn413665   5.106   6.689   5.844  0.3587 -0.5801  0.1136
 1722ntf    cn113666   1.971   0.831   5.416  0.2080 -0.1089  0.2635
 1722ntf    sn213667   1.865   0.690   5.460  0.1492 -0.1872 -0.1308
 1722ntf    nn313668   1.774   0.683   5.331  0.2614 -0.3353 -0.2023
 1722ntf    sn213669   1.641   0.763   5.310  0.1770 -0.3212  0.3611
 1722ntf    cn113670   1.649   0.779   5.129  0.0216  0.0229  0.3837
 1722ntf    fn413671   2.017   0.823   5.292  0.2252  0.0142  0.2609
 1722ntf    fn413672   1.914   0.949   5.432  0.1327 -0.1870  0.5804
 1722ntf    fn413673   2.069   0.844   5.503 -0.2899  0.1329  0.7935
 1722ntf    on513674   1.955   0.578   5.468 -0.0527 -0.3250  0.2314
 1722ntf    on513675   1.797   0.732   5.580 -0.2702  0.5633 -0.6173
 1722ntf    on513676   1.633   0.897   5.362 -0.4783 -0.3532  0.3459
 1722ntf    on513677   1.532   0.671   5.327 -0.2334  0.0560 -0.1776
 1722ntf    fn413678   1.766   0.834   5.098 -0.0423 -0.0222  0.0560
 1722ntf    fn413679   1.642   0.672   5.051 -0.0189 -0.2708  0.7841
 1722ntf    fn413680   1.548   0.853   5.087  0.0627  0.0424  0.3177
 1723ntf    cn113681   1.686   5.752   0.289  0.2364  0.3252  0.3135
 1723ntf    sn213682   1.574   5.609   0.297  0.2322  0.3394  0.4882
 1723ntf    nn313683   1.665   5.489   0.251 -0.6288 -0.1697  0.0958
 1723ntf    sn213684   1.689   5.416   0.114  0.1991 -0.3226  0.3226
 1723ntf    cn113685   1.580   5.273   0.139  0.0001 -0.1839  0.2539
 1723ntf    fn413686   1.760   5.746   0.179 -0.0432  0.5466  0.1126
 1723ntf    fn413687   1.621   5.867   0.283 -0.2350  0.0509  0.0384
 1723ntf    fn413688   1.764   5.753   0.396 -0.4433  0.0440  0.8217
 1723ntf    on513689   1.538   5.603   0.437 -0.0406 -0.1054  0.4018
 1723ntf    on513690   1.463   5.645   0.213  0.4712 -0.2410 -0.0868
 1723ntf    on513691   1.819   5.354   0.114  0.7047  0.7037  0.0355
 1723ntf    on513692   1.633   5.482  -0.002  0.5386 -0.0339  0.3188
 1723ntf    fn413693   1.591   5.219   0.260 -0.0533  0.1256  0.3982
 1723ntf    fn413694   1.456   5.318   0.137 -0.0865 -0.4119  0.4253
 1723ntf    fn413695   1.583   5.176   0.049  0.7448 -0.1402  0.2240
 1724ntf    cn113696   6.719   5.664   2.633  0.3648  0.0278  0.2160
 1724ntf    sn213697   6.620   5.544   2.726 -0.2590  0.2077 -0.2091
 1724ntf    nn313698   6.591   5.627   2.856 -0.3689 -0.1712  0.0106
 1724ntf    sn213699   6.608   5.603   3.011 -0.0075  0.1996  0.0303
 1724ntf    cn113700   6.782   5.650   3.037  0.0014  0.1779  0.0088
 1724ntf    fn413701   6.840   5.697   2.674  0.4403 -0.4053  0.3503
 1724ntf    fn413702   6.728   5.621   2.508  0.0838  0.0108  0.2012
 1724ntf    fn413703   6.656   5.776   2.602  0.2589 -0.0991 -0.0389
 1724ntf    on513704   6.500   5.535   2.646 -0.2915  0.1578 -0.1543
 1724ntf    on513705   6.699   5.424   2.743  0.1158  0.5507  0.5051
 1724ntf    on513706   6.601   5.468   3.060 -0.2157  0.1941 -0.0128
 1724ntf    on513707   6.539   5.704   3.088 -0.2937 -0.2207  0.3249
 1724ntf    fn413708   6.807   5.777   3.014 -0.2651  0.2332  0.0255
 1724ntf    fn413709   6.824   5.629   3.161 -0.3108  0.1824  0.1168
 1724ntf    fn413710   6.862   5.586   2.953 -0.3418 -0.5410  0.2134
 1725ntf    cn113711   6.135   4.300   5.088 -0.1763  0.0641 -0.1869
 1725ntf    sn213712   6.168   4.133   5.151 -0.0117  0.2434  0.2092
 1725ntf    nn313713   6.179   4.041   5.024  0.1471 -0.1042  0.4713
 1725ntf    sn213714   6.294   3.954   4.963 -0.0438  0.0475 -0.1109
 1725ntf    cn113715   6.227   3.787   4.988  0.0088  0.0265 -0.1104
 1725ntf    fn413716   6.122   4.390   5.185  0.3048  0.4101 -0.4410
 1725ntf    fn413717   6.230   4.338   5.004  0.3276 -0.6364  0.0571
 1725ntf    fn413718   6.027   4.307   5.012  0.1130  0.0023 -0.6023
 1725ntf    on513719   6.297   4.149   5.212  0.1920 -0.1264 -0.1212
 1725ntf    on513720   6.056   4.108   5.239 -0.1526  0.0938 -0.0135
 1725ntf    on513721   6.416   3.956   5.039  0.2056  0.8294 -0.5243
 1725ntf    on513722   6.299   3.974   4.820  0.2988 -0.2847 -0.1449
 1725ntf    fn413723   6.307   3.692   4.943  0.0737 -0.2525  0.5812
 1725ntf    fn413724   6.208   3.767   5.118  0.0812 -0.1457 -0.1266
 1725ntf    fn413725   6.116   3.761   4.920 -0.0467 -0.3351  0.1136
 1726ntf    cn113726   2.637   3.179   3.047  0.3291 -0.2735  0.1058
 1726ntf    sn213727   2.673   3.099   2.888 -0.0350  0.0892 -0.1589
 1726ntf    nn313728   2.685   3.234   2.809 -0.1946  0.4561  0.4318
 1726ntf    sn213729   2.813   3.316   2.768  0.0205 -0.1834 -0.2055
 1726ntf    cn113730   2.868   3.232   2.616 -0.2214  0.0932 -0.4500
 1726ntf    fn413731   2.515   3.229   3.056  0.2310 -0.4611 -0.1836
 1726ntf    fn413732   2.648   3.101   3.153 -0.3948  0.0990  0.4632
 1726ntf    fn413733   2.719   3.282   3.064  0.3188 -0.1979 -0.3145
 1726ntf    on513734   2.792   3.022   2.912 -0.1335 -0.2306 -0.6848
 1726ntf    on513735   2.551   3.025   2.866  0.1801 -0.3171  0.0017
 1726ntf    on513736   2.924   3.295   2.857  0.0172 -0.8119 -0.3444
 1726ntf    on513737   2.786   3.446   2.710 -0.4204  0.2085  0.8552
 1726ntf    fn413738   2.970   3.295   2.561 -0.2779 -0.0152 -0.6810
 1726ntf    fn413739   2.897   3.107   2.648  0.2259  0.3598  0.2134
 1726ntf    fn413740   2.784   3.218   2.516  0.5419  0.0472 -1.0937
 1727ntf    cn113741   4.011   1.691   5.974  0.5295 -0.2044 -0.3901
 1727ntf    sn213742   4.056   1.594   6.122 -0.3191 -0.1539 -0.0958
 1727ntf    nn313743   4.087   1.710   6.223 -0.4754 -0.2838  0.1026
 1727ntf    sn213744   4.040   1.736   6.370  0.2204 -0.1972  0.3116
 1727ntf    cn113745   3.904   1.850   6.333  0.4128 -0.1825 -0.3485
 1727ntf    fn413746   3.894   1.750   5.991  0.5932 -0.3073  0.4663
 1727ntf    fn413747   4.103   1.782   5.948  0.3800 -0.1453 -0.7060
 1727ntf    fn413748   4.009   1.619   5.863 -0.0726 -0.3625 -0.2810
 1727ntf    on513749   3.937   1.516   6.146 -0.6160  0.3375  0.0524
 1727ntf    on513750   4.175   1.522   6.083  0.0564  0.0609  0.6423
 1727ntf    on513751   4.138   1.813   6.443  0.4618 -0.1107 -0.1004
 1727ntf    on513752   3.980   1.625   6.440  0.0480  0.2799  0.9317
 1727ntf    fn413753   3.805   1.786   6.271  0.0426 -0.0687  0.1199
 1727ntf    fn413754   3.837   1.907   6.431  0.7146 -0.7897  0.2131
 1727ntf    fn413755   3.942   1.948   6.252  0.2451 -0.1013 -0.3306
 1728ntf    cn113756   1.217   3.342   1.542  0.2106  0.1207  0.0121
 1728ntf    sn213757   1.285   3.468   1.429  0.2966 -0.2160 -0.3129
 1728ntf    nn313758   1.176   3.576   1.464  0.6339  0.1783 -0.4787
 1728ntf    sn213759   1.093   3.665   1.365  0.0175 -0.2432 -0.3479
 1728ntf    cn113760   1.205   3.809   1.361 -0.3759  0.0837  0.2206
 1728ntf    fn413761   1.222   3.381   1.668  0.6690  0.2294 -0.0364
 1728ntf    fn413762   1.090   3.318   1.515  0.3004  0.1917 -0.4923
 1728ntf    fn413763   1.281   3.226   1.542  0.2924  0.1629 -0.5513
 1728ntf    on513764   1.416   3.491   1.484  0.1228 -0.6249  0.2931
 1728ntf    on513765   1.264   3.413   1.297 -0.4654  0.1818 -0.3631
 1728ntf    on513766   0.977   3.718   1.432  0.4453 -0.1089  0.2964
 1728ntf    on513767   1.083   3.620   1.229  0.0689  0.1300 -0.4780
 1728ntf    fn413768   1.187   3.893   1.260  0.3892 -0.1562 -0.1253
 1728ntf    fn413769   1.212   3.872   1.477 -0.3544  0.0314  0.2477
 1728ntf    fn413770   1.324   3.755   1.342 -0.4673 -0.1187  0.2137
 1729ntf    cn113771   4.470   4.604   3.446  0.1279  0.0608  0.2410
 1729ntf    sn213772   4.617   4.710   3.436  0.0614  0.1535  0.2313
 1729ntf    nn313773   4.600   4.778   3.296 -0.1037 -0.3901 -0.0161
 1729ntf    sn213774   4.651   4.724   3.158 -0.1918 -0.3757 -0.0540
 1729ntf    cn113775   4.492   4.735   3.070 -0.0602  0.3971 -0.2064
 1729ntf    fn413776   4.473   4.504   3.360  0.3022  0.1359  0.1612
 1729ntf    fn413777   4.446   4.543   3.561 -0.0030 -0.1592  0.0958
 1729ntf    fn413778   4.357   4.671   3.424 -0.2045 -0.6690 -0.3043
 1729ntf    on513779   4.592   4.805   3.542 -0.2222  0.2542  0.0726
 1729ntf    on513780   4.723   4.614   3.458 -0.0556  0.1304  0.7158
 1729ntf    on513781   4.707   4.592   3.149 -0.1527 -0.3426 -0.3142
 1729ntf    on513782   4.731   4.825   3.092  0.5001 -0.3895  0.7491
 1729ntf    fn413783   4.448   4.860   3.069 -0.1332  0.3732 -0.0203
 1729ntf    fn413784   4.504   4.695   2.945  0.3602 -0.4365  0.0967
 1729ntf    fn413785   4.398   4.659   3.125 -0.0469  0.6002  0.0981
 1730ntf    cn113786   2.629   4.942   4.368  0.1457  0.2280  0.0291
 1730ntf    sn213787   2.566   4.945   4.538 -0.3029  0.0448 -0.1305
 1730ntf    nn313788   2.648   4.830   4.608 -0.3594  0.1838  0.1641
 1730ntf    sn213789   2.787   4.848   4.680 -0.1378  0.2151 -0.2682
 1730ntf    cn113790   2.735   4.875   4.852 -0.0301 -0.0345 -0.1964
 1730ntf    fn413791   2.752   4.989   4.366  0.0755  0.3979 -0.7518
 1730ntf    fn413792   2.641   4.821   4.314  0.3988  0.2271  0.0846
 1730ntf    fn413793   2.559   5.020   4.286 -0.2625  0.0690  0.2229
 1730ntf    on513794   2.587   5.080   4.585 -0.4215 -0.0224  0.1170
 1730ntf    on513795   2.431   4.896   4.527 -0.3134  0.0207  0.0996
 1730ntf    on513796   2.868   4.963   4.649  0.4142 -0.1884 -0.3297
 1730ntf    on513797   2.855   4.722   4.694 -0.4510  0.0804  0.0648
 1730ntf    fn413798   2.683   4.767   4.910 -0.1313  0.0970 -0.0408
 1730ntf    fn413799   2.831   4.923   4.930 -0.2958 -0.3964  0.3573
 1730ntf    fn413800   2.638   4.962   4.869 -0.1533 -0.0851 -0.6235
 1731ntf    cn113801   6.014   2.323   0.717 -0.0223  0.3265  0.4323
 1731ntf    sn213802   6.153   2.434   0.680  0.0373  0.0953 -0.0495
 1731ntf    nn313803   6.272   2.335   0.707  0.0852  0.2727  0.4006
 1731ntf    sn213804   6.418   2.340   0.650 -0.0854 -0.0546 -0.0666
 1731ntf    cn113805   6.409   2.206   0.527 -0.1991 -0.0949 -0.0147
 1731ntf    fn413806   6.023   2.269   0.838 -0.6725 -0.3221  0.2041
 1731ntf    fn413807   5.895   2.381   0.714 -0.1977 -0.0344  0.3545
 1731ntf    fn413808   6.013   2.221   0.632  0.2089  0.7618 -0.0928
 1731ntf    on513809   6.139   2.470   0.542 -0.0802 -0.3404 -0.1540
 1731ntf    on513810   6.136   2.539   0.778 -0.0386  0.1232 -0.0925
 1731ntf    on513811   6.506   2.298   0.757  0.0299  0.2543 -0.0411
 1731ntf    on513812   6.452   2.453   0.567 -0.6376  0.4263  0.3558
 1731ntf    fn413813   6.300   2.215   0.453 -0.4557 -0.0234  0.3664
 1731ntf    fn413814   6.518   2.196   0.452 -0.3420 -0.2462 -0.2030
 1731ntf    fn413815   6.396   2.088   0.585  0.4897 -0.3616 -0.3820
 1732ntf    cn113816   0.660   0.081   3.040  0.4777  0.1755  0.1337
 1732ntf    sn213817   0.563   0.232   3.014  0.0552 -0.1415 -0.1602
 1732ntf    nn313818   0.549   0.230   2.858 -0.0401 -0.2112 -0.1512
 1732ntf    sn213819   0.502   0.348   2.766  0.0647 -0.0871 -0.0472
 1732ntf    cn113820   0.419   0.254   2.634 -0.0119 -0.2526  0.1183
 1732ntf    fn413821   0.786   0.092   3.001  0.3091  0.5410 -0.3261
 1732ntf    fn413822   0.659   0.045   3.167  0.1250  0.2685  0.1585
 1732ntf    fn413823   0.614  -0.022   2.970  0.4384  0.2438  0.0575
 1732ntf    on513824   0.437   0.202   3.079  0.2387 -0.6224 -0.0286
 1732ntf    on513825   0.657   0.327   3.069  0.3617 -0.4239 -0.1945
 1732ntf    on513826   0.607   0.412   2.691  0.3300 -0.2397  0.1955
 1732ntf    on513827   0.395   0.425   2.825  0.1495  0.1257 -0.1679
 1732ntf    fn413828   0.344   0.324   2.550  0.3970 -0.1563 -0.1710
 1732ntf    fn413829   0.507   0.185   2.562 -0.2941  0.0083 -0.4837
 1732ntf    fn413830   0.340   0.161   2.685  0.1060 -0.2990  0.2172
 1733ntf    cn113831   2.026   1.581   4.089 -0.0569  0.2931  0.3739
 1733ntf    sn213832   1.944   1.482   4.217 -0.2118  0.0443  0.0832
 1733ntf    nn313833   1.890   1.605   4.297  0.0845  0.3220 -0.1408
 1733ntf    sn213834   1.889   1.623   4.453  0.1426 -0.2662 -0.0713
 1733ntf    cn113835   2.064   1.667   4.477  0.0952 -0.0338 -0.1439
 1733ntf    fn413836   2.111   1.668   4.140 -0.0196  0.3741  0.1783
 1733ntf    fn413837   2.096   1.499   4.011 -0.3138  0.5816 -0.1681
 1733ntf    fn413838   1.944   1.646   4.007 -0.6324 -0.4895  0.3211
 1733ntf    on513839   1.847   1.411   4.137  0.1222 -0.0138 -0.2752
 1733ntf    on513840   2.058   1.411   4.271 -0.1504  0.2342  0.2014
 1733ntf    on513841   1.876   1.506   4.537  0.2601 -0.3970 -0.2343
 1733ntf    on513842   1.807   1.737   4.487 -0.1260 -0.4728 -0.0256
 1733ntf    fn413843   2.081   1.724   4.595 -0.0847 -0.7049  0.2151
 1733ntf    fn413844   2.144   1.561   4.468 -0.0228 -0.1767  0.4047
 1733ntf    fn413845   2.105   1.745   4.380  0.3224  0.5575  0.4234
 1734ntf    cn113846   4.729   0.211   0.110 -0.1764  0.1409 -0.2039
 1734ntf    sn213847   4.702   0.361   0.209  0.1763  0.0299  0.0620
 1734ntf    nn313848   4.823   0.450   0.161  0.2461 -0.1056 -0.0135
 1734ntf    sn213849   4.818   0.606   0.149 -0.0930 -0.1031  0.1317
 1734ntf    cn113850   4.917   0.671   0.287 -0.2061 -0.1051  0.2136
 1734ntf    fn413851   4.855   0.170   0.109 -0.0884  0.3979  0.0980
 1734ntf    fn413852   4.662   0.102   0.141  0.0877  0.0198 -0.0547
 1734ntf    fn413853   4.704   0.235  -0.018 -0.1378  0.3112 -0.1804
 1734ntf    on513854   4.573   0.409   0.166  0.0382 -0.0588  0.3794
 1734ntf    on513855   4.711   0.319   0.347 -0.2964  0.1667  0.1368
 1734ntf    on513856   4.691   0.673   0.166 -0.2979 -0.4590  0.0062
 1734ntf    on513857   4.899   0.635   0.033 -0.2165  0.6705  0.2332
 1734ntf    fn413858   4.872   0.636   0.406 -0.1552 -0.3912  0.1497
 1734ntf    fn413859   5.047   0.644   0.281 -0.2562 -0.3390  0.1483
 1734ntf    fn413860   4.909   0.803   0.283  0.2085 -0.0940 -0.2913
 1735ntf    cn113861   3.420   3.839   3.969  0.3686  0.5056 -0.0864
 1735ntf    sn213862   3.359   3.703   4.073  0.3223  0.3787 -0.2788
 1735ntf    nn313863   3.476   3.599   4.059  0.2805  0.2495  0.2857
 1735ntf    sn213864   3.553   3.524   4.173 -0.1721  0.0283  0.4515
 1735ntf    cn113865   3.710   3.616   4.182 -0.2390  0.1787  0.0891
 1735ntf    fn413866   3.539   3.874   4.014  0.4150 -0.2477  0.4111
 1735ntf    fn413867   3.434   3.800   3.844 -0.2147  0.7589 -0.2353
 1735ntf    fn413868   3.339   3.944   3.971 -0.4839 -0.1419 -0.0844
 1735ntf    on513869   3.345   3.764   4.203 -0.4577  0.0130 -0.1820
 1735ntf    on513870   3.234   3.665   4.013  0.2782  0.3331 -0.1595
 1735ntf    on513871   3.602   3.398   4.123  0.3703  0.5031 -0.2467
 1735ntf    on513872   3.510   3.526   4.310  0.1725  0.4616  0.5553
 1735ntf    fn413873   3.769   3.617   4.064 -0.3743 -0.5949  0.0092
 1735ntf    fn413874   3.694   3.743   4.217 -0.2647  0.2346 -0.1212
 1735ntf    fn413875   3.804   3.570   4.262 -0.2949  0.1219  0.1215
 1736ntf    cn113876   3.096   1.204   6.234 -0.0730 -0.1587  0.1267
 1736ntf    sn213877   3.185   1.361   6.258  0.0037 -0.1968  0.0885
 1736ntf    nn313878   3.188   1.359   6.415  0.2071  0.3652  0.0958
 1736ntf    sn213879   3.309   1.373   6.514  0.4028 -0.2192 -0.0521
 1736ntf    cn113880   3.368   1.202   6.520  0.1742 -0.2956  0.0346
 1736ntf    fn413881   3.100   1.176   6.105  1.0439  0.3066  0.0518
 1736ntf    fn413882   3.154   1.105   6.299  0.1726  0.0062  0.1571
 1736ntf    fn413883   2.968   1.209   6.269  0.0499 -0.2897  0.6053
 1736ntf    on513884   3.308   1.332   6.187 -0.0215 -0.5188  0.1762
 1736ntf    on513885   3.094   1.462   6.209  0.6910  0.0697 -0.6641
 1736ntf    on513886   3.259   1.396   6.647 -0.5846  0.8021 -0.5741
 1736ntf    on513887   3.420   1.452   6.467 -0.1137  0.2120 -0.5649
 1736ntf    fn413888   3.278   1.127   6.581  0.0251  0.0859  0.2881
 1736ntf    fn413889   3.378   1.157   6.396  0.1796  0.3447 -0.2016
 1736ntf    fn413890   3.484   1.192   6.583  0.1829  0.2632  0.1099
 1737ntf    cn113891   5.937   6.660   3.585 -0.2316  0.0934 -0.2309
 1737ntf    sn213892   6.031   6.511   3.630 -0.0485  0.2911  0.0400
 1737ntf    nn313893   5.918   6.409   3.595 -0.0023  0.1517  0.2949
 1737ntf    sn213894   5.899   6.337   3.457  0.1175  0.5009  0.0952
 1737ntf    cn113895   5.723   6.292   3.473  0.1961  0.0682 -0.2211
 1737ntf    fn413896   5.830   6.680   3.660 -0.1223 -0.5634  0.1064
 1737ntf    fn413897   6.014   6.765   3.610  0.1230 -0.1424 -0.3320
 1737ntf    fn413898   5.898   6.659   3.458 -0.4413  0.5554 -0.1737
 1737ntf    on513899   6.143   6.519   3.540  0.0578 -0.3177  0.1178
 1737ntf    on513900   6.052   6.515   3.773  0.3765  0.4228 -0.0229
 1737ntf    on513901   5.978   6.216   3.455  0.0492  0.4496  0.3687
 1737ntf    on513902   5.893   6.431   3.348 -0.2483  0.0249 -0.3020
 1737ntf    fn413903   5.694   6.228   3.585 -0.2388  0.1388 -0.2936
 1737ntf    fn413904   5.649   6.402   3.472  0.2400  0.1080  0.2622
 1737ntf    fn413905   5.676   6.225   3.370 -0.2309 -0.0394  0.0428
 1738ntf    cn113906   4.995   3.507   2.701  0.3471  0.0220  0.1910
 1738ntf    sn213907   4.916   3.488   2.539  0.2194  0.2082  0.2319
 1738ntf    nn313908   5.020   3.546   2.437  0.5109 -0.0739  0.3694
 1738ntf    sn213909   5.130   3.470   2.354  0.0893 -0.1300 -0.1387
 1738ntf    cn113910   5.190   3.613   2.259  0.0559 -0.1062 -0.1240
 1738ntf    fn413911   5.026   3.630   2.738 -0.1657  0.2110 -0.0063
 1738ntf    fn413912   4.921   3.449   2.794  0.0967 -0.5097 -0.3316
 1738ntf    fn413913   5.106   3.435   2.696 -0.0444 -0.6350  0.7778
 1738ntf    on513914   4.892   3.346   2.537  0.4182  0.1787 -0.0874
 1738ntf    on513915   4.800   3.572   2.554 -0.1160 -0.2150  0.0270
 1738ntf    on513916   5.070   3.393   2.248  0.1121  0.1539 -0.3588
 1738ntf    on513917   5.251   3.430   2.420 -0.1475 -0.3442  0.1684
 1738ntf    fn413918   5.100   3.654   2.171 -0.3082 -0.3077  0.1522
 1738ntf    fn413919   5.218   3.718   2.334 -0.3046 -0.4170  0.4503
 1738ntf    fn413920   5.293   3.593   2.179  0.1636 -0.4299  0.0931
 1739ntf    cn113921   5.360   5.334   0.568 -0.1716  0.0274 -0.0721
 1739ntf    sn213922   5.367   5.456   0.433 -0.1204 -0.0509 -0.1404
 1739ntf    nn313923   5.214   5.456   0.397 -0.1644 -0.1795  0.0442
 1739ntf    sn213924   5.130   5.551   0.305 -0.0313 -0.1402 -0.0360
 1739ntf    cn113925   5.141   5.465   0.145 -0.1218 -0.1135 -0.0565
 1739ntf    fn413926   5.469   5.339   0.643 -0.2794 -0.4159  0.1165
 1739ntf    fn413927   5.257   5.359   0.647  0.0319  0.3827  0.0834
 1739ntf    fn413928   5.348   5.208   0.528  0.4085 -0.2205  0.5106
 1739ntf    on513929   5.422   5.570   0.501 -0.1534 -0.5084  0.6749
 1739ntf    on513930   5.439   5.388   0.329 -0.3313 -0.0236 -0.3046
 1739ntf    on513931   5.178   5.684   0.275 -0.6821  0.1897  0.3767
 1739ntf    on513932   4.988   5.552   0.331  0.0296 -0.9838  0.3553
 1739ntf    fn413933   5.267   5.434   0.117 -0.0949  0.0189 -0.0815
 1739ntf    fn413934   5.086   5.345   0.141 -0.0059 -0.1744  0.1433
 1739ntf    fn413935   5.085   5.536   0.048  0.1877 -0.0776 -0.2111
 1740ntf    cn113936   0.302   2.734   2.085 -0.0114  0.4735 -0.0802
 1740ntf    sn213937   0.199   2.819   1.962 -0.0091  0.2355 -0.2463
 1740ntf    nn313938   0.066   2.738   1.979  0.2418 -0.0162  0.5563
 1740ntf    sn213939   0.029   2.610   1.895  0.1208  0.2370  0.2186
 1740ntf    cn113940  -0.072   2.691   1.768  0.2362  0.0481  0.0072
 1740ntf    fn413941   0.265   2.743   2.211  0.0822  0.3855 -0.0463
 1740ntf    fn413942   0.311   2.607   2.050 -0.2173  0.3731  0.2290
 1740ntf    fn413943   0.426   2.782   2.086  0.1643  0.0193  0.0594
 1740ntf    on513944   0.190   2.952   2.016 -0.2909  0.0620  0.1381
 1740ntf    on513945   0.274   2.798   1.840  0.4582 -0.0367  0.0872
 1740ntf    on513946  -0.054   2.518   1.969 -0.0323  0.3131  0.1420
 1740ntf    on513947   0.134   2.542   1.824  0.2218  0.3485  0.2621
 1740ntf    fn413948  -0.009   2.802   1.734  0.0735  0.1455  0.0224
 1740ntf    fn413949  -0.094   2.618   1.659  0.1316  0.0101  0.0542
 1740ntf    fn413950  -0.187   2.733   1.817  0.2718 -0.2730  0.3720
 1741ntf    cn113951   4.222   2.939   3.536 -0.2341 -0.1673 -0.0409
 1741ntf    sn213952   4.091   2.824   3.586 -0.3226 -0.0333  0.0356
 1741ntf    nn313953   4.055   2.903   3.717 -0.0736  0.0863  0.0339
 1741ntf    sn213954   4.012   2.848   3.858 -0.3754 -0.1432 -0.1449
 1741ntf    cn113955   3.830   2.857   3.846 -0.4232 -0.8598 -0.0038
 1741ntf    fn413956   4.191   3.067   3.517 -0.1416 -0.2030 -0.4561
 1741ntf    fn413957   4.319   2.938   3.626 -0.5567 -0.3158  0.3030
 1741ntf    fn413958   4.274   2.899   3.421 -0.0740  0.2533 -0.1164
 1741ntf    on513959   3.988   2.839   3.486 -0.2334 -0.0159 -0.0542
 1741ntf    on513960   4.153   2.695   3.599 -0.5616 -0.1155  0.3740
 1741ntf    on513961   4.044   2.950   3.956 -0.5034 -0.2729  0.0323
 1741ntf    on513962   4.034   2.711   3.894  0.2864  0.0488  0.2015
 1741ntf    fn413963   3.790   2.981   3.824 -0.0199 -0.7396 -0.0799
 1741ntf    fn413964   3.769   2.786   3.753 -0.0715 -0.2077 -0.7493
 1741ntf    fn413965   3.779   2.815   3.961 -0.2333  0.3541  0.5433
 1742ntf    cn113966   1.354   5.981   5.619  0.2621 -0.0140  0.3361
 1742ntf    sn213967   1.442   5.985   5.460 -0.1089  0.4207  0.1394
 1742ntf    nn313968   1.326   6.012   5.358  0.1580  0.4494 -0.1569
 1742ntf    sn213969   1.265   5.925   5.242  0.0219 -0.0927  0.3155
 1742ntf    cn113970   1.256   6.049   5.110 -0.3267 -0.1254  0.3096
 1742ntf    fn413971   1.440   5.955   5.716  0.1314  0.0620  0.4727
 1742ntf    fn413972   1.298   6.098   5.642  0.1547 -0.0441  0.2275
 1742ntf    fn413973   1.259   5.888   5.619  0.1030  0.1427 -0.4850
 1742ntf    on513974   1.533   6.094   5.487 -0.3633  0.5775  0.3688
 1742ntf    on513975   1.500   5.853   5.453 -0.5146  0.2877 -0.7908
 1742ntf    on513976   1.127   5.888   5.261  0.0367 -0.4193 -0.1788
 1742ntf    on513977   1.349   5.820   5.190 -0.2748 -0.3698  0.3947
 1742ntf    fn413978   1.181   6.011   5.008  0.0872 -0.3971  0.1041
 1742ntf    fn413979   1.201   6.163   5.150 -0.1453  0.1167 -0.1148
 1742ntf    fn413980   1.372   6.084   5.058 -0.6372 -0.2881 -0.5143
 1743ntf    cn113981   2.829   3.458   3.643 -0.2117  0.1981 -0.0348
 1743ntf    sn213982   2.762   3.620   3.693 -0.0591  0.1424  0.3507
 1743ntf    nn313983   2.796   3.712   3.571 -0.2032 -0.3581 -0.0693
 1743ntf    sn213984   2.763   3.865   3.564  0.1819 -0.2547  0.3388
 1743ntf    cn113985   2.674   3.856   3.406 -0.0474  0.0624  0.4499
 1743ntf    fn413986   2.799   3.374   3.740 -0.4076  0.0464 -0.2267
 1743ntf    fn413987   2.773   3.412   3.532 -0.6048  0.3140  0.1153
 1743ntf    fn413988   2.961   3.448   3.634 -0.2469 -0.4220  0.1540
 1743ntf    on513989   2.621   3.590   3.700 -0.0589 -0.0571 -0.4674
 1743ntf    on513990   2.837   3.659   3.810 -0.0376 -0.4699  0.5460
 1743ntf    on513991   2.874   3.954   3.539 -0.2752  0.1828 -0.1692
 1743ntf    on513992   2.662   3.912   3.656 -0.1897 -0.3578 -0.0155
 1743ntf    fn413993   2.618   3.969   3.364 -0.0444  0.1884  0.7786
 1743ntf    fn413994   2.759   3.824   3.311 -0.3526 -0.1003  0.2289
 1743ntf    fn413995   2.579   3.764   3.416 -0.3720  0.3930  0.4382
 1744ntf    cn113996   3.514   4.771   2.712  0.1963 -0.1742 -0.0043
 1744ntf    sn213997   3.468   4.855   2.867  0.0685 -0.0127 -0.1292
 1744ntf    nn313998   3.591   4.941   2.914  0.0029 -0.0666  0.1424
 1744ntf    sn213999   3.644   5.082   2.869 -0.1479 -0.0646 -0.0323
 1744ntf    cn114000   3.599   5.195   3.004 -0.1252 -0.1731  0.0666
 1744ntf    fn414001   3.466   4.648   2.724  0.0049 -0.0859  0.1437
 1744ntf    fn414002   3.466   4.830   2.604  0.0202 -0.1598  0.0823
 1744ntf    fn414003   3.645   4.765   2.690  0.2661  0.0146  0.3460
 1744ntf    on514004   3.348   4.926   2.833  0.0329  0.1028  0.2371
 1744ntf    on514005   3.457   4.748   2.963  0.6351 -0.1041 -0.1617
 1744ntf    on514006   3.588   5.129   2.745  0.5342  0.1248 -0.2738
 1744ntf    on514007   3.788   5.082   2.876 -0.1452  0.4735 -0.1009
 1744ntf    fn414008   3.477   5.169   3.049 -0.1779 -0.6841 -0.3563
 1744ntf    fn414009   3.669   5.166   3.113 -0.5844  0.1484  0.4529
 1744ntf    fn414010   3.619   5.323   2.978  0.2412 -0.2878 -0.2172
 1745ntf    cn114011   1.408   1.268   0.668  0.0253 -0.0316  0.0073
 1745ntf    sn214012   1.288   1.327   0.792 -0.0167 -0.0116 -0.0424
 1745ntf    nn314013   1.203   1.196   0.807 -0.1910  0.0939 -0.1102
 1745ntf    sn214014   1.199   1.092   0.925 -0.0624  0.1696 -0.0382
 1745ntf    cn114015   1.220   0.942   0.823 -0.4378  0.2280 -0.2040
 1745ntf    fn414016   1.518   1.342   0.662 -0.1172  0.2017  0.2700
 1745ntf    fn414017   1.458   1.150   0.698  0.2024 -0.0965 -0.5256
 1745ntf    fn414018   1.365   1.264   0.543  0.3077 -0.1466 -0.0852
 1745ntf    on514019   1.376   1.356   0.903  0.4978  1.0027 -0.7034
 1745ntf    on514020   1.216   1.433   0.726 -0.0813 -0.0440 -0.0236
 1745ntf    on514021   1.071   1.076   0.989 -0.1467 -0.1399 -0.2784
 1745ntf    on514022   1.313   1.083   1.012  0.0388 -0.0730 -0.1947
 1745ntf    fn414023   1.147   0.943   0.713 -0.2807 -0.9191 -0.3298
 1745ntf    fn414024   1.346   0.925   0.786 -0.2134  0.2869  0.5072
 1745ntf    fn414025   1.184   0.828   0.880 -0.1394  0.1612 -0.1483
 1746ntf    cn114026   5.576   0.353   3.454 -0.0691 -0.2555 -0.4772
 1746ntf    sn214027   5.447   0.363   3.582  0.4176 -0.0963  0.0085
 1746ntf    nn314028   5.323   0.418   3.502  0.4673 -0.4770 -0.3337
 1746ntf    sn214029   5.234   0.346   3.395  0.1493 -0.2439 -0.2248
 1746ntf    cn114030   5.082   0.324   3.493 -0.0000 -0.1778 -0.4429
 1746ntf    fn414031   5.602   0.477   3.418 -0.7090 -0.0182 -0.1320
 1746ntf    fn414032   5.690   0.300   3.495  0.0042  0.2423 -0.0234
 1746ntf    fn414033   5.536   0.283   3.349 -0.6733 -0.2899 -0.2267
 1746ntf    on514034   5.426   0.226   3.622 -0.0319 -0.1649 -0.4443
 1746ntf    on514035   5.497   0.455   3.681 -0.3095  0.2299  0.0782
 1746ntf    on514036   5.268   0.212   3.356  0.2925 -0.3603  0.2946
 1746ntf    on514037   5.196   0.431   3.285 -0.5505  0.3588  0.4725
 1746ntf    fn414038   5.108   0.273   3.612 -0.4979  0.0087 -0.2511
 1746ntf    fn414039   5.027   0.442   3.514 -0.0421 -0.2948  0.1045
 1746ntf    fn414040   4.983   0.259   3.434 -0.2792 -0.3824  0.2423
 1747ntf    cn114041   0.248   1.471   5.788 -0.1882 -0.1641 -0.1334
 1747ntf    sn214042   0.241   1.473   5.607 -0.4371  0.0375 -0.1228
 1747ntf    nn314043   0.095   1.526   5.587 -0.4036  0.3570  0.4745
 1747ntf    sn214044  -0.035   1.449   5.543  0.0620 -0.0080 -0.2884
 1747ntf    cn114045  -0.151   1.583   5.588  0.0098 -0.0530 -0.2892
 1747ntf    fn414046   0.372   1.474   5.834  0.0044  0.2455 -0.6733
 1747ntf    fn414047   0.192   1.581   5.835  0.1543 -0.0070 -0.0880
 1747ntf    fn414048   0.188   1.366   5.841  0.1491 -0.6094 -0.6276
 1747ntf    on514049   0.336   1.574   5.570 -0.3120 -0.0119  0.0641
 1747ntf    on514050   0.259   1.335   5.566  0.6861  0.1246  0.0586
 1747ntf    on514051  -0.088   1.342   5.623  0.0249 -0.0177 -0.3259
 1747ntf    on514052  -0.049   1.432   5.401 -0.7379  0.2830 -0.2525
 1747ntf    fn414053  -0.138   1.694   5.517  0.1906  0.1990  0.1299
 1747ntf    fn414054  -0.274   1.544   5.562  0.0164  0.0136 -0.4205
 1747ntf    fn414055  -0.150   1.610   5.717  1.4436  0.1922 -0.3282
 1748ntf    cn114056   0.874   5.052   5.462  0.3788  0.4901 -0.3352
 1748ntf    sn214057   0.931   5.081   5.292  0.0559  0.0583 -0.5164
 1748ntf    nn314058   1.088   5.080   5.295  0.0506  0.2879 -0.2426
 1748ntf    sn214059   1.187   5.058   5.176  0.2529  0.1462 -0.0496
 1748ntf    cn114060   1.250   4.892   5.213  0.1466  0.1185  0.0092
 1748ntf    fn414061   0.922   5.145   5.543  0.0713 -0.5130  1.0326
 1748ntf    fn414062   0.743   5.054   5.482  0.3375 -0.5450 -0.4498
 1748ntf    fn414063   0.921   4.940   5.514 -0.2287  0.3756 -0.0292
 1748ntf    on514064   0.882   4.961   5.228 -0.3126 -0.1090  0.0681
 1748ntf    on514065   0.870   5.206   5.254 -0.4510 -0.2255 -0.6514
 1748ntf    on514066   1.310   5.133   5.188  0.0436  0.3965  0.5515
 1748ntf    on514067   1.133   5.043   5.043  0.0912  0.3716 -0.0102
 1748ntf    fn414068   1.319   4.842   5.112 -0.3761  0.2205 -0.3980
 1748ntf    fn414069   1.328   4.882   5.320  0.6455 -0.3628 -0.3924
 1748ntf    fn414070   1.155   4.804   5.238  0.3758 -0.2864 -0.5361
 1749ntf    cn114071   4.950   0.445   4.821 -0.4600 -0.3473  0.2696
 1749ntf    sn214072   5.108   0.370   4.772 -0.3623  0.0690 -0.0485
 1749ntf    nn314073   5.116   0.416   4.622 -0.1106  0.1988  0.0037
 1749ntf    sn214074   5.078   0.339   4.491  0.1999 -0.0615  0.0667
 1749ntf    cn114075   5.242   0.267   4.455 -0.0592 -0.5991 -0.0489
 1749ntf    fn414076   4.915   0.392   4.937 -0.0698  0.0126  0.5512
 1749ntf    fn414077   4.948   0.576   4.838  0.0146 -0.2566 -0.3577
 1749ntf    fn414078   4.853   0.422   4.734 -0.3181 -0.6828  0.1982
 1749ntf    on514079   5.213   0.429   4.852 -0.1283 -0.6360  0.1664
 1749ntf    on514080   5.084   0.231   4.802 -0.1050  0.0821  0.2201
 1749ntf    on514081   5.053   0.423   4.376  0.3919  0.5071  0.4376
 1749ntf    on514082   4.996   0.224   4.518  0.1874  0.0403  0.4568
 1749ntf    fn414083   5.336   0.359   4.447 -0.5665 -0.0620  0.0276
 1749ntf    fn414084   5.276   0.185   4.553 -0.0901  0.0178  0.4839
 1749ntf    fn414085   5.239   0.198   4.342  0.6301 -0.1353 -0.3554
 1750ntf    cn114086   3.140   2.626   3.685 -0.2487 -0.2204  0.1959
 1750ntf    sn214087   3.084   2.576   3.520 -0.4015  0.2803  0.0938
 1750ntf    nn314088   3.189   2.649   3.429  0.0182  0.0139  0.3609
 1750ntf    sn214089   3.185   2.771   3.330 -0.4187 -0.2930  0.0004
 1750ntf    cn114090   3.348   2.763   3.250 -0.3296 -0.1172  0.1645
 1750ntf    fn414091   3.260   2.579   3.715 -0.1033  0.1945  0.2698
 1750ntf    fn414092   3.145   2.758   3.689  0.2811 -0.2392  0.2443
 1750ntf    fn414093   3.061   2.593   3.786 -0.1830 -0.0052  0.3204
 1750ntf    on514094   3.097   2.432   3.525 -0.1434  0.2828 -0.4276
 1750ntf    on514095   2.950   2.627   3.511 -0.4000  0.2772  0.0477
 1750ntf    on514096   3.172   2.898   3.398  0.0187 -0.1664 -0.1486
 1750ntf    on514097   3.101   2.747   3.215 -0.8450 -0.0487  0.2607
 1750ntf    fn414098   3.390   2.886   3.223  0.0893 -0.2317  0.2907
 1750ntf    fn414099   3.440   2.714   3.332  0.1504  0.4981 -0.0011
 1750ntf    fn414100   3.343   2.701   3.134  0.2559  0.2935 -0.0829
 1751ntf    cn114101   2.241   6.249   2.240 -0.0618  0.0756 -0.1824
 1751ntf    sn214102   2.098   6.259   2.353 -0.2270  0.1022 -0.3934
 1751ntf    nn314103   2.155   6.191   2.482  0.1857 -0.0732 -0.6647
 1751ntf    sn214104   2.136   6.045   2.538  0.1392  0.1728 -0.0303
 1751ntf    cn114105   1.999   6.069   2.655  0.0634 -0.1487 -0.0541
 1751ntf    fn414106   2.274   6.122   2.225 -0.0767  0.1380 -0.7579
 1751ntf    fn414107   2.225   6.312   2.125 -0.1840  0.6257  0.1332
 1751ntf    fn414108   2.346   6.307   2.295  0.1713 -0.0081 -0.5430
 1751ntf    on514109   2.084   6.401   2.373 -0.1898  0.1458 -0.6710
 1751ntf    on514110   1.994   6.192   2.278 -0.0681 -0.3969 -0.1717
 1751ntf    on514111   2.245   5.996   2.619 -0.4931 -0.0678  0.6932
 1751ntf    on514112   2.080   5.960   2.436 -0.1809  0.2855  0.0487
 1751ntf    fn414113   1.902   6.139   2.599  0.2149 -0.1113 -0.2697
 1751ntf    fn414114   1.943   5.956   2.696  0.1596 -0.0760  0.2780
 1751ntf    fn414115   2.031   6.146   2.757 -0.1795  0.3896 -0.3805
 1752ntf    cn114116   5.470   2.383   3.075 -0.3044 -0.2431  0.1860
 1752ntf    sn214117   5.486   2.278   3.222 -0.3593 -0.2310  0.2007
 1752ntf    nn314118   5.566   2.378   3.313 -0.5534  0.1392 -0.0352
 1752ntf    sn214119   5.527   2.459   3.442 -0.0914 -0.0802  0.2453
 1752ntf    cn114120   5.677   2.430   3.541  0.1686 -0.1206 -0.1595
 1752ntf    fn414121   5.417   2.325   2.969 -0.3082 -0.1837  0.1557
 1752ntf    fn414122   5.393   2.486   3.105 -0.0224  0.1196 -0.3112
 1752ntf    fn414123   5.582   2.441   3.034 -0.1317 -0.3522  0.4978
 1752ntf    on514124   5.348   2.255   3.257 -0.4124 -0.4335 -0.1373
 1752ntf    on514125   5.560   2.163   3.177 -0.2609 -0.0576 -0.0819
 1752ntf    on514126   5.423   2.407   3.528 -0.1858 -0.0007  0.1802
 1752ntf    on514127   5.540   2.602   3.432 -0.2112 -0.0687  0.2507
 1752ntf    fn414128   5.657   2.322   3.615 -0.2493  0.2409  0.2654
 1752ntf    fn414129   5.786   2.404   3.471  0.3052 -0.0325  0.0186
 1752ntf    fn414130   5.714   2.536   3.611  0.1629 -0.1627 -0.0932
 1753ntf    cn114131   6.218   4.558   3.905 -0.1513 -0.3287 -0.2193
 1753ntf    sn214132   6.093   4.626   3.792 -0.1532  0.0981  0.0340
 1753ntf    nn314133   6.163   4.759   3.747 -0.1443  0.0833  0.0035
 1753ntf    sn214134   6.153   4.848   3.619 -0.0139  0.3890  0.2056
 1753ntf    cn114135   6.303   4.790   3.534 -0.1098 -0.2155  0.4468
 1753ntf    fn414136   6.187   4.446   3.968  0.2023 -0.2065  0.1735
 1753ntf    fn414137   6.335   4.533   3.849 -0.0018  0.0120 -0.0643
 1753ntf    fn414138   6.242   4.645   4.002 -0.0527 -0.2425 -0.3196
 1753ntf    on514139   6.072   4.518   3.698  0.9758  0.2270 -0.3807
 1753ntf    on514140   5.984   4.654   3.882 -0.2539 -0.4860  0.1001
 1753ntf    on514141   6.176   4.989   3.644  0.2190  0.3723  0.0867
 1753ntf    on514142   6.044   4.824   3.528  0.1021 -0.2016  0.2215
 1753ntf    fn414143   6.320   4.660   3.552  0.7720 -0.2854 -0.7470
 1753ntf    fn414144   6.301   4.815   3.404  0.2694  0.6532  0.6012
 1753ntf    fn414145   6.415   4.831   3.590 -0.0917  0.0631  0.2122
 1754ntf    cn114146   0.276   2.101   0.058  0.4710 -0.3210 -0.3104
 1754ntf    sn214147   0.389   2.152   0.191  0.2696 -0.3148 -0.1425
 1754ntf    nn314148   0.278   2.172   0.301  0.5901 -0.2002  0.1610
 1754ntf    sn214149   0.248   2.308   0.375  0.3161  0.0186 -0.3491
 1754ntf    cn114150   0.073   2.285   0.418  0.3970  0.1272  0.0363
 1754ntf    fn414151   0.347   2.056  -0.044  1.1926 -0.1545  0.1064
 1754ntf    fn414152   0.196   2.005   0.101 -0.0018  0.0593 -0.3402
 1754ntf    fn414153   0.205   2.201   0.010 -0.1061 -0.2496  0.6796
 1754ntf    on514154   0.475   2.038   0.209  0.2146 -0.3039  0.1987
 1754ntf    on514155   0.459   2.267   0.140 -0.2193 -0.0431 -0.2152
 1754ntf    on514156   0.243   2.430   0.298  0.5663  0.0727 -0.2784
 1754ntf    on514157   0.314   2.317   0.503 -0.2426  0.0452 -0.0606
 1754ntf    fn414158  -0.005   2.320   0.318  0.1351 -0.2980  0.0885
 1754ntf    fn414159   0.039   2.166   0.466  0.3265 -0.0365 -0.4214
 1754ntf    fn414160   0.039   2.380   0.504  0.0207 -0.0765  0.1130
 1755ntf    cn114161   3.089   5.571   2.267 -0.1434  0.1408 -0.4726
 1755ntf    sn214162   3.218   5.612   2.389 -0.2209 -0.2871 -0.2451
 1755ntf    nn314163   3.348   5.597   2.302 -0.0040 -0.0609  0.0383
 1755ntf    sn214164   3.473   5.503   2.316  0.2309  0.1785 -0.4272
 1755ntf    cn114165   3.608   5.617   2.276  0.2748  0.1685 -0.3105
 1755ntf    fn414166   3.097   5.643   2.156 -0.9044  0.6937 -0.1805
 1755ntf    fn414167   3.100   5.449   2.218  0.4062  0.1793 -0.4501
 1755ntf    fn414168   2.965   5.581   2.312 -0.1016 -0.3739 -0.2283
 1755ntf    on514169   3.197   5.750   2.425  0.4962 -0.0539 -0.7035
 1755ntf    on514170   3.182   5.519   2.493 -0.2528 -0.2825 -0.2520
 1755ntf    on514171   3.472   5.403   2.212 -0.8233 -0.3143  0.0410
 1755ntf    on514172   3.504   5.462   2.451 -0.8078  0.1682 -0.1778
 1755ntf    fn414173   3.576   5.721   2.200 -0.0978  0.5400  0.3472
 1755ntf    fn414174   3.661   5.671   2.384  0.3706  0.4986 -0.5179
 1755ntf    fn414175   3.704   5.557   2.208  0.4442 -0.1833  0.2383
 1756ntf    cn114176   5.360   4.898   0.672 -0.0884 -0.3569 -0.3597
 1756ntf    sn214177   5.183   4.865   0.697 -0.0973 -0.0053  0.0633
 1756ntf    nn314178   5.144   4.965   0.811 -0.2510 -0.0608  0.0593
 1756ntf    sn214179   5.103   4.944   0.962  0.0096  0.0576  0.1465
 1756ntf    cn114180   4.927   4.959   0.922  0.0860 -0.1502 -0.2787
 1756ntf    fn414181   5.406   4.829   0.569  0.3004  0.2581 -0.6095
 1756ntf    fn414182   5.397   5.024   0.652 -0.4309 -0.1028  0.5443
 1756ntf    fn414183   5.436   4.861   0.773  0.2832 -0.1846 -0.5748
 1756ntf    on514184   5.129   4.904   0.569 -0.3730  0.1673  0.2326
 1756ntf    on514185   5.170   4.727   0.737  0.2976 -0.0754 -0.0482
 1756ntf    on514186   5.130   5.064   1.037  0.1369 -0.0177  0.2208
 1756ntf    on514187   5.119   4.815   1.023  0.5454  0.1824  0.2767
 1756ntf    fn414188   4.846   4.943   1.025  0.2587 -0.4014 -0.1824
 1756ntf    fn414189   4.889   5.076   0.873  0.2512  0.1785  0.3700
 1756ntf    fn414190   4.893   4.869   0.831 -0.1830 -0.1575 -0.1700
 1757ntf    cn114191   5.279   3.197   4.042 -0.2458 -0.1211 -0.0104
 1757ntf    sn214192   5.363   3.354   4.077 -0.3554 -0.0140 -0.2256
 1757ntf    nn314193   5.498   3.288   4.122 -0.3731  0.0815 -0.0271
 1757ntf    sn214194   5.600   3.211   4.031 -0.0860  0.0985  0.2787
 1757ntf    cn114195   5.733   3.335   4.025  0.4964 -0.5147  0.3536
 1757ntf    fn414196   5.329   3.135   3.936 -0.0685  0.6365 -0.3827
 1757ntf    fn414197   5.285   3.115   4.145 -0.3989  0.0009  0.0964
 1757ntf    fn414198   5.154   3.220   4.004 -0.2139  0.1859  0.0664
 1757ntf    on514199   5.362   3.434   3.957  0.4908  0.7908  0.2857
 1757ntf    on514200   5.300   3.407   4.196  0.0371  0.0454 -0.0420
 1757ntf    on514201   5.577   3.185   3.891  0.4258 -0.2356  0.2552
 1757ntf    on514202   5.668   3.107   4.104  0.4488  0.3712  0.1732
 1757ntf    fn414203   5.846   3.294   3.970  0.3494  0.0549 -0.3961
 1757ntf    fn414204   5.703   3.442   3.954 -0.4068 -1.1177 -0.1938
 1757ntf    fn414205   5.772   3.369   4.147 -0.0388 -0.6401  0.5635
 1758ntf    cn114206   0.301   4.254   2.495 -0.0498  0.0427  0.0759
 1758ntf    sn214207   0.220   4.154   2.624 -0.0590  0.0032  0.0396
 1758ntf    nn314208   0.215   4.257   2.742  0.2470  0.1248 -0.0534
 1758ntf    sn214209   0.258   4.240   2.892  0.0018  0.1072  0.0150
 1758ntf    cn114210   0.099   4.260   2.977 -0.0387 -0.7519  0.1480
 1758ntf    fn414211   0.230   4.362   2.468  0.1331  0.0670 -0.3111
 1758ntf    fn414212   0.413   4.318   2.526 -0.1771  0.3856 -0.1702
 1758ntf    fn414213   0.324   4.185   2.385  0.4120  0.2083  0.0662
 1758ntf    on514214   0.095   4.124   2.559  0.0367  0.0202 -0.1529
 1758ntf    on514215   0.306   4.039   2.641 -0.1225 -0.1314 -0.5069
 1758ntf    on514216   0.334   4.349   2.947  0.0510  0.1260 -0.0905
 1758ntf    on514217   0.303   4.108   2.927  0.2354  0.1416 -0.1526
 1758ntf    fn414218   0.021   4.154   2.958 -0.2083 -0.6138  0.0663
 1758ntf    fn414219   0.106   4.284   3.107  0.1149 -0.0014  0.0057
 1758ntf    fn414220   0.031   4.362   2.927  0.2116 -0.7326 -0.1540
 1759ntf    cn114221   3.522   5.654   6.341  0.0114  0.0548 -0.1558
 1759ntf    sn214222   3.413   5.535   6.255 -0.2314 -0.0184  0.2522
 1759ntf    nn314223   3.536   5.453   6.203 -0.0800 -0.0764  0.6912
 1759ntf    sn214224   3.573   5.303   6.226  0.1785 -0.1300 -0.0405
 1759ntf    cn114225   3.749   5.316   6.270  0.1254  0.0583  0.1175
 1759ntf    fn414226   3.610   5.713   6.262 -0.2322  0.5920 -0.0305
 1759ntf    fn414227   3.453   5.746   6.406 -0.0751 -0.1413  0.0327
 1759ntf    fn414228   3.598   5.588   6.426  0.0639 -0.3964 -0.5431
 1759ntf    on514229   3.330   5.473   6.356 -0.4567 -0.8673 -0.4443
 1759ntf    on514230   3.359   5.612   6.146 -0.2504 -0.0651  0.2288
 1759ntf    on514231   3.574   5.224   6.105  0.2029  0.0021 -0.1262
 1759ntf    on514232   3.505   5.237   6.335 -0.2774 -0.0671 -0.2818
 1759ntf    fn414233   3.755   5.383   6.383 -0.2497  0.4660 -0.1017
 1759ntf    fn414234   3.819   5.205   6.284  0.0146 -0.0155  0.0915
 1759ntf    fn414235   3.817   5.392   6.186 -0.1370  0.4452  0.2543
 1760ntf    cn114236   0.575   4.787   2.625 -0.0299  0.1545 -0.1608
 1760ntf    sn214237   0.575   4.917   2.752  0.1605 -0.1198  0.1190
 1760ntf    nn314238   0.506   4.833   2.865 -0.5008 -0.5298 -0.5795
 1760ntf    sn214239   0.362   4.857   2.925 -0.1393  0.3446 -0.0347
 1760ntf    cn114240   0.296   4.690   2.955  0.0703  0.2796  0.0726
 1760ntf    fn414241   0.631   4.828   2.512 -0.1455 -0.1521 -0.3290
 1760ntf    fn414242   0.632   4.673   2.661 -0.2444  0.1365  0.1237
 1760ntf    fn414243   0.450   4.754   2.599  0.0453  0.1354 -0.5134
 1760ntf    on514244   0.717   4.938   2.772  0.1627 -0.0631  0.0444
 1760ntf    on514245   0.509   5.036   2.707 -0.4909 -0.1957  0.8513
 1760ntf    on514246   0.263   4.913   2.837 -0.7557 -0.3341  0.2122
 1760ntf    on514247   0.362   4.901   3.063  0.4332  0.0605  0.0585
 1760ntf    fn414248   0.171   4.697   2.999  0.3156  0.2451  0.7814
 1760ntf    fn414249   0.294   4.621   2.842 -0.3464 -0.3428  0.4549
 1760ntf    fn414250   0.363   4.616   3.042  0.2153  0.3771  0.0449
 1761ntf    cn114251   5.273   4.301   6.145 -0.0803 -0.2302 -0.3656
 1761ntf    sn214252   5.239   4.293   5.966 -0.1507 -0.0630 -0.3609
 1761ntf    nn314253   5.217   4.445   5.937 -0.4138 -0.1519 -0.6255
 1761ntf    sn214254   5.099   4.516   5.862 -0.3161  0.6925  0.0004
 1761ntf    cn114255   5.182   4.667   5.805  0.2024  0.2721 -0.3743
 1761ntf    fn414256   5.383   4.366   6.179 -0.2227 -0.3083  0.2511
 1761ntf    fn414257   5.173   4.355   6.213  0.2746 -0.1101  0.0610
 1761ntf    fn414258   5.302   4.181   6.192  0.4163  0.0382  0.0233
 1761ntf    on514259   5.355   4.235   5.902  0.1440  0.3633 -0.2140
 1761ntf    on514260   5.123   4.207   5.961 -0.4061  0.2377  0.2870
 1761ntf    on514261   4.994   4.554   5.953 -0.0899  0.2646  0.4388
 1761ntf    on514262   5.059   4.448   5.741  0.4484  0.0718  0.0927
 1761ntf    fn414263   5.108   4.742   5.725 -0.2906  0.3468  0.1469
 1761ntf    fn414264   5.220   4.739   5.910 -0.3408  0.2093 -0.1288
 1761ntf    fn414265   5.295   4.640   5.742  0.3448 -0.0928  0.0309
 1762ntf    cn114266   1.675   5.410   4.590 -0.3369 -0.5148 -0.2175
 1762ntf    sn214267   1.808   5.493   4.681 -0.3417  0.0213 -0.6952
 1762ntf    nn314268   1.900   5.525   4.558 -0.2531  0.2641 -0.5681
 1762ntf    sn214269   2.020   5.435   4.510 -0.1150  0.0089  0.2391
 1762ntf    cn114270   2.132   5.563   4.445 -0.4113  0.2557  0.2097
 1762ntf    fn414271   1.710   5.290   4.548 -0.1624 -0.6103  0.1976
 1762ntf    fn414272   1.574   5.406   4.676 -0.7515  0.2434 -0.6597
 1762ntf    fn414273   1.640   5.483   4.485  0.0402 -0.0108 -0.0003
 1762ntf    on514274   1.735   5.606   4.733  0.2346  0.0891 -0.0117
 1762ntf    on514275   1.844   5.398   4.784 -0.4373  0.0190 -0.6644
 1762ntf    on514276   1.987   5.353   4.396 -0.1947 -0.3562  0.5235
 1762ntf    on514277   2.103   5.386   4.617 -0.5704 -0.3768  0.4161
 1762ntf    fn414278   2.172   5.645   4.542 -0.2988  0.3079  0.1186
 1762ntf    fn414279   2.235   5.517   4.376 -0.2715 -0.1928  0.7039
 1762ntf    fn414280   2.064   5.642   4.364 -0.4257 -0.0719 -0.0996
 1763ntf    cn114281   4.748   4.300   4.920  0.1974 -0.1831  0.1836
 1763ntf    sn214282   4.691   4.332   5.089 -0.2135 -0.0582  0.0221
 1763ntf    nn314283   4.827   4.360   5.161 -0.0088  0.1683 -0.4531
 1763ntf    sn214284   4.916   4.271   5.256 -0.1514  0.3040 -0.1909
 1763ntf    cn114285   4.987   4.384   5.379 -0.0848 -0.1230  0.1637
 1763ntf    fn414286   4.834   4.393   4.881  0.1252 -0.0272  0.3926
 1763ntf    fn414287   4.805   4.181   4.911  0.0019 -0.2501 -0.1895
 1763ntf    fn414288   4.648   4.296   4.834  0.3118 -0.2241  0.0518
 1763ntf    on514289   4.611   4.451   5.077 -0.4406 -0.2093  0.0229
 1763ntf    on514290   4.619   4.211   5.121  0.2857 -0.1627  0.7897
 1763ntf    on514291   5.029   4.233   5.176 -0.0126  0.5590 -0.1192
 1763ntf    on514292   4.852   4.180   5.347  0.1723  0.2868  0.0208
 1763ntf    fn414293   5.106   4.345   5.422  0.0228  0.0838  0.0551
 1763ntf    fn414294   5.003   4.508   5.335 -0.1981 -0.0586  0.3026
 1763ntf    fn414295   4.914   4.392   5.489 -0.3721 -0.1460 -0.0229
 1764ntf    cn114296   4.909   3.713   1.673 -0.1434  0.2183  0.0935
 1764ntf    sn214297   4.732   3.717   1.713 -0.2174 -0.0574 -0.1999
 1764ntf    nn314298   4.680   3.598   1.625 -0.0934 -0.0232 -0.3200
 1764ntf    sn214299   4.570   3.599   1.512 -0.4430  0.1843  0.0190
 1764ntf    cn114300   4.415   3.575   1.603 -0.1919  0.2219  0.4639
 1764ntf    fn414301   4.985   3.783   1.756  0.0805 -0.1985  0.2422
 1764ntf    fn414302   4.957   3.589   1.670  0.3415  0.4047 -0.0901
 1764ntf    fn414303   4.932   3.767   1.554  0.1045  0.0252  0.0523
 1764ntf    on514304   4.731   3.678   1.851  0.3550 -0.2741 -0.2539
 1764ntf    on514305   4.698   3.855   1.686  0.1717  0.2320  0.7467
 1764ntf    on514306   4.595   3.487   1.425  0.2539  0.1647  0.2297
 1764ntf    on514307   4.556   3.728   1.449 -0.1426  0.5267  0.6370
 1764ntf    fn414308   4.320   3.545   1.515  0.4736  0.0226 -0.1958
 1764ntf    fn414309   4.416   3.472   1.686 -0.0162  0.3081  0.5685
 1764ntf    fn414310   4.373   3.679   1.673 -0.0180  0.3747  0.3415
 1765ntf    cn114311   3.728   2.317   4.590 -0.1339 -0.2424  0.0744
 1765ntf    sn214312   3.794   2.223   4.449  0.1623 -0.1404  0.1440
 1765ntf    nn314313   3.933   2.285   4.411 -0.0279  0.0697 -0.2299
 1765ntf    sn214314   4.072   2.221   4.448  0.0412  0.1592 -0.3372
 1765ntf    cn114315   4.191   2.350   4.399 -0.2849  0.5439 -0.1167
 1765ntf    fn414316   3.723   2.447   4.564 -0.0968 -0.2477  0.0411
 1765ntf    fn414317   3.605   2.281   4.624 -0.2937 -0.2095 -0.4626
 1765ntf    fn414318   3.805   2.309   4.698  0.0220  0.3000  0.0041
 1765ntf    on514319   3.801   2.088   4.497 -0.2208 -0.0451  0.4738
 1765ntf    on514320   3.709   2.258   4.337  0.0730 -0.3213  0.1551
 1765ntf    on514321   4.100   2.106   4.365  1.0854  0.1242  0.0480
 1765ntf    on514322   4.098   2.211   4.589 -0.7288 -0.4364 -0.2362
 1765ntf    fn414323   4.315   2.309   4.419 -0.3474  0.4140  0.0105
 1765ntf    fn414324   4.172   2.397   4.277  0.3930  0.1283 -0.3853
 1765ntf    fn414325   4.167   2.448   4.485  1.1589  0.0178  0.9238
 1766ntf    cn114326   4.051   5.198   1.434  0.4390  0.4389  0.2147
 1766ntf    sn214327   3.957   5.328   1.521 -0.2925  0.0516  0.0081
 1766ntf    nn314328   3.988   5.289   1.670  0.0377 -0.3352 -0.1593
 1766ntf    sn214329   4.120   5.295   1.754  0.1424 -0.1439 -0.3347
 1766ntf    cn114330   4.067   5.403   1.890 -0.1192 -0.3276 -0.2889
 1766ntf    fn414331   4.094   5.229   1.313  0.1135  0.2785  0.0573
 1766ntf    fn414332   4.160   5.155   1.495  0.1610 -0.1388  0.3071
 1766ntf    fn414333   3.981   5.088   1.413  0.3580  0.4785  0.2756
 1766ntf    on514334   4.009   5.451   1.468 -0.3873  0.1615  0.1723
 1766ntf    on514335   3.820   5.302   1.483 -0.1076 -0.3369 -0.4025
 1766ntf    on514336   4.230   5.374   1.705  0.1092  0.1569  0.0659
 1766ntf    on514337   4.156   5.169   1.815  0.1189  0.2198  0.4463
 1766ntf    fn414338   4.025   5.525   1.862 -0.2420 -0.3373 -0.1487
 1766ntf    fn414339   3.975   5.337   1.958  0.1807 -0.5996 -0.1421
 1766ntf    fn414340   4.164   5.423   1.978 -0.1598  0.1381 -0.3452
 1767ntf    cn114341   1.531   6.485   3.452  0.0665 -0.2931 -0.4181
 1767ntf    sn214342   1.623   6.546   3.597 -0.1784 -0.3896 -0.2216
 1767ntf    nn314343   1.510   6.569   3.703  0.0253  0.2216 -0.1351
 1767ntf    sn214344   1.438   6.478   3.810  0.4078  0.3023  0.1940
 1767ntf    cn114345   1.271   6.476   3.740  0.3529  0.3700  0.3231
 1767ntf    fn414346   1.477   6.367   3.472 -0.1352 -0.0992  0.2004
 1767ntf    fn414347   1.429   6.567   3.429  0.1309 -0.0621  0.0927
 1767ntf    fn414348   1.597   6.468   3.339  0.2295 -0.9318 -0.2284
 1767ntf    on514349   1.721   6.442   3.621  0.4084  0.2023 -0.0225
 1767ntf    on514350   1.683   6.673   3.566 -0.4518 -0.2142 -0.0356
 1767ntf    on514351   1.414   6.557   3.928 -0.3758 -0.1599  0.3430
 1767ntf    on514352   1.489   6.345   3.832 -0.2213  0.0347  0.0454
 1767ntf    fn414353   1.198   6.376   3.787 -0.2639  0.3527 -0.6384
 1767ntf    fn414354   1.204   6.588   3.761  0.0192  0.2283  0.0277
 1767ntf    fn414355   1.276   6.469   3.608 -0.0251  0.0389  0.3227
 1768ntf    cn114356   6.314   1.983   3.740 -0.4379 -0.0587 -0.0652
 1768ntf    sn214357   6.146   2.053   3.727 -0.3536  0.0972 -0.3230
 1768ntf    nn314358   6.174   2.207   3.740  0.6175 -0.0931 -0.1000
 1768ntf    sn214359   6.123   2.318   3.839  0.2254 -0.1250 -0.2651
 1768ntf    cn114360   5.952   2.359   3.793  0.2377  0.0014 -0.2012
 1768ntf    fn414361   6.395   2.017   3.641 -0.1644  0.7793  0.4416
 1768ntf    fn414362   6.374   2.012   3.854  0.0886 -0.2270 -0.2992
 1768ntf    fn414363   6.323   1.851   3.735  0.5443 -0.0141  0.4761
 1768ntf    on514364   6.102   2.010   3.597 -0.5635 -0.2332 -0.1446
 1768ntf    on514365   6.083   1.989   3.840  0.5906 -0.5409 -0.1425
 1768ntf    on514366   6.197   2.439   3.811 -0.2791  0.1682 -0.3373
 1768ntf    on514367   6.118   2.269   3.974 -0.7938  0.3848 -0.1163
 1768ntf    fn414368   5.872   2.253   3.793  0.4567 -0.1650 -0.0976
 1768ntf    fn414369   5.897   2.428   3.891 -0.5640 -0.1537 -0.5374
 1768ntf    fn414370   5.932   2.412   3.674 -0.1369  0.0848 -0.1023
 1769ntf    cn114371   4.451   4.945   6.276  0.0477  0.5942  0.4675
 1769ntf    sn214372   4.465   4.798   6.383 -0.2133  0.2141 -0.0158
 1769ntf    nn314373   4.317   4.746   6.371 -0.1639  0.0675  0.0081
 1769ntf    sn214374   4.197   4.781   6.466  0.1656  0.3429  0.3274
 1769ntf    cn114375   4.069   4.771   6.337  0.1331 -0.0222  0.3870
 1769ntf    fn414376   4.435   4.899   6.153 -0.3120  0.5367  0.5321
 1769ntf    fn414377   4.352   5.023   6.315 -0.6435 -0.1026  0.1388
 1769ntf    fn414378   4.564   5.013   6.271  0.0237  0.5937 -0.1989
 1769ntf    on514379   4.559   4.712   6.317 -0.4791 -0.4637  0.4715
 1769ntf    on514380   4.501   4.847   6.514 -0.1311 -0.3946  0.1945
 1769ntf    on514381   4.190   4.919   6.509  0.1093  0.3598  0.2646
 1769ntf    on514382   4.152   4.686   6.565  0.3021 -0.1694 -0.1033
 1769ntf    fn414383   3.944   4.798   6.370  0.0954  0.1861  0.0738
 1769ntf    fn414384   4.096   4.860   6.243  0.6508 -0.3219  0.2434
 1769ntf    fn414385   4.072   4.656   6.272  0.1558 -0.3893  1.0336
 1770ntf    cn114386   0.664   5.918   4.310 -0.2924  0.0922  0.1113
 1770ntf    sn214387   0.576   5.892   4.153 -0.1497  0.0761  0.0345
 1770ntf    nn314388   0.489   5.770   4.199  0.3032 -0.3341 -0.1907
 1770ntf    sn214389   0.341   5.767   4.252  0.3110 -0.1157 -0.1596
 1770ntf    cn114390   0.285   5.620   4.161  0.4634 -0.1150 -0.2545
 1770ntf    fn414391   0.715   5.806   4.357 -0.1634 -0.0997 -0.4796
 1770ntf    fn414392   0.755   6.014   4.303 -0.0615 -0.1513 -0.2200
 1770ntf    fn414393   0.579   5.959   4.403 -0.2182  0.4124  0.0407
 1770ntf    on514394   0.505   6.014   4.127 -0.1016 -0.0024 -0.4627
 1770ntf    on514395   0.693   5.864   4.073 -0.2830  0.0145 -0.1380
 1770ntf    on514396   0.247   5.870   4.216  0.0537 -0.4065 -0.3177
 1770ntf    on514397   0.336   5.717   4.387  0.3976 -0.3530 -0.2444
 1770ntf    fn414398   0.333   5.506   4.207  0.0124 -0.3925 -0.4722
 1770ntf    fn414399   0.154   5.601   4.159  0.4607 -0.0975 -0.2511
 1770ntf    fn414400   0.328   5.625   4.036  0.3245  0.2269 -0.2905
 1771ntf    cn114401   4.822   6.270   4.762  0.2754  0.2128  0.0787
 1771ntf    sn214402   4.874   6.202   4.922 -0.1468 -0.3299 -0.0098
 1771ntf    nn314403   4.933   6.337   4.978 -0.0337 -0.4010  0.0404
 1771ntf    sn214404   5.018   6.356   5.109 -0.1467 -0.1911  0.0839
 1771ntf    cn114405   5.165   6.425   5.027 -0.1818 -0.1170  0.0834
 1771ntf    fn414406   4.921   6.335   4.703  0.1920 -0.0886 -0.3945
 1771ntf    fn414407   4.779   6.182   4.673  0.1147 -0.2221  0.5832
 1771ntf    fn414408   4.723   6.358   4.772  0.1245  0.0986 -0.3609
 1771ntf    on514409   4.756   6.145   4.982 -0.0669 -0.0722  0.3998
 1771ntf    on514410   4.973   6.108   4.876  0.2383 -0.2273  0.5940
 1771ntf    on514411   5.060   6.235   5.175 -0.0068 -0.0038  0.3403
 1771ntf    on514412   4.970   6.464   5.190 -0.5298 -0.7218  0.5731
 1771ntf    fn414413   5.231   6.337   4.955 -0.1549  0.2616 -0.3588
 1771ntf    fn414414   5.139   6.527   4.946 -0.5069  0.0949  0.4525
 1771ntf    fn414415   5.255   6.472   5.112  0.0023 -0.1193 -0.1096
 1772ntf    cn114416   6.048   0.697   5.651 -0.3555  0.1345  0.3260
 1772ntf    sn214417   6.124   0.550   5.575 -0.3020  0.3442 -0.0248
 1772ntf    nn314418   6.026   0.435   5.616  0.0222 -0.1565 -0.6306
 1772ntf    sn214419   6.067   0.298   5.682 -0.0349  0.3040  0.3938
 1772ntf    cn114420   6.047   0.352   5.854  0.0201  0.1785  0.4403
 1772ntf    fn414421   6.002   0.677   5.774 -0.1011 -0.2540  0.3630
 1772ntf    fn414422   6.136   0.795   5.663 -0.5243  0.3615 -0.3019
 1772ntf    fn414423   5.948   0.747   5.581  0.2502  0.0218 -0.6305
 1772ntf    on514424   6.123   0.573   5.433  0.1747  0.0259 -0.0837
 1772ntf    on514425   6.255   0.545   5.635 -0.2917  0.0202 -0.0760
 1772ntf    on514426   6.203   0.254   5.661 -0.1428  0.3676 -0.4931
 1772ntf    on514427   5.971   0.192   5.666  0.9197 -0.5213  0.0337
 1772ntf    fn414428   5.923   0.369   5.897  0.1072  0.5743  0.5448
 1772ntf    fn414429   6.106   0.263   5.932  0.0436 -0.1307  0.0743
 1772ntf    fn414430   6.107   0.468   5.880 -0.0791  0.3170  0.0558
 1773ntf    cn114431   4.054   5.272   3.927  0.5098 -0.1564  0.1617
 1773ntf    sn214432   4.085   5.188   3.769 -0.4408 -0.1790 -0.0136
 1773ntf    nn314433   3.951   5.217   3.692 -0.3934 -0.0116 -0.0322
 1773ntf    sn214434   3.919   5.312   3.571 -0.0664  0.0369 -0.0814
 1773ntf    cn114435   3.738   5.316   3.588 -0.0442 -0.1243  0.2016
 1773ntf    fn414436   4.158   5.275   4.009  0.4076  0.5460  0.2722
 1773ntf    fn414437   4.018   5.398   3.912  0.1105 -0.2911 -0.0069
 1773ntf    fn414438   3.949   5.224   3.991  0.0867  0.0117 -0.3926
 1773ntf    on514439   4.204   5.249   3.715 -0.6073  0.2049  0.0480
 1773ntf    on514440   4.093   5.047   3.800 -0.2218 -0.1633  0.0006
 1773ntf    on514441   3.941   5.247   3.444 -0.3079 -0.2216  0.0083
 1773ntf    on514442   3.969   5.446   3.585  0.7775 -0.2790 -0.0033
 1773ntf    fn414443   3.677   5.389   3.496 -0.0011 -0.1346  0.1656
 1773ntf    fn414444   3.692   5.192   3.584 -0.1849 -0.0639 -0.1647
 1773ntf    fn414445   3.705   5.369   3.705 -0.0102 -0.0726  0.1878
 1774ntf    cn114446   6.546   0.736   1.399 -0.5508  0.2304  0.0306
 1774ntf    sn214447   6.485   0.690   1.234 -0.2491 -0.1783  0.0334
 1774ntf    nn314448   6.532   0.540   1.241  0.0336 -0.1020 -0.2082
 1774ntf    sn214449   6.454   0.416   1.296 -0.2006  0.2273  0.2104
 1774ntf    cn114450   6.353   0.380   1.149  0.2340  0.1623 -0.0755
 1774ntf    fn414451   6.552   0.868   1.415 -0.3488  0.2047  0.1706
 1774ntf    fn414452   6.465   0.688   1.492  0.4924 -1.4325  0.1203
 1774ntf    fn414453   6.668   0.697   1.431 -0.3763  0.6975 -0.0533
 1774ntf    on514454   6.344   0.710   1.251 -0.2243  0.1303 -0.1196
 1774ntf    on514455   6.560   0.780   1.149 -0.2509  0.1050  0.3289
 1774ntf    on514456   6.354   0.448   1.394 -0.0813  1.0616  0.0614
 1774ntf    on514457   6.539   0.303   1.327  0.1076  0.2276 -0.6197
 1774ntf    fn414458   6.271   0.480   1.122 -0.0068  0.1163  0.4684
 1774ntf    fn414459   6.426   0.362   1.040 -0.2878 -0.5142 -0.3192
 1774ntf    fn414460   6.279   0.271   1.166  0.2550  0.0890 -0.4546
 1775ntf    cn114461   6.642   5.952   2.360  0.4883  0.2623  0.0780
 1775ntf    sn214462   6.723   5.915   2.202  0.1027 -0.0781 -0.0427
 1775ntf    nn314463   6.600   5.890   2.109 -0.5852  1.2280  0.4999
 1775ntf    sn214464   6.594   5.904   1.953  0.2205 -0.1993  0.3269
 1775ntf    cn114465   6.549   5.733   1.911 -0.4521  0.1111 -0.2653
 1775ntf    fn414466   6.564   5.854   2.402  0.4710  0.0404 -0.4669
 1775ntf    fn414467   6.723   5.980   2.461 -0.6401 -0.3253  1.1825
 1775ntf    fn414468   6.559   6.055   2.353  0.1440  0.0094  0.3971
 1775ntf    on514469   6.798   6.031   2.160  0.3697 -0.3392 -0.2946
 1775ntf    on514470   6.803   5.798   2.231  0.0044 -0.1424 -0.0290
 1775ntf    on514471   6.723   5.918   1.891 -0.3607  0.3767 -0.7893
 1775ntf    on514472   6.478   5.978   1.909  0.2252 -0.6881 -0.5317
 1775ntf    fn414473   6.438   5.693   1.970 -0.4289  0.2352 -0.1374
 1775ntf    fn414474   6.551   5.703   1.782 -0.2078 -0.6383 -0.0940
 1775ntf    fn414475   6.640   5.651   1.962  0.0393  0.6974 -0.1860
 1776ntf    cn114476   0.639   3.759   0.539 -0.1951 -0.0836 -0.0768
 1776ntf    sn214477   0.536   3.763   0.689 -0.1820  0.3501 -0.0774
 1776ntf    nn314478   0.634   3.724   0.805 -0.3671 -0.0676 -0.0559
 1776ntf    sn214479   0.620   3.742   0.960 -0.1714 -0.2011 -0.0226
 1776ntf    cn114480   0.766   3.850   0.974 -0.2513 -0.0633 -0.2471
 1776ntf    fn414481   0.735   3.848   0.557 -0.0413 -0.2575 -0.0307
 1776ntf    fn414482   0.697   3.641   0.522  0.6050  0.2477  0.3155
 1776ntf    fn414483   0.572   3.785   0.428 -0.2257  0.1444 -0.0045
 1776ntf    on514484   0.479   3.895   0.701 -0.2748  0.3700 -0.6667
 1776ntf    on514485   0.432   3.665   0.668  0.1468  0.1067 -0.5892
 1776ntf    on514486   0.657   3.623   1.032 -0.4135 -0.4116 -0.2466
 1776ntf    on514487   0.510   3.817   1.014 -0.2047  0.0633 -0.4498
 1776ntf    fn414488   0.761   3.912   1.091 -0.0587  0.0329 -0.2883
 1776ntf    fn414489   0.879   3.782   0.960 -0.2260 -0.0825  0.0379
 1776ntf    fn414490   0.767   3.952   0.890 -0.2617 -0.2915 -0.5245
 1777ntf    cn114491   0.992   0.436   4.012  0.0761  0.0644  0.6345
 1777ntf    sn214492   0.890   0.287   4.023  0.2632 -0.1290 -0.1881
 1777ntf    nn314493   0.967   0.207   3.911  0.0057 -0.3793 -0.1883
 1777ntf    sn214494   0.940   0.173   3.760 -0.0350  0.3651 -0.3520
 1777ntf    cn114495   0.908  -0.003   3.790  0.1986  0.3499 -0.1985
 1777ntf    fn414496   0.954   0.520   4.107  0.2063  0.7078  0.1292
 1777ntf    fn414497   1.120   0.405   4.025  0.0626 -0.2752  0.0081
 1777ntf    fn414498   0.960   0.499   3.899 -0.1351 -0.1710  0.5631
 1777ntf    on514499   0.911   0.240   4.158  0.4074  0.0615 -0.1448
 1777ntf    on514500   0.760   0.335   3.983  0.1031 -0.1731  0.2798
 1777ntf    on514501   1.057   0.172   3.677  0.1795 -0.2269 -0.0453
 1777ntf    on514502   0.816   0.218   3.700  0.2307  0.4915 -0.8071
 1777ntf    fn414503   0.881  -0.068   3.678 -0.2174  0.1002  0.0442
 1777ntf    fn414504   1.007  -0.066   3.852 -0.4578 -0.3994  0.1076
 1777ntf    fn414505   0.806  -0.020   3.872 -0.0636  0.7199 -0.4470
 1778ntf    cn114506   5.766   5.106   2.505  0.5228  0.2644  0.4329
 1778ntf    sn214507   5.799   4.975   2.626  0.2039 -0.2744 -0.0610
 1778ntf    nn314508   5.652   4.938   2.668  0.2285  0.1794  0.4241
 1778ntf    sn214509   5.579   4.994   2.796 -0.1864 -0.0104  0.2708
 1778ntf    cn114510   5.610   4.858   2.913 -0.4519 -0.1724  0.1532
 1778ntf    fn414511   5.882   5.152   2.460  0.1973  0.1574 -0.5526
 1778ntf    fn414512   5.696   5.065   2.400  0.3045  0.0978  0.6413
 1778ntf    fn414513   5.707   5.211   2.560  0.0433  0.1382  0.1667
 1778ntf    on514514   5.849   4.872   2.538  0.3698  0.0864 -0.3925
 1778ntf    on514515   5.888   5.022   2.729 -0.5135  0.0741  0.4148
 1778ntf    on514516   5.436   5.001   2.778 -0.2519 -0.1663  0.7103
 1778ntf    on514517   5.639   5.113   2.850  0.6090 -0.2644 -0.0380
 1778ntf    fn414518   5.558   4.742   2.877 -0.0985 -0.0930 -0.6400
 1778ntf    fn414519   5.740   4.840   2.931 -0.4200 -0.1585 -0.0551
 1778ntf    fn414520   5.564   4.895   3.031  0.0726  0.3953  0.1825
 1779ntf    cn114521   5.226   6.584   1.351 -0.3583 -0.2915  0.4048
 1779ntf    sn214522   5.357   6.503   1.447 -0.1889 -0.2127  0.2415
 1779ntf    nn314523   5.461   6.474   1.334 -0.2090  0.2836  0.0942
 1779ntf    sn214524   5.618   6.459   1.336 -0.2438 -0.0820  0.2167
 1779ntf    cn114525   5.671   6.626   1.285 -0.2707 -0.1741 -0.1178
 1779ntf    fn414526   5.124   6.627   1.424 -0.0886  0.5667  0.2910
 1779ntf    fn414527   5.274   6.694   1.295  0.2705 -0.6906  0.1576
 1779ntf    fn414528   5.175   6.513   1.252 -0.4996  0.3047  0.0423
 1779ntf    on514529   5.393   6.599   1.548 -0.0511  0.4226 -0.4082
 1779ntf    on514530   5.300   6.375   1.481 -0.3084 -0.1169  0.4013
 1779ntf    on514531   5.664   6.375   1.229 -0.6330  0.1431 -0.1321
 1779ntf    on514532   5.678   6.440   1.465 -0.0559 -0.0913  0.1282
 1779ntf    fn414533   5.631   6.720   1.369 -0.1816 -0.0897 -0.1705
 1779ntf    fn414534   5.801   6.643   1.266 -0.3349  0.1239 -0.2853
 1779ntf    fn414535   5.612   6.654   1.170  0.0405  0.5685 -0.1006
 1780ntf    cn114536   6.066   3.411   4.726  0.2217 -0.1061 -0.0202
 1780ntf    sn214537   6.041   3.339   4.891 -0.3817 -0.0097 -0.0685
 1780ntf    nn314538   5.902   3.269   4.868  0.0009 -0.7016 -0.2918
 1780ntf    sn214539   5.757   3.328   4.883  0.2712 -0.0596 -0.1541
 1780ntf    cn114540   5.713   3.245   5.039  0.2129  0.0458 -0.1156
 1780ntf    fn414541   5.987   3.514   4.698  0.1952 -0.0644  0.2058
 1780ntf    fn414542   6.183   3.472   4.714  0.0914  0.2522  0.4761
 1780ntf    fn414543   6.054   3.324   4.628 -0.4719 -0.1270  0.0761
 1780ntf    on514544   6.141   3.238   4.915 -0.3930 -0.0345 -0.1230
 1780ntf    on514545   6.045   3.453   4.979  0.3164 -0.2905  0.2674
 1780ntf    on514546   5.657   3.285   4.789  0.4865  0.1046 -0.4595
 1780ntf    on514547   5.748   3.468   4.914 -0.1421  0.0105 -0.5860
 1780ntf    fn414548   5.732   3.114   5.035  0.6222  0.1109 -0.4103
 1780ntf    fn414549   5.785   3.287   5.142  0.4930 -0.1024 -0.2494
 1780ntf    fn414550   5.586   3.271   5.064  0.2562 -0.1555  0.3288
 1781ntf    cn114551   1.836   3.700   2.616  0.4591 -0.3058 -0.0152
 1781ntf    sn214552   1.976   3.631   2.708  0.5395 -0.1820 -0.0447
 1781ntf    nn314553   1.905   3.539   2.814  0.1600  0.4651  0.2669
 1781ntf    sn214554   1.927   3.390   2.859 -0.2059  0.2509 -0.2489
 1781ntf    cn114555   1.755   3.332   2.852 -0.2163  0.1854  0.4405
 1781ntf    fn414556   1.884   3.748   2.503  0.2074 -0.2532 -0.1015
 1781ntf    fn414557   1.742   3.614   2.581 -0.1429  0.3499 -0.0264
 1781ntf    fn414558   1.778   3.800   2.681 -0.4561 -0.3571 -0.7240
 1781ntf    on514559   2.058   3.563   2.611 -0.1412 -0.1779 -0.6230
 1781ntf    on514560   2.030   3.740   2.785  0.3352 -0.2061  0.1333
 1781ntf    on514561   1.964   3.384   2.999 -0.5604 -0.2687 -0.1754
 1781ntf    on514562   2.000   3.303   2.770  0.2424  0.1310  0.2288
 1781ntf    fn414563   1.677   3.364   2.954 -0.3367  0.0586  0.3877
 1781ntf    fn414564   1.687   3.354   2.740 -0.1985  0.1837  0.4294
 1781ntf    fn414565   1.751   3.201   2.861 -0.5339  0.1479 -0.1730
 1782ntf    cn114566   2.914   3.437   4.938 -0.1394  0.0007 -0.1007
 1782ntf    sn214567   3.093   3.451   4.912 -0.1548  0.1008 -0.1558
 1782ntf    nn314568   3.127   3.586   4.985  0.8075 -0.2542  0.0682
 1782ntf    sn214569   3.192   3.602   5.127 -0.0676  0.0150  0.4451
 1782ntf    cn114570   3.367   3.570   5.088 -0.2437 -0.3244 -0.0833
 1782ntf    fn414571   2.857   3.370   4.839 -0.0154 -0.4782  0.1518
 1782ntf    fn414572   2.891   3.383   5.056 -0.0062 -0.2721 -0.1991
 1782ntf    fn414573   2.849   3.552   4.930  0.2317  0.2221  0.0376
 1782ntf    on514574   3.142   3.332   4.978 -0.5544 -0.1624 -0.3342
 1782ntf    on514575   3.098   3.467   4.769  0.0450 -0.2218 -0.1864
 1782ntf    on514576   3.161   3.506   5.229  0.0417 -0.0571  0.4113
 1782ntf    on514577   3.181   3.741   5.167  0.5227  0.1385  0.1912
 1782ntf    fn414578   3.428   3.671   5.028  0.3101 -0.6063 -0.0022
 1782ntf    fn414579   3.434   3.547   5.200 -0.0464 -0.1393 -0.1629
 1782ntf    fn414580   3.378   3.463   5.012 -0.2442 -0.4004  0.0239
 1783ntf    cn114581   4.845   1.889   2.686 -0.2871  0.2012 -0.3045
 1783ntf    sn214582   4.819   1.741   2.788 -0.0321  0.4139  0.0715
 1783ntf    nn314583   4.906   1.759   2.917  0.2578  0.2088 -0.0915
 1783ntf    sn214584   5.057   1.724   2.939  0.1842 -0.0681 -0.0197
 1783ntf    cn114585   5.042   1.543   2.941 -0.1001 -0.0426  0.3210
 1783ntf    fn414586   4.790   1.995   2.743 -0.1318  0.0579  0.1143
 1783ntf    fn414587   4.972   1.915   2.661 -0.4650  0.7104 -0.7016
 1783ntf    fn414588   4.797   1.871   2.563  0.7376 -0.1185 -0.6635
 1783ntf    on514589   4.677   1.748   2.813 -0.0665  0.2161 -0.0623
 1783ntf    on514590   4.862   1.638   2.696  0.3512  0.0429  0.6613
 1783ntf    on514591   5.107   1.761   3.069 -0.1916  0.3403  0.0089
 1783ntf    on514592   5.142   1.743   2.824  0.0615 -0.0133 -0.1008
 1783ntf    fn414593   5.153   1.482   2.981  0.5061  0.4536 -0.5493
 1783ntf    fn414594   4.941   1.501   3.014  0.0938  0.0615  0.6499
 1783ntf    fn414595   5.022   1.494   2.820 -0.4035  0.1608  0.2887
 1784ntf    cn114596   1.229   1.661   4.303  0.2081 -0.0191 -0.3660
 1784ntf    sn214597   1.258   1.747   4.146  0.0327  0.1030 -0.3327
 1784ntf    nn314598   1.268   1.636   4.035  0.5855  0.1389 -0.3203
 1784ntf    sn214599   1.152   1.565   3.957  0.2848  0.2380  0.0371
 1784ntf    cn114600   1.188   1.625   3.789 -0.1474 -0.2408 -0.2302
 1784ntf    fn414601   1.234   1.735   4.413  0.2793 -0.4860 -0.0523
 1784ntf    fn414602   1.113   1.598   4.304  0.2484 -0.0883 -0.0450
 1784ntf    fn414603   1.324   1.570   4.315  0.2529  0.1250  0.4125
 1784ntf    on514604   1.152   1.844   4.132 -0.1651 -0.0414  0.1506
 1784ntf    on514605   1.390   1.800   4.172  0.1193 -0.3335  0.1277
 1784ntf    on514606   1.021   1.617   3.991  0.1533  0.0454 -0.1742
 1784ntf    on514607   1.172   1.422   3.963 -0.2703  0.1406 -0.3504
 1784ntf    fn414608   1.209   1.755   3.779 -0.7361 -0.1449 -0.1999
 1784ntf    fn414609   1.295   1.562   3.742  0.3731  0.1725  0.3743
 1784ntf    fn414610   1.084   1.597   3.712 -0.1768 -0.2220 -0.1970
 1785ntf    cn114611   2.510   5.578   6.494  0.0744 -0.3362 -0.1587
 1785ntf    sn214612   2.429   5.740   6.478  0.4577 -0.0792  0.4713
 1785ntf    nn314613   2.288   5.695   6.425  0.7743 -0.9969  0.3930
 1785ntf    sn214614   2.158   5.682   6.513  0.3972 -0.3116 -0.0533
 1785ntf    cn114615   2.087   5.849   6.504  0.4505 -0.3002 -0.2696
 1785ntf    fn414616   2.521   5.520   6.376  0.1125 -0.0879 -0.2786
 1785ntf    fn414617   2.635   5.581   6.536 -0.1519 -0.1055  0.5238
 1785ntf    fn414618   2.446   5.493   6.573 -0.0991 -0.2604 -0.2157
 1785ntf    on514619   2.439   5.785   6.615  0.0155 -0.0416  0.4921
 1785ntf    on514620   2.511   5.806   6.379  0.4888 -0.2098  0.4097
 1785ntf    on514621   2.178   5.679   6.656 -0.1129  0.3475  0.0331
 1785ntf    on514622   2.058   5.592   6.461  0.0115 -0.2560  0.5832
 1785ntf    fn414623   2.109   5.920   6.394  0.2267 -0.3693 -0.3596
 1785ntf    fn414624   1.960   5.845   6.539  0.5205 -0.2464 -0.0103
 1785ntf    fn414625   2.145   5.920   6.599  0.0125  0.2293 -0.3937
 1786ntf    cn114626   3.272   6.655   1.398  0.0182  0.0712 -0.2840
 1786ntf    sn214627   3.372   6.665   1.550 -0.0265  0.3249 -0.2719
 1786ntf    nn314628   3.368   6.820   1.574 -0.2375  0.3124 -0.2190
 1786ntf    sn214629   3.405   6.895   1.708  0.1505 -0.1022 -0.0930
 1786ntf    cn114630   3.260   7.000   1.739 -0.0022 -0.3371 -0.0016
 1786ntf    fn414631   3.318   6.737   1.305  0.2894 -0.2084 -0.4001
 1786ntf    fn414632   3.276   6.529   1.356 -0.4803  0.1412 -0.5474
 1786ntf    fn414633   3.146   6.689   1.419  0.1723  0.5144 -0.0623
 1786ntf    on514634   3.293   6.594   1.647 -0.2629  0.3632 -0.4344
 1786ntf    on514635   3.493   6.609   1.497  0.2035  0.2938  0.2839
 1786ntf    on514636   3.518   6.981   1.681  0.1594 -0.1269 -0.1352
 1786ntf    on514637   3.415   6.828   1.835  0.2321 -0.9013 -0.5085
 1786ntf    fn414638   3.284   7.066   1.851  0.3207 -1.1292  0.4056
 1786ntf    fn414639   3.237   7.092   1.646  0.2784 -0.2352  0.0283
 1786ntf    fn414640   3.148   6.932   1.752 -0.3613  0.2091 -0.1948
 1787ntf    cn114641   0.463   6.634   0.137  0.0351 -0.0176  0.1756
 1787ntf    sn214642   0.339   6.508   0.095 -0.0742  0.0833  0.1938
 1787ntf    nn314643   0.398   6.374   0.152  0.1689  0.1627  0.1327
 1787ntf    sn214644   0.459   6.255   0.071  0.1309  0.1668  0.0985
 1787ntf    cn114645   0.309   6.183  -0.001  0.1182  0.1485  0.1439
 1787ntf    fn414646   0.584   6.596   0.099  0.0104 -0.0685  0.1479
 1787ntf    fn414647   0.441   6.755   0.088 -0.0176 -0.0848  0.0332
 1787ntf    fn414648   0.465   6.642   0.269  0.4274  0.7249  0.1278
 1787ntf    on514649   0.223   6.545   0.171 -0.2195 -0.0849  0.0547
 1787ntf    on514650   0.306   6.515  -0.045 -0.0821  0.0078  0.1914
 1787ntf    on514651   0.513   6.153   0.157 -0.1239  0.3808  0.5134
 1787ntf    on514652   0.538   6.299  -0.041 -0.0647 -0.0164 -0.1116
 1787ntf    fn414653   0.247   6.266  -0.083  0.3797  0.2672  0.0670
 1787ntf    fn414654   0.337   6.072  -0.067 -0.5144 -0.1099  0.2993
 1787ntf    fn414655   0.211   6.148   0.081  0.2106  0.4149  0.3703
 1788ntf    cn114656   0.219   6.506   5.288  0.0669  0.3065  0.1862
 1788ntf    sn214657   0.054   6.567   5.336 -0.1666  0.0506 -0.2836
 1788ntf    nn314658   0.076   6.614   5.484 -0.1595 -1.2479  0.1405
 1788ntf    sn214659  -0.016   6.625   5.611 -0.0715 -0.1568  0.1201
 1788ntf    cn114660   0.079   6.497   5.700  0.1816 -0.0880 -0.0493
 1788ntf    fn414661   0.256   6.418   5.379 -0.0770  0.0979  0.0444
 1788ntf    fn414662   0.225   6.438   5.175  0.0631 -0.1329  0.4513
 1788ntf    fn414663   0.318   6.593   5.292  0.3253  0.0061  0.3477
 1788ntf    on514664   0.030   6.677   5.246 -0.1307  0.0566 -0.2861
 1788ntf    on514665  -0.033   6.452   5.328 -0.1850  0.0726 -0.4100
 1788ntf    on514666  -0.151   6.576   5.605  0.0771 -0.5004 -0.4860
 1788ntf    on514667   0.015   6.743   5.688 -0.2819 -0.0197 -0.0076
 1788ntf    fn414668   0.209   6.503   5.677  0.1892 -0.2619 -0.0513
 1788ntf    fn414669   0.047   6.495   5.828  0.3560 -0.6237 -0.0108
 1788ntf    fn414670   0.061   6.374   5.654 -0.5886  0.0989 -0.2703
 1789ntf    cn114671   1.081   3.655   3.067 -0.1221  0.1661  0.4130
 1789ntf    sn214672   1.231   3.558   3.100 -0.0434  0.1568  0.0409
 1789ntf    nn314673   1.249   3.487   2.961 -0.0963  0.0223  0.1033
 1789ntf    sn214674   1.215   3.337   2.931  0.1539 -0.0233  0.0506
 1789ntf    cn114675   1.381   3.262   2.925 -0.0228 -0.4011 -0.1064
 1789ntf    fn414676   0.985   3.571   3.031  0.1600  0.0982 -0.2080
 1789ntf    fn414677   1.037   3.721   3.172 -0.3248  0.4528  0.1517
 1789ntf    fn414678   1.095   3.744   2.970  0.3725  0.0800  0.4023
 1789ntf    on514679   1.327   3.665   3.114  0.2863 -0.1188 -0.1019
 1789ntf    on514680   1.193   3.478   3.214 -0.1815 -0.3031 -0.3300
 1789ntf    on514681   1.170   3.322   2.795  0.1011  0.6452 -0.0068
 1789ntf    on514682   1.140   3.262   3.030  0.0733  0.2827  0.2223
 1789ntf    fn414683   1.376   3.139   2.875 -0.6720 -0.4954  0.1791
 1789ntf    fn414684   1.472   3.324   2.853 -0.1736  0.0959  0.1237
 1789ntf    fn414685   1.437   3.261   3.045 -0.6756 -0.0882  0.2101
 1790ntf    cn114686   4.943   2.677   4.799 -0.3325  0.1964 -0.1643
 1790ntf    sn214687   5.082   2.603   4.709 -0.4012 -0.0221 -0.0906
 1790ntf    nn314688   5.176   2.727   4.699  0.0438 -0.3282  0.2966
 1790ntf    sn214689   5.309   2.765   4.775  0.2578 -0.3261 -0.0743
 1790ntf    cn114690   5.422   2.763   4.632  0.1720 -0.0822 -0.1452
 1790ntf    fn414691   4.843   2.592   4.817 -0.4716  0.3183 -0.3613
 1790ntf    fn414692   4.988   2.718   4.917 -0.5697 -0.2000  0.0672
 1790ntf    fn414693   4.885   2.781   4.743 -0.0019  0.3652 -0.1957
 1790ntf    on514694   5.119   2.486   4.785 -0.1560 -0.2284 -0.5206
 1790ntf    on514695   5.008   2.571   4.589  0.0859  0.1480 -0.4364
 1790ntf    on514696   5.360   2.670   4.870  0.3276 -0.0696  0.1447
 1790ntf    on514697   5.319   2.904   4.809 -0.2602 -0.2437 -0.2466
 1790ntf    fn414698   5.436   2.646   4.573  0.1468  0.2050 -0.7277
 1790ntf    fn414699   5.380   2.840   4.533  0.1526 -0.0785 -0.1344
 1790ntf    fn414700   5.543   2.803   4.666  0.2981 -0.3723 -0.2593
 1791ntf    cn114701   6.111   4.563   2.042  0.2224  0.1267 -0.0425
 1791ntf    sn214702   6.011   4.479   1.917  0.3290  0.1707 -0.1565
 1791ntf    nn314703   6.070   4.336   1.945  0.5373  0.3956  0.5594
 1791ntf    sn214704   6.001   4.219   2.024 -0.0304  0.4563  0.1580
 1791ntf    cn114705   6.050   4.076   1.923 -0.3427  0.1773  0.4001
 1791ntf    fn414706   6.073   4.689   2.058 -0.3731 -0.1016  0.3995
 1791ntf    fn414707   6.109   4.508   2.162  0.4845  0.4517  0.1142
 1791ntf    fn414708   6.239   4.558   2.011  0.0532  0.2248 -0.7618
 1791ntf    on514709   5.874   4.506   1.954  0.6286  0.6906  0.5800
 1791ntf    on514710   6.059   4.532   1.792  0.0234  0.3109 -0.2148
 1791ntf    on514711   5.858   4.206   2.025 -0.0632  0.7880 -0.1289
 1791ntf    on514712   6.058   4.198   2.154  0.6405  0.2312 -0.1673
 1791ntf    fn414713   6.059   3.962   1.990  0.1584  0.0031  0.0465
 1791ntf    fn414714   5.984   4.052   1.811 -0.1958 -0.3094  0.4133
 1791ntf    fn414715   6.174   4.106   1.887 -0.4902  0.1321 -0.1525
 1792ntf    cn114716   2.493   2.204   1.176  0.0777 -0.2491 -0.0108
 1792ntf    sn214717   2.513   2.067   1.293  0.2505 -0.2353 -0.0238
 1792ntf    nn314718   2.621   2.122   1.392  0.2076 -0.3344  0.0796
 1792ntf    sn214719   2.605   2.208   1.523 -0.2909  0.0183 -0.2077
 1792ntf    cn114720   2.550   2.070   1.628 -0.0290 -0.0935 -0.2138
 1792ntf    fn414721   2.397   2.189   1.087 -0.1909  0.1341  0.2104
 1792ntf    fn414722   2.467   2.318   1.238 -0.0356 -0.6252  0.6488
 1792ntf    fn414723   2.601   2.223   1.102  0.1650  0.1303  0.2150
 1792ntf    on514724   2.378   2.062   1.345  0.2162 -0.4144 -0.1290
 1792ntf    on514725   2.556   1.955   1.212 -0.1565 -0.5391  0.1714
 1792ntf    on514726   2.497   2.303   1.520 -0.0762  0.2699  0.0083
 1792ntf    on514727   2.733   2.245   1.578 -0.2005  0.1515 -0.5046
 1792ntf    fn414728   2.588   2.081   1.754  0.8116  0.0313 -0.4744
 1792ntf    fn414729   2.418   2.059   1.630 -0.1159  0.9236  0.1894
 1792ntf    fn414730   2.604   1.955   1.592 -0.4149 -0.2481 -0.3063
 1793ntf    cn114731   5.101   1.575   4.756  0.3112  0.2552 -0.2689
 1793ntf    sn214732   5.003   1.682   4.646 -0.1703  0.1891  0.0893
 1793ntf    nn314733   5.041   1.830   4.682  0.1186  0.2261 -0.3556
 1793ntf    sn214734   4.952   1.943   4.746 -0.4039 -0.3165 -0.1226
 1793ntf    cn114735   4.910   1.869   4.907 -0.0554 -0.4017 -0.0693
 1793ntf    fn414736   5.230   1.580   4.731  0.2985 -0.1824 -0.4369
 1793ntf    fn414737   5.080   1.616   4.880 -0.5634 -0.4128 -0.1790
 1793ntf    fn414738   5.074   1.447   4.737 -0.6889  0.3580  0.3819
 1793ntf    on514739   5.052   1.652   4.513 -0.0467  0.0014  0.1773
 1793ntf    on514740   4.869   1.637   4.670  0.0166 -0.3640  0.1108
 1793ntf    on514741   4.824   1.967   4.685 -0.3273 -0.1318 -0.2106
 1793ntf    on514742   5.026   2.059   4.787 -0.6792 -0.0072 -0.4941
 1793ntf    fn414743   4.852   1.751   4.902 -0.1455 -0.3733  0.2746
 1793ntf    fn414744   5.018   1.857   4.981  0.2725  0.1276 -0.4516
 1793ntf    fn414745   4.831   1.952   4.974 -0.0078 -0.7178  0.3777
 1794ntf    cn114746   2.428   0.795   5.535  0.0331  0.2273 -0.4090
 1794ntf    sn214747   2.393   0.939   5.430 -0.3724  0.1833 -0.3340
 1794ntf    nn314748   2.534   0.961   5.365 -0.3689  0.0503 -0.3722
 1794ntf    sn214749   2.601   0.905   5.234 -0.1799 -0.1341 -0.1974
 1794ntf    cn114750   2.701   0.771   5.305 -0.1970  0.0386  0.1559
 1794ntf    fn414751   2.322   0.732   5.583  0.1345  0.0324 -0.4395
 1794ntf    fn414752   2.505   0.707   5.472 -0.1911 -0.2442 -0.0267
 1794ntf    fn414753   2.501   0.820   5.643 -0.1895 -0.3687 -0.1155
 1794ntf    on514754   2.283   0.906   5.342 -0.2394 -0.2541 -0.3394
 1794ntf    on514755   2.364   1.047   5.520 -0.1999  0.3069 -0.4268
 1794ntf    on514756   2.694   1.001   5.179 -0.0938  0.1551  0.4353
 1794ntf    on514757   2.507   0.837   5.148 -0.1047 -0.5072  0.0141
 1794ntf    fn414758   2.646   0.653   5.283  0.1606 -0.0874 -0.0777
 1794ntf    fn414759   2.816   0.766   5.239 -0.1741  0.2775  0.1773
 1794ntf    fn414760   2.721   0.783   5.435  0.0149  0.3108  0.1004
 1795ntf    cn114761   6.469   3.236   6.054  0.1533  0.0252 -0.0528
 1795ntf    sn214762   6.496   3.293   5.884 -0.0556 -0.3534 -0.2124
 1795ntf    nn314763   6.368   3.235   5.814 -0.4421  0.3088 -0.0501
 1795ntf    sn214764   6.337   3.088   5.771  0.0437  0.1752  0.0558
 1795ntf    cn114765   6.358   3.083   5.590  0.2449  0.0550  0.0823
 1795ntf    fn414766   6.583   3.241   6.122 -0.1882  0.2787  0.5109
 1795ntf    fn414767   6.371   3.291   6.122  0.2668  0.4985 -0.2718
 1795ntf    fn414768   6.444   3.106   6.049 -0.5426  0.1583 -0.0360
 1795ntf    on514769   6.487   3.436   5.896 -0.3469 -0.3971  0.1142
 1795ntf    on514770   6.618   3.238   5.830  0.1451  0.0387 -0.1604
 1795ntf    on514771   6.197   3.055   5.782  0.0880 -0.1488 -0.3075
 1795ntf    on514772   6.423   2.980   5.815 -0.3971 -0.0001  0.4964
 1795ntf    fn414773   6.476   3.138   5.563  0.6123 -0.3703  0.7885
 1795ntf    fn414774   6.353   2.965   5.531 -0.0648  0.0913  0.0348
 1795ntf    fn414775   6.260   3.152   5.534  0.3485  0.4578  0.3908
 1796ntf    cn114776   2.041   6.182   4.225 -0.1038 -0.2609  0.0440
 1796ntf    sn214777   2.051   6.011   4.286 -0.2679 -0.2588  0.0772
 1796ntf    nn314778   2.140   5.946   4.174 -0.1287 -0.6143  0.3909
 1796ntf    sn214779   2.296   5.947   4.153 -0.1916 -0.0656 -0.0841
 1796ntf    cn114780   2.337   5.780   4.211  0.3189  0.2309  0.4210
 1796ntf    fn414781   1.960   6.262   4.293 -0.2025 -0.2929 -0.0354
 1796ntf    fn414782   2.156   6.246   4.239 -0.0649 -0.2825 -0.1638
 1796ntf    fn414783   2.014   6.193   4.096  0.1332 -0.7736 -0.0537
 1796ntf    on514784   2.115   6.019   4.415 -0.4888 -0.5125  0.2026
 1796ntf    on514785   1.914   5.968   4.274 -0.5251  0.4514  0.4223
 1796ntf    on514786   2.369   6.038   4.238  0.2745 -0.4897 -0.0291
 1796ntf    on514787   2.329   5.941   4.013 -0.6517 -0.0805 -0.1959
 1796ntf    fn414788   2.455   5.732   4.176  0.1524 -0.1272  0.3487
 1796ntf    fn414789   2.344   5.778   4.343  0.3151  0.6521  0.4300
 1796ntf    fn414790   2.251   5.686   4.177  0.1169  0.4432  0.3461
 1797ntf    cn114791   2.101   5.484   3.791  0.2533  0.2241  0.0393
 1797ntf    sn214792   2.142   5.360   3.665 -0.1496  0.1545 -0.0233
 1797ntf    nn314793   2.229   5.260   3.748 -0.4110  0.2208  0.3306
 1797ntf    sn214794   2.202   5.116   3.806 -0.0984  0.0465  0.0501
 1797ntf    cn114795   2.136   5.162   3.969 -0.1162  0.0122  0.0523
 1797ntf    fn414796   2.066   5.436   3.910  0.0812  0.1105 -0.0569
 1797ntf    fn414797   2.196   5.572   3.815  0.7954 -0.3221 -0.0775
 1797ntf    fn414798   2.001   5.558   3.747  0.2013  0.2559  0.2110
 1797ntf    on514799   2.017   5.303   3.620 -0.1934  0.1922  0.0504
 1797ntf    on514800   2.217   5.428   3.562  0.0503  0.3791  0.2720
 1797ntf    on514801   2.319   5.043   3.847 -0.3360 -0.4152 -0.0860
 1797ntf    on514802   2.093   5.044   3.746 -0.2081  0.0849  0.2013
 1797ntf    fn414803   2.213   5.247   4.034 -0.1696 -0.2122  0.4119
 1797ntf    fn414804   2.015   5.213   3.954 -0.3053 -0.3531  0.3197
 1797ntf    fn414805   2.124   5.050   4.039 -0.0760 -0.2505 -0.3573
 1798ntf    cn114806   4.392   4.358   2.500 -0.2652  0.2398 -0.7847
 1798ntf    sn214807   4.334   4.255   2.362 -0.2126 -0.5542 -0.2203
 1798ntf    nn314808   4.280   4.141   2.455  0.0615 -0.1952  0.3865
 1798ntf    sn214809   4.262   3.991   2.412  0.0082 -0.1521  0.2549
 1798ntf    cn114810   4.115   3.949   2.512 -0.1031  0.2581  0.2664
 1798ntf    fn414811   4.300   4.383   2.592  0.2491 -0.3351 -0.1098
 1798ntf    fn414812   4.493   4.299   2.561 -0.1861  0.5564 -0.6083
 1798ntf    fn414813   4.428   4.479   2.460 -0.2160  0.4278 -0.1759
 1798ntf    on514814   4.221   4.327   2.309 -0.0871  0.0445  0.3248
 1798ntf    on514815   4.444   4.226   2.273  0.4010  0.2187  0.2788
 1798ntf    on514816   4.363   3.910   2.476  0.3128 -0.1967 -0.2832
 1798ntf    on514817   4.223   3.952   2.279 -0.4032  0.1945  0.2724
 1798ntf    fn414818   4.124   3.958   2.644  0.2808  0.4319  0.2296
 1798ntf    fn414819   4.008   4.018   2.478 -0.2457 -0.0872 -0.0022
 1798ntf    fn414820   4.085   3.820   2.501 -0.3711  0.3263  0.2107
 1799ntf    cn114821   2.848   3.006   5.012 -0.2456 -0.2068  0.2619
 1799ntf    sn214822   2.798   2.839   4.960 -0.3411 -0.0731 -0.0770
 1799ntf    nn314823   2.648   2.850   5.004 -0.2700 -0.0049  0.1508
 1799ntf    sn214824   2.557   2.764   5.098 -0.0585 -0.2529  0.1280
 1799ntf    cn114825   2.413   2.713   4.999 -0.1843  0.2986  0.0254
 1799ntf    fn414826   2.971   3.026   4.968 -0.2018  0.0252  0.4926
 1799ntf    fn414827   2.775   3.104   4.962  0.2360 -0.0838 -0.2161
 1799ntf    fn414828   2.850   3.024   5.143 -0.1524  0.2848  0.1962
 1799ntf    on514829   2.802   2.846   4.816  0.4818 -0.5900 -0.0839
 1799ntf    on514830   2.886   2.745   5.026  0.3939  0.3564 -0.4329
 1799ntf    on514831   2.496   2.858   5.189 -0.5422 -0.3837 -0.0604
 1799ntf    on514832   2.610   2.641   5.153 -0.2991 -0.3067  0.2394
 1799ntf    fn414833   2.354   2.825   4.961  0.2426  0.6672  0.4225
 1799ntf    fn414834   2.439   2.644   4.889 -0.8271  0.5287 -0.2691
 1799ntf    fn414835   2.328   2.645   5.074  0.0566  0.0019  0.0324
 1800ntf    cn114836   2.935   5.494   3.541 -0.1342  0.1425  0.3761
 1800ntf    sn214837   2.925   5.395   3.693 -0.2197 -0.2149  0.1376
 1800ntf    nn314838   3.062   5.439   3.755  0.0165 -0.4846 -0.1863
 1800ntf    sn214839   3.192   5.363   3.801  0.2552  0.0536  0.0464
 1800ntf    cn114840   3.315   5.450   3.699  0.0621  0.3865  0.0966
 1800ntf    fn414841   2.965   5.621   3.562  0.4750  0.1117 -0.2849
 1800ntf    fn414842   3.028   5.445   3.462 -0.1862 -0.0383  0.4270
 1800ntf    fn414843   2.825   5.483   3.469 -0.0889  0.0363  0.3231
 1800ntf    on514844   2.813   5.454   3.761  0.2709  0.2433  0.5594
 1800ntf    on514845   2.908   5.259   3.647  0.3718 -0.2317 -0.0441
 1800ntf    on514846   3.192   5.225   3.760 -0.0812  0.0925 -0.0905
 1800ntf    on514847   3.238   5.394   3.934  0.5474  0.0148 -0.0449
 1800ntf    fn414848   3.296   5.417   3.572  0.4250  0.0470  0.1300
 1800ntf    fn414849   3.299   5.581   3.706 -0.2145  0.3302  0.5534
 1800ntf    fn414850   3.439   5.420   3.734  0.0138  0.0844  0.0153
 1801ntf    cn114851   6.070   6.435   5.411 -0.2589  0.2013  0.2715
 1801ntf    sn214852   6.050   6.310   5.280  0.2178  0.1683  0.2288
 1801ntf    nn314853   5.896   6.284   5.288  0.2664 -0.1109  0.2614
 1801ntf    sn214854   5.809   6.169   5.352 -0.1341  0.0210 -0.0434
 1801ntf    cn114855   5.659   6.263   5.396  0.0088  0.1430  0.1854
 1801ntf    fn414856   6.032   6.380   5.526  0.0419 -0.6785 -0.0397
 1801ntf    fn414857   6.193   6.481   5.430 -0.2116 -0.2139  1.0278
 1801ntf    fn414858   5.989   6.537   5.394 -0.3820  0.0877  0.1736
 1801ntf    on514859   6.082   6.385   5.161 -0.4862 -0.3327 -0.2813
 1801ntf    on514860   6.131   6.197   5.320  0.0580 -0.0527 -0.0718
 1801ntf    on514861   5.865   6.118   5.475 -0.4039 -0.3402 -0.0699
 1801ntf    on514862   5.760   6.081   5.249 -0.0771  0.1839 -0.2106
 1801ntf    fn414863   5.624   6.339   5.294 -0.0402 -0.6388 -0.3907
 1801ntf    fn414864   5.552   6.191   5.427  0.3273 -0.1035  0.7394
 1801ntf    fn414865   5.673   6.342   5.501  0.4613  0.2376  0.0560
 1802ntf    cn114866   4.749   3.395   0.049 -0.0553 -0.0657 -0.0055
 1802ntf    sn214867   4.615   3.490   0.127 -0.1884 -0.0398 -0.2694
 1802ntf    nn314868   4.595   3.385   0.242 -0.4576  0.0066 -0.2736
 1802ntf    sn214869   4.463   3.308   0.279 -0.1655 -0.4617 -0.1967
 1802ntf    cn114870   4.336   3.437   0.261 -0.0043 -0.2993 -0.1730
 1802ntf    fn414871   4.856   3.411   0.125 -0.1775  0.2140  0.1107
 1802ntf    fn414872   4.727   3.265   0.036 -0.3046 -0.0249  0.0004
 1802ntf    fn414873   4.781   3.451  -0.066  0.0006 -0.1263 -0.0199
 1802ntf    on514874   4.686   3.607   0.170  0.2048 -0.1520 -0.6033
 1802ntf    on514875   4.525   3.506   0.015 -0.7842 -0.1734  0.1803
 1802ntf    on514876   4.449   3.269   0.417 -0.3142 -0.5276 -0.2294
 1802ntf    on514877   4.421   3.200   0.193  0.5437 -0.1962 -0.8861
 1802ntf    fn414878   4.374   3.558   0.299 -0.4171 -0.1380 -0.2685
 1802ntf    fn414879   4.299   3.450   0.134  0.3503  0.1059 -0.2372
 1802ntf    fn414880   4.225   3.415   0.329  0.6508 -0.3185  0.9121
 1803ntf    cn114881   5.809   0.723   2.319 -0.1156  0.1994 -0.1777
 1803ntf    sn214882   5.817   0.704   2.500 -0.3879  0.1083 -0.1746
 1803ntf    nn314883   5.888   0.841   2.530  0.1466 -0.1280 -0.3540
 1803ntf    sn214884   6.038   0.866   2.569  0.0474  0.1760 -0.1660
 1803ntf    cn114885   6.035   1.047   2.583 -0.3565  0.1641 -0.0601
 1803ntf    fn414886   5.925   0.748   2.261  0.1237  0.4624  0.4017
 1803ntf    fn414887   5.767   0.613   2.259 -0.0230 -0.0317  0.1771
 1803ntf    fn414888   5.730   0.820   2.276 -0.4658 -0.0399 -0.0855
 1803ntf    on514889   5.678   0.696   2.538 -0.3516  0.3052  0.0033
 1803ntf    on514890   5.898   0.586   2.512 -0.0002  0.4142  0.2372
 1803ntf    on514891   6.126   0.832   2.460 -0.4011  0.2601 -0.5573
 1803ntf    on514892   6.080   0.818   2.698 -0.0557  0.4007 -0.0485
 1803ntf    fn414893   6.002   1.107   2.469  0.3217  0.5692 -0.0533
 1803ntf    fn414894   5.969   1.105   2.681 -0.0359  0.4987 -0.0371
 1803ntf    fn414895   6.159   1.091   2.602 -0.1084 -0.5986  0.1249
 1804ntf    cn114896   4.539   5.921   3.540  0.0700  0.1175 -0.4046
 1804ntf    sn214897   4.576   5.972   3.711  0.1826 -0.1672 -0.3429
 1804ntf    nn314898   4.437   5.948   3.780  0.2867  0.1312 -0.0258
 1804ntf    sn214899   4.312   6.042   3.774 -0.0286 -0.2761  0.0884
 1804ntf    cn114900   4.373   6.189   3.863 -0.0911  0.0892 -0.4628
 1804ntf    fn414901   4.615   5.823   3.493  0.2305 -0.0294  0.1429
 1804ntf    fn414902   4.417   5.873   3.523 -0.0872  0.3941 -0.0662
 1804ntf    fn414903   4.555   6.026   3.462 -0.1173  0.1133 -0.4488
 1804ntf    on514904   4.678   5.875   3.742  0.3618  0.0833 -0.1546
 1804ntf    on514905   4.618   6.108   3.689 -1.1753  0.3582  0.1580
 1804ntf    on514906   4.202   5.986   3.849 -0.2732  0.1593  0.0657
 1804ntf    on514907   4.280   6.101   3.646  0.1604  0.3871  0.3401
 1804ntf    fn414908   4.452   6.161   3.966 -0.4322  0.0799 -0.2021
 1804ntf    fn414909   4.443   6.272   3.788  0.8594  0.0820  0.4031
 1804ntf    fn414910   4.277   6.262   3.917 -0.1269 -0.2400 -0.0756
 1805ntf    cn114911   3.817   4.313   2.913  0.2973  0.1033  0.4198
 1805ntf    sn214912   3.945   4.429   2.968  0.3260  0.2711 -0.0005
 1805ntf    nn314913   4.015   4.338   3.076  0.0864 -0.4037 -0.4110
 1805ntf    sn214914   4.116   4.395   3.181 -0.5009 -0.0231 -0.0452
 1805ntf    cn114915   4.015   4.369   3.330 -0.2837 -0.3567  0.0452
 1805ntf    fn414916   3.743   4.366   2.817  0.0166 -0.0503  0.5487
 1805ntf    fn414917   3.873   4.209   2.854  0.2780  0.3541 -0.0407
 1805ntf    fn414918   3.736   4.266   3.007  0.0805 -0.1977  0.0846
 1805ntf    on514919   4.021   4.449   2.848  0.4446 -0.0732  0.0150
 1805ntf    on514920   3.866   4.537   3.021 -0.0885 -0.1971  0.3495
 1805ntf    on514921   4.146   4.536   3.183  0.5337 -0.2370  0.0462
 1805ntf    on514922   4.221   4.298   3.204 -0.0767  0.3894 -0.2337
 1805ntf    fn414923   4.075   4.383   3.448 -0.0592 -0.3428 -0.0688
 1805ntf    fn414924   3.915   4.455   3.325 -0.0608 -0.1093 -0.1766
 1805ntf    fn414925   3.959   4.250   3.328  0.0708 -0.5344  0.3379
 1806ntf    cn114926   4.328   6.137   5.306 -0.0632  0.0719  0.2991
 1806ntf    sn214927   4.180   6.237   5.336 -0.0826  0.1489 -0.0493
 1806ntf    nn314928   4.220   6.329   5.457 -0.1150  0.3781 -0.2113
 1806ntf    sn214929   4.186   6.310   5.609 -0.0469 -0.2291 -0.2687
 1806ntf    cn114930   4.060   6.438   5.638 -0.0185 -0.2651  0.0137
 1806ntf    fn414931   4.346   6.037   5.391 -0.4183 -0.6236 -0.4215
 1806ntf    fn414932   4.325   6.075   5.189 -0.0433  0.2250  0.2181
 1806ntf    fn414933   4.438   6.211   5.304  0.0936 -0.1689 -0.3950
 1806ntf    on514934   4.168   6.304   5.209  0.1500 -0.4420 -0.3828
 1806ntf    on514935   4.075   6.141   5.361 -0.1819  0.3787  0.4329
 1806ntf    on514936   4.291   6.359   5.695  0.0031 -0.7545 -0.0284
 1806ntf    on514937   4.131   6.184   5.655 -0.3957  0.0435  0.0737
 1806ntf    fn414938   3.958   6.422   5.557 -0.2347  0.5092  0.1200
 1806ntf    fn414939   4.015   6.453   5.762  0.4413  0.1107  0.1398
 1806ntf    fn414940   4.101   6.557   5.598  0.0284 -0.1732  0.3250
 1807ntf    cn114941   3.146   0.744   3.263  0.4578  0.3181  0.0215
 1807ntf    sn214942   3.104   0.906   3.191  0.2525  0.3014  0.1029
 1807ntf    nn314943   3.043   0.978   3.317 -0.1500 -0.7885  0.5452
 1807ntf    sn214944   3.104   1.079   3.421 -0.0892 -0.1468 -0.1066
 1807ntf    cn114945   3.027   1.238   3.377  0.0092 -0.0521  0.0631
 1807ntf    fn414946   3.230   0.671   3.192  0.4682  0.3122  0.0404
 1807ntf    fn414947   3.198   0.756   3.384  0.1354 -0.3111  0.2311
 1807ntf    fn414948   3.036   0.673   3.282  0.4597  0.2665 -0.1550
 1807ntf    on514949   3.222   0.963   3.131  0.1852  0.0510 -0.2693
 1807ntf    on514950   2.996   0.877   3.100 -0.1366  0.0678  0.6340
 1807ntf    on514951   3.244   1.110   3.409 -0.0921 -0.0665  0.0664
 1807ntf    on514952   3.055   1.049   3.553  0.1288  0.6240  0.1558
 1807ntf    fn414953   3.066   1.260   3.253  0.3332  0.0777  0.1863
 1807ntf    fn414954   2.895   1.240   3.381 -0.0008 -0.3948 -0.0315
 1807ntf    fn414955   3.071   1.338   3.451  0.2796  0.0742 -0.2617
 1808ntf    cn114956   4.419   3.778   3.736 -0.0615  0.2975 -0.1905
 1808ntf    sn214957   4.291   3.714   3.848  0.1236  0.5018  0.1381
 1808ntf    nn314958   4.171   3.744   3.751 -0.2143  0.1074  0.4296
 1808ntf    sn214959   4.075   3.642   3.680  0.2426  0.0669 -0.1334
 1808ntf    cn114960   3.927   3.661   3.784  0.6184  0.1779  0.3880
 1808ntf    fn414961   4.397   3.738   3.612 -0.0608 -0.0107 -0.0918
 1808ntf    fn414962   4.421   3.910   3.729 -0.4217  0.3185  0.0740
 1808ntf    fn414963   4.536   3.730   3.775  0.0579  0.3404 -0.4921
 1808ntf    on514964   4.325   3.575   3.869 -0.8693  0.1572 -0.4833
 1808ntf    on514965   4.291   3.808   3.958 -0.2335  0.0544  0.5272
 1808ntf    on514966   4.115   3.504   3.686 -0.1904 -0.0395  0.3591
 1808ntf    on514967   4.023   3.686   3.553 -0.2317  0.1850  0.0994
 1808ntf    fn414968   3.961   3.685   3.910  0.1457  0.2302  0.5080
 1808ntf    fn414969   3.850   3.764   3.754  0.4909  0.0196  0.1627
 1808ntf    fn414970   3.853   3.552   3.795  0.6414  0.1177 -0.0360
 1809ntf    cn114971   6.078   1.350   1.951  0.0389  0.3817  0.1041
 1809ntf    sn214972   6.226   1.366   1.848 -0.0934  0.2471 -0.1062
 1809ntf    nn314973   6.186   1.276   1.726  0.2825 -0.1418  0.0507
 1809ntf    sn214974   6.262   1.144   1.687  0.3505  0.0235 -0.3814
 1809ntf    cn114975   6.413   1.220   1.620  0.4332  0.0021 -0.2178
 1809ntf    fn414976   6.029   1.228   1.962  0.5724  0.1405 -0.2132
 1809ntf    fn414977   6.100   1.392   2.075  0.2885 -0.2307  0.2705
 1809ntf    fn414978   5.977   1.426   1.911 -0.0636  0.0916 -0.1868
 1809ntf    on514979   6.232   1.504   1.809  0.3883  0.1485 -0.3980
 1809ntf    on514980   6.327   1.316   1.938 -0.1457  0.2903 -0.0240
 1809ntf    on514981   6.196   1.085   1.573 -0.2510 -0.0400 -0.0003
 1809ntf    on514982   6.303   1.059   1.796  0.0477 -0.4235 -0.6138
 1809ntf    fn414983   6.386   1.280   1.505 -0.3703  0.0885  0.0139
 1809ntf    fn414984   6.455   1.313   1.704 -0.1017 -0.1118  0.1802
 1809ntf    fn414985   6.510   1.133   1.595  0.1963 -0.5016  0.5699
 1810ntf    cn114986   1.421   3.513   5.317 -0.1169  0.0539 -0.0002
 1810ntf    sn214987   1.582   3.430   5.300 -0.0437  0.2075 -0.0655
 1810ntf    nn314988   1.569   3.317   5.409  0.1809  0.1105 -0.1377
 1810ntf    sn214989   1.598   3.324   5.563 -0.0206  0.2416 -0.1039
 1810ntf    cn114990   1.455   3.232   5.628 -0.0731  0.2097 -0.2638
 1810ntf    fn414991   1.314   3.438   5.298  0.1227 -0.2312 -0.2262
 1810ntf    fn414992   1.407   3.575   5.433 -0.4227 -0.0030 -0.0057
 1810ntf    fn414993   1.398   3.609   5.228 -0.1035  0.3494  0.3122
 1810ntf    on514994   1.574   3.376   5.167 -0.1136  0.2712 -0.0874
 1810ntf    on514995   1.678   3.534   5.328  0.1163  0.0531 -0.0392
 1810ntf    on514996   1.582   3.452   5.626 -0.3197 -0.0467  0.4140
 1810ntf    on514997   1.715   3.250   5.605  0.0135  0.3036 -0.0903
 1810ntf    fn414998   1.348   3.308   5.641 -0.0905  0.1154  0.1595
 1810ntf    fn414999   1.422   3.126   5.556 -0.0962 -0.0808  0.1701
 1810ntf    fn415000   1.488   3.193   5.750 -0.2918 -0.4233 -0.4034
 1811ntf    cn115001   2.803   2.240   4.856  0.1683 -0.5976 -0.0776
 1811ntf    sn215002   2.971   2.254   4.925 -0.0082 -0.2388  0.2846
 1811ntf    nn315003   3.027   2.128   4.850 -0.2697 -0.2499  0.1065
 1811ntf    sn215004   3.140   2.121   4.742 -0.0781 -0.3147  0.3105
 1811ntf    cn115005   3.286   2.109   4.850  0.1345  0.1430  0.0812
 1811ntf    fn415006   2.745   2.137   4.914 -0.1304 -0.2709  0.2075
 1811ntf    fn415007   2.733   2.349   4.883  0.1125 -0.7279  0.3079
 1811ntf    fn415008   2.801   2.215   4.726  0.0411 -0.4329 -0.1070
 1811ntf    on515009   3.027   2.381   4.883 -0.7187 -0.1998 -0.5797
 1811ntf    on515010   2.959   2.239   5.067 -0.2008 -0.1863  0.2744
 1811ntf    on515011   3.164   2.240   4.663  0.3006 -0.6693 -0.1112
 1811ntf    on515012   3.137   1.994   4.674  0.1301 -0.1515 -0.0080
 1811ntf    fn415013   3.304   1.993   4.911  0.2462  0.0615 -0.1064
 1811ntf    fn415014   3.400   2.122   4.785 -0.1701  0.5927 -0.3729
 1811ntf    fn415015   3.279   2.196   4.949 -0.1980 -0.3294  0.4791
 1812ntf    cn115016   5.646   4.622   6.537 -0.2331  0.0529  0.1630
 1812ntf    sn215017   5.765   4.706   6.427 -0.0490 -0.1369  0.2163
 1812ntf    nn315018   5.871   4.758   6.530 -0.0532 -0.1366  0.2200
 1812ntf    sn215019   6.017   4.806   6.497 -0.2084  0.0800 -0.1556
 1812ntf    cn115020   6.120   4.697   6.600 -0.2237  0.2235  0.0120
 1812ntf    fn415021   5.711   4.532   6.609  0.2166  0.1390 -0.1277
 1812ntf    fn415022   5.584   4.710   6.613 -0.0285  0.3427 -0.0012
 1812ntf    fn415023   5.552   4.564   6.465  0.0877 -0.1125 -0.1270
 1812ntf    on515024   5.812   4.600   6.341 -0.0775 -0.0326  0.0727
 1812ntf    on515025   5.691   4.812   6.363  1.1237  0.5544 -0.0218
 1812ntf    on515026   6.046   4.937   6.550  0.2844 -0.0877 -0.0036
 1812ntf    on515027   6.072   4.777   6.367  0.0529 -0.4317  0.0650
 1812ntf    fn415028   6.113   4.567   6.576  0.1894  0.2092 -0.0486
 1812ntf    fn415029   6.248   4.725   6.582 -0.3508  0.9080  0.1516
 1812ntf    fn415030   6.100   4.718   6.729 -0.2364  0.6758 -0.0605
 1813ntf    cn115031   0.287   1.303   6.285 -0.0574  0.3511 -0.0252
 1813ntf    sn215032   0.390   1.334   6.431 -0.1928  0.2970  0.0817
 1813ntf    nn315033   0.289   1.279   6.538 -0.3695  0.3166 -0.0743
 1813ntf    sn215034   0.310   1.184   6.661 -0.0002  0.1794 -0.2425
 1813ntf    cn115035   0.317   1.320   6.782 -0.0463 -0.0237 -0.0124
 1813ntf    fn415036   0.161   1.340   6.301 -0.0861  0.1868  0.1287
 1813ntf    fn415037   0.327   1.363   6.173 -0.5640  1.0396  0.1564
 1813ntf    fn415038   0.291   1.176   6.249 -0.5835  0.1697  0.5363
 1813ntf    on515039   0.509   1.259   6.400 -0.4031 -0.1195  0.2729
 1813ntf    on515040   0.402   1.477   6.426 -0.1441  0.2970  0.1971
 1813ntf    on515041   0.435   1.113   6.671 -0.1230 -0.0120 -0.0631
 1813ntf    on515042   0.187   1.115   6.690 -0.0374  0.3992  0.1378
 1813ntf    fn415043   0.207   1.393   6.769 -0.0805 -0.0886 -0.0861
 1813ntf    fn415044   0.313   1.285   6.910  0.1423  0.5073  0.1375
 1813ntf    fn415045   0.419   1.401   6.759  0.2979 -0.4987 -0.1788
 1814ntf    cn115046   6.559   3.583   0.797 -0.0569  0.4594 -0.1959
 1814ntf    sn215047   6.495   3.466   0.673  0.0393  0.1174  0.0740
 1814ntf    nn315048   6.620   3.375   0.650  0.1386  0.1956  0.2966
 1814ntf    sn215049   6.744   3.392   0.555  0.0200 -0.0648  0.0908
 1814ntf    cn115050   6.882   3.357   0.669  0.0945 -0.2867 -0.0683
 1814ntf    fn415051   6.482   3.601   0.903  0.4321  0.4384  0.1683
 1814ntf    fn415052   6.672   3.533   0.845 -0.3367  0.1835  0.1707
 1814ntf    fn415053   6.588   3.704   0.752  0.1686  0.2182 -0.7072
 1814ntf    on515054   6.394   3.395   0.748 -0.0931 -0.1256 -0.3300
 1814ntf    on515055   6.434   3.541   0.566 -0.0665 -0.2505 -0.1221
 1814ntf    on515056   6.770   3.528   0.513  0.1371 -0.1208 -0.0184
 1814ntf    on515057   6.766   3.291   0.455 -0.0223  0.1547 -0.1408
 1814ntf    fn415058   6.886   3.235   0.720  0.6378 -0.4257 -0.4378
 1814ntf    fn415059   6.997   3.379   0.607  0.0253  0.0027 -0.0951
 1814ntf    fn415060   6.875   3.438   0.773 -0.0824 -0.4158  0.0208
 1815ntf    cn115061   6.438   2.025   1.449 -0.0005 -0.1527 -0.2513
 1815ntf    sn215062   6.612   1.999   1.404  0.0645  0.0815 -0.1345
 1815ntf    nn315063   6.671   2.126   1.476  0.1992 -0.0362 -0.0378
 1815ntf    sn215064   6.802   2.209   1.450  0.0010  0.2031 -0.2786
 1815ntf    cn115065   6.742   2.356   1.361 -0.5235  0.1440 -0.0269
 1815ntf    fn415066   6.346   1.985   1.363 -0.4856 -0.4192  0.3824
 1815ntf    fn415067   6.406   1.971   1.566 -0.3484 -0.1179 -0.3274
 1815ntf    fn415068   6.413   2.154   1.465  1.0720 -0.0447  0.6777
 1815ntf    on515069   6.637   1.868   1.457 -0.7145  0.0967  0.2883
 1815ntf    on515070   6.598   2.009   1.261 -0.1687 -0.1214 -0.1254
 1815ntf    on515071   6.892   2.150   1.355  0.2920  0.1232  0.0459
 1815ntf    on515072   6.860   2.265   1.570  0.3585 -0.1212 -0.2988
 1815ntf    fn415073   6.630   2.406   1.410 -0.6413  0.4149 -0.5665
 1815ntf    fn415074   6.827   2.456   1.346  0.4252 -0.6266  0.1368
 1815ntf    fn415075   6.696   2.326   1.241  0.2685  0.0201 -0.3030
 1816ntf    cn115076   2.759   3.229   5.797  0.1709 -0.4093 -0.2633
 1816ntf    sn215077   2.578   3.215   5.789  0.1314 -0.0473 -0.0347
 1816ntf    nn315078   2.547   3.360   5.737  0.3700  0.0385  0.0637
 1816ntf    sn215079   2.484   3.391   5.596  0.4377 -0.0931  0.0050
 1816ntf    cn115080   2.547   3.559   5.568  0.0497  0.0443 -0.0360
 1816ntf    fn415081   2.822   3.114   5.813  0.5899 -0.1264  0.1513
 1816ntf    fn415082   2.808   3.275   5.683  0.5108 -0.2127 -0.0379
 1816ntf    fn415083   2.797   3.314   5.892  0.1884 -0.0892 -0.5562
 1816ntf    on515084   2.547   3.107   5.699 -0.4089 -0.1129  0.2208
 1816ntf    on515085   2.533   3.201   5.926  0.8156 -0.9084  0.1036
 1816ntf    on515086   2.341   3.404   5.596  0.4524  0.0590 -0.1000
 1816ntf    on515087   2.541   3.318   5.486  0.2139  0.2191 -0.3175
 1816ntf    fn415088   2.513   3.636   5.670 -0.0050 -0.8361  0.6204
 1816ntf    fn415089   2.678   3.566   5.558  0.0453 -0.5354 -0.5620
 1816ntf    fn415090   2.494   3.617   5.462 -0.3594 -0.2752 -0.0113
 1817ntf    cn115091   2.729   0.393   2.018  0.4585  0.0889  0.1931
 1817ntf    sn215092   2.714   0.255   2.136  0.3165  0.0736  0.1569
 1817ntf    nn315093   2.797   0.309   2.258 -0.0866  0.3906  0.2956
 1817ntf    sn215094   2.916   0.243   2.337  0.0532 -0.0337 -0.2615
 1817ntf    cn115095   2.889   0.316   2.501  0.5034 -0.3307 -0.0518
 1817ntf    fn415096   2.854   0.407   1.975  0.7438  0.1031  1.0028
 1817ntf    fn415097   2.654   0.370   1.911  0.0770 -0.3610  0.5539
 1817ntf    fn415098   2.692   0.502   2.083 -0.2032 -0.4745  0.7802
 1817ntf    on515099   2.574   0.251   2.170  0.2948  0.9735  0.2109
 1817ntf    on515100   2.770   0.148   2.058  0.2023  0.2831 -0.2172
 1817ntf    on515101   3.044   0.299   2.299  0.1910 -0.3698 -0.2912
 1817ntf    on515102   2.895   0.104   2.366 -0.4612  0.1699  0.3534
 1817ntf    fn415103   2.788   0.271   2.574 -0.0402 -0.2794 -0.7553
 1817ntf    fn415104   2.992   0.300   2.582  0.2428  0.4137  0.4436
 1817ntf    fn415105   2.868   0.446   2.509 -0.2887 -0.4843  0.4750
 1818ntf    cn115106   0.029   1.786   2.192 -0.2984 -0.0475 -0.0862
 1818ntf    sn215107  -0.096   1.821   2.319 -0.2020 -0.1471  0.0355
 1818ntf    nn315108  -0.212   1.721   2.283  0.2749 -0.5739 -0.3374
 1818ntf    sn215109  -0.262   1.586   2.346 -0.1122 -0.2594  0.0342
 1818ntf    cn115110  -0.441   1.591   2.311 -0.0818 -0.6296 -0.1672
 1818ntf    fn415111   0.145   1.839   2.225 -0.4071 -0.0697  0.3356
 1818ntf    fn415112   0.054   1.657   2.174 -0.3605 -0.1063  0.2404
 1818ntf    fn415113   0.002   1.829   2.069  0.4024 -0.4153 -0.3699
 1818ntf    on515114  -0.037   1.795   2.448 -0.2893  0.0613  0.1176
 1818ntf    on515115  -0.123   1.958   2.283  0.5783 -0.0770 -0.2890
 1818ntf    on515116  -0.261   1.585   2.491  0.0719  0.1522  0.0396
 1818ntf    on515117  -0.219   1.465   2.281  0.2149 -0.1508  0.0471
 1818ntf    fn415118  -0.502   1.698   2.359  0.0294 -0.8206  0.3992
 1818ntf    fn415119  -0.463   1.592   2.180  0.0021 -0.3616 -0.1811
 1818ntf    fn415120  -0.501   1.487   2.365 -0.3163 -0.2716  0.2674
 1819ntf    cn115121   3.095   3.307   1.373 -0.1602 -0.1806  0.1228
 1819ntf    sn215122   2.954   3.208   1.318 -0.4247  0.1851  0.1430
 1819ntf    nn315123   3.000   3.164   1.174 -0.6237 -0.0761  0.1570
 1819ntf    sn215124   3.012   3.023   1.108  0.3314  0.1523 -0.1769
 1819ntf    cn115125   3.182   2.972   1.149  0.1528 -0.2601  0.0578
 1819ntf    fn415126   3.085   3.357   1.496  0.1421  0.2520 -0.0227
 1819ntf    fn415127   3.209   3.239   1.378 -0.0348  0.0066 -0.1531
 1819ntf    fn415128   3.114   3.408   1.290 -0.0315  0.0468  0.4243
 1819ntf    on515129   2.945   3.103   1.416  0.2170 -0.3904 -0.3993
 1819ntf    on515130   2.847   3.305   1.317 -0.0672  0.5788 -0.1046
 1819ntf    on515131   3.023   3.035   0.965  0.0708 -0.2180 -0.2285
 1819ntf    on515132   2.929   2.916   1.158  0.4594  0.1480  0.0298
 1819ntf    fn415133   3.201   2.963   1.280  0.0236  0.3904  0.1269
 1819ntf    fn415134   3.215   2.854   1.099  0.0988 -0.3109  0.1405
 1819ntf    fn415135   3.271   3.062   1.111  0.1236 -0.1113  0.3368
 1820ntf    cn115136   5.166   2.728   5.441  0.0073 -0.2721  0.0725
 1820ntf    sn215137   5.113   2.727   5.615 -0.5507 -0.0649 -0.0949
 1820ntf    nn315138   5.239   2.798   5.677 -0.5236  0.2646 -0.5217
 1820ntf    sn215139   5.244   2.886   5.806 -0.0980 -0.2459 -0.1872
 1820ntf    cn115140   5.302   3.034   5.718 -0.3996 -0.3614 -0.5829
 1820ntf    fn415141   5.202   2.850   5.405 -0.2511 -0.1724  0.1457
 1820ntf    fn415142   5.276   2.658   5.424  0.1790 -0.1263  0.5425
 1820ntf    fn415143   5.073   2.695   5.353 -0.0771 -0.1532  0.1174
 1820ntf    on515144   5.003   2.821   5.615 -0.8398 -0.4019  0.2485
 1820ntf    on515145   5.102   2.589   5.654 -0.1255  0.0231  0.3453
 1820ntf    on515146   5.347   2.841   5.897  0.3390  0.5710 -0.2703
 1820ntf    on515147   5.118   2.928   5.865  0.0472  0.3018 -0.2578
 1820ntf    fn415148   5.432   3.044   5.693 -0.2149 -0.2007  0.3821
 1820ntf    fn415149   5.236   3.037   5.603  0.1625 -0.2074 -0.9048
 1820ntf    fn415150   5.264   3.145   5.779  0.4154 -0.3068 -0.1513
 1821ntf    cn115151   2.162   5.009   0.384  0.1173 -0.0782 -0.1749
 1821ntf    sn215152   2.233   4.904   0.253 -0.1263  0.1458 -0.4887
 1821ntf    nn315153   2.288   4.798   0.355  0.4653 -0.0939 -1.0512
 1821ntf    sn215154   2.290   4.641   0.367  0.5563 -0.0275 -0.1567
 1821ntf    cn115155   2.279   4.618   0.547 -0.6211 -0.3985 -0.2710
 1821ntf    fn415156   2.260   5.032   0.470 -0.1164 -0.0269  0.0764
 1821ntf    fn415157   2.138   5.127   0.330  0.6903 -0.0263 -0.3236
 1821ntf    fn415158   2.056   4.960   0.445  0.3047  0.3273  0.4839
 1821ntf    on515159   2.114   4.871   0.178 -0.5397  0.0326  0.2124
 1821ntf    on515160   2.329   4.993   0.192 -0.0252  0.0703 -0.4389
 1821ntf    on515161   2.419   4.585   0.335  0.5383 -0.0335 -0.2181
 1821ntf    on515162   2.171   4.577   0.318  0.6387 -0.5236  0.2850
 1821ntf    fn415163   2.287   4.493   0.590 -0.1193 -0.1642  0.3368
 1821ntf    fn415164   2.386   4.679   0.595 -0.4021 -0.6054 -0.4946
 1821ntf    fn415165   2.166   4.666   0.597 -0.0628  0.0698  0.5600
 1822ntf    cn115166   6.123   2.907   1.112  0.0963  0.2028  0.3421
 1822ntf    sn215167   6.043   2.999   0.977  0.3726 -0.1822 -0.0858
 1822ntf    nn315168   6.027   3.135   1.053 -0.4281 -0.0655 -0.4604
 1822ntf    sn215169   5.978   3.272   0.993 -0.3046  0.1648 -0.0332
 1822ntf    cn115170   6.085   3.387   1.086  0.1975 -0.1860 -0.1680
 1822ntf    fn415171   6.159   2.785   1.077  0.1167  0.4104 -0.3648
 1822ntf    fn415172   6.233   2.966   1.154  0.4016  0.0398 -0.2299
 1822ntf    fn415173   6.053   2.884   1.223  0.6116 -0.8467  0.4623
 1822ntf    on515174   6.139   2.990   0.870  0.0544 -0.0595 -0.3829
 1822ntf    on515175   5.916   2.934   0.957 -0.2382  0.8840  0.2623
 1822ntf    on515176   5.844   3.306   1.033 -0.4809 -0.5193 -0.0318
 1822ntf    on515177   6.018   3.299   0.858  0.1989 -0.5369 -0.0293
 1822ntf    fn415178   6.067   3.510   1.042 -0.2760 -0.3902 -0.5507
 1822ntf    fn415179   6.066   3.390   1.217  0.7442  0.7630 -0.1048
 1822ntf    fn415180   6.211   3.356   1.062  0.1807 -0.1922 -0.2451
 1823ntf    cn115181   5.358   6.452   0.461  0.0438 -0.1535  0.0002
 1823ntf    sn215182   5.358   6.448   0.279  0.0013 -0.1171 -0.0004
 1823ntf    nn315183   5.229   6.527   0.235 -0.2024 -0.3123  0.2377
 1823ntf    sn215184   5.212   6.620   0.109 -0.1727  0.1801  0.5940
 1823ntf    cn115185   5.032   6.612   0.083 -0.0504  0.1172 -0.2504
 1823ntf    fn415186   5.470   6.416   0.521  0.0846  0.4719  0.3095
 1823ntf    fn415187   5.330   6.573   0.508 -0.0886 -0.1013 -0.2124
 1823ntf    fn415188   5.256   6.383   0.507  0.0828 -0.0864  0.1882
 1823ntf    on515189   5.479   6.515   0.239  0.3428 -0.7685 -0.0624
 1823ntf    on515190   5.336   6.308   0.254 -0.4431 -0.0945  0.2490
 1823ntf    on515191   5.274   6.566  -0.009 -0.8832  0.3942  0.1184
 1823ntf    on515192   5.242   6.758   0.139 -0.2640  0.3638 -0.1435
 1823ntf    fn415193   5.001   6.493   0.033  0.1861 -0.3528  0.6998
 1823ntf    fn415194   4.958   6.633   0.190  0.2562 -0.2582  0.0392
 1823ntf    fn415195   4.989   6.701  -0.004 -0.2686  0.7664  0.5095
 1824ntf    cn115196   4.921   5.247   3.472  0.0877  0.0684 -0.5937
 1824ntf    sn215197   4.870   5.420   3.449 -0.0104  0.0783 -0.2976
 1824ntf    nn315198   4.888   5.422   3.293 -0.2127  0.2910 -0.3175
 1824ntf    sn215199   4.948   5.538   3.206  0.0384  0.1933 -0.2768
 1824ntf    cn115200   4.786   5.611   3.166 -0.1806 -0.0138  0.2225
 1824ntf    fn415201   5.040   5.227   3.417  0.4739  0.1615  0.1976
 1824ntf    fn415202   4.925   5.213   3.600 -0.3347  0.0241 -0.5907
 1824ntf    fn415203   4.844   5.159   3.409 -0.1236 -0.0604 -0.1570
 1824ntf    on515204   4.730   5.418   3.483 -0.0130 -0.2012 -0.3203
 1824ntf    on515205   4.965   5.486   3.536  0.1646  0.0683 -0.4800
 1824ntf    on515206   5.006   5.498   3.080  0.5494  0.0612  0.0014
 1824ntf    on515207   5.017   5.647   3.270  0.1637 -0.0730  0.0424
 1824ntf    fn415208   4.715   5.545   3.074  0.2923 -0.2424  0.0186
 1824ntf    fn415209   4.701   5.624   3.266 -0.3004  0.8530  0.0163
 1824ntf    fn415210   4.801   5.736   3.126 -0.5237  0.0933  0.4261
 1825ntf    cn115211   0.937   6.630   1.616 -0.2456  0.2340 -0.0029
 1825ntf    sn215212   1.004   6.695   1.461 -0.2164 -0.0548 -0.1123
 1825ntf    nn315213   0.925   6.606   1.359  0.2337  0.1087 -0.6088
 1825ntf    sn215214   1.005   6.526   1.249  0.3121 -0.2133 -0.3202
 1825ntf    cn115215   0.874   6.495   1.127 -0.3561 -0.0808  0.3546
 1825ntf    fn415216   0.805   6.625   1.624 -0.2608  0.3810 -0.1634
 1825ntf    fn415217   0.975   6.505   1.638  0.2293  0.3835  0.0230
 1825ntf    fn415218   0.977   6.709   1.714  0.2505  0.2248 -0.1972
 1825ntf    on515219   0.953   6.830   1.457  0.2500  0.1305  0.1464
 1825ntf    on515220   1.147   6.680   1.476 -0.1545  0.3089 -0.3144
 1825ntf    on515221   1.041   6.392   1.289 -0.1362 -0.2799 -0.1418
 1825ntf    on515222   1.098   6.607   1.174 -0.3667  0.6126 -0.2831
 1825ntf    fn415223   0.801   6.386   1.143 -0.5009 -0.0811 -0.2971
 1825ntf    fn415224   0.784   6.591   1.127 -0.2362  0.0335  0.0855
 1825ntf    fn415225   0.928   6.495   1.006 -0.5801  0.5516  0.2524
 1826ntf    cn115226   1.793   6.155   0.108 -0.1409 -0.0844 -0.2818
 1826ntf    sn215227   1.855   6.198   0.273 -0.2807  0.1861 -0.2992
 1826ntf    nn315228   1.904   6.346   0.255 -0.0090  0.1345  0.0073
 1826ntf    sn215229   1.829   6.484   0.266 -0.0657  0.0719  0.4290
 1826ntf    cn115230   1.795   6.489   0.445 -0.3186 -0.0414  0.3844
 1826ntf    fn415231   1.679   6.214   0.076 -0.1399 -0.1371 -0.3857
 1826ntf    fn415232   1.873   6.190   0.008 -0.6310  0.2275 -0.5741
 1826ntf    fn415233   1.780   6.023   0.104 -0.2051 -0.0980  0.3390
 1826ntf    on515234   1.740   6.181   0.359  0.0741 -0.4093  0.0649
 1826ntf    on515235   1.959   6.101   0.297 -0.2255  0.3844  0.2760
 1826ntf    on515236   1.700   6.479   0.202  0.3079  0.5828 -0.3709
 1826ntf    on515237   1.919   6.595   0.250  0.0617 -0.0612  0.2150
 1826ntf    fn415238   1.904   6.450   0.510 -0.1484  0.2399  0.2700
 1826ntf    fn415239   1.776   6.611   0.491 -0.4783  0.1049 -0.0629
 1826ntf    fn415240   1.692   6.414   0.480 -0.4967  0.1528  0.2783
 1827ntf    cn115241   0.329   1.287   0.904  0.1737  0.0513  0.2224
 1827ntf    sn215242   0.236   1.399   0.796  0.1869  0.1011  0.2625
 1827ntf    nn315243   0.345   1.480   0.718 -0.0094 -0.3097 -0.4480
 1827ntf    sn215244   0.339   1.611   0.631 -0.1338  0.0856  0.1495
 1827ntf    cn115245   0.380   1.543   0.467  0.3384 -0.1072  0.3469
 1827ntf    fn415246   0.418   1.356   0.974  0.1489  0.4416 -0.1273
 1827ntf    fn415247   0.248   1.218   0.983  0.1082 -0.1240  0.0036
 1827ntf    fn415248   0.395   1.198   0.832  0.6103  0.5587 -0.0104
 1827ntf    on515249   0.157   1.310   0.714 -0.3198 -0.1087  0.9725
 1827ntf    on515250   0.167   1.473   0.899 -0.3667 -0.1544  0.0785
 1827ntf    on515251   0.446   1.703   0.656 -0.4586  0.4495  0.2024
 1827ntf    on515252   0.203   1.657   0.617 -0.3604 -0.5549  0.1826
 1827ntf    fn415253   0.502   1.491   0.467  0.3499 -0.0805  0.2181
 1827ntf    fn415254   0.301   1.449   0.419  0.1464 -0.0137  0.4775
 1827ntf    fn415255   0.371   1.637   0.375 -0.3290  0.1795  0.6988
 1828ntf    cn115256   3.016   1.297   1.799  0.2213 -0.1599  0.3074
 1828ntf    sn215257   2.933   1.253   1.643  0.0694 -0.2280  0.4070
 1828ntf    nn315258   2.975   1.370   1.547 -0.1231 -0.0678  0.5171
 1828ntf    sn215259   2.898   1.504   1.518 -0.1447 -0.1894  0.0182
 1828ntf    cn115260   2.810   1.450   1.367  0.0575  0.0676 -0.1914
 1828ntf    fn415261   3.049   1.424   1.808 -0.4182  0.0266  0.0977
 1828ntf    fn415262   2.943   1.273   1.906  0.1046  0.2845  0.3290
 1828ntf    fn415263   3.127   1.225   1.808  0.2426 -0.1682 -0.0028
 1828ntf    on515264   2.981   1.122   1.609 -0.4701 -0.3365  0.0446
 1828ntf    on515265   2.795   1.254   1.684 -0.0470 -0.3991  0.0206
 1828ntf    on515266   2.985   1.610   1.476  0.1894 -0.4295  0.1001
 1828ntf    on515267   2.788   1.528   1.608 -0.2747  0.1051 -0.2191
 1828ntf    fn415268   2.755   1.555   1.309  0.3895  0.1397 -0.3814
 1828ntf    fn415269   2.892   1.395   1.279  0.1268 -0.1696  0.0209
 1828ntf    fn415270   2.712   1.366   1.391  0.1649 -0.0919 -0.3093
 1829ntf    cn115271   4.474   4.538   4.094  0.1155 -0.0742  0.0727
 1829ntf    sn215272   4.344   4.559   4.220 -0.0081  0.0334 -0.0727
 1829ntf    nn315273   4.254   4.436   4.182  0.1835 -0.1373  0.0271
 1829ntf    sn215274   4.101   4.441   4.145  0.1216  0.0801  0.3048
 1829ntf    cn115275   4.026   4.526   4.287 -0.2386 -0.0093  0.1674
 1829ntf    fn415276   4.560   4.638   4.091 -0.4214  0.4033  0.4395
 1829ntf    fn415277   4.545   4.428   4.116  0.3036 -0.0598 -0.4522
 1829ntf    fn415278   4.424   4.523   3.972 -0.1751 -0.6054  0.2542
 1829ntf    on515279   4.408   4.556   4.349 -0.1293  0.2033 -0.0081
 1829ntf    on515280   4.293   4.690   4.185  0.0593 -0.0384 -0.4486
 1829ntf    on515281   4.051   4.306   4.154  0.1110  0.0742  0.1489
 1829ntf    on515282   4.071   4.504   4.019 -0.3152  0.3633  0.5484
 1829ntf    fn415283   3.894   4.524   4.280 -0.2057 -0.2801 -0.3786
 1829ntf    fn415284   4.056   4.473   4.404  0.0061 -0.1225  0.0538
 1829ntf    fn415285   4.068   4.649   4.313  0.0184 -0.0990  0.1734
 1830ntf    cn115286   1.741   3.897   3.405  0.2669  0.0294  0.0159
 1830ntf    sn215287   1.826   4.058   3.396  0.1564  0.0778 -0.1608
 1830ntf    nn315288   1.888   4.042   3.252  0.5709 -0.2447  0.0516
 1830ntf    sn215289   1.963   4.154   3.171 -0.0231  0.2396  0.1642
 1830ntf    cn115290   1.834   4.196   3.050  0.2077  0.3894 -0.0292
 1830ntf    fn415291   1.678   3.872   3.518  0.1622 -0.2316 -0.0998
 1830ntf    fn415292   1.643   3.897   3.316  0.5480  0.2668 -0.3030
 1830ntf    fn415293   1.810   3.787   3.379 -0.1199 -0.2667  0.2329
 1830ntf    on515294   1.717   4.150   3.417 -0.2310 -0.3360 -0.3353
 1830ntf    on515295   1.926   4.053   3.499  0.0863 -0.0374 -0.0986
 1830ntf    on515296   2.066   4.093   3.091 -0.2984 -0.4098  0.2972
 1830ntf    on515297   1.985   4.281   3.235 -1.0408  0.4108  0.2010
 1830ntf    fn415298   1.720   4.207   3.117  0.0194 -0.3096 -0.2270
 1830ntf    fn415299   1.847   4.313   2.989 -0.2975  0.3974 -0.1261
 1830ntf    fn415300   1.804   4.104   2.960 -0.2658 -0.0608  0.5775
 1831ntf    cn115301   4.174   5.667   0.068  0.0764  0.4832  0.1292
 1831ntf    sn215302   4.061   5.606   0.197 -0.1245  0.1780 -0.1893
 1831ntf    nn315303   4.085   5.453   0.169  0.0044  0.2270 -0.3441
 1831ntf    sn215304   3.983   5.333   0.173 -0.1402  0.3524 -0.2458
 1831ntf    cn115305   3.972   5.306   0.352 -0.1709  0.1316 -0.2812
 1831ntf    fn415306   4.294   5.611   0.074 -0.2754 -0.3046 -0.0528
 1831ntf    fn415307   4.129   5.638  -0.053  0.9920 -0.0369 -0.0930
 1831ntf    fn415308   4.190   5.798   0.068 -0.1822  0.5150 -0.0012
 1831ntf    on515309   4.120   5.647   0.322  0.2251  0.2183 -0.3668
 1831ntf    on515310   3.931   5.657   0.164 -0.4750 -0.4483  0.1966
 1831ntf    on515311   4.048   5.215   0.121 -0.0865  0.4680 -0.4447
 1831ntf    on515312   3.848   5.366   0.135 -0.5436 -0.2665  0.6226
 1831ntf    fn415313   3.914   5.413   0.404 -0.0030  0.2873 -0.4102
 1831ntf    fn415314   3.902   5.199   0.386 -0.2240  0.0860 -0.5325
 1831ntf    fn415315   4.086   5.301   0.420 -0.3393  0.2015  0.0060
 1832ntf    cn115316   0.615   0.394   5.192 -0.1483 -0.3857  0.1991
 1832ntf    sn215317   0.791   0.400   5.146 -0.2137  0.1639  0.0122
 1832ntf    nn315318   0.774   0.432   4.993  0.3300  0.0798 -0.0649
 1832ntf    sn215319   0.894   0.447   4.892  0.1779  0.3528 -0.2027
 1832ntf    cn115320   0.881   0.626   4.859  0.0631  0.2877 -0.5114
 1832ntf    fn415321   0.556   0.503   5.147 -0.0491 -0.3339  0.1955
 1832ntf    fn415322   0.558   0.288   5.136  0.0662 -0.2880 -0.2077
 1832ntf    fn415323   0.600   0.396   5.324 -0.1788  0.5536  0.1873
 1832ntf    on515324   0.841   0.504   5.232  0.3242 -0.0551 -0.0319
 1832ntf    on515325   0.834   0.264   5.168  0.2294  0.2820 -0.1247
 1832ntf    on515326   0.865   0.381   4.768  0.6001  0.0373 -0.1343
 1832ntf    on515327   1.025   0.425   4.947  0.0784 -0.0547 -0.1239
 1832ntf    fn415328   0.920   0.701   4.961  0.5918  0.2860 -0.7112
 1832ntf    fn415329   0.962   0.670   4.765  0.7547  0.5576  0.1984
 1832ntf    fn415330   0.761   0.664   4.818 -0.3189  0.3932  0.6615
 1833ntf    cn115331   5.510   1.650   5.786 -0.1481 -0.2368  0.2095
 1833ntf    sn215332   5.603   1.597   5.933 -0.0549  0.2498  0.3292
 1833ntf    nn315333   5.515   1.477   5.983 -0.5864  0.3721 -0.2928
 1833ntf    sn215334   5.390   1.471   6.078 -0.1850 -0.2709  0.1999
 1833ntf    cn115335   5.470   1.401   6.226  0.0751 -0.1659  0.1104
 1833ntf    fn415336   5.567   1.754   5.727  0.0734 -0.0178  0.7984
 1833ntf    fn415337   5.497   1.555   5.696  0.6035 -0.1779  0.0373
 1833ntf    fn415338   5.392   1.683   5.836 -0.1351  0.4163 -0.1847
 1833ntf    on515339   5.730   1.551   5.884 -0.1641  0.0515  0.2329
 1833ntf    on515340   5.605   1.717   6.014  0.1724  0.1626  0.4533
 1833ntf    on515341   5.293   1.369   6.046 -0.4241  0.0906 -0.2323
 1833ntf    on515342   5.343   1.594   6.137  0.4868  0.0200  0.1402
 1833ntf    fn415343   5.537   1.488   6.300 -0.0084 -0.0400  0.0381
 1833ntf    fn415344   5.377   1.351   6.306 -0.2329  0.0747 -0.0928
 1833ntf    fn415345   5.556   1.306   6.192  0.0474 -0.0322 -0.3356
 1834ntf    cn115346   5.400   4.202   6.495  0.1320  0.2669 -0.1427
 1834ntf    sn215347   5.399   4.226   6.675 -0.0996 -0.0506 -0.0995
 1834ntf    nn315348   5.281   4.129   6.712 -0.1344 -0.1609 -0.4909
 1834ntf    sn215349   5.128   4.160   6.725 -0.0151  0.1275  0.3009
 1834ntf    cn115350   5.096   4.196   6.901 -0.0435  0.0674  0.3079
 1834ntf    fn415351   5.390   4.311   6.422 -0.5041  0.5129  0.2970
 1834ntf    fn415352   5.499   4.131   6.444  0.0366  0.1667 -0.1896
 1834ntf    fn415353   5.298   4.125   6.460  0.3964 -0.1179 -0.0805
 1834ntf    on515354   5.520   4.170   6.728 -0.2475  0.0645  0.3668
 1834ntf    on515355   5.383   4.369   6.688 -0.0171 -0.0517  0.0171
 1834ntf    on515356   5.048   4.045   6.693  0.1130  0.2220 -0.3766
 1834ntf    on515357   5.088   4.279   6.653  0.5392  0.0026 -0.2169
 1834ntf    fn415358   5.099   4.084   6.971 -0.2924 -0.2984 -0.2619
 1834ntf    fn415359   5.198   4.268   6.946 -0.2926  0.5337  0.1265
 1834ntf    fn415360   4.980   4.258   6.917 -0.3280 -0.4845  0.3981
 1835ntf    cn115361   0.691   0.837   3.270  0.1426 -0.4699  0.0208
 1835ntf    sn215362   0.577   0.930   3.377  0.1101 -0.4205 -0.0561
 1835ntf    nn315363   0.664   0.924   3.508  0.1442  0.0984 -0.0537
 1835ntf    sn215364   0.763   1.024   3.576 -0.0528 -0.0480  0.4498
 1835ntf    cn115365   0.862   0.901   3.666 -0.0946 -0.2550  0.2108
 1835ntf    fn415366   0.817   0.879   3.263  0.0315 -0.1802 -0.2863
 1835ntf    fn415367   0.711   0.715   3.317 -0.2865 -0.4550  0.2477
 1835ntf    fn415368   0.643   0.828   3.147  0.4227 -0.3858 -0.0962
 1835ntf    on515369   0.580   1.066   3.330 -0.6889 -0.2791  0.2811
 1835ntf    on515370   0.454   0.855   3.389  0.0685 -0.2206  0.8342
 1835ntf    on515371   0.694   1.092   3.683  0.4417  0.6462  0.3329
 1835ntf    on515372   0.853   1.089   3.483 -0.5569 -0.0474 -0.0407
 1835ntf    fn415373   0.969   0.948   3.727  0.0887 -0.9715  0.4440
 1835ntf    fn415374   0.791   0.842   3.760  0.1106  0.0583  0.5671
 1835ntf    fn415375   0.908   0.809   3.582 -0.1811  0.1302 -0.2620
 1836ntf    cn115376   2.965   6.727   4.110 -0.0806 -0.0493  0.0818
 1836ntf    sn215377   2.865   6.625   3.998  0.2678 -0.0390 -0.2416
 1836ntf    nn315378   2.909   6.479   4.037  0.1618 -0.0858 -0.2993
 1836ntf    sn215379   2.902   6.347   3.953  0.0630 -0.2215 -0.0768
 1836ntf    cn115380   3.080   6.310   3.962  0.1979  0.5122  0.3061
 1836ntf    fn415381   2.946   6.698   4.238  0.0351  0.1873  0.1528
 1836ntf    fn415382   3.095   6.718   4.085 -0.1384  0.1483 -0.2910
 1836ntf    fn415383   2.935   6.855   4.095 -0.3806 -0.1032  0.2168
 1836ntf    on515384   2.734   6.658   4.050  0.5363  0.8500 -0.1124
 1836ntf    on515385   2.912   6.674   3.871  0.1968  0.0335 -0.2403
 1836ntf    on515386   2.878   6.364   3.812 -0.0599  0.5311  0.0288
 1836ntf    on515387   2.828   6.238   4.013 -0.2303  0.1616  0.2613
 1836ntf    fn415388   3.161   6.397   3.904  0.3920  0.2810  0.2296
 1836ntf    fn415389   3.121   6.302   4.087  0.2970 -0.3322  0.2199
 1836ntf    fn415390   3.120   6.193   3.916 -0.1917  0.3762  0.3091
 1837ntf    cn115391   5.184   3.677   0.754  0.1592 -0.2441  0.3661
 1837ntf    sn215392   5.120   3.767   0.898  0.0490  0.1602  0.0668
 1837ntf    nn315393   5.238   3.871   0.894  0.0514  0.1501 -0.1088
 1837ntf    sn215394   5.241   4.025   0.925 -0.0415  0.0643  0.3201
 1837ntf    cn115395   5.235   4.082   0.753  0.5202  0.4254  0.4180
 1837ntf    fn415396   5.293   3.607   0.780  0.5181  0.1537 -0.0516
 1837ntf    fn415397   5.089   3.599   0.705 -0.0832  0.0038  0.4399
 1837ntf    fn415398   5.222   3.755   0.654  0.3355 -0.3535  0.3468
 1837ntf    on515399   4.992   3.821   0.859  0.3074  0.5924 -0.1945
 1837ntf    on515400   5.130   3.665   1.000 -0.2323  0.1887  0.1230
 1837ntf    on515401   5.370   4.070   0.969 -0.0652  0.5939 -0.1491
 1837ntf    on515402   5.119   4.079   0.982 -0.5481 -0.5337 -0.1876
 1837ntf    fn415403   5.142   4.026   0.677  0.6513  0.4147  0.2658
 1837ntf    fn415404   5.209   4.211   0.741 -0.0089  0.2491 -0.4118
 1837ntf    fn415405   5.351   4.057   0.695  0.4977  0.7582  0.2281
 1838ntf    cn115406   5.734   0.176   4.650  0.2082 -0.3153 -0.0208
 1838ntf    sn215407   5.777  -0.001   4.643 -0.3077 -0.4420 -0.0472
 1838ntf    nn315408   5.914  -0.003   4.720 -0.4822 -0.7428  0.2609
 1838ntf    sn215409   6.060  -0.045   4.682 -0.3310 -0.1237  0.1332
 1838ntf    cn115410   6.075  -0.203   4.771  0.4392  0.0505  0.3175
 1838ntf    fn415411   5.740   0.221   4.774 -0.0541 -0.2274 -0.0389
 1838ntf    fn415412   5.824   0.241   4.579  0.0897 -0.2526 -0.1128
 1838ntf    fn415413   5.613   0.211   4.610  0.1405  0.1585  0.5755
 1838ntf    on515414   5.674  -0.071   4.717  0.4257 -0.7497  0.7048
 1838ntf    on515415   5.784  -0.022   4.501  0.6808  0.0509 -0.0781
 1838ntf    on515416   6.153   0.043   4.748  0.8644 -0.0742 -1.5566
 1838ntf    on515417   6.084  -0.090   4.547 -0.2233 -0.2814  0.2051
 1838ntf    fn415418   6.064  -0.194   4.903  0.0359  0.2808  0.2664
 1838ntf    fn415419   5.984  -0.288   4.726  0.1087  0.2756  0.5576
 1838ntf    fn415420   6.186  -0.270   4.744  0.3044  0.0813 -0.3154
 1839ntf    cn115421   0.910   2.265   0.948 -0.1008  0.5595 -0.1721
 1839ntf    sn215422   0.736   2.233   0.990 -0.0127 -0.0357 -0.2550
 1839ntf    nn315423   0.731   2.078   1.017 -0.2259 -0.0014 -0.0959
 1839ntf    sn215424   0.711   1.993   1.147  0.2146 -0.1579 -0.1277
 1839ntf    cn115425   0.532   2.009   1.178  0.3363  0.2157  0.3768
 1839ntf    fn415426   0.942   2.202   0.836  0.0728 -0.0552  0.2142
 1839ntf    fn415427   0.942   2.393   0.945 -0.8157  0.7439 -0.0103
 1839ntf    fn415428   0.983   2.216   1.048  0.0353  0.1424 -0.4744
 1839ntf    on515429   0.717   2.314   1.107 -0.4757 -0.5140  0.0044
 1839ntf    on515430   0.667   2.266   0.868 -0.1298 -0.1611 -0.2232
 1839ntf    on515431   0.781   2.048   1.259  0.1020  0.5873 -0.4200
 1839ntf    on515432   0.734   1.856   1.109  0.4374 -0.1721  0.0597
 1839ntf    fn415433   0.453   1.939   1.099  0.2858  0.0939  0.5344
 1839ntf    fn415434   0.502   1.982   1.304  0.1509  0.1527  0.3187
 1839ntf    fn415435   0.499   2.137   1.169  0.8115  0.2963 -0.2343
 1840ntf    cn115436   0.545   2.901   5.468 -0.2303  0.2431  0.1190
 1840ntf    sn215437   0.542   2.965   5.638  0.3775  0.2377  0.1313
 1840ntf    nn315438   0.694   2.941   5.672  0.3290 -0.4183 -0.0964
 1840ntf    sn215439   0.798   3.033   5.745 -0.1237 -0.1513  0.2149
 1840ntf    cn115440   0.696   3.135   5.855 -0.0357  0.2321 -0.0590
 1840ntf    fn415441   0.542   2.769   5.463  0.1925  0.2431 -0.2592
 1840ntf    fn415442   0.446   2.945   5.391 -0.0360  0.4953  0.0141
 1840ntf    fn415443   0.654   2.934   5.400 -0.3143  0.3406  0.0310
 1840ntf    on515444   0.513   3.103   5.612  0.2566  0.1380 -0.2744
 1840ntf    on515445   0.451   2.890   5.721  0.2362  0.5800  0.2873
 1840ntf    on515446   0.851   3.128   5.651  0.1314  0.1443  0.6493
 1840ntf    on515447   0.889   2.963   5.833 -0.1168 -0.1017  0.2467
 1840ntf    fn415448   0.766   3.201   5.946 -0.2343  0.3477  0.0126
 1840ntf    fn415449   0.618   3.222   5.793 -0.5672 -0.3331 -0.1857
 1840ntf    fn415450   0.620   3.053   5.926 -0.5466  0.1518 -0.6879
 1841ntf    cn115451   5.637   6.168   2.142  0.4216 -0.1222 -0.0311
 1841ntf    sn215452   5.784   6.182   2.035  0.2720  0.5697 -0.1515
 1841ntf    nn315453   5.798   6.035   1.983 -0.0142  0.3294  0.4422
 1841ntf    sn215454   5.925   5.946   2.008 -0.1072  0.0494 -0.0696
 1841ntf    cn115455   5.912   5.844   1.858 -0.1095 -0.2781  0.1510
 1841ntf    fn415456   5.536   6.126   2.068  0.3713 -0.1253  0.0395
 1841ntf    fn415457   5.649   6.090   2.248 -0.4154 -0.3707 -0.1191
 1841ntf    fn415458   5.608   6.284   2.199 -0.1904 -0.4207  0.2741
 1841ntf    on515459   5.740   6.281   1.940  0.2950  0.5979 -0.1328
 1841ntf    on515460   5.883   6.230   2.129  0.3318 -0.0168  0.0879
 1841ntf    on515461   5.910   5.842   2.107  0.0080 -0.2328 -0.3463
 1841ntf    on515462   6.057   6.002   1.998  0.2470 -0.8097 -0.3309
 1841ntf    fn415463   5.788   5.814   1.824 -0.4021  0.9782  0.0564
 1841ntf    fn415464   5.972   5.901   1.754  0.0215  0.1669  0.4665
 1841ntf    fn415465   5.982   5.733   1.873  0.5156  0.0853 -0.0258
 1842ntf    cn115466   0.661   2.670   3.229  0.0577  0.0689 -0.0257
 1842ntf    sn215467   0.824   2.640   3.156  0.0654  0.3170 -0.1112
 1842ntf    nn315468   0.827   2.483   3.158 -0.0966  0.3099 -0.4218
 1842ntf    sn215469   0.787   2.371   3.055  0.0949 -0.1716  0.0241
 1842ntf    cn115470   0.866   2.447   2.910  0.1217 -0.0120  0.1214
 1842ntf    fn415471   0.556   2.661   3.149  0.2998 -0.0056 -0.3318
 1842ntf    fn415472   0.648   2.576   3.322  0.5245  0.4268  0.4065
 1842ntf    fn415473   0.653   2.788   3.289 -0.3889  0.3189 -0.5692
 1842ntf    on515474   0.825   2.710   3.030  0.0382 -0.0677 -0.3269
 1842ntf    on515475   0.912   2.684   3.262 -0.1137  0.3422  0.0265
 1842ntf    on515476   0.648   2.375   3.018  0.0097  0.1748  0.3702
 1842ntf    on515477   0.852   2.243   3.070  0.2529 -0.1115 -0.1484
 1842ntf    fn415478   0.785   2.535   2.853 -0.2467 -0.1554  0.4181
 1842ntf    fn415479   0.976   2.510   2.946  0.1804 -0.0645  0.0346
 1842ntf    fn415480   0.908   2.357   2.822 -0.1727  0.3458 -0.3898
 1843ntf    cn115481   4.424   0.251   4.156  0.4503 -0.3486 -0.0910
 1843ntf    sn215482   4.254   0.207   4.205  0.2552  0.1815 -0.2819
 1843ntf    nn315483   4.233   0.329   4.303  0.4147 -0.0745  0.0734
 1843ntf    sn215484   4.163   0.335   4.443  0.2259 -0.0545 -0.0218
 1843ntf    cn115485   3.999   0.403   4.401  0.2258 -0.0529 -0.0191
 1843ntf    fn415486   4.444   0.177   4.048  0.1408 -0.9610  0.2678
 1843ntf    fn415487   4.442   0.376   4.117  0.0665 -0.2916 -0.0903
 1843ntf    fn415488   4.521   0.226   4.242  0.3460  0.4581  0.2727
 1843ntf    on515489   4.168   0.214   4.090 -0.4545 -0.2203  0.2176
 1843ntf    on515490   4.262   0.078   4.269 -0.3066  0.0110 -0.5530
 1843ntf    on515491   4.223   0.433   4.530  0.8910 -0.2357 -0.2738
 1843ntf    on515492   4.136   0.207   4.503 -0.5285  0.0046 -0.2214
 1843ntf    fn415493   3.916   0.414   4.503  0.3747 -0.4047  0.1446
 1843ntf    fn415494   4.013   0.523   4.349 -0.4093  0.0873  0.1265
 1843ntf    fn415495   3.932   0.324   4.318  0.0680  0.3075 -0.2352
 1844ntf    cn115496   5.799   0.614   4.660  0.2058 -0.0573  0.0487
 1844ntf    sn215497   5.932   0.595   4.783  0.2245 -0.0151  0.0343
 1844ntf    nn315498   5.943   0.741   4.840  0.1734 -0.0255  0.0705
 1844ntf    sn215499   5.930   0.800   4.985  0.1057  0.0392  0.0384
 1844ntf    cn115500   6.098   0.867   5.004 -0.0107  0.2626  0.2750
 1844ntf    fn415501   5.822   0.713   4.575  0.1177  0.4104  0.5619
 1844ntf    fn415502   5.769   0.507   4.588 -0.5517  0.0004  0.2694
 1844ntf    fn415503   5.682   0.641   4.714  0.2087 -0.6635  0.3650
 1844ntf    on515504   5.884   0.496   4.876 -0.7229  0.4218  0.0172
 1844ntf    on515505   6.046   0.562   4.700 -0.2385 -0.1089 -0.5669
 1844ntf    on515506   5.931   0.709   5.097 -0.4342 -0.3506 -0.2691
 1844ntf    on515507   5.845   0.916   4.994  0.2105  0.1776 -0.6743
 1844ntf    fn415508   6.110   0.963   5.094 -0.2401  0.4739  0.0799
 1844ntf    fn415509   6.190   0.779   5.043 -0.3815 -0.0422  0.4669
 1844ntf    fn415510   6.146   0.915   4.891  0.4360 -0.3774  0.1840
 1845ntf    cn115511   2.614   3.332   4.227  0.0302 -0.4879 -0.0263
 1845ntf    sn215512   2.481   3.422   4.313  0.2369 -0.2351  0.0294
 1845ntf    nn315513   2.402   3.307   4.384 -0.4674  0.3134  0.1454
 1845ntf    sn215514   2.276   3.225   4.341 -0.1332 -0.0582 -0.1312
 1845ntf    cn115515   2.154   3.325   4.432  0.0068 -0.2069  0.2195
 1845ntf    fn415516   2.670   3.412   4.138 -0.3394 -0.4336 -0.2124
 1845ntf    fn415517   2.700   3.277   4.312  0.1608 -0.1117  0.0880
 1845ntf    fn415518   2.566   3.227   4.163 -0.1160 -0.4288 -0.0133
 1845ntf    on515519   2.549   3.504   4.410 -0.3278 -0.0528  0.2731
 1845ntf    on515520   2.417   3.493   4.205  0.6848  0.3457  0.1392
 1845ntf    on515521   2.270   3.098   4.410 -0.0279 -0.1576 -0.3038
 1845ntf    on515522   2.247   3.226   4.200 -0.1389 -0.1128 -0.1306
 1845ntf    fn415523   2.034   3.306   4.382  0.3161  0.0174 -0.6192
 1845ntf    fn415524   2.148   3.282   4.557 -0.1518 -0.1041  0.2469
 1845ntf    fn415525   2.175   3.454   4.417 -0.2608 -0.1486  0.3441
 1846ntf    cn115526   0.385   5.060   6.280 -0.1502  0.0230  0.2917
 1846ntf    sn215527   0.264   5.089   6.147 -0.1947 -0.2765  0.2656
 1846ntf    nn315528   0.136   5.109   6.236 -0.1365  0.3664  0.2115
 1846ntf    sn215529   0.011   5.014   6.242  0.3005 -0.2235  0.0616
 1846ntf    cn115530   0.039   4.904   6.385 -0.4248 -0.0882  0.3120
 1846ntf    fn415531   0.360   4.940   6.330 -0.2782 -0.1958 -0.2846
 1846ntf    fn415532   0.506   5.065   6.227 -0.1867 -0.2983  0.1778
 1846ntf    fn415533   0.389   5.143   6.383  0.2116 -0.2162  0.4688
 1846ntf    on515534   0.316   5.213   6.096 -0.6773 -0.1886 -0.0248
 1846ntf    on515535   0.266   4.979   6.054 -0.7214  0.4155 -0.5767
 1846ntf    on515536  -0.020   4.931   6.129 -0.1412  0.5636 -0.4007
 1846ntf    on515537  -0.093   5.099   6.294  0.5550  0.2087 -0.1296
 1846ntf    fn415538   0.141   4.820   6.379 -0.1771  0.1906  0.5860
 1846ntf    fn415539   0.066   4.969   6.497 -0.0359  0.2906  0.0013
 1846ntf    fn415540  -0.064   4.827   6.414 -0.5417  0.0420  0.2428
 1847ntf    cn115541   3.161   4.279   1.797  0.1039 -0.1443 -0.0785
 1847ntf    sn215542   2.998   4.343   1.747  0.0431  0.0938  0.4256
 1847ntf    nn315543   2.906   4.276   1.855 -1.0078  0.4767 -0.2153
 1847ntf    sn215544   2.805   4.156   1.858 -0.2592 -0.1560  0.0257
 1847ntf    cn115545   2.651   4.235   1.802 -0.2820 -0.5334 -0.4615
 1847ntf    fn415546   3.258   4.316   1.716  0.3496  0.3411  0.4353
 1847ntf    fn415547   3.193   4.336   1.912  0.2480  0.1071 -0.2427
 1847ntf    fn415548   3.163   4.147   1.809 -0.1135 -0.1190  0.2324
 1847ntf    on515549   3.007   4.487   1.760  0.4635  0.1330 -0.2455
 1847ntf    on515550   2.977   4.289   1.615  0.6860  0.4688  0.1626
 1847ntf    on515551   2.766   4.114   1.990  0.1542 -0.0153  0.1924
 1847ntf    on515552   2.823   4.051   1.761  0.2399  0.0024 -0.0544
 1847ntf    fn415553   2.639   4.348   1.871  0.0644 -0.2702 -0.8269
 1847ntf    fn415554   2.652   4.255   1.672  0.0800 -0.2423 -0.4178
 1847ntf    fn415555   2.546   4.159   1.827 -0.1971 -0.5482 -0.1411
 1848ntf    cn115556   4.392   5.634   2.625  0.0721 -0.3512 -0.6292
 1848ntf    sn215557   4.237   5.598   2.712  0.1968  0.0219 -0.2517
 1848ntf    nn315558   4.254   5.687   2.840 -0.0251 -0.1482 -0.1031
 1848ntf    sn215559   4.288   5.644   2.987 -0.0621 -0.0024 -0.0516
 1848ntf    cn115560   4.401   5.777   3.039  0.2707 -0.3250  0.0520
 1848ntf    fn415561   4.381   5.603   2.496  0.4574 -0.9038 -0.5310
 1848ntf    fn415562   4.422   5.763   2.621 -0.3575 -0.2296  0.0252
 1848ntf    fn415563   4.499   5.574   2.674 -0.1082  0.0785  0.2960
 1848ntf    on515564   4.137   5.649   2.621 -0.2673 -0.2211  0.1208
 1848ntf    on515565   4.232   5.457   2.740 -0.0685  0.1606  0.4192
 1848ntf    on515566   4.374   5.529   3.005  0.0410  0.0605 -0.1437
 1848ntf    on515567   4.170   5.654   3.070 -0.3618  0.1015 -0.4873
 1848ntf    fn415568   4.486   5.725   3.126  0.1769 -0.1533  0.2454
 1848ntf    fn415569   4.462   5.836   2.938 -0.1071 -0.4135 -0.2328
 1848ntf    fn415570   4.337   5.875   3.100 -0.1609 -0.6026  0.0501
 1849ntf    cn115571   2.519   1.555   0.178 -0.1406 -0.5363 -0.0747
 1849ntf    sn215572   2.658   1.672   0.173 -0.1779 -0.4922 -0.0822
 1849ntf    nn315573   2.617   1.757   0.047 -0.2044  0.4962  0.5850
 1849ntf    sn215574   2.616   1.914   0.038  0.2900  0.4570 -0.2877
 1849ntf    cn115575   2.641   1.953  -0.137  0.3937 -0.3918 -0.4674
 1849ntf    fn415576   2.406   1.621   0.157 -0.0189 -0.1269  0.5091
 1849ntf    fn415577   2.524   1.463   0.084 -0.3347 -0.5959 -0.0276
 1849ntf    fn415578   2.507   1.487   0.291 -0.2122 -0.1475  0.1519
 1849ntf    on515579   2.656   1.732   0.304  0.4912  0.3081 -0.4254
 1849ntf    on515580   2.766   1.587   0.132 -0.1720 -0.4154 -0.2287
 1849ntf    on515581   2.726   1.990   0.092  0.0387  0.4105  0.2980
 1849ntf    on515582   2.483   1.968   0.058  0.4009  0.5339  0.2773
 1849ntf    fn415583   2.760   1.918  -0.181  0.4946  0.4552 -0.9060
 1849ntf    fn415584   2.553   1.897  -0.220  0.0209 -0.1533 -0.2385
 1849ntf    fn415585   2.627   2.082  -0.166 -0.2808 -0.4201 -0.2998
 1850ntf    cn115586   3.742   2.369   2.747  0.2067 -0.0326  0.5496
 1850ntf    sn215587   3.775   2.206   2.822  0.0723 -0.2312  0.1816
 1850ntf    nn315588   3.670   2.202   2.938 -0.4028  0.8901 -0.1930
 1850ntf    sn215589   3.689   2.249   3.087 -0.1049  0.3011 -0.0418
 1850ntf    cn115590   3.631   2.101   3.175  0.2580  0.2802  0.1640
 1850ntf    fn415591   3.709   2.460   2.836 -0.2687 -0.0514  0.3967
 1850ntf    fn415592   3.838   2.417   2.670 -0.2278  0.1886  0.1367
 1850ntf    fn415593   3.635   2.353   2.670  0.6122  0.4636 -0.1344
 1850ntf    on515594   3.740   2.108   2.722 -0.3897  0.2792 -0.1695
 1850ntf    on515595   3.914   2.213   2.860  0.0164  0.7963  0.2362
 1850ntf    on515596   3.595   2.351   3.127 -0.1982  0.1856  0.0321
 1850ntf    on515597   3.827   2.250   3.129 -0.0285  0.4081 -0.2944
 1850ntf    fn415598   3.662   2.098   3.304  0.5676 -0.3565  0.0759
 1850ntf    fn415599   3.500   2.085   3.164  0.3327 -0.4433  0.3012
 1850ntf    fn415600   3.680   1.989   3.124 -0.4739  0.2985 -0.6060
 1851ntf    cn115601   5.824   2.423   4.700 -0.1430 -0.4466 -0.0145
 1851ntf    sn215602   5.848   2.298   4.571  0.1878 -0.1239 -0.2659
 1851ntf    nn315603   5.815   2.367   4.434  0.3633  0.0677 -0.2131
 1851ntf    sn215604   5.728   2.298   4.323  0.0694 -0.0897  0.1127
 1851ntf    cn115605   5.836   2.336   4.181 -0.5522  0.2317 -0.2749
 1851ntf    fn415606   5.912   2.521   4.683 -0.3532 -0.2151  0.2169
 1851ntf    fn415607   5.705   2.482   4.696 -0.0094 -0.1433  0.3543
 1851ntf    fn415608   5.855   2.373   4.819 -0.0752  0.1717  0.2343
 1851ntf    on515609   5.990   2.275   4.579  0.2058  0.1412  0.2148
 1851ntf    on515610   5.751   2.198   4.606 -0.2966  0.2953 -0.3999
 1851ntf    on515611   5.604   2.362   4.287 -0.0612 -0.5990 -0.3669
 1851ntf    on515612   5.720   2.154   4.315 -0.3654 -0.0661  0.1091
 1851ntf    fn415613   5.786   2.279   4.072  0.1951 -0.4129 -0.2826
 1851ntf    fn415614   5.850   2.467   4.165 -0.3594  0.2520  0.0623
 1851ntf    fn415615   5.960   2.293   4.195 -0.7097 -0.4179 -0.8239
 1852ntf    cn115616   3.473   6.738   0.574 -0.4296 -0.1963 -0.1246
 1852ntf    sn215617   3.432   6.730   0.751 -0.1865  0.1335 -0.0541
 1852ntf    nn315618   3.505   6.859   0.805  0.1383 -0.1581  0.2117
 1852ntf    sn215619   3.456   7.008   0.799  0.0359 -0.2011 -0.0526
 1852ntf    cn115620   3.390   7.036   0.966  0.3997 -0.3707  0.1219
 1852ntf    fn415621   3.601   6.728   0.544 -0.3398  0.3210  0.0646
 1852ntf    fn415622   3.414   6.643   0.504  0.1056 -0.1736 -0.6148
 1852ntf    fn415623   3.446   6.857   0.522 -0.0160  0.1736  0.4896
 1852ntf    on515624   3.289   6.721   0.765 -0.1830 -0.1994 -0.2339
 1852ntf    on515625   3.504   6.611   0.788 -0.1789  0.0978 -0.1863
 1852ntf    on515626   3.346   7.035   0.710  0.2375 -0.2765 -0.3243
 1852ntf    on515627   3.563   7.103   0.780 -0.1963  0.0032 -0.3416
 1852ntf    fn415628   3.308   6.939   1.005 -0.0584  0.0029  0.1010
 1852ntf    fn415629   3.489   7.039   1.053  0.2322  0.1522  0.2986
 1852ntf    fn415630   3.327   7.151   0.984  0.1069 -0.5917  0.5264
 1853ntf    cn115631   0.675   6.602   3.569 -0.1874 -0.3726 -0.0872
 1853ntf    sn215632   0.515   6.542   3.507 -0.2045 -0.0713 -0.3368
 1853ntf    nn315633   0.560   6.422   3.417  0.0395 -0.2055 -0.0366
 1853ntf    sn215634   0.572   6.273   3.466 -0.1556 -0.2077  0.0038
 1853ntf    cn115635   0.420   6.202   3.396 -0.3838  0.1437  0.1429
 1853ntf    fn415636   0.771   6.606   3.478 -0.2133  0.0476 -0.0956
 1853ntf    fn415637   0.664   6.724   3.619 -0.4583 -0.3553 -0.1886
 1853ntf    fn415638   0.723   6.535   3.673  0.4398 -0.2003 -0.2638
 1853ntf    on515639   0.432   6.506   3.620  0.1881 -0.5384 -0.1915
 1853ntf    on515640   0.467   6.646   3.420 -0.1297 -0.1807 -0.5098
 1853ntf    on515641   0.565   6.248   3.608  0.5018 -0.1260  0.0525
 1853ntf    on515642   0.672   6.200   3.393  0.1628 -0.0399  0.2691
 1853ntf    fn415643   0.382   6.092   3.460  0.2656 -0.0001  0.2882
 1853ntf    fn415644   0.329   6.297   3.416  0.0300  0.4244  0.7267
 1853ntf    fn415645   0.421   6.187   3.265 -0.0703  0.2543  0.1318
 1854ntf    cn115646   2.407   1.639   3.731 -0.4239 -0.1092  0.2169
 1854ntf    sn215647   2.410   1.731   3.574  0.2393  0.0051  0.2940
 1854ntf    nn315648   2.535   1.823   3.591  0.1681  0.1538  0.0164
 1854ntf    sn215649   2.682   1.800   3.539  0.1672  0.0389  0.0645
 1854ntf    cn115650   2.671   1.885   3.379 -0.2784  0.2805  0.2209
 1854ntf    fn415651   2.529   1.600   3.763 -0.2199  0.4026  0.0675
 1854ntf    fn415652   2.355   1.692   3.840 -0.5105  0.1736  0.0391
 1854ntf    fn415653   2.337   1.528   3.713 -0.2863 -0.1540 -0.0570
 1854ntf    on515654   2.424   1.621   3.482  0.2992  0.2743 -0.0226
 1854ntf    on515655   2.281   1.797   3.572  0.3366  0.1823 -0.1756
 1854ntf    on515656   2.722   1.664   3.519  0.4955  0.1255  0.1218
 1854ntf    on515657   2.773   1.884   3.614 -0.0849  0.6288 -0.2779
 1854ntf    fn415658   2.596   1.993   3.389 -0.8414 -0.0434 -0.3949
 1854ntf    fn415659   2.789   1.925   3.334 -0.0824  0.0251  0.5016
 1854ntf    fn415660   2.612   1.815   3.283  0.6819  0.1063 -0.2600
 1855ntf    cn115661   1.562   0.383   3.183  0.0136  0.3851  0.0779
 1855ntf    sn215662   1.472   0.540   3.172 -0.4083  0.1349 -0.0398
 1855ntf    nn315663   1.350   0.502   3.080 -0.4873  0.2908 -0.0009
 1855ntf    sn215664   1.224   0.424   3.131 -0.3553  0.1551  0.1176
 1855ntf    cn115665   1.122   0.573   3.149  0.1487  0.4954  0.1668
 1855ntf    fn415666   1.578   0.324   3.065 -0.1430 -0.1708  0.3324
 1855ntf    fn415667   1.686   0.403   3.227  0.1578 -0.1628 -0.0655
 1855ntf    fn415668   1.506   0.292   3.260  0.1373 -0.1722 -0.4817
 1855ntf    on515669   1.447   0.588   3.305 -0.0357 -0.0827  0.1087
 1855ntf    on515670   1.571   0.619   3.103  0.1999 -0.1601  0.4903
 1855ntf    on515671   1.228   0.358   3.259 -0.5899  0.3121  0.2050
 1855ntf    on515672   1.165   0.358   3.017  0.2891  0.6316 -0.4990
 1855ntf    fn415673   1.185   0.654   3.233  0.6910  0.5495 -0.2812
 1855ntf    fn415674   1.095   0.637   3.036 -0.1647 -0.6230 -0.4049
 1855ntf    fn415675   1.001   0.551   3.197  0.0016 -0.0789 -0.4467
 1856ntf    cn115676   4.344   0.387   2.238 -0.0451  0.0013 -0.2101
 1856ntf    sn215677   4.332   0.266   2.102 -0.2700 -0.2130  0.0003
 1856ntf    nn315678   4.178   0.257   2.076 -0.2446  0.0721 -0.2470
 1856ntf    sn215679   4.101   0.139   2.007 -0.1538  0.0216 -0.2632
 1856ntf    cn115680   4.037   0.051   2.153  0.1986 -0.0807 -0.1709
 1856ntf    fn415681   4.265   0.352   2.337 -0.2965  0.0815 -0.3817
 1856ntf    fn415682   4.463   0.403   2.295 -0.1970  0.1032  0.0776
 1856ntf    fn415683   4.310   0.508   2.196 -0.0452  0.1319  0.1683
 1856ntf    on515684   4.400   0.329   1.991  0.1971 -0.7537 -0.0281
 1856ntf    on515685   4.391   0.147   2.159 -0.4476 -0.3286 -0.0586
 1856ntf    on515686   4.178   0.039   1.938  0.4872  0.1562  0.2467
 1856ntf    on515687   3.989   0.197   1.936 -0.7212  0.0938  0.6766
 1856ntf    fn415688   4.121   0.052   2.255  0.6010  0.0133 -0.5031
 1856ntf    fn415689   3.929   0.116   2.194 -0.0661 -0.3362 -0.4522
 1856ntf    fn415690   3.991  -0.072   2.135  0.1505 -0.0631 -0.1696
 1857ntf    cn115691   0.589   2.430   4.401  0.0622 -0.2049  0.5026
 1857ntf    sn215692   0.567   2.580   4.501 -0.0527 -0.0913  0.3048
 1857ntf    nn315693   0.637   2.531   4.632 -0.7423 -0.6475  0.4742
 1857ntf    sn215694   0.618   2.585   4.778  0.1831 -0.1382  0.4165
 1857ntf    cn115695   0.505   2.462   4.850 -0.2243  0.1161  0.2176
 1857ntf    fn415696   0.549   2.321   4.464 -0.4467 -0.4030 -0.1481
 1857ntf    fn415697   0.521   2.440   4.288  0.2690  0.3860  0.4252
 1857ntf    fn415698   0.719   2.419   4.380  0.0365  0.2966  0.0667
 1857ntf    on515699   0.646   2.672   4.423  0.1978 -0.5675 -0.0096
 1857ntf    on515700   0.423   2.590   4.512 -0.1884 -0.5057 -0.8861
 1857ntf    on515701   0.546   2.710   4.778  0.0674 -0.1950 -0.4650
 1857ntf    on515702   0.743   2.578   4.849  0.3228 -0.8851  0.1048
 1857ntf    fn415703   0.380   2.474   4.809 -0.1557 -0.1971 -0.0897
 1857ntf    fn415704   0.536   2.340   4.808 -0.5042  0.3340 -0.6343
 1857ntf    fn415705   0.501   2.476   4.982 -0.2240  0.3225  0.1963
 1858ntf    cn115706   3.648   4.758   0.156  0.7159 -0.0993 -0.3328
 1858ntf    sn215707   3.607   4.637   0.284 -0.1780  0.1570 -0.3711
 1858ntf    nn315708   3.747   4.661   0.351 -0.1657 -0.7093 -0.0699
 1858ntf    sn215709   3.796   4.611   0.492  0.0892 -0.2314  0.0138
 1858ntf    cn115710   3.754   4.752   0.599 -0.2641 -0.2434 -0.1063
 1858ntf    fn415711   3.534   4.812   0.118  0.4678 -0.3427  0.0680
 1858ntf    fn415712   3.725   4.861   0.188  0.3452 -0.1040  0.6057
 1858ntf    fn415713   3.697   4.703   0.046  0.4446 -0.2467 -0.3810
 1858ntf    on515714   3.493   4.683   0.360 -0.5574 -0.1115 -0.7700
 1858ntf    on515715   3.602   4.512   0.211 -0.3857 -0.4509  0.6568
 1858ntf    on515716   3.940   4.611   0.489  0.0860  0.6283 -0.3169
 1858ntf    on515717   3.726   4.496   0.545 -0.4389  0.0827  0.0086
 1858ntf    fn415718   3.804   4.866   0.556 -0.0272 -0.2124  0.2463
 1858ntf    fn415719   3.624   4.767   0.619 -0.2663 -0.2172 -0.1413
 1858ntf    fn415720   3.805   4.736   0.720  0.0012  0.1590 -0.1650
 1859ntf    cn115721   1.857   1.534   5.323 -0.0749  0.2860  0.0282
 1859ntf    sn215722   1.785   1.484   5.483 -0.0518  0.0176 -0.0441
 1859ntf    nn315723   1.717   1.622   5.513  0.0074 -0.0452  0.3836
 1859ntf    sn215724   1.660   1.665   5.653 -0.0287 -0.1043  0.3870
 1859ntf    cn115725   1.486   1.618   5.627 -0.0253 -0.0636  0.2904
 1859ntf    fn415726   1.925   1.646   5.339  0.2701  0.0243  0.4063
 1859ntf    fn415727   1.931   1.436   5.275 -0.6371 -0.3922  0.5261
 1859ntf    fn415728   1.761   1.557   5.235 -0.2867 -0.3459  0.0892
 1859ntf    on515729   1.695   1.379   5.444  0.0298  0.0741 -0.3867
 1859ntf    on515730   1.892   1.454   5.575  0.0805  0.3582 -0.0858
 1859ntf    on515731   1.663   1.809   5.665 -0.5706 -0.1114  0.6401
 1859ntf    on515732   1.694   1.589   5.770  0.2779 -0.2297  0.2182
 1859ntf    fn415733   1.482   1.499   5.569 -0.4877  0.1900 -0.2036
 1859ntf    fn415734   1.409   1.621   5.735 -0.6057 -0.2523 -0.1157
 1859ntf    fn415735   1.436   1.697   5.533  0.3061 -0.4208 -0.1905
 1860ntf    cn115736   0.437   1.107   4.418  0.5988 -0.0828 -0.3120
 1860ntf    sn215737   0.521   0.997   4.536 -0.0228 -0.2414 -0.0184
 1860ntf    nn315738   0.665   1.059   4.538 -0.1963  0.1621  0.0772
 1860ntf    sn215739   0.795   1.020   4.460  0.0705  0.2470  0.4764
 1860ntf    cn115740   0.880   0.912   4.579  0.7481  0.2071 -0.0329
 1860ntf    fn415741   0.507   1.108   4.305  0.6584  0.5734 -0.2760
 1860ntf    fn415742   0.313   1.068   4.393  0.3781  0.0390  0.5811
 1860ntf    fn415743   0.429   1.232   4.459  0.3216 -0.1607 -0.1325
 1860ntf    on515744   0.447   1.029   4.655  0.1327  0.3564 -0.0813
 1860ntf    on515745   0.492   0.867   4.480  0.4205 -0.2203 -0.3002
 1860ntf    on515746   0.889   1.128   4.445 -0.0113  0.3566  0.7573
 1860ntf    on515747   0.778   0.935   4.344  0.2179 -0.3241  0.8687
 1860ntf    fn415748   0.879   0.962   4.701  0.1013 -0.1149  0.1033
 1860ntf    fn415749   0.812   0.799   4.596  0.3463  0.5123  0.4065
 1860ntf    fn415750   1.004   0.885   4.542  0.6333 -0.5221  0.0951
 1861ntf    cn115751   3.389   2.711   5.624  0.2027 -0.1854 -0.1841
 1861ntf    sn215752   3.281   2.848   5.676  0.4196 -0.1150  0.0806
 1861ntf    nn315753   3.295   2.830   5.832 -0.1229 -0.1920  0.1204
 1861ntf    sn215754   3.182   2.864   5.935 -0.0679 -0.0393  0.1318
 1861ntf    cn115755   3.085   2.710   5.937 -0.2624  0.0742 -0.5040
 1861ntf    fn415756   3.509   2.711   5.681  0.1941 -0.3331 -0.1654
 1861ntf    fn415757   3.344   2.590   5.656  0.3569 -0.1353  0.2365
 1861ntf    fn415758   3.409   2.705   5.494 -0.2224 -0.3770 -0.2444
 1861ntf    on515759   3.336   2.969   5.620 -0.3669  0.5200  0.6600
 1861ntf    on515760   3.156   2.808   5.618  0.5183  0.3165 -0.4322
 1861ntf    on515761   3.083   2.963   5.899 -0.5327 -0.5307  0.0417
 1861ntf    on515762   3.220   2.861   6.074  0.3906 -0.0962  0.0051
 1861ntf    fn415763   3.153   2.604   5.977 -0.5492 -0.0368 -0.3079
 1861ntf    fn415764   2.980   2.715   6.016  0.3104 -0.2920  0.2986
 1861ntf    fn415765   3.027   2.687   5.820 -0.1867 -0.4305 -0.4467
 1862ntf    cn115766   6.613   4.340   4.098 -0.2357 -0.2660 -0.0920
 1862ntf    sn215767   6.632   4.369   4.277 -0.0259  0.3524 -0.2143
 1862ntf    nn315768   6.698   4.512   4.281 -0.0048  0.3347  0.1135
 1862ntf    sn215769   6.819   4.563   4.366  0.1857 -0.0789  0.0919
 1862ntf    cn115770   6.955   4.541   4.247  0.1573  0.1608  0.0161
 1862ntf    fn415771   6.508   4.264   4.072 -0.6939  0.1296  0.5640
 1862ntf    fn415772   6.596   4.450   4.027 -0.0711 -0.1353  0.0697
 1862ntf    fn415773   6.724   4.287   4.048  0.0515  0.2854 -0.0515
 1862ntf    on515774   6.497   4.369   4.326 -0.0525 -0.5884 -0.2748
 1862ntf    on515775   6.715   4.258   4.318 -0.5049  0.0189 -0.1413
 1862ntf    on515776   6.862   4.486   4.480 -0.1667  0.2413  0.4438
 1862ntf    on515777   6.807   4.704   4.392  0.2455  0.0685 -0.6663
 1862ntf    fn415778   7.074   4.566   4.299  0.0858  0.3494  0.0908
 1862ntf    fn415779   6.961   4.418   4.199 -0.0727 -0.1983  0.8759
 1862ntf    fn415780   6.943   4.619   4.142 -0.2260 -0.4181 -0.3776
 1863ntf    cn115781   4.025   4.599   2.188  0.2368 -0.1533 -0.3828
 1863ntf    sn215782   3.938   4.667   2.043  0.0179  0.2339 -0.0705
 1863ntf    nn315783   3.865   4.802   2.078  0.3838  0.3106  0.4058
 1863ntf    sn215784   3.716   4.818   2.125  0.0974 -0.1071 -0.3445
 1863ntf    cn115785   3.742   4.968   2.224  0.2744  0.1427 -0.7638
 1863ntf    fn415786   3.942   4.590   2.290  0.4921  0.5374 -0.1047
 1863ntf    fn415787   4.077   4.481   2.160  0.0247 -0.3334 -0.0128
 1863ntf    fn415788   4.128   4.671   2.230  0.1496 -0.5423  0.5184
 1863ntf    on515789   4.045   4.690   1.950 -0.3731  0.1180 -0.5551
 1863ntf    on515790   3.845   4.564   2.004  0.2447  0.0272 -0.0614
 1863ntf    on515791   3.672   4.726   2.227  0.1140  0.1463 -0.1092
 1863ntf    on515792   3.614   4.851   2.028  0.1623 -0.0481 -0.3928
 1863ntf    fn415793   3.708   5.082   2.165 -0.2207  0.1546 -0.4644
 1863ntf    fn415794   3.666   4.959   2.333  0.7034  0.0517 -0.4705
 1863ntf    fn415795   3.863   4.973   2.276  0.0190  0.2194 -0.1574
 1864ntf    cn115796   1.880   2.228   3.700 -0.0558  0.1622 -0.0354
 1864ntf    sn215797   1.760   2.213   3.836 -0.0409 -0.2361 -0.0668
 1864ntf    nn315798   1.747   2.367   3.859 -0.3432 -0.3097  0.2611
 1864ntf    sn215799   1.616   2.453   3.844  0.0179  0.1551 -0.2896
 1864ntf    cn115800   1.625   2.540   4.003 -0.1160  0.0009 -0.1976
 1864ntf    fn415801   1.990   2.286   3.745 -0.0235  0.2019 -0.1639
 1864ntf    fn415802   1.914   2.112   3.645  0.1650 -0.0221  0.4901
 1864ntf    fn415803   1.837   2.310   3.605  0.0382 -0.4345 -0.6054
 1864ntf    on515804   1.661   2.132   3.768  0.0732 -0.4848  0.0613
 1864ntf    on515805   1.835   2.147   3.940  0.0163  0.0130  0.0506
 1864ntf    on515806   1.494   2.378   3.861  0.2636 -0.1615  0.0955
 1864ntf    on515807   1.626   2.557   3.745 -0.4370  0.6496  0.1792
 1864ntf    fn415808   1.544   2.643   4.021 -0.4687 -0.2801 -0.1669
 1864ntf    fn415809   1.600   2.464   4.108  0.5586  0.1303  0.0624
 1864ntf    fn415810   1.747   2.583   4.028 -0.0876 -0.2860  0.1636
 1865ntf    cn115811   3.049   4.405   5.494 -0.0758 -0.2839  0.0025
 1865ntf    sn215812   2.943   4.273   5.560 -0.3049 -0.0615  0.0805
 1865ntf    nn315813   2.859   4.239   5.432 -0.1127  0.1204 -0.0956
 1865ntf    sn215814   2.706   4.259   5.401 -0.1767 -0.0285  0.1238
 1865ntf    cn115815   2.637   4.097   5.449  0.0060 -0.1147  0.0944
 1865ntf    fn415816   3.134   4.357   5.405 -0.0247  0.4217 -0.3361
 1865ntf    fn415817   2.982   4.505   5.439  0.4660  0.0813 -0.0026
 1865ntf    fn415818   3.122   4.465   5.588  0.1357  0.1634 -0.4426
 1865ntf    on515819   3.035   4.168   5.595 -0.0702  0.0202 -0.2822
 1865ntf    on515820   2.882   4.343   5.670 -0.1566  0.5390 -0.2130
 1865ntf    on515821   2.679   4.251   5.260  0.1601  0.9375  0.0002
 1865ntf    on515822   2.632   4.354   5.481  0.0159  0.3807 -0.1811
 1865ntf    fn415823   2.684   3.997   5.376  0.0248 -0.0352 -0.0020
 1865ntf    fn415824   2.688   4.079   5.570  0.3665 -0.0831 -0.0498
 1865ntf    fn415825   2.507   4.080   5.459 -0.0617  0.2613 -0.1128
 1866ntf    cn115826   1.233   3.276   5.986 -0.0888  0.0013  0.1941
 1866ntf    sn215827   1.267   3.385   6.128 -0.0327  0.0474  0.1450
 1866ntf    nn315828   1.176   3.313   6.235 -0.1308  0.5605  0.4074
 1866ntf    sn215829   1.184   3.313   6.392 -0.0438  0.1783  0.4020
 1866ntf    cn115830   1.031   3.402   6.433 -0.2172  0.0967 -0.0510
 1866ntf    fn415831   1.106   3.263   5.953 -0.0088  0.6469 -0.3970
 1866ntf    fn415832   1.297   3.319   5.879 -0.3077  0.6188  0.3051
 1866ntf    fn415833   1.265   3.150   6.006 -0.4454  0.0556  1.1730
 1866ntf    on515834   1.410   3.380   6.137 -0.0317  0.2651  0.2547
 1866ntf    on515835   1.213   3.510   6.083 -0.0657 -0.2757 -0.7275
 1866ntf    on515836   1.289   3.399   6.438  0.2997 -0.0579  0.0683
 1866ntf    on515837   1.174   3.185   6.458 -0.2678  0.2495  0.5080
 1866ntf    fn415838   0.998   3.392   6.561 -0.1143 -0.1658 -0.0455
 1866ntf    fn415839   1.034   3.532   6.405 -0.0814  0.1130  0.0375
 1866ntf    fn415840   0.935   3.356   6.355  0.4537 -0.5386 -0.5107
 1867ntf    cn115841   5.097   5.705   1.439  0.0738  0.1273  0.0836
 1867ntf    sn215842   5.051   5.529   1.441 -0.1690  0.1928  0.3018
 1867ntf    nn315843   5.101   5.494   1.586  0.6392 -0.1234 -0.0465
 1867ntf    sn215844   5.053   5.375   1.676  0.3629 -0.0168 -0.0510
 1867ntf    cn115845   5.205   5.274   1.675  0.3126 -0.0973  0.2416
 1867ntf    fn415846   5.072   5.772   1.328 -0.6951  0.0319  0.1935
 1867ntf    fn415847   5.017   5.765   1.525 -0.0885  0.5394 -0.3546
 1867ntf    fn415848   5.222   5.727   1.477 -0.0323 -0.1103  0.5810
 1867ntf    on515849   4.910   5.537   1.416 -0.2006 -0.4737  0.2468
 1867ntf    on515850   5.129   5.464   1.338 -0.2912  0.6899 -0.1078
 1867ntf    on515851   4.947   5.296   1.620  0.1776 -0.0367  0.3226
 1867ntf    on515852   5.050   5.414   1.815  0.0946  0.0691 -0.0817
 1867ntf    fn415853   5.241   5.239   1.553 -0.0200 -0.9605  0.3795
 1867ntf    fn415854   5.304   5.335   1.737 -0.2785  0.4691  0.6490
 1867ntf    fn415855   5.183   5.162   1.742 -0.1324  0.0330  0.3177
 1868ntf    cn115856   5.619   5.814   4.134 -0.1629 -0.2215  0.2548
 1868ntf    sn215857   5.618   5.778   3.956 -0.1463  0.0303  0.2043
 1868ntf    nn315858   5.648   5.624   3.956  1.2525  0.2866 -0.2557
 1868ntf    sn215859   5.592   5.511   3.862  0.4151  0.2289  0.3027
 1868ntf    cn115860   5.694   5.522   3.712  0.3043 -0.1155  0.2028
 1868ntf    fn415861   5.624   5.940   4.172  0.4461 -0.3134  0.4997
 1868ntf    fn415862   5.511   5.765   4.193 -0.2440 -0.2871  0.0547
 1868ntf    fn415863   5.729   5.763   4.187  0.2766  0.3743 -0.0764
 1868ntf    on515864   5.484   5.811   3.917 -0.0372  0.1752 -0.0512
 1868ntf    on515865   5.724   5.863   3.907 -0.0670  0.0039  0.3286
 1868ntf    on515866   5.453   5.523   3.826  0.4215 -0.1705  0.1441
 1868ntf    on515867   5.632   5.379   3.903 -0.1658  0.0043  0.1591
 1868ntf    fn415868   5.675   5.415   3.637 -0.4469  0.1177  0.0565
 1868ntf    fn415869   5.675   5.628   3.635 -0.2977 -0.2545  0.1552
 1868ntf    fn415870   5.821   5.523   3.750  0.2658  0.1126  0.3269
 1869ntf    cn115871   1.759   1.401   3.377 -0.0978  0.0517 -0.0324
 1869ntf    sn215872   1.581   1.365   3.390 -0.1136  0.1714  0.0897
 1869ntf    nn315873   1.566   1.312   3.243  0.1764  0.0590  0.1001
 1869ntf    sn215874   1.440   1.245   3.177  0.1424  0.1165  0.1070
 1869ntf    cn115875   1.364   1.396   3.109  0.0247 -0.0998 -0.2476
 1869ntf    fn415876   1.803   1.424   3.255  0.3628 -0.3735  0.0485
 1869ntf    fn415877   1.807   1.500   3.450  0.2728  0.0469 -0.2693
 1869ntf    fn415878   1.839   1.304   3.418 -0.6780 -0.3413  0.1942
 1869ntf    on515879   1.572   1.271   3.499 -0.2258  0.0513 -0.0226
 1869ntf    on515880   1.531   1.498   3.414 -0.2438  0.2110 -0.3811
 1869ntf    on515881   1.340   1.202   3.272 -0.3882 -0.0725 -0.5265
 1869ntf    on515882   1.456   1.160   3.062  0.3172 -0.3981  0.5097
 1869ntf    fn415883   1.321   1.474   3.207 -0.1748  0.0042 -0.4162
 1869ntf    fn415884   1.455   1.471   3.048 -0.1643  0.1755 -0.1970
 1869ntf    fn415885   1.255   1.371   3.039 -0.2591 -0.3273  0.2763
 1870ntf    cn115886   0.384   5.045   4.663 -0.1427 -0.0884  0.1149
 1870ntf    sn215887   0.320   5.087   4.828  0.0632 -0.0597  0.1882
 1870ntf    nn315888   0.211   5.192   4.789 -0.2420 -0.3657  0.2129
 1870ntf    sn215889   0.054   5.177   4.785 -0.2467 -0.1002 -0.8244
 1870ntf    cn115890   0.014   5.194   4.961 -0.2168  0.0847 -0.8352
 1870ntf    fn415891   0.448   4.928   4.662  0.2500  0.1272 -0.1674
 1870ntf    fn415892   0.291   5.027   4.571  0.0195 -0.4914  0.0262
 1870ntf    fn415893   0.470   5.139   4.628 -0.4691  0.1868  0.0590
 1870ntf    on515894   0.284   4.960   4.888  0.4633 -0.5071 -0.5046
 1870ntf    on515895   0.427   5.157   4.895  0.2785 -0.8835  0.7324
 1870ntf    on515896   0.018   5.042   4.748 -0.5166 -0.1498 -0.3831
 1870ntf    on515897  -0.012   5.287   4.719 -0.0794  0.1837 -0.5158
 1870ntf    fn415898  -0.114   5.194   4.993 -0.0215 -0.2248 -0.0301
 1870ntf    fn415899   0.060   5.094   5.034  0.1454  0.5841 -0.3691
 1870ntf    fn415900   0.068   5.301   5.017 -0.3492 -0.2055 -0.1466
 1871ntf    cn115901   6.569   0.713   2.019 -0.0624  0.0635  0.1366
 1871ntf    sn215902   6.662   0.779   2.160 -0.2065  0.1010  0.2140
 1871ntf    nn315903   6.771   0.667   2.176 -0.1934  0.0964  0.0895
 1871ntf    sn215904   6.793   0.555   2.283 -0.2179 -0.0339 -0.0415
 1871ntf    cn115905   6.928   0.628   2.380 -0.0465 -0.2251 -0.1354
 1871ntf    fn415906   6.517   0.594   2.046 -0.1618  0.0147 -0.2585
 1871ntf    fn415907   6.472   0.790   1.975  0.0710 -0.0662 -0.3913
 1871ntf    fn415908   6.651   0.694   1.916 -0.1036  0.8131 -0.0373
 1871ntf    on515909   6.718   0.901   2.107 -0.3983  0.1165  0.0456
 1871ntf    on515910   6.554   0.791   2.255  0.0110  1.0359  0.3589
 1871ntf    on515911   6.859   0.446   2.216 -0.2031  0.0712 -0.1966
 1871ntf    on515912   6.684   0.531   2.375  0.1859  0.2882  0.5266
 1871ntf    fn415913   6.973   0.558   2.482  0.1741 -0.1343 -0.1700
 1871ntf    fn415914   7.031   0.653   2.301 -0.2091  0.2578 -0.1962
 1871ntf    fn415915   6.890   0.744   2.431  0.2792 -0.1264 -0.1163
 1872ntf    cn115916   4.273   4.971   5.189 -0.3010 -0.4426  0.1132
 1872ntf    sn215917   4.393   4.994   5.055 -0.1872  0.1229  0.3124
 1872ntf    nn315918   4.304   5.066   4.947 -0.1908 -0.1674  0.1203
 1872ntf    sn215919   4.298   5.217   4.905  0.3669 -0.1041  0.2671
 1872ntf    cn115920   4.451   5.226   4.807 -0.0094  0.2459 -0.2928
 1872ntf    fn415921   4.319   4.893   5.286 -0.2113  0.0192  0.4423
 1872ntf    fn415922   4.218   5.081   5.237  0.4261 -0.1137  0.1924
 1872ntf    fn415923   4.167   4.909   5.139 -0.4150 -0.0372 -0.1437
 1872ntf    on515924   4.499   5.080   5.102  0.0132 -0.0016  0.0923
 1872ntf    on515925   4.427   4.858   5.022  0.4668  0.2086  0.6178
 1872ntf    on515926   4.321   5.320   5.003  0.5067  0.0749  0.0494
 1872ntf    on515927   4.196   5.247   4.808  0.3580 -0.4348  0.1724
 1872ntf    fn415928   4.459   5.326   4.720  0.1317  0.0355 -0.5238
 1872ntf    fn415929   4.561   5.243   4.879 -0.0366 -0.0624 -0.1817
 1872ntf    fn415930   4.473   5.118   4.735  1.0315  0.6288 -0.5747
 1873ntf    cn115931   1.779   3.611   1.537 -0.3838  0.1255 -0.0443
 1873ntf    sn215932   1.911   3.537   1.639 -0.2911 -0.1577 -0.3685
 1873ntf    nn315933   2.037   3.619   1.595  0.2785 -0.5946  0.4390
 1873ntf    sn215934   2.117   3.726   1.677  0.2768 -0.1662 -0.1091
 1873ntf    cn115935   2.219   3.793   1.543  0.3885 -0.2009 -0.0428
 1873ntf    fn415936   1.807   3.621   1.408 -0.2464 -0.7485 -0.0878
 1873ntf    fn415937   1.668   3.540   1.539 -0.1814 -0.1786  0.3522
 1873ntf    fn415938   1.758   3.735   1.577  0.1226  0.1951  0.0188
 1873ntf    on515939   1.863   3.560   1.773 -0.0086 -0.0331 -0.2889
 1873ntf    on515940   1.911   3.402   1.588  0.0790 -0.2977  0.0030
 1873ntf    on515941   2.221   3.677   1.765  0.1299  0.1275  0.2309
 1873ntf    on515942   2.041   3.843   1.714  0.3713  0.0093 -0.4720
 1873ntf    fn415943   2.299   3.706   1.484  0.2418 -0.5111  0.2118
 1873ntf    fn415944   2.143   3.853   1.452  0.1934  0.2740  0.4234
 1873ntf    fn415945   2.295   3.886   1.598  0.2667 -0.1413  0.0252
 1874ntf    cn115946   1.211   4.660   0.143  0.5253  0.1867  0.0145
 1874ntf    sn215947   1.220   4.731  -0.024 -0.1721  0.0000 -0.1096
 1874ntf    nn315948   1.303   4.625  -0.106 -0.1676  0.5063 -0.7747
 1874ntf    sn215949   1.453   4.628  -0.152  0.0048  0.0928 -0.2514
 1874ntf    cn115950   1.443   4.735  -0.298  0.4342  0.1672 -0.2276
 1874ntf    fn415951   1.132   4.736   0.217  0.1486  0.0449 -0.2387
 1874ntf    fn415952   1.164   4.537   0.152  0.1307  0.3200 -0.1616
 1874ntf    fn415953   1.327   4.660   0.205  0.4101  0.5865  0.2332
 1874ntf    on515954   1.081   4.729  -0.062 -0.1008  0.9013 -0.4465
 1874ntf    on515955   1.280   4.862  -0.007  0.3652 -0.1452 -0.8153
 1874ntf    on515956   1.497   4.502  -0.206 -0.2313  0.1756 -0.6444
 1874ntf    on515957   1.540   4.691  -0.056  0.0640  0.3547 -0.4742
 1874ntf    fn415958   1.554   4.737  -0.370  0.3894  0.0747 -0.3001
 1874ntf    fn415959   1.343   4.696  -0.376  0.4648  0.0814 -0.2238
 1874ntf    fn415960   1.426   4.862  -0.264 -0.0335  0.0092  0.1306
 1875ntf    cn115961   3.903   1.515   2.422 -0.1900 -0.4771  0.2175
 1875ntf    sn215962   3.771   1.569   2.535 -0.1916 -0.2079  0.0882
 1875ntf    nn315963   3.674   1.458   2.483  0.0192 -0.2530 -0.2087
 1875ntf    sn215964   3.563   1.381   2.563  0.0631  0.1791  0.2691
 1875ntf    cn115965   3.416   1.386   2.455  0.0889 -0.1434  0.2172
 1875ntf    fn415966   3.924   1.385   2.415 -0.4338 -0.4709 -0.6923
 1875ntf    fn415967   3.881   1.555   2.298  0.2021  0.1319  0.3375
 1875ntf    fn415968   4.018   1.578   2.440 -0.2596 -0.0772 -0.7069
 1875ntf    on515969   3.822   1.555   2.669 -0.5124  0.7551  0.3211
 1875ntf    on515970   3.740   1.703   2.493  0.7209 -0.1071 -0.2932
 1875ntf    on515971   3.517   1.459   2.676 -0.0668  0.5223 -0.0174
 1875ntf    on515972   3.575   1.238   2.577  0.7434  0.2253  0.1534
 1875ntf    fn415973   3.381   1.507   2.413  0.3186 -0.1357  0.0499
 1875ntf    fn415974   3.435   1.308   2.351  0.3013  0.0532  0.1064
 1875ntf    fn415975   3.308   1.335   2.511  0.3281 -0.6211  0.2443
 1876ntf    cn115976   4.314   6.551   1.282  0.5919  0.1253  0.0781
 1876ntf    sn215977   4.279   6.728   1.303  0.3040  0.0922 -0.1209
 1876ntf    nn315978   4.268   6.769   1.151 -0.1915 -0.1732 -0.1592
 1876ntf    sn215979   4.142   6.764   1.058 -0.1202  0.0599 -0.2680
 1876ntf    cn115980   4.090   6.939   1.061  0.3153  0.1915 -0.3768
 1876ntf    fn415981   4.331   6.481   1.393 -0.0180 -0.2428 -0.0530
 1876ntf    fn415982   4.234   6.482   1.202 -0.0814 -0.1948  1.0082
 1876ntf    fn415983   4.433   6.538   1.226  0.4333 -0.3118 -0.1575
 1876ntf    on515984   4.163   6.729   1.389 -0.0881 -0.1202 -0.6433
 1876ntf    on515985   4.396   6.789   1.360 -0.0875  0.3324  0.4363
 1876ntf    on515986   4.022   6.700   1.106 -0.0654 -0.1577 -0.4211
 1876ntf    on515987   4.172   6.740   0.919 -0.4550  0.7413 -0.4640
 1876ntf    fn415988   4.078   6.989   1.183 -0.0289  0.2293 -0.4265
 1876ntf    fn415989   4.173   7.019   0.996  0.8766  0.1396  0.2614
 1876ntf    fn415990   3.968   6.947   1.011  0.0915  0.2483  0.1715
 1877ntf    cn115991   5.204   1.639   2.085 -0.0052  0.0593  0.0595
 1877ntf    sn215992   5.113   1.540   1.963  0.2791 -0.0900 -0.0317
 1877ntf    nn315993   5.221   1.544   1.850  0.3556 -0.1816  0.0380
 1877ntf    sn215994   5.214   1.609   1.707  0.2074  0.0434  0.1471
 1877ntf    cn115995   5.144   1.480   1.599 -0.0165  0.3357 -0.0560
 1877ntf    fn415996   5.131   1.668   2.192 -0.2481  0.3097 -0.1748
 1877ntf    fn415997   5.314   1.581   2.130  0.1961  0.0254 -0.4689
 1877ntf    fn415998   5.245   1.757   2.042  0.4954 -0.1520 -0.0567
 1877ntf    on515999   5.111   1.409   2.024  0.2963  0.1477  0.4834
 1877ntf    on516000   4.990   1.610   1.938  0.0655 -0.4332  0.0373
 1877ntf    on516001   5.346   1.634   1.654  0.3223 -0.2473  0.2925
 1877ntf    on516002   5.120   1.718   1.698 -0.0056 -0.1594 -0.0980
 1877ntf    fn416003   5.048   1.406   1.652  0.0567 -0.0886 -0.5099
 1877ntf    fn416004   5.100   1.525   1.482  0.0116 -0.0735 -0.2229
 1877ntf    fn416005   5.232   1.389   1.564  0.0999  0.1215  0.7841
 1878ntf    cn116006   0.440   0.383   6.246 -0.3863 -0.2116 -0.2878
 1878ntf    sn216007   0.477   0.315   6.410 -0.0446 -0.1620 -0.3432
 1878ntf    nn316008   0.332   0.299   6.468  0.1328 -0.2846  0.0709
 1878ntf    sn216009   0.231   0.179   6.474  0.0763 -0.2267  0.2783
 1878ntf    cn116010   0.272   0.111   6.638  0.0388 -0.0385  0.3666
 1878ntf    fn416011   0.390   0.505   6.259  0.6526  0.2277 -0.3144
 1878ntf    fn416012   0.551   0.393   6.174 -0.1542 -0.2399  0.0662
 1878ntf    fn416013   0.362   0.307   6.170  0.0706 -0.4020 -0.5715
 1878ntf    on516014   0.538   0.189   6.373 -0.2076 -0.4298  0.2826
 1878ntf    on516015   0.562   0.416   6.468 -0.5254  0.0007  0.0800
 1878ntf    on516016   0.246   0.074   6.377  0.5181 -0.0603  0.1643
 1878ntf    on516017   0.097   0.230   6.488  0.2171  0.3757 -0.4982
 1878ntf    fn416018   0.370   0.022   6.635 -0.0171 -0.0914 -0.0197
 1878ntf    fn416019   0.311   0.214   6.711  0.4725  0.0991 -0.0519
 1878ntf    fn416020   0.170   0.052   6.698 -0.0158  0.0588  0.3699
 1879ntf    cn116021   4.434   4.296   0.272  0.1278  0.2063  0.4746
 1879ntf    sn216022   4.602   4.338   0.325  0.3872 -0.1001 -0.0970
 1879ntf    nn316023   4.603   4.495   0.317 -0.0057 -0.1214 -0.6198
 1879ntf    sn216024   4.512   4.596   0.396 -0.1128 -0.2605 -0.5642
 1879ntf    cn116025   4.637   4.664   0.509 -0.4846  0.2474 -0.4544
 1879ntf    fn416026   4.422   4.165   0.255  0.4967  0.2433 -0.1014
 1879ntf    fn416027   4.336   4.333   0.353 -0.4007 -0.3524  0.1009
 1879ntf    fn416028   4.402   4.349   0.155  0.2317 -0.3918  0.1723
 1879ntf    on516029   4.610   4.279   0.456  0.3560  0.0366 -0.0333
 1879ntf    on516030   4.683   4.290   0.216 -0.1393 -0.0772 -0.5025
 1879ntf    on516031   4.419   4.540   0.492 -0.6459  0.4577 -0.6503
 1879ntf    on516032   4.466   4.712   0.323 -0.0279 -0.4717 -0.9584
 1879ntf    fn416033   4.744   4.711   0.448  0.4065  0.2345  1.0581
 1879ntf    fn416034   4.583   4.762   0.581 -0.7362 -0.6319  0.5808
 1879ntf    fn416035   4.685   4.568   0.586  0.1956  0.6494 -0.3670
 1880ntf    cn116036   0.196   3.196   4.283  0.3772  0.0567  0.1147
 1880ntf    sn216037   0.140   3.260   4.444 -0.4399 -0.0559 -0.1203
 1880ntf    nn316038   0.102   3.406   4.403 -0.2570  0.1386  0.3975
 1880ntf    sn216039   0.174   3.538   4.449  0.0699  0.0298  0.1935
 1880ntf    cn116040   0.091   3.667   4.352 -0.1541 -0.2646 -0.0071
 1880ntf    fn416041   0.087   3.187   4.208  0.5659  0.0492 -0.1584
 1880ntf    fn416042   0.279   3.278   4.221  0.0295  0.3067 -0.0222
 1880ntf    fn416043   0.240   3.072   4.288 -0.4517 -0.2469  0.0894
 1880ntf    on516044   0.025   3.180   4.480 -0.1626 -0.3337  0.1640
 1880ntf    on516045   0.256   3.255   4.529 -0.6632  0.1472  0.1981
 1880ntf    on516046   0.310   3.551   4.401  0.1867 -0.1101  0.4873
 1880ntf    on516047   0.144   3.580   4.583  0.3528  0.5651  0.0937
 1880ntf    fn416048   0.125   3.650   4.225 -0.0629 -0.0950 -0.0057
 1880ntf    fn416049  -0.041   3.667   4.356 -0.1333  0.0907  0.7180
 1880ntf    fn416050   0.132   3.787   4.391  0.3498 -0.6769  0.7476
 1881ntf    cn116051   3.610   4.400   5.181  0.0730  0.3561  0.0651
 1881ntf    sn216052   3.478   4.407   5.056  0.2404 -0.1770 -0.1463
 1881ntf    nn316053   3.522   4.522   4.959  0.3842 -0.0547  0.0629
 1881ntf    sn216054   3.624   4.507   4.841  0.0049 -0.0779 -0.2638
 1881ntf    cn116055   3.706   4.670   4.835 -0.2182  0.0745  0.7752
 1881ntf    fn416056   3.724   4.353   5.133  0.1261  0.4358  0.1139
 1881ntf    fn416057   3.638   4.523   5.221  0.2042  0.2096  0.4257
 1881ntf    fn416058   3.580   4.323   5.284  0.5459 -0.0327 -0.0801
 1881ntf    on516059   3.468   4.278   4.992 -0.5217 -0.4019  0.4045
 1881ntf    on516060   3.369   4.439   5.145 -0.0920 -0.0574 -0.5967
 1881ntf    on516061   3.570   4.507   4.707  0.2137 -0.5583 -0.3498
 1881ntf    on516062   3.730   4.412   4.860  0.3074  0.3046 -0.0085
 1881ntf    fn416063   3.764   4.692   4.952 -0.2682  0.0809  0.7990
 1881ntf    fn416064   3.803   4.684   4.747 -0.7296 -0.3186  0.1444
 1881ntf    fn416065   3.625   4.773   4.817 -0.6548 -0.4044 -0.0438
 1882ntf    cn116066   3.772   1.247   4.437  0.0060 -0.0944 -0.0386
 1882ntf    sn216067   3.674   1.223   4.588  0.1064 -0.0457  0.0337
 1882ntf    nn316068   3.656   1.374   4.626  0.0111 -0.1011  0.2126
 1882ntf    sn216069   3.757   1.479   4.683 -0.1926  0.1232  0.1670
 1882ntf    cn116070   3.680   1.529   4.840  0.0392  0.0821  0.2941
 1882ntf    fn416071   3.850   1.353   4.447  0.0179 -0.0872 -0.2124
 1882ntf    fn416072   3.852   1.144   4.414 -0.0768 -0.0047 -0.7336
 1882ntf    fn416073   3.701   1.269   4.328  0.2597  0.0258 -0.1791
 1882ntf    on516074   3.558   1.148   4.546  0.3865 -0.4613 -0.0029
 1882ntf    on516075   3.762   1.154   4.679  0.0077  0.0501  0.2038
 1882ntf    on516076   3.753   1.604   4.613 -0.2887  0.0920  0.1172
 1882ntf    on516077   3.882   1.435   4.740 -0.0780 -0.6707 -0.6865
 1882ntf    fn416078   3.636   1.425   4.910 -0.4443  0.0405 -0.0714
 1882ntf    fn416079   3.748   1.604   4.925  0.2745  0.5437 -0.2988
 1882ntf    fn416080   3.576   1.604   4.809  0.1519  0.2519  0.3244
 1883ntf    cn116081   5.533   2.475   5.518  0.1588  0.3337 -0.0291
 1883ntf    sn216082   5.637   2.623   5.536  0.4197  0.1234  0.1925
 1883ntf    nn316083   5.780   2.558   5.542  0.1154 -0.6367 -0.5943
 1883ntf    sn216084   5.899   2.605   5.451  0.4735  0.1574  0.2660
 1883ntf    cn116085   5.882   2.474   5.326  0.0438  0.2684  0.2061
 1883ntf    fn416086   5.404   2.504   5.524  0.0418 -0.0728 -0.4873
 1883ntf    fn416087   5.549   2.412   5.402  0.1520 -0.0884  0.1991
 1883ntf    fn416088   5.551   2.385   5.613 -0.4796  0.3827  0.1462
 1883ntf    on516089   5.605   2.698   5.417  0.5292 -0.2553 -0.0779
 1883ntf    on516090   5.592   2.672   5.664 -0.2423 -0.0741  0.0365
 1883ntf    on516091   6.027   2.584   5.515  1.0313  0.5452 -0.6983
 1883ntf    on516092   5.884   2.728   5.378 -0.5028 -0.1312 -0.0388
 1883ntf    fn416093   5.766   2.480   5.264  0.2364  0.1352 -0.1713
 1883ntf    fn416094   5.977   2.476   5.233  0.2752  0.1736  0.4394
 1883ntf    fn416095   5.888   2.350   5.373 -0.7137  0.1353 -0.0291
 1884ntf    cn116096   5.847   0.444   2.041  0.1266 -0.0443  0.2572
 1884ntf    sn216097   5.872   0.325   1.905  0.1066 -0.1190  0.3194
 1884ntf    nn316098   5.898   0.192   1.986  0.4055 -0.5124 -0.4165
 1884ntf    sn216099   6.030   0.107   1.984  0.5609 -0.2846  0.0358
 1884ntf    cn116100   5.958  -0.028   2.083  0.2268 -0.1505 -0.0196
 1884ntf    fn416101   5.937   0.448   2.138  0.0156  0.2753  0.3457
 1884ntf    fn416102   5.816   0.568   2.005 -0.2721 -0.1755  0.1385
 1884ntf    fn416103   5.732   0.418   2.100 -0.1367  0.4044 -0.0455
 1884ntf    on516104   5.744   0.330   1.840  0.0781  0.7200  0.4249
 1884ntf    on516105   5.978   0.390   1.832 -0.5031 -0.2844 -0.7157
 1884ntf    on516106   6.139   0.149   2.068  0.6112 -0.0043 -0.1702
 1884ntf    on516107   6.054   0.045   1.856  0.1365 -0.0896 -0.1413
 1884ntf    fn416108   5.930   0.016   2.205 -0.0645  0.3276 -0.2536
 1884ntf    fn416109   5.847  -0.077   2.032  0.0404 -0.1145  0.3498
 1884ntf    fn416110   6.040  -0.130   2.101  0.7160  0.2738  0.2074
 1885ntf    cn116111   1.186   2.056   2.025  0.0138 -0.0773 -0.5075
 1885ntf    sn216112   1.320   2.160   2.090  0.0836 -0.3708 -0.1803
 1885ntf    nn316113   1.398   2.061   2.185  0.2707 -0.1123 -0.0635
 1885ntf    sn216114   1.394   2.047   2.341 -0.7304 -0.6690 -0.1287
 1885ntf    cn116115   1.516   2.174   2.385 -0.6653 -0.6724 -0.3001
 1885ntf    fn416116   1.124   2.115   1.925 -0.4425  0.6359  0.1834
 1885ntf    fn416117   1.236   1.944   1.975  0.0391 -0.4278  0.2727
 1885ntf    fn416118   1.096   2.025   2.118  0.6458  0.5603  0.3374
 1885ntf    on516119   1.388   2.189   1.967 -0.0352  0.5814 -0.0280
 1885ntf    on516120   1.250   2.267   2.157 -0.6508 -0.5058 -0.7174
 1885ntf    on516121   1.463   1.926   2.377 -0.0459 -0.2637 -0.0640
 1885ntf    on516122   1.277   2.077   2.420 -0.2867  0.1982  0.2079
 1885ntf    fn416123   1.611   2.174   2.293 -0.0221  0.6921  0.3351
 1885ntf    fn416124   1.465   2.295   2.405 -0.2559 -0.5351 -0.0609
 1885ntf    fn416125   1.576   2.140   2.498  0.0360  0.0225 -0.4517
 1886ntf    cn116126   1.844   0.140   5.804 -0.4442  0.0307  0.3447
 1886ntf    sn216127   1.890  -0.031   5.763 -0.2691  0.0686  0.3797
 1886ntf    nn316128   2.018  -0.008   5.676 -0.0962 -0.4687  0.4874
 1886ntf    sn216129   2.166  -0.013   5.726  0.1101 -0.3881 -0.1102
 1886ntf    cn116130   2.178  -0.190   5.689 -0.3172 -0.4854  0.2087
 1886ntf    fn416131   1.780   0.152   5.919 -0.4295  0.4554  0.3090
 1886ntf    fn416132   1.954   0.213   5.810 -0.5266  0.1605  0.2671
 1886ntf    fn416133   1.767   0.195   5.712 -0.2373  0.0713  0.1938
 1886ntf    on516134   1.908  -0.102   5.888 -0.0675 -0.7448 -0.1042
 1886ntf    on516135   1.773  -0.076   5.692  0.2800 -0.4166 -0.2236
 1886ntf    on516136   2.192   0.001   5.867  0.1613 -0.3691 -0.1207
 1886ntf    on516137   2.265   0.054   5.644  0.2486 -0.4109  0.0376
 1886ntf    fn416138   2.301  -0.224   5.724  0.0384  0.5341 -0.0175
 1886ntf    fn416139   2.096  -0.251   5.772 -0.9308 -0.0990 -0.1105
 1886ntf    fn416140   2.169  -0.222   5.560  0.3670 -0.5105  0.1611
 1887ntf    cn116141   2.877   3.030   2.245 -0.0697  0.0951 -0.0313
 1887ntf    sn216142   2.773   2.914   2.151  0.2308 -0.3928  0.2348
 1887ntf    nn316143   2.689   3.016   2.067  0.3936 -0.4931 -0.0515
 1887ntf    sn216144   2.730   3.102   1.942 -0.0126 -0.0389  0.1252
 1887ntf    cn116145   2.596   3.058   1.828 -0.0939  0.1417  0.1512
 1887ntf    fn416146   2.811   3.128   2.304 -0.3036 -0.0584 -0.0342
 1887ntf    fn416147   2.957   2.971   2.332  0.1038  0.1348 -0.1652
 1887ntf    fn416148   2.956   3.095   2.162  0.2684 -0.3082 -0.0285
 1887ntf    on516149   2.860   2.829   2.073  0.1769 -0.0887 -0.1554
 1887ntf    on516150   2.701   2.846   2.256 -0.0488 -0.1758  0.1838
 1887ntf    on516151   2.843   3.056   1.866  0.2079  0.7311 -0.0186
 1887ntf    on516152   2.717   3.244   1.964  0.4023  0.0908 -0.4442
 1887ntf    fn416153   2.474   3.093   1.866 -0.1216  0.3485 -0.1251
 1887ntf    fn416154   2.613   3.107   1.706  0.6525 -0.2732  0.0878
 1887ntf    fn416155   2.593   2.927   1.814  0.8848  0.1724 -0.4146
 1888ntf    cn116156   0.831   3.415   4.687 -0.2625  0.1459 -0.1906
 1888ntf    sn216157   1.005   3.369   4.660 -0.3177 -0.1404 -0.0643
 1888ntf    nn316158   1.043   3.321   4.804  0.3019 -0.1037 -0.2149
 1888ntf    sn216159   1.017   3.183   4.874  0.0828  0.0135 -0.0655
 1888ntf    cn116160   1.190   3.128   4.865  0.1196  0.1421 -0.1450
 1888ntf    fn416161   0.818   3.489   4.795 -0.1602 -0.3919  0.1959
 1888ntf    fn416162   0.780   3.478   4.583  0.1460  0.5911 -0.1280
 1888ntf    fn416163   0.753   3.311   4.714  0.0357 -0.1339 -0.3967
 1888ntf    on516164   1.001   3.271   4.554  0.2984  0.2944 -0.4974
 1888ntf    on516165   1.076   3.489   4.623 -0.5148  0.0004  0.0148
 1888ntf    on516166   0.942   3.086   4.798  0.3077 -0.0688 -0.1819
 1888ntf    on516167   0.989   3.203   5.014 -0.3653  0.1577 -0.1715
 1888ntf    fn416168   1.254   3.175   4.759  0.7954 -0.3418  0.0459
 1888ntf    fn416169   1.255   3.166   4.974  0.0345  0.3327 -0.1593
 1888ntf    fn416170   1.192   2.996   4.858  0.0388  0.1557 -0.4365
 1889ntf    cn116171   3.799   0.613   1.262  0.1203  0.0229 -0.0355
 1889ntf    sn216172   3.829   0.759   1.366 -0.2905  0.0115  0.1008
 1889ntf    nn316173   3.897   0.848   1.256  0.1120  0.3057  0.5851
 1889ntf    sn216174   4.050   0.868   1.227 -0.0358 -0.0622 -0.4981
 1889ntf    cn116175   4.043   0.845   1.047  0.3122 -0.4949 -0.4579
 1889ntf    fn416176   3.907   0.566   1.202 -0.1527  0.1089 -0.6004
 1889ntf    fn416177   3.738   0.514   1.325 -0.4290  0.4784  0.1564
 1889ntf    fn416178   3.712   0.650   1.169  0.2525 -0.1183 -0.2143
 1889ntf    on516179   3.696   0.797   1.407 -0.1334  0.4180  0.2375
 1889ntf    on516180   3.923   0.716   1.466 -0.3452  0.2987  0.2752
 1889ntf    on516181   4.150   0.771   1.262  0.3580  0.4410 -0.2103
 1889ntf    on516182   4.086   1.005   1.254 -0.2632 -0.0083 -0.4668
 1889ntf    fn416183   4.156   0.880   0.988  0.2782  0.1960 -0.1265
 1889ntf    fn416184   4.017   0.717   1.027  0.2913 -0.6430  0.4792
 1889ntf    fn416185   3.945   0.918   0.995  0.3487  0.0511  0.2265
 1890ntf    cn116186   3.739   6.321   2.698  0.3456  0.0587  0.1535
 1890ntf    sn216187   3.559   6.345   2.699  0.3060 -0.2162 -0.4327
 1890ntf    nn316188   3.511   6.371   2.551 -0.2537  0.7501 -0.0877
 1890ntf    sn216189   3.587   6.355   2.415  0.0554 -0.1116  0.1802
 1890ntf    cn116190   3.593   6.530   2.366  0.0887 -0.2962 -0.4981
 1890ntf    fn416191   3.797   6.418   2.630 -0.0979  0.0169 -0.2900
 1890ntf    fn416192   3.793   6.326   2.819  0.1983 -0.3946  0.2394
 1890ntf    fn416193   3.777   6.205   2.647  0.1697  0.0633  0.0122
 1890ntf    on516194   3.504   6.225   2.758  0.3494  0.0473  0.1458
 1890ntf    on516195   3.543   6.465   2.777  0.5894 -0.2756 -0.2840
 1890ntf    on516196   3.507   6.313   2.302  0.3420 -0.5006  0.1169
 1890ntf    on516197   3.724   6.309   2.418  0.0087 -0.2526  0.1533
 1890ntf    fn416198   3.475   6.591   2.370  0.4694  0.4146  0.3403
 1890ntf    fn416199   3.667   6.598   2.452  0.2858 -0.6889 -0.3539
 1890ntf    fn416200   3.647   6.553   2.248  0.4225 -0.2520 -0.3383
   6.75004   6.75004   6.75004
