Converted from moscito
32400
    1SOL     ow    1   1.225   2.095   5.390  0.8175 -0.3468 -0.5187
    1SOL     hw    2   1.227   2.111   5.485  0.3208 -1.3021 -0.3411
    1SOL     hw    3   1.185   2.009   5.381  0.2928  0.0043 -1.6400
    1SOL     vw    4   1.220   2.086   5.401  0.6827 -0.4267 -0.6433
    2SOL     ow    5   0.837   3.694   0.336  0.8677 -0.2604  0.1624
    2SOL     hw    6   0.877   3.757   0.395  1.3428 -0.4672  0.0715
    2SOL     hw    7   0.885   3.613   0.352  2.0962  0.0603 -1.6125
    2SOL     vw    8   0.849   3.692   0.346  1.0925 -0.2455 -0.0838
    3SOL     ow    9   6.468   2.224   3.730 -0.3522 -0.2131  0.1521
    3SOL     hw   10   6.426   2.306   3.754  0.5706 -0.0803  1.3821
    3SOL     hw   11   6.474   2.174   3.812 -1.1069 -1.6224 -0.6042
    3SOL     vw   12   6.464   2.228   3.744 -0.3300 -0.3815  0.2147
    4SOL     ow   13   6.049   2.518   2.836 -0.2016 -1.0022  0.5587
    4SOL     hw   14   6.050   2.613   2.848  2.0946 -0.8930 -0.1169
    4SOL     hw   15   6.021   2.505   2.745 -2.2326 -1.1047  1.1514
    4SOL     vw   16   6.045   2.529   2.826 -0.1664 -1.0012  0.5479
    5SOL     ow   17   7.456   2.445   6.521  1.0103 -0.5687  0.2941
    5SOL     hw   18   7.420   2.359   6.500 -0.5416 -0.4060  2.0357
    5SOL     hw   19   7.532   2.426   6.576  0.0955 -0.8461  1.5015
    5SOL     vw   20   7.461   2.431   6.525  0.6847 -0.5839  0.6833
    6SOL     ow   21   0.812   3.393   3.799  0.5333 -0.0648 -0.3781
    6SOL     hw   22   0.749   3.326   3.773  2.2342 -1.1761 -1.9419
    6SOL     hw   23   0.811   3.456   3.726 -0.9142  1.5771  0.9899
    6SOL     vw   24   0.804   3.393   3.786  0.5668  0.0054 -0.4040
    7SOL     ow   25   3.115   4.596   3.549  0.8629 -0.3345 -0.2169
    7SOL     hw   26   3.068   4.657   3.492  0.1089 -0.3904  0.3223
    7SOL     hw   27   3.186   4.561   3.495  1.1726  0.8439 -0.6048
    7SOL     vw   28   3.118   4.599   3.534  0.8043 -0.1862 -0.1971
    8SOL     ow   29   0.591   3.922   0.236  0.1570  0.2529 -0.2140
    8SOL     hw   30   0.578   3.837   0.278 -0.8543 -0.0393 -1.0745
    8SOL     hw   31   0.684   3.942   0.249  0.3888 -0.9501  0.0524
    8SOL     vw   32   0.602   3.914   0.243  0.0542  0.0557 -0.2924
    9SOL     ow   33   5.954   2.880   0.202 -0.6148  0.1149  0.3697
    9SOL     hw   34   5.863   2.903   0.183  0.1938  4.7775  0.9399
    9SOL     hw   35   5.973   2.921   0.286  1.8599 -1.4179  0.6748
    9SOL     vw   36   5.945   2.888   0.210 -0.1819  0.5279  0.4852
   10SOL     ow   37   3.589   1.059   1.460  0.8070  0.1335  0.3465
   10SOL     hw   38   3.650   1.005   1.409 -0.0913  0.9569 -1.6809
   10SOL     hw   39   3.638   1.139   1.479  1.3062 -0.3671  1.2454
   10SOL     vw   40   3.604   1.062   1.456  0.7542  0.1761  0.1976
   11SOL     ow   41   5.758   2.744   5.580  0.0748  0.4609 -0.1856
   11SOL     hw   42   5.820   2.816   5.592 -0.5993  1.2916 -1.4234
   11SOL     hw   43   5.673   2.787   5.573 -0.5326 -0.5894  0.5191
   11SOL     vw   44   5.755   2.759   5.580 -0.0942  0.4318 -0.2558
   12SOL     ow   45   5.780   6.551   1.575 -0.1769 -0.3484  0.0557
   12SOL     hw   46   5.710   6.528   1.514  0.8261  0.3135 -1.4155
   12SOL     hw   47   5.783   6.647   1.573  1.0629 -0.3762 -0.2906
   12SOL     vw   48   5.771   6.561   1.566  0.1190 -0.2646 -0.1841
   13SOL     ow   49   7.116   0.369   1.476 -0.1214  0.1456 -0.5907
   13SOL     hw   50   7.051   0.299   1.478  1.5322 -1.4677 -0.7319
   13SOL     hw   51   7.182   0.343   1.540  1.1420  0.9607 -1.5084
   13SOL     vw   52   7.116   0.357   1.484  0.2637  0.0403 -0.7305
   14SOL     ow   53   2.173   4.268   2.574 -0.2823  0.5113 -0.0236
   14SOL     hw   54   2.120   4.189   2.586  0.0502  0.1945 -0.6038
   14SOL     hw   55   2.218   4.254   2.491  0.4895  0.9078  0.3203
   14SOL     vw   56   2.172   4.256   2.565 -0.1366  0.5219 -0.0550
   15SOL     ow   57   6.996   4.129   1.091 -0.1026  1.1801 -0.4565
   15SOL     hw   58   7.088   4.150   1.077 -0.2568  1.4399 -1.0833
   15SOL     hw   59   6.962   4.110   1.004 -0.4198  0.1514 -0.1201
   15SOL     vw   60   7.004   4.129   1.078 -0.1650  1.0786 -0.4948
   16SOL     ow   61   7.295   3.178   5.297  0.0907  0.2684  0.1230
   16SOL     hw   62   7.350   3.251   5.266 -0.0583 -0.0402 -0.9102
   16SOL     hw   63   7.230   3.167   5.228  0.0554 -0.7895  0.3160
   16SOL     vw   64   7.294   3.186   5.284  0.0663  0.0881  0.0117
   17SOL     ow   65   6.900   6.249   3.909  0.3925 -0.1496 -0.2292
   17SOL     hw   66   6.917   6.343   3.902 -0.7141  0.0615 -0.1428
   17SOL     hw   67   6.983   6.213   3.939  1.7230  0.4190 -2.8657
   17SOL     vw   68   6.914   6.257   3.912  0.4220 -0.0467 -0.5658
   18SOL     ow   69   1.922   0.255   4.250 -0.3528 -0.0536 -0.1535
   18SOL     hw   70   1.849   0.316   4.243  0.9424  1.4109 -1.8654
   18SOL     hw   71   1.890   0.185   4.307 -2.5032  1.3347  0.4525
   18SOL     vw   72   1.908   0.254   4.257 -0.4656  0.3228 -0.2992
   19SOL     ow   73   0.531   4.995   5.674 -0.6376 -0.0456  0.2942
   19SOL     hw   74   0.552   4.969   5.764 -4.3615 -1.8949  0.8241
   19SOL     hw   75   0.590   5.069   5.657  4.0539 -2.8515  2.1780
   19SOL     vw   76   0.542   5.002   5.684 -0.5099 -0.6602  0.6127
   20SOL     ow   77   2.655   3.854   3.311 -0.0078 -0.4024  0.5596
   20SOL     hw   78   2.715   3.884   3.243 -0.4700  1.9864  1.1463
   20SOL     hw   79   2.576   3.829   3.264 -0.0353  0.4612  0.1300
   20SOL     vw   80   2.653   3.854   3.296 -0.0726  0.0268  0.5804
   21SOL     ow   81   6.393   1.873   2.139 -0.1143  0.1012 -0.1613
   21SOL     hw   82   6.418   1.896   2.228 -0.3280  0.2314 -0.1332
   21SOL     hw   83   6.473   1.887   2.087  0.5171 -1.6585  0.2747
   21SOL     vw   84   6.407   1.878   2.144 -0.0594 -0.1138 -0.1001
   22SOL     ow   85   3.090   5.354   2.800 -0.3745  1.0013  0.0633
   22SOL     hw   86   3.173   5.400   2.804  1.1974 -1.6807  0.4528
   22SOL     hw   87   3.103   5.286   2.734 -2.9069  1.5982 -1.2033
   22SOL     vw   88   3.102   5.351   2.792 -0.5012  0.7265 -0.0523
   23SOL     ow   89   3.445   0.932   2.679  1.3285  0.6247 -0.1686
   23SOL     hw   90   3.395   0.921   2.759 -1.5013 -0.4155 -1.9236
   23SOL     hw   91   3.465   0.842   2.650  1.1527  0.9116 -1.2485
   23SOL     vw   92   3.441   0.918   2.685  0.9321  0.5253 -0.5426
   24SOL     ow   93   5.427   5.215   2.853  0.1866  0.5206  0.7786
   24SOL     hw   94   5.436   5.173   2.939 -0.0906  1.8391  1.4930
   24SOL     hw   95   5.512   5.255   2.837 -0.5098  2.5932  1.7769
   24SOL     vw   96   5.439   5.215   2.862  0.0582  0.9680  1.0045
   25SOL     ow   97   7.611   6.513   7.305 -0.2150 -0.8094 -0.0502
   25SOL     hw   98   7.616   6.426   7.344  1.8753  0.6148  3.2828
   25SOL     hw   99   7.702   6.536   7.285 -0.8036  0.3476 -1.6378
   25SOL     vw  100   7.623   6.505   7.307 -0.0169 -0.4690  0.1800
   26SOL     ow  101   2.231   4.543   7.257  0.2225 -0.2177 -0.8387
   26SOL     hw  102   2.163   4.607   7.273 -0.9096 -1.5650 -0.0106
   26SOL     hw  103   2.281   4.578   7.183  0.5986  2.3156  0.5119
   26SOL     vw  104   2.229   4.556   7.249  0.1228 -0.0613 -0.5510
   27SOL     ow  105   5.377   6.634   2.153  0.4682 -0.3043 -0.4482
   27SOL     hw  106   5.417   6.647   2.239 -1.5354  0.2226  0.4647
   27SOL     hw  107   5.305   6.573   2.169 -0.2115  0.1455 -1.6684
   27SOL     vw  108   5.373   6.627   2.167  0.1144 -0.1755 -0.4888
   28SOL     ow  109   2.409   1.998   1.236 -0.0221  0.3557  0.1625
   28SOL     hw  110   2.346   2.028   1.170  2.6790  0.7662 -2.4024
   28SOL     hw  111   2.427   2.075   1.289 -0.5993  0.5815  0.0428
   28SOL     vw  112   2.403   2.012   1.235  0.2581  0.4395 -0.1917
   29SOL     ow  113   5.730   4.569   4.590 -0.2262 -0.0123  0.4585
   29SOL     hw  114   5.798   4.575   4.523  0.7482 -1.5600  1.2655
   29SOL     hw  115   5.687   4.485   4.574  0.0557 -0.4312  1.7860
   29SOL     vw  116   5.733   4.559   4.579 -0.0603 -0.2716  0.7403
   30SOL     ow  117   3.775   1.749   2.037 -0.1688 -0.2746  0.1131
   30SOL     hw  118   3.747   1.660   2.058  1.0687 -0.4898  0.9672
   30SOL     hw  119   3.809   1.783   2.120 -0.7856  1.0648 -0.1549
   30SOL     vw  120   3.776   1.742   2.051 -0.0870 -0.1262  0.1904
   31SOL     ow  121   6.497   4.369   7.437  0.0212 -0.4616 -0.5843
   31SOL     hw  122   6.471   4.277   7.438  1.1651 -0.8933  2.6827
   31SOL     hw  123   6.543   4.380   7.353 -1.1148 -2.5137 -1.5537
   31SOL     vw  124   6.500   4.358   7.426  0.0224 -0.7892 -0.2813
   32SOL     ow  125   5.506   7.474   2.420 -0.1565  0.3294  0.1602
   32SOL     hw  126   5.514   7.546   2.482 -1.0568 -0.4387  1.1996
   32SOL     hw  127   5.575   7.413   2.445 -2.0930 -1.1876  2.1272
   32SOL     vw  128   5.516   7.476   2.431 -0.5307  0.0279  0.5568
   33SOL     ow  129   6.899   4.219   2.250 -0.6428 -0.0151 -0.2409
   33SOL     hw  130   6.841   4.144   2.232 -1.3805  0.6778 -0.8386
   33SOL     hw  131   6.839   4.292   2.263  0.0529  0.3858  0.8403
   33SOL     vw  132   6.883   4.219   2.250 -0.6483  0.1290 -0.1771
   34SOL     ow  133   0.477   0.488   1.202 -0.9402 -0.4042 -0.4114
   34SOL     hw  134   0.430   0.546   1.262  0.1639  0.2180 -0.1242
   34SOL     hw  135   0.510   0.418   1.258  2.4619  1.5715  0.3586
   34SOL     vw  136   0.475   0.486   1.217 -0.3457 -0.0615 -0.2719
   35SOL     ow  137   0.788   0.284   4.109 -0.1138 -0.1528 -0.4744
   35SOL     hw  138   0.723   0.308   4.043 -0.7154  1.4580  0.6256
   35SOL     hw  139   0.863   0.341   4.092 -0.6044  0.8997  0.6932
   35SOL     vw  140   0.789   0.295   4.098 -0.2579  0.1986 -0.1755
   36SOL     ow  141   3.053   4.040   1.825 -0.4439  0.2764  0.3081
   36SOL     hw  142   3.100   4.068   1.903 -0.4094 -1.0773  0.7945
   36SOL     hw  143   3.122   4.019   1.762 -0.3855 -0.8411  0.7166
   36SOL     vw  144   3.068   4.041   1.827 -0.4317 -0.0496  0.4262
   37SOL     ow  145   0.053   1.698   0.724  0.4532 -0.0465 -0.2391
   37SOL     hw  146  -0.038   1.718   0.701  0.6920  0.4555 -0.8004
   37SOL     hw  147   0.104   1.737   0.653  1.0819 -0.7599 -0.1929
   37SOL     vw  148   0.048   1.706   0.711  0.5677 -0.0743 -0.3070
   38SOL     ow  149   4.930   3.509   2.033  0.1533  1.0017  0.2813
   38SOL     hw  150   4.888   3.440   1.982  0.3284 -0.5864  2.1886
   38SOL     hw  151   4.860   3.545   2.088 -0.4517  3.8912 -2.1077
   38SOL     vw  152   4.915   3.505   2.034  0.0968  1.1734  0.2178
   39SOL     ow  153   7.540   5.222   3.596 -0.3278  0.1351  0.7445
   39SOL     hw  154   7.617   5.166   3.601 -1.1443 -0.9301  1.9520
   39SOL     hw  155   7.466   5.164   3.616 -1.3301  1.3803  0.8146
   39SOL     vw  156   7.540   5.207   3.599 -0.5679  0.1588  0.9130
   40SOL     ow  157   2.534   5.377   4.108 -0.1202  0.0457  0.5631
   40SOL     hw  158   2.455   5.349   4.062 -0.4545  1.5915  0.1551
   40SOL     hw  159   2.517   5.467   4.134  2.2653  1.2033 -1.3967
   40SOL     vw  160   2.522   5.385   4.105  0.1504  0.4022  0.2506
   41SOL     ow  161   1.180   2.773   0.859  0.1255 -0.7219 -0.5798
   41SOL     hw  162   1.217   2.740   0.941 -0.0118  0.8610  0.1615
   41SOL     hw  163   1.085   2.768   0.872  0.0795  1.2341  0.1387
   41SOL     vw  164   1.172   2.768   0.872  0.1013 -0.2550 -0.3872
   42SOL     ow  165   0.121   3.717   7.249  0.0853 -0.1626 -0.3435
   42SOL     hw  166   0.032   3.751   7.264  0.3312  0.4142 -0.1514
   42SOL     hw  167   0.174   3.796   7.235  0.3684 -0.5456 -1.5630
   42SOL     vw  168   0.116   3.732   7.249  0.1551 -0.1371 -0.4792
   43SOL     ow  169   6.380   3.842   2.877 -0.7539  0.4913  0.6206
   43SOL     hw  170   6.322   3.784   2.927  0.1843  0.7319  2.0140
   43SOL     hw  171   6.411   3.787   2.805 -0.7781 -0.3880  1.2621
   43SOL     vw  172   6.376   3.827   2.874 -0.6335  0.4070  0.8891
   44SOL     ow  173   2.268   3.522   6.919 -0.1401  0.2608  0.2664
   44SOL     hw  174   2.268   3.522   7.015 -0.2964  1.9576  0.2910
   44SOL     hw  175   2.190   3.571   6.895 -0.4764 -0.7456 -0.7580
   44SOL     vw  176   2.258   3.528   6.929 -0.2052  0.3519  0.1347
   45SOL     ow  177   3.176   5.144   2.621 -0.1585 -0.1737  0.1896
   45SOL     hw  178   3.250   5.150   2.561 -0.1462 -0.1045  0.2108
   45SOL     hw  179   3.183   5.058   2.662 -0.6701 -0.5811 -0.5619
   45SOL     vw  180   3.186   5.134   2.619 -0.2242 -0.2182  0.0932
   46SOL     ow  181   0.203   4.820   6.659 -0.1812 -0.2825 -0.5472
   46SOL     hw  182   0.207   4.877   6.736 -1.1116  0.0762 -0.7502
   46SOL     hw  183   0.111   4.792   6.655 -0.0548 -0.5959 -1.3111
   46SOL     vw  184   0.191   4.824   6.669 -0.2872 -0.2763 -0.6747
   47SOL     ow  185   1.175   1.236   1.444 -0.5789 -0.1019  0.3729
   47SOL     hw  186   1.250   1.292   1.424 -1.1392  1.0560  1.4158
   47SOL     hw  187   1.203   1.148   1.417 -0.1521  0.8242 -2.5621
   47SOL     vw  188   1.188   1.232   1.437 -0.5965  0.1730  0.1233
   48SOL     ow  189   4.288   7.515   5.665 -0.5659 -0.1795  0.6117
   48SOL     hw  190   4.264   7.583   5.728 -0.4556  0.8172 -0.3779
   48SOL     hw  191   4.371   7.480   5.697 -0.0974  0.8805  0.6021
   48SOL     vw  192   4.296   7.519   5.677 -0.4895  0.0920  0.4797
   49SOL     ow  193   0.153   1.751   0.464 -0.2217  0.0072  0.2852
   49SOL     hw  194   0.163   1.689   0.391 -0.3861  0.9659 -0.5699
   49SOL     hw  195   0.102   1.823   0.428  0.4622  0.9277  1.0958
   49SOL     vw  196   0.148   1.752   0.450 -0.1532  0.2551  0.2794
   50SOL     ow  197   0.544   5.391   2.060 -0.0858  0.3771  0.1006
   50SOL     hw  198   0.593   5.330   2.116  1.4200 -0.3877 -1.8979
   50SOL     hw  199   0.455   5.356   2.059 -0.0888  0.2576  1.7469
   50SOL     vw  200   0.539   5.378   2.068  0.1125  0.2606  0.0541
   51SOL     ow  201   6.221   6.888   7.074  0.8201 -0.5517  0.0229
   51SOL     hw  202   6.237   6.810   7.126 -0.8752  0.6346  2.5296
   51SOL     hw  203   6.147   6.865   7.018  1.4505 -1.2734 -0.5197
   51SOL     vw  204   6.213   6.875   7.074  0.6797 -0.4904  0.2818
   52SOL     ow  205   2.456   5.568   7.341  0.2236 -0.3815  0.1509
   52SOL     hw  206   2.493   5.518   7.268 -3.1382 -2.3218 -0.4079
   52SOL     hw  207   2.428   5.501   7.403 -1.5186  0.9677  0.8968
   52SOL     vw  208   2.457   5.552   7.340 -0.4498 -0.4599  0.1757
   53SOL     ow  209   5.249   1.887   1.264  0.6284  0.8606  0.1262
   53SOL     hw  210   5.341   1.868   1.246  1.3188  3.5093  0.4545
   53SOL     hw  211   5.248   1.916   1.355 -1.2342 -2.8405  1.4806
   53SOL     vw  212   5.261   1.888   1.274  0.4737  0.7218  0.3483
   54SOL     ow  213   1.702   5.811   3.535  0.3755 -0.1422  0.6736
   54SOL     hw  214   1.634   5.766   3.583 -0.4309 -0.3805 -0.6469
   54SOL     hw  215   1.735   5.747   3.472 -2.0160  1.4462 -2.4773
   54SOL     vw  216   1.698   5.797   3.533 -0.0464  0.0362  0.0836
   55SOL     ow  217   5.112   6.822   5.977 -0.2264 -0.3342 -0.1088
   55SOL     hw  218   5.040   6.858   5.925 -2.2384 -2.3181  1.1563
   55SOL     hw  219   5.136   6.893   6.036 -1.3689  0.2723 -0.3421
   55SOL     vw  220   5.106   6.836   5.978 -0.6423 -0.5162  0.0274
   56SOL     ow  221   3.971   6.953   2.292 -0.1018 -0.3563  0.5599
   56SOL     hw  222   4.061   6.925   2.304 -0.7847 -1.7364  3.1062
   56SOL     hw  223   3.932   6.884   2.238  0.2204 -0.0016 -0.1416
   56SOL     vw  224   3.978   6.940   2.286 -0.1494 -0.4914  0.8031
   57SOL     ow  225   2.757   1.392   6.125 -0.5262 -0.2287 -0.3320
   57SOL     hw  226   2.825   1.459   6.136  0.0018 -1.0455  1.8761
   57SOL     hw  227   2.794   1.331   6.061  0.6792 -0.3969  0.4663
   57SOL     vw  228   2.771   1.393   6.118 -0.2977 -0.3586  0.0644
   58SOL     ow  229   1.486   3.757   6.858  0.4760  0.5597  0.3005
   58SOL     hw  230   1.430   3.687   6.825  3.6779 -2.1525  0.0756
   58SOL     hw  231   1.441   3.838   6.833 -1.2048 -1.3199 -3.6208
   58SOL     vw  232   1.473   3.758   6.851  0.6767 -0.0461 -0.2465
   59SOL     ow  233   4.312   6.094   1.758 -0.2222 -0.0082  0.3318
   59SOL     hw  234   4.307   6.015   1.705 -0.6700  0.9819 -1.1647
   59SOL     hw  235   4.255   6.077   1.832  0.3644 -1.4079  0.4991
   59SOL     vw  236   4.304   6.081   1.761 -0.2041 -0.0622  0.1563
   60SOL     ow  237   7.057   1.717   0.320 -0.1668  0.5056  0.3602
   60SOL     hw  238   7.130   1.773   0.348  2.1467 -3.1145  2.2888
   60SOL     hw  239   7.086   1.678   0.238 -1.7856  2.0107 -1.0016
   60SOL     vw  240   7.071   1.720   0.313 -0.0751  0.2266  0.4350
   61SOL     ow  241   5.613   1.398   1.128  0.3946  0.1451 -0.3903
   61SOL     hw  242   5.611   1.434   1.216  3.2061  1.3398 -0.7158
   61SOL     hw  243   5.566   1.462   1.075 -0.3991 -0.0518  0.0667
   61SOL     vw  244   5.607   1.411   1.132  0.6607  0.2767 -0.3729
   62SOL     ow  245   0.007   2.641   2.497  0.1486  0.5401 -0.3300
   62SOL     hw  246  -0.086   2.622   2.509  0.5360 -0.1057  1.9037
   62SOL     hw  247   0.015   2.661   2.403 -1.7101 -2.2985 -1.2038
   62SOL     vw  248  -0.004   2.641   2.486 -0.0455  0.0803 -0.1504
   63SOL     ow  249   4.540   4.433   7.394  0.6825  1.2253 -0.1426
   63SOL     hw  250   4.495   4.424   7.478  1.9590  1.6315  0.6116
   63SOL     hw  251   4.589   4.352   7.383  1.5250  1.6729  0.1506
   63SOL     vw  252   4.541   4.421   7.404  0.9623  1.3382 -0.0045
   64SOL     ow  253   4.507   2.303   2.827 -0.1655 -0.2036  0.9857
   64SOL     hw  254   4.550   2.255   2.755 -0.4409  1.9357 -0.6894
   64SOL     hw  255   4.439   2.243   2.858 -0.4190 -0.9840 -0.9309
   64SOL     vw  256   4.504   2.288   2.821 -0.2351 -0.0242  0.5119
   65SOL     ow  257   1.063   3.220   4.911 -0.0040 -0.7085  0.0906
   65SOL     hw  258   1.107   3.293   4.868 -3.7831  1.3199 -0.8267
   65SOL     hw  259   1.056   3.153   4.844  0.6000 -0.5772 -0.1077
   65SOL     vw  260   1.068   3.221   4.897 -0.4230 -0.4236 -0.0565
   66SOL     ow  261   5.754   0.641   2.260 -0.3401 -0.1005 -0.5006
   66SOL     hw  262   5.814   0.581   2.217  1.1145  0.8152  0.1617
   66SOL     hw  263   5.759   0.721   2.208  1.3901  0.9985  1.2046
   66SOL     vw  264   5.763   0.644   2.248  0.0801  0.1653 -0.1881
   67SOL     ow  265   2.973   6.661   0.344  0.2503 -0.1464  0.2817
   67SOL     hw  266   2.920   6.735   0.316  1.8255  1.3194  1.0060
   67SOL     hw  267   2.959   6.656   0.439  1.6065  0.4579  0.5316
   67SOL     vw  268   2.964   6.670   0.353  0.6372  0.1266  0.4102
   68SOL     ow  269   0.382   4.990   2.036 -0.4332 -0.0432 -0.2064
   68SOL     hw  270   0.350   5.030   1.956  1.9500 -0.5304 -1.4892
   68SOL     hw  271   0.477   4.997   2.031 -0.1695  1.0425  3.2035
   68SOL     vw  272   0.390   4.996   2.025 -0.0840  0.0358  0.0743
   69SOL     ow  273   5.006   3.922   0.778 -0.1941 -0.3155  0.2050
   69SOL     hw  274   4.962   4.003   0.753 -2.2153 -1.2008  0.6891
   69SOL     hw  275   4.948   3.882   0.842  0.7775 -2.1400  0.0069
   69SOL     vw  276   4.993   3.927   0.783 -0.3324 -0.6731  0.2427
   70SOL     ow  277   2.917   1.290   2.568  0.1624 -0.8522  0.7627
   70SOL     hw  278   3.005   1.328   2.573 -0.3772  0.9669 -1.8744
   70SOL     hw  279   2.858   1.363   2.585 -0.8686 -0.7869 -2.4734
   70SOL     vw  280   2.921   1.305   2.571 -0.0449 -0.6036 -0.0120
   71SOL     ow  281   2.251   1.366   6.580  0.2101 -0.4965 -0.6099
   71SOL     hw  282   2.318   1.433   6.569 -0.7308  0.8828  1.3604
   71SOL     hw  283   2.211   1.386   6.665 -1.6230 -2.2222 -0.9841
   71SOL     vw  284   2.255   1.378   6.590 -0.1559 -0.5422 -0.3991
   72SOL     ow  285   7.627   4.806   1.041 -0.4858 -0.7422  0.1093
   72SOL     hw  286   7.577   4.727   1.061 -0.7883 -0.6688 -0.3339
   72SOL     hw  287   7.585   4.874   1.094 -2.4800 -0.1574 -2.0480
   72SOL     vw  288   7.615   4.805   1.051 -0.7888 -0.6554 -0.2338
   73SOL     ow  289   3.916   2.556   0.987 -0.5665 -0.2670 -0.0238
   73SOL     hw  290   3.956   2.513   0.911 -2.2641  0.5325 -1.4755
   73SOL     hw  291   3.877   2.636   0.950 -2.5462 -0.4883  1.4258
   73SOL     vw  292   3.916   2.561   0.972 -1.0518 -0.1907 -0.0241
   74SOL     ow  293   3.054   7.210   7.621 -0.0642 -0.0817  0.4836
   74SOL     hw  294   2.979   7.191   7.564 -1.1828  0.7728  1.6024
   74SOL     hw  295   3.044   7.303   7.643  0.8160 -0.1859  1.3772
   74SOL     vw  296   3.043   7.220   7.617 -0.0957  0.0174  0.7491
   75SOL     ow  297   4.178   1.803   6.823 -0.1788  0.3911 -0.2441
   75SOL     hw  298   4.191   1.710   6.803  1.4684  0.2336  1.2751
   75SOL     hw  299   4.129   1.803   6.905  1.2822  0.7619  0.6863
   75SOL     vw  300   4.174   1.791   6.831  0.2313  0.4193  0.0789
   76SOL     ow  301   1.501   1.905   7.526  0.2604  0.0846 -0.1113
   76SOL     hw  302   1.531   1.894   7.436  0.9949 -0.8691  0.2291
   76SOL     hw  303   1.473   1.996   7.531  0.7317  0.3045 -1.1504
   76SOL     vw  304   1.502   1.916   7.515  0.4194 -0.0122 -0.2036
   77SOL     ow  305   2.237   2.104   5.813 -0.3676  0.1250 -0.3636
   77SOL     hw  306   2.236   2.177   5.751  0.5010  1.2788  0.9124
   77SOL     hw  307   2.329   2.084   5.826 -0.4341  0.8599  1.5876
   77SOL     vw  308   2.249   2.111   5.806 -0.2619  0.3743  0.0620
   78SOL     ow  309   4.128   0.035   4.930  0.0903  0.6913  0.3147
   78SOL     hw  310   4.090   0.094   4.995  2.8656  0.8860  1.8920
   78SOL     hw  311   4.148  -0.045   4.979  0.5499  0.1302 -0.7498
   78SOL     vw  312   4.126   0.032   4.945  0.5171  0.6429  0.3824
   79SOL     ow  313   4.370   1.815   5.511 -0.8630  0.4682 -0.0108
   79SOL     hw  314   4.370   1.807   5.606  2.2256 -4.0082 -0.0476
   79SOL     hw  315   4.317   1.741   5.480 -1.3279  1.4775 -1.7918
   79SOL     vw  316   4.363   1.804   5.519 -0.5169  0.0108 -0.2508
   80SOL     ow  317   1.361   5.526   4.233  0.4838  0.2626 -0.1941
   80SOL     hw  318   1.364   5.618   4.206 -1.7524  0.1458 -1.0024
   80SOL     hw  319   1.387   5.477   4.156  0.1997  0.1648 -0.2289
   80SOL     vw  320   1.365   5.532   4.219  0.1513  0.2341 -0.3054
   81SOL     ow  321   4.093   0.172   4.618  0.5426 -0.3015 -0.2153
   81SOL     hw  322   4.152   0.177   4.543 -2.4115  0.5448 -2.6976
   81SOL     hw  323   4.045   0.255   4.616 -2.3174 -1.8205  0.1529
   81SOL     vw  324   4.094   0.183   4.608 -0.2248 -0.3902 -0.4945
   82SOL     ow  325   1.611   2.688   7.002  0.3003 -1.0394  0.0140
   82SOL     hw  326   1.557   2.609   7.000  0.4508 -1.1307 -0.4563
   82SOL     hw  327   1.692   2.660   7.046  0.7374 -1.3954 -0.9926
   82SOL     vw  328   1.615   2.674   7.008  0.3778 -1.0985 -0.1807
   83SOL     ow  329   0.648   2.952   2.095  0.0264  0.0458 -0.3879
   83SOL     hw  330   0.577   2.902   2.055  0.8066  0.4350 -2.3789
   83SOL     hw  331   0.720   2.890   2.102 -1.1786 -1.2835  4.4566
   83SOL     vw  332   0.648   2.937   2.091 -0.0297 -0.0782 -0.0114
   84SOL     ow  333   4.711   2.465   1.002  0.0216  0.0799 -0.4334
   84SOL     hw  334   4.753   2.551   1.004  1.0150 -0.3156  2.8600
   84SOL     hw  335   4.653   2.465   1.079 -2.2635 -1.1865 -2.0341
   84SOL     vw  336   4.709   2.476   1.013 -0.1490 -0.1395 -0.2100
   85SOL     ow  337   6.455   7.616   0.329  0.2999  0.0555  0.4778
   85SOL     hw  338   6.494   7.681   0.388 -0.2397  0.2712  0.6080
   85SOL     hw  339   6.376   7.659   0.297  0.2328 -0.3293  0.1291
   85SOL     vw  340   6.450   7.630   0.333  0.2201  0.0332  0.4489
   86SOL     ow  341   3.642   5.693   3.311  0.1729  0.4824  0.5087
   86SOL     hw  342   3.672   5.783   3.330  1.1088  0.3687 -0.3613
   86SOL     hw  343   3.628   5.655   3.398 -4.8933  2.8625  1.0867
   86SOL     vw  344   3.644   5.700   3.325 -0.3721  0.7813  0.4702
   87SOL     ow  345   0.269   3.819   3.806 -0.5682  0.0340  0.6732
   87SOL     hw  346   0.335   3.815   3.737  0.0714  1.5818  1.1471
   87SOL     hw  347   0.319   3.822   3.887 -1.2334  0.4824  1.0802
   87SOL     vw  348   0.284   3.819   3.807 -0.5715  0.2973  0.7895
   88SOL     ow  349   2.879   1.756   5.212 -0.2107 -0.1662  0.3854
   88SOL     hw  350   2.800   1.796   5.176 -0.5049  0.3202  1.5397
   88SOL     hw  351   2.900   1.809   5.289  1.6829  0.1863 -0.3266
   88SOL     vw  352   2.872   1.769   5.217  0.0004 -0.0555  0.4437
   89SOL     ow  353   4.397   5.808   6.132  0.3820  0.3331 -0.5932
   89SOL     hw  354   4.391   5.886   6.076  1.0428  1.0014  0.2203
   89SOL     hw  355   4.420   5.843   6.218 -0.3934 -0.6850  0.0493
   89SOL     vw  356   4.399   5.823   6.136  0.3667  0.2868 -0.4013
   90SOL     ow  357   6.334   3.252   4.134  0.2368 -0.1777  0.5356
   90SOL     hw  358   6.281   3.318   4.089  0.6421  0.9854  1.6945
   90SOL     hw  359   6.388   3.213   4.065 -0.1888  0.5249 -0.2073
   90SOL     vw  360   6.334   3.255   4.119  0.2341  0.0685  0.5903
   91SOL     ow  361   0.390   0.429   6.317 -0.2972 -0.2790  0.6320
   91SOL     hw  362   0.350   0.343   6.304 -1.1666  0.3886 -1.6653
   91SOL     hw  363   0.329   0.474   6.375 -0.7928 -0.6312  0.4052
   91SOL     vw  364   0.376   0.423   6.323 -0.4773 -0.2374  0.2990
   92SOL     ow  365   6.928   2.286   1.905 -0.1361  0.0040 -0.3553
   92SOL     hw  366   6.986   2.256   1.835 -0.9014  1.4245 -1.6712
   92SOL     hw  367   6.974   2.262   1.986  1.7310  0.0521 -1.3332
   92SOL     vw  368   6.942   2.279   1.906  0.0091  0.1976 -0.6580
   93SOL     ow  369   3.079   5.755   3.104  0.0525  0.4790  0.0222
   93SOL     hw  370   3.036   5.823   3.155 -0.1847 -1.2853  2.3861
   93SOL     hw  371   3.161   5.738   3.151 -0.6546 -1.9368  0.5329
   93SOL     vw  372   3.085   5.762   3.117 -0.0721 -0.0722  0.4015
   94SOL     ow  373   5.542   2.151   4.793 -0.3789 -0.1141  1.0021
   94SOL     hw  374   5.589   2.191   4.867 -0.9225 -2.1533  2.5374
   94SOL     hw  375   5.585   2.067   4.779 -1.7898 -0.8100  0.6083
   94SOL     vw  376   5.554   2.146   4.801 -0.6371 -0.4749  1.1525
   95SOL     ow  377   6.833   7.184   4.253 -0.2630  0.0938 -0.0593
   95SOL     hw  378   6.922   7.147   4.255  0.5654  2.0130  1.0580
   95SOL     hw  379   6.817   7.204   4.161  1.8057  2.6592  0.0321
   95SOL     vw  380   6.843   7.182   4.241  0.1190  0.6855  0.1004
   96SOL     ow  381   4.816   3.911   3.624 -0.2111 -0.2589  0.2235
   96SOL     hw  382   4.853   3.922   3.536 -2.9995 -1.1956 -1.1914
   96SOL     hw  383   4.754   3.983   3.634  0.8745  0.5118  1.9779
   96SOL     vw  384   4.813   3.922   3.614 -0.4358 -0.2809  0.2683
   97SOL     ow  385   2.816   3.236   2.894  0.1068 -0.2507 -1.0311
   97SOL     hw  386   2.824   3.318   2.942 -1.5039 -0.7845  0.2646
   97SOL     hw  387   2.757   3.257   2.821 -0.8465 -0.3548 -0.3215
   97SOL     vw  388   2.809   3.249   2.891 -0.2315 -0.3347 -0.7665
   98SOL     ow  389   6.135   5.798   4.722  0.2457 -0.1918  0.0758
   98SOL     hw  390   6.195   5.872   4.732  0.2087 -0.4104  2.4970
   98SOL     hw  391   6.172   5.746   4.650  2.6015  0.0253  1.0503
   98SOL     vw  392   6.148   5.801   4.713  0.5517 -0.1919  0.5240
   99SOL     ow  393   2.228   3.964   3.687  0.8565 -0.0081 -0.1514
   99SOL     hw  394   2.272   4.049   3.692  0.8704  0.0968 -1.6221
   99SOL     hw  395   2.270   3.920   3.613  1.2350 -1.5380  0.9296
   99SOL     vw  396   2.239   3.970   3.678  0.9083 -0.1960 -0.2028
  100SOL     ow  397   1.760   1.122   2.497 -0.5563  0.3329  0.1460
  100SOL     hw  398   1.836   1.081   2.455  0.1167  1.6057  0.0635
  100SOL     hw  399   1.773   1.105   2.590 -0.5761 -0.1099  0.0694
  100SOL     vw  400   1.772   1.114   2.504 -0.4702  0.4424  0.1252
  101SOL     ow  401   5.805   0.684   7.109 -0.0092 -0.0101 -0.7446
  101SOL     hw  402   5.852   0.613   7.152 -2.7637 -1.7012 -0.2858
  101SOL     hw  403   5.749   0.721   7.177  1.1763  2.5218 -1.0400
  101SOL     vw  404   5.804   0.679   7.123 -0.2160  0.1008 -0.7231
  102SOL     ow  405   2.170   3.285   0.930 -0.8897  0.4824 -0.7385
  102SOL     hw  406   2.202   3.209   0.978  1.6905 -0.3300 -3.4190
  102SOL     hw  407   2.093   3.252   0.882 -0.4770 -0.1502 -0.9858
  102SOL     vw  408   2.164   3.271   0.930 -0.4948  0.2916 -1.1247
  103SOL     ow  409   6.685   6.994   3.781 -0.2867 -0.0460  0.1472
  103SOL     hw  410   6.671   6.967   3.690 -1.7672  0.5474  0.1719
  103SOL     hw  411   6.603   7.036   3.807  0.3313  0.3598  1.5663
  103SOL     vw  412   6.672   6.996   3.773 -0.4008  0.0861  0.3377
  104SOL     ow  413   0.757   3.104   4.961 -0.2208 -0.3151 -0.5614
  104SOL     hw  414   0.690   3.091   4.893 -0.2236 -2.7410 -0.1991
  104SOL     hw  415   0.728   3.048   5.033 -0.1702  2.1194  1.4684
  104SOL     vw  416   0.744   3.095   4.962 -0.2145 -0.3140 -0.2458
  105SOL     ow  417   3.364   2.597   4.950 -0.0156  0.0445 -1.0013
  105SOL     hw  418   3.351   2.580   5.043  0.6489  0.3889 -0.8368
  105SOL     hw  419   3.460   2.597   4.939  0.0298  2.7169 -1.1463
  105SOL     vw  420   3.375   2.595   4.961  0.0780  0.4426 -0.9987
  106SOL     ow  421   4.457   2.139   5.488  0.2732 -0.0826  0.0822
  106SOL     hw  422   4.541   2.184   5.494  0.8809 -1.2607  0.7676
  106SOL     hw  423   4.407   2.171   5.563 -0.5489  1.8305 -1.1996
  106SOL     vw  424   4.462   2.149   5.499  0.2449  0.0144  0.0036
  107SOL     ow  425   3.409   1.682   2.816  0.3483  0.0106 -0.0695
  107SOL     hw  426   3.330   1.734   2.832  1.1127  1.8436 -1.8805
  107SOL     hw  427   3.481   1.745   2.824  1.3863 -0.9647 -1.3917
  107SOL     vw  428   3.408   1.697   2.819  0.5860  0.1237 -0.4829
  108SOL     ow  429   3.406   3.004   3.260 -1.0701  0.2232 -0.0565
  108SOL     hw  430   3.418   3.019   3.354 -0.1399  0.4996 -0.2094
  108SOL     hw  431   3.493   2.983   3.228 -1.5094 -0.6319 -0.7336
  108SOL     vw  432   3.419   3.003   3.268 -1.0053  0.1469 -0.1661
  109SOL     ow  433   1.558   1.348   2.963  0.4382 -0.4845 -0.4470
  109SOL     hw  434   1.561   1.253   2.948 -1.5730 -1.2738  2.9091
  109SOL     hw  435   1.648   1.372   2.981  0.9194 -1.9004 -0.8173
  109SOL     vw  436   1.570   1.339   2.964  0.2364 -0.7755 -0.0530
  110SOL     ow  437   1.507   5.787   0.349  0.0227 -1.2815 -0.5810
  110SOL     hw  438   1.595   5.800   0.385  0.2186 -3.7866  0.0508
  110SOL     hw  439   1.517   5.801   0.255  1.2378 -1.9684 -0.5753
  110SOL     vw  440   1.520   5.791   0.342  0.2089 -1.7028 -0.4969
  111SOL     ow  441   2.895   0.337   0.807  0.0727  0.6340  0.1234
  111SOL     hw  442   2.929   0.278   0.874 -0.1937  1.6753  1.2048
  111SOL     hw  443   2.955   0.325   0.733 -0.0656 -1.0843  0.2507
  111SOL     vw  444   2.908   0.327   0.806  0.0193  0.5447  0.2829
  112SOL     ow  445   0.142   5.336   3.256  0.0927  0.7060  0.3851
  112SOL     hw  446   0.131   5.241   3.255 -0.3139  0.7517 -0.4944
  112SOL     hw  447   0.085   5.367   3.185 -0.0326  1.6335  0.8887
  112SOL     vw  448   0.133   5.327   3.246  0.0225  0.8345  0.3355
  113SOL     ow  449   7.372   4.400   2.281  0.2784 -0.0959 -0.3626
  113SOL     hw  450   7.458   4.399   2.238  0.1484  1.0878 -0.6718
  113SOL     hw  451   7.352   4.492   2.292 -1.1325 -0.3504 -0.6334
  113SOL     vw  452   7.381   4.412   2.277  0.0751  0.0269 -0.4392
  114SOL     ow  453   5.325   2.294   3.370  0.1809 -0.9100 -0.1243
  114SOL     hw  454   5.255   2.246   3.327 -0.0547  0.6487 -1.6036
  114SOL     hw  455   5.280   2.353   3.431  0.1754 -0.0736 -0.9072
  114SOL     vw  456   5.310   2.296   3.372  0.1493 -0.5940 -0.4228
  115SOL     ow  457   0.656   5.424   1.838 -0.4565  0.1672  0.2341
  115SOL     hw  458   0.618   5.397   1.922 -0.5034 -2.3151 -0.4860
  115SOL     hw  459   0.583   5.417   1.776 -0.3512  1.6880 -0.0878
  115SOL     vw  460   0.641   5.419   1.841 -0.4488  0.0403  0.0967
  116SOL     ow  461   5.740   1.610   7.566  0.1729 -0.0995  0.8793
  116SOL     hw  462   5.681   1.654   7.504  2.7790  0.8441 -1.0997
  116SOL     hw  463   5.726   1.657   7.648 -0.4647  1.3673 -0.0217
  116SOL     vw  464   5.730   1.622   7.568  0.4327  0.2185  0.4995
  117SOL     ow  465   1.852   4.513   3.793 -0.1680 -0.1167 -0.5027
  117SOL     hw  466   1.929   4.455   3.792 -0.9797 -1.2175 -0.2760
  117SOL     hw  467   1.781   4.458   3.824 -0.9196  1.0801 -0.0377
  117SOL     vw  468   1.853   4.498   3.797 -0.3742 -0.1042 -0.4113
  118SOL     ow  469   0.619   4.920   5.912 -0.2337  0.1022 -0.0166
  118SOL     hw  470   0.582   4.998   5.952 -2.9083 -1.4145  0.7749
  118SOL     hw  471   0.713   4.926   5.927 -0.4417  2.8007  0.5727
  118SOL     vw  472   0.627   4.931   5.919 -0.6140  0.2580  0.1655
  119SOL     ow  473   2.639   0.965   6.469 -0.0617 -0.5790 -0.3239
  119SOL     hw  474   2.584   0.905   6.419 -2.2314 -0.1518  1.3647
  119SOL     hw  475   2.646   0.925   6.556 -1.8308  1.6324  0.9501
  119SOL     vw  476   2.633   0.952   6.474 -0.5814 -0.2309  0.0670
  120SOL     ow  477   4.255   7.521   4.697  0.1537 -0.1996  0.2916
  120SOL     hw  478   4.344   7.521   4.661  0.5162  0.9258  1.1151
  120SOL     hw  479   4.201   7.485   4.627  0.9566  1.1371 -1.0766
  120SOL     vw  480   4.260   7.516   4.683  0.3073  0.1249  0.2198
  121SOL     ow  481   2.281   5.211   2.016 -0.0049  0.4892 -0.5192
  121SOL     hw  482   2.331   5.131   2.037 -0.0387  0.3339 -1.0051
  121SOL     hw  483   2.195   5.179   1.989  0.0880  0.6663 -1.0381
  121SOL     vw  484   2.277   5.196   2.015  0.0029  0.4921 -0.6518
  122SOL     ow  485   1.582   5.926   5.412  0.7268 -0.2906 -0.6134
  122SOL     hw  486   1.615   5.899   5.326 -2.0011  0.1044 -1.8876
  122SOL     hw  487   1.568   6.020   5.403  0.2623 -0.2743  0.2263
  122SOL     vw  488   1.584   5.935   5.399  0.3056 -0.2365 -0.6707
  123SOL     ow  489   6.011   3.715   1.642  0.2805 -0.1719  0.1807
  123SOL     hw  490   6.060   3.717   1.559 -0.7621 -0.2302 -0.4523
  123SOL     hw  491   5.989   3.623   1.655 -1.2552  0.0621 -0.5247
  123SOL     vw  492   6.015   3.703   1.633 -0.0598 -0.1487  0.0042
  124SOL     ow  493   6.941   0.545   1.619 -0.2348  0.3269  0.2795
  124SOL     hw  494   6.846   0.555   1.609 -0.4842 -0.6275  1.4882
  124SOL     hw  495   6.955   0.542   1.713  0.7179 -1.6392  0.1352
  124SOL     vw  496   6.930   0.546   1.630 -0.1421 -0.0584  0.4200
  125SOL     ow  497   2.621   2.042   7.467 -0.2232  0.5697 -0.5978
  125SOL     hw  498   2.716   2.048   7.461  0.0215 -1.9602 -0.2610
  125SOL     hw  499   2.595   1.997   7.387 -0.6362 -2.2104  0.9506
  125SOL     vw  500   2.630   2.037   7.456 -0.2455 -0.1308 -0.3490
  126SOL     ow  501   2.068   2.218   5.409 -0.2045 -0.4706  0.2283
  126SOL     hw  502   2.154   2.198   5.372 -0.1793 -0.8306  0.4805
  126SOL     hw  503   2.086   2.254   5.496 -0.2766  0.1579 -0.0066
  126SOL     vw  504   2.081   2.220   5.415 -0.2105 -0.4352  0.2303
  127SOL     ow  505   1.466   5.709   2.639  0.2169 -1.0216  0.0945
  127SOL     hw  506   1.513   5.793   2.647 -0.0816 -0.9424  1.1567
  127SOL     hw  507   1.379   5.727   2.674  0.5543 -2.0853  1.6015
  127SOL     vw  508   1.461   5.723   2.645  0.2221 -1.1516  0.4336
  128SOL     ow  509   1.755   2.310   2.494  0.0694  0.1507  0.4110
  128SOL     hw  510   1.799   2.243   2.442  0.0132 -0.6278  1.3392
  128SOL     hw  511   1.737   2.380   2.432  1.8491  0.1428 -0.1778
  128SOL     vw  512   1.758   2.310   2.479  0.2968  0.0471  0.4557
  129SOL     ow  513   5.193   3.227   3.012 -1.0737 -0.0914 -0.0749
  129SOL     hw  514   5.109   3.268   2.994 -1.0485  0.2684  0.6036
  129SOL     hw  515   5.251   3.300   3.033 -0.7586 -0.3882  0.0916
  129SOL     vw  516   5.190   3.242   3.013 -1.0290 -0.0831  0.0366
  130SOL     ow  517   7.033   5.551   1.975  0.3534  0.0542 -0.3107
  130SOL     hw  518   6.979   5.606   1.919 -0.3716 -1.5224 -1.2326
  130SOL     hw  519   7.122   5.583   1.961  0.1426 -0.0025 -2.0638
  130SOL     vw  520   7.038   5.562   1.966  0.2301 -0.1609 -0.6636
  131SOL     ow  521   3.957   6.915   3.297  0.2804 -0.1692  0.3478
  131SOL     hw  522   3.933   6.988   3.239 -0.4420 -1.5000 -1.0854
  131SOL     hw  523   3.958   6.838   3.240  0.3239 -1.4134  1.9574
  131SOL     vw  524   3.954   6.915   3.282  0.1907 -0.5090  0.3711
  132SOL     ow  525   0.892   5.092   0.957  0.7443 -0.3790 -0.0057
  132SOL     hw  526   0.824   5.077   0.891 -1.8004  0.4012  2.2909
  132SOL     hw  527   0.918   5.184   0.944 -0.5181  0.0950  0.7019
  132SOL     vw  528   0.887   5.102   0.946  0.2420 -0.2136  0.3907
  133SOL     ow  529   7.026   0.578   0.422  0.1639  0.2842  0.1137
  133SOL     hw  530   7.029   0.513   0.352 -0.2264 -0.1082  0.4499
  133SOL     hw  531   6.938   0.568   0.460 -0.7207  2.4416 -1.1695
  133SOL     vw  532   7.015   0.568   0.418 -0.0045  0.5171 -0.0113
  134SOL     ow  533   2.566   5.256   2.503  0.3854 -0.5584 -0.8183
  134SOL     hw  534   2.483   5.305   2.500 -0.4426 -1.9071 -1.0551
  134SOL     hw  535   2.623   5.309   2.559 -0.5920  0.4678 -0.7412
  134SOL     vw  536   2.562   5.269   2.510  0.1472 -0.6008 -0.8394
  135SOL     ow  537   7.287   7.315   0.404  0.0551 -0.2823  0.5101
  135SOL     hw  538   7.215   7.377   0.413 -0.2693 -0.3770 -1.1138
  135SOL     hw  539   7.244   7.229   0.402  0.2028 -0.3448 -0.3623
  135SOL     vw  540   7.272   7.312   0.405  0.0319 -0.3028  0.1808
  136SOL     ow  541   3.309   5.309   7.337  0.3835 -0.4918 -0.2514
  136SOL     hw  542   3.374   5.265   7.283  1.2602 -0.3710  0.6647
  136SOL     hw  543   3.310   5.260   7.420  0.9412  0.8544  0.5648
  136SOL     vw  544   3.317   5.297   7.341  0.5727 -0.2980 -0.0229
  137SOL     ow  545   0.932   2.304   7.167  0.1950  0.0645 -0.4709
  137SOL     hw  546   1.017   2.260   7.160  0.8293  1.1308  0.3831
  137SOL     hw  547   0.882   2.248   7.226  0.3962 -0.3994 -0.7252
  137SOL     vw  548   0.937   2.291   7.174  0.3053  0.1441 -0.3917
  138SOL     ow  549   4.665   6.646   6.287  0.0390  0.4969 -0.2484
  138SOL     hw  550   4.695   6.648   6.196  0.0132  2.7737 -0.2603
  138SOL     hw  551   4.609   6.723   6.295  0.8238  0.8773  1.9718
  138SOL     vw  552   4.661   6.656   6.276  0.1392  0.8476  0.0429
  139SOL     ow  553   7.584   3.511   6.638  0.4793 -0.2525  0.2033
  139SOL     hw  554   7.670   3.504   6.680  1.0119 -3.3780 -1.1508
  139SOL     hw  555   7.542   3.585   6.682  2.7587 -0.4050  2.9317
  139SOL     vw  556   7.590   3.520   6.650  0.8502 -0.6851  0.3846
  140SOL     ow  557   0.362   4.690   1.240 -0.5766  0.3081 -0.3150
  140SOL     hw  558   0.449   4.670   1.273 -0.9686 -1.2468 -0.1163
  140SOL     hw  559   0.312   4.717   1.317 -0.7090 -0.4455 -0.1320
  140SOL     vw  560   0.367   4.691   1.254 -0.6458  0.0036 -0.2646
  141SOL     ow  561   3.465   3.266   1.617 -0.6745 -0.3476 -0.3321
  141SOL     hw  562   3.401   3.271   1.545 -1.7662  0.2100  0.6404
  141SOL     hw  563   3.527   3.199   1.589 -1.1805 -0.2843 -1.7057
  141SOL     vw  564   3.465   3.258   1.604 -0.8852 -0.2656 -0.3850
  142SOL     ow  565   1.864   1.972   2.956 -0.5704  0.4155 -0.8283
  142SOL     hw  566   1.803   1.954   3.027 -2.7417  0.7144 -2.5002
  142SOL     hw  567   1.916   1.892   2.948 -1.4558 -0.2660 -0.0183
  142SOL     vw  568   1.863   1.959   2.964 -0.9738  0.3649 -0.9420
  143SOL     ow  569   6.758   5.791   7.544 -0.5911 -0.3429  0.0773
  143SOL     hw  570   6.755   5.786   7.640  0.0472  0.3432  0.1440
  143SOL     hw  571   6.669   5.768   7.516 -0.7778 -0.5626  0.8352
  143SOL     vw  572   6.746   5.788   7.553 -0.5314 -0.2813  0.1862
  144SOL     ow  573   0.605   0.659   1.396 -0.3727  0.2299 -0.1448
  144SOL     hw  574   0.639   0.734   1.346 -0.4257  1.2809  1.3186
  144SOL     hw  575   0.640   0.583   1.351  1.0136  1.1820 -0.7654
  144SOL     vw  576   0.614   0.659   1.384 -0.1968  0.4941 -0.0336
  145SOL     ow  577   2.143   0.944   0.785 -0.3996 -0.0588 -0.9281
  145SOL     hw  578   2.199   0.875   0.820 -1.3469 -0.7285 -0.6983
  145SOL     hw  579   2.195   1.024   0.794 -0.2068 -0.3698  0.9998
  145SOL     vw  580   2.157   0.945   0.791 -0.4992 -0.1882 -0.6434
  146SOL     ow  581   0.270   1.710   2.619  0.1261 -0.7708 -0.5074
  146SOL     hw  582   0.297   1.714   2.527  0.2580 -0.6381 -0.4642
  146SOL     hw  583   0.236   1.621   2.630  0.8812 -1.0641 -0.4735
  146SOL     vw  584   0.269   1.699   2.608  0.2431 -0.7921 -0.4971
  147SOL     ow  585   0.798   4.548   3.350 -0.0192  0.5007  0.2354
  147SOL     hw  586   0.867   4.534   3.415 -0.5851 -0.6542  0.6129
  147SOL     hw  587   0.817   4.484   3.281  1.3360  2.5657 -1.4524
  147SOL     vw  588   0.810   4.538   3.350  0.0849  0.6208  0.0625
  148SOL     ow  589   1.216   3.575   4.191  0.4976  0.5077 -0.5714
  148SOL     hw  590   1.123   3.598   4.203  0.2711 -0.1995 -0.9199
  148SOL     hw  591   1.253   3.652   4.148  0.4198  1.4030  0.8958
  148SOL     vw  592   1.209   3.588   4.187  0.4575  0.5326 -0.4239
  149SOL     ow  593   0.820   2.004   6.967 -0.2342  0.1518  0.4814
  149SOL     hw  594   0.748   2.043   7.015 -0.0896  0.3481  0.5414
  149SOL     hw  595   0.790   2.002   6.876  1.0731  3.7205 -0.1909
  149SOL     vw  596   0.807   2.009   6.961 -0.0427  0.6486  0.4003
  150SOL     ow  597   7.338   2.898   1.051 -0.0965  0.0498  0.5707
  150SOL     hw  598   7.430   2.923   1.067  0.0881 -0.4237  0.2675
  150SOL     hw  599   7.291   2.982   1.048  0.6248  0.4403 -1.1575
  150SOL     vw  600   7.344   2.913   1.053  0.0231  0.0389  0.3027
  151SOL     ow  601   7.400   5.007   0.078 -0.4626  0.5771  0.7626
  151SOL     hw  602   7.402   4.954  -0.002 -1.3517  2.0340 -0.2788
  151SOL     hw  603   7.409   4.943   0.149  2.8839 -0.5755 -0.4896
  151SOL     vw  604   7.401   4.991   0.077 -0.1385  0.6173  0.4600
  152SOL     ow  605   1.452   0.484   7.160  0.8026  0.0293  0.5711
  152SOL     hw  606   1.418   0.491   7.071  0.5184 -0.1159  0.6685
  152SOL     hw  607   1.426   0.397   7.190  1.8682 -0.3725  0.3999
  152SOL     vw  608   1.444   0.474   7.152  0.9056 -0.0429  0.5615
  153SOL     ow  609   3.374   6.918   4.406  0.3110  0.2952  0.2610
  153SOL     hw  610   3.433   6.957   4.471  1.6044  0.6876 -1.0908
  153SOL     hw  611   3.312   6.988   4.384 -0.2513  0.0997  1.1917
  153SOL     vw  612   3.374   6.932   4.412  0.4075  0.3214  0.2055
  154SOL     ow  613   2.704   4.660   3.891  0.1220 -0.2327  0.1868
  154SOL     hw  614   2.736   4.581   3.848  0.0829 -0.1900  0.0793
  154SOL     hw  615   2.618   4.675   3.852 -0.5087 -0.9698  1.2391
  154SOL     vw  616   2.697   4.652   3.880  0.0336 -0.3245  0.3114
  155SOL     ow  617   2.078   2.086   3.417 -0.3996 -0.2281  1.1434
  155SOL     hw  618   2.083   1.994   3.393  4.3725 -0.3798  1.7208
  155SOL     hw  619   2.057   2.132   3.335  0.2934 -1.6623  0.1225
  155SOL     vw  620   2.076   2.080   3.403  0.3214 -0.4373  1.0849
  156SOL     ow  621   5.687   3.225   2.885  0.4069 -0.0641 -0.3413
  156SOL     hw  622   5.756   3.205   2.822 -0.5623 -0.4521 -1.3063
  156SOL     hw  623   5.607   3.192   2.844 -0.1963 -0.6533  1.2712
  156SOL     vw  624   5.686   3.218   2.871  0.1993 -0.1930 -0.2558
  157SOL     ow  625   0.730   2.567   6.034  0.5322 -0.2923  0.7720
  157SOL     hw  626   0.748   2.475   6.017 -2.1056 -0.6368 -0.6686
  157SOL     hw  627   0.640   2.580   6.005  0.3202  2.4249  2.2724
  157SOL     vw  628   0.721   2.557   6.028  0.1562  0.0207  0.7799
  158SOL     ow  629   4.632   6.498   6.987 -0.3625 -0.1259 -0.0780
  158SOL     hw  630   4.599   6.409   6.986 -0.1992 -0.1885 -1.0067
  158SOL     hw  631   4.618   6.528   7.077  3.4803 -2.5135  1.5830
  158SOL     vw  632   4.626   6.490   6.999  0.1659 -0.4492  0.0186
  159SOL     ow  633   5.109   2.408   0.134 -0.4310 -0.1993 -0.1739
  159SOL     hw  634   5.190   2.403   0.184 -0.9493  0.0888  0.7043
  159SOL     hw  635   5.056   2.474   0.179 -1.9676 -1.7873  0.4754
  159SOL     vw  636   5.113   2.416   0.146 -0.7021 -0.3707  0.0277
  160SOL     ow  637   3.470   4.996   2.567 -0.1777 -0.4506  0.1992
  160SOL     hw  638   3.522   5.023   2.643 -0.0248 -0.2002  0.0075
  160SOL     hw  639   3.527   5.012   2.492 -0.8946  0.8234 -0.1131
  160SOL     vw  640   3.485   5.002   2.567 -0.2521 -0.2496  0.1327
  161SOL     ow  641   1.269   3.950   1.773 -0.5034 -0.5448 -0.4004
  161SOL     hw  642   1.363   3.952   1.756  0.0661 -0.2914  2.2998
  161SOL     hw  643   1.246   3.857   1.767 -0.2160 -0.5430 -1.6476
  161SOL     vw  644   1.278   3.938   1.770 -0.3904 -0.5112 -0.2087
  162SOL     ow  645   1.848   0.182   7.507  0.3139  0.0829 -0.4262
  162SOL     hw  646   1.820   0.095   7.534 -0.6276  1.0418  2.0018
  162SOL     hw  647   1.853   0.178   7.412  0.0355 -2.5157 -0.3904
  162SOL     vw  648   1.845   0.170   7.498  0.1529 -0.1334 -0.1013
  163SOL     ow  649   3.042   1.474   4.725  0.1067 -0.5493 -0.2230
  163SOL     hw  650   3.008   1.385   4.718 -1.2098 -0.0579 -0.3786
  163SOL     hw  651   2.964   1.528   4.742  0.4629  0.9095 -2.7237
  163SOL     vw  652   3.027   1.469   4.726 -0.0200 -0.2920 -0.5734
  164SOL     ow  653   3.489   4.609   1.530 -0.3807 -0.2189 -0.2711
  164SOL     hw  654   3.576   4.594   1.566 -0.3735  0.3074 -0.0633
  164SOL     hw  655   3.478   4.539   1.465  0.3870 -0.0046 -0.6423
  164SOL     vw  656   3.499   4.598   1.526 -0.2786 -0.1214 -0.2927
  165SOL     ow  657   6.370   2.755   2.944 -0.4325 -0.0436 -0.6079
  165SOL     hw  658   6.319   2.818   2.894 -1.5155 -2.6252 -3.0853
  165SOL     hw  659   6.461   2.772   2.919 -0.7594  0.2203 -1.6646
  165SOL     vw  660   6.375   2.765   2.934 -0.6185 -0.3496 -1.0741
  166SOL     ow  661   4.974   3.210   7.508  0.7634 -0.1743  0.0780
  166SOL     hw  662   5.049   3.169   7.551  0.2912  0.2409  1.3533
  166SOL     hw  663   4.908   3.216   7.577  0.4298  1.6958 -0.3667
  166SOL     vw  664   4.975   3.205   7.523  0.6573  0.1272  0.1876
  167SOL     ow  665   1.117   2.614   0.580 -0.2782 -0.6330 -0.0443
  167SOL     hw  666   1.152   2.529   0.554  2.0654  0.1189  0.3676
  167SOL     hw  667   1.113   2.665   0.499  1.8974 -0.0039  0.1794
  167SOL     vw  668   1.121   2.610   0.566  0.3181 -0.4510  0.0395
  168SOL     ow  669   1.717   4.752   3.890  0.7393  0.1788  0.3860
  168SOL     hw  670   1.782   4.686   3.863  0.1647 -0.2846  0.1125
  168SOL     hw  671   1.769   4.828   3.914  1.3191  1.6042 -4.3466
  168SOL     vw  672   1.733   4.753   3.890  0.7400  0.3054 -0.2745
  169SOL     ow  673   2.606   4.793   4.983  0.5374  0.0892 -0.5930
  169SOL     hw  674   2.661   4.722   4.951  0.8844  1.1181 -2.4142
  169SOL     hw  675   2.640   4.812   5.071  0.5861 -1.7855 -0.1534
  169SOL     vw  676   2.618   4.786   4.991  0.5896 -0.0222 -0.7753
  170SOL     ow  677   5.242   1.802   5.525 -0.5559  0.3631 -0.0435
  170SOL     hw  678   5.265   1.713   5.497 -0.0131  1.3086 -2.9436
  170SOL     hw  679   5.321   1.854   5.508 -1.1705  1.5892  0.7071
  170SOL     vw  680   5.255   1.797   5.519 -0.5653  0.6496 -0.3271
  171SOL     ow  681   1.132   5.524   4.711 -0.1914 -0.2527 -0.0771
  171SOL     hw  682   1.104   5.488   4.796  0.0372 -0.6861 -0.1803
  171SOL     hw  683   1.169   5.609   4.733  1.8660 -1.2535  0.5712
  171SOL     vw  684   1.133   5.530   4.725  0.1101 -0.4420 -0.0050
  172SOL     ow  685   1.023   2.132   3.683 -0.2338  0.1564  0.1993
  172SOL     hw  686   1.078   2.097   3.613  1.8777 -1.0439  2.3131
  172SOL     hw  687   1.024   2.064   3.750 -0.0311  2.2524  2.4502
  172SOL     vw  688   1.031   2.119   3.682  0.0716  0.2747  0.7751
  173SOL     ow  689   6.768   5.637   2.353 -0.0955 -0.2287 -0.5222
  173SOL     hw  690   6.825   5.560   2.351 -0.1010 -0.3283  1.4364
  173SOL     hw  691   6.734   5.643   2.264  1.9628 -0.9033 -1.4237
  173SOL     vw  692   6.771   5.627   2.341  0.1755 -0.3307 -0.3827
  174SOL     ow  693   0.656   0.543   6.292  0.3432 -0.4705 -0.4653
  174SOL     hw  694   0.687   0.469   6.344  1.5846  0.1347 -0.3092
  174SOL     hw  695   0.725   0.610   6.301 -1.0607  0.9833 -0.0279
  174SOL     vw  696   0.669   0.542   6.300  0.3217 -0.1989 -0.3872
  175SOL     ow  697   5.942   6.128   0.830  0.0764  0.4795 -0.4395
  175SOL     hw  698   5.880   6.082   0.774  0.4818  0.7527 -1.1377
  175SOL     hw  699   5.982   6.060   0.883 -1.6471  0.4409  0.8706
  175SOL     vw  700   5.939   6.113   0.829 -0.0978  0.5105 -0.3588
  176SOL     ow  701   3.556   0.620   4.994 -0.2186 -0.7052  0.1247
  176SOL     hw  702   3.549   0.567   4.915  2.4490 -0.1840 -0.5687
  176SOL     hw  703   3.571   0.709   4.962  1.1457 -0.5269  1.1573
  176SOL     vw  704   3.557   0.625   4.979  0.3133 -0.6129  0.1695
  177SOL     ow  705   7.216   1.028   4.846  0.2368  0.5716  0.2011
  177SOL     hw  706   7.228   0.937   4.819  1.8829  1.5740 -2.8828
  177SOL     hw  707   7.121   1.041   4.844  0.0864 -0.4053 -2.0475
  177SOL     vw  708   7.205   1.018   4.842  0.4344  0.5750 -0.5023
  178SOL     ow  709   4.731   5.801   4.075 -0.3075  0.1539 -0.2417
  178SOL     hw  710   4.817   5.828   4.044 -0.3173 -2.2239 -2.6635
  178SOL     hw  711   4.729   5.828   4.167  2.6396  1.0708 -0.3574
  178SOL     vw  712   4.742   5.808   4.083  0.0803 -0.0384 -0.5765
  179SOL     ow  713   2.119   6.054   5.250 -0.2891  0.2925 -0.0950
  179SOL     hw  714   2.024   6.061   5.246 -0.1645  2.7699 -0.2019
  179SOL     hw  715   2.151   6.129   5.199  1.7349 -0.7907 -0.5322
  179SOL     vw  716   2.111   6.065   5.243 -0.0057  0.4764 -0.1664
  180SOL     ow  717   6.326   4.709   4.384 -0.7605  0.0641  0.1333
  180SOL     hw  718   6.290   4.727   4.297  0.5725 -0.8367 -0.6482
  180SOL     hw  719   6.420   4.698   4.369 -0.4106  0.4610  1.7921
  180SOL     vw  720   6.334   4.710   4.371 -0.5381 -0.0026  0.2489
  181SOL     ow  721   6.238   7.002   1.797 -0.1676  0.0088  0.2750
  181SOL     hw  722   6.286   7.049   1.729  1.0593 -0.9676  0.4440
  181SOL     hw  723   6.146   7.016   1.775  0.1136  2.5232  0.3352
  181SOL     vw  724   6.232   7.010   1.785  0.0310  0.2117  0.3053
  182SOL     ow  725   1.407   0.203   7.132  0.1339 -0.1593 -0.0461
  182SOL     hw  726   1.357   0.184   7.052  0.5490  0.5336 -0.4757
  182SOL     hw  727   1.351   0.171   7.203  0.8654 -3.2679 -0.6907
  182SOL     vw  728   1.393   0.196   7.131  0.2851 -0.4780 -0.1881
  183SOL     ow  729   2.501   4.658   4.688 -0.0158  0.3277 -0.3063
  183SOL     hw  730   2.535   4.647   4.599 -0.7207  1.0546 -0.6778
  183SOL     hw  731   2.531   4.745   4.714 -1.5723  1.0035 -0.6553
  183SOL     vw  732   2.509   4.668   4.679 -0.3141  0.5128 -0.4013
  184SOL     ow  733   3.707   0.344   2.557 -0.5535 -0.1673 -0.4465
  184SOL     hw  734   3.680   0.342   2.465 -1.8624 -0.0225 -0.0809
  184SOL     hw  735   3.673   0.427   2.590  1.2553  0.5265 -0.1998
  184SOL     vw  736   3.699   0.354   2.549 -0.4876 -0.0566 -0.3657
  185SOL     ow  737   1.913   0.101   2.503 -0.1096 -0.0876  0.0558
  185SOL     hw  738   1.916   0.037   2.574 -0.7166 -0.3104 -0.1160
  185SOL     hw  739   1.959   0.059   2.431 -2.9316 -1.5658 -1.0246
  185SOL     vw  740   1.919   0.087   2.503 -0.5621 -0.3120 -0.1093
  186SOL     ow  741   2.069   2.986   5.512  0.0045  0.1041  0.2038
  186SOL     hw  742   2.095   3.030   5.431  1.2746  0.6417  0.8787
  186SOL     hw  743   2.135   3.013   5.577 -0.4916 -0.9910  1.2081
  186SOL     vw  744   2.081   2.995   5.510  0.1067  0.0305  0.4253
  187SOL     ow  745   0.585   6.708   5.219 -0.5553  1.1334  0.1577
  187SOL     hw  746   0.585   6.801   5.243 -1.1987  1.3436 -0.6022
  187SOL     hw  747   0.501   6.675   5.251 -0.2501  0.7616  0.5869
  187SOL     vw  748   0.574   6.716   5.226 -0.6000  1.1122  0.1142
  188SOL     ow  749   3.004   2.998   5.917 -0.3718 -0.2208 -0.8719
  188SOL     hw  750   3.051   3.011   5.835 -0.2365 -2.2081 -1.1679
  188SOL     hw  751   2.913   3.019   5.895 -0.2101  0.0383 -1.3138
  188SOL     vw  752   2.998   3.003   5.903 -0.3326 -0.4488 -0.9694
  189SOL     ow  753   4.891   1.011   0.272 -0.3883  0.1335 -0.2943
  189SOL     hw  754   4.840   0.971   0.201 -0.4173  2.8087 -1.9263
  189SOL     hw  755   4.980   0.976   0.259 -0.3734  0.6463 -1.7390
  189SOL     vw  756   4.896   1.001   0.261 -0.3901  0.5542 -0.7002
  190SOL     ow  757   7.544   1.918   0.328 -0.1340 -0.5024  0.5476
  190SOL     hw  758   7.605   1.920   0.254 -0.5657 -2.6312  0.0696
  190SOL     hw  759   7.512   2.008   0.335  3.3089  0.8182  1.1069
  190SOL     vw  760   7.548   1.930   0.319  0.2632 -0.6090  0.5583
  191SOL     ow  761   5.486   0.862   2.244 -0.5793 -0.5264  0.3323
  191SOL     hw  762   5.392   0.881   2.247 -0.1952  2.1968 -1.7229
  191SOL     hw  763   5.508   0.864   2.151  1.6114 -0.6450  0.8043
  191SOL     vw  764   5.476   0.864   2.232 -0.2396 -0.1827  0.1233
  192SOL     ow  765   1.925   6.516   2.844 -0.4257 -0.0120 -0.0070
  192SOL     hw  766   1.924   6.426   2.812 -1.1338  0.0536 -0.1855
  192SOL     hw  767   1.861   6.517   2.915 -1.8012  0.7694 -1.2125
  192SOL     vw  768   1.917   6.504   2.849 -0.7006  0.0997 -0.1895
  193SOL     ow  769   5.236   2.533   4.538 -0.8425 -0.2799 -0.1999
  193SOL     hw  770   5.177   2.487   4.479 -0.6611 -1.7757  0.7171
  193SOL     hw  771   5.179   2.573   4.603 -0.9069 -1.4475  0.4956
  193SOL     vw  772   5.221   2.532   4.539 -0.8271 -0.6313  0.0129
  194SOL     ow  773   5.537   4.768   3.148 -0.5318 -0.3395  0.2715
  194SOL     hw  774   5.538   4.861   3.129 -3.0955 -0.2964  0.0166
  194SOL     hw  775   5.573   4.761   3.237  4.3198  0.2481 -1.3292
  194SOL     vw  776   5.542   4.779   3.157 -0.2298 -0.2563  0.0268
  195SOL     ow  777   1.795   6.128   2.582  0.8583  0.5198 -0.5408
  195SOL     hw  778   1.755   6.157   2.500 -0.9572 -0.8221 -0.2002
  195SOL     hw  779   1.861   6.064   2.556  0.4420  0.2633 -0.9654
  195SOL     vw  780   1.799   6.123   2.568  0.5639  0.3090 -0.5519
  196SOL     ow  781   1.257   4.006   2.255  0.1485 -0.4047  0.6661
  196SOL     hw  782   1.288   4.050   2.334  0.1587 -2.9863  2.2129
  196SOL     hw  783   1.321   3.937   2.239  1.2243  1.1627 -2.8207
  196SOL     vw  784   1.270   4.002   2.263  0.2917 -0.5383  0.4102
  197SOL     ow  785   0.039   1.330   0.194 -0.1130  0.3324  0.0825
  197SOL     hw  786  -0.049   1.362   0.178 -0.8942 -1.9274 -0.5385
  197SOL     hw  787   0.082   1.333   0.109 -0.1585 -0.1157  0.0393
  197SOL     vw  788   0.033   1.334   0.181 -0.2221 -0.0249 -0.0051
  198SOL     ow  789   2.470   5.554   6.227  0.1854  0.1677 -0.6104
  198SOL     hw  790   2.473   5.504   6.145  0.0477 -0.4173 -0.2602
  198SOL     hw  791   2.561   5.578   6.244  0.7001 -2.3981  0.6996
  198SOL     vw  792   2.482   5.550   6.218  0.2353 -0.2480 -0.3915
  199SOL     ow  793   4.903   2.813   1.504  1.1968  0.3036  0.3159
  199SOL     hw  794   4.875   2.884   1.446  2.4248  0.0860 -0.5654
  199SOL     hw  795   4.865   2.836   1.589 -0.8423  0.5185 -0.5714
  199SOL     vw  796   4.894   2.826   1.508  1.0896  0.3033  0.0826
  200SOL     ow  797   3.052   4.689   0.197 -0.4976 -0.1327  0.0920
  200SOL     hw  798   2.967   4.645   0.199 -1.4033  1.5298 -0.1984
  200SOL     hw  799   3.042   4.765   0.254  1.1762 -0.4972  0.9608
  200SOL     vw  800   3.040   4.694   0.205 -0.3963  0.0384  0.1683
  201SOL     ow  801   0.278   6.493   4.786 -0.2378 -0.1188 -0.3272
  201SOL     hw  802   0.195   6.459   4.751  0.5393 -1.7802 -0.6719
  201SOL     hw  803   0.325   6.525   4.710 -1.1753  2.3970  0.0515
  201SOL     vw  804   0.273   6.492   4.771 -0.2590 -0.0060 -0.3228
  202SOL     ow  805   1.628   6.941   6.495 -1.1378  0.0133  0.0065
  202SOL     hw  806   1.626   6.869   6.432 -5.4502 -0.2111  0.1030
  202SOL     hw  807   1.670   7.013   6.447  2.7667 -2.1509 -0.2919
  202SOL     vw  808   1.633   6.941   6.480 -1.1916 -0.3018 -0.0200
  203SOL     ow  809   6.112   1.096   0.864 -0.1677  0.1544  0.0768
  203SOL     hw  810   6.207   1.091   0.854 -0.0241  1.2765  0.7015
  203SOL     hw  811   6.078   1.083   0.776  0.6685  1.6657 -0.4976
  203SOL     vw  812   6.120   1.094   0.851 -0.0384  0.5019  0.0834
  204SOL     ow  813   1.332   1.912   7.204  0.0799 -0.1984 -0.1762
  204SOL     hw  814   1.424   1.932   7.191  0.2448  0.4292  1.7119
  204SOL     hw  815   1.325   1.817   7.189 -0.0964  0.3523 -5.8808
  204SOL     vw  816   1.343   1.902   7.200  0.0783 -0.0429 -0.6797
  205SOL     ow  817   5.365   0.846   4.727  0.4355  0.5044  0.0793
  205SOL     hw  818   5.430   0.916   4.721  1.5938 -0.6197 -1.1441
  205SOL     hw  819   5.411   0.774   4.770  0.3558 -0.6593 -1.6977
  205SOL     vw  820   5.379   0.845   4.732  0.5779  0.2025 -0.3169
  206SOL     ow  821   6.269   0.198   0.268 -0.7399  0.9279  0.0291
  206SOL     hw  822   6.174   0.195   0.274 -0.6181 -0.5801  3.2798
  206SOL     hw  823   6.289   0.292   0.259 -2.4934  1.3329 -0.0296
  206SOL     vw  824   6.259   0.210   0.268 -0.9551  0.7824  0.4502
  207SOL     ow  825   0.899   2.855   2.647  0.8058 -0.3414 -0.1262
  207SOL     hw  826   0.841   2.921   2.611 -1.2366 -3.0910 -2.3515
  207SOL     hw  827   0.853   2.772   2.634  4.2774 -2.5274  0.0067
  207SOL     vw  828   0.885   2.853   2.640  0.9944 -0.9925 -0.4022
  208SOL     ow  829   0.296   5.270   3.514 -0.9556  0.7650  0.0219
  208SOL     hw  830   0.294   5.201   3.580  2.1459  0.0217 -0.5304
  208SOL     hw  831   0.283   5.223   3.431 -1.8014  1.2916 -0.1586
  208SOL     vw  832   0.294   5.254   3.511 -0.6580  0.7365 -0.0747
  209SOL     ow  833   1.326   6.634   6.470 -0.0328  0.0519  0.1913
  209SOL     hw  834   1.235   6.638   6.501 -0.6446 -0.7812 -1.3622
  209SOL     hw  835   1.358   6.550   6.500 -0.2283 -0.2288 -0.3667
  209SOL     vw  836   1.318   6.624   6.478 -0.1392 -0.0949 -0.0873
  210SOL     ow  837   4.805   1.270   0.264  0.0064 -0.3346 -0.0046
  210SOL     hw  838   4.830   1.177   0.265 -0.4305 -0.4761 -1.0771
  210SOL     hw  839   4.887   1.317   0.280 -0.1740 -0.9315  3.3378
  210SOL     vw  840   4.819   1.264   0.266 -0.0749 -0.4320  0.2948
  211SOL     ow  841   6.878   0.114   6.837  0.0983  0.3723  0.7672
  211SOL     hw  842   6.828   0.134   6.759 -0.9795 -0.7216  1.1406
  211SOL     hw  843   6.886   0.018   6.836  2.4354  0.5123  0.5818
  211SOL     vw  844   6.873   0.104   6.827  0.2646  0.2465  0.7918
  212SOL     ow  845   4.396   4.422   1.685  0.4185 -0.3367  0.6578
  212SOL     hw  846   4.319   4.365   1.685 -0.5296  0.8908  1.6263
  212SOL     hw  847   4.470   4.362   1.670 -0.7813 -1.3961 -1.5112
  212SOL     vw  848   4.396   4.406   1.683  0.1352 -0.3150  0.4994
  213SOL     ow  849   0.983   4.810   4.494 -0.1764 -0.2276  1.0159
  213SOL     hw  850   1.029   4.855   4.423 -1.0067  2.5864  2.1263
  213SOL     hw  851   0.935   4.740   4.451  1.5930 -0.4178 -0.7720
  213SOL     vw  852   0.983   4.807   4.479 -0.0525  0.1185  0.9267
  214SOL     ow  853   6.434   1.955   4.961  0.5026 -0.7258 -0.5199
  214SOL     hw  854   6.512   2.011   4.964  0.3847 -0.6115  1.9164
  214SOL     hw  855   6.368   2.008   4.916  0.8448  0.5167  0.4037
  214SOL     vw  856   6.436   1.969   4.955  0.5322 -0.5468 -0.0768
  215SOL     ow  857   5.314   2.191   5.913 -0.2655 -0.1130 -0.4015
  215SOL     hw  858   5.281   2.276   5.943 -0.3130  1.5281 -4.5636
  215SOL     hw  859   5.405   2.189   5.944 -0.7503  0.6388  1.1790
  215SOL     vw  860   5.322   2.202   5.921 -0.3357  0.2027 -0.7422
  216SOL     ow  861   0.984   1.469   4.836 -0.0102 -0.6387  0.6196
  216SOL     hw  862   0.927   1.514   4.899 -2.0362 -2.8337  0.4872
  216SOL     hw  863   0.924   1.423   4.777  1.8348 -3.6278  0.8440
  216SOL     vw  864   0.968   1.469   4.836 -0.0341 -1.3227  0.6316
  217SOL     ow  865   4.287   0.710   6.364 -0.2182 -0.0305  0.0597
  217SOL     hw  866   4.269   0.631   6.312  0.5538 -0.4889  0.4721
  217SOL     hw  867   4.201   0.750   6.377 -1.1530 -2.5829  2.6901
  217SOL     vw  868   4.273   0.705   6.359 -0.2398 -0.4278  0.4613
  218SOL     ow  869   0.612   5.091   7.561 -0.2529  0.1611  0.1183
  218SOL     hw  870   0.634   5.088   7.654 -1.9508 -1.2787  0.5485
  218SOL     hw  871   0.666   5.161   7.525  2.1143 -0.7196  1.7207
  218SOL     vw  872   0.622   5.100   7.569 -0.1646 -0.1450  0.3862
  219SOL     ow  873   1.846   2.300   1.374  0.0988 -0.1575  0.2800
  219SOL     hw  874   1.787   2.331   1.306 -0.8968 -0.0143  1.1739
  219SOL     hw  875   1.789   2.255   1.437  0.9903 -0.3445  0.9835
  219SOL     vw  876   1.831   2.298   1.373  0.0851 -0.1633  0.4908
  220SOL     ow  877   1.031   6.165   3.658  0.2530  0.2660  0.3598
  220SOL     hw  878   1.102   6.129   3.604 -0.2688 -0.5602  0.2059
  220SOL     hw  879   0.986   6.227   3.600  1.4735  1.6069  0.7896
  220SOL     vw  880   1.035   6.168   3.643  0.3452  0.3340  0.3961
  221SOL     ow  881   5.364   7.597   7.368 -0.4150 -0.2419 -0.0511
  221SOL     hw  882   5.368   7.674   7.313  2.7989 -0.8331 -0.8833
  221SOL     hw  883   5.308   7.535   7.320  0.4435  0.0849 -1.5272
  221SOL     vw  884   5.357   7.599   7.355  0.1223 -0.2766 -0.3555
  222SOL     ow  885   0.582   6.175   3.884  0.5070 -0.1910  0.2227
  222SOL     hw  886   0.623   6.092   3.857  3.2546  1.5610 -1.5046
  222SOL     hw  887   0.546   6.156   3.970  1.2106 -3.1367 -0.0094
  222SOL     vw  888   0.583   6.162   3.892  0.9623 -0.3488 -0.0359
  223SOL     ow  889   3.506   6.304   0.003  1.1172 -0.1535  0.3726
  223SOL     hw  890   3.510   6.383  -0.050 -0.0879 -0.8671 -0.8202
  223SOL     hw  891   3.550   6.237  -0.050  3.0676 -0.1136  1.8048
  223SOL     vw  892   3.513   6.306  -0.011  1.2155 -0.2425  0.4041
  224SOL     ow  893   3.674   4.977   3.213 -0.2512  0.8317 -0.3381
  224SOL     hw  894   3.764   4.969   3.244 -0.5475  0.4611  0.4591
  224SOL     hw  895   3.621   4.966   3.291 -1.0223 -0.0660 -0.9630
  224SOL     vw  896   3.679   4.974   3.227 -0.3921  0.6645 -0.3154
  225SOL     ow  897   4.939   7.545   5.443  0.3991 -0.3892  0.2088
  225SOL     hw  898   4.910   7.516   5.356  1.1904  0.4623 -0.3593
  225SOL     hw  899   4.960   7.638   5.431 -1.3443  0.2682  1.7842
  225SOL     vw  900   4.938   7.553   5.430  0.2735 -0.1903  0.3417
  226SOL     ow  901   6.849   3.621   4.498 -0.0555  0.0572 -0.3071
  226SOL     hw  902   6.811   3.686   4.440 -0.4475  0.3893  0.3058
  226SOL     hw  903   6.860   3.543   4.444  0.7492  0.7334 -1.1433
  226SOL     vw  904   6.845   3.619   4.484 -0.0012  0.1903 -0.3369
  227SOL     ow  905   1.835   4.128   2.489  0.9477 -0.0515  0.7733
  227SOL     hw  906   1.835   4.184   2.412 -0.3256 -0.7810  0.2058
  227SOL     hw  907   1.867   4.044   2.457 -0.4030 -0.6081  0.8012
  227SOL     vw  908   1.839   4.124   2.475  0.6015 -0.2215  0.7021
  228SOL     ow  909   0.019   0.079   4.615 -0.0712  0.1871  0.3549
  228SOL     hw  910  -0.010   0.028   4.691 -0.4235  1.5098  1.1512
  228SOL     hw  911  -0.060   0.123   4.584 -0.7149 -2.8355 -2.9302
  228SOL     vw  912   0.005   0.078   4.621 -0.2027 -0.0372  0.0265
  229SOL     ow  913   1.442   4.931   0.674 -0.8086 -0.3763  0.1731
  229SOL     hw  914   1.416   4.860   0.615 -0.1333 -1.6620  1.3699
  229SOL     hw  915   1.437   5.010   0.620 -0.7168 -1.4376 -1.4548
  229SOL     vw  916   1.438   4.932   0.659 -0.7074 -0.6862  0.1161
  230SOL     ow  917   6.743   4.159   6.730  0.4910  0.0228  0.5964
  230SOL     hw  918   6.710   4.235   6.681  0.9804  0.8241  1.4779
  230SOL     hw  919   6.728   4.182   6.821  1.3640 -0.6205  0.9050
  230SOL     vw  920   6.736   4.172   6.735  0.6707  0.0436  0.7534
  231SOL     ow  921   1.471   2.564   2.245 -0.8362  0.0340 -0.0372
  231SOL     hw  922   1.408   2.550   2.316  0.4102 -0.6012  0.9800
  231SOL     hw  923   1.556   2.562   2.288  0.0460 -1.7802 -1.7462
  231SOL     vw  924   1.474   2.562   2.260 -0.5553 -0.2892 -0.1285
  232SOL     ow  925   1.215   1.060   2.085 -0.2142 -0.1567  0.3238
  232SOL     hw  926   1.245   1.008   2.011  0.6259 -0.5050  0.8836
  232SOL     hw  927   1.221   1.000   2.160  0.7481  0.7178  0.9770
  232SOL     vw  928   1.220   1.045   2.085  0.0236 -0.0873  0.4838
  233SOL     ow  929   2.064   0.852   3.552  0.4855 -0.3072  0.3541
  233SOL     hw  930   1.996   0.902   3.596 -0.8227 -1.3397 -0.4001
  233SOL     hw  931   2.100   0.913   3.487 -0.3194  0.0032  0.1849
  233SOL     vw  932   2.060   0.867   3.549  0.2068 -0.4025  0.2321
  234SOL     ow  933   5.569   7.064   5.987 -0.8786  0.3337  0.3627
  234SOL     hw  934   5.659   7.035   5.970 -0.7096  0.2442  1.3964
  234SOL     hw  935   5.523   7.048   5.904  0.1039  0.5929 -0.2471
  234SOL     vw  936   5.575   7.058   5.973 -0.7267  0.3562  0.4187
  235SOL     ow  937   7.191   1.171   6.122  0.0463  0.7297 -0.0787
  235SOL     hw  938   7.281   1.171   6.155  0.7147 -1.4067 -1.6191
  235SOL     hw  939   7.184   1.253   6.073  1.5221  0.5008 -0.7449
  235SOL     vw  940   7.202   1.182   6.120  0.3290  0.4176 -0.3700
  236SOL     ow  941   1.233   1.360   4.968 -0.4392  0.7759  0.4013
  236SOL     hw  942   1.283   1.441   4.972 -0.3351  0.7205  0.2306
  236SOL     hw  943   1.282   1.299   5.022  1.3701 -0.1895 -2.1047
  236SOL     vw  944   1.246   1.362   4.975 -0.1867  0.6412  0.0479
  237SOL     ow  945   6.360   7.272   0.191  0.3116 -0.0878 -0.8265
  237SOL     hw  946   6.301   7.206   0.155  1.4367 -0.6307 -1.7365
  237SOL     hw  947   6.319   7.299   0.273 -1.5644  0.0765 -1.7543
  237SOL     vw  948   6.347   7.267   0.197  0.2124 -0.1378 -1.0690
  238SOL     ow  949   0.345   4.967   1.300 -0.3625 -0.1090  0.1845
  238SOL     hw  950   0.271   4.918   1.335 -1.3583  0.4207 -1.1018
  238SOL     hw  951   0.351   5.044   1.357 -2.2588  0.9874 -0.9891
  238SOL     vw  952   0.336   4.971   1.312 -0.7441  0.1054 -0.1400
  239SOL     ow  953   4.852   1.565   1.254  0.1172  0.9472  0.0016
  239SOL     hw  954   4.778   1.574   1.194 -0.6389  0.1618  0.7911
  239SOL     hw  955   4.877   1.655   1.275 -1.3948  1.2402  0.6436
  239SOL     vw  956   4.846   1.578   1.249 -0.1819  0.8821  0.1906
  240SOL     ow  957   6.711   5.254   1.195  0.0082  0.6968 -0.2465
  240SOL     hw  958   6.780   5.187   1.199  0.9448  1.3990 -2.8019
  240SOL     hw  959   6.630   5.205   1.211  0.7856 -0.8447 -0.7798
  240SOL     vw  960   6.710   5.238   1.197  0.2341  0.5860 -0.6540
  241SOL     ow  961   2.134   3.572   1.073  0.0340 -0.4720 -0.8221
  241SOL     hw  962   2.105   3.532   1.154 -0.9349  1.8970  0.0804
  241SOL     hw  963   2.057   3.571   1.016 -0.0653  0.2450 -0.7117
  241SOL     vw  964   2.120   3.566   1.076 -0.1069 -0.0647 -0.6884
  242SOL     ow  965   2.904   7.497   2.174 -0.0459 -0.3271 -0.2317
  242SOL     hw  966   2.961   7.424   2.151  0.2858 -0.4140  0.7821
  242SOL     hw  967   2.961   7.559   2.220 -0.7656 -0.4666  0.8901
  242SOL     vw  968   2.919   7.495   2.177 -0.0972 -0.3572  0.0501
  243SOL     ow  969   4.447   7.404   5.423 -0.0501  0.2266  0.3645
  243SOL     hw  970   4.468   7.328   5.370 -3.8256  0.7793 -2.3201
  243SOL     hw  971   4.523   7.461   5.414  0.2944 -0.5657 -3.0314
  243SOL     vw  972   4.460   7.402   5.415 -0.5028  0.1950 -0.4380
  244SOL     ow  973   0.757   2.567   6.681 -0.3542  1.0491 -0.4191
  244SOL     hw  974   0.699   2.565   6.605  1.8128  0.4558 -2.1657
  244SOL     hw  975   0.817   2.640   6.664  0.2005  0.8914  0.7236
  244SOL     vw  976   0.757   2.577   6.669  0.0049  0.9501 -0.4988
  245SOL     ow  977   0.825   1.742   2.446  0.2662  0.0370  0.1782
  245SOL     hw  978   0.847   1.816   2.390 -2.0116  0.2633 -0.5358
  245SOL     hw  979   0.736   1.761   2.477  1.0754 -0.5608  3.1546
  245SOL     vw  980   0.816   1.754   2.443  0.0724 -0.0121  0.4766
  246SOL     ow  981   1.410   5.168   0.543 -0.4238 -0.1410 -0.8735
  246SOL     hw  982   1.318   5.195   0.538  0.0398  2.0454  0.7744
  246SOL     hw  983   1.451   5.211   0.468 -0.0077  2.6596  0.8261
  246SOL     vw  984   1.403   5.177   0.532 -0.3077  0.5171 -0.4319
  247SOL     ow  985   3.171   1.178   3.694 -0.2457 -0.2848  0.3349
  247SOL     hw  986   3.252   1.180   3.745  0.3866 -0.7306 -0.6480
  247SOL     hw  987   3.107   1.139   3.754  0.1929  0.2815  1.2005
  247SOL     vw  988   3.173   1.173   3.709 -0.1044 -0.2689  0.3194
  248SOL     ow  989   6.885   4.783   3.883 -0.2431 -0.0630 -0.0723
  248SOL     hw  990   6.873   4.859   3.940 -0.0185 -1.0774  1.3876
  248SOL     hw  991   6.965   4.803   3.834  0.0561  0.4700  0.6109
  248SOL     vw  992   6.894   4.795   3.884 -0.1743 -0.1266  0.2105
  249SOL     ow  993   5.775   4.959   3.977  0.6409  0.0459 -0.2289
  249SOL     hw  994   5.791   5.040   4.024 -1.8547  0.0557  0.7509
  249SOL     hw  995   5.807   4.976   3.888  2.6603  1.0835  0.6206
  249SOL     vw  996   5.782   4.972   3.971  0.5782  0.1841  0.0125
  250SOL     ow  997   0.948   2.453   0.795  0.2716 -0.1117 -0.1135
  250SOL     hw  998   0.924   2.376   0.846  2.5860 -1.0919 -0.3937
  250SOL     hw  999   0.917   2.435   0.706  1.3139 -1.0228 -0.3099
  250SOL     vw 1000   0.941   2.441   0.790  0.7145 -0.3612 -0.1764
  251SOL     ow 1001   4.939   0.739   6.053 -1.0151  0.8345 -0.2283
  251SOL     hw 1002   4.933   0.678   5.980  0.9152  1.4511 -0.9734
  251SOL     hw 1003   5.030   0.767   6.054 -1.3477  2.0639  1.4396
  251SOL     vw 1004   4.950   0.735   6.043 -0.8044  1.0781 -0.1068
  252SOL     ow 1005   2.727   0.695   3.121 -0.2363 -0.3794  0.3414
  252SOL     hw 1006   2.633   0.680   3.129 -0.3795 -0.8823 -1.6921
  252SOL     hw 1007   2.767   0.614   3.150 -0.4334 -0.1935  1.1352
  252SOL     vw 1008   2.720   0.682   3.126 -0.2811 -0.4212  0.1780
  253SOL     ow 1009   3.932   3.427   7.574 -0.3598  0.4841 -0.6838
  253SOL     hw 1010   3.978   3.506   7.544  0.4437 -0.3170 -1.6060
  253SOL     hw 1011   3.860   3.415   7.512 -0.4056  0.4133 -0.6174
  253SOL     vw 1012   3.929   3.436   7.562 -0.2599  0.3691 -0.7966
  254SOL     ow 1013   4.097   0.466   6.900  0.5670  0.1478  0.0952
  254SOL     hw 1014   4.098   0.538   6.838  0.1369 -0.5294 -0.7194
  254SOL     hw 1015   4.102   0.387   6.846  2.9834 -0.4262  1.0283
  254SOL     vw 1016   4.098   0.465   6.885  0.8290 -0.0172  0.1109
  255SOL     ow 1017   0.025   3.797   6.969 -0.2533  0.5103  0.2212
  255SOL     hw 1018   0.070   3.879   6.990  0.7625  0.2005 -0.6631
  255SOL     hw 1019  -0.036   3.784   7.041  2.0277  0.2639  2.2469
  255SOL     vw 1020   0.023   3.806   6.981  0.1816  0.4369  0.3719
  256SOL     ow 1021   1.839   3.178   6.530 -0.1684  0.1818 -0.0250
  256SOL     hw 1022   1.854   3.261   6.484  0.3033 -0.5848 -1.3089
  256SOL     hw 1023   1.752   3.150   6.500 -1.7401  1.6380  2.7395
  256SOL     vw 1024   1.829   3.185   6.520 -0.3135  0.2729  0.1700
  257SOL     ow 1025   4.179   5.787   7.007  0.6257 -0.3835  1.1087
  257SOL     hw 1026   4.159   5.810   6.916  0.5921  1.1481  1.4800
  257SOL     hw 1027   4.094   5.774   7.047  0.4735  1.6058  1.5506
  257SOL     vw 1028   4.165   5.788   7.000  0.6013  0.0811  1.2164
  258SOL     ow 1029   0.432   3.201   4.910  0.0355  0.4984  0.1363
  258SOL     hw 1030   0.359   3.159   4.956  0.5242 -0.6886 -0.1171
  258SOL     hw 1031   0.412   3.187   4.817 -0.3715  1.8784 -0.0029
  258SOL     vw 1032   0.420   3.194   4.904  0.0463  0.5238  0.0844
  259SOL     ow 1033   1.245   1.975   6.352  0.3318  0.5101 -0.2248
  259SOL     hw 1034   1.303   2.009   6.284 -0.4738  0.4685 -0.9451
  259SOL     hw 1035   1.285   1.892   6.379  1.7856  1.5095  0.8579
  259SOL     vw 1036   1.258   1.969   6.346  0.4174  0.6365 -0.1767
  260SOL     ow 1037   4.233   4.433   1.430  0.1882 -0.3106  0.3590
  260SOL     hw 1038   4.253   4.378   1.355 -2.3298 -1.4097  0.3774
  260SOL     hw 1039   4.167   4.384   1.480  0.3352  1.2383  2.2335
  260SOL     vw 1040   4.227   4.419   1.427 -0.1247 -0.2511  0.6087
  261SOL     ow 1041   7.235   2.718   6.866 -0.0150 -0.2144  0.4243
  261SOL     hw 1042   7.193   2.634   6.846 -0.9754  0.3064  0.1865
  261SOL     hw 1043   7.269   2.708   6.955 -2.2957 -0.0613  1.3897
  261SOL     vw 1044   7.234   2.706   6.875 -0.4425 -0.1255  0.5205
  262SOL     ow 1045   7.612   6.630   0.621  1.5109 -0.1236 -0.1311
  262SOL     hw 1046   7.568   6.616   0.537 -0.9028  1.4371  0.7663
  262SOL     hw 1047   7.629   6.542   0.655 -3.3600 -1.0901  0.5619
  262SOL     vw 1048   7.609   6.617   0.614  0.5498 -0.0453  0.0787
  263SOL     ow 1049   4.706   2.443   0.699  0.0791  0.4875 -0.6951
  263SOL     hw 1050   4.685   2.536   0.705 -4.1426 -0.1072 -2.3462
  263SOL     hw 1051   4.782   2.438   0.641 -0.3923  2.8850 -1.6111
  263SOL     vw 1052   4.713   2.454   0.692 -0.5400  0.7253 -1.0338
  264SOL     ow 1053   0.779   1.288   0.917 -0.6193 -0.7354  0.0410
  264SOL     hw 1054   0.785   1.194   0.929 -1.7203 -0.7746  0.4034
  264SOL     hw 1055   0.797   1.325   1.003 -0.9139 -0.6527  0.0677
  264SOL     vw 1056   0.782   1.281   0.930 -0.8035 -0.7296  0.0923
  265SOL     ow 1057   5.044   4.132   5.265 -0.3863  0.2458  0.3045
  265SOL     hw 1058   5.064   4.192   5.193 -0.1636  0.4236  0.5120
  265SOL     hw 1059   5.032   4.189   5.340  2.5267 -0.0543  1.1481
  265SOL     vw 1060   5.045   4.148   5.265  0.0274  0.2298  0.4432
  266SOL     ow 1061   3.256   4.389   3.761  0.2443  0.3022  0.2738
  266SOL     hw 1062   3.223   4.333   3.831 -1.6141 -1.1747 -1.6251
  266SOL     hw 1063   3.284   4.327   3.693  2.4804  1.6576 -0.1449
  266SOL     vw 1064   3.255   4.373   3.761  0.2940  0.2863 -0.0321
  267SOL     ow 1065   3.010   5.899   0.640 -0.2585  0.2146  0.2703
  267SOL     hw 1066   3.077   5.952   0.596  1.8286  0.1335  3.0405
  267SOL     hw 1067   2.982   5.953   0.713 -0.6055 -1.1630  1.1809
  267SOL     vw 1068   3.015   5.913   0.644 -0.0288  0.0224  0.7560
  268SOL     ow 1069   6.801   3.685   6.462  0.1195 -0.0526  0.6701
  268SOL     hw 1070   6.880   3.631   6.471 -0.8451 -1.9698 -1.4324
  268SOL     hw 1071   6.816   3.735   6.381  0.0302  1.1997  1.3944
  268SOL     vw 1072   6.814   3.685   6.452 -0.0196 -0.1404  0.4885
  269SOL     ow 1073   3.985   3.971   6.624 -0.0240  0.1202 -0.4129
  269SOL     hw 1074   3.921   4.041   6.618  0.1655  0.2222 -1.4016
  269SOL     hw 1075   3.933   3.890   6.619 -0.1024  0.2014 -0.9595
  269SOL     vw 1076   3.970   3.969   6.623 -0.0092  0.1442 -0.6156
  270SOL     ow 1077   1.103   2.091   4.766 -0.0222  0.3330  0.1593
  270SOL     hw 1078   1.050   2.170   4.761 -1.3601 -0.4053  1.5933
  270SOL     hw 1079   1.053   2.032   4.823  1.1318 -1.3883 -0.5117
  270SOL     vw 1080   1.090   2.093   4.773 -0.0465  0.0085  0.2599
  271SOL     ow 1081   3.229   1.091   4.280 -0.9846 -0.9986 -0.1869
  271SOL     hw 1082   3.176   1.028   4.328 -0.3711 -1.3317  0.0676
  271SOL     hw 1083   3.312   1.095   4.328 -1.3228  0.6913  0.3473
  271SOL     vw 1084   3.233   1.083   4.293 -0.9482 -0.8197 -0.0827
  272SOL     ow 1085   2.282   4.823   5.351  0.6679  0.5325  0.5173
  272SOL     hw 1086   2.359   4.879   5.359  3.1136 -2.6188  1.0641
  272SOL     hw 1087   2.299   4.770   5.273 -0.1423 -1.3162  1.5252
  272SOL     vw 1088   2.294   4.824   5.341  0.8835 -0.1271  0.7224
  273SOL     ow 1089   7.030   2.631   5.690 -0.3102 -0.3489 -0.7326
  273SOL     hw 1090   7.034   2.536   5.678  1.9388 -0.6288  1.4386
  273SOL     hw 1091   6.940   2.648   5.717 -0.6880 -1.8666 -0.9095
  273SOL     vw 1092   7.019   2.620   5.692 -0.0632 -0.5862 -0.4692
  274SOL     ow 1093   0.855   2.396   6.856  0.0910  0.3024  0.0020
  274SOL     hw 1094   0.879   2.312   6.816  1.3374  0.0334  1.2441
  274SOL     hw 1095   0.827   2.451   6.782  1.8674 -0.3217 -1.1929
  274SOL     vw 1096   0.854   2.392   6.841  0.4898  0.1847  0.0081
  275SOL     ow 1097   2.731   2.906   6.297  0.1711 -0.0160  0.2192
  275SOL     hw 1098   2.781   2.988   6.297 -0.0193  0.1009  0.3244
  275SOL     hw 1099   2.640   2.934   6.310  0.2034 -0.3088  1.1387
  275SOL     vw 1100   2.725   2.921   6.299  0.1503 -0.0391  0.3545
  276SOL     ow 1101   1.892   2.942   6.295 -0.4286  0.5973  0.7295
  276SOL     hw 1102   1.986   2.954   6.280 -0.4191 -0.1143  0.1463
  276SOL     hw 1103   1.868   2.870   6.237 -1.4284  1.0548  0.5709
  276SOL     vw 1104   1.901   2.934   6.286 -0.5593  0.5640  0.6318
  277SOL     ow 1105   1.056   2.129   3.407  0.1671 -0.2561  0.1304
  277SOL     hw 1106   1.144   2.168   3.411  0.5852 -1.2487  0.9890
  277SOL     hw 1107   1.024   2.152   3.319  1.8029 -0.9773 -0.6909
  277SOL     vw 1108   1.064   2.137   3.396  0.4381 -0.4822  0.1353
  278SOL     ow 1109   0.883   2.687   0.913 -0.1939  0.0886  0.5426
  278SOL     hw 1110   0.822   2.659   0.981 -0.3916  0.8937  0.7098
  278SOL     hw 1111   0.903   2.607   0.864 -1.9983 -0.0403 -0.0312
  278SOL     vw 1112   0.878   2.673   0.916 -0.4580  0.1779  0.4889
  279SOL     ow 1113   7.520   0.257   6.856 -0.8850 -0.3332  0.2495
  279SOL     hw 1114   7.441   0.237   6.907 -2.1775  2.9818 -0.2138
  279SOL     hw 1115   7.569   0.318   6.911 -0.1856  0.0161 -0.7274
  279SOL     vw 1116   7.516   0.263   6.870 -0.9632  0.1503  0.0596
  280SOL     ow 1117   4.179   1.295   1.345  0.7425 -0.3298 -0.6653
  280SOL     hw 1118   4.150   1.377   1.386 -0.2679  0.2928 -2.4941
  280SOL     hw 1119   4.241   1.323   1.278 -0.9572 -0.8007 -2.5539
  280SOL     vw 1120   4.183   1.310   1.342  0.3850 -0.3098 -1.1558
  281SOL     ow 1121   4.662   2.723   4.592  0.3146  0.5071 -0.2632
  281SOL     hw 1122   4.740   2.680   4.628  1.5156 -0.4567 -3.5934
  281SOL     hw 1123   4.680   2.817   4.601 -0.5677  0.4575  3.5517
  281SOL     vw 1124   4.675   2.730   4.598  0.3564  0.3735 -0.1993
  282SOL     ow 1125   5.830   1.132   2.615 -0.1088 -0.2040 -0.0089
  282SOL     hw 1126   5.858   1.045   2.586  1.2958  0.6244 -1.2747
  282SOL     hw 1127   5.740   1.139   2.584  0.5764 -0.2748 -2.1408
  282SOL     vw 1128   5.821   1.121   2.607  0.1667 -0.1041 -0.4574
  283SOL     ow 1129   4.240   0.049   1.387 -0.8190  0.6114 -1.2817
  283SOL     hw 1130   4.267   0.028   1.297 -0.9900 -0.8059 -1.0180
  283SOL     hw 1131   4.293   0.126   1.409  0.7087 -0.2018 -1.9091
  283SOL     vw 1132   4.251   0.057   1.378 -0.6399  0.3171 -1.3297
  284SOL     ow 1133   6.688   1.567   4.475 -0.0205 -0.8093  0.2517
  284SOL     hw 1134   6.675   1.625   4.400  1.4523 -0.1918  0.4389
  284SOL     hw 1135   6.651   1.483   4.447 -0.0822 -0.4140 -0.9262
  284SOL     vw 1136   6.682   1.563   4.461  0.1657 -0.6756  0.1211
  285SOL     ow 1137   1.694   5.116   3.290 -0.9212 -0.2964 -0.2353
  285SOL     hw 1138   1.736   5.121   3.204 -2.2702 -0.7999 -0.9489
  285SOL     hw 1139   1.693   5.023   3.312 -1.2387 -0.2457 -0.0205
  285SOL     vw 1140   1.699   5.105   3.282 -1.1411 -0.3560 -0.3010
  286SOL     ow 1141   4.300   5.932   7.265  0.3396  0.5119 -0.0090
  286SOL     hw 1142   4.292   6.021   7.233 -1.0489  0.2014 -0.6220
  286SOL     hw 1143   4.209   5.903   7.277  0.7788 -0.4481  1.2258
  286SOL     vw 1144   4.287   5.940   7.263  0.2146  0.3443  0.0730
  287SOL     ow 1145   4.768   3.369   1.828 -0.2459  0.6006  0.0216
  287SOL     hw 1146   4.749   3.393   1.737  1.0932 -3.4356 -1.5715
  287SOL     hw 1147   4.703   3.302   1.849  1.4697 -0.8987  0.7632
  287SOL     vw 1148   4.757   3.363   1.819  0.1569 -0.1297 -0.0909
  288SOL     ow 1149   4.553   7.519   0.773 -0.0487  0.6626  0.3431
  288SOL     hw 1150   4.633   7.475   0.801  0.8242  1.5300 -0.6934
  288SOL     hw 1151   4.554   7.603   0.820 -1.6596 -0.3107  2.2502
  288SOL     vw 1152   4.563   7.525   0.783 -0.1462  0.6487  0.4579
  289SOL     ow 1153   2.723   3.975   7.198  0.3032  0.9209 -0.3944
  289SOL     hw 1154   2.772   3.999   7.277 -0.0212  1.0906 -0.2403
  289SOL     hw 1155   2.645   3.929   7.231 -0.5042  2.1434 -0.5348
  289SOL     vw 1156   2.719   3.972   7.213  0.1539  1.1047 -0.3924
  290SOL     ow 1157   0.911   0.544   6.815  0.0522  0.4946  0.0680
  290SOL     hw 1158   0.957   0.599   6.753  0.2131 -1.9144 -2.1218
  290SOL     hw 1159   0.831   0.592   6.835  0.5575  1.8790 -1.0545
  290SOL     vw 1160   0.906   0.557   6.810  0.1401  0.3594 -0.3691
  291SOL     ow 1161   0.199   0.250   5.049 -0.2024  0.0232 -0.1254
  291SOL     hw 1162   0.175   0.220   5.137  0.0586  2.4194  0.8432
  291SOL     hw 1163   0.288   0.285   5.060 -1.4035  3.5426 -0.4270
  291SOL     vw 1164   0.208   0.251   5.062 -0.3265  0.8037 -0.0372
  292SOL     ow 1165   4.170   4.517   7.432  0.1263 -0.2411  0.3238
  292SOL     hw 1166   4.074   4.522   7.438 -0.1903 -2.7734 -1.1865
  292SOL     hw 1167   4.200   4.519   7.523 -1.1194  2.6746  0.7930
  292SOL     vw 1168   4.161   4.518   7.445 -0.0799 -0.1903  0.1867
  293SOL     ow 1169   4.104   3.473   1.796  0.0751 -0.0300 -0.0967
  293SOL     hw 1170   4.174   3.411   1.815  0.3298  0.3673  0.2747
  293SOL     hw 1171   4.065   3.441   1.714  0.4985 -0.4157 -0.1495
  293SOL     vw 1172   4.108   3.461   1.788  0.1650 -0.0285 -0.0547
  294SOL     ow 1173   1.222   2.296   2.975  0.8614  0.4056 -0.0323
  294SOL     hw 1174   1.140   2.343   2.992  1.3843  1.9742 -1.6304
  294SOL     hw 1175   1.212   2.214   3.024 -0.9084  1.3036  1.2555
  294SOL     vw 1176   1.210   2.291   2.984  0.6969  0.7310 -0.0732
  295SOL     ow 1177   3.959   4.670   1.497 -0.2753 -0.9905 -0.2655
  295SOL     hw 1178   3.958   4.749   1.443 -0.1139 -1.7300 -1.3773
  295SOL     hw 1179   4.000   4.604   1.442 -0.9079 -2.0048  0.4571
  295SOL     vw 1180   3.965   4.672   1.483 -0.3376 -1.2219 -0.3169
  296SOL     ow 1181   2.591   5.446   3.788  0.0229 -0.2851 -0.0144
  296SOL     hw 1182   2.507   5.441   3.743  1.2006 -1.0713 -2.2591
  296SOL     hw 1183   2.568   5.440   3.881 -2.4811  0.9794 -0.4540
  296SOL     vw 1184   2.577   5.444   3.795 -0.1519 -0.2220 -0.3687
  297SOL     ow 1185   1.954   1.619   7.607 -0.5665  0.4337  0.4696
  297SOL     hw 1186   2.001   1.628   7.525 -0.3289  0.2224  0.5804
  297SOL     hw 1187   1.973   1.530   7.636 -1.2678  0.2423  0.3719
  297SOL     vw 1188   1.963   1.608   7.600 -0.6276  0.3806  0.4714
  298SOL     ow 1189   3.979   4.284   1.478  0.7837  0.4809  0.9571
  298SOL     hw 1190   3.989   4.343   1.403 -2.5547  1.0905  0.8306
  298SOL     hw 1191   3.885   4.287   1.499  0.7099 -3.4700  2.0520
  298SOL     vw 1192   3.968   4.293   1.471  0.3335  0.0401  1.0849
  299SOL     ow 1193   1.048   7.531   3.204  0.4071  0.4854  0.6785
  299SOL     hw 1194   1.138   7.563   3.199  1.2956 -1.4970  2.2747
  299SOL     hw 1195   1.018   7.559   3.291 -0.0904  0.1759  0.6110
  299SOL     vw 1196   1.056   7.539   3.215  0.4587  0.1829  0.8802
  300SOL     ow 1197   2.546   5.506   2.923 -0.2603 -0.4276 -0.0636
  300SOL     hw 1198   2.517   5.591   2.958  0.8551  0.2000 -0.6034
  300SOL     hw 1199   2.534   5.515   2.828  1.8239 -0.0644 -0.3355
  300SOL     vw 1200   2.540   5.519   2.915  0.1619 -0.2968 -0.1706
  301SOL     ow 1201   4.861   4.767   7.026 -0.0588  0.9961  0.2390
  301SOL     hw 1202   4.811   4.816   6.960 -0.4589  0.6804  0.3040
  301SOL     hw 1203   4.888   4.687   6.982  0.7472  1.3462  0.0815
  301SOL     vw 1204   4.858   4.763   7.012 -0.0052  1.0004  0.2270
  302SOL     ow 1205   2.878   5.255   4.422  0.1899  0.4570  0.4959
  302SOL     hw 1206   2.971   5.277   4.428  0.5779 -0.7913 -0.4725
  302SOL     hw 1207   2.854   5.230   4.511  0.5983  1.4644  0.8976
  302SOL     vw 1208   2.887   5.254   4.435  0.2949  0.4251  0.4210
  303SOL     ow 1209   7.231   1.876   7.500 -0.3757 -0.1391  0.2504
  303SOL     hw 1210   7.296   1.811   7.527 -0.4580  0.1147  1.0791
  303SOL     hw 1211   7.277   1.959   7.507 -0.0336 -0.1486 -1.5330
  303SOL     vw 1212   7.246   1.878   7.505 -0.3414 -0.1069  0.1245
  304SOL     ow 1213   4.016   3.115   0.571 -0.0276 -0.4895 -0.4462
  304SOL     hw 1214   4.058   3.081   0.650 -1.3989 -1.4302 -0.0810
  304SOL     hw 1215   3.946   3.171   0.604  0.7613  0.8805 -1.0380
  304SOL     vw 1216   4.012   3.118   0.586 -0.1044 -0.4330 -0.4761
  305SOL     ow 1217   5.938   1.632   7.301  0.3100 -1.1333  0.0864
  305SOL     hw 1218   6.022   1.667   7.274 -0.2051  0.1113  0.0301
  305SOL     hw 1219   5.909   1.579   7.227  1.9036 -3.2192  0.8690
  305SOL     vw 1220   5.945   1.629   7.288  0.4523 -1.2443  0.1822
  306SOL     ow 1221   3.992   5.365   7.157  0.2399 -0.0667  0.7329
  306SOL     hw 1222   3.988   5.459   7.144  1.4686 -0.2158 -0.9054
  306SOL     hw 1223   3.903   5.341   7.184 -0.9025  1.1873 -1.6345
  306SOL     vw 1224   3.979   5.374   7.159  0.2512  0.0789  0.2043
  307SOL     ow 1225   5.605   1.584   2.543  0.0946 -0.0110 -0.7669
  307SOL     hw 1226   5.531   1.639   2.567 -0.2085 -0.9691  0.6797
  307SOL     hw 1227   5.674   1.645   2.518 -0.4654  0.9901  0.0520
  307SOL     vw 1228   5.604   1.599   2.543 -0.0193 -0.0053 -0.4680
  308SOL     ow 1229   4.253   4.052   5.381 -0.1383  0.7488  0.2720
  308SOL     hw 1230   4.243   4.147   5.383  2.0414  1.1639 -2.4041
  308SOL     hw 1231   4.348   4.039   5.374 -0.4112 -1.6294  0.2811
  308SOL     vw 1232   4.264   4.063   5.380  0.1135  0.4897 -0.0799
  309SOL     ow 1233   5.673   1.937   3.344  0.1623 -0.2287 -0.9067
  309SOL     hw 1234   5.649   2.024   3.376 -0.1517 -0.7677  0.3839
  309SOL     hw 1235   5.765   1.926   3.370  0.8498  0.4501 -2.7954
  309SOL     vw 1236   5.682   1.947   3.351  0.2115 -0.2103 -0.9857
  310SOL     ow 1237   6.365   5.675   2.408  0.2786 -0.2271 -0.4265
  310SOL     hw 1238   6.278   5.715   2.398  0.0382 -1.0473 -1.8630
  310SOL     hw 1239   6.423   5.750   2.422 -0.6516  0.3300  0.6302
  310SOL     vw 1240   6.361   5.690   2.409  0.1240 -0.2618 -0.4766
  311SOL     ow 1241   1.007   2.311   1.883 -0.1239 -0.1227 -0.0821
  311SOL     hw 1242   1.002   2.382   1.819 -0.2580 -0.7977 -0.8259
  311SOL     hw 1243   1.029   2.355   1.965 -1.0534  0.8761 -0.3477
  311SOL     vw 1244   1.010   2.327   1.885 -0.2643 -0.0800 -0.2152
  312SOL     ow 1245   1.992   6.853   6.659  0.0064 -0.5797  0.3261
  312SOL     hw 1246   1.936   6.917   6.702 -2.6718 -2.2479 -0.4444
  312SOL     hw 1247   1.967   6.769   6.696  0.8882 -1.5669 -1.1793
  312SOL     vw 1248   1.981   6.850   6.669 -0.2307 -0.9298  0.0255
  313SOL     ow 1249   4.962   0.846   5.321 -0.3159  0.1204  0.4414
  313SOL     hw 1250   5.008   0.839   5.405  0.8765 -0.7798 -0.2525
  313SOL     hw 1251   4.950   0.755   5.293  0.7167  0.4311 -1.1031
  313SOL     vw 1252   4.966   0.833   5.329 -0.0224  0.0426  0.1462
  314SOL     ow 1253   5.219   0.728   6.165  0.4198  0.5274  0.4885
  314SOL     hw 1254   5.235   0.641   6.130  0.4708 -0.1099  2.0102
  314SOL     hw 1255   5.287   0.740   6.231  0.7073  1.9274 -0.0220
  314SOL     vw 1256   5.230   0.718   6.169  0.4644  0.6281  0.6218
  315SOL     ow 1257   1.667   2.151   1.844 -0.2247 -0.0925  0.0505
  315SOL     hw 1258   1.725   2.177   1.916 -0.2780  1.5653 -0.4556
  315SOL     hw 1259   1.615   2.230   1.827 -0.7107 -0.6963 -1.3175
  315SOL     vw 1260   1.668   2.165   1.851 -0.2959  0.0466 -0.1968
  316SOL     ow 1261   4.829   1.139   5.308 -0.1580  0.1458  0.0045
  316SOL     hw 1262   4.761   1.137   5.375  0.0455  0.9785  0.2491
  316SOL     hw 1263   4.814   1.221   5.261  0.5878  0.2762 -0.0207
  316SOL     vw 1264   4.818   1.150   5.311 -0.0331  0.2729  0.0336
  317SOL     ow 1265   0.548   4.434   5.712 -0.2261 -0.3648  0.3578
  317SOL     hw 1266   0.549   4.463   5.621 -1.3594 -0.3399  0.3387
  317SOL     hw 1267   0.483   4.364   5.714 -0.3363 -0.2497  1.1820
  317SOL     vw 1268   0.539   4.428   5.700 -0.3902 -0.3462  0.4640
  318SOL     ow 1269   0.609   7.286   5.955  0.5169  0.2084  0.1926
  318SOL     hw 1270   0.537   7.345   5.978  0.8776  0.5852  0.3841
  318SOL     hw 1271   0.628   7.239   6.036 -1.5773 -2.2167 -0.5918
  318SOL     vw 1272   0.602   7.288   5.969  0.2882 -0.0618  0.1144
  319SOL     ow 1273   4.154   5.261   2.933 -0.3411 -0.5251  0.0756
  319SOL     hw 1274   4.221   5.203   2.898 -1.1244 -1.7354  0.5219
  319SOL     hw 1275   4.203   5.328   2.982  0.5432 -1.3050  0.2728
  319SOL     vw 1276   4.169   5.262   2.935 -0.3278 -0.7880  0.1606
  320SOL     ow 1277   1.448   1.189   2.068  0.3548  0.4256 -0.6112
  320SOL     hw 1278   1.433   1.277   2.102 -1.9012 -0.0887 -0.0823
  320SOL     hw 1279   1.362   1.147   2.072  1.3428 -1.7786 -0.9466
  320SOL     vw 1280   1.434   1.195   2.073  0.1876  0.0669 -0.5857
  321SOL     ow 1281   2.999   7.268   5.605  0.4666 -0.3790  0.2508
  321SOL     hw 1282   3.007   7.319   5.686  0.5343 -0.9142  0.5889
  321SOL     hw 1283   3.082   7.282   5.559  0.2923  0.2037  0.1060
  321SOL     vw 1284   3.011   7.277   5.610  0.4524 -0.3726  0.2763
  322SOL     ow 1285   0.259   4.474   7.134 -0.3388 -0.0665  0.3173
  322SOL     hw 1286   0.289   4.383   7.131  0.6318  0.2337  0.4979
  322SOL     hw 1287   0.220   4.483   7.221  1.9519  0.3751  1.3815
  322SOL     vw 1288   0.258   4.463   7.145  0.0915  0.0315  0.4816
  323SOL     ow 1289   2.574   3.481   0.232  0.0562  0.2833 -0.4073
  323SOL     hw 1290   2.662   3.447   0.248 -0.4053 -1.5572 -1.4680
  323SOL     hw 1291   2.568   3.560   0.286  2.5181  0.7434 -0.6929
  323SOL     vw 1292   2.585   3.487   0.241  0.3201  0.1011 -0.5850
  324SOL     ow 1293   1.346   5.282   0.231 -0.5744 -0.0342 -0.4856
  324SOL     hw 1294   1.298   5.339   0.291 -2.3712 -1.2645 -0.6907
  324SOL     hw 1295   1.438   5.305   0.245 -0.9334 -0.0267  2.4787
  324SOL     vw 1296   1.352   5.293   0.241 -0.8588 -0.1957 -0.1215
  325SOL     ow 1297   2.373   2.386   5.583 -0.3545  0.5269  0.1656
  325SOL     hw 1298   2.458   2.428   5.569  1.0992 -1.9265  1.1342
  325SOL     hw 1299   2.367   2.320   5.513 -1.4593  0.6285  0.1458
  325SOL     vw 1300   2.384   2.383   5.572 -0.3085  0.2166  0.2906
  326SOL     ow 1301   0.463   6.088   4.124 -0.4494  0.2927 -0.1639
  326SOL     hw 1302   0.533   6.023   4.124  1.0577  1.8413 -0.4948
  326SOL     hw 1303   0.404   6.060   4.055  0.6938 -0.2129 -0.9730
  326SOL     vw 1304   0.465   6.076   4.115 -0.0997  0.4303 -0.3145
  327SOL     ow 1305   4.504   4.537   1.181 -0.0291  0.1805 -0.1312
  327SOL     hw 1306   4.572   4.582   1.130 -0.4807  1.6922  0.5394
  327SOL     hw 1307   4.520   4.444   1.165  0.9055  0.5532 -1.6379
  327SOL     vw 1308   4.515   4.531   1.172  0.0350  0.4289 -0.2415
  328SOL     ow 1309   3.014   6.732   4.801 -0.0073 -0.0142 -0.3451
  328SOL     hw 1310   2.922   6.730   4.826  0.1686 -2.5243  0.3863
  328SOL     hw 1311   3.027   6.652   4.751  1.9161 -0.0595  0.1449
  328SOL     vw 1312   3.004   6.721   4.798  0.2697 -0.3514 -0.1838
  329SOL     ow 1313   2.820   1.235   2.246 -0.8306  0.4507  0.1952
  329SOL     hw 1314   2.775   1.319   2.248 -1.0319  0.3380  0.4353
  329SOL     hw 1315   2.899   1.248   2.298 -1.4137  0.1808  1.1841
  329SOL     vw 1316   2.824   1.248   2.253 -0.9340  0.4002  0.3575
  330SOL     ow 1317   3.007   7.198   6.576  0.1857 -0.1892  0.2893
  330SOL     hw 1318   3.071   7.266   6.553 -0.5288  0.5739  0.4944
  330SOL     hw 1319   2.938   7.245   6.623 -0.8803 -0.8727 -0.5518
  330SOL     vw 1320   3.006   7.213   6.579 -0.0492 -0.1788  0.2053
  331SOL     ow 1321   6.548   3.812   6.765  0.2774  0.0507  0.3438
  331SOL     hw 1322   6.455   3.816   6.786  0.0544 -0.6749 -0.4717
  331SOL     hw 1323   6.567   3.896   6.723  0.3508  0.8240  1.8477
  331SOL     vw 1324   6.538   3.823   6.762  0.2577  0.0569  0.4346
  332SOL     ow 1325   1.108   5.925   0.738  0.1276  0.2247 -0.2536
  332SOL     hw 1326   1.016   5.915   0.764  0.2087  2.4000  1.1516
  332SOL     hw 1327   1.149   5.843   0.766 -0.7756  0.5382  2.3075
  332SOL     vw 1328   1.101   5.913   0.745  0.0191  0.5527  0.2697
  333SOL     ow 1329   0.511   3.441   4.860 -0.1085  0.3203 -0.1034
  333SOL     hw 1330   0.468   3.363   4.893  0.1897  0.5979  0.9752
  333SOL     hw 1331   0.448   3.512   4.873  0.3243  0.5761  0.6740
  333SOL     vw 1332   0.497   3.440   4.866 -0.0120  0.3905  0.1414
  334SOL     ow 1333   2.241   5.753   7.221 -0.4168 -0.6281  0.0058
  334SOL     hw 1334   2.228   5.710   7.137 -1.5511 -1.0043  0.3568
  334SOL     hw 1335   2.179   5.826   7.222 -0.5821 -0.7668  0.6045
  334SOL     vw 1336   2.231   5.757   7.210 -0.5882 -0.6962  0.1311
  335SOL     ow 1337   3.644   2.865   2.728 -0.4240 -0.0866  0.5079
  335SOL     hw 1338   3.629   2.815   2.648 -2.0918  0.5652  0.3737
  335SOL     hw 1339   3.739   2.873   2.734  0.1060 -4.4808  1.3077
  335SOL     vw 1340   3.654   2.860   2.719 -0.5739 -0.5803  0.5957
  336SOL     ow 1341   3.008   2.720   1.226  0.3001  0.7917 -0.2929
  336SOL     hw 1342   3.104   2.714   1.230  0.2960  1.0689  0.3868
  336SOL     hw 1343   2.982   2.644   1.175  0.7773 -0.2696  0.9811
  336SOL     vw 1344   3.017   2.709   1.220  0.3624  0.6882 -0.0352
  337SOL     ow 1345   0.122   0.209   4.103 -0.3180  0.0688  0.6831
  337SOL     hw 1346   0.084   0.205   4.015 -1.1373 -2.7823  1.0486
  337SOL     hw 1347   0.209   0.169   4.093  0.8389  2.4351  0.6929
  337SOL     vw 1348   0.129   0.203   4.090 -0.2735  0.0048  0.7324
  338SOL     ow 1349   2.091   2.858   1.007 -0.0931  0.1309  0.4968
  338SOL     hw 1350   2.022   2.899   0.955  0.5303  0.5010 -0.0601
  338SOL     hw 1351   2.139   2.804   0.945 -0.2146 -0.5575  0.9963
  338SOL     vw 1352   2.088   2.857   0.992 -0.0267  0.0888  0.4892
  339SOL     ow 1353   6.642   2.794   7.007  0.0852  0.2307  0.1528
  339SOL     hw 1354   6.657   2.822   7.097 -0.2239 -1.1557  0.6587
  339SOL     hw 1355   6.716   2.737   6.986 -1.9599 -3.0225  1.1168
  339SOL     vw 1356   6.654   2.790   7.016 -0.2255 -0.3814  0.3469
  340SOL     ow 1357   5.767   5.217   5.989  0.2477  0.3228 -0.4118
  340SOL     hw 1358   5.822   5.200   6.065 -1.5638 -1.2891  0.6199
  340SOL     hw 1359   5.797   5.154   5.923  0.6471  0.4968 -0.3962
  340SOL     vw 1360   5.778   5.206   5.990  0.0615  0.1330 -0.2735
  341SOL     ow 1361   7.353   0.293   3.010 -0.0100 -0.1315 -0.2328
  341SOL     hw 1362   7.382   0.382   3.029  0.8253 -0.7260  1.5849
  341SOL     hw 1363   7.433   0.246   2.986 -0.1051 -0.8242  0.7394
  341SOL     vw 1364   7.368   0.299   3.009  0.0877 -0.3013  0.1353
  342SOL     ow 1365   5.097   1.485   6.160 -0.1164 -0.5257  0.2950
  342SOL     hw 1366   5.005   1.493   6.136  0.1289  0.0466 -0.4889
  342SOL     hw 1367   5.111   1.557   6.222 -0.6316 -1.7176  1.8445
  342SOL     vw 1368   5.086   1.496   6.165 -0.1521 -0.6074  0.3960
  343SOL     ow 1369   3.765   6.562   6.213 -0.0693  0.3474 -0.3626
  343SOL     hw 1370   3.680   6.527   6.185  0.8382 -1.2074 -1.3156
  343SOL     hw 1371   3.798   6.610   6.137  0.3084  0.1542 -0.3221
  343SOL     vw 1372   3.758   6.564   6.199  0.1003  0.1168 -0.4830
  344SOL     ow 1373   1.646   3.038   6.358 -0.0123  0.2528  0.3233
  344SOL     hw 1374   1.739   3.020   6.346  0.4652  2.0744  0.9853
  344SOL     hw 1375   1.615   2.967   6.415  1.0655 -0.0989  0.4909
  344SOL     vw 1376   1.654   3.026   6.364  0.1929  0.4468  0.4330
  345SOL     ow 1377   1.086   0.020   5.799 -0.3460  0.2693 -0.0422
  345SOL     hw 1378   1.060   0.110   5.818 -2.3019  0.0903 -1.5633
  345SOL     hw 1379   1.181   0.025   5.783 -0.5078  2.1749 -0.6448
  345SOL     vw 1380   1.095   0.032   5.799 -0.6254  0.4971 -0.3226
  346SOL     ow 1381   2.101   4.022   3.996  0.2834 -0.1283  0.3996
  346SOL     hw 1382   2.066   4.106   4.024 -0.6899 -0.6535  0.8060
  346SOL     hw 1383   2.032   3.959   4.016  1.4637 -1.2098  1.2590
  346SOL     vw 1384   2.087   4.025   4.002  0.3107 -0.3402  0.5670
  347SOL     ow 1385   5.704   3.239   7.004  0.1814  0.8377  0.7278
  347SOL     hw 1386   5.703   3.168   6.940  1.7642  0.5743  0.9513
  347SOL     hw 1387   5.691   3.196   7.088  0.6483  0.8611  0.8156
  347SOL     vw 1388   5.702   3.224   7.007  0.4520  0.8060  0.7687
  348SOL     ow 1389   4.704   0.240   6.710 -0.4109  0.4361 -0.1129
  348SOL     hw 1390   4.793   0.270   6.724 -0.6462  0.5635  1.1812
  348SOL     hw 1391   4.650   0.318   6.719 -0.7584  0.1491  0.3497
  348SOL     vw 1392   4.708   0.254   6.713 -0.4880  0.4151  0.1190
  349SOL     ow 1393   4.625   1.565   2.273 -0.4570  0.1089  0.6377
  349SOL     hw 1394   4.719   1.551   2.265  0.4269  5.0390 -0.4883
  349SOL     hw 1395   4.587   1.522   2.196  1.2228  0.2966 -0.3350
  349SOL     vw 1396   4.632   1.557   2.262 -0.1185  0.7842  0.3607
  350SOL     ow 1397   2.966   2.650   3.397 -0.8400 -0.7658 -0.6402
  350SOL     hw 1398   3.030   2.673   3.465 -0.6856  2.0745 -1.6161
  350SOL     hw 1399   2.882   2.679   3.433 -0.9902 -0.7352 -1.0200
  350SOL     vw 1400   2.963   2.657   3.411 -0.8395 -0.3871 -0.8190
  351SOL     ow 1401   0.620   4.675   1.345  0.0745  0.2546 -0.3158
  351SOL     hw 1402   0.688   4.623   1.303  0.6766 -1.0481  2.0474
  351SOL     hw 1403   0.667   4.745   1.391 -0.1625 -0.4304  1.0229
  351SOL     vw 1404   0.635   4.677   1.346  0.1227 -0.0076  0.1726
  352SOL     ow 1405   1.597   3.005   1.294 -0.1308 -0.0027 -0.0491
  352SOL     hw 1406   1.682   3.000   1.338 -0.6047 -1.3872  0.8017
  352SOL     hw 1407   1.611   2.966   1.208 -0.1012 -1.1803  0.4683
  352SOL     vw 1408   1.610   2.999   1.289 -0.1894 -0.3408  0.1315
  353SOL     ow 1409   1.721   6.094   4.700 -0.9261 -0.1955 -0.1082
  353SOL     hw 1410   1.693   6.049   4.620  0.2899  0.0821 -0.7072
  353SOL     hw 1411   1.695   6.185   4.686  4.3174  1.2192 -2.8786
  353SOL     vw 1412   1.714   6.100   4.688 -0.0739  0.0274 -0.5527
  354SOL     ow 1413   0.079   3.459   7.093 -0.5399  0.7984  0.6645
  354SOL     hw 1414  -0.004   3.481   7.051  0.3866  0.2863 -1.5930
  354SOL     hw 1415   0.081   3.364   7.093  1.5783  0.6525 -2.9048
  354SOL     vw 1416   0.069   3.450   7.087 -0.1382  0.7116 -0.1042
  355SOL     ow 1417   7.206   3.310   4.379 -0.7263  0.2458 -0.7060
  355SOL     hw 1418   7.234   3.369   4.448 -1.7635 -0.2138  0.1437
  355SOL     hw 1419   7.113   3.331   4.366 -0.0975  1.8902 -3.5743
  355SOL     vw 1420   7.197   3.320   4.386 -0.7799  0.4020 -0.9723
  356SOL     ow 1421   6.979   3.904   5.693 -0.2505 -0.5582  0.2586
  356SOL     hw 1422   7.047   3.960   5.655 -2.4779 -0.2184 -3.8377
  356SOL     hw 1423   7.004   3.815   5.669 -1.2215 -0.4167 -1.4323
  356SOL     vw 1424   6.991   3.899   5.685 -0.6726 -0.4946 -0.5047
  357SOL     ow 1425   3.910   0.394   4.661 -0.0150 -0.2020  0.3847
  357SOL     hw 1426   3.948   0.480   4.642  1.3331 -0.7788  0.3419
  357SOL     hw 1427   3.882   0.400   4.753 -1.3726  0.7607 -0.0530
  357SOL     vw 1428   3.911   0.406   4.671 -0.0162 -0.1511  0.3214
  358SOL     ow 1429   3.593   2.096   5.882 -0.1288 -0.1841 -0.2190
  358SOL     hw 1430   3.608   2.106   5.788  1.7937 -2.3187 -0.2224
  358SOL     hw 1431   3.674   2.126   5.923 -0.9878  0.8324  0.7855
  358SOL     vw 1432   3.606   2.101   5.875  0.0116 -0.3318 -0.0868
  359SOL     ow 1433   2.568   7.545   6.275 -0.3540 -0.2537 -0.0280
  359SOL     hw 1434   2.593   7.515   6.188  0.4688  1.9983 -0.6534
  359SOL     hw 1435   2.634   7.507   6.333  2.9941  3.0009 -1.2556
  359SOL     vw 1436   2.580   7.536   6.271  0.1962  0.4733 -0.2723
  360SOL     ow 1437   2.336   3.468   7.220 -0.0472  0.4349  0.2243
  360SOL     hw 1438   2.321   3.562   7.215  0.1289  0.4782  0.4888
  360SOL     hw 1439   2.426   3.460   7.251 -0.1384  0.1796  0.4251
  360SOL     vw 1440   2.346   3.479   7.223 -0.0360  0.4070  0.2856
  361SOL     ow 1441   4.935   6.722   6.717 -0.1122  0.7829  0.1756
  361SOL     hw 1442   5.004   6.700   6.780  1.0419  0.0493 -1.2778
  361SOL     hw 1443   4.979   6.772   6.648 -0.2723 -2.1367 -2.2777
  361SOL     vw 1444   4.950   6.726   6.716  0.0188  0.3011 -0.3400
  362SOL     ow 1445   6.757   6.706   2.331 -0.5085  0.2482  0.1140
  362SOL     hw 1446   6.732   6.755   2.409  0.3408  0.2545  0.3966
  362SOL     hw 1447   6.823   6.643   2.363 -0.8948 -0.4326 -0.4109
  362SOL     vw 1448   6.763   6.704   2.346 -0.4475  0.1593  0.0820
  363SOL     ow 1449   6.947   1.759   4.481 -0.0017 -0.2093  0.3381
  363SOL     hw 1450   7.007   1.810   4.535 -1.0532  1.0448  0.3569
  363SOL     hw 1451   6.990   1.753   4.396  0.2131  0.5759  0.3883
  363SOL     vw 1452   6.960   1.765   4.477 -0.1121  0.0598  0.3474
  364SOL     ow 1453   3.485   1.375   5.421  0.2568 -0.2322 -0.1524
  364SOL     hw 1454   3.492   1.467   5.396  0.8276 -0.1715  0.2357
  364SOL     hw 1455   3.396   1.367   5.455  0.8602  0.6792  1.8085
  364SOL     vw 1456   3.474   1.386   5.422  0.4116 -0.1040  0.1574
  365SOL     ow 1457   0.405   0.746   7.623 -0.2184  0.2424  0.0152
  365SOL     hw 1458   0.328   0.702   7.587 -0.3427 -2.5546  3.2019
  365SOL     hw 1459   0.386   0.840   7.613 -1.9288 -0.2822 -3.2191
  365SOL     vw 1460   0.393   0.753   7.617 -0.4604 -0.1959  0.0088
  366SOL     ow 1461   2.178   4.581   2.502  1.0418 -0.1006  0.0538
  366SOL     hw 1462   2.180   4.593   2.407  0.1500  1.4503  0.1938
  366SOL     hw 1463   2.217   4.661   2.537  1.4212 -0.6844  1.0004
  366SOL     vw 1464   2.184   4.593   2.494  0.9743  0.0274  0.1973
  367SOL     ow 1465   2.452   2.904   3.779 -0.1904 -0.0958 -0.4594
  367SOL     hw 1466   2.537   2.946   3.791  1.3904 -2.6995 -1.7125
  367SOL     hw 1467   2.459   2.822   3.828 -0.5191 -2.0724 -3.4487
  367SOL     vw 1468   2.464   2.899   3.787 -0.0252 -0.7000 -1.0190
  368SOL     ow 1469   2.091   5.250   4.510  0.0678  0.0613 -0.2130
  368SOL     hw 1470   2.067   5.202   4.589  0.0897  0.8734  0.2988
  368SOL     hw 1471   2.179   5.219   4.489  0.7049  0.9669  0.9930
  368SOL     vw 1472   2.099   5.239   4.518  0.1547  0.2878  0.0134
  369SOL     ow 1473   0.774   3.813   4.430 -0.6052 -0.0254 -0.4805
  369SOL     hw 1474   0.791   3.903   4.459 -1.0512  0.5869 -2.0380
  369SOL     hw 1475   0.691   3.819   4.383 -0.6156 -1.2647 -0.6396
  369SOL     vw 1476   0.765   3.826   4.428 -0.6654 -0.1082 -0.7069
  370SOL     ow 1477   3.837   6.846   5.769  0.2995  0.3191  0.0404
  370SOL     hw 1478   3.913   6.801   5.733  0.9605  2.0381 -0.8412
  370SOL     hw 1479   3.870   6.933   5.793 -1.1387  0.7106  0.7083
  370SOL     vw 1480   3.851   6.851   5.767  0.1971  0.5977  0.0124
  371SOL     ow 1481   3.925   5.415   0.905 -0.5429 -0.5227  0.0667
  371SOL     hw 1482   3.990   5.453   0.964  0.1850 -0.4968 -0.7335
  371SOL     hw 1483   3.960   5.328   0.884 -0.6574 -0.4206 -0.5425
  371SOL     vw 1484   3.938   5.409   0.910 -0.4619 -0.5057 -0.1193
  372SOL     ow 1485   5.715   0.855   6.841 -0.3268 -0.1681 -0.2325
  372SOL     hw 1486   5.719   0.865   6.746 -0.6648  2.5187 -0.0443
  372SOL     hw 1487   5.701   0.944   6.874  1.3746 -0.7630  2.4421
  372SOL     vw 1488   5.714   0.868   6.833 -0.1469  0.1079  0.1452
  373SOL     ow 1489   0.400   0.287   7.362  0.3404  0.1412  0.0493
  373SOL     hw 1490   0.407   0.194   7.385 -1.2588 -0.3430 -1.2394
  373SOL     hw 1491   0.316   0.315   7.397 -0.2863  0.4440 -1.6134
  373SOL     vw 1492   0.390   0.278   7.369  0.0467  0.1173 -0.3402
  374SOL     ow 1493   5.826   1.178   3.074 -0.1250  0.3222  0.4618
  374SOL     hw 1494   5.837   1.118   3.147  2.6966  0.2546  0.0925
  374SOL     hw 1495   5.803   1.122   2.999  0.1130  0.0014  0.6282
  374SOL     vw 1496   5.824   1.163   3.073  0.2787  0.2710  0.4350
  375SOL     ow 1497   0.561   7.147   4.829  0.2203  0.0542  0.3278
  375SOL     hw 1498   0.539   7.214   4.764  0.9783  0.5349  0.5484
  375SOL     hw 1499   0.571   7.196   4.911  0.1542 -0.4226  0.6265
  375SOL     vw 1500   0.559   7.163   4.831  0.3116  0.0546  0.3963
  376SOL     ow 1501   1.882   1.460   6.565 -0.4789  0.3603  0.0609
  376SOL     hw 1502   1.934   1.442   6.487 -1.1763  0.9796 -0.5578
  376SOL     hw 1503   1.802   1.410   6.553 -0.8245  0.8874  0.1093
  376SOL     vw 1504   1.879   1.451   6.553 -0.6166  0.5115 -0.0143
  377SOL     ow 1505   6.548   3.083   0.928  0.1224 -0.0940  0.5468
  377SOL     hw 1506   6.518   3.111   0.841 -1.4452  1.4108  1.5008
  377SOL     hw 1507   6.469   3.058   0.974  0.1915  3.3266  2.9305
  377SOL     vw 1508   6.534   3.084   0.923 -0.0753  0.5558  0.9872
  378SOL     ow 1509   2.985   3.796   1.543  0.3995 -0.3493  0.0688
  378SOL     hw 1510   2.987   3.769   1.635  5.5187 -1.3487  0.0054
  378SOL     hw 1511   3.000   3.715   1.494  2.4022  0.6736 -1.1793
  378SOL     vw 1512   2.988   3.782   1.549  1.3392 -0.3462 -0.1042
  379SOL     ow 1513   5.049   4.979   2.951  0.3333 -0.1449 -0.0481
  379SOL     hw 1514   4.965   4.934   2.945  0.2325  0.2292 -2.2252
  379SOL     hw 1515   5.113   4.913   2.925  0.1773  0.8539 -3.3532
  379SOL     vw 1516   5.046   4.964   2.947  0.2992  0.0362 -0.7713
  380SOL     ow 1517   0.231   1.276   6.667 -0.0759  0.3667  0.5648
  380SOL     hw 1518   0.201   1.210   6.729 -0.7343  1.5533  1.5549
  380SOL     hw 1519   0.212   1.239   6.581 -1.5867 -0.2044  1.1203
  380SOL     vw 1520   0.225   1.262   6.664 -0.3621  0.4479  0.7687
  381SOL     ow 1521   5.370   3.867   6.038 -0.5629  0.7328  0.0440
  381SOL     hw 1522   5.381   3.936   6.103 -2.5085  2.2347 -1.1135
  381SOL     hw 1523   5.450   3.871   5.985 -0.5481  1.9804  0.1305
  381SOL     vw 1524   5.382   3.876   6.040 -0.8175  1.0954 -0.0975
  382SOL     ow 1525   5.366   0.037   5.176 -0.7965 -0.2795 -0.4662
  382SOL     hw 1526   5.304   0.041   5.103 -1.2367 -0.7515 -0.1274
  382SOL     hw 1527   5.315   0.003   5.249 -0.1426 -0.6610 -0.1743
  382SOL     vw 1528   5.351   0.033   5.176 -0.7684 -0.3922 -0.3829
  383SOL     ow 1529   2.267   1.208   5.310 -0.2313 -0.0031 -0.4142
  383SOL     hw 1530   2.174   1.204   5.332  0.1428  0.1843  1.3093
  383SOL     hw 1531   2.310   1.148   5.372  0.6360 -1.5707 -2.3854
  383SOL     vw 1532   2.261   1.199   5.321 -0.0676 -0.1853 -0.4468
  384SOL     ow 1533   2.094   4.336   7.459 -0.0609  0.4651 -0.0321
  384SOL     hw 1534   2.002   4.314   7.473 -0.0442 -0.0172 -0.6028
  384SOL     hw 1535   2.122   4.376   7.541 -0.4517 -0.4992  0.5915
  384SOL     vw 1536   2.086   4.338   7.472 -0.1101  0.2742 -0.0250
  385SOL     ow 1537   4.466   6.386   1.777 -0.5966  0.3967 -0.9955
  385SOL     hw 1538   4.415   6.467   1.780  0.2411  0.9117 -0.2264
  385SOL     hw 1539   4.556   6.414   1.795 -0.4061 -0.7808 -0.0085
  385SOL     vw 1540   4.471   6.401   1.780 -0.4611  0.3095 -0.7638
  386SOL     ow 1541   5.646   4.960   5.790 -0.1617  0.3662 -0.6898
  386SOL     hw 1542   5.655   4.892   5.857 -0.7594 -0.2090 -1.1792
  386SOL     hw 1543   5.725   4.953   5.737 -0.0617  0.2873 -0.5325
  386SOL     vw 1544   5.657   4.950   5.792 -0.2275  0.2801 -0.7339
  387SOL     ow 1545   1.142   3.728   2.343  0.5930  0.4315  0.6985
  387SOL     hw 1546   1.199   3.802   2.365  0.0829  1.0189  0.1217
  387SOL     hw 1547   1.189   3.682   2.274  1.4182 -0.4394  1.8039
  387SOL     vw 1548   1.156   3.732   2.337  0.6346  0.3942  0.7682
  388SOL     ow 1549   3.754   7.218   6.842  0.1111  0.6501  0.1184
  388SOL     hw 1550   3.787   7.140   6.886  2.7922  1.2325 -0.6813
  388SOL     hw 1551   3.679   7.245   6.895 -0.2618 -1.8383  0.9993
  388SOL     vw 1552   3.748   7.211   6.855  0.4156  0.3986  0.1290
  389SOL     ow 1553   3.197   5.580   7.447 -0.0325  0.0434 -0.4500
  389SOL     hw 1554   3.107   5.613   7.440 -0.7045 -1.4500  0.5743
  389SOL     hw 1555   3.201   5.540   7.534  1.8522  0.6921 -0.2039
  389SOL     vw 1556   3.186   5.579   7.457  0.1274 -0.0677 -0.2823
  390SOL     ow 1557   2.788   0.080   6.075  0.0818  0.4473  0.8025
  390SOL     hw 1558   2.877   0.106   6.050  0.3875 -1.6459 -0.5360
  390SOL     hw 1559   2.775   0.120   6.161  2.9585 -0.4745  1.7818
  390SOL     vw 1560   2.798   0.089   6.083  0.5016  0.0495  0.7555
  391SOL     ow 1561   6.004   4.047   1.296 -0.0141 -0.6128  0.4268
  391SOL     hw 1562   6.063   3.973   1.308  0.7906  0.0039  0.3392
  391SOL     hw 1563   5.984   4.077   1.385  0.9675  0.0757  0.4248
  391SOL     vw 1564   6.009   4.041   1.309  0.2215 -0.4408  0.4149
  392SOL     ow 1565   4.775   2.420   7.124  0.2576 -0.4286 -0.1806
  392SOL     hw 1566   4.857   2.445   7.081  1.1932 -0.4304  1.5074
  392SOL     hw 1567   4.788   2.329   7.150  0.1432 -0.1226  0.9985
  392SOL     vw 1568   4.788   2.411   7.121  0.3657 -0.3885  0.1976
  393SOL     ow 1569   3.929   7.106   2.066 -0.7275  0.7729  0.5989
  393SOL     hw 1570   3.945   7.070   2.153  0.3569 -1.2031 -0.3520
  393SOL     hw 1571   3.835   7.097   2.053 -1.3685  3.4904  2.4985
  393SOL     vw 1572   3.919   7.100   2.076 -0.6690  0.8707  0.7241
  394SOL     ow 1573   7.628   5.433   3.052  0.4737 -0.3825 -0.7706
  394SOL     hw 1574   7.550   5.460   3.100  2.0948 -0.6139  2.2482
  394SOL     hw 1575   7.605   5.444   2.960 -2.7120  0.5534  0.0263
  394SOL     vw 1576   7.615   5.438   3.046  0.2673 -0.2897 -0.2673
  395SOL     ow 1577   3.426   7.496   5.549 -0.2220  0.6363 -0.3100
  395SOL     hw 1578   3.477   7.461   5.622 -1.1686  1.7852  0.9516
  395SOL     hw 1579   3.487   7.553   5.503 -0.4663  2.6360  1.6540
  395SOL     vw 1580   3.441   7.499   5.553 -0.3790  1.0519  0.1154
  396SOL     ow 1581   1.071   6.939   1.343 -0.5098  0.4081  0.2979
  396SOL     hw 1582   1.099   6.851   1.367  0.3223  0.1155 -1.5173
  396SOL     hw 1583   1.082   6.991   1.422 -4.0136 -1.6716  2.4126
  396SOL     vw 1584   1.076   6.934   1.356 -0.8622  0.0954  0.3374
  397SOL     ow 1585   1.878   3.574   6.195 -0.2239 -0.1787 -0.4847
  397SOL     hw 1586   1.891   3.522   6.115 -3.0058 -0.4472 -0.8409
  397SOL     hw 1587   1.940   3.647   6.185 -0.4481 -0.2281 -2.8908
  397SOL     vw 1588   1.888   3.577   6.183 -0.6206 -0.2209 -0.8492
  398SOL     ow 1589   0.301   5.342   0.269  0.8382 -0.2358 -0.2310
  398SOL     hw 1590   0.211   5.321   0.244  0.4796  1.2746 -0.2586
  398SOL     hw 1591   0.344   5.256   0.277 -1.0921 -1.1175  1.6843
  398SOL     vw 1592   0.295   5.328   0.267  0.5362 -0.1531  0.0181
  399SOL     ow 1593   7.179   0.214   2.471  0.2426 -0.0188  0.4416
  399SOL     hw 1594   7.129   0.219   2.390 -0.0968  0.3991  0.6745
  399SOL     hw 1595   7.153   0.130   2.510  0.9848 -0.5849 -0.2476
  399SOL     vw 1596   7.169   0.203   2.465  0.2954 -0.0384  0.3816
  400SOL     ow 1597   5.679   1.314   4.901 -0.1479 -0.2821 -0.6580
  400SOL     hw 1598   5.619   1.268   4.960  1.1477  1.4761  2.2893
  400SOL     hw 1599   5.629   1.391   4.872  0.0324  0.2230  0.3220
  400SOL     vw 1600   5.664   1.318   4.905  0.0467  0.0166 -0.1397
  401SOL     ow 1601   1.846   4.441   2.933  0.1730  0.9609 -0.1885
  401SOL     hw 1602   1.786   4.426   2.860 -0.9257 -2.1530  1.2088
  401SOL     hw 1603   1.831   4.368   2.993  3.6526  1.3711  1.4343
  401SOL     vw 1604   1.836   4.430   2.931  0.4871  0.6042  0.2099
  402SOL     ow 1605   2.131   7.543   1.131  0.6353  0.0010 -0.2788
  402SOL     hw 1606   2.221   7.546   1.164  1.0548 -0.5967 -1.2907
  402SOL     hw 1607   2.122   7.622   1.079  0.1002  0.7529  0.9171
  402SOL     vw 1608   2.142   7.554   1.128  0.6201  0.0215 -0.2545
  403SOL     ow 1609   7.143   4.224   2.348  0.0259  0.0596  0.1533
  403SOL     hw 1610   7.055   4.217   2.311 -0.5521 -1.0363  1.6038
  403SOL     hw 1611   7.137   4.296   2.412 -0.0261 -0.4588  0.7434
  403SOL     vw 1612   7.130   4.233   2.352 -0.0570 -0.1533  0.4226
  404SOL     ow 1613   2.786   0.954   2.909  0.4700 -0.4036 -0.2781
  404SOL     hw 1614   2.694   0.973   2.893  0.3088 -0.9087  0.0163
  404SOL     hw 1615   2.825   0.951   2.822  0.8900  2.9292 -0.3475
  404SOL     vw 1616   2.779   0.956   2.896  0.5041 -0.0305 -0.2486
  405SOL     ow 1617   2.377   0.682   5.896  0.0978 -0.1730  0.0088
  405SOL     hw 1618   2.470   0.676   5.915 -0.3580  1.3550  3.5483
  405SOL     hw 1619   2.334   0.635   5.968 -1.8365  2.6445  0.9037
  405SOL     vw 1620   2.383   0.675   5.908 -0.2176  0.4003  0.5939
  406SOL     ow 1621   0.870   2.322   3.848  0.5492 -0.2292 -0.0798
  406SOL     hw 1622   0.905   2.256   3.908 -1.5640 -0.6500  0.7496
  406SOL     hw 1623   0.910   2.404   3.877 -1.3480 -0.1820  2.8137
  406SOL     vw 1624   0.880   2.324   3.860  0.0201 -0.2785  0.4114
  407SOL     ow 1625   3.970   0.234   5.228  0.1129 -0.1497 -0.2254
  407SOL     hw 1626   3.987   0.328   5.229  1.9827 -0.4465 -0.9054
  407SOL     hw 1627   4.004   0.202   5.312  1.6353 -0.5107 -0.9330
  407SOL     vw 1628   3.977   0.242   5.239  0.5604 -0.2365 -0.4084
  408SOL     ow 1629   4.242   3.262   4.013 -0.8203  0.0807 -0.1002
  408SOL     hw 1630   4.231   3.241   3.920 -2.0582  2.4021 -0.5418
  408SOL     hw 1631   4.336   3.255   4.028 -0.8160 -2.7204 -0.8597
  408SOL     vw 1632   4.253   3.258   4.002 -0.9832  0.0173 -0.2589
  409SOL     ow 1633   2.198   5.733   5.268  0.5015  0.4329 -0.1023
  409SOL     hw 1634   2.200   5.825   5.294  0.0416  0.6290 -0.7173
  409SOL     hw 1635   2.151   5.689   5.339  2.4567  0.3008  1.1946
  409SOL     vw 1636   2.192   5.740   5.281  0.6988  0.4411 -0.0126
  410SOL     ow 1637   4.219   4.926   1.749  0.1483 -0.7353 -0.3728
  410SOL     hw 1638   4.311   4.946   1.731 -0.5049  1.8683 -1.2309
  410SOL     hw 1639   4.217   4.907   1.843  1.2409  1.7135  0.2205
  410SOL     vw 1640   4.231   4.926   1.759  0.2060 -0.0691 -0.4078
  411SOL     ow 1641   4.673   7.560   5.401  0.3965 -0.5364  0.2581
  411SOL     hw 1642   4.760   7.568   5.440  0.3272  1.7318  0.0711
  411SOL     hw 1643   4.643   7.650   5.391 -0.8377 -1.1467 -2.2498
  411SOL     vw 1644   4.681   7.573   5.405  0.2244 -0.3178 -0.0973
  412SOL     ow 1645   7.114   0.117   6.707  0.2140 -0.0848 -0.2316
  412SOL     hw 1646   7.035   0.132   6.760 -0.8149 -0.5898 -1.5576
  412SOL     hw 1647   7.154   0.203   6.698 -0.3049  0.2170  0.2827
  412SOL     vw 1648   7.109   0.130   6.713  0.0095 -0.1116 -0.3386
  413SOL     ow 1649   7.593   0.998   3.106 -0.3369 -0.0988 -0.1115
  413SOL     hw 1650   7.573   1.001   3.200  0.9642 -4.0744  0.4620
  413SOL     hw 1651   7.685   0.972   3.102  0.1884  1.7159 -2.5855
  413SOL     vw 1652   7.603   0.995   3.118 -0.0961 -0.3839 -0.3623
  414SOL     ow 1653   0.373   4.740   5.903 -0.1524  0.2917 -0.6210
  414SOL     hw 1654   0.366   4.660   5.852  1.4151 -0.0800 -0.3287
  414SOL     hw 1655   0.306   4.732   5.971 -1.4879  0.2711 -1.8958
  414SOL     vw 1656   0.364   4.729   5.905 -0.1218  0.2398 -0.7505
  415SOL     ow 1657   0.865   0.573   3.101  0.2726 -0.9226  0.1136
  415SOL     hw 1658   0.838   0.558   3.192 -0.0927  2.4675  0.7115
  415SOL     hw 1659   0.939   0.633   3.107 -1.3556  1.5345 -1.7307
  415SOL     vw 1660   0.871   0.579   3.114  0.0096 -0.1512 -0.0509
  416SOL     ow 1661   0.737   7.266   3.626  0.0420 -0.0004  0.3203
  416SOL     hw 1662   0.773   7.225   3.705  0.0834  1.3136  0.9978
  416SOL     hw 1663   0.811   7.315   3.589 -1.0163  2.9182  1.8483
  416SOL     vw 1664   0.752   7.267   3.631 -0.0921  0.5581  0.6113
  417SOL     ow 1665   6.250   0.269   0.557  0.3002  0.2450  0.0917
  417SOL     hw 1666   6.291   0.355   0.548  0.9907 -0.0349  0.4658
  417SOL     hw 1667   6.269   0.224   0.475  0.1115  0.3785 -0.0250
  417SOL     vw 1668   6.258   0.274   0.545  0.3662  0.2257  0.1256
  418SOL     ow 1669   1.425   2.474   2.846 -0.5486  0.4041 -0.4940
  418SOL     hw 1670   1.386   2.410   2.905 -3.1758  1.7139 -0.6537
  418SOL     hw 1671   1.518   2.475   2.869 -0.9836 -1.2042  1.6060
  418SOL     vw 1672   1.432   2.466   2.857 -0.9526  0.3648 -0.2379
  419SOL     ow 1673   1.809   6.264   5.486 -0.0343 -0.3960  0.0211
  419SOL     hw 1674   1.837   6.241   5.398 -0.4101 -0.1656 -0.1578
  419SOL     hw 1675   1.833   6.356   5.496 -0.5899 -0.2382 -0.0799
  419SOL     vw 1676   1.816   6.273   5.476 -0.1572 -0.3448 -0.0160
  420SOL     ow 1677   7.358   6.290   2.052 -0.8662  0.0134  0.8820
  420SOL     hw 1678   7.392   6.357   1.993 -1.8513 -0.9221 -0.8385
  420SOL     hw 1679   7.429   6.226   2.059 -0.9656 -0.1824  0.1718
  420SOL     vw 1680   7.372   6.290   2.045 -1.0092 -0.1354  0.5614
  421SOL     ow 1681   2.654   3.656   6.513  0.5981 -0.0180 -0.2085
  421SOL     hw 1682   2.702   3.611   6.444  0.4973 -0.8871  0.2782
  421SOL     hw 1683   2.688   3.746   6.510  1.6240 -0.3937 -0.4495
  421SOL     vw 1684   2.665   3.662   6.504  0.7203 -0.1823 -0.1762
  422SOL     ow 1685   4.519   3.510   2.828  0.4355 -0.2957  0.1107
  422SOL     hw 1686   4.604   3.511   2.873  0.6150  1.9097 -0.1842
  422SOL     hw 1687   4.539   3.533   2.738 -0.4053 -0.5936 -0.1602
  422SOL     vw 1688   4.533   3.513   2.822  0.3481 -0.0440  0.0360
  423SOL     ow 1689   0.095   1.556   6.674 -0.7725  0.1753 -0.7658
  423SOL     hw 1690   0.066   1.612   6.602 -0.2152 -0.7753 -1.7568
  423SOL     hw 1691   0.030   1.485   6.677 -0.6035  0.0275 -0.5573
  423SOL     vw 1692   0.082   1.554   6.665 -0.6766  0.0303 -0.8693
  424SOL     ow 1693   5.356   3.935   2.415  0.6725 -0.4362  0.8314
  424SOL     hw 1694   5.405   3.925   2.333 -2.2187  0.2310 -1.1271
  424SOL     hw 1695   5.409   3.996   2.466  1.2950  1.3771 -1.7367
  424SOL     vw 1696   5.369   3.942   2.411  0.3731 -0.1090  0.2341
  425SOL     ow 1697   4.350   6.875   3.354  0.3397 -0.1568  0.6249
  425SOL     hw 1698   4.326   6.788   3.323  0.1998  0.3600 -0.7739
  425SOL     hw 1699   4.306   6.883   3.439  0.6787 -1.5780  0.9700
  425SOL     vw 1700   4.341   6.865   3.361  0.3662 -0.2761  0.4860
  426SOL     ow 1701   5.549   1.187   5.098  0.0282  0.3458 -0.3848
  426SOL     hw 1702   5.464   1.195   5.141 -0.3464 -1.9587 -0.5221
  426SOL     hw 1703   5.611   1.227   5.159 -0.9273  0.3334  0.6222
  426SOL     vw 1704   5.546   1.193   5.112 -0.1476  0.0401 -0.2699
  427SOL     ow 1705   5.618   1.947   0.396 -0.0143 -0.2320  0.9383
  427SOL     hw 1706   5.650   1.954   0.486  0.4162 -0.2136  0.7869
  427SOL     hw 1707   5.526   1.921   0.405  0.1435 -0.6546  1.3749
  427SOL     vw 1708   5.610   1.944   0.409  0.0632 -0.2853  0.9759
  428SOL     ow 1709   2.475   7.439   4.876 -0.7698  0.2930 -0.4878
  428SOL     hw 1710   2.419   7.369   4.908 -0.4941  0.1072 -0.4093
  428SOL     hw 1711   2.474   7.429   4.780 -2.1442  1.2694 -0.5963
  428SOL     vw 1712   2.467   7.429   4.867 -0.9148  0.3977 -0.4919
  429SOL     ow 1713   0.880   3.533   5.237 -0.0365 -0.3473  0.3406
  429SOL     hw 1714   0.975   3.533   5.232 -0.0504 -1.4213 -0.4778
  429SOL     hw 1715   0.855   3.624   5.221  0.8663  0.1100  1.4032
  429SOL     vw 1716   0.889   3.545   5.234  0.0808 -0.4287  0.3729
  430SOL     ow 1717   7.415   3.681   3.944 -0.2229  0.3206  0.1569
  430SOL     hw 1718   7.511   3.676   3.938 -0.0724  1.9489  0.7514
  430SOL     hw 1719   7.384   3.645   3.861  0.9375  0.5143 -0.3812
  430SOL     vw 1720   7.424   3.675   3.933 -0.0503  0.5611  0.1645
  431SOL     ow 1721   5.702   1.107   6.899  1.2164  0.2772 -0.2485
  431SOL     hw 1722   5.720   1.190   6.855  0.1493  0.7921  0.2635
  431SOL     hw 1723   5.666   1.131   6.984  2.5512 -0.7187  0.6403
  431SOL     vw 1724   5.699   1.121   6.904  1.2517  0.2137 -0.0639
  432SOL     ow 1725   1.900   6.640   7.260 -0.8776 -0.2019 -0.1694
  432SOL     hw 1726   1.834   6.652   7.191 -1.0456  0.0102  0.0248
  432SOL     hw 1727   1.876   6.705   7.327  0.4094  0.9379 -0.7634
  432SOL     vw 1728   1.888   6.650   7.260 -0.7300 -0.0234 -0.2220
  433SOL     ow 1729   6.642   3.029   6.313 -0.4256 -0.1680 -0.4869
  433SOL     hw 1730   6.722   3.078   6.335 -1.3495  1.4284 -0.5650
  433SOL     hw 1731   6.663   2.939   6.338  0.8401  0.4749  1.0119
  433SOL     vw 1732   6.655   3.024   6.319 -0.3803  0.1274 -0.2995
  434SOL     ow 1733   1.416   3.356   2.015 -0.1354  0.3069 -0.1254
  434SOL     hw 1734   1.470   3.305   2.075  1.2086  0.7888 -0.8911
  434SOL     hw 1735   1.475   3.379   1.943 -1.6015  0.0018 -1.4973
  434SOL     vw 1736   1.431   3.352   2.013 -0.1515  0.3302 -0.4075
  435SOL     ow 1737   0.386   3.083   6.207  0.2228 -1.0735 -0.3048
  435SOL     hw 1738   0.308   3.032   6.228 -0.1466 -0.4324 -0.1021
  435SOL     hw 1739   0.353   3.155   6.153  0.5419 -0.3179  0.4905
  435SOL     vw 1740   0.371   3.085   6.202  0.2162 -0.8891 -0.1733
  436SOL     ow 1741   4.392   3.486   4.876  0.1866  0.3064  0.1331
  436SOL     hw 1742   4.386   3.397   4.911 -1.1378 -1.1658 -3.3656
  436SOL     hw 1743   4.483   3.495   4.850  0.3239 -0.0324  0.4807
  436SOL     vw 1744   4.403   3.475   4.877  0.0300  0.0676 -0.2830
  437SOL     ow 1745   6.339   5.082   2.593  0.1782 -0.0331 -0.1127
  437SOL     hw 1746   6.262   5.046   2.549  0.1077 -1.2790  0.9872
  437SOL     hw 1747   6.408   5.079   2.527 -0.3924 -0.0923 -0.7133
  437SOL     vw 1748   6.338   5.077   2.578  0.0935 -0.2055 -0.0468
  438SOL     ow 1749   4.861   1.490   6.444 -0.3072  0.0268  0.1224
  438SOL     hw 1750   4.876   1.584   6.434  0.1574  0.4957  3.8936
  438SOL     hw 1751   4.942   1.457   6.484 -0.9252 -1.7481 -0.0168
  438SOL     vw 1752   4.874   1.498   6.448 -0.3273 -0.1456  0.6015
  439SOL     ow 1753   4.803   5.696   0.817 -0.0542 -0.3444 -0.4189
  439SOL     hw 1754   4.846   5.770   0.773  0.9731  1.1804  2.8510
  439SOL     hw 1755   4.717   5.692   0.776 -0.4151  3.1443 -0.3330
  439SOL     vw 1756   4.798   5.705   0.806  0.0339  0.3171  0.0238
  440SOL     ow 1757   2.210   0.121   4.196 -0.1084  0.4843  0.3909
  440SOL     hw 1758   2.186   0.036   4.232  0.5408  1.2035  2.6612
  440SOL     hw 1759   2.126   0.164   4.178 -0.6505  1.2749  4.0895
  440SOL     vw 1760   2.196   0.115   4.198 -0.0943  0.6835  1.1785
  441SOL     ow 1761   1.814   2.810   3.121 -0.1499 -0.3961  0.3177
  441SOL     hw 1762   1.870   2.784   3.194  0.8125  2.9143  0.9468
  441SOL     hw 1763   1.724   2.803   3.155  0.2476  0.3165  1.5546
  441SOL     vw 1764   1.809   2.806   3.135  0.0295  0.1346  0.5640
  442SOL     ow 1765   5.885   4.501   4.001 -0.4921  0.0877 -0.0448
  442SOL     hw 1766   5.815   4.487   4.065  0.7106 -1.5349  0.9863
  442SOL     hw 1767   5.840   4.506   3.917 -1.8662 -0.6410  0.6190
  442SOL     vw 1768   5.870   4.500   3.999 -0.5147 -0.2224  0.1787
  443SOL     ow 1769   1.249   7.010   6.751 -0.7174 -0.3206 -0.2252
  443SOL     hw 1770   1.333   6.984   6.713 -0.1743 -0.8340  1.2293
  443SOL     hw 1771   1.185   6.951   6.711  0.2575 -2.8873  1.7023
  443SOL     vw 1772   1.252   6.999   6.741 -0.5171 -0.7272  0.2208
  444SOL     ow 1773   2.744   2.193   4.126  0.7055  0.2397  0.2606
  444SOL     hw 1774   2.789   2.226   4.048  3.4180 -1.2303  1.0701
  444SOL     hw 1775   2.789   2.235   4.199  2.8426 -3.3249  1.2330
  444SOL     vw 1776   2.756   2.203   4.125  1.3453 -0.4246  0.4957
  445SOL     ow 1777   5.880   3.674   6.755 -0.3496  0.0057  0.6077
  445SOL     hw 1778   5.938   3.737   6.713 -1.1523  0.7181  0.5515
  445SOL     hw 1779   5.824   3.641   6.684 -2.8135  2.4038  1.2784
  445SOL     vw 1780   5.880   3.678   6.740 -0.7808  0.4160  0.6888
  446SOL     ow 1781   7.434   4.084   2.321 -0.5567  0.2771  0.0761
  446SOL     hw 1782   7.490   4.020   2.277 -0.2191 -0.5587  1.6285
  446SOL     hw 1783   7.494   4.133   2.377 -1.1071  0.6422  0.3504
  446SOL     vw 1784   7.449   4.082   2.323 -0.5851  0.2148  0.3170
  447SOL     ow 1785   3.966   2.497   1.983 -0.0853 -0.1768  0.5612
  447SOL     hw 1786   3.876   2.464   1.986 -0.7764  0.5630 -4.1659
  447SOL     hw 1787   3.960   2.586   2.017 -1.5794  0.3910 -1.0212
  447SOL     vw 1788   3.953   2.504   1.988 -0.3737 -0.0043 -0.2713
  448SOL     ow 1789   2.842   6.100   1.273  0.2025 -0.9175 -0.3133
  448SOL     hw 1790   2.901   6.028   1.251 -0.1360 -1.2010 -0.2920
  448SOL     hw 1791   2.887   6.178   1.240 -1.7922 -1.5411 -5.3183
  448SOL     vw 1792   2.856   6.101   1.266 -0.1054 -1.0374 -0.9708
  449SOL     ow 1793   4.446   5.418   0.164 -0.0880 -0.0162  0.0441
  449SOL     hw 1794   4.484   5.340   0.123  1.0948 -0.2504  1.5182
  449SOL     hw 1795   4.513   5.486   0.152 -1.0347  0.7611 -1.0707
  449SOL     vw 1796   4.460   5.417   0.157 -0.0567  0.0556  0.0915
  450SOL     ow 1797   3.619   1.001   3.058 -0.2379 -0.3490 -0.3782
  450SOL     hw 1798   3.665   1.063   3.001 -0.8687 -1.1714 -1.8267
  450SOL     hw 1799   3.529   1.033   3.061 -0.0865  0.0404  0.7092
  450SOL     vw 1800   3.613   1.013   3.051 -0.3012 -0.4061 -0.4259
  451SOL     ow 1801   4.690   5.139   7.229  0.5298  0.4441 -0.0240
  451SOL     hw 1802   4.754   5.195   7.185 -0.5935  2.1966  0.4730
  451SOL     hw 1803   4.681   5.178   7.316 -1.5353  0.5339 -0.2440
  451SOL     vw 1804   4.698   5.152   7.234  0.1094  0.6871  0.0124
  452SOL     ow 1805   1.654   1.254   2.301 -0.4168 -0.5465  0.3000
  452SOL     hw 1806   1.710   1.219   2.370  3.3648  0.2314 -2.0839
  452SOL     hw 1807   1.663   1.349   2.309  0.4731 -0.4453 -1.4387
  452SOL     vw 1808   1.662   1.262   2.311  0.1995 -0.4305 -0.2438
  453SOL     ow 1809   3.616   5.591   3.564  0.1486  0.7154 -0.5812
  453SOL     hw 1810   3.657   5.578   3.650 -0.0698  0.6951 -0.4784
  453SOL     hw 1811   3.585   5.504   3.539  0.6680  0.6241 -0.9180
  453SOL     vw 1812   3.617   5.578   3.572  0.1884  0.7007 -0.6121
  454SOL     ow 1813   1.503   5.256   7.331  0.2729 -0.2430  0.4608
  454SOL     hw 1814   1.591   5.230   7.302  1.0232  2.6388 -0.1187
  454SOL     hw 1815   1.494   5.347   7.304 -2.4836 -0.0752  1.5632
  454SOL     vw 1816   1.513   5.264   7.323  0.0082  0.1595  0.5298
  455SOL     ow 1817   6.653   5.838   3.226  0.4158  0.1884  0.2595
  455SOL     hw 1818   6.656   5.744   3.245 -0.4984 -0.1683 -1.1855
  455SOL     hw 1819   6.584   5.847   3.160  2.1659  1.5377 -1.4922
  455SOL     vw 1820   6.644   5.827   3.220  0.5262  0.3192 -0.1624
  456SOL     ow 1821   5.340   3.598   5.819 -0.6357 -0.0484 -0.4314
  456SOL     hw 1822   5.406   3.544   5.774 -2.2747 -2.0299 -0.6064
  456SOL     hw 1823   5.368   3.596   5.911 -1.2323 -2.2436 -0.2261
  456SOL     vw 1824   5.353   3.590   5.825 -0.9308 -0.5994 -0.4272
  457SOL     ow 1825   3.789   5.204   6.509 -0.6253  0.3654  0.2497
  457SOL     hw 1826   3.833   5.142   6.568 -0.1823 -1.4290 -1.8378
  457SOL     hw 1827   3.700   5.210   6.543 -1.2760 -2.9712 -0.4297
  457SOL     vw 1828   3.783   5.196   6.521 -0.6526 -0.3111 -0.1152
  458SOL     ow 1829   1.473   5.452   2.551 -0.1394  0.2157  0.0955
  458SOL     hw 1830   1.453   5.541   2.581  1.6554  1.1819 -1.3670
  458SOL     hw 1831   1.538   5.420   2.614 -2.3294 -1.0083  1.9148
  458SOL     vw 1832   1.479   5.460   2.564 -0.1916  0.1819  0.1426
  459SOL     ow 1833   6.948   1.629   3.141 -0.3501 -0.0684 -0.0829
  459SOL     hw 1834   6.922   1.697   3.203  1.0616 -0.7653  1.3612
  459SOL     hw 1835   6.879   1.564   3.146 -0.8870  0.4838 -0.2230
  459SOL     vw 1836   6.936   1.629   3.150 -0.2346 -0.0876  0.0892
  460SOL     ow 1837   2.437   0.835   3.318  0.0726 -0.1880 -0.1463
  460SOL     hw 1838   2.443   0.760   3.258 -2.7288  0.0115 -0.8540
  460SOL     hw 1839   2.402   0.906   3.264  1.2154  1.2120  0.8717
  460SOL     vw 1840   2.433   0.834   3.303 -0.1462  0.0230 -0.1053
  461SOL     ow 1841   3.731   1.397   5.108  0.1011 -1.0843 -0.5273
  461SOL     hw 1842   3.805   1.390   5.047  0.0160 -1.3477 -0.5992
  461SOL     hw 1843   3.680   1.471   5.075  0.1948 -1.0652 -0.6286
  461SOL     vw 1844   3.734   1.406   5.095  0.1022 -1.1165 -0.5503
  462SOL     ow 1845   0.418   5.272   6.488  0.0247  0.0816  0.5254
  462SOL     hw 1846   0.341   5.235   6.532 -1.3294  0.3340 -1.4969
  462SOL     hw 1847   0.443   5.347   6.542 -1.0174 -0.1195  1.3196
  462SOL     vw 1848   0.411   5.277   6.501 -0.2914  0.0882  0.3631
  463SOL     ow 1849   1.078   4.361   1.877  0.0975 -0.8719 -0.0949
  463SOL     hw 1850   1.110   4.283   1.922 -2.1270 -1.1328  1.2083
  463SOL     hw 1851   0.988   4.339   1.852 -0.0312  0.7141 -1.1751
  463SOL     vw 1852   1.070   4.348   1.880 -0.2130 -0.6971 -0.0655
  464SOL     ow 1853   2.032   5.798   1.667 -0.5530  0.5171 -0.4458
  464SOL     hw 1854   1.947   5.833   1.640  0.4678  3.0815 -0.5815
  464SOL     hw 1855   2.091   5.820   1.596  0.6275  0.6334  0.5328
  464SOL     vw 1856   2.029   5.806   1.654 -0.2625  0.8709 -0.3346
  465SOL     ow 1857   7.284   4.861   2.169  0.2767  0.1668 -0.3049
  465SOL     hw 1858   7.259   4.820   2.086  2.3670  0.1821 -0.9872
  465SOL     hw 1859   7.306   4.951   2.146 -0.3673  0.5473  0.5082
  465SOL     vw 1860   7.283   4.867   2.155  0.4675  0.2191 -0.2877
  466SOL     ow 1861   2.650   7.337   2.167 -0.6515 -0.0839 -0.4242
  466SOL     hw 1862   2.743   7.357   2.174 -0.6901  0.7500 -1.9297
  466SOL     hw 1863   2.635   7.326   2.073 -1.9353 -0.9377 -0.1443
  466SOL     vw 1864   2.660   7.338   2.155 -0.8259 -0.0868 -0.5859
  467SOL     ow 1865   6.934   7.474   4.888  0.7681 -0.6222  0.3069
  467SOL     hw 1866   6.983   7.476   4.970  1.4236  0.9787 -0.0762
  467SOL     hw 1867   7.001   7.483   4.820  0.0567  0.3538 -0.2897
  467SOL     vw 1868   6.949   7.476   4.890  0.7606 -0.2820  0.1776
  468SOL     ow 1869   3.005   3.991   6.739  0.1614 -0.4091 -0.3383
  468SOL     hw 1870   3.082   3.939   6.717  1.2995  1.0256  0.1516
  468SOL     hw 1871   3.024   4.078   6.705 -0.7873  0.2332  0.7223
  468SOL     vw 1872   3.017   3.996   6.731  0.1864 -0.1351 -0.1338
  469SOL     ow 1873   1.088   5.137   0.246 -0.0809 -0.2310  0.4410
  469SOL     hw 1874   1.124   5.054   0.277  0.2069  0.1562  1.1620
  469SOL     hw 1875   1.157   5.174   0.191 -0.9566 -1.3654 -1.5100
  469SOL     vw 1876   1.102   5.131   0.243 -0.1585 -0.3295  0.2787
  470SOL     ow 1877   5.199   0.375   6.477 -0.6064  0.7542 -0.4458
  470SOL     hw 1878   5.249   0.311   6.528 -3.0879 -0.7880  0.2459
  470SOL     hw 1879   5.208   0.345   6.386 -2.2087 -1.0587 -0.0781
  470SOL     vw 1880   5.207   0.362   6.472 -1.1454  0.3115 -0.3059
  471SOL     ow 1881   5.733   5.752   6.622 -0.4575  0.0080 -0.2779
  471SOL     hw 1882   5.710   5.694   6.695 -1.1730  0.4451 -0.1443
  471SOL     hw 1883   5.769   5.830   6.663 -2.2205  0.8860 -0.2673
  471SOL     vw 1884   5.734   5.755   6.637 -0.7846  0.1814 -0.2587
  472SOL     ow 1885   5.594   5.898   5.301 -0.5226  0.5645  0.6849
  472SOL     hw 1886   5.670   5.840   5.304 -1.2134 -0.3912  0.0163
  472SOL     hw 1887   5.599   5.940   5.215 -2.0822 -1.3769 -0.4215
  472SOL     vw 1888   5.605   5.896   5.290 -0.8194  0.1824  0.4508
  473SOL     ow 1889   3.227   2.572   0.983 -0.3451  0.0031  0.1325
  473SOL     hw 1890   3.132   2.570   0.991 -0.5414  3.5653  0.2328
  473SOL     hw 1891   3.258   2.598   1.069  0.4062  2.1070 -0.7201
  473SOL     vw 1892   3.219   2.575   0.995 -0.2720  0.7505  0.0332
  474SOL     ow 1893   6.133   7.505   7.458 -0.1730 -0.0388  0.0678
  474SOL     hw 1894   6.151   7.597   7.442  0.9364 -0.3072 -0.3420
  474SOL     hw 1895   6.199   7.478   7.521 -1.8207 -0.0643  1.8901
  474SOL     vw 1896   6.144   7.513   7.464 -0.2439 -0.0775  0.2542
  475SOL     ow 1897   0.514   5.255   0.755  0.2291 -0.2022  0.0201
  475SOL     hw 1898   0.460   5.179   0.781  0.2144 -0.2837 -0.2429
  475SOL     hw 1899   0.535   5.299   0.838 -1.2808  0.5389  0.0415
  475SOL     vw 1900   0.509   5.250   0.770  0.0280 -0.1152 -0.0118
  476SOL     ow 1901   7.603   2.865   5.961  0.2442 -0.0578 -0.1276
  476SOL     hw 1902   7.617   2.949   5.918  1.3716 -0.5246 -0.7330
  476SOL     hw 1903   7.672   2.809   5.926 -1.2854 -1.6222 -0.7454
  476SOL     vw 1904   7.614   2.869   5.951  0.1910 -0.3259 -0.2890
  477SOL     ow 1905   6.584   1.834   3.723 -0.1320 -0.1278  0.7455
  477SOL     hw 1906   6.509   1.778   3.743  0.3615 -0.5826  1.3613
  477SOL     hw 1907   6.572   1.911   3.779 -0.3142 -0.0412  0.5903
  477SOL     vw 1908   6.572   1.837   3.733 -0.0911 -0.1764  0.8063
  478SOL     ow 1909   7.223   6.171   1.254 -0.3800 -0.0683  0.4295
  478SOL     hw 1910   7.211   6.250   1.201 -0.5694 -0.3316  0.0791
  478SOL     hw 1911   7.220   6.203   1.345 -2.0728  0.1311  0.3368
  478SOL     vw 1912   7.221   6.186   1.259 -0.6285 -0.0763  0.3711
  479SOL     ow 1913   3.479   4.926   3.417  0.0850  0.0761 -0.3211
  479SOL     hw 1914   3.451   5.016   3.404 -0.2691  0.1796  1.0601
  479SOL     hw 1915   3.415   4.874   3.368  0.5058  0.5680 -1.4322
  479SOL     vw 1916   3.466   4.931   3.409  0.0939  0.1547 -0.2854
  480SOL     ow 1917   2.581   3.125   0.018  0.4646 -0.1194 -0.5853
  480SOL     hw 1918   2.672   3.134   0.045  0.6882 -1.0421 -0.9956
  480SOL     hw 1919   2.531   3.157   0.094  1.1091 -1.3351  0.4042
  480SOL     vw 1920   2.586   3.130   0.032  0.5791 -0.4016 -0.5088
  481SOL     ow 1921   5.099   0.765   4.969  0.4779 -0.1393  0.0079
  481SOL     hw 1922   5.156   0.748   5.044  0.7340  0.0539 -0.1417
  481SOL     hw 1923   5.063   0.679   4.945  2.1041 -0.5685 -1.0293
  481SOL     vw 1924   5.102   0.752   4.976  0.7262 -0.1705 -0.1485
  482SOL     ow 1925   5.088   3.912   5.471  0.5374  0.1243 -0.0434
  482SOL     hw 1926   5.101   3.842   5.534  0.4015  0.4089  0.3051
  482SOL     hw 1927   5.081   3.991   5.524 -2.0048  0.0889 -0.2164
  482SOL     vw 1928   5.089   3.913   5.486  0.1841  0.1572 -0.0205
  483SOL     ow 1929   4.619   5.993   3.864  0.2480  0.1422  0.0370
  483SOL     hw 1930   4.591   5.914   3.909 -2.5973  0.8630 -0.2496
  483SOL     hw 1931   4.664   6.045   3.931 -1.5033  0.0174  1.3759
  483SOL     vw 1932   4.621   5.990   3.879 -0.3586  0.2208  0.1758
  484SOL     ow 1933   1.377   6.456   5.513  0.4181  0.7543  0.1819
  484SOL     hw 1934   1.284   6.465   5.490  0.4695 -0.2150 -0.4721
  484SOL     hw 1935   1.422   6.518   5.455  0.6151 -2.0842 -3.0599
  484SOL     vw 1936   1.370   6.465   5.502  0.4509  0.2518 -0.3321
  485SOL     ow 1937   7.464   4.412   4.819 -0.2714 -0.2486 -0.7814
  485SOL     hw 1938   7.406   4.355   4.768  0.5102 -1.8467  0.0275
  485SOL     hw 1939   7.535   4.354   4.847  1.4350  1.5079 -1.2506
  485SOL     vw 1940   7.466   4.397   4.816  0.0567 -0.2279 -0.7370
  486SOL     ow 1941   3.791   1.776   5.242  1.2005  0.4237  0.2905
  486SOL     hw 1942   3.764   1.868   5.248 -0.5428 -0.0658  0.5837
  486SOL     hw 1943   3.883   1.777   5.266  1.2769  2.1194  0.1024
  486SOL     vw 1944   3.799   1.788   5.246  0.9806  0.5829  0.3042
  487SOL     ow 1945   1.246   7.557   0.541 -0.1968  0.0199 -1.0965
  487SOL     hw 1946   1.266   7.610   0.463 -1.5080  0.3830 -1.2012
  487SOL     hw 1947   1.166   7.510   0.519  0.5468 -1.4715 -0.7158
  487SOL     vw 1948   1.238   7.558   0.528 -0.2717 -0.1290 -1.0601
  488SOL     ow 1949   1.259   1.292   1.771 -0.0825  0.3046  0.1309
  488SOL     hw 1950   1.278   1.380   1.804  1.5901  0.4980 -1.2169
  488SOL     hw 1951   1.343   1.260   1.739 -0.4843 -2.0947  1.2443
  488SOL     vw 1952   1.273   1.299   1.771  0.0852  0.0135  0.0999
  489SOL     ow 1953   4.165   4.335   7.226  0.1556  0.1504 -0.1647
  489SOL     hw 1954   4.102   4.395   7.187  0.7890  0.9877  0.0585
  489SOL     hw 1955   4.182   4.372   7.313  0.3065 -0.5417  0.1018
  489SOL     vw 1956   4.159   4.348   7.232  0.2592  0.1695 -0.1001
  490SOL     ow 1957   0.913   2.162   5.107 -0.4941  0.5452 -0.0248
  490SOL     hw 1958   0.943   2.109   5.033 -1.1779  3.8379 -2.9135
  490SOL     hw 1959   0.991   2.174   5.161  0.8033  0.3191 -1.7594
  490SOL     vw 1960   0.927   2.157   5.105 -0.4131  0.9499 -0.6347
  491SOL     ow 1961   3.509   2.542   6.688 -0.0788 -0.6693 -0.2123
  491SOL     hw 1962   3.427   2.541   6.638 -0.2098 -0.9744  0.0018
  491SOL     hw 1963   3.484   2.508   6.774  0.5986 -2.4661 -0.6616
  491SOL     vw 1964   3.495   2.537   6.693 -0.0068 -0.9466 -0.2432
  492SOL     ow 1965   4.284   0.469   6.216 -0.1528 -0.0262  0.1290
  492SOL     hw 1966   4.211   0.415   6.186 -1.2595  1.6650 -0.4017
  492SOL     hw 1967   4.348   0.465   6.145 -0.5953  0.0237 -0.2778
  492SOL     vw 1968   4.283   0.462   6.203 -0.3574  0.2035  0.0052
  493SOL     ow 1969   6.497   0.499   0.001 -0.3905  0.0541  0.1893
  493SOL     hw 1970   6.451   0.507   0.084 -1.7457 -1.2735 -0.3906
  493SOL     hw 1971   6.448   0.433  -0.048  0.4709  0.6662 -1.6050
  493SOL     vw 1972   6.485   0.491   0.005 -0.4556 -0.0403 -0.1240
  494SOL     ow 1973   7.387   6.586   3.103 -0.6401  0.0244 -0.3105
  494SOL     hw 1974   7.405   6.674   3.070 -0.4957 -0.0336 -0.3869
  494SOL     hw 1975   7.309   6.558   3.055  0.9084 -0.9975 -2.3963
  494SOL     vw 1976   7.379   6.594   3.092 -0.4168 -0.1180 -0.5958
  495SOL     ow 1977   5.114   5.564   3.578  0.5299  0.0214  0.0550
  495SOL     hw 1978   5.185   5.602   3.630 -1.0801  3.3799  0.0445
  495SOL     hw 1979   5.047   5.541   3.642 -0.8501  2.7860 -0.2620
  495SOL     vw 1980   5.115   5.566   3.593  0.1352  0.8295  0.0119
  496SOL     ow 1981   5.134   5.349   4.548 -0.3568  0.1070 -0.0223
  496SOL     hw 1982   5.217   5.320   4.510  0.9416  1.4177  1.5835
  496SOL     hw 1983   5.099   5.413   4.486  0.4243  0.3556 -0.2148
  496SOL     vw 1984   5.140   5.354   4.535 -0.0823  0.3126  0.1638
  497SOL     ow 1985   4.858   6.116   6.073 -0.2074  0.1716  0.0511
  497SOL     hw 1986   4.805   6.040   6.047 -1.9944  0.7613  1.7053
  497SOL     hw 1987   4.945   6.081   6.088 -1.2001 -1.7873  1.6898
  497SOL     vw 1988   4.862   6.102   6.071 -0.5739 -0.0093  0.4857
  498SOL     ow 1989   5.347   6.379   2.358 -0.0320 -0.6094  0.3289
  498SOL     hw 1990   5.261   6.338   2.348  0.3048 -1.3800  0.4948
  498SOL     hw 1991   5.354   6.395   2.452 -0.2904  0.1270  0.2268
  498SOL     vw 1992   5.337   6.376   2.369 -0.0217 -0.6137  0.3372
  499SOL     ow 1993   5.850   1.387   7.402  0.6169  0.3046  0.8434
  499SOL     hw 1994   5.837   1.359   7.311  3.1662 -0.2508  0.5453
  499SOL     hw 1995   5.801   1.323   7.454 -1.3417  0.9594 -0.1140
  499SOL     vw 1996   5.842   1.375   7.396  0.6950  0.3177  0.6778
  500SOL     ow 1997   7.126   1.571   4.825  0.0931  0.3398  0.0150
  500SOL     hw 1998   7.188   1.641   4.845  1.4992 -1.3350  1.9209
  500SOL     hw 1999   7.173   1.490   4.845 -1.3736 -1.2319 -2.3382
  500SOL     vw 2000   7.140   1.569   4.830  0.0854 -0.0886 -0.0439
  501SOL     ow 2001   1.121   6.036   3.227 -0.4193 -0.4695 -0.3324
  501SOL     hw 2002   1.104   6.012   3.135 -0.6271 -1.9143  0.0598
  501SOL     hw 2003   1.190   5.976   3.255 -1.3305 -0.9858  0.8557
  501SOL     vw 2004   1.128   6.025   3.218 -0.5669 -0.7284 -0.1237
  502SOL     ow 2005   1.963   2.879   1.273  0.2809  0.1769  0.3186
  502SOL     hw 2006   2.034   2.941   1.288 -0.3316  0.6687  1.3287
  502SOL     hw 2007   1.925   2.865   1.360 -1.9180  1.2532 -0.3931
  502SOL     vw 2008   1.967   2.886   1.287 -0.0901  0.3839  0.3580
  503SOL     ow 2009   0.173   6.639   2.126 -0.9749  0.1280 -0.9837
  503SOL     hw 2010   0.127   6.703   2.071 -1.7925 -0.7082 -1.3080
  503SOL     hw 2011   0.188   6.564   2.068 -1.9898 -0.8415 -0.0715
  503SOL     vw 2012   0.169   6.637   2.111 -1.2166 -0.1101 -0.9062
  504SOL     ow 2013   7.148   4.553   4.647 -0.4796 -0.4593 -0.1282
  504SOL     hw 2014   7.176   4.462   4.653 -3.1353 -1.2762  2.1245
  504SOL     hw 2015   7.060   4.553   4.684 -1.3071  2.7551 -1.7740
  504SOL     vw 2016   7.140   4.541   4.653 -0.9391 -0.1431 -0.0484
  505SOL     ow 2017   4.680   1.837   5.152 -0.0588 -0.0348  0.7411
  505SOL     hw 2018   4.685   1.931   5.134  1.5278 -0.4681 -1.5094
  505SOL     hw 2019   4.658   1.798   5.068 -0.5607 -1.7098  1.6145
  505SOL     vw 2020   4.678   1.844   5.139  0.0844 -0.3130  0.5598
  506SOL     ow 2021   6.506   2.018   3.493 -0.3611 -0.5086 -0.3630
  506SOL     hw 2022   6.542   1.948   3.547  0.7302  2.0403  2.5053
  506SOL     hw 2023   6.581   2.048   3.441  0.1047  0.6250  0.8975
  506SOL     vw 2024   6.521   2.013   3.493 -0.1557 -0.0228  0.1817
  507SOL     ow 2025   3.608   1.641   5.426 -0.2907  0.4190  0.0189
  507SOL     hw 2026   3.676   1.681   5.371  0.4491 -1.1199 -0.2353
  507SOL     hw 2027   3.616   1.686   5.510  1.2246  0.1332  0.0724
  507SOL     vw 2028   3.618   1.652   5.430  0.0069  0.1782 -0.0076
  508SOL     ow 2029   4.602   2.793   5.802 -0.0274 -0.2187 -0.9674
  508SOL     hw 2030   4.522   2.833   5.769 -0.5744 -0.1038  0.4298
  508SOL     hw 2031   4.590   2.699   5.786 -0.0750 -0.1270 -1.4883
  508SOL     vw 2032   4.590   2.786   5.796 -0.1059 -0.1913 -0.8519
  509SOL     ow 2033   0.893   4.881   5.980  0.2358  0.2737  0.8344
  509SOL     hw 2034   0.948   4.945   6.026  1.2238  0.0989 -0.0671
  509SOL     hw 2035   0.955   4.823   5.936 -0.6329  0.8509 -1.3054
  509SOL     vw 2036   0.908   4.882   5.980  0.2515  0.3269  0.4332
  510SOL     ow 2037   5.318   4.973   4.239  0.5723 -0.0241 -0.2667
  510SOL     hw 2038   5.356   4.968   4.152  0.1438 -0.5514 -0.4277
  510SOL     hw 2039   5.366   5.043   4.283  0.4609  0.5715 -1.0860
  510SOL     vw 2040   5.329   4.981   4.234  0.5012 -0.0150 -0.3960
  511SOL     ow 2041   3.970   5.163   5.989  0.5337 -0.0845  0.5955
  511SOL     hw 2042   3.894   5.222   5.981  0.6766  0.2592  1.6364
  511SOL     hw 2043   4.033   5.213   6.042  3.2710  1.4177 -3.5751
  511SOL     vw 2044   3.968   5.178   5.995  0.9137  0.1590  0.1824
  512SOL     ow 2045   6.009   5.469   0.307 -0.7119  0.3181  0.5101
  512SOL     hw 2046   6.064   5.540   0.338  2.1119  0.0511 -3.2576
  512SOL     hw 2047   5.935   5.512   0.265  1.5733  1.3278 -2.8335
  512SOL     vw 2048   6.006   5.484   0.306 -0.0377  0.4158 -0.4281
  513SOL     ow 2049   7.087   6.893   1.997 -0.1406  0.5032  0.2345
  513SOL     hw 2050   7.067   6.838   2.072 -2.2405 -0.1280 -0.7032
  513SOL     hw 2051   7.180   6.914   2.006  0.3306 -1.8355  1.5094
  513SOL     vw 2052   7.096   6.889   2.008 -0.3552  0.1116  0.2791
  514SOL     ow 2053   0.487   6.326   5.081 -0.4888 -0.4446 -0.2176
  514SOL     hw 2054   0.531   6.319   5.166 -0.1938  1.4524 -0.1620
  514SOL     hw 2055   0.393   6.327   5.103 -0.5363 -2.3097 -0.1568
  514SOL     vw 2056   0.480   6.325   5.095 -0.4561 -0.4404 -0.2022
  515SOL     ow 2057   1.687   3.251   5.050  0.3731 -0.6797  0.0902
  515SOL     hw 2058   1.629   3.321   5.022  0.6598  0.0687  1.2970
  515SOL     hw 2059   1.690   3.191   4.976 -0.2827  0.3217 -0.7695
  515SOL     vw 2060   1.680   3.252   5.037  0.3243 -0.4487  0.1359
  516SOL     ow 2061   1.908   1.874   0.137  0.2228  0.3592 -0.5594
  516SOL     hw 2062   1.914   1.955   0.186 -0.2363  0.0400  0.0449
  516SOL     hw 2063   1.817   1.847   0.148  0.7180 -1.0074  0.5230
  516SOL     vw 2064   1.897   1.881   0.145  0.2276  0.1368 -0.3368
  517SOL     ow 2065   0.178   5.501   6.116 -0.0684 -0.4211  0.2870
  517SOL     hw 2066   0.196   5.594   6.105  1.2536 -0.6082  0.6743
  517SOL     hw 2067   0.218   5.460   6.039  1.4099 -0.8706  1.2540
  517SOL     vw 2068   0.185   5.508   6.105  0.3011 -0.5054  0.4656
  518SOL     ow 2069   0.468   2.240   2.309  0.2558 -0.2729 -0.3038
  518SOL     hw 2070   0.503   2.210   2.225  2.3343  0.2475  0.3193
  518SOL     hw 2071   0.512   2.324   2.325  0.0850 -0.4639  1.3854
  518SOL     vw 2072   0.479   2.247   2.300  0.5075 -0.2295  0.0011
  519SOL     ow 2073   4.458   6.897   7.630  0.6526  0.0340 -0.2357
  519SOL     hw 2074   4.407   6.933   7.558 -0.6751 -1.4979 -0.1206
  519SOL     hw 2075   4.465   6.803   7.610  1.3589 -0.1995  0.9808
  519SOL     vw 2076   4.452   6.889   7.618  0.5708 -0.1988 -0.0601
  520SOL     ow 2077   0.761   6.673   4.668  0.1372  0.4305  1.1981
  520SOL     hw 2078   0.689   6.686   4.606  0.7915  0.2412  0.3848
  520SOL     hw 2079   0.745   6.739   4.736 -1.0044  0.1504  1.2243
  520SOL     vw 2080   0.749   6.684   4.669  0.0729  0.3686  1.0943
  521SOL     ow 2081   4.116   6.023   3.874  0.0903 -0.3703 -0.0215
  521SOL     hw 2082   4.040   6.072   3.905  0.9429  2.2328 -1.7221
  521SOL     hw 2083   4.191   6.064   3.918  0.8344 -0.0329 -1.5466
  521SOL     vw 2084   4.116   6.035   3.884  0.3011  0.0176 -0.4472
  522SOL     ow 2085   4.777   4.762   5.312 -0.1962  0.2807  0.1279
  522SOL     hw 2086   4.769   4.851   5.280 -1.3032  0.2986  0.4321
  522SOL     hw 2087   4.783   4.708   5.233  0.3736  0.6036 -0.0550
  522SOL     vw 2088   4.777   4.766   5.298 -0.2668  0.3254  0.1438
  523SOL     ow 2089   1.850   0.447   0.052 -0.3154 -0.2482  0.7921
  523SOL     hw 2090   1.935   0.415   0.083 -0.5145 -0.9655  0.6134
  523SOL     hw 2091   1.811   0.489   0.128  0.4529  0.6201  0.7156
  523SOL     vw 2092   1.856   0.448   0.066 -0.2403 -0.2283  0.7585
  524SOL     ow 2093   2.390   5.758   6.712 -0.3859  0.6062 -0.1729
  524SOL     hw 2094   2.471   5.708   6.725 -1.4814 -1.3090 -0.3536
  524SOL     hw 2095   2.346   5.754   6.797  1.7633  5.8556  1.5924
  524SOL     vw 2096   2.395   5.751   6.725 -0.2470  1.0462  0.0360
  525SOL     ow 2097   0.265   2.108   4.733 -0.6858  0.2093  0.2213
  525SOL     hw 2098   0.320   2.075   4.804 -0.4329 -1.8636 -0.8665
  525SOL     hw 2099   0.177   2.080   4.754 -0.9122  1.1410  0.5760
  525SOL     vw 2100   0.261   2.100   4.745 -0.6823  0.0587  0.1245
  526SOL     ow 2101   0.278   0.791   0.214  0.7833  0.6219 -0.1878
  526SOL     hw 2102   0.199   0.741   0.193  0.9910  0.1648  0.0920
  526SOL     hw 2103   0.337   0.774   0.140  0.3919  1.4779 -0.7096
  526SOL     vw 2104   0.275   0.782   0.201  0.7590  0.6745 -0.2197
  527SOL     ow 2105   0.218   0.008   4.939  0.6204 -0.3368  1.1407
  527SOL     hw 2106   0.188  -0.045   5.012 -1.2168 -1.7226 -0.5115
  527SOL     hw 2107   0.214   0.098   4.970 -2.4804 -0.6764  2.0400
  527SOL     vw 2108   0.214   0.013   4.952 -0.0311 -0.5641  1.0412
  528SOL     ow 2109   0.493   3.364   5.416 -0.0318 -0.0482 -0.5182
  528SOL     hw 2110   0.472   3.445   5.462 -1.1303  0.6201 -2.1198
  528SOL     hw 2111   0.451   3.373   5.330  0.9064 -1.7662 -1.2099
  528SOL     vw 2112   0.485   3.376   5.411 -0.0529 -0.1866 -0.8209
  529SOL     ow 2113   0.915   3.705   3.121  0.4230 -0.0329  0.3761
  529SOL     hw 2114   0.887   3.628   3.170  1.8687 -0.4244  0.6374
  529SOL     hw 2115   0.965   3.670   3.048  0.0863  0.6324 -0.1846
  529SOL     vw 2116   0.918   3.690   3.118  0.5693  0.0032  0.3366
  530SOL     ow 2117   1.060   7.079   1.689 -0.3209  0.7908 -0.4001
  530SOL     hw 2118   1.114   7.095   1.612 -1.5264  2.4144 -0.9739
  530SOL     hw 2119   1.118   7.033   1.750  1.2099  1.0821 -1.5664
  530SOL     vw 2120   1.075   7.075   1.687 -0.2780  1.0438 -0.6296
  531SOL     ow 2121   5.973   4.459   1.541  0.0062 -0.3774 -0.8387
  531SOL     hw 2122   6.016   4.497   1.617  0.0479 -3.1715  0.6531
  531SOL     hw 2123   5.879   4.473   1.557  0.0698  0.6316 -1.2383
  531SOL     vw 2124   5.966   4.466   1.553  0.0198 -0.6127 -0.6947
  532SOL     ow 2125   3.227   2.694   2.725 -0.1795  0.2954 -0.3691
  532SOL     hw 2126   3.204   2.715   2.634 -1.5271  0.9489  0.1021
  532SOL     hw 2127   3.265   2.774   2.759 -0.4943  0.3319 -0.0995
  532SOL     vw 2128   3.229   2.707   2.717 -0.3988  0.3864 -0.2713
  533SOL     ow 2129   3.328   4.027   1.312  0.3497  0.1164  0.0503
  533SOL     hw 2130   3.257   3.988   1.362 -0.5242 -0.8756 -1.8580
  533SOL     hw 2131   3.286   4.061   1.233  1.6571  1.7477 -0.0004
  533SOL     vw 2132   3.313   4.026   1.308  0.4069  0.2007 -0.2083
  534SOL     ow 2133   3.450   0.090   6.400  0.4520  0.4411 -0.2474
  534SOL     hw 2134   3.505   0.032   6.347  0.8607 -0.0660  0.6945
  534SOL     hw 2135   3.369   0.100   6.349  1.2142  0.7989 -1.4205
  534SOL     vw 2136   3.446   0.084   6.386  0.6064  0.4215 -0.2780
  535SOL     ow 2137   5.000   5.740   1.092 -0.2813  1.3574  0.9723
  535SOL     hw 2138   5.046   5.812   1.136  2.8136 -1.1376  2.1298
  535SOL     hw 2139   5.034   5.661   1.132 -3.5576 -0.8819 -0.2172
  535SOL     vw 2140   5.011   5.739   1.103 -0.3054  0.7327  0.9680
  536SOL     ow 2141   4.371   1.360   3.641  0.5008 -0.6614 -0.3627
  536SOL     hw 2142   4.441   1.298   3.620  0.3477 -2.2207  3.1159
  536SOL     hw 2143   4.320   1.317   3.709 -1.2073  2.2588  0.3799
  536SOL     vw 2144   4.374   1.347   3.647  0.2551 -0.4818  0.1943
  537SOL     ow 2145   0.169   4.820   1.410 -0.3749  1.1650  0.2863
  537SOL     hw 2146   0.159   4.876   1.487 -1.0904  1.9586 -0.3547
  537SOL     hw 2147   0.079   4.802   1.382 -0.1938 -1.1297  1.0233
  537SOL     vw 2148   0.155   4.825   1.417 -0.4454  0.9668  0.2990
  538SOL     ow 2149   2.383   0.805   3.596 -0.0778  0.1926 -0.1602
  538SOL     hw 2150   2.402   0.887   3.641 -1.8422  1.6180 -1.7995
  538SOL     hw 2151   2.408   0.822   3.505 -0.9282 -0.9193 -0.6245
  538SOL     vw 2152   2.389   0.818   3.590 -0.4228  0.2339 -0.4379
  539SOL     ow 2153   0.586   7.169   3.128 -0.2523  0.2745  0.2652
  539SOL     hw 2154   0.642   7.095   3.103  2.0595  1.8920  0.3828
  539SOL     hw 2155   0.592   7.172   3.224  0.3299  1.0772  0.2137
  539SOL     vw 2156   0.594   7.159   3.138  0.1295  0.5939  0.2739
  540SOL     ow 2157   1.559   6.344   5.874 -0.1152  0.4443 -0.6091
  540SOL     hw 2158   1.557   6.262   5.826  1.6928  1.6669 -2.9407
  540SOL     hw 2159   1.636   6.338   5.930  0.1473  0.6404 -0.9492
  540SOL     vw 2160   1.569   6.332   5.875  0.1580  0.6313 -0.9615
  541SOL     ow 2161   2.965   4.497   1.758  0.1477  0.1384  0.8350
  541SOL     hw 2162   2.963   4.464   1.848 -2.7295 -3.6256 -0.3566
  541SOL     hw 2163   2.877   4.531   1.742  0.7125  1.0869 -0.5266
  541SOL     vw 2164   2.953   4.497   1.768 -0.1574 -0.2332  0.4982
  542SOL     ow 2165   6.106   3.472   0.352 -0.1437  0.0935 -0.7409
  542SOL     hw 2166   6.142   3.501   0.268  0.7243 -2.3658 -1.3100
  542SOL     hw 2167   6.061   3.390   0.332 -2.1810  0.7513  0.8001
  542SOL     vw 2168   6.105   3.465   0.339 -0.2980 -0.1441 -0.6127
  543SOL     ow 2169   4.550   5.727   0.697 -0.6460  0.1640  0.4077
  543SOL     hw 2170   4.493   5.654   0.723  0.9377 -1.8665 -1.4545
  543SOL     hw 2171   4.522   5.800   0.752 -1.5412 -2.1340  3.2403
  543SOL     vw 2172   4.539   5.727   0.707 -0.5555 -0.4067  0.5358
  544SOL     ow 2173   2.827   0.386   6.048  0.4022  0.2041  0.3772
  544SOL     hw 2174   2.788   0.451   5.988 -0.2395 -1.3145 -0.9237
  544SOL     hw 2175   2.888   0.337   5.993 -0.4046 -1.4114  0.8826
  544SOL     vw 2176   2.830   0.388   6.032  0.2111 -0.2094  0.2723
  545SOL     ow 2177   2.726   4.637   2.038 -0.4167 -0.5313 -0.1147
  545SOL     hw 2178   2.790   4.662   2.104  2.1594 -0.8081 -2.3266
  545SOL     hw 2179   2.681   4.718   2.016  0.2782 -0.0063  0.3657
  545SOL     vw 2180   2.728   4.651   2.044  0.0149 -0.4983 -0.3432
  546SOL     ow 2181   2.067   1.708   0.308 -0.1559 -0.1086  0.1768
  546SOL     hw 2182   2.096   1.655   0.382 -2.3118 -0.5402  0.7844
  546SOL     hw 2183   1.976   1.728   0.328 -0.2013  1.4923 -1.4077
  546SOL     vw 2184   2.059   1.704   0.321 -0.4464  0.0458  0.0479
  547SOL     ow 2185   4.808   7.625   6.838  0.0311  0.3345  0.3297
  547SOL     hw 2186   4.816   7.538   6.877 -1.6940 -0.9039 -1.8703
  547SOL     hw 2187   4.876   7.677   6.881  0.7405 -1.9272  2.1149
  547SOL     vw 2188   4.818   7.621   6.849 -0.1030 -0.1271  0.2749
  548SOL     ow 2189   1.275   1.939   4.439 -0.5822 -0.5458  0.2440
  548SOL     hw 2190   1.290   1.917   4.531 -2.9180  1.6281  1.2721
  548SOL     hw 2191   1.180   1.932   4.428 -0.4609  0.2590 -1.7108
  548SOL     vw 2192   1.264   1.935   4.449 -0.8743 -0.1528  0.1216
  549SOL     ow 2193   6.850   3.544   2.015 -0.5014  0.4007 -0.0061
  549SOL     hw 2194   6.884   3.467   1.969 -1.0857  0.0775  0.0843
  549SOL     hw 2195   6.924   3.577   2.064 -0.2967 -0.2629  0.1494
  549SOL     vw 2196   6.864   3.538   2.016 -0.5515  0.2705  0.0263
  550SOL     ow 2197   0.296   6.682   4.966  0.0165  0.4914 -0.3703
  550SOL     hw 2198   0.280   6.638   5.049  0.6967  1.0451  0.0657
  550SOL     hw 2199   0.277   6.615   4.899 -3.1813  0.7889  0.0672
  550SOL     vw 2200   0.291   6.667   4.968 -0.3157  0.6037 -0.2551
  551SOL     ow 2201   6.330   3.902   1.650 -0.3964 -0.3800  0.3628
  551SOL     hw 2202   6.378   3.829   1.610 -0.4689 -0.8065  1.0455
  551SOL     hw 2203   6.397   3.950   1.699 -0.0662  0.8274 -1.1764
  551SOL     vw 2204   6.345   3.899   1.651 -0.3624 -0.2770  0.2498
  552SOL     ow 2205   0.653   2.171   5.250  0.1626  0.4107 -0.3213
  552SOL     hw 2206   0.697   2.108   5.307 -1.2039 -0.6988 -0.4504
  552SOL     hw 2207   0.601   2.225   5.309 -0.0785  0.2393 -0.3760
  552SOL     vw 2208   0.652   2.170   5.265 -0.0495  0.2416 -0.3455
  553SOL     ow 2209   6.682   2.820   1.100  0.9871 -0.4064  0.4897
  553SOL     hw 2210   6.753   2.835   1.162  2.0649 -0.4600 -0.7016
  553SOL     hw 2211   6.647   2.734   1.125 -0.1618  0.5391  2.4559
  553SOL     vw 2212   6.686   2.810   1.112  0.9775 -0.2887  0.5920
  554SOL     ow 2213   4.988   3.013   3.421  0.1809  0.1779  0.1204
  554SOL     hw 2214   5.059   2.957   3.451 -0.9216 -0.7592  1.0735
  554SOL     hw 2215   4.942   3.039   3.501  0.6601  2.5066 -0.2708
  554SOL     vw 2216   4.991   3.009   3.435  0.0987  0.3616  0.1945
  555SOL     ow 2217   3.231   3.825   4.794 -0.1651 -0.4830  0.3532
  555SOL     hw 2218   3.191   3.738   4.798  0.6722 -0.8453  2.6440
  555SOL     hw 2219   3.285   3.823   4.715 -1.7799 -1.2780 -0.7749
  555SOL     vw 2220   3.233   3.813   4.784 -0.2676 -0.6357  0.5066
  556SOL     ow 2221   3.341   4.768   1.870 -0.4540 -0.4537  0.0735
  556SOL     hw 2222   3.362   4.692   1.815 -1.1521 -0.1008 -0.6896
  556SOL     hw 2223   3.250   4.789   1.850  0.2122  1.6771 -1.0685
  556SOL     vw 2224   3.332   4.761   1.860 -0.4584 -0.1261 -0.1778
  557SOL     ow 2225   2.010   3.359   7.075 -0.0011 -0.0570 -0.2437
  557SOL     hw 2226   2.092   3.381   7.120 -0.9943  0.9076  1.2054
  557SOL     hw 2227   2.028   3.277   7.030  0.6852 -1.9427  3.1556
  557SOL     vw 2228   2.024   3.351   7.075 -0.0417 -0.1786  0.3958
  558SOL     ow 2229   4.155   2.076   4.921  0.3215 -0.2513 -0.1051
  558SOL     hw 2230   4.209   2.020   4.977  3.1682 -1.0767 -3.3295
  558SOL     hw 2231   4.128   2.019   4.849 -0.5230  1.4433 -1.2044
  558SOL     vw 2232   4.158   2.061   4.919  0.5858 -0.1367 -0.6759
  559SOL     ow 2233   4.409   5.748   6.837  0.0237 -0.7559  0.4561
  559SOL     hw 2234   4.418   5.708   6.750  0.1258  2.0475 -0.9499
  559SOL     hw 2235   4.473   5.819   6.837 -3.2476  2.4878  0.8139
  559SOL     vw 2236   4.419   5.752   6.825 -0.3941  0.0420  0.3178
  560SOL     ow 2237   1.942   0.627   3.853 -0.5672 -0.0469  0.4395
  560SOL     hw 2238   1.938   0.612   3.948  1.4127  0.0784  0.5978
  560SOL     hw 2239   1.948   0.722   3.844 -1.0870 -0.0382  0.1626
  560SOL     vw 2240   1.942   0.638   3.864 -0.3746 -0.0292  0.4239
  561SOL     ow 2241   6.719   7.489   4.649 -0.4987 -0.2892 -0.2706
  561SOL     hw 2242   6.674   7.420   4.600 -1.2817 -0.0836  0.1303
  561SOL     hw 2243   6.761   7.543   4.582 -1.9239  0.2420 -0.7814
  561SOL     vw 2244   6.718   7.487   4.634 -0.7904 -0.1922 -0.2849
  562SOL     ow 2245   0.921   3.851   0.530 -0.9582  0.2409  0.3179
  562SOL     hw 2246   0.929   3.858   0.625 -0.3084  2.3970  0.1621
  562SOL     hw 2247   0.950   3.937   0.497  2.0450 -1.4831 -2.0302
  562SOL     vw 2248   0.926   3.864   0.538 -0.4762  0.2979 -0.0124
  563SOL     ow 2249   4.419   1.265   2.124 -0.3253  0.4576 -0.0846
  563SOL     hw 2250   4.488   1.206   2.156  0.1335  0.2688 -1.3665
  563SOL     hw 2251   4.339   1.231   2.163  0.2287  0.3528  0.9960
  563SOL     vw 2252   4.418   1.252   2.133 -0.1917  0.4189 -0.1111
  564SOL     ow 2253   4.207   4.326   5.410  0.5347 -0.0472  0.6002
  564SOL     hw 2254   4.212   4.351   5.317  0.3766  0.8939  0.8267
  564SOL     hw 2255   4.118   4.292   5.421  0.9149 -1.1920  0.1720
  564SOL     vw 2256   4.196   4.325   5.399  0.5639 -0.0739  0.5736
  565SOL     ow 2257   0.545   1.809   2.615 -0.3253 -0.1698 -0.0726
  565SOL     hw 2258   0.527   1.734   2.558 -2.2158 -1.1598  1.7024
  565SOL     hw 2259   0.458   1.847   2.632 -0.1743 -1.1427  3.7040
  565SOL     vw 2260   0.531   1.804   2.609 -0.5549 -0.4287  0.6599
  566SOL     ow 2261   2.715   7.170   6.268  0.2707  0.1155 -0.4747
  566SOL     hw 2262   2.632   7.131   6.294  0.0123  0.6406 -0.5022
  566SOL     hw 2263   2.740   7.224   6.343  0.1973  0.5742 -0.7831
  566SOL     vw 2264   2.708   7.172   6.281  0.2270  0.2453 -0.5188
  567SOL     ow 2265   1.541   6.189   7.408  0.0731  0.2638 -0.0480
  567SOL     hw 2266   1.455   6.212   7.373 -0.1965 -1.5275 -0.6749
  567SOL     hw 2267   1.589   6.153   7.333 -0.2119 -2.8549  1.1126
  567SOL     vw 2268   1.536   6.187   7.393  0.0000 -0.3839  0.0226
  568SOL     ow 2269   4.944   5.636   5.128 -0.4518 -0.1263  0.0986
  568SOL     hw 2270   4.951   5.572   5.057 -3.3497 -1.2599  0.6714
  568SOL     hw 2271   5.030   5.635   5.170  0.7472 -0.8011 -2.2136
  568SOL     vw 2272   4.956   5.627   5.124 -0.6757 -0.3648 -0.1309
  569SOL     ow 2273   6.171   3.428   1.776 -0.2139 -0.2093 -0.2066
  569SOL     hw 2274   6.075   3.420   1.779 -0.0843 -1.9852  0.8244
  569SOL     hw 2275   6.197   3.375   1.701 -0.0173 -0.2225 -0.1295
  569SOL     vw 2276   6.162   3.420   1.766 -0.1707 -0.4455 -0.0604
  570SOL     ow 2277   1.028   3.101   1.606  0.1142  0.2534  0.5445
  570SOL     hw 2278   1.067   3.178   1.565  0.6453  0.0420  0.6472
  570SOL     hw 2279   0.996   3.048   1.533  0.5318  0.1580  0.4301
  570SOL     vw 2280   1.029   3.104   1.591  0.2394  0.2129  0.5429
  571SOL     ow 2281   5.266   4.456   3.386 -0.3650 -0.8826  0.4371
  571SOL     hw 2282   5.198   4.392   3.407 -0.8784 -0.1885  0.9541
  571SOL     hw 2283   5.221   4.522   3.333  0.1214 -0.8728  0.0261
  571SOL     vw 2284   5.251   4.456   3.382 -0.3686 -0.7896  0.4512
  572SOL     ow 2285   3.002   2.846   0.997 -0.0791 -0.3502 -0.3392
  572SOL     hw 2286   3.014   2.812   1.085  0.7025 -0.5474 -0.5124
  572SOL     hw 2287   3.083   2.895   0.979 -0.6340  0.5100 -0.5804
  572SOL     vw 2288   3.014   2.848   1.006 -0.0491 -0.2627 -0.3939
  573SOL     ow 2289   4.328   4.369   5.732 -0.3985 -0.7119 -0.2177
  573SOL     hw 2290   4.352   4.399   5.819 -2.7684  1.5074 -0.2173
  573SOL     hw 2291   4.382   4.291   5.717  3.2237  1.2582  1.4456
  573SOL     vw 2292   4.338   4.363   5.741 -0.2332 -0.1590  0.0014
  574SOL     ow 2293   3.361   1.931   4.020  0.4184 -0.3052  0.6024
  574SOL     hw 2294   3.273   1.966   4.004 -0.4160 -2.5979 -0.1565
  574SOL     hw 2295   3.358   1.842   3.986  2.6472 -0.9095  1.8201
  574SOL     vw 2296   3.349   1.924   4.013  0.6025 -0.6874  0.6628
  575SOL     ow 2297   7.520   5.175   0.729 -0.1702  0.1566  0.2242
  575SOL     hw 2298   7.604   5.221   0.728  0.2236 -0.5375  0.6298
  575SOL     hw 2299   7.460   5.233   0.776  0.3599  0.1838  0.8705
  575SOL     vw 2300   7.523   5.189   0.735 -0.0486  0.0687  0.3630
  576SOL     ow 2301   3.840   2.706   2.320  0.5645 -0.0205 -0.2015
  576SOL     hw 2302   3.876   2.730   2.235  2.2560 -1.0465  0.1684
  576SOL     hw 2303   3.776   2.638   2.300  0.0212  0.6436 -0.7476
  576SOL     vw 2304   3.837   2.700   2.306  0.7161 -0.0682 -0.2249
  577SOL     ow 2305   7.236   6.634   2.103  0.3796 -0.6406  0.1195
  577SOL     hw 2306   7.296   6.697   2.142 -0.7923  0.0479  0.8543
  577SOL     hw 2307   7.219   6.571   2.173  1.4043 -1.7215 -0.5547
  577SOL     vw 2308   7.242   6.634   2.117  0.3603 -0.6924  0.1273
  578SOL     ow 2309   4.864   4.397   2.572  0.0045 -0.7600  0.4268
  578SOL     hw 2310   4.796   4.336   2.602  0.2923 -1.2864  0.0366
  578SOL     hw 2311   4.849   4.477   2.622 -2.9288  0.3138 -1.8683
  578SOL     vw 2312   4.853   4.399   2.583 -0.3443 -0.6876  0.0725
  579SOL     ow 2313   5.932   4.741   4.140  0.6779 -0.0615  0.3388
  579SOL     hw 2314   5.916   4.667   4.082  1.9028  0.9874 -1.4414
  579SOL     hw 2315   5.890   4.815   4.095  1.0872  0.6613  1.1234
  579SOL     vw 2316   5.924   4.741   4.126  0.8934  0.1724  0.2074
  580SOL     ow 2317   2.854   4.074   7.415  0.3371 -0.3564  0.1922
  580SOL     hw 2318   2.943   4.088   7.383 -0.8670  2.2731 -2.4576
  580SOL     hw 2319   2.837   4.147   7.474 -0.6194  0.2527 -0.7877
  580SOL     vw 2320   2.863   4.086   7.419  0.0520  0.0710 -0.2868
  581SOL     ow 2321   3.621   0.887   4.894 -0.0360 -0.1490  0.8223
  581SOL     hw 2322   3.678   0.877   4.818 -0.6228 -0.1944  0.3827
  581SOL     hw 2323   3.536   0.911   4.857 -0.0185  1.0814  1.5322
  581SOL     vw 2324   3.617   0.889   4.879 -0.1113  0.0073  0.8581
  582SOL     ow 2325   6.734   1.465   4.883 -0.2822  0.1225 -0.4671
  582SOL     hw 2326   6.716   1.373   4.903  2.3142 -0.5955 -1.1303
  582SOL     hw 2327   6.781   1.498   4.960  1.9191 -0.1590 -1.6353
  582SOL     vw 2328   6.738   1.457   4.896  0.3507 -0.0094 -0.7086
  583SOL     ow 2329   6.428   5.206   0.180  0.6984 -0.0441  0.1222
  583SOL     hw 2330   6.450   5.116   0.203 -0.4235 -0.8543 -1.7104
  583SOL     hw 2331   6.333   5.205   0.169  0.6850  1.3322 -0.1044
  583SOL     vw 2332   6.418   5.194   0.181  0.5486  0.0305 -0.1495
  584SOL     ow 2333   2.148   6.511   7.163 -0.0149 -0.5191 -0.5563
  584SOL     hw 2334   2.138   6.435   7.221 -3.5796 -1.1948 -1.8149
  584SOL     hw 2335   2.074   6.568   7.186  1.2583  1.5052 -1.2316
  584SOL     vw 2336   2.137   6.508   7.174 -0.3172 -0.3414 -0.8118
  585SOL     ow 2337   6.613   2.609   6.301 -0.1655  0.3145 -0.6242
  585SOL     hw 2338   6.527   2.621   6.341 -0.5244 -0.4755 -1.1362
  585SOL     hw 2339   6.652   2.537   6.350  0.5692  1.2393  0.1777
  585SOL     vw 2340   6.607   2.601   6.313 -0.1159  0.3322 -0.5858
  586SOL     ow 2341   7.608   6.659   6.125 -0.1974 -0.0692  0.5510
  586SOL     hw 2342   7.642   6.571   6.144  1.0988 -0.5049 -2.9674
  586SOL     hw 2343   7.686   6.715   6.127 -0.1528  0.0509 -1.6659
  586SOL     vw 2344   7.623   6.655   6.127 -0.0205 -0.1106 -0.2058
  587SOL     ow 2345   5.975   5.774   5.014  0.9580 -0.3082  0.0804
  587SOL     hw 2346   5.906   5.815   4.963  0.7285 -0.9008 -0.1007
  587SOL     hw 2347   6.010   5.844   5.069  1.5236  0.4601 -1.2160
  587SOL     vw 2348   5.971   5.789   5.014  1.0023 -0.2847 -0.1144
  588SOL     ow 2349   5.030   7.084   6.293  0.7281  0.0687 -0.2166
  588SOL     hw 2350   5.059   7.068   6.383 -1.5816 -3.2953  0.1358
  588SOL     hw 2351   4.975   7.162   6.298  0.8603  0.0979  1.2517
  588SOL     vw 2352   5.027   7.092   6.305  0.4406 -0.3715  0.0236
  589SOL     ow 2353   3.049   7.481   0.050 -0.3077 -0.0292  0.7338
  589SOL     hw 2354   3.139   7.510   0.067 -1.3929  5.1979 -0.6368
  589SOL     hw 2355   2.999   7.514   0.124 -1.7751  2.5659 -1.2339
  589SOL     vw 2356   3.054   7.489   0.062 -0.6444  1.0028  0.2933
  590SOL     ow 2357   1.280   2.813   1.492  0.4918 -0.5998  0.0654
  590SOL     hw 2358   1.342   2.855   1.433 -2.2925  0.7282 -2.1943
  590SOL     hw 2359   1.257   2.731   1.449 -1.0342  0.0437 -0.4172
  590SOL     vw 2360   1.285   2.808   1.478 -0.0768 -0.3397 -0.2964
  591SOL     ow 2361   5.509   1.345   5.346 -0.4663 -0.3199 -0.1608
  591SOL     hw 2362   5.545   1.273   5.399  1.2347 -0.7930 -1.8544
  591SOL     hw 2363   5.580   1.408   5.340 -0.5222 -0.3799 -2.0218
  591SOL     vw 2364   5.523   1.344   5.352 -0.2491 -0.3902 -0.6297
  592SOL     ow 2365   4.982   3.016   4.165  1.0864  0.0168  0.2229
  592SOL     hw 2366   5.033   2.990   4.089  1.5211  2.4892 -0.4248
  592SOL     hw 2367   4.993   2.944   4.228  0.1662 -2.4164 -2.2115
  592SOL     vw 2368   4.990   3.003   4.163  1.0226  0.0221 -0.1836
  593SOL     ow 2369   2.749   2.934   4.821  0.2685  0.2209 -0.7138
  593SOL     hw 2370   2.740   2.840   4.837 -2.0561  0.2023 -1.6172
  593SOL     hw 2371   2.791   2.940   4.735 -0.8932 -0.0652 -1.3240
  593SOL     vw 2372   2.753   2.922   4.811 -0.1917  0.1807 -0.9134
  594SOL     ow 2373   0.910   3.296   4.299  0.5771 -0.0246 -0.2580
  594SOL     hw 2374   0.815   3.293   4.309  0.8031  0.0970  2.7463
  594SOL     hw 2375   0.924   3.318   4.206 -2.2589 -1.2694 -1.0773
  594SOL     vw 2376   0.899   3.299   4.288  0.2328 -0.1727  0.0303
  595SOL     ow 2377   7.148   1.820   6.620  0.7415 -0.6003  0.5156
  595SOL     hw 2378   7.230   1.868   6.635  0.2163  0.7052 -0.6340
  595SOL     hw 2379   7.160   1.777   6.536 -0.2295  0.7156 -0.3324
  595SOL     vw 2380   7.161   1.820   6.611  0.5438 -0.2545  0.2522
  596SOL     ow 2381   3.434   1.317   4.289 -0.6987 -0.5260  0.2482
  596SOL     hw 2382   3.455   1.410   4.284 -1.3852 -0.4266 -3.3947
  596SOL     hw 2383   3.518   1.273   4.299 -0.0131  0.4072 -1.0904
  596SOL     vw 2384   3.448   1.324   4.290 -0.6987 -0.3898 -0.4091
  597SOL     ow 2385   1.577   5.722   4.394 -0.8615 -1.1546  0.0604
  597SOL     hw 2386   1.527   5.777   4.454  0.7264 -0.0028  0.4041
  597SOL     hw 2387   1.554   5.753   4.307  0.2339  0.3164  0.2580
  597SOL     vw 2388   1.567   5.734   4.390 -0.5075 -0.8085  0.1318
  598SOL     ow 2389   0.305   1.815   3.872  0.1150  0.3659  0.2940
  598SOL     hw 2390   0.234   1.804   3.935 -0.7737 -2.7362 -1.0366
  598SOL     hw 2391   0.262   1.844   3.792  0.4695 -0.4348 -0.2024
  598SOL     vw 2392   0.290   1.817   3.870  0.0445 -0.1490  0.0530
  599SOL     ow 2393   1.254   2.515   1.308 -0.3896  0.1751 -0.4059
  599SOL     hw 2394   1.342   2.478   1.321 -0.6501 -0.3418 -0.0876
  599SOL     hw 2395   1.199   2.469   1.371 -1.4874 -1.5914 -2.5212
  599SOL     vw 2396   1.259   2.504   1.318 -0.5687 -0.1262 -0.6431
  600SOL     ow 2397   1.138   1.857   5.329 -0.3445 -0.4962 -0.7276
  600SOL     hw 2398   1.053   1.831   5.293  0.3091 -0.4283 -2.3947
  600SOL     hw 2399   1.173   1.778   5.369  0.2506 -1.4475 -2.9949
  600SOL     vw 2400   1.131   1.843   5.330 -0.1798 -0.6128 -1.2465
  601SOL     ow 2401   4.565   7.198   0.006 -0.3694 -0.0078 -0.0540
  601SOL     hw 2402   4.529   7.188  -0.081 -0.4875 -0.0333 -0.0019
  601SOL     hw 2403   4.643   7.142   0.006 -0.2255  0.1942 -0.2252
  601SOL     vw 2404   4.571   7.189  -0.005 -0.3660  0.0155 -0.0697
  602SOL     ow 2405   0.328   1.280   1.915 -0.5686 -0.1804 -0.2329
  602SOL     hw 2406   0.310   1.365   1.876  3.4681  1.8107  1.7041
  602SOL     hw 2407   0.317   1.218   1.843 -0.5593  2.3439 -2.5686
  602SOL     vw 2408   0.324   1.283   1.900 -0.0348  0.4154 -0.2855
  603SOL     ow 2409   6.432   1.191   6.653  0.1718 -0.8546  0.0527
  603SOL     hw 2410   6.456   1.103   6.682  0.2781 -0.1316  2.3729
  603SOL     hw 2411   6.339   1.200   6.674  0.5657  0.1577  1.5414
  603SOL     vw 2412   6.423   1.181   6.659  0.2377 -0.6256  0.5553
  604SOL     ow 2413   5.142   2.996   7.212 -0.3389 -0.0332  0.2815
  604SOL     hw 2414   5.203   3.065   7.240 -1.0451  1.0431 -0.7822
  604SOL     hw 2415   5.195   2.939   7.157 -0.3652  1.1586 -1.0237
  604SOL     vw 2416   5.157   2.998   7.209 -0.4356  0.2660 -0.0310
  605SOL     ow 2417   4.928   4.424   2.262  0.5290 -0.2687 -0.3355
  605SOL     hw 2418   4.951   4.372   2.185  0.9277 -0.2865 -0.2031
  605SOL     hw 2419   4.844   4.465   2.238  0.3182 -0.8010 -0.5177
  605SOL     vw 2420   4.920   4.423   2.249  0.5536 -0.3412 -0.3420
  606SOL     ow 2421   2.945   0.185   7.193  0.2732  0.2424  0.0362
  606SOL     hw 2422   2.955   0.280   7.196 -0.0425  0.2666  0.4675
  606SOL     hw 2423   2.931   0.165   7.101  2.0193  0.4360 -0.3101
  606SOL     vw 2424   2.945   0.195   7.181  0.4618  0.2712  0.0474
  607SOL     ow 2425   6.853   2.765   6.367  0.2523  0.0590  0.2122
  607SOL     hw 2426   6.866   2.830   6.298 -0.7095  0.5547  0.4844
  607SOL     hw 2427   6.769   2.723   6.346  0.7284 -0.9190  0.1879
  607SOL     vw 2428   6.843   2.768   6.355  0.1884 -0.0046  0.2451
  608SOL     ow 2429   3.983   1.160   1.573 -0.4486 -0.0132  0.0298
  608SOL     hw 2430   3.927   1.195   1.642  0.9323 -0.9394  1.7159
  608SOL     hw 2431   3.955   1.069   1.564  0.1064 -0.2069  0.1979
  608SOL     vw 2432   3.972   1.153   1.581 -0.1930 -0.1609  0.2744
  609SOL     ow 2433   3.388   1.015   1.660  0.3259 -0.0554 -0.1179
  609SOL     hw 2434   3.322   0.972   1.715 -1.0181  2.1849  0.1206
  609SOL     hw 2435   3.351   1.100   1.640  3.7024  1.9267  1.2190
  609SOL     vw 2436   3.375   1.020   1.665  0.5940  0.5017  0.0900
  610SOL     ow 2437   0.605   0.277   1.674 -0.6005  0.1802  0.0268
  610SOL     hw 2438   0.541   0.214   1.709 -0.9015 -0.6424 -1.8379
  610SOL     hw 2439   0.576   0.291   1.584  0.9595  1.0288 -0.3642
  610SOL     vw 2440   0.593   0.270   1.667 -0.4343  0.1836 -0.2708
  611SOL     ow 2441   2.487   0.673   4.626  0.3274 -0.7836  0.5990
  611SOL     hw 2442   2.417   0.641   4.684 -0.5754  0.9520  0.5253
  611SOL     hw 2443   2.447   0.678   4.540  0.6418 -0.0910  0.4875
  611SOL     vw 2444   2.473   0.669   4.623  0.2497 -0.4632  0.5746
  612SOL     ow 2445   2.968   4.266   1.633 -0.1279 -0.8785  0.2532
  612SOL     hw 2446   2.978   4.266   1.538  1.4397 -1.0589  0.4044
  612SOL     hw 2447   2.978   4.358   1.659  0.8035 -0.9991  0.3580
  612SOL     vw 2448   2.970   4.279   1.624  0.2018 -0.9184  0.2870
  613SOL     ow 2449   1.951   4.898   4.809 -0.5697  0.4079  0.2069
  613SOL     hw 2450   1.888   4.856   4.751 -0.4538  1.4781 -0.7284
  613SOL     hw 2451   1.980   4.976   4.761  2.1293 -0.4862  0.1708
  613SOL     vw 2452   1.947   4.903   4.795 -0.1983  0.4311  0.0787
  614SOL     ow 2453   1.608   1.929   4.539  0.3442 -0.0122 -0.0133
  614SOL     hw 2454   1.527   1.934   4.590 -0.4109  0.4340 -1.2182
  614SOL     hw 2455   1.678   1.950   4.602 -0.3688 -1.2732  1.2510
  614SOL     vw 2456   1.607   1.932   4.554  0.1505 -0.1197 -0.0052
  615SOL     ow 2457   4.343   5.733   7.498 -1.2007  0.1010  0.4474
  615SOL     hw 2458   4.430   5.735   7.459 -1.1663  2.6990  0.4956
  615SOL     hw 2459   4.286   5.774   7.433 -2.7973 -2.9767 -0.2918
  615SOL     vw 2460   4.347   5.739   7.484 -1.4069  0.0377  0.3562
  616SOL     ow 2461   3.081   2.869   6.782  0.4868 -0.0534 -0.1457
  616SOL     hw 2462   3.085   2.923   6.703  2.5527  1.3224  0.7976
  616SOL     hw 2463   3.129   2.789   6.760 -0.8664 -0.6831 -0.9281
  616SOL     vw 2464   3.088   2.866   6.769  0.5808  0.0448 -0.1247
  617SOL     ow 2465   7.321   2.382   0.888  0.0916  0.4148 -0.0619
  617SOL     hw 2466   7.241   2.344   0.922  0.4116 -1.3205 -1.1326
  617SOL     hw 2467   7.354   2.318   0.826  2.4863  0.9321  0.5666
  617SOL     vw 2468   7.315   2.369   0.884  0.4494  0.2542 -0.1203
  618SOL     ow 2469   6.851   2.225   3.883  0.2882  0.5160  0.1011
  618SOL     hw 2470   6.836   2.319   3.897  0.7189  0.4788  0.9177
  618SOL     hw 2471   6.775   2.195   3.834  0.0436  1.2545  0.0206
  618SOL     vw 2472   6.839   2.234   3.879  0.3128  0.6086  0.1982
  619SOL     ow 2473   0.429   7.242   4.218 -0.7040  0.6174 -0.5025
  619SOL     hw 2474   0.501   7.257   4.280 -2.5897 -0.4536  2.1493
  619SOL     hw 2475   0.456   7.165   4.169 -0.7919 -0.9994  1.8431
  619SOL     vw 2476   0.442   7.234   4.220 -0.9644  0.2627  0.1569
  620SOL     ow 2477   3.824   0.223   1.571  0.4800  0.1086  0.0159
  620SOL     hw 2478   3.825   0.145   1.517  0.2738 -0.5472  0.9288
  620SOL     hw 2479   3.913   0.231   1.604  1.7444  2.7272 -3.4057
  620SOL     vw 2480   3.836   0.214   1.569  0.6195  0.3676 -0.3151
  621SOL     ow 2481   5.783   0.901   2.183  0.4117 -0.0282 -0.2835
  621SOL     hw 2482   5.700   0.900   2.231  0.0154  0.9993 -0.9078
  621SOL     hw 2483   5.777   0.978   2.126  1.0861 -0.8812 -1.5721
  621SOL     vw 2484   5.771   0.911   2.182  0.4485 -0.0051 -0.5360
  622SOL     ow 2485   2.111   0.297   3.759  0.0015  0.3786  0.5903
  622SOL     hw 2486   2.049   0.273   3.828  0.2100 -2.3663 -0.0480
  622SOL     hw 2487   2.057   0.309   3.681  0.0841 -0.2100  0.4369
  622SOL     vw 2488   2.096   0.295   3.758  0.0401 -0.0613  0.4859
  623SOL     ow 2489   6.788   6.372   0.594 -0.3085  0.1830  0.9701
  623SOL     hw 2490   6.780   6.350   0.502 -3.0272  2.6286  0.4561
  623SOL     hw 2491   6.863   6.431   0.599  3.2942 -3.9976  1.4101
  623SOL     vw 2492   6.797   6.377   0.583 -0.1917 -0.0455  0.9603
  624SOL     ow 2493   5.502   4.375   1.334 -0.3371  0.4626  0.7071
  624SOL     hw 2494   5.543   4.450   1.292  1.6302 -0.3733  1.0433
  624SOL     hw 2495   5.416   4.369   1.293  0.5500  1.1659 -1.4033
  624SOL     vw 2496   5.496   4.384   1.323  0.0396  0.4454  0.4730
  625SOL     ow 2497   7.189   7.485   6.551  0.7247 -0.7729 -0.4069
  625SOL     hw 2498   7.133   7.409   6.568  1.4365 -1.0760  0.6702
  625SOL     hw 2499   7.258   7.451   6.495  1.8839 -1.3213  1.2878
  625SOL     vw 2500   7.190   7.471   6.546  0.9716 -0.8850 -0.0410
  626SOL     ow 2501   7.592   0.868   5.021 -0.4473  0.1852 -0.4961
  626SOL     hw 2502   7.663   0.918   4.980 -0.6139 -0.6151 -1.8298
  626SOL     hw 2503   7.637   0.795   5.065 -0.3798  0.0933 -0.7134
  626SOL     vw 2504   7.607   0.865   5.021 -0.4603  0.0675 -0.7007
  627SOL     ow 2505   2.106   4.839   4.047 -0.0237  0.1398  0.1835
  627SOL     hw 2506   2.083   4.859   4.137  2.8429 -2.5297  1.6749
  627SOL     hw 2507   2.051   4.765   4.023  2.2158 -2.0934  1.4882
  627SOL     vw 2508   2.096   4.832   4.055  0.6500 -0.5069  0.5524
  628SOL     ow 2509   7.273   4.304   4.669 -0.0510  0.7224  0.4655
  628SOL     hw 2510   7.201   4.240   4.667 -1.3625  2.1547  0.3725
  628SOL     hw 2511   7.331   4.275   4.598  0.7214 -1.7735  1.9632
  628SOL     vw 2512   7.271   4.292   4.659 -0.1223  0.5822  0.6511
  629SOL     ow 2513   2.776   2.254   1.901  0.0480  0.8630  0.0554
  629SOL     hw 2514   2.824   2.327   1.861  0.6290  0.7266  0.4990
  629SOL     hw 2515   2.833   2.223   1.971  1.3286 -2.1154 -2.0674
  629SOL     vw 2516   2.790   2.260   1.905  0.2937  0.4522 -0.1661
  630SOL     ow 2517   7.071   3.124   6.228 -0.3632 -0.5439 -0.4882
  630SOL     hw 2518   7.099   3.215   6.222  2.3391 -1.1005  1.5943
  630SOL     hw 2519   7.064   3.094   6.138 -3.5611  2.2354 -1.3253
  630SOL     vw 2520   7.074   3.132   6.216 -0.4287 -0.2506 -0.3238
  631SOL     ow 2521   2.479   6.612   6.427 -0.0595 -0.1372  0.5485
  631SOL     hw 2522   2.417   6.638   6.359  0.0761  1.5866  1.0198
  631SOL     hw 2523   2.547   6.564   6.381 -0.8400 -0.4904 -0.2551
  631SOL     vw 2524   2.480   6.609   6.412 -0.1446  0.0436  0.5047
  632SOL     ow 2525   0.693   0.573   4.055  0.3979  0.0049 -0.5600
  632SOL     hw 2526   0.683   0.669   4.055 -0.1798 -0.0376 -2.1031
  632SOL     hw 2527   0.787   0.559   4.044  0.3368  0.4134 -1.7787
  632SOL     vw 2528   0.704   0.584   4.054  0.3136  0.0532 -0.9243
  633SOL     ow 2529   6.265   1.192   6.370 -0.1405  0.4944 -0.1412
  633SOL     hw 2530   6.341   1.243   6.399 -0.7008  0.2409  1.9380
  633SOL     hw 2531   6.199   1.257   6.348 -0.2216  0.7043  0.6916
  633SOL     vw 2532   6.266   1.207   6.371 -0.2251  0.4886  0.2432
  634SOL     ow 2533   3.338   3.784   3.980 -0.1249  0.1647 -0.4988
  634SOL     hw 2534   3.393   3.843   4.030 -1.7311  0.3838  1.1481
  634SOL     hw 2535   3.249   3.817   3.993 -0.9347 -1.7787 -0.6712
  634SOL     vw 2536   3.333   3.796   3.988 -0.4437 -0.0628 -0.3042
  635SOL     ow 2537   0.191   6.725   7.313  0.5275 -0.4905  0.3570
  635SOL     hw 2538   0.191   6.733   7.409  0.6650 -2.1999  0.5331
  635SOL     hw 2539   0.250   6.795   7.284 -0.8805  1.2068  1.3631
  635SOL     vw 2540   0.199   6.736   7.322  0.3599 -0.4921  0.5131
  636SOL     ow 2541   6.530   7.294   0.840 -0.9639  0.1870 -0.4685
  636SOL     hw 2542   6.526   7.293   0.744 -0.5998 -0.1323 -0.4800
  636SOL     hw 2543   6.439   7.308   0.867 -1.2230 -0.7064 -0.8426
  636SOL     vw 2544   6.517   7.296   0.831 -0.9503  0.0269 -0.5194
  637SOL     ow 2545   3.418   0.731   5.748 -0.5297 -0.4184  0.0096
  637SOL     hw 2546   3.445   0.650   5.706  0.0708 -0.5017  0.5542
  637SOL     hw 2547   3.374   0.781   5.678  0.5132 -0.5172 -0.7425
  637SOL     vw 2548   3.415   0.727   5.733 -0.3129 -0.4424 -0.0176
  638SOL     ow 2549   6.276   2.196   3.433  0.0242 -0.0914 -0.2792
  638SOL     hw 2550   6.258   2.136   3.361  0.1724  0.9693 -1.2281
  638SOL     hw 2551   6.194   2.243   3.447  1.1686  3.3678 -3.3110
  638SOL     vw 2552   6.263   2.195   3.425  0.1948  0.5049 -0.8043
  639SOL     ow 2553   7.109   2.142   5.969 -0.2388  0.2305  0.5945
  639SOL     hw 2554   7.017   2.138   5.942  0.2793  0.2751 -1.2861
  639SOL     hw 2555   7.157   2.098   5.899  1.4116  2.3360  0.2744
  639SOL     vw 2556   7.103   2.136   5.956  0.0472  0.5143  0.3042
  640SOL     ow 2557   2.401   3.791   3.171 -0.3295  0.0453  0.2088
  640SOL     hw 2558   2.364   3.835   3.094  1.0295 -0.7589 -0.9537
  640SOL     hw 2559   2.344   3.716   3.185  1.2328 -1.7267 -2.1545
  640SOL     vw 2560   2.388   3.787   3.163  0.0559 -0.2947 -0.2564
  641SOL     ow 2561   4.507   2.629   6.875 -0.0560 -0.3585  0.2106
  641SOL     hw 2562   4.592   2.638   6.831 -0.1245  1.7084  0.3791
  641SOL     hw 2563   4.457   2.571   6.819  2.2810 -3.9184  1.4540
  641SOL     vw 2564   4.512   2.623   6.862  0.2434 -0.5556  0.3970
  642SOL     ow 2565   5.941   5.977   4.249  0.5604  0.5942 -0.0659
  642SOL     hw 2566   6.006   5.952   4.184  2.2368  0.3731  1.6055
  642SOL     hw 2567   5.980   5.954   4.333 -2.0949 -0.4678  1.0069
  642SOL     vw 2568   5.954   5.971   4.251  0.4313  0.4251  0.2964
  643SOL     ow 2569   5.977   2.538   2.569  0.4710  0.0809  0.1057
  643SOL     hw 2570   5.979   2.597   2.494  1.0038 -0.0818 -0.0114
  643SOL     hw 2571   6.033   2.464   2.544  1.2518  0.3646  0.9322
  643SOL     vw 2572   5.985   2.536   2.556  0.6442  0.0968  0.1993
  644SOL     ow 2573   2.845   5.928   5.187  0.1342 -0.2050  0.3375
  644SOL     hw 2574   2.838   6.004   5.130 -0.0953 -0.2094  0.3586
  644SOL     hw 2575   2.817   5.854   5.133 -1.3776 -0.0372  0.8352
  644SOL     vw 2576   2.841   5.928   5.173 -0.0956 -0.1833  0.4058
  645SOL     ow 2577   7.069   3.376   1.315 -0.1580  0.4194  0.1385
  645SOL     hw 2578   7.072   3.452   1.257  0.0641  0.0687 -0.3103
  645SOL     hw 2579   7.152   3.380   1.364 -0.7991  1.2984  1.1855
  645SOL     vw 2580   7.081   3.387   1.314 -0.2134  0.4891  0.2174
  646SOL     ow 2581   5.447   6.414   6.193  0.1830  0.9801  1.1671
  646SOL     hw 2582   5.425   6.367   6.273 -1.9946 -1.2327 -0.5682
  646SOL     hw 2583   5.470   6.346   6.130  1.1616  2.5910 -0.3280
  646SOL     vw 2584   5.447   6.399   6.195  0.0248  0.9007  0.7408
  647SOL     ow 2585   1.608   6.271   0.816 -0.5229 -0.2739  0.7860
  647SOL     hw 2586   1.649   6.332   0.755 -3.1160  0.3641 -0.4492
  647SOL     hw 2587   1.522   6.309   0.834 -1.5468 -2.6721  1.3700
  647SOL     vw 2588   1.602   6.284   0.811 -1.0000 -0.5062  0.7001
  648SOL     ow 2589   7.404   1.680   0.654 -0.2793 -0.2310  1.1906
  648SOL     hw 2590   7.358   1.685   0.571  0.0421 -0.1044  1.0175
  648SOL     hw 2591   7.339   1.709   0.719 -0.3821  0.1385  0.9263
  648SOL     vw 2592   7.389   1.685   0.652 -0.2503 -0.1655  1.1329
  649SOL     ow 2593   4.108   6.031   2.797  0.8690  0.2819  0.6245
  649SOL     hw 2594   4.192   6.053   2.758  0.5909 -0.0784 -0.1904
  649SOL     hw 2595   4.128   5.956   2.854  0.8934 -0.5947 -0.5032
  649SOL     vw 2596   4.122   6.024   2.800  0.8354  0.1187  0.3681
  650SOL     ow 2597   7.434   0.775   2.264  0.4158  0.2126 -0.0734
  650SOL     hw 2598   7.377   0.708   2.226 -1.6309  2.9570 -2.2773
  650SOL     hw 2599   7.522   0.738   2.256 -0.3922 -1.4019 -3.1082
  650SOL     vw 2600   7.438   0.761   2.258  0.0391  0.3617 -0.7646
  651SOL     ow 2601   2.021   5.670   2.078 -0.7261 -0.0013  0.5332
  651SOL     hw 2602   1.987   5.649   2.164 -0.8580 -2.2039 -0.0093
  651SOL     hw 2603   1.952   5.643   2.017  0.2234 -0.4796 -0.3591
  651SOL     vw 2604   2.007   5.664   2.081 -0.6182 -0.3550  0.3438
  652SOL     ow 2605   5.051   0.569   4.756  0.1178  0.8893  0.3968
  652SOL     hw 2606   5.136   0.534   4.781 -0.0351 -0.4281 -0.8136
  652SOL     hw 2607   4.991   0.540   4.826  0.2845  0.0034  0.1853
  652SOL     vw 2608   5.054   0.561   4.768  0.1197  0.5986  0.2091
  653SOL     ow 2609   3.967   3.424   5.409  0.1082 -0.5626  0.1019
  653SOL     hw 2610   3.989   3.442   5.317 -0.9359 -0.2938 -0.1149
  653SOL     hw 2611   3.920   3.502   5.437  1.4257 -0.1492  1.2329
  653SOL     vw 2612   3.963   3.437   5.400  0.1442 -0.4725  0.2224
  654SOL     ow 2613   1.067   1.281   2.739  0.3891 -0.1574 -0.6250
  654SOL     hw 2614   1.044   1.236   2.658 -0.3464  1.1534 -1.1768
  654SOL     hw 2615   1.025   1.229   2.808 -2.2441  0.7689 -1.4113
  654SOL     vw 2616   1.059   1.268   2.737 -0.0553  0.1377 -0.8016
  655SOL     ow 2617   4.307   0.477   5.473 -0.2150  0.6594  0.1065
  655SOL     hw 2618   4.365   0.492   5.548  0.6977  2.7257 -0.9374
  655SOL     hw 2619   4.358   0.507   5.397 -2.3697  1.8977 -0.9339
  655SOL     vw 2620   4.322   0.483   5.473 -0.3791  1.0954 -0.1683
  656SOL     ow 2621   1.691   1.604   7.596 -0.4838  0.3697  0.2071
  656SOL     hw 2622   1.664   1.514   7.619 -2.2577  1.2451  1.8747
  656SOL     hw 2623   1.784   1.607   7.618 -0.6251 -0.7765  1.0953
  656SOL     vw 2624   1.699   1.592   7.602 -0.7365  0.3339  0.5441
  657SOL     ow 2625   0.594   6.420   4.809 -0.5295  0.6688  0.4645
  657SOL     hw 2626   0.596   6.504   4.856 -1.5288  0.3504  1.0983
  657SOL     hw 2627   0.590   6.445   4.716  0.0116  1.3142  0.6047
  657SOL     vw 2628   0.594   6.435   4.803 -0.5900  0.7117  0.5667
  658SOL     ow 2629   7.008   5.944   1.260  1.0235  0.6472  0.1906
  658SOL     hw 2630   7.059   6.025   1.258  2.2768 -0.1148  0.8458
  658SOL     hw 2631   7.035   5.897   1.181  0.9326  0.4650  0.2682
  658SOL     vw 2632   7.018   5.949   1.249  1.1768  0.5229  0.2873
  659SOL     ow 2633   2.148   2.398   5.737 -0.1846 -0.3382  0.2300
  659SOL     hw 2634   2.192   2.419   5.819  1.9080 -1.0788 -0.6400
  659SOL     hw 2635   2.216   2.405   5.670 -1.6567 -0.4686 -1.3603
  659SOL     vw 2636   2.163   2.401   5.739 -0.1028 -0.4531 -0.0949
  660SOL     ow 2637   2.206   4.765   4.872 -0.8464 -0.6714 -0.4515
  660SOL     hw 2638   2.248   4.841   4.831 -1.0028 -0.7580 -0.7818
  660SOL     hw 2639   2.123   4.798   4.905 -0.7391 -0.6111 -0.2385
  660SOL     vw 2640   2.201   4.779   4.871 -0.8529 -0.6750 -0.4671
  661SOL     ow 2641   6.311   1.065   2.638 -0.0753  0.0341  0.2745
  661SOL     hw 2642   6.401   1.077   2.667  0.3766 -0.5388 -0.8406
  661SOL     hw 2643   6.260   1.127   2.691  1.1613  1.4383 -0.1283
  661SOL     vw 2644   6.316   1.075   2.649  0.1473  0.1438  0.0744
  662SOL     ow 2645   5.664   4.150   4.783 -0.2565 -0.8579 -0.0446
  662SOL     hw 2646   5.698   4.125   4.697  0.1813 -0.8825  0.1347
  662SOL     hw 2647   5.594   4.212   4.764 -0.6849 -1.4572 -0.4505
  662SOL     vw 2648   5.659   4.155   4.769 -0.2553 -0.9401 -0.0746
  663SOL     ow 2649   3.160   0.526   5.854 -0.0473 -0.3534  0.0732
  663SOL     hw 2650   3.212   0.448   5.836  0.6433  0.0081  0.4396
  663SOL     hw 2651   3.110   0.542   5.774 -1.9833 -2.4948  0.7470
  663SOL     vw 2652   3.160   0.518   5.841 -0.2117 -0.5882  0.2103
  664SOL     ow 2653   1.093   2.670   2.773  0.2332  0.1964  0.0408
  664SOL     hw 2654   1.143   2.674   2.854 -0.5668  0.9149  0.5093
  664SOL     hw 2655   1.045   2.587   2.779  0.9350 -0.2327 -0.1631
  664SOL     vw 2656   1.093   2.659   2.784  0.2202  0.2345  0.0757
  665SOL     ow 2657   7.245   6.954   6.668  0.2765  0.7515 -0.1070
  665SOL     hw 2658   7.284   6.872   6.639 -0.5855  0.8393 -1.5985
  665SOL     hw 2659   7.295   6.979   6.746  2.3336  0.2329 -1.2086
  665SOL     vw 2660   7.256   6.947   6.675  0.4344  0.6948 -0.4489
  666SOL     ow 2661   3.623   3.143   7.290  0.2496  0.3902  0.4601
  666SOL     hw 2662   3.535   3.179   7.295  0.0701  0.5275 -2.2280
  666SOL     hw 2663   3.639   3.105   7.377 -2.0246  1.2735  1.3287
  666SOL     vw 2664   3.614   3.143   7.302 -0.0741  0.5249  0.2201
  667SOL     ow 2665   4.248   2.389   3.450 -0.1214 -0.2247  0.2063
  667SOL     hw 2666   4.226   2.482   3.455 -0.4339 -0.2523 -0.5306
  667SOL     hw 2667   4.222   2.353   3.534 -2.1589 -0.1007 -0.3174
  667SOL     vw 2668   4.242   2.397   3.462 -0.4315 -0.2118  0.0401
  668SOL     ow 2669   3.668   5.122   6.279  0.6089  0.0787 -0.0390
  668SOL     hw 2670   3.586   5.124   6.329  0.9485 -0.0768  0.5309
  668SOL     hw 2671   3.736   5.137   6.344  1.1079 -0.8222 -0.3408
  668SOL     vw 2672   3.666   5.124   6.294  0.7197 -0.0603 -0.0036
  669SOL     ow 2673   2.387   4.517   6.010 -0.8109 -0.3281 -0.4418
  669SOL     hw 2674   2.318   4.523   6.076 -1.0381 -0.1433 -0.6933
  669SOL     hw 2675   2.467   4.536   6.058 -1.2148  2.3103 -0.6671
  669SOL     vw 2676   2.388   4.520   6.025 -0.8942  0.0443 -0.5047
  670SOL     ow 2677   5.098   5.197   0.446 -0.6017  0.0321  0.1479
  670SOL     hw 2678   5.178   5.165   0.489  0.4796 -1.2272 -2.5866
  670SOL     hw 2679   5.028   5.143   0.483  0.5486 -2.3224 -0.8883
  670SOL     vw 2680   5.099   5.185   0.457 -0.3073 -0.4447 -0.3496
  671SOL     ow 2681   3.966   7.227   2.384  0.3443  0.1712 -0.3417
  671SOL     hw 2682   4.024   7.249   2.456 -0.8298  0.0127  0.6869
  671SOL     hw 2683   3.992   7.138   2.359  1.9510  0.8837 -1.3598
  671SOL     vw 2684   3.977   7.218   2.390  0.4015  0.2444 -0.3402
  672SOL     ow 2685   3.402   5.060   6.424 -0.5978  1.0593  0.0777
  672SOL     hw 2686   3.448   5.068   6.508 -1.9140  0.9490  0.8357
  672SOL     hw 2687   3.360   4.974   6.428 -2.1019  1.7718  0.0499
  672SOL     vw 2688   3.403   5.049   6.436 -0.9698  1.1387  0.1740
  673SOL     ow 2689   2.977   4.041   1.403 -0.4363 -0.7098  0.9471
  673SOL     hw 2690   2.978   3.946   1.388 -0.4377 -0.8189  1.5813
  673SOL     hw 2691   2.990   4.079   1.317  2.6595 -1.3297  1.0292
  673SOL     vw 2692   2.979   4.033   1.390 -0.0280 -0.8059  1.0416
  674SOL     ow 2693   7.520   5.863   3.009  0.1629 -0.5194  0.4230
  674SOL     hw 2694   7.575   5.900   3.078 -1.2314  0.1944  1.1903
  674SOL     hw 2695   7.461   5.804   3.055 -0.8030 -0.0147 -0.1562
  674SOL     vw 2696   7.520   5.860   3.025 -0.1488 -0.3588  0.4478
  675SOL     ow 2697   1.617   5.388   2.979 -0.0639  0.1187 -0.1658
  675SOL     hw 2698   1.551   5.318   2.983 -0.4309  0.5003  2.5646
  675SOL     hw 2699   1.624   5.419   3.069  1.0384  2.7553 -1.0608
  675SOL     vw 2700   1.609   5.383   2.991  0.0331  0.5169  0.0765
  676SOL     ow 2701   1.089   4.886   7.605  0.7271  0.1726 -0.5526
  676SOL     hw 2702   1.127   4.800   7.590 -2.8469 -2.1456  2.1584
  676SOL     hw 2703   1.121   4.912   7.692 -2.3455 -1.1550  1.1193
  676SOL     vw 2704   1.098   4.878   7.614 -0.1499 -0.3085  0.0257
  677SOL     ow 2705   5.870   5.165   0.789  0.6743  0.4678 -0.1320
  677SOL     hw 2706   5.920   5.120   0.857 -0.9347  0.9439  1.4412
  677SOL     hw 2707   5.926   5.160   0.711  1.5349 -2.2227  0.5421
  677SOL     vw 2708   5.884   5.158   0.788  0.5755  0.1760  0.1645
  678SOL     ow 2709   5.123   4.286   2.094  0.0668  0.0368  0.2680
  678SOL     hw 2710   5.137   4.340   2.017  0.3425 -0.1302  0.1993
  678SOL     hw 2711   5.202   4.232   2.100  0.5376  0.7877  1.2646
  678SOL     vw 2712   5.135   4.286   2.085  0.1652  0.1135  0.3905
  679SOL     ow 2713   7.299   1.736   7.124 -0.2547  0.0458 -0.3041
  679SOL     hw 2714   7.274   1.820   7.085 -0.2073  0.5778  0.7730
  679SOL     hw 2715   7.369   1.758   7.185 -1.2447 -0.5369  1.0941
  679SOL     vw 2716   7.305   1.750   7.127 -0.3791  0.0392  0.0226
  680SOL     ow 2717   2.362   0.462   6.166 -0.0597 -0.0199  0.0066
  680SOL     hw 2718   2.398   0.430   6.249  1.1066 -1.6146 -1.0626
  680SOL     hw 2719   2.317   0.387   6.129 -2.0063  1.1266 -0.0919
  680SOL     vw 2720   2.361   0.448   6.172 -0.1626 -0.0790 -0.1476
  681SOL     ow 2721   5.132   5.886   2.142 -0.4206  0.2433  0.6258
  681SOL     hw 2722   5.102   5.938   2.216  2.2816 -0.2784  2.2335
  681SOL     hw 2723   5.136   5.796   2.174 -3.6699 -0.9096 -1.6875
  681SOL     vw 2724   5.129   5.881   2.156 -0.4930  0.0222  0.5326
  682SOL     ow 2725   6.527   6.661   6.790  0.1316 -0.2607 -0.1470
  682SOL     hw 2726   6.549   6.631   6.878  1.3186  0.0217 -0.3169
  682SOL     hw 2727   6.612   6.664   6.744 -0.0431  2.2694 -0.4658
  682SOL     vw 2728   6.541   6.657   6.795  0.2651  0.1104 -0.2112
  683SOL     ow 2729   6.759   2.135   6.289  0.2800 -0.4035 -0.2452
  683SOL     hw 2730   6.729   2.171   6.206  1.9499  3.7590  0.6821
  683SOL     hw 2731   6.854   2.134   6.282  0.3883 -1.5378  1.0554
  683SOL     vw 2732   6.767   2.140   6.277  0.5147 -0.0039  0.0486
  684SOL     ow 2733   4.688   3.553   0.354 -0.5656  0.2813 -1.0980
  684SOL     hw 2734   4.731   3.589   0.277  1.8791 -3.2162 -1.6285
  684SOL     hw 2735   4.686   3.625   0.417  1.5074  2.0393 -2.8678
  684SOL     vw 2736   4.693   3.567   0.352  0.0303  0.0517 -1.4015
  685SOL     ow 2737   1.234   1.403   6.449 -0.2993 -0.1671 -0.8390
  685SOL     hw 2738   1.182   1.428   6.525  1.0655 -0.2456  0.1507
  685SOL     hw 2739   1.171   1.358   6.391 -1.3220 -0.2691  0.3069
  685SOL     vw 2740   1.219   1.400   6.451 -0.2542 -0.1909 -0.5572
  686SOL     ow 2741   1.958   6.271   2.731  0.5189  0.0616  0.8616
  686SOL     hw 2742   1.899   6.216   2.680  0.6976 -0.0937  0.8211
  686SOL     hw 2743   1.957   6.233   2.819 -1.5812  1.6763  1.6167
  686SOL     vw 2744   1.950   6.259   2.736  0.2654  0.2542  0.9559
  687SOL     ow 2745   4.061   6.825   3.560  0.3194  0.0972 -0.4241
  687SOL     hw 2746   4.046   6.910   3.602 -3.0371 -0.7089  0.2651
  687SOL     hw 2747   4.041   6.840   3.467 -1.6475 -0.1611 -0.0837
  687SOL     vw 2748   4.056   6.838   3.553 -0.3834 -0.0432 -0.2882
  688SOL     ow 2749   6.156   2.927   2.848 -0.2844 -0.0643  0.3434
  688SOL     hw 2750   6.203   2.995   2.896 -1.8654  1.4011 -0.0945
  688SOL     hw 2751   6.074   2.915   2.896 -1.1715  0.2443 -1.0366
  688SOL     vw 2752   6.151   2.934   2.860 -0.6099  0.1698  0.1034
  689SOL     ow 2753   2.001   1.689   5.458  0.1110 -0.2406 -0.4217
  689SOL     hw 2754   1.988   1.735   5.374  1.0744  0.5246 -0.1774
  689SOL     hw 2755   2.037   1.757   5.516  2.1116 -1.3986 -0.1995
  689SOL     vw 2756   2.004   1.704   5.454  0.5021 -0.2925 -0.3600
  690SOL     ow 2757   0.888   1.777   5.260 -0.1961  0.0778 -0.4089
  690SOL     hw 2758   0.817   1.792   5.197 -0.9486  1.5036  0.7236
  690SOL     hw 2759   0.866   1.693   5.300 -1.0508  0.3110 -0.3573
  690SOL     vw 2760   0.876   1.768   5.257 -0.4082  0.2968 -0.2525
  691SOL     ow 2761   2.775   6.578   1.418 -0.9880  0.1411  0.5864
  691SOL     hw 2762   2.804   6.501   1.468 -4.3546 -1.5384  0.1946
  691SOL     hw 2763   2.785   6.553   1.326  3.3267  2.5046  0.1402
  691SOL     vw 2764   2.780   6.565   1.413 -0.8628  0.2315  0.4759
  692SOL     ow 2765   4.282   2.308   4.953  0.0167  0.2529 -0.8014
  692SOL     hw 2766   4.234   2.368   5.009  1.5290  0.9316 -0.1780
  692SOL     hw 2767   4.222   2.235   4.938 -0.6807  0.3896  1.1218
  692SOL     vw 2768   4.268   2.306   4.958  0.1245  0.3606 -0.4652
  693SOL     ow 2769   6.540   1.684   4.927 -0.7083 -0.0318  0.2440
  693SOL     hw 2770   6.616   1.628   4.917  1.7299  3.0924 -0.1691
  693SOL     hw 2771   6.472   1.643   4.872  2.0165 -0.7001 -2.9187
  693SOL     vw 2772   6.541   1.671   4.919 -0.0272  0.2922 -0.2279
  694SOL     ow 2773   5.641   2.108   0.121  0.1584 -0.6750  0.1774
  694SOL     hw 2774   5.602   2.194   0.137  2.6123  0.3936  0.8540
  694SOL     hw 2775   5.599   2.077   0.041  0.1349  1.7636 -0.8282
  694SOL     vw 2776   5.630   2.115   0.112  0.4790 -0.2123  0.1340
  695SOL     ow 2777   2.573   0.400   0.745  0.3810 -0.1056 -0.1041
  695SOL     hw 2778   2.500   0.359   0.699  0.8011  0.9876 -1.8596
  695SOL     hw 2779   2.592   0.479   0.694  1.2395  0.9049  1.6889
  695SOL     vw 2780   2.566   0.405   0.732  0.5497  0.1719 -0.0992
  696SOL     ow 2781   2.947   0.819   6.996  0.5159  0.0091  0.1085
  696SOL     hw 2782   2.856   0.811   6.969  0.2486 -0.3149  1.0742
  696SOL     hw 2783   2.976   0.729   7.011  0.9942  0.1092 -0.1577
  696SOL     vw 2784   2.939   0.806   6.994  0.5437 -0.0204  0.2010
  697SOL     ow 2785   3.907   1.815   2.263  0.0214  0.6758 -0.1864
  697SOL     hw 2786   4.002   1.816   2.261  0.0106  1.5274 -1.2245
  697SOL     hw 2787   3.885   1.796   2.354  1.1712 -0.2148 -0.0761
  697SOL     vw 2788   3.916   1.812   2.275  0.1718  0.6707 -0.3089
  698SOL     ow 2789   5.467   4.491   1.582 -0.8949 -0.4133 -0.1381
  698SOL     hw 2790   5.463   4.581   1.550 -2.5894  0.3544  1.9967
  698SOL     hw 2791   5.457   4.438   1.503 -3.1610  1.3323 -1.1437
  698SOL     vw 2792   5.465   4.496   1.567 -1.4174 -0.0815  0.0110
  699SOL     ow 2793   6.473   7.515   5.725 -1.0380  0.0743 -0.2846
  699SOL     hw 2794   6.469   7.429   5.765 -1.6240 -0.3052 -1.1306
  699SOL     hw 2795   6.422   7.507   5.644  0.1972  0.7725 -1.1777
  699SOL     vw 2796   6.466   7.503   5.720 -0.9522  0.1161 -0.5140
  700SOL     ow 2797   3.445   2.956   1.070 -0.0298  0.3965  0.0710
  700SOL     hw 2798   3.483   3.013   1.136 -0.5011 -0.5465  1.1889
  700SOL     hw 2799   3.509   2.957   0.998  0.9713  0.6619  0.9353
  700SOL     vw 2800   3.459   2.964   1.069  0.0399  0.3072  0.3326
  701SOL     ow 2801   1.077   4.017   5.585 -0.1363  0.4834 -0.1216
  701SOL     hw 2802   1.013   3.987   5.521 -0.6053  0.6601  0.2593
  701SOL     hw 2803   1.056   3.969   5.665 -1.1182  2.0344  0.6003
  701SOL     vw 2804   1.066   4.007   5.587 -0.3278  0.7114  0.0241
  702SOL     ow 2805   3.589   3.564   6.943  0.1132 -0.8680 -0.5334
  702SOL     hw 2806   3.535   3.545   6.867 -0.5874  0.3460 -0.3661
  702SOL     hw 2807   3.668   3.605   6.907  0.2606 -1.2609 -0.6676
  702SOL     vw 2808   3.593   3.567   6.928  0.0403 -0.7596 -0.5288
  703SOL     ow 2809   1.638   2.794   1.097  0.1881  0.2755 -0.4011
  703SOL     hw 2810   1.614   2.717   1.046 -2.3706  0.7945 -0.1285
  703SOL     hw 2811   1.660   2.760   1.184 -1.9562 -0.1498  0.0338
  703SOL     vw 2812   1.638   2.779   1.102 -0.4324  0.2880 -0.3077
  704SOL     ow 2813   7.174   1.375   0.884  0.7957  0.4431 -0.8149
  704SOL     hw 2814   7.225   1.359   0.963  3.5345  3.4980 -1.7332
  704SOL     hw 2815   7.205   1.310   0.822  1.7643  0.6663 -0.5838
  704SOL     vw 2816   7.185   1.364   0.886  1.2851  0.8756 -0.9056
  705SOL     ow 2817   2.513   3.409   7.440 -0.6681  0.8276 -0.0601
  705SOL     hw 2818   2.426   3.419   7.479 -1.1585  3.1853 -1.6028
  705SOL     hw 2819   2.535   3.317   7.454 -4.7678 -0.7407 -2.3143
  705SOL     vw 2820   2.505   3.398   7.447 -1.2736  0.9316 -0.5612
  706SOL     ow 2821   1.661   5.490   3.217  0.1732 -0.1908  0.4370
  706SOL     hw 2822   1.725   5.481   3.287  0.5327 -0.7484  0.0412
  706SOL     hw 2823   1.583   5.524   3.260  1.3706  2.6516  0.6002
  706SOL     vw 2824   1.659   5.493   3.232  0.3785  0.1106  0.4064
  707SOL     ow 2825   2.612   4.968   4.001  0.1249  0.1639  0.3454
  707SOL     hw 2826   2.675   4.911   3.957  0.8225 -0.4963  2.0805
  707SOL     hw 2827   2.527   4.930   3.981  0.2025  1.1543 -2.1557
  707SOL     vw 2828   2.609   4.955   3.993  0.2272  0.2074  0.2443
  708SOL     ow 2829   6.908   1.406   5.888  0.5370  0.0854 -0.2087
  708SOL     hw 2830   6.996   1.404   5.926  0.5168 -0.1766 -0.1739
  708SOL     hw 2831   6.920   1.375   5.798  0.2413 -1.5696  0.2857
  708SOL     vw 2832   6.921   1.402   5.881  0.4952 -0.1675 -0.1390
  709SOL     ow 2833   2.436   7.383   5.947  0.4484  0.4382 -0.2306
  709SOL     hw 2834   2.416   7.468   5.908 -1.2433 -0.0496 -0.5180
  709SOL     hw 2835   2.389   7.320   5.893  0.5296 -0.5429  0.7998
  709SOL     vw 2836   2.427   7.386   5.935  0.2358  0.2441 -0.1328
  710SOL     ow 2837   2.579   5.502   1.297 -0.2279  0.0679 -0.0495
  710SOL     hw 2838   2.647   5.533   1.238 -0.2976 -0.6458 -0.5210
  710SOL     hw 2839   2.544   5.423   1.255  0.4057 -1.0429  1.3911
  710SOL     vw 2840   2.583   5.495   1.284 -0.1534 -0.1729  0.0784
  711SOL     ow 2841   3.246   4.461   2.577 -0.0863 -0.0462 -0.0860
  711SOL     hw 2842   3.208   4.374   2.588  1.7242 -0.9261 -0.3609
  711SOL     hw 2843   3.331   4.456   2.621 -0.7551  2.2271  1.6100
  711SOL     vw 2844   3.252   4.449   2.584  0.0643  0.1378  0.1014
  712SOL     ow 2845   0.303   6.319   0.251  0.1184  0.3507  0.2232
  712SOL     hw 2846   0.366   6.372   0.299  0.0205 -0.1988  0.9781
  712SOL     hw 2847   0.339   6.230   0.254  0.1619  0.3208 -0.8206
  712SOL     vw 2848   0.316   6.314   0.257  0.1113  0.2742  0.1851
  713SOL     ow 2849   5.885   1.361   1.114  1.1983  0.4207 -0.3007
  713SOL     hw 2850   5.791   1.346   1.115  0.9699  1.3244 -2.4903
  713SOL     hw 2851   5.902   1.416   1.191 -0.5652  2.7299 -1.4453
  713SOL     vw 2852   5.875   1.366   1.124  0.9353  0.8446 -0.7406
  714SOL     ow 2853   0.012   1.881   1.257 -0.3336 -0.2735  0.3915
  714SOL     hw 2854   0.053   1.955   1.213 -1.4391 -0.0631 -0.3060
  714SOL     hw 2855   0.049   1.804   1.213  0.2717 -0.1256  0.6330
  714SOL     vw 2856   0.022   1.880   1.245 -0.3996 -0.2263  0.3313
  715SOL     ow 2857   1.668   5.113   7.526 -0.2397  0.4360 -0.3723
  715SOL     hw 2858   1.713   5.154   7.452  0.0068 -0.5320 -0.7806
  715SOL     hw 2859   1.738   5.081   7.582 -0.4283  1.0098  0.1990
  715SOL     vw 2860   1.683   5.114   7.524 -0.2320  0.3839 -0.3507
  716SOL     ow 2861   3.873   3.441   4.471  0.1604 -0.5245 -0.2786
  716SOL     hw 2862   3.791   3.411   4.511 -0.5113  0.7123 -0.6699
  716SOL     hw 2863   3.850   3.455   4.379  1.1356 -1.3079 -0.6561
  716SOL     vw 2864   3.859   3.439   4.464  0.2005 -0.4647 -0.3798
  717SOL     ow 2865   6.362   2.891   4.135 -0.3481  0.0738  0.0965
  717SOL     hw 2866   6.379   2.861   4.046  0.6019  0.5262  0.1100
  717SOL     hw 2867   6.449   2.900   4.174 -0.7828 -1.1663  1.4356
  717SOL     vw 2868   6.376   2.889   4.128 -0.2799 -0.0300  0.2751
  718SOL     ow 2869   3.538   5.979   4.072 -0.6304  0.0831  0.4388
  718SOL     hw 2870   3.560   5.959   3.981  0.9418  1.4671  0.4814
  718SOL     hw 2871   3.554   6.073   4.081 -2.1153  0.2551  1.7902
  718SOL     vw 2872   3.543   5.989   4.061 -0.6189  0.2882  0.6227
  719SOL     ow 2873   0.851   2.206   4.737  0.8473 -0.5489 -0.0823
  719SOL     hw 2874   0.827   2.129   4.687  2.5485 -2.7861  2.2479
  719SOL     hw 2875   0.913   2.253   4.681 -0.2011 -0.8496 -1.5337
  719SOL     vw 2876   0.856   2.202   4.723  0.9334 -0.8837  0.0336
  720SOL     ow 2877   6.500   5.542   2.601  0.0769  0.2373 -0.4665
  720SOL     hw 2878   6.445   5.575   2.530  0.5403 -1.1907 -1.5652
  720SOL     hw 2879   6.557   5.615   2.624  0.3529  0.5492 -2.0460
  720SOL     vw 2880   6.501   5.556   2.594  0.1745  0.0896 -0.8198
  721SOL     ow 2881   6.892   7.187   3.729  1.2472 -0.0549  0.1753
  721SOL     hw 2882   6.982   7.220   3.732  1.5459 -0.6106 -1.7366
  721SOL     hw 2883   6.886   7.139   3.647 -0.3972 -1.2561  0.9334
  721SOL     vw 2884   6.903   7.185   3.719  1.0695 -0.2868  0.0230
  722SOL     ow 2885   6.220   1.445   3.158 -0.3525 -0.3765 -0.4675
  722SOL     hw 2886   6.221   1.358   3.198  0.6925 -0.6639 -1.0729
  722SOL     hw 2887   6.199   1.504   3.230 -0.0957 -1.0390  0.1692
  722SOL     vw 2888   6.217   1.441   3.173 -0.1810 -0.5018 -0.4634
  723SOL     ow 2889   0.793   2.893   0.377 -0.2262  0.5338 -0.1744
  723SOL     hw 2890   0.836   2.978   0.391 -0.9671  1.0814 -1.0851
  723SOL     hw 2891   0.779   2.889   0.282 -0.5428 -0.4402 -0.0953
  723SOL     vw 2892   0.797   2.904   0.367 -0.3658  0.4776 -0.2841
  724SOL     ow 2893   4.066   6.214   3.624  0.3742  0.2653 -0.4595
  724SOL     hw 2894   4.141   6.255   3.582  1.2950  0.4126  1.2572
  724SOL     hw 2895   4.000   6.210   3.554  1.5280  1.2405 -1.6812
  724SOL     vw 2896   4.067   6.219   3.609  0.6483  0.4137 -0.3942
  725SOL     ow 2897   0.802   5.826   0.949  0.4618 -0.3894 -0.3229
  725SOL     hw 2898   0.784   5.904   0.895  1.0378  0.4818  0.7036
  725SOL     hw 2899   0.812   5.755   0.885  1.0716  0.5968 -1.3787
  725SOL     vw 2900   0.801   5.827   0.933  0.6183 -0.1442 -0.3268
  726SOL     ow 2901   0.531   0.566   0.607  0.3299  0.2825  0.5235
  726SOL     hw 2902   0.472   0.633   0.573  0.7280  0.7961  0.8318
  726SOL     hw 2903   0.585   0.612   0.671  2.4576  0.3268 -1.1963
  726SOL     vw 2904   0.530   0.581   0.611  0.6631  0.3561  0.3372
  727SOL     ow 2905   5.761   6.503   0.977 -0.0305 -0.6496  0.1538
  727SOL     hw 2906   5.846   6.495   1.019 -1.1545 -0.7693  2.6074
  727SOL     hw 2907   5.704   6.446   1.028 -1.7443  0.0083 -0.9421
  727SOL     vw 2908   5.765   6.494   0.990 -0.4048 -0.5786  0.3329
  728SOL     ow 2909   4.349   0.177   4.828  0.2236  0.8365 -0.5731
  728SOL     hw 2910   4.444   0.168   4.821  0.1352 -1.5381  0.1217
  728SOL     hw 2911   4.335   0.239   4.900  1.2806  0.4308  0.0013
  728SOL     vw 2912   4.359   0.184   4.837  0.3512  0.4697 -0.4055
  729SOL     ow 2913   4.339   6.797   0.271 -0.5280 -0.0251  0.1838
  729SOL     hw 2914   4.421   6.824   0.312 -0.7799 -0.6148  1.0901
  729SOL     hw 2915   4.273   6.802   0.340 -1.2433  0.3224 -0.4978
  729SOL     vw 2916   4.341   6.801   0.285 -0.6554 -0.0570  0.2134
  730SOL     ow 2917   2.931   0.463   6.284 -0.2165  0.2958  0.0184
  730SOL     hw 2918   2.908   0.432   6.372 -1.0057  2.2379  0.5592
  730SOL     hw 2919   2.883   0.405   6.225 -0.7644 -0.2129  0.9390
  730SOL     vw 2920   2.921   0.451   6.288 -0.3929  0.4849  0.2115
  731SOL     ow 2921   3.864   5.538   3.257  0.5489 -0.7771  0.1752
  731SOL     hw 2922   3.800   5.605   3.281  1.7105  1.0730 -1.5029
  731SOL     hw 2923   3.811   5.466   3.221 -0.6702  0.0642  0.2184
  731SOL     vw 2924   3.848   5.537   3.255  0.5413 -0.4218 -0.0404
  732SOL     ow 2925   4.168   5.791   0.373  0.0071  0.5155  0.3875
  732SOL     hw 2926   4.130   5.877   0.390  0.6019  0.7810  0.4018
  732SOL     hw 2927   4.095   5.730   0.380 -0.5529  1.0942 -0.3192
  732SOL     vw 2928   4.153   5.794   0.376  0.0117  0.6266  0.2961
  733SOL     ow 2929   1.748   5.165   7.268  0.1291  0.1870 -0.1235
  733SOL     hw 2930   1.827   5.209   7.236 -0.6759 -0.1220 -2.8455
  733SOL     hw 2931   1.772   5.073   7.275  0.4101  0.3075  0.5637
  733SOL     vw 2932   1.761   5.159   7.264  0.0600  0.1621 -0.3917
  734SOL     ow 2933   5.418   1.929   2.802 -0.3479  0.0685  0.0218
  734SOL     hw 2934   5.446   2.021   2.807 -2.0628  0.6974 -0.8636
  734SOL     hw 2935   5.332   1.928   2.843 -0.2437 -1.2145  0.2486
  734SOL     vw 2936   5.411   1.941   2.808 -0.5605 -0.0178 -0.0651
  735SOL     ow 2937   2.479   0.644   2.168  0.0861 -1.1097  0.0088
  735SOL     hw 2938   2.415   0.594   2.117  0.8957 -0.9920 -1.1751
  735SOL     hw 2939   2.470   0.734   2.135 -0.5473 -0.6666  1.2978
  735SOL     vw 2940   2.469   0.649   2.157  0.1093 -1.0357  0.0225
  736SOL     ow 2941   5.432   0.731   6.346 -0.0933  0.7260  0.7035
  736SOL     hw 2942   5.501   0.676   6.384  1.1110  2.3471  0.9888
  736SOL     hw 2943   5.469   0.819   6.345 -1.8712  1.5268  0.0790
  736SOL     vw 2944   5.446   0.735   6.351 -0.1688  1.0455  0.6590
  737SOL     ow 2945   7.558   0.307   4.315 -0.1623 -0.3261  0.3924
  737SOL     hw 2946   7.544   0.229   4.261  0.6175 -2.6246  3.2939
  737SOL     hw 2947   7.485   0.307   4.376  0.3944  0.6471  1.0809
  737SOL     vw 2948   7.547   0.297   4.316  0.0141 -0.5009  0.8657
  738SOL     ow 2949   4.478   2.824   2.287  1.2251  0.1791  0.6277
  738SOL     hw 2950   4.528   2.845   2.208 -0.5269 -0.0488 -0.6169
  738SOL     hw 2951   4.465   2.908   2.330  1.9538  0.3517  0.5197
  738SOL     vw 2952   4.483   2.838   2.282  1.0900  0.1718  0.4492
  739SOL     ow 2953   3.401   1.681   1.520 -0.1142  0.0699  0.4677
  739SOL     hw 2954   3.468   1.740   1.487  0.4367 -1.4740 -1.4091
  739SOL     hw 2955   3.420   1.597   1.477 -1.8643 -1.0253  1.6880
  739SOL     vw 2956   3.412   1.677   1.510 -0.2724 -0.2782  0.3811
  740SOL     ow 2957   3.588   5.481   6.644  0.0372  0.3723  0.6613
  740SOL     hw 2958   3.672   5.502   6.602 -0.3596  0.7216  0.0383
  740SOL     hw 2959   3.589   5.385   6.652  0.2020  0.3126  0.0246
  740SOL     vw 2960   3.599   5.471   6.639  0.0066  0.4106  0.4952
  741SOL     ow 2961   1.663   6.637   2.087  0.7626  0.3233  0.5480
  741SOL     hw 2962   1.638   6.714   2.035  0.8531 -0.8271 -1.3160
  741SOL     hw 2963   1.745   6.662   2.129  0.7017  1.3115  0.1093
  741SOL     vw 2964   1.670   6.651   2.086  0.7665  0.3018  0.2443
  742SOL     ow 2965   4.291   0.499   2.608  0.1289  0.4525  0.1661
  742SOL     hw 2966   4.299   0.556   2.684  0.6107  1.7169 -0.8037
  742SOL     hw 2967   4.247   0.552   2.542  1.6830  0.1414 -1.1779
  742SOL     vw 2968   4.286   0.513   2.609  0.3972  0.5782 -0.1391
  743SOL     ow 2969   1.390   0.044   1.062  0.5924  0.1428 -0.7412
  743SOL     hw 2970   1.439   0.110   1.110  0.3106  1.5842 -2.3385
  743SOL     hw 2971   1.444  -0.035   1.067  1.2344  0.6546  0.6856
  743SOL     vw 2972   1.403   0.042   1.069  0.6399  0.4005 -0.7637
  744SOL     ow 2973   2.380   2.294   5.132  0.3537 -0.0752  0.6407
  744SOL     hw 2974   2.464   2.253   5.112  0.3355  0.4627 -0.6325
  744SOL     hw 2975   2.315   2.227   5.110  0.3844  0.1335 -0.1252
  744SOL     vw 2976   2.383   2.280   5.126  0.3554  0.0234  0.3717
  745SOL     ow 2977   2.021   1.420   5.542 -0.4484  0.1175 -0.4905
  745SOL     hw 2978   2.106   1.379   5.524  0.5087  1.3293  1.0098
  745SOL     hw 2979   2.019   1.497   5.485 -0.0128  0.7147  0.2821
  745SOL     vw 2980   2.032   1.425   5.532 -0.2646  0.3562 -0.1910
  746SOL     ow 2981   5.374   5.479   5.901 -0.3461  0.1489 -0.5790
  746SOL     hw 2982   5.432   5.436   5.964  0.7745  0.5302 -1.3182
  746SOL     hw 2983   5.303   5.515   5.955  1.3977  1.8609  0.7378
  746SOL     vw 2984   5.372   5.478   5.917  0.0317  0.4251 -0.5026
  747SOL     ow 2985   6.673   6.354   2.091 -0.2859  0.4172  0.5229
  747SOL     hw 2986   6.582   6.325   2.084  0.0963 -0.9948  1.0432
  747SOL     hw 2987   6.690   6.356   2.185  0.7663 -1.1977  0.4000
  747SOL     vw 2988   6.663   6.350   2.102 -0.0966  0.0181  0.5752
  748SOL     ow 2989   6.614   2.477   4.064  0.3002 -0.8264  0.2836
  748SOL     hw 2990   6.533   2.462   4.015 -0.7228 -0.7216  1.8950
  748SOL     hw 2991   6.622   2.572   4.069  0.3570 -0.8382  0.4099
  748SOL     vw 2992   6.605   2.487   4.058  0.1726 -0.8142  0.5131
  749SOL     ow 2993   1.402   2.658   0.639  0.3622  0.1330 -0.5748
  749SOL     hw 2994   1.433   2.690   0.554 -0.2612 -1.5568 -1.4843
  749SOL     hw 2995   1.482   2.635   0.686  0.7056  0.8913 -0.7717
  749SOL     vw 2996   1.417   2.660   0.634  0.3251  0.0101 -0.7208
  750SOL     ow 2997   0.731   0.363   1.920  0.1427 -0.3986  0.1617
  750SOL     hw 2998   0.698   0.330   1.836 -0.0569  2.7885 -1.1549
  750SOL     hw 2999   0.820   0.328   1.926 -0.2624 -1.6686 -0.7683
  750SOL     vw 3000   0.738   0.354   1.910  0.0629 -0.1456 -0.1347
  751SOL     ow 3001   2.465   2.806   5.366  0.3634 -0.8483  0.0638
  751SOL     hw 3002   2.462   2.901   5.351  1.1844 -0.7274  0.5597
  751SOL     hw 3003   2.536   2.795   5.429  0.0276 -1.7629  0.2989
  751SOL     vw 3004   2.474   2.817   5.373  0.4276 -0.9530  0.1602
  752SOL     ow 3005   6.409   6.105   3.413 -0.1509 -0.3626  0.4371
  752SOL     hw 3006   6.370   6.072   3.333 -0.6638 -3.7888  1.9207
  752SOL     hw 3007   6.354   6.179   3.439 -0.2793  0.4681 -1.9901
  752SOL     vw 3008   6.397   6.111   3.406 -0.2356 -0.7050  0.3127
  753SOL     ow 3009   6.686   1.744   6.495  0.4871  0.1707  0.2282
  753SOL     hw 3010   6.611   1.702   6.454 -0.3435 -3.0644  4.3441
  753SOL     hw 3011   6.762   1.715   6.443 -0.7018 -0.6768 -1.0981
  753SOL     vw 3012   6.686   1.735   6.483  0.2208 -0.3680  0.5965
  754SOL     ow 3013   5.851   6.994   4.835 -0.5517 -0.5053  0.7290
  754SOL     hw 3014   5.934   6.960   4.803 -0.3134  0.0523  0.7448
  754SOL     hw 3015   5.874   7.075   4.881 -0.9926 -0.8188  1.5271
  754SOL     vw 3016   5.865   7.000   4.837 -0.5782 -0.4730  0.8366
  755SOL     ow 3017   5.228   0.142   4.939 -0.1391  0.0448 -0.2038
  755SOL     hw 3018   5.317   0.175   4.943 -0.3889  0.6734  0.3919
  755SOL     hw 3019   5.236   0.056   4.898  1.0581 -1.0104  2.0209
  755SOL     vw 3020   5.241   0.135   4.934 -0.0145 -0.0115  0.1686
  756SOL     ow 3021   6.047   1.559   7.566 -0.3323 -0.5331 -0.4572
  756SOL     hw 3022   6.097   1.640   7.562 -0.4431 -0.3999  0.5937
  756SOL     hw 3023   6.111   1.491   7.546 -0.3930 -0.1601 -2.0662
  756SOL     vw 3024   6.062   1.561   7.563 -0.3548 -0.4663 -0.5310
  757SOL     ow 3025   0.824   5.358   1.642  0.5590  0.9700  0.0474
  757SOL     hw 3026   0.756   5.304   1.600  0.7880 -2.2156  3.3310
  757SOL     hw 3027   0.782   5.394   1.720  1.7449  1.7083  0.3727
  757SOL     vw 3028   0.809   5.355   1.646  0.7457  0.6473  0.5236
  758SOL     ow 3029   0.722   2.323   4.939 -0.2637  0.1084 -0.1090
  758SOL     hw 3030   0.639   2.343   4.897 -0.0841  1.7591  0.2556
  758SOL     hw 3031   0.771   2.273   4.874 -1.0445  0.2362 -0.8049
  758SOL     vw 3032   0.717   2.319   4.925 -0.3431  0.3431 -0.1526
  759SOL     ow 3033   2.849   3.059   6.888  0.1739  0.4801  0.4023
  759SOL     hw 3034   2.870   3.083   6.978 -1.5301  1.2059  0.6255
  759SOL     hw 3035   2.892   3.126   6.835  1.4800 -0.1475  0.6191
  759SOL     vw 3036   2.858   3.071   6.893  0.1214  0.4930  0.4601
  760SOL     ow 3037   1.088   2.449   2.086 -0.8361 -0.3345 -1.0375
  760SOL     hw 3038   1.138   2.529   2.072 -1.1010 -0.4451 -3.0373
  760SOL     hw 3039   1.009   2.477   2.133 -0.9191  0.5943 -1.7095
  760SOL     vw 3040   1.084   2.463   2.090 -0.8821 -0.2264 -1.3899
  761SOL     ow 3041   5.943   1.337   1.459  0.9985  0.0542 -0.3779
  761SOL     hw 3042   5.993   1.374   1.532  0.8419 -0.9001  0.2297
  761SOL     hw 3043   5.852   1.343   1.486  0.9290 -0.1968 -0.5466
  761SOL     vw 3044   5.937   1.343   1.472  0.9687 -0.1047 -0.3200
  762SOL     ow 3045   3.977   2.187   3.988  0.0330 -0.0059 -0.2670
  762SOL     hw 3046   3.882   2.189   3.992 -0.2157  0.4106 -3.7413
  762SOL     hw 3047   3.997   2.116   3.926  1.9962 -0.0761  0.3760
  762SOL     vw 3048   3.967   2.178   3.981  0.2592  0.0399 -0.6406
  763SOL     ow 3049   5.849   1.546   0.257 -0.2111 -0.2769  0.2221
  763SOL     hw 3050   5.904   1.592   0.192 -0.9389  1.0374  0.4910
  763SOL     hw 3051   5.842   1.457   0.224  2.6057 -0.7021  0.4954
  763SOL     vw 3052   5.855   1.541   0.244  0.0646 -0.1596  0.2936
  764SOL     ow 3053   2.057   3.147   4.110 -0.0399  0.7803  0.4148
  764SOL     hw 3054   2.127   3.204   4.143  0.1393  0.2722  0.9246
  764SOL     hw 3055   1.977   3.188   4.142  0.1165  0.4800  1.2078
  764SOL     vw 3056   2.056   3.160   4.119  0.0043  0.6735  0.5865
  765SOL     ow 3057   1.383   3.858   6.247  0.9269  0.7777  0.3727
  765SOL     hw 3058   1.333   3.787   6.206  0.2126  1.3892  0.1662
  765SOL     hw 3059   1.319   3.928   6.260  1.5345  1.2330  0.9539
  765SOL     vw 3060   1.368   3.858   6.243  0.9128  0.9184  0.4220
  766SOL     ow 3061   2.865   3.279   4.790  0.3203  0.2789 -0.8413
  766SOL     hw 3062   2.845   3.361   4.745  0.0828  1.0366  0.6142
  766SOL     hw 3063   2.956   3.261   4.767  1.2511  2.3635  0.9250
  766SOL     vw 3064   2.874   3.287   4.781  0.4117  0.6539 -0.4163
  767SOL     ow 3065   7.285   4.178   3.077  0.0403  0.0077 -0.0442
  767SOL     hw 3066   7.263   4.249   3.138 -1.0975  0.6869 -1.1859
  767SOL     hw 3067   7.337   4.117   3.129  1.8320  2.0723  0.7898
  767SOL     vw 3068   7.289   4.179   3.092  0.1264  0.3700 -0.0849
  768SOL     ow 3069   6.197   0.945   2.889 -0.5929  0.9542 -0.3199
  768SOL     hw 3070   6.255   0.921   2.961  0.9338 -4.2824 -2.7956
  768SOL     hw 3071   6.255   0.966   2.816 -1.9216  0.9016 -1.4504
  768SOL     vw 3072   6.212   0.944   2.889 -0.5667  0.2563 -0.7958
  769SOL     ow 3073   6.225   2.807   2.615 -0.4241  1.0757  0.2606
  769SOL     hw 3074   6.207   2.848   2.700  1.4203  0.8819  0.7866
  769SOL     hw 3075   6.228   2.714   2.634 -0.9203  0.9571 -0.2155
  769SOL     vw 3076   6.223   2.800   2.629 -0.2460  1.0345  0.2671
  770SOL     ow 3077   5.463   2.729   3.077  0.2920 -0.0400 -0.0402
  770SOL     hw 3078   5.403   2.703   3.007 -0.5984 -1.5404  1.2217
  770SOL     hw 3079   5.463   2.655   3.137  1.8842  0.7596  1.0231
  770SOL     vw 3080   5.455   2.716   3.075  0.3843 -0.1326  0.2667
  771SOL     ow 3081   2.835   2.796   4.001 -0.4168  0.2947 -0.5456
  771SOL     hw 3082   2.879   2.834   4.077 -1.4637 -0.9865  0.7663
  771SOL     hw 3083   2.903   2.789   3.935  0.6960  0.8301  0.5024
  771SOL     vw 3084   2.850   2.800   4.002 -0.4083  0.1962 -0.2341
  772SOL     ow 3085   0.942   0.900   0.760  0.3127 -0.1375  0.2455
  772SOL     hw 3086   1.027   0.934   0.732  0.6347 -0.1770  1.1502
  772SOL     hw 3087   0.878   0.950   0.708  0.8274  0.9730  0.6379
  772SOL     vw 3088   0.944   0.911   0.750  0.4231  0.0038  0.4166
  773SOL     ow 3089   7.617   5.534   2.531  0.7307  0.1505 -0.2167
  773SOL     hw 3090   7.646   5.549   2.441 -0.8594 -0.0793 -0.7859
  773SOL     hw 3091   7.589   5.620   2.562  0.1647  0.0130 -0.3486
  773SOL     vw 3092   7.617   5.547   2.523  0.4463  0.1020 -0.3092
  774SOL     ow 3093   2.424   5.285   1.254  0.2324  0.0296  0.2267
  774SOL     hw 3094   2.450   5.264   1.344  0.5153 -1.2036 -0.1219
  774SOL     hw 3095   2.329   5.277   1.254  0.3353 -1.8629  0.0154
  774SOL     vw 3096   2.415   5.281   1.266  0.2831 -0.3829  0.1528
  775SOL     ow 3097   3.417   5.789   6.561  0.4139 -0.8638 -0.2062
  775SOL     hw 3098   3.474   5.787   6.484  0.6852 -1.9939  0.0142
  775SOL     hw 3099   3.333   5.755   6.529  0.1111 -0.0285 -0.3216
  775SOL     vw 3100   3.413   5.784   6.546  0.4098 -0.9024 -0.1924
  776SOL     ow 3101   2.045   2.232   2.850 -0.2200 -0.6370  0.5936
  776SOL     hw 3102   2.117   2.224   2.788  1.3360 -0.5642  2.3047
  776SOL     hw 3103   2.015   2.323   2.840 -0.9448 -1.0217 -0.9952
  776SOL     vw 3104   2.050   2.243   2.841 -0.1104 -0.6781  0.6095
  777SOL     ow 3105   3.578   6.971   3.820  0.2028  0.5544 -0.1565
  777SOL     hw 3106   3.513   7.028   3.777  1.4701  0.4212 -2.3923
  777SOL     hw 3107   3.651   7.030   3.840  0.5695  0.1596 -0.3282
  777SOL     vw 3108   3.579   6.987   3.817  0.4185  0.4849 -0.4742
  778SOL     ow 3109   2.613   5.208   5.874  0.5590  0.2274 -0.7421
  778SOL     hw 3110   2.664   5.227   5.795 -1.2486 -0.2130 -2.0696
  778SOL     hw 3111   2.660   5.136   5.916  1.6489  0.5884 -1.2953
  778SOL     vw 3112   2.626   5.201   5.869  0.4642  0.2172 -0.9904
  779SOL     ow 3113   2.125   1.442   6.804 -0.2170 -0.0001  0.9195
  779SOL     hw 3114   2.070   1.511   6.841 -0.1420  1.4568 -1.4644
  779SOL     hw 3115   2.211   1.457   6.844 -0.7371 -0.2473  2.1970
  779SOL     vw 3116   2.130   1.454   6.814 -0.2757  0.1594  0.7734
  780SOL     ow 3117   4.131   6.929   0.111 -0.3703 -0.2150 -0.5054
  780SOL     hw 3118   4.076   7.006   0.091  0.2915  0.0316 -1.4559
  780SOL     hw 3119   4.104   6.864   0.046  1.8844  0.6269 -2.4167
  780SOL     vw 3120   4.120   6.931   0.099  0.0143 -0.0713 -0.8829
  781SOL     ow 3121   0.903   1.589   2.667  0.2658  0.3802 -1.2470
  781SOL     hw 3122   0.904   1.662   2.606  0.2246  2.1726  0.7712
  781SOL     hw 3123   0.840   1.615   2.734  0.5635 -1.3405 -0.2378
  781SOL     vw 3124   0.895   1.602   2.668  0.2996  0.3897 -0.8476
  782SOL     ow 3125   1.942   6.839   3.546  0.0268 -0.6394 -0.7411
  782SOL     hw 3126   1.877   6.842   3.617  0.3846 -0.2433 -0.4211
  782SOL     hw 3127   2.001   6.768   3.571  1.4511  0.9055  0.5430
  782SOL     vw 3128   1.941   6.830   3.559  0.2620 -0.3834 -0.5294
  783SOL     ow 3129   0.209   6.000   1.891  0.3411  0.4838 -0.2836
  783SOL     hw 3130   0.281   6.061   1.874 -0.2265  1.4961  0.7628
  783SOL     hw 3131   0.133   6.041   1.850  0.1117  0.0800 -0.2576
  783SOL     vw 3132   0.208   6.014   1.884  0.2360  0.5641 -0.1422
  784SOL     ow 3133   3.297   2.832   3.033  0.6076  0.5041  0.0455
  784SOL     hw 3134   3.245   2.756   3.009  0.7185  0.7491 -1.0329
  784SOL     hw 3135   3.321   2.872   2.949  0.2506  1.9266  0.5962
  784SOL     vw 3136   3.293   2.827   3.019  0.5751  0.7242 -0.0240
  785SOL     ow 3137   6.252   0.575   5.621  0.0310  0.0934  0.2420
  785SOL     hw 3138   6.310   0.645   5.652 -2.0111  2.3024 -0.5806
  785SOL     hw 3139   6.309   0.518   5.569  1.2621  3.3270 -2.3403
  785SOL     vw 3140   6.267   0.577   5.618 -0.0758  0.8115 -0.2074
  786SOL     ow 3141   3.520   2.434   0.740 -0.2140 -0.2448 -0.4549
  786SOL     hw 3142   3.562   2.452   0.824  1.2848 -5.4739  0.2749
  786SOL     hw 3143   3.589   2.391   0.688 -3.1294 -5.0199 -0.9574
  786SOL     vw 3144   3.535   2.431   0.744 -0.4007 -1.5647 -0.4249
  787SOL     ow 3145   6.596   5.574   1.645 -0.6905 -0.2640  0.2117
  787SOL     hw 3146   6.538   5.619   1.707  1.7956  0.0703  2.4792
  787SOL     hw 3147   6.636   5.644   1.594 -1.3538 -0.4144 -0.5411
  787SOL     vw 3148   6.594   5.589   1.646 -0.4501 -0.2398  0.4116
  788SOL     ow 3149   4.915   4.849   4.489  0.0167 -0.1249  0.1884
  788SOL     hw 3150   5.004   4.815   4.476  0.5138  1.2285 -0.1472
  788SOL     hw 3151   4.876   4.846   4.401 -1.2049 -3.0460  0.7132
  788SOL     vw 3152   4.922   4.844   4.475 -0.0789 -0.3316  0.2134
  789SOL     ow 3153   6.322   5.184   2.135  0.2807 -0.0237  0.9805
  789SOL     hw 3154   6.238   5.168   2.177  0.0836  0.5090  0.8083
  789SOL     hw 3155   6.306   5.165   2.042 -0.1615  1.7914  0.6530
  789SOL     vw 3156   6.309   5.179   2.128  0.1965  0.2861  0.9146
  790SOL     ow 3157   6.724   1.227   6.001  0.3931  0.9827  1.4266
  790SOL     hw 3158   6.675   1.163   6.054  1.6726  1.8484  3.8221
  790SOL     hw 3159   6.803   1.180   5.974 -0.1291  0.6254  0.4980
  790SOL     vw 3160   6.728   1.212   6.004  0.4928  1.0498  1.6205
  791SOL     ow 3161   4.738   5.898   5.991  0.4960  1.2373 -0.1113
  791SOL     hw 3162   4.645   5.907   5.970  0.3206 -1.8270 -1.1539
  791SOL     hw 3163   4.740   5.833   6.061  1.9227 -1.0489 -2.1305
  791SOL     vw 3164   4.726   5.891   5.998  0.6614  0.5314 -0.5150
  792SOL     ow 3165   3.194   3.921   1.639  0.2279  0.3709  0.9134
  792SOL     hw 3166   3.280   3.881   1.629  0.0065 -0.1275  0.9897
  792SOL     hw 3167   3.132   3.851   1.620 -0.1833  0.1168  2.8983
  792SOL     vw 3168   3.197   3.907   1.635  0.1445  0.2716  1.1854
  793SOL     ow 3169   2.277   1.720   1.092 -0.8195  0.2858 -0.5140
  793SOL     hw 3170   2.194   1.751   1.130 -1.8441  0.4783 -2.7257
  793SOL     hw 3171   2.258   1.630   1.065 -0.2238  0.2435 -0.7933
  793SOL     vw 3172   2.263   1.712   1.093 -0.8761  0.3056 -0.8427
  794SOL     ow 3173   6.728   2.380   1.704  0.4305 -0.3856  0.9021
  794SOL     hw 3174   6.787   2.357   1.632 -0.6484 -0.9952  0.1832
  794SOL     hw 3175   6.787   2.399   1.777  1.5854  0.8068 -0.2760
  794SOL     vw 3176   6.744   2.379   1.704  0.4406 -0.3088  0.6518
  795SOL     ow 3177   2.451   0.230   2.378  0.3287  0.1701  0.4178
  795SOL     hw 3178   2.371   0.191   2.345 -0.6307  0.9484  1.7296
  795SOL     hw 3179   2.428   0.321   2.396  1.4858  0.3956  0.8808
  795SOL     vw 3180   2.438   0.237   2.376  0.3548  0.3025  0.6521
  796SOL     ow 3181   4.034   0.460   3.714 -0.2189  1.0923 -0.1759
  796SOL     hw 3182   4.096   0.533   3.710 -1.7704  2.4677 -0.2485
  796SOL     hw 3183   4.053   0.408   3.636  2.7334 -0.2037  1.2608
  796SOL     vw 3184   4.045   0.463   3.703 -0.0341  1.1028  0.0042
  797SOL     ow 3185   6.603   2.291   0.020 -0.1334  0.1326 -0.3688
  797SOL     hw 3186   6.538   2.232  -0.018 -3.0542  0.7207  3.1141
  797SOL     hw 3187   6.652   2.236   0.081  0.1254  0.4201 -0.3184
  797SOL     vw 3188   6.601   2.276   0.023 -0.4847  0.2482  0.0974
  798SOL     ow 3189   6.456   2.313   1.771  0.8118 -0.3674  0.3847
  798SOL     hw 3190   6.551   2.320   1.764  0.6867  0.3928 -0.7873
  798SOL     hw 3191   6.428   2.273   1.689  0.1674 -1.2662  1.0212
  798SOL     vw 3192   6.465   2.309   1.759  0.7100 -0.3856  0.3141
  799SOL     ow 3193   1.453   6.452   5.080  0.1023  0.1979  0.2009
  799SOL     hw 3194   1.415   6.534   5.049  0.6340  1.2577  2.1503
  799SOL     hw 3195   1.536   6.444   5.033  0.7585  1.6035  1.0547
  799SOL     vw 3196   1.459   6.462   5.070  0.2591  0.5231  0.5710
  800SOL     ow 3197   1.563   0.476   3.863 -0.9329 -0.3222  0.3281
  800SOL     hw 3198   1.542   0.454   3.954 -1.1145  3.1452  1.2790
  800SOL     hw 3199   1.647   0.433   3.847 -1.0555 -1.2863  1.9843
  800SOL     vw 3200   1.571   0.467   3.873 -0.9730  0.0081  0.6722
  801SOL     ow 3201   1.939   2.926   5.916 -0.8025 -0.2855 -0.0967
  801SOL     hw 3202   1.992   2.888   5.846  1.2151  1.0420  0.6266
  801SOL     hw 3203   1.968   2.882   5.996  0.2962  1.4222  0.5014
  801SOL     vw 3204   1.949   2.915   5.917 -0.3913  0.1149  0.0777
  802SOL     ow 3205   4.995   5.088   7.456 -0.1087  0.5885 -0.6106
  802SOL     hw 3206   5.082   5.048   7.462 -0.4907  0.0102  1.8307
  802SOL     hw 3207   4.942   5.025   7.407  0.3790  0.0999 -0.5121
  802SOL     vw 3208   5.000   5.074   7.450 -0.0947  0.4478 -0.2756
  803SOL     ow 3209   4.460   2.219   5.186 -0.8997  0.0773  0.2197
  803SOL     hw 3210   4.536   2.277   5.180  0.2541 -1.5035 -4.1989
  803SOL     hw 3211   4.401   2.249   5.117 -2.7949 -0.8533  1.3313
  803SOL     vw 3212   4.462   2.230   5.176 -0.9975 -0.2540 -0.2167
  804SOL     ow 3213   2.415   0.311   6.614  0.4012 -0.2543  0.0524
  804SOL     hw 3214   2.437   0.348   6.528  0.2175  1.6032  0.7690
  804SOL     hw 3215   2.359   0.236   6.594  3.1002 -2.0084 -1.5999
  804SOL     vw 3216   2.411   0.306   6.600  0.7330 -0.2407 -0.0710
  805SOL     ow 3217   0.418   3.597   4.095  0.3530 -0.3502 -0.6669
  805SOL     hw 3218   0.456   3.575   4.010  0.5446 -0.4420 -0.5577
  805SOL     hw 3219   0.488   3.641   4.142 -0.4786  2.0056 -1.4709
  805SOL     vw 3220   0.432   3.600   4.090  0.2686 -0.0515 -0.7586
  806SOL     ow 3221   4.311   3.319   7.561 -0.2988  0.8980 -0.3136
  806SOL     hw 3222   4.235   3.294   7.613  1.6119 -1.6271  1.5593
  806SOL     hw 3223   4.351   3.236   7.535  2.5168  2.0304 -0.0530
  806SOL     vw 3224   4.306   3.305   7.564  0.3247  0.7143 -0.0322
  807SOL     ow 3225   5.575   2.516   5.610 -0.2513  0.3943  0.4148
  807SOL     hw 3226   5.603   2.445   5.667 -0.5848 -2.0305 -2.2256
  807SOL     hw 3227   5.525   2.575   5.667 -0.1375 -1.5845  2.6905
  807SOL     vw 3228   5.572   2.514   5.625 -0.2801 -0.1868  0.3667
  808SOL     ow 3229   7.455   6.654   0.891  0.1533 -0.0377 -0.4802
  808SOL     hw 3230   7.398   6.581   0.866 -0.5575  0.3964 -0.1529
  808SOL     hw 3231   7.414   6.691   0.969  1.2570 -0.1359  0.1584
  808SOL     vw 3232   7.442   6.649   0.898  0.2053  0.0067 -0.3528
  809SOL     ow 3233   1.060   2.547   5.925 -0.5883 -0.1445 -0.6768
  809SOL     hw 3234   1.155   2.547   5.914 -0.7014 -2.6352 -2.6177
  809SOL     hw 3235   1.026   2.547   5.835 -2.4435  0.8791 -0.0153
  809SOL     vw 3236   1.068   2.547   5.912 -0.8481 -0.3381 -0.8457
  810SOL     ow 3237   0.179   2.075   4.164 -0.3593  0.4252  0.1069
  810SOL     hw 3238   0.177   1.991   4.118 -1.2242  0.6138 -0.2207
  810SOL     hw 3239   0.169   2.140   4.095 -0.4146  0.7640  0.4328
  810SOL     vw 3240   0.177   2.072   4.149 -0.4807  0.4947  0.1066
  811SOL     ow 3241   0.933   1.254   0.622  0.3868  0.8595  0.3424
  811SOL     hw 3242   0.990   1.288   0.552 -0.1044  0.7370 -0.1202
  811SOL     hw 3243   0.903   1.170   0.589 -1.6762  1.7934 -0.3223
  811SOL     vw 3244   0.937   1.248   0.609  0.0499  0.9665  0.1937
  812SOL     ow 3245   1.971   0.774   2.701 -0.1360  0.1996 -0.0168
  812SOL     hw 3246   1.956   0.748   2.792  0.8945 -0.1410  0.0780
  812SOL     hw 3247   1.920   0.855   2.690  1.1640  1.2936  1.4466
  812SOL     vw 3248   1.963   0.782   2.712  0.1715  0.2990  0.1887
  813SOL     ow 3249   2.279   0.982   4.897  0.1772 -0.0318  0.3096
  813SOL     hw 3250   2.210   0.928   4.859 -0.0031  0.9063 -0.7405
  813SOL     hw 3251   2.355   0.923   4.901  0.6623  0.1661 -2.9875
  813SOL     vw 3252   2.280   0.967   4.892  0.2173  0.1181 -0.2642
  814SOL     ow 3253   0.289   0.182   6.768 -0.4755  0.1843  0.1861
  814SOL     hw 3254   0.258   0.099   6.803  1.4432 -0.3399  0.7849
  814SOL     hw 3255   0.268   0.246   6.835 -3.3210  0.5114 -0.9191
  814SOL     vw 3256   0.282   0.179   6.781 -0.5978  0.1583  0.1190
  815SOL     ow 3257   1.037   7.527   1.691 -0.6140 -0.0710 -0.0805
  815SOL     hw 3258   1.094   7.592   1.650 -0.6908  1.0314  1.4664
  815SOL     hw 3259   1.095   7.453   1.709  0.4428  1.0829  1.5908
  815SOL     vw 3260   1.052   7.526   1.688 -0.4847  0.2270  0.3440
  816SOL     ow 3261   7.096   2.655   1.045 -0.3253  0.1081  0.3588
  816SOL     hw 3262   7.041   2.587   1.005 -0.4778 -0.1278  0.9588
  816SOL     hw 3263   7.057   2.670   1.131  0.9617 -0.6050  1.1111
  816SOL     vw 3264   7.084   2.648   1.051 -0.1752 -0.0170  0.5372
  817SOL     ow 3265   0.510   1.615   2.454 -0.0802  0.8580 -0.0142
  817SOL     hw 3266   0.487   1.611   2.361 -0.9802  0.3567  0.2208
  817SOL     hw 3267   0.493   1.527   2.487  2.6733  0.2675  0.0952
  817SOL     vw 3268   0.505   1.603   2.446  0.1643  0.7139  0.0314
  818SOL     ow 3269   3.998   4.466   4.504  0.5873  0.0863 -0.8871
  818SOL     hw 3270   4.063   4.520   4.548 -0.3391  0.8611 -0.4291
  818SOL     hw 3271   3.926   4.459   4.567  1.0142 -2.4153 -0.5759
  818SOL     vw 3272   3.997   4.472   4.518  0.5215 -0.1414 -0.7856
  819SOL     ow 3273   3.070   6.274   1.648 -0.2404  0.5705  0.0116
  819SOL     hw 3274   3.043   6.196   1.696  1.1924 -0.2718 -0.4925
  819SOL     hw 3275   3.144   6.309   1.697  0.0114  0.8031 -0.5172
  819SOL     vw 3276   3.076   6.268   1.660 -0.0181  0.4900 -0.1246
  820SOL     ow 3277   1.330   3.364   5.089  0.2093  0.0401 -0.2662
  820SOL     hw 3278   1.396   3.428   5.063 -0.8013  0.6828 -1.3394
  820SOL     hw 3279   1.252   3.416   5.105 -0.9952 -0.9837 -2.4109
  820SOL     vw 3280   1.329   3.379   5.087 -0.0829 -0.0103 -0.6907
  821SOL     ow 3281   3.274   6.564   1.424 -0.3534 -0.5451  0.3667
  821SOL     hw 3282   3.278   6.606   1.510 -3.0670 -0.8823  0.7658
  821SOL     hw 3283   3.281   6.637   1.362  0.9116 -0.2202  0.8510
  821SOL     vw 3284   3.275   6.579   1.427 -0.5445 -0.5467  0.4833
  822SOL     ow 3285   4.460   4.709   3.678  0.1733  0.6741 -0.6622
  822SOL     hw 3286   4.422   4.793   3.702  0.9430  0.6233  0.8148
  822SOL     hw 3287   4.475   4.664   3.761 -0.7111 -1.1600 -1.4377
  822SOL     vw 3288   4.457   4.714   3.692  0.1581  0.4256 -0.5697
  823SOL     ow 3289   6.175   4.853   4.578  0.1999  0.0939  0.3777
  823SOL     hw 3290   6.241   4.817   4.519  0.0592  1.0877 -0.4128
  823SOL     hw 3291   6.159   4.784   4.642  1.9069 -0.2199  0.5060
  823SOL     vw 3292   6.181   4.839   4.578  0.4065  0.1836  0.2904
  824SOL     ow 3293   1.638   0.290   2.579 -0.6540  0.1593  0.3077
  824SOL     hw 3294   1.696   0.335   2.641  1.7780 -3.0145  0.6133
  824SOL     hw 3295   1.613   0.209   2.623 -3.7286  0.4544 -0.6870
  824SOL     vw 3296   1.643   0.285   2.593 -0.7389 -0.2206  0.2168
  825SOL     ow 3297   3.363   1.962   5.994 -0.0821  0.7456  0.0927
  825SOL     hw 3298   3.279   1.942   6.035 -1.0580 -0.4857 -2.2802
  825SOL     hw 3299   3.391   1.878   5.957  1.6801  1.3707 -0.0679
  825SOL     vw 3300   3.356   1.948   5.995  0.0216  0.6657 -0.2418
  826SOL     ow 3301   6.742   5.008   1.051 -0.0383 -0.6300  0.3218
  826SOL     hw 3302   6.685   4.934   1.072 -0.0267 -0.7401 -0.0395
  826SOL     hw 3303   6.825   4.969   1.026  0.1996 -0.4682  0.8472
  826SOL     vw 3304   6.745   4.993   1.051 -0.0055 -0.6232  0.3434
  827SOL     ow 3305   3.000   0.721   2.999 -0.1088 -0.3714 -0.5172
  827SOL     hw 3306   3.048   0.757   2.924  0.2542 -0.6486 -0.4219
  827SOL     hw 3307   3.037   0.634   3.012  0.5092  0.0170  0.5699
  827SOL     vw 3308   3.011   0.715   2.991  0.0206 -0.3567 -0.3612
  828SOL     ow 3309   6.810   4.122   5.864 -0.1189  0.3141 -0.1376
  828SOL     hw 3310   6.778   4.127   5.774  0.1710 -0.2350 -0.2799
  828SOL     hw 3311   6.872   4.049   5.863  0.8733  1.1222  0.2034
  828SOL     vw 3312   6.814   4.113   5.852  0.0503  0.3486 -0.1113
  829SOL     ow 3313   2.797   4.307   4.980 -0.1472  0.2601  0.9827
  829SOL     hw 3314   2.762   4.273   4.897 -0.1221  1.4873  0.4472
  829SOL     hw 3315   2.889   4.280   4.979 -0.0916  0.4512  0.5084
  829SOL     vw 3316   2.805   4.299   4.969 -0.1366  0.4473  0.8492
  830SOL     ow 3317   0.058   0.646   0.170 -0.1663 -0.4842  0.3922
  830SOL     hw 3318   0.041   0.635   0.077 -2.4986  1.1469  0.5410
  830SOL     hw 3319   0.015   0.571   0.211  1.0184 -1.3031  0.1935
  830SOL     vw 3320   0.050   0.634   0.163 -0.3177 -0.3770  0.3856
  831SOL     ow 3321   6.962   7.277   6.417  0.2157 -0.1030 -0.4117
  831SOL     hw 3322   6.884   7.286   6.363  0.2157 -0.9218 -0.5617
  831SOL     hw 3323   7.033   7.314   6.364  0.1153 -0.3494 -0.7136
  831SOL     vw 3324   6.961   7.283   6.403  0.2024 -0.2437 -0.4714
  832SOL     ow 3325   0.083   0.161   2.533  0.2647 -0.0252  0.8135
  832SOL     hw 3326   0.086   0.223   2.460  0.1398 -0.2551  0.6132
  832SOL     hw 3327   0.175   0.144   2.554  0.3026 -0.1686  0.5327
  832SOL     vw 3328   0.096   0.167   2.526  0.2532 -0.0745  0.7499
  833SOL     ow 3329   3.245   5.995   2.610  0.5508  0.0717  0.3999
  833SOL     hw 3330   3.246   6.086   2.581  1.6742 -0.0637 -0.0194
  833SOL     hw 3331   3.176   5.954   2.557  2.7399 -0.2423 -2.4677
  833SOL     vw 3332   3.236   6.001   2.599  0.9879  0.0124 -0.0337
  834SOL     ow 3333   0.915   7.118   4.433 -0.4974  0.5310  0.5481
  834SOL     hw 3334   0.829   7.148   4.405 -0.8937 -1.3328 -0.4264
  834SOL     hw 3335   0.937   7.048   4.371  0.6841 -0.6316  2.2028
  834SOL     vw 3336   0.907   7.113   4.421 -0.3938  0.1314  0.6378
  835SOL     ow 3337   3.164   5.990   6.889  0.6599  0.0765 -0.3116
  835SOL     hw 3338   3.146   6.068   6.838 -2.4958 -1.1472 -1.3315
  835SOL     hw 3339   3.117   6.003   6.971  1.2300 -0.2142  0.0707
  835SOL     vw 3340   3.155   6.002   6.893  0.3186 -0.1233 -0.3955
  836SOL     ow 3341   6.429   3.635   1.795  0.1980 -0.0406  0.0648
  836SOL     hw 3342   6.442   3.646   1.701 -0.0298  0.9076  0.1343
  836SOL     hw 3343   6.510   3.669   1.834 -0.2945  0.9492  0.2625
  836SOL     vw 3344   6.442   3.641   1.788  0.1028  0.2152  0.1001
  837SOL     ow 3345   6.046   6.868   6.872  0.7110  0.4019  0.0250
  837SOL     hw 3346   5.961   6.862   6.829  0.2471  1.0085  0.8324
  837SOL     hw 3347   6.102   6.914   6.810 -0.0215  1.5053  0.1635
  837SOL     vw 3348   6.042   6.873   6.858  0.5531  0.6275  0.1497
  838SOL     ow 3349   1.342   6.819   6.968  0.5973 -0.0532  0.0379
  838SOL     hw 3350   1.290   6.777   6.900  0.5745 -0.0489  0.0525
  838SOL     hw 3351   1.303   6.789   7.050  0.7814 -0.2527  0.0520
  838SOL     vw 3352   1.330   6.810   6.970  0.6187 -0.0787  0.0417
  839SOL     ow 3353   5.796   6.051   3.991  0.0465  0.3893  0.0532
  839SOL     hw 3354   5.787   5.965   3.951  3.0606  0.1577 -0.3227
  839SOL     hw 3355   5.796   6.112   3.918 -1.2486  0.6923  0.2677
  839SOL     vw 3356   5.795   6.048   3.976  0.2732  0.3989  0.0319
  840SOL     ow 3357   4.035   6.937   5.452 -0.4567 -0.1875 -0.7898
  840SOL     hw 3358   3.996   6.851   5.467  0.1777 -0.5507 -1.1754
  840SOL     hw 3359   4.117   6.919   5.405 -0.4094  0.6355 -1.0519
  840SOL     vw 3360   4.041   6.923   5.448 -0.3667 -0.1268 -0.8752
  841SOL     ow 3361   4.504   0.851   6.338  0.3045 -0.3591  0.5349
  841SOL     hw 3362   4.499   0.868   6.244 -0.4837  1.8128  0.9002
  841SOL     hw 3363   4.421   0.808   6.359 -1.7323  3.2459  0.8375
  841SOL     vw 3364   4.493   0.848   6.329 -0.0684  0.4031  0.6230
  842SOL     ow 3365   1.013   1.732   3.029  0.0048  0.1611  0.0441
  842SOL     hw 3366   1.025   1.657   3.088  0.3789 -0.9212 -1.3494
  842SOL     hw 3367   0.919   1.744   3.024 -0.0620  2.2207  3.1453
  842SOL     vw 3368   1.002   1.723   3.036  0.0454  0.2900  0.2694
  843SOL     ow 3369   1.817   4.322   0.807 -0.0974  0.0184  0.3065
  843SOL     hw 3370   1.814   4.260   0.879 -0.6465 -0.5339 -0.1886
  843SOL     hw 3371   1.854   4.401   0.846  3.1095 -1.3784  0.3636
  843SOL     vw 3372   1.821   4.325   0.822  0.2533 -0.2387  0.2487
  844SOL     ow 3373   6.040   0.185   0.691  0.6775 -0.6181  0.2919
  844SOL     hw 3374   6.115   0.213   0.638 -0.3716  1.7284 -0.1117
  844SOL     hw 3375   5.978   0.258   0.685 -1.1722 -1.9837  1.5408
  844SOL     vw 3376   6.042   0.199   0.683  0.2949 -0.4887  0.4035
  845SOL     ow 3377   1.106   7.425   3.721 -0.7421  0.2217  0.0167
  845SOL     hw 3378   1.152   7.359   3.773  0.3924  1.4346  0.6066
  845SOL     hw 3379   1.108   7.504   3.775 -0.9607  1.0888 -1.2060
  845SOL     vw 3380   1.112   7.427   3.735 -0.6213  0.4959 -0.0666
  846SOL     ow 3381   3.830   7.105   6.061 -0.2820 -0.0864  0.2421
  846SOL     hw 3382   3.874   7.102   5.976 -1.2988 -1.9559 -0.2815
  846SOL     hw 3383   3.811   7.198   6.075  0.8183  0.3657 -1.0759
  846SOL     vw 3384   3.833   7.117   6.051 -0.2708 -0.2732 -0.0010
  847SOL     ow 3385   7.603   6.846   7.221 -0.1287 -0.2308 -0.1946
  847SOL     hw 3386   7.679   6.824   7.274 -0.6271  1.9845  1.6043
  847SOL     hw 3387   7.604   6.942   7.216 -2.8885 -0.1029  0.1295
  847SOL     vw 3388   7.613   6.856   7.227 -0.5584  0.0784  0.0854
  848SOL     ow 3389   1.570   2.867   6.768 -0.4637 -0.1306 -0.4223
  848SOL     hw 3390   1.666   2.876   6.762 -0.3618 -1.9087 -2.4344
  848SOL     hw 3391   1.542   2.846   6.679 -3.1327  3.0601 -0.5335
  848SOL     vw 3392   1.579   2.865   6.755 -0.8025  0.0558 -0.7026
  849SOL     ow 3393   6.363   7.390   0.431 -0.6161 -0.0495  0.3299
  849SOL     hw 3394   6.403   7.473   0.407 -0.8179 -0.3169 -1.0168
  849SOL     hw 3395   6.432   7.343   0.479 -1.8529  2.6555  5.5834
  849SOL     vw 3396   6.378   7.395   0.434 -0.8059  0.2720  0.8453
  850SOL     ow 3397   0.854   5.487   1.399 -0.1074  0.3018 -0.3943
  850SOL     hw 3398   0.815   5.428   1.335 -0.0920  0.7626 -0.8265
  850SOL     hw 3399   0.835   5.445   1.484 -1.2239  0.3268 -0.6122
  850SOL     vw 3400   0.846   5.474   1.402 -0.2528  0.3657 -0.4801
  851SOL     ow 3401   1.442   2.283   2.647  0.3629 -0.0161 -0.5604
  851SOL     hw 3402   1.380   2.210   2.645  1.5793 -1.2830  1.9952
  851SOL     hw 3403   1.496   2.272   2.569 -0.9480 -0.4225 -1.4403
  851SOL     vw 3404   1.441   2.272   2.637  0.3504 -0.2369 -0.3393
  852SOL     ow 3405   5.918   1.975   5.900  0.4279 -0.4317  0.0701
  852SOL     hw 3406   5.826   2.003   5.904  0.5130 -0.1491  0.0738
  852SOL     hw 3407   5.919   1.890   5.944  0.4833  0.4027  1.7585
  852SOL     vw 3408   5.906   1.967   5.907  0.4466 -0.2843  0.2935
  853SOL     ow 3409   5.758   0.547   3.765  0.2116 -0.3358  0.3513
  853SOL     hw 3410   5.672   0.530   3.804 -0.9883  0.0465 -1.9603
  853SOL     hw 3411   5.809   0.468   3.784 -1.7107 -1.9840 -0.8980
  853SOL     vw 3412   5.754   0.534   3.773 -0.2005 -0.5029 -0.1186
  854SOL     ow 3413   2.774   4.081   2.142 -0.7166  0.3654 -0.1088
  854SOL     hw 3414   2.770   3.989   2.165  0.3974  0.2864 -0.1612
  854SOL     hw 3415   2.696   4.120   2.182 -1.5093 -0.6910 -0.6004
  854SOL     vw 3416   2.763   4.074   2.150 -0.6741  0.2153 -0.1806
  855SOL     ow 3417   0.703   6.978   2.565  0.3223 -0.6491  0.3653
  855SOL     hw 3418   0.768   7.048   2.573 -1.5098  0.9007  3.1732
  855SOL     hw 3419   0.684   6.974   2.471  1.0567  2.1626  0.0136
  855SOL     vw 3420   0.709   6.987   2.553  0.1775 -0.0737  0.6894
  856SOL     ow 3421   1.990   1.413   0.129  0.7788  0.5814  1.0917
  856SOL     hw 3422   2.040   1.337   0.102  2.1899  1.6326  0.6526
  856SOL     hw 3423   1.987   1.408   0.225  0.0299 -0.5078  1.0284
  856SOL     vw 3424   1.996   1.403   0.138  0.8661  0.5764  1.0254
  857SOL     ow 3425   0.589   3.391   1.284 -0.6403 -0.0677 -0.0408
  857SOL     hw 3426   0.625   3.465   1.237 -0.0815 -0.6043 -0.4822
  857SOL     hw 3427   0.654   3.322   1.273 -1.5894 -0.9282 -0.4736
  857SOL     vw 3428   0.602   3.391   1.276 -0.6917 -0.2519 -0.1562
  858SOL     ow 3429   0.890   7.250   4.918 -0.4300 -1.2456  0.0499
  858SOL     hw 3430   0.976   7.208   4.926  0.9752  1.4553  0.4730
  858SOL     hw 3431   0.869   7.278   5.007 -2.4482 -2.9873  0.1898
  858SOL     vw 3432   0.899   7.248   4.931 -0.5109 -1.1189  0.1245
  859SOL     ow 3433   4.757   6.726   0.605 -0.5036  0.5468 -0.4820
  859SOL     hw 3434   4.834   6.773   0.635  0.0215 -0.4589 -0.2011
  859SOL     hw 3435   4.688   6.750   0.667 -0.0386  0.3545  0.1197
  859SOL     vw 3436   4.758   6.735   0.617 -0.3726  0.3886 -0.3656
  860SOL     ow 3437   4.808   3.759   5.745  0.2560  0.7026  0.6269
  860SOL     hw 3438   4.727   3.808   5.730 -0.0032  0.2597  0.5571
  860SOL     hw 3439   4.810   3.694   5.674  2.0102  2.3992 -0.9852
  860SOL     vw 3440   4.797   3.757   5.734  0.4532  0.8680  0.4048
  861SOL     ow 3441   5.405   1.623   3.298 -0.3370 -0.2143 -0.1512
  861SOL     hw 3442   5.422   1.536   3.334  1.8836  0.1188 -0.2397
  861SOL     hw 3443   5.395   1.608   3.204  2.2656 -0.1973 -0.4955
  861SOL     vw 3444   5.406   1.610   3.290  0.2995 -0.1680 -0.2083
  862SOL     ow 3445   1.876   6.021   3.488 -0.0430 -0.3531  0.9013
  862SOL     hw 3446   1.820   5.946   3.508 -1.4236 -0.2088 -1.9440
  862SOL     hw 3447   1.894   6.014   3.395  0.8194  2.1952  0.7890
  862SOL     vw 3448   1.871   6.010   3.479 -0.1114  0.0021  0.5111
  863SOL     ow 3449   2.917   2.245   2.177 -0.0083  0.4135  0.0161
  863SOL     hw 3450   2.988   2.300   2.143  0.9972 -0.2601  0.9601
  863SOL     hw 3451   2.843   2.304   2.186 -0.3263  0.6942 -3.1642
  863SOL     vw 3452   2.917   2.260   2.174  0.0824  0.3617 -0.2788
  864SOL     ow 3453   7.065   0.480   2.862 -0.1193  1.0876 -0.0958
  864SOL     hw 3454   7.118   0.405   2.836 -2.6250 -0.3760 -1.3829
  864SOL     hw 3455   7.106   0.555   2.820  1.9555  0.3593  0.5122
  864SOL     vw 3456   7.077   0.480   2.853 -0.1762  0.7984 -0.1854
  865SOL     ow 3457   2.255   3.812   7.408  0.1970 -0.8340 -0.2377
  865SOL     hw 3458   2.245   3.805   7.313  0.4134  1.6205 -0.5080
  865SOL     hw 3459   2.171   3.847   7.438  1.1045  1.2368  0.0420
  865SOL     vw 3460   2.242   3.816   7.400  0.3452 -0.2370 -0.2365
  866SOL     ow 3461   7.438   1.538   6.922 -0.6302  0.8853 -0.4336
  866SOL     hw 3462   7.423   1.592   6.844 -1.2500  2.9143  1.0100
  866SOL     hw 3463   7.504   1.585   6.972 -0.5542 -0.1585  0.4914
  866SOL     vw 3464   7.445   1.551   6.918 -0.7019  1.0152 -0.1211
  867SOL     ow 3465   2.786   5.425   2.575  0.6505  0.9371 -0.3910
  867SOL     hw 3466   2.779   5.495   2.509  0.7869  0.8021 -0.5491
  867SOL     hw 3467   2.856   5.369   2.543 -0.8367 -0.4631 -1.3958
  867SOL     vw 3468   2.794   5.427   2.562  0.4722  0.7346 -0.5444
  868SOL     ow 3469   6.580   6.614   2.156 -0.7544 -0.8333  0.9796
  868SOL     hw 3470   6.647   6.647   2.215 -1.1561 -0.3755  1.1876
  868SOL     hw 3471   6.519   6.567   2.212 -1.5174  0.2070  1.0411
  868SOL     vw 3472   6.581   6.612   2.171 -0.9081 -0.6356  1.0153
  869SOL     ow 3473   6.874   4.219   4.783  0.2770  0.6209  0.5913
  869SOL     hw 3474   6.879   4.314   4.793  1.6334  0.4573  1.7652
  869SOL     hw 3475   6.963   4.189   4.796 -0.2453 -0.8663  0.9122
  869SOL     vw 3476   6.886   4.228   4.786  0.3870  0.4032  0.7882
  870SOL     ow 3477   5.881   4.347   0.134 -0.0426  0.6532 -0.2259
  870SOL     hw 3478   5.914   4.369   0.221  0.8013  1.7797 -0.7971
  870SOL     hw 3479   5.959   4.346   0.079  0.2043 -4.6050 -0.2478
  870SOL     vw 3480   5.895   4.350   0.138  0.1011  0.1078 -0.3042
  871SOL     ow 3481   1.964   1.368   7.145  0.0871  0.4496 -0.6123
  871SOL     hw 3482   1.988   1.453   7.183 -0.1299  1.0174 -1.7025
  871SOL     hw 3483   2.047   1.333   7.114  0.0470  0.6942 -1.0010
  871SOL     vw 3484   1.978   1.375   7.146  0.0532  0.5568 -0.8073
  872SOL     ow 3485   6.338   6.905   0.681 -0.3614  0.0954  0.2126
  872SOL     hw 3486   6.342   6.904   0.585  1.0774  0.2005  0.2449
  872SOL     hw 3487   6.297   6.989   0.702 -2.1751 -0.6059 -0.3032
  872SOL     vw 3488   6.333   6.916   0.671 -0.4108  0.0167  0.1488
  873SOL     ow 3489   4.988   0.277   4.933  0.6085 -0.6605  0.1017
  873SOL     hw 3490   5.070   0.234   4.956  0.5425 -1.9169 -1.8031
  873SOL     hw 3491   4.938   0.211   4.885 -1.0781  0.4037  0.2876
  873SOL     vw 3492   4.992   0.263   4.930  0.3774 -0.6859 -0.1252
  874SOL     ow 3493   4.397   5.053   7.195  0.3788 -0.1602  0.2757
  874SOL     hw 3494   4.492   5.053   7.178 -0.0112  1.6961 -2.5131
  874SOL     hw 3495   4.363   4.983   7.140 -0.1011  0.9023 -0.8254
  874SOL     vw 3496   4.405   5.044   7.185  0.2642  0.2251 -0.2375
  875SOL     ow 3497   0.738   2.911   6.448 -0.2475  0.6353  0.1454
  875SOL     hw 3498   0.816   2.940   6.400  0.1269 -0.0823  0.3065
  875SOL     hw 3499   0.764   2.914   6.540 -0.8637  1.7066  0.3097
  875SOL     vw 3500   0.752   2.916   6.454 -0.2794  0.6820  0.1884
  876SOL     ow 3501   1.648   3.700   6.186 -0.2045  0.1242 -0.3814
  876SOL     hw 3502   1.615   3.686   6.097  1.4778  1.6351 -1.3399
  876SOL     hw 3503   1.734   3.658   6.186  0.8478  2.1382 -0.3166
  876SOL     vw 3504   1.655   3.693   6.174  0.1563  0.5893 -0.4995
  877SOL     ow 3505   3.566   2.056   0.125  0.0126  0.3909 -0.1758
  877SOL     hw 3506   3.611   2.073   0.042  0.5663 -0.3702 -0.0419
  877SOL     hw 3507   3.485   2.011   0.099  0.4679 -0.3944 -0.2866
  877SOL     vw 3508   3.561   2.052   0.110  0.1458  0.1868 -0.1727
  878SOL     ow 3509   1.994   4.407   5.625 -0.2010  0.3902 -0.0379
  878SOL     hw 3510   2.070   4.441   5.671  0.3326 -0.8804  0.0773
  878SOL     hw 3511   1.952   4.348   5.687 -2.6042  2.7019  0.7037
  878SOL     vw 3512   1.999   4.404   5.639 -0.4476  0.5276  0.0751
  879SOL     ow 3513   2.641   7.278   1.859  0.1750  0.0109 -0.6951
  879SOL     hw 3514   2.665   7.300   1.769 -0.2359 -0.5102 -0.9415
  879SOL     hw 3515   2.569   7.216   1.849  0.6207 -0.6284 -0.0222
  879SOL     vw 3516   2.635   7.272   1.846  0.1795 -0.1421 -0.6388
  880SOL     ow 3517   5.092   7.557   0.490  0.2997 -0.9192  0.6950
  880SOL     hw 3518   5.070   7.633   0.544 -0.0549 -0.1573 -0.4864
  880SOL     hw 3519   5.142   7.499   0.548 -0.9846 -0.6304  2.1470
  880SOL     vw 3520   5.095   7.559   0.505  0.0834 -0.7808  0.7307
  881SOL     ow 3521   4.527   0.373   2.614 -0.5171 -0.1298  0.5548
  881SOL     hw 3522   4.499   0.289   2.578 -0.3932  0.1765 -0.2794
  881SOL     hw 3523   4.447   0.425   2.621 -0.4127  0.1567 -0.2404
  881SOL     vw 3524   4.513   0.369   2.610 -0.4869 -0.0516  0.3399
  882SOL     ow 3525   7.412   0.625   4.803  0.7846  0.9481  0.7276
  882SOL     hw 3526   7.428   0.601   4.712  0.8578  0.3332  0.9018
  882SOL     hw 3527   7.485   0.682   4.826 -0.6704  3.5094 -0.4604
  882SOL     vw 3528   7.423   0.629   4.794  0.6022  1.2049  0.5937
  883SOL     ow 3529   3.235   6.957   0.007 -0.2020  0.3698 -0.5714
  883SOL     hw 3530   3.165   6.903  -0.031 -0.8777 -0.3554  1.5571
  883SOL     hw 3531   3.260   6.911   0.087  1.0736  1.8628 -0.0675
  883SOL     vw 3532   3.229   6.944   0.012 -0.1228  0.4711 -0.2241
  884SOL     ow 3533   1.232   5.543   6.260 -1.2332 -0.5274  0.5822
  884SOL     hw 3534   1.267   5.469   6.212 -1.9566 -0.2754 -0.3657
  884SOL     hw 3535   1.267   5.534   6.349  1.2094 -0.2716 -0.2911
  884SOL     vw 3536   1.241   5.532   6.266 -1.0064 -0.4606  0.3417
  885SOL     ow 3537   3.716   3.063   6.070  0.5692 -0.5149 -0.3758
  885SOL     hw 3538   3.778   2.995   6.042 -0.1908 -1.9740  1.3012
  885SOL     hw 3539   3.681   3.098   5.989  2.3540 -0.7947 -1.3351
  885SOL     vw 3540   3.720   3.058   6.056  0.7044 -0.7443 -0.2811
  886SOL     ow 3541   0.975   0.493   4.079  0.2739 -0.2908 -0.3119
  886SOL     hw 3542   1.021   0.471   4.160 -0.1074 -1.3929 -0.3787
  886SOL     hw 3543   1.036   0.468   4.010 -0.0103 -0.7876 -0.3849
  886SOL     vw 3544   0.989   0.487   4.080  0.1861 -0.5017 -0.3304
  887SOL     ow 3545   0.577   2.663   3.489 -0.4391  0.3814  0.5906
  887SOL     hw 3546   0.538   2.576   3.493  1.1155 -0.3208  0.9991
  887SOL     hw 3547   0.591   2.679   3.396 -0.7095  0.1889  0.5156
  887SOL     vw 3548   0.574   2.654   3.477 -0.2697  0.2633  0.6347
  888SOL     ow 3549   6.946   1.118   4.834  0.2751  0.5686 -0.7705
  888SOL     hw 3550   6.905   1.150   4.914  0.8602 -1.5149  0.4394
  888SOL     hw 3551   6.878   1.067   4.790  0.1160  1.2578 -1.3342
  888SOL     vw 3552   6.932   1.115   4.839  0.3314  0.3846 -0.6850
  889SOL     ow 3553   1.487   7.509   0.821 -0.1474 -0.3848  0.3960
  889SOL     hw 3554   1.496   7.438   0.884 -0.1233 -1.1253 -0.4184
  889SOL     hw 3555   1.546   7.485   0.749  1.0467  1.2417  0.7828
  889SOL     vw 3556   1.496   7.496   0.820  0.0134 -0.2680  0.3396
  890SOL     ow 3557   5.478   4.126   0.247 -1.2230  0.8791 -0.6389
  890SOL     hw 3558   5.452   4.143   0.338 -2.6858  0.1134 -0.8854
  890SOL     hw 3559   5.569   4.098   0.254 -2.2033 -2.4683  1.0450
  890SOL     vw 3560   5.487   4.125   0.260 -1.5454  0.3364 -0.4493
  891SOL     ow 3561   7.165   3.694   5.787  0.0601 -0.1509 -0.0849
  891SOL     hw 3562   7.237   3.645   5.747 -0.7078 -0.1517 -1.5471
  891SOL     hw 3563   7.208   3.766   5.834  1.0997 -1.2148  0.6728
  891SOL     vw 3564   7.180   3.697   5.788  0.0958 -0.2913 -0.1776
  892SOL     ow 3565   6.907   0.716   3.876  0.6583 -0.3934 -0.4770
  892SOL     hw 3566   6.975   0.766   3.829 -0.3574  2.0029  0.4240
  892SOL     hw 3567   6.904   0.756   3.963 -0.1849 -2.1410  0.3402
  892SOL     vw 3568   6.916   0.728   3.881  0.4132 -0.3079 -0.2503
  893SOL     ow 3569   1.034   2.976   4.719  0.9414 -0.0788 -0.4230
  893SOL     hw 3570   1.074   2.916   4.783  1.3889 -0.2591 -0.8626
  893SOL     hw 3571   1.109   3.022   4.680  0.6123  0.6751 -0.1888
  893SOL     vw 3572   1.049   2.974   4.723  0.9571 -0.0032 -0.4499
  894SOL     ow 3573   2.651   2.912   2.767 -0.1596  0.4045  0.0818
  894SOL     hw 3574   2.637   3.005   2.780 -1.3823  0.1746  0.5777
  894SOL     hw 3575   2.606   2.892   2.685  0.7148  0.3680 -0.4045
  894SOL     vw 3576   2.643   2.921   2.758 -0.2054  0.3692  0.0831
  895SOL     ow 3577   3.585   1.103   5.513  0.4797 -0.3561 -0.2236
  895SOL     hw 3578   3.542   1.062   5.438  1.0649  3.1963 -2.7888
  895SOL     hw 3579   3.521   1.100   5.583 -1.0745 -1.6791 -1.6306
  895SOL     vw 3580   3.571   1.097   5.512  0.3518 -0.0620 -0.7477
  896SOL     ow 3581   7.071   2.813   1.923 -0.2920  0.1520  0.0736
  896SOL     hw 3582   7.002   2.780   1.866  0.0629 -1.1641  0.3654
  896SOL     hw 3583   7.036   2.894   1.959 -1.4309 -0.1702 -0.2651
  896SOL     vw 3584   7.057   2.819   1.920 -0.3953 -0.0641  0.0674
  897SOL     ow 3585   3.902   6.577   3.742 -0.1897  0.0115 -0.2705
  897SOL     hw 3586   3.938   6.534   3.820  1.2457  0.0398 -0.8966
  897SOL     hw 3587   3.833   6.518   3.712  0.1556 -0.6658  0.2428
  897SOL     vw 3588   3.898   6.564   3.749  0.0451 -0.0741 -0.2855
  898SOL     ow 3589   1.694   3.547   0.806 -0.5527  1.0445  0.2157
  898SOL     hw 3590   1.708   3.523   0.714  4.1315 -1.7753  1.3307
  898SOL     hw 3591   1.626   3.488   0.836 -1.3418  1.2206 -1.1315
  898SOL     vw 3592   1.687   3.536   0.798 -0.0387  0.6958  0.1851
  899SOL     ow 3593   2.494   0.990   3.768 -0.7403  0.2864  0.2390
  899SOL     hw 3594   2.563   0.964   3.829  0.3269  1.3405 -0.4706
  899SOL     hw 3595   2.447   1.060   3.814 -1.0685 -0.1281  0.5438
  899SOL     vw 3596   2.497   0.996   3.782 -0.6428  0.3708  0.1856
  900SOL     ow 3597   3.766   3.950   5.025  0.8184  0.4216  0.2713
  900SOL     hw 3598   3.774   3.912   5.113  0.9330 -0.6433 -0.1830
  900SOL     hw 3599   3.691   4.010   5.032 -0.5653 -1.2450  0.5718
  900SOL     vw 3600   3.757   3.953   5.037  0.6510  0.0612  0.2513
  901SOL     ow 3601   1.140   6.795   4.591  0.5159  0.1485  0.4528
  901SOL     hw 3602   1.195   6.788   4.513 -0.2784  0.8705 -0.1935
  901SOL     hw 3603   1.093   6.712   4.596  0.4401  0.1713  0.0739
  901SOL     vw 3604   1.141   6.783   4.582  0.4011  0.2470  0.3176
  902SOL     ow 3605   0.390   2.991   0.694  0.1495  0.4884 -0.3192
  902SOL     hw 3606   0.454   3.053   0.660 -0.1264  0.9639  0.0162
  902SOL     hw 3607   0.305   3.034   0.681 -0.4162 -1.2381 -3.2537
  902SOL     vw 3608   0.387   3.005   0.688  0.0385  0.3234 -0.6621
  903SOL     ow 3609   2.293   1.408   5.493  0.4096 -0.2377 -0.6485
  903SOL     hw 3610   2.298   1.343   5.423 -0.9584 -1.7329  0.5526
  903SOL     hw 3611   2.371   1.392   5.546 -0.0051 -1.0372 -0.2667
  903SOL     vw 3612   2.304   1.397   5.491  0.1744 -0.5405 -0.4399
  904SOL     ow 3613   4.708   4.636   3.492  0.0210 -0.1912 -0.2691
  904SOL     hw 3614   4.710   4.542   3.475  1.0302 -0.0051 -1.2900
  904SOL     hw 3615   4.797   4.666   3.472 -0.7981  1.2954 -1.9336
  904SOL     vw 3616   4.720   4.628   3.488  0.0460  0.0296 -0.6235
  905SOL     ow 3617   3.815   4.378   2.219 -0.0717 -0.0424 -0.2901
  905SOL     hw 3618   3.822   4.293   2.175 -1.4823  0.1391 -0.9402
  905SOL     hw 3619   3.720   4.392   2.227  0.1481  1.2295  0.2989
  905SOL     vw 3620   3.803   4.369   2.215 -0.2289  0.1493 -0.2983
  906SOL     ow 3621   4.267   0.002   5.366 -0.0876  0.3985  0.9542
  906SOL     hw 3622   4.262   0.096   5.384 -1.1428  0.9205 -1.6170
  906SOL     hw 3623   4.317  -0.005   5.285  0.0621 -1.2869  1.1535
  906SOL     vw 3624   4.273   0.014   5.358 -0.2069  0.2449  0.6411
  907SOL     ow 3625   1.470   2.758   2.846 -0.2235 -0.3324  0.0220
  907SOL     hw 3626   1.490   2.692   2.912 -1.4838 -0.2407  0.5335
  907SOL     hw 3627   1.409   2.818   2.889  1.5333  1.6828 -0.1594
  907SOL     vw 3628   1.465   2.757   2.860 -0.1580 -0.0544  0.0654
  908SOL     ow 3629   6.486   3.927   6.394 -0.3941  0.0882  0.1083
  908SOL     hw 3630   6.574   3.965   6.403 -1.1494  1.6584  1.3543
  908SOL     hw 3631   6.439   3.988   6.337  0.0933 -2.3108 -3.1435
  908SOL     vw 3632   6.492   3.940   6.388 -0.4294 -0.0211 -0.1562
  909SOL     ow 3633   6.316   1.811   2.546  0.9667 -0.7719  0.1499
  909SOL     hw 3634   6.392   1.860   2.515  1.5077 -2.7738 -1.9382
  909SOL     hw 3635   6.255   1.879   2.577  3.1194  0.9281  0.8725
  909SOL     vw 3636   6.318   1.827   2.546  1.3220 -0.8118 -0.0303
  910SOL     ow 3637   3.633   1.101   2.516  0.2883  0.1795 -0.0728
  910SOL     hw 3638   3.711   1.054   2.487 -1.0999 -2.0076 -0.4140
  910SOL     hw 3639   3.598   1.142   2.437 -0.3201 -0.9918 -0.4189
  910SOL     vw 3640   3.639   1.101   2.502  0.0249 -0.2636 -0.1634
  911SOL     ow 3641   3.113   0.241   3.986  0.4233 -0.0893 -0.6132
  911SOL     hw 3642   3.067   0.322   3.962 -0.8802 -1.5148 -3.4197
  911SOL     hw 3643   3.052   0.195   4.043  0.1670 -0.1074 -0.8994
  911SOL     vw 3644   3.099   0.246   3.990  0.2174 -0.2798 -1.0213
  912SOL     ow 3645   1.926   2.132   1.722  0.2510  0.4903 -0.0184
  912SOL     hw 3646   1.840   2.093   1.740  0.6268  0.3833  1.7299
  912SOL     hw 3647   1.958   2.085   1.646 -0.6206 -0.4958  0.2039
  912SOL     vw 3648   1.919   2.121   1.715  0.1857  0.3461  0.2416
  913SOL     ow 3649   5.532   6.432   1.441 -0.2619 -0.8157  0.0096
  913SOL     hw 3650   5.531   6.354   1.497  1.3230 -0.2933  0.7976
  913SOL     hw 3651   5.529   6.396   1.352 -0.9511 -1.7097  0.3654
  913SOL     vw 3652   5.531   6.417   1.437 -0.1438 -0.8645  0.1606
  914SOL     ow 3653   7.043   3.586   6.539 -0.4455 -0.3405  0.1429
  914SOL     hw 3654   7.051   3.610   6.631  1.8126 -4.1750  1.1774
  914SOL     hw 3655   7.011   3.495   6.540 -0.0176 -0.6412 -2.8277
  914SOL     vw 3656   7.040   3.577   6.551 -0.0913 -0.8861 -0.1125
  915SOL     ow 3657   0.585   2.031   7.106 -0.2012  0.3241  0.1245
  915SOL     hw 3658   0.531   2.083   7.045 -0.6091  0.0178  0.2209
  915SOL     hw 3659   0.523   1.998   7.171  0.0245 -0.4397 -0.0404
  915SOL     vw 3660   0.570   2.034   7.106 -0.2252  0.1830  0.1156
  916SOL     ow 3661   5.043   4.895   1.894 -0.5083  0.3772 -0.5601
  916SOL     hw 3662   5.016   4.817   1.846 -0.5530  0.2114 -0.2650
  916SOL     hw 3663   4.970   4.956   1.883 -0.8174  0.0888 -0.1313
  916SOL     vw 3664   5.030   4.893   1.887 -0.5550  0.3173 -0.4645
  917SOL     ow 3665   2.187   2.533   3.710 -0.2755 -0.1653  0.5708
  917SOL     hw 3666   2.147   2.615   3.684  1.4379  0.4172 -0.4392
  917SOL     hw 3667   2.209   2.544   3.802 -1.1408  0.0286  0.7567
  917SOL     vw 3668   2.185   2.545   3.718 -0.1637 -0.0629  0.4621
  918SOL     ow 3669   7.346   4.673   4.798 -0.3576  0.3122  0.0333
  918SOL     hw 3670   7.316   4.742   4.858  1.0023  0.1401  0.9635
  918SOL     hw 3671   7.269   4.651   4.746 -0.9360  2.2624 -0.0221
  918SOL     vw 3672   7.332   4.680   4.799 -0.2546  0.5467  0.1488
  919SOL     ow 3673   4.596   2.606   7.298  0.0790 -0.4127 -0.4081
  919SOL     hw 3674   4.621   2.522   7.260  2.6142  0.1182 -0.0972
  919SOL     hw 3675   4.608   2.594   7.393 -0.6073 -0.0193 -0.2668
  919SOL     vw 3676   4.601   2.593   7.306  0.3231 -0.2906 -0.3483
  920SOL     ow 3677   4.549   7.404   5.722 -0.1017 -0.2921  0.0541
  920SOL     hw 3678   4.629   7.356   5.741  0.5086  0.7241  0.1430
  920SOL     hw 3679   4.573   7.467   5.654 -0.1075  1.7573  1.8107
  920SOL     vw 3680   4.563   7.406   5.716 -0.0219  0.1123  0.2978
  921SOL     ow 3681   4.517   1.599   3.533  0.1929  0.5515 -0.1774
  921SOL     hw 3682   4.602   1.596   3.489  1.5980 -0.0414  2.3606
  921SOL     hw 3683   4.537   1.634   3.620 -2.3189  1.1499  0.2281
  921SOL     vw 3684   4.531   1.603   3.539  0.0470  0.5522  0.2110
  922SOL     ow 3685   3.984   0.239   0.595 -0.6900  0.4007 -0.2248
  922SOL     hw 3686   4.059   0.235   0.536  0.9436 -0.2787  1.7269
  922SOL     hw 3687   3.962   0.147   0.611 -0.3209  0.5113  1.0689
  922SOL     vw 3688   3.991   0.226   0.590 -0.4257  0.3257  0.2034
  923SOL     ow 3689   2.052   2.843   6.696 -0.1448 -0.1390 -0.2269
  923SOL     hw 3690   2.110   2.893   6.638 -0.9455  0.8829 -0.1721
  923SOL     hw 3691   2.084   2.753   6.690  3.8849  0.8345  2.6530
  923SOL     vw 3692   2.064   2.837   6.688  0.2812  0.1243  0.1602
  924SOL     ow 3693   6.238   3.566   2.023  0.2801  0.0801  0.1780
  924SOL     hw 3694   6.145   3.586   2.021  0.1688 -0.2303  1.2494
  924SOL     hw 3695   6.273   3.621   2.094  1.2007  1.2657 -1.1395
  924SOL     vw 3696   6.231   3.576   2.032  0.3870  0.1955  0.1456
  925SOL     ow 3697   7.343   4.108   1.842  0.6188  0.9257 -0.0398
  925SOL     hw 3698   7.358   4.164   1.766  0.1207 -0.1861 -0.9856
  925SOL     hw 3699   7.419   4.050   1.844  0.7051  1.0460  0.4181
  925SOL     vw 3700   7.355   4.108   1.832  0.5643  0.7949 -0.1041
  926SOL     ow 3701   3.109   2.489   4.928  0.2888  0.1860  0.0631
  926SOL     hw 3702   3.022   2.453   4.907  0.4963 -1.8079  2.1773
  926SOL     hw 3703   3.096   2.533   5.012  1.1565  0.6043 -0.0205
  926SOL     vw 3704   3.096   2.490   4.936  0.4306 -0.0219  0.3309
  927SOL     ow 3705   6.733   5.689   2.603 -0.1011  0.5095  0.1090
  927SOL     hw 3706   6.707   5.781   2.594  0.0958  0.4602 -1.1923
  927SOL     hw 3707   6.753   5.661   2.514  0.2015 -0.6995  0.5346
  927SOL     vw 3708   6.732   5.697   2.590 -0.0350  0.3431 -0.0066
  928SOL     ow 3709   4.077   1.854   5.327  0.1977  0.0867  0.0248
  928SOL     hw 3710   4.039   1.870   5.413 -2.2438 -0.4751 -0.8379
  928SOL     hw 3711   4.121   1.770   5.334  2.4980  1.3214  1.3946
  928SOL     vw 3712   4.078   1.845   5.339  0.1791  0.1755  0.0918
  929SOL     ow 3713   1.259   1.886   5.077  0.0671  0.0366 -0.1050
  929SOL     hw 3714   1.251   1.881   5.172  1.0488 -0.8923 -0.0517
  929SOL     hw 3715   1.331   1.947   5.061 -0.1948  0.3099 -0.2644
  929SOL     vw 3716   1.267   1.894   5.087  0.1621 -0.0499 -0.1190
  930SOL     ow 3717   2.903   4.705   4.784 -0.7154  0.0641 -0.0693
  930SOL     hw 3718   2.943   4.792   4.786  0.4267 -0.4512  1.5266
  930SOL     hw 3719   2.973   4.647   4.755 -0.4133 -0.7791  2.1980
  930SOL     vw 3720   2.917   4.709   4.780 -0.5249 -0.1154  0.4406
  931SOL     ow 3721   5.904   1.597   0.515  0.5537  0.0274 -0.3040
  931SOL     hw 3722   5.911   1.567   0.424 -0.5007  0.7913 -0.6599
  931SOL     hw 3723   5.822   1.647   0.517  0.9122  0.5985  0.9029
  931SOL     vw 3724   5.894   1.600   0.503  0.4618  0.2035 -0.1917
  932SOL     ow 3725   0.787   0.056   3.720 -1.0173 -0.6411 -0.2545
  932SOL     hw 3726   0.746   0.003   3.789  0.6111 -1.4337  0.1406
  932SOL     hw 3727   0.714   0.081   3.663 -2.5345  0.6478  2.1002
  932SOL     vw 3728   0.772   0.052   3.721 -1.0026 -0.5756  0.1084
  933SOL     ow 3729   6.829   4.798   5.944  0.3922 -0.3370  0.0157
  933SOL     hw 3730   6.763   4.777   6.010  0.3930  1.3370  0.5867
  933SOL     hw 3731   6.913   4.776   5.985  0.3026 -0.7317 -0.0129
  933SOL     vw 3732   6.832   4.792   5.958  0.3805 -0.1683  0.0873
  934SOL     ow 3733   7.009   2.101   6.559  0.8374 -0.1272  0.0964
  934SOL     hw 3734   7.048   2.049   6.629  0.7679 -0.9111 -0.4393
  934SOL     hw 3735   7.029   2.192   6.583  0.1843 -0.3301  1.5015
  934SOL     vw 3736   7.017   2.106   6.571  0.7422 -0.2575  0.2110
  935SOL     ow 3737   2.988   2.511   2.666  0.5079  0.0947  0.0359
  935SOL     hw 3738   3.029   2.436   2.622 -2.1346 -1.5933  0.2432
  935SOL     hw 3739   2.896   2.486   2.676  0.2019  1.9441  3.2174
  935SOL     vw 3740   2.981   2.498   2.662  0.1187  0.1161  0.4830
  936SOL     ow 3741   5.034   3.401   7.269  0.1472 -0.1673 -0.2366
  936SOL     hw 3742   5.071   3.487   7.292 -0.2807 -0.1961  0.6098
  936SOL     hw 3743   5.109   3.350   7.238  0.6107  0.1683  0.3112
  936SOL     vw 3744   5.049   3.405   7.268  0.1516 -0.1267 -0.0527
  937SOL     ow 3745   0.752   4.702   5.446 -0.0323 -0.1961  0.1362
  937SOL     hw 3746   0.733   4.750   5.366  2.0136  1.4181  0.5115
  937SOL     hw 3747   0.701   4.746   5.513 -0.1782 -0.2278  0.0454
  937SOL     vw 3748   0.743   4.714   5.444  0.2184  0.0129  0.1738
  938SOL     ow 3749   1.178   3.838   2.026 -0.2044  0.3010 -0.3878
  938SOL     hw 3750   1.122   3.766   2.057 -0.4938  0.4590 -0.5428
  938SOL     hw 3751   1.265   3.798   2.018  0.1187  0.4985  1.6089
  938SOL     vw 3752   1.182   3.823   2.029 -0.1999  0.3479 -0.1451
  939SOL     ow 3753   0.884   0.606   2.090  0.3564 -0.3596  0.4346
  939SOL     hw 3754   0.820   0.551   2.136 -0.5242 -0.9358 -1.3550
  939SOL     hw 3755   0.967   0.588   2.132 -0.5629  0.0798  2.5636
  939SOL     vw 3756   0.886   0.596   2.101  0.1189 -0.3777  0.4793
  940SOL     ow 3757   2.839   2.636   6.338  0.0095  0.5184  0.3938
  940SOL     hw 3758   2.923   2.605   6.371 -0.4893  0.2059  1.4059
  940SOL     hw 3759   2.774   2.584   6.385 -0.7677  1.1580  0.0511
  940SOL     vw 3760   2.842   2.626   6.349 -0.1587  0.5616  0.4823
  941SOL     ow 3761   0.408   7.154   3.594  0.3419 -0.6895 -0.3921
  941SOL     hw 3762   0.345   7.124   3.528  0.8653 -0.6150 -0.9357
  941SOL     hw 3763   0.356   7.163   3.674 -0.7757  1.1993 -1.2579
  941SOL     vw 3764   0.393   7.151   3.596  0.2635 -0.4301 -0.5782
  942SOL     ow 3765   1.811   2.998   6.749  0.1782  0.3874  0.0754
  942SOL     hw 3766   1.819   3.065   6.682  0.1845 -1.1125 -1.4982
  942SOL     hw 3767   1.890   2.944   6.739  0.4293  0.4172  1.6411
  942SOL     vw 3768   1.823   2.999   6.739  0.2122  0.1935  0.0744
  943SOL     ow 3769   4.731   2.592   6.743  0.0636  0.9767  0.1465
  943SOL     hw 3770   4.739   2.524   6.676 -0.4215  1.3770 -0.3347
  943SOL     hw 3771   4.818   2.598   6.781 -0.4191 -1.5980  1.9099
  943SOL     vw 3772   4.743   2.584   6.739 -0.0641  0.6899  0.3157
  944SOL     ow 3773   0.004   1.934   3.140  0.6729 -0.3380  0.2792
  944SOL     hw 3774   0.064   2.008   3.154 -0.0606  0.9174 -2.6002
  944SOL     hw 3775  -0.082   1.968   3.165  0.4953 -0.5837 -0.0033
  944SOL     vw 3776   0.001   1.949   3.145  0.5527 -0.2048 -0.1379
  945SOL     ow 3777   0.464   1.556   3.721  0.0163  0.4321 -0.7456
  945SOL     hw 3778   0.513   1.619   3.669  1.3783  0.2996  0.3063
  945SOL     hw 3779   0.405   1.514   3.659 -0.5758  2.3766 -1.5721
  945SOL     vw 3780   0.463   1.559   3.706  0.1179  0.6711 -0.7160
  946SOL     ow 3781   4.192   5.362   6.672  0.1593 -0.1388  0.2612
  946SOL     hw 3782   4.108   5.402   6.647  0.3958  0.2872  0.1269
  946SOL     hw 3783   4.168   5.278   6.710 -0.2848 -0.3805 -0.5146
  946SOL     vw 3784   4.178   5.356   6.673  0.1318 -0.1144  0.1407
  947SOL     ow 3785   2.877   6.963   5.683  0.1731  0.1440 -0.4403
  947SOL     hw 3786   2.857   6.991   5.773  3.7640  3.0245 -0.2903
  947SOL     hw 3787   2.907   6.873   5.692 -1.7593 -0.4379  0.8082
  947SOL     vw 3788   2.878   6.955   5.696  0.3918  0.4473 -0.2556
  948SOL     ow 3789   5.307   5.178   7.537 -0.1298 -0.2103  0.1388
  948SOL     hw 3790   5.284   5.233   7.463 -3.1325  3.1071  3.1094
  948SOL     hw 3791   5.399   5.196   7.553 -0.0182  0.7965 -1.4249
  948SOL     vw 3792   5.316   5.188   7.530 -0.5112  0.3603  0.3242
  949SOL     ow 3793   5.626   6.993   4.998  0.1736  0.1957  0.1406
  949SOL     hw 3794   5.531   6.993   5.010 -0.2041 -1.1272 -2.2247
  949SOL     hw 3795   5.644   7.071   4.946  0.3656  0.3998  0.5144
  949SOL     vw 3796   5.616   7.003   4.993  0.1490  0.0484 -0.1221
  950SOL     ow 3797   4.979   0.233   6.633  0.4148  0.1310  0.7455
  950SOL     hw 3798   5.032   0.185   6.697  1.1373 -3.3882 -2.1568
  950SOL     hw 3799   5.043   0.265   6.569 -0.5090  1.2002  0.3258
  950SOL     vw 3800   4.995   0.231   6.633  0.3884 -0.1923  0.3071
  951SOL     ow 3801   1.014   3.214   4.518 -0.4769  0.0814 -0.4554
  951SOL     hw 3802   0.957   3.159   4.571  0.2069 -1.0226 -0.8113
  951SOL     hw 3803   0.964   3.230   4.438 -0.0471 -1.4839 -1.0712
  951SOL     vw 3804   1.000   3.209   4.514 -0.3300 -0.2708 -0.5836
  952SOL     ow 3805   1.751   6.546   0.115 -0.2803 -0.0439  0.3833
  952SOL     hw 3806   1.816   6.596   0.164  0.7205  0.1826 -1.0909
  952SOL     hw 3807   1.669   6.592   0.128 -0.1216 -0.1842  2.0795
  952SOL     vw 3808   1.749   6.559   0.123 -0.1273 -0.0329  0.4126
  953SOL     ow 3809   6.304   1.531   0.660 -0.3582 -0.0219  0.5374
  953SOL     hw 3810   6.297   1.443   0.697  1.8630 -0.6668 -0.3686
  953SOL     hw 3811   6.260   1.525   0.575 -1.5212  0.1808  1.1191
  953SOL     vw 3812   6.297   1.518   0.654 -0.2189 -0.0802  0.4947
  954SOL     ow 3813   1.247   1.756   4.826  0.8731 -0.4809 -0.1806
  954SOL     hw 3814   1.249   1.803   4.910  0.2372 -0.5611 -0.1179
  954SOL     hw 3815   1.311   1.685   4.837  0.9936 -0.3261  0.1384
  954SOL     vw 3816   1.256   1.753   4.839  0.8051 -0.4711 -0.1302
  955SOL     ow 3817   0.114   0.936   0.387  0.3483  0.8375 -0.0906
  955SOL     hw 3818   0.161   0.887   0.320 -0.8112  1.1862 -1.2034
  955SOL     hw 3819   0.177   1.002   0.418  0.9620  0.5296 -0.6734
  955SOL     vw 3820   0.129   0.938   0.383  0.2763  0.8429 -0.3143
  956SOL     ow 3821   3.113   2.949   3.254 -0.1552 -0.9724  0.3366
  956SOL     hw 3822   3.100   2.974   3.346 -0.1549 -1.5356  0.4952
  956SOL     hw 3823   3.032   2.976   3.210  0.6606  1.1787  0.0795
  956SOL     vw 3824   3.101   2.956   3.260 -0.0476 -0.7629  0.3237
  957SOL     ow 3825   1.274   5.207   6.376  0.2477  0.3443  0.4733
  957SOL     hw 3826   1.220   5.131   6.398 -4.1936  2.4687 -1.7129
  957SOL     hw 3827   1.269   5.263   6.453 -1.1382  0.6652  0.1835
  957SOL     vw 3828   1.266   5.204   6.389 -0.5211  0.6669  0.1466
  958SOL     ow 3829   0.077   5.788   3.374  0.4330 -0.1627 -0.5579
  958SOL     hw 3830   0.133   5.861   3.399 -1.2334  1.0399 -0.1058
  958SOL     hw 3831  -0.010   5.814   3.405 -0.2808 -2.1716 -0.7619
  958SOL     vw 3832   0.073   5.801   3.381  0.1189 -0.2689 -0.5251
  959SOL     ow 3833   0.678   4.545   1.731 -0.5179 -1.0125 -0.1636
  959SOL     hw 3834   0.609   4.487   1.696  0.3350 -1.4653 -1.1456
  959SOL     hw 3835   0.738   4.558   1.657  0.6905 -0.9838  0.8023
  959SOL     vw 3836   0.677   4.539   1.716 -0.2459 -1.0684 -0.1657
  960SOL     ow 3837   1.192   1.986   6.892 -0.1466  0.0695 -0.3080
  960SOL     hw 3838   1.255   1.997   6.963 -2.8018  1.2787  2.0373
  960SOL     hw 3839   1.131   1.920   6.924 -1.4100  0.6121 -1.4893
  960SOL     vw 3840   1.192   1.978   6.905 -0.6636  0.3006 -0.1545
  961SOL     ow 3841   4.528   7.590   6.711 -0.3682 -0.1065 -0.2969
  961SOL     hw 3842   4.439   7.587   6.675 -0.7923  2.5760  0.2954
  961SOL     hw 3843   4.517   7.566   6.803 -0.6487  0.9402 -0.0395
  961SOL     vw 3844   4.515   7.586   6.718 -0.4611  0.3853 -0.1848
  962SOL     ow 3845   0.748   4.520   6.967 -0.4874  0.0884 -0.2090
  962SOL     hw 3846   0.762   4.610   6.998  0.2624  0.1980 -0.8282
  962SOL     hw 3847   0.657   4.502   6.986 -0.8497  1.2501 -0.7352
  962SOL     vw 3848   0.738   4.530   6.974 -0.4363  0.2563 -0.3603
  963SOL     ow 3849   2.157   5.186   6.162  0.3002  0.3527 -0.3755
  963SOL     hw 3850   2.089   5.253   6.154 -0.7786 -0.6937 -0.1154
  963SOL     hw 3851   2.212   5.217   6.234 -1.5132 -0.1328  1.3147
  963SOL     vw 3852   2.155   5.199   6.170 -0.0815  0.1507 -0.1183
  964SOL     ow 3853   4.809   6.216   5.382 -0.2972 -0.1370 -0.1652
  964SOL     hw 3854   4.800   6.189   5.474  0.4786 -0.9861 -0.3226
  964SOL     hw 3855   4.896   6.255   5.376  0.4451 -1.8042 -0.9169
  964SOL     vw 3856   4.819   6.217   5.393 -0.0968 -0.4690 -0.2851
  965SOL     ow 3857   2.431   2.266   6.758 -0.0950  0.1982 -0.4237
  965SOL     hw 3858   2.435   2.356   6.789  0.5380 -0.3510  1.2075
  965SOL     hw 3859   2.506   2.258   6.699  0.3300  0.5285  0.0651
  965SOL     vw 3860   2.442   2.277   6.754  0.0447  0.1693 -0.1440
  966SOL     ow 3861   4.324   1.917   6.628 -0.1164 -0.5086  0.5512
  966SOL     hw 3862   4.412   1.887   6.647  0.9020  1.9300  0.0012
  966SOL     hw 3863   4.270   1.879   6.698  1.5083 -1.2328  1.4623
  966SOL     vw 3864   4.328   1.908   6.639  0.2322 -0.2824  0.5989
  967SOL     ow 3865   1.144   5.872   0.469 -0.2707  0.2571  0.1587
  967SOL     hw 3866   1.136   5.901   0.560 -2.1128  0.5436 -0.0514
  967SOL     hw 3867   1.074   5.919   0.423  2.4529  2.5126 -2.0655
  967SOL     vw 3868   1.134   5.882   0.475 -0.1543  0.5925 -0.1625
  968SOL     ow 3869   0.318   1.410   3.500 -0.3709 -0.4703 -0.4322
  968SOL     hw 3870   0.232   1.368   3.511 -0.9399  0.4802 -1.1493
  968SOL     hw 3871   0.353   1.370   3.420 -0.6348 -0.0719 -0.7544
  968SOL     vw 3872   0.311   1.399   3.491 -0.4808 -0.2924 -0.5693
  969SOL     ow 3873   1.511   2.848   6.477 -0.1603 -0.1248  0.5597
  969SOL     hw 3874   1.420   2.841   6.450 -0.1891  0.9851  0.3274
  969SOL     hw 3875   1.558   2.785   6.421 -0.2447  1.9759 -2.0364
  969SOL     vw 3876   1.505   2.838   6.466 -0.1752  0.2987  0.1864
  970SOL     ow 3877   4.312   1.163   7.424 -0.6879 -0.0745 -0.1601
  970SOL     hw 3878   4.220   1.148   7.399 -1.1158  1.9745 -0.0373
  970SOL     hw 3879   4.320   1.259   7.427  1.3402 -0.2189  0.3137
  970SOL     vw 3880   4.301   1.174   7.421 -0.4771  0.1768 -0.0815
  971SOL     ow 3881   1.380   5.587   3.321  0.5326  0.4274  1.0098
  971SOL     hw 3882   1.396   5.674   3.358  0.3423  0.6595  0.5565
  971SOL     hw 3883   1.380   5.528   3.396 -0.6378  0.9929  1.4799
  971SOL     vw 3884   1.382   5.591   3.336  0.3531  0.5329  1.0120
  972SOL     ow 3885   1.478   0.331   5.799  0.6216  0.9122 -0.6214
  972SOL     hw 3886   1.428   0.255   5.828  0.9941  0.8711 -0.0683
  972SOL     hw 3887   1.453   0.343   5.708 -2.3022  2.3886  0.2482
  972SOL     vw 3888   1.468   0.323   5.791  0.2850  1.1016 -0.4339
  973SOL     ow 3889   0.036   0.776   4.094 -0.1605 -0.1354  0.0644
  973SOL     hw 3890   0.042   0.858   4.045  1.6989  1.3394  2.5267
  973SOL     hw 3891  -0.023   0.797   4.167 -0.7085 -1.4166  0.0058
  973SOL     vw 3892   0.029   0.790   4.097  0.0125 -0.1099  0.3817
  974SOL     ow 3893   5.234   6.589   1.750 -0.1790 -1.0906 -1.0760
  974SOL     hw 3894   5.142   6.581   1.773  0.2456 -0.5158  1.0337
  974SOL     hw 3895   5.235   6.647   1.674 -1.4943  0.0033 -0.3034
  974SOL     vw 3896   5.222   6.596   1.743 -0.2964 -0.8707 -0.6957
  975SOL     ow 3897   4.762   1.318   6.134 -0.2904  0.0034 -0.0737
  975SOL     hw 3898   4.782   1.224   6.141 -0.6825 -0.3018 -2.1317
  975SOL     hw 3899   4.830   1.361   6.186  2.4208 -1.2613 -2.2495
  975SOL     vw 3900   4.774   1.311   6.142  0.0153 -0.2037 -0.6325
  976SOL     ow 3901   1.605   1.104   2.840 -0.7383  0.6404  0.4110
  976SOL     hw 3902   1.570   1.117   2.752 -0.6735 -2.6257 -0.2396
  976SOL     hw 3903   1.542   1.046   2.883  0.5716 -0.0081  1.5409
  976SOL     vw 3904   1.592   1.098   2.834 -0.5569  0.1239  0.4743
  977SOL     ow 3905   2.187   3.122   5.296 -0.0170  0.5945 -0.2859
  977SOL     hw 3906   2.277   3.092   5.284 -0.3869 -1.4672  1.5234
  977SOL     hw 3907   2.191   3.216   5.280  2.0200  0.2570 -2.2739
  977SOL     vw 3908   2.200   3.131   5.293  0.2031  0.2779 -0.3095
  978SOL     ow 3909   4.787   5.863   4.378 -0.0317  0.6715  1.3573
  978SOL     hw 3910   4.814   5.949   4.346 -2.0407  1.0313  0.5156
  978SOL     hw 3911   4.761   5.879   4.469  0.8848  0.6443  1.6422
  978SOL     vw 3912   4.787   5.876   4.386 -0.1760  0.7155  1.2839
  979SOL     ow 3913   7.115   6.261   5.716  0.1327 -0.1194 -0.3521
  979SOL     hw 3914   7.099   6.350   5.684  0.2719  0.9665  2.3959
  979SOL     hw 3915   7.199   6.267   5.762  0.5975 -1.9341 -0.8972
  979SOL     vw 3916   7.124   6.274   5.718  0.2124 -0.2158 -0.0615
  980SOL     ow 3917   4.095   3.886   3.519 -0.2752  0.4341  0.4000
  980SOL     hw 3918   4.051   3.818   3.570  1.7502 -2.0439 -0.9408
  980SOL     hw 3919   4.053   3.967   3.546 -1.1904 -1.0385  3.9060
  980SOL     vw 3920   4.084   3.888   3.529 -0.1290 -0.0871  0.6857
  981SOL     ow 3921   4.816   6.522   6.507  0.2005  0.1140  0.4309
  981SOL     hw 3922   4.867   6.585   6.558 -1.0632  1.7391 -0.2213
  981SOL     hw 3923   4.771   6.575   6.442 -0.3172 -1.5881 -0.6566
  981SOL     vw 3924   4.817   6.537   6.505 -0.0343  0.1040  0.2012
  982SOL     ow 3925   5.676   5.110   4.779 -0.5434  0.1536  0.1951
  982SOL     hw 3926   5.663   5.177   4.711  1.6147 -0.5923 -1.0452
  982SOL     hw 3927   5.687   5.159   4.860 -0.2267  1.2338 -0.4895
  982SOL     vw 3928   5.676   5.125   4.781 -0.2170  0.1976 -0.0589
  983SOL     ow 3929   6.023   1.983   2.080  0.0273  0.2372 -0.5774
  983SOL     hw 3930   6.013   1.899   2.126  2.9194  0.8686  1.4537
  983SOL     hw 3931   6.097   1.969   2.021  0.0588  1.1854 -0.7703
  983SOL     vw 3932   6.031   1.970   2.078  0.4129  0.4455 -0.3349
  984SOL     ow 3933   6.407   1.867   1.745 -0.0139 -0.0393 -1.1637
  984SOL     hw 3934   6.383   1.936   1.684  1.6923 -1.0375 -3.0972
  984SOL     hw 3935   6.382   1.786   1.701  1.6337 -0.8077 -0.7596
  984SOL     vw 3936   6.401   1.866   1.731  0.4287 -0.2723 -1.3655
  985SOL     ow 3937   1.411   5.789   4.169  0.0294 -0.6198 -0.3204
  985SOL     hw 3938   1.448   5.780   4.081 -0.9525 -1.8761 -0.6460
  985SOL     hw 3939   1.319   5.814   4.153  0.2687  0.8477  0.4123
  985SOL     vw 3940   1.404   5.791   4.155 -0.0686 -0.5920 -0.2666
  986SOL     ow 3941   3.920   3.871   7.274 -0.3689  0.2507 -0.0156
  986SOL     hw 3942   3.936   3.908   7.361 -0.3984  0.5929 -0.1547
  986SOL     hw 3943   3.895   3.946   7.220  0.0420  0.0996 -0.4193
  986SOL     vw 3944   3.919   3.886   7.278 -0.3186  0.2761 -0.0873
  987SOL     ow 3945   5.746   0.178   5.239 -0.4964 -0.0708  0.1492
  987SOL     hw 3946   5.772   0.170   5.147  1.2122  1.8720  0.3886
  987SOL     hw 3947   5.650   0.182   5.236 -0.4484  2.7224 -1.9234
  987SOL     vw 3948   5.737   0.178   5.227 -0.2646  0.5541 -0.0927
  988SOL     ow 3949   3.102   4.873   3.909 -0.0751 -0.2177 -0.8310
  988SOL     hw 3950   3.055   4.836   3.983  1.1317  0.7995  0.5114
  988SOL     hw 3951   3.081   4.967   3.912  2.2312  0.3211  0.0185
  988SOL     vw 3952   3.093   4.881   3.919  0.3884 -0.0124 -0.5418
  989SOL     ow 3953   6.650   5.330   6.291  0.0791 -0.0543  0.3248
  989SOL     hw 3954   6.573   5.387   6.289 -0.4398 -0.7562 -1.7906
  989SOL     hw 3955   6.645   5.280   6.210  2.6592 -0.2765  0.2259
  989SOL     vw 3956   6.639   5.331   6.280  0.3510 -0.1762  0.0324
  990SOL     ow 3957   5.607   1.075   5.422 -0.4082  0.7316 -0.1795
  990SOL     hw 3958   5.576   1.041   5.338 -0.6871 -2.5072  1.1073
  990SOL     hw 3959   5.702   1.068   5.416 -0.4690 -0.7002  0.1766
  990SOL     vw 3960   5.615   1.069   5.410 -0.4530  0.1154  0.0372
  991SOL     ow 3961   2.335   1.261   5.057 -0.0936 -0.9504 -0.1456
  991SOL     hw 3962   2.292   1.262   5.142 -0.7886 -0.7827 -0.4897
  991SOL     hw 3963   2.319   1.348   5.020 -0.4205 -1.2454 -0.7338
  991SOL     vw 3964   2.327   1.272   5.063 -0.2284 -0.9672 -0.2685
  992SOL     ow 3965   2.697   2.764   2.471 -0.2375  0.0723 -0.8730
  992SOL     hw 3966   2.609   2.734   2.448  0.1905 -0.4431 -1.9118
  992SOL     hw 3967   2.694   2.859   2.457 -1.5318  0.6078  2.2140
  992SOL     vw 3968   2.685   2.773   2.466 -0.3518  0.0749 -0.6027
  993SOL     ow 3969   7.071   7.217   6.731 -0.0426 -0.2090 -0.1758
  993SOL     hw 3970   7.126   7.263   6.795 -1.1810 -0.5496  1.1158
  993SOL     hw 3971   6.988   7.265   6.733 -1.1760 -2.0728  0.9986
  993SOL     vw 3972   7.067   7.229   6.740 -0.3424 -0.4997  0.1495
  994SOL     ow 3973   3.378   5.730   7.082 -0.7503  0.7092 -0.3522
  994SOL     hw 3974   3.318   5.788   7.130 -0.2043  0.9692  0.0430
  994SOL     hw 3975   3.440   5.790   7.041 -0.5131  0.4278 -0.4058
  994SOL     vw 3976   3.379   5.746   7.083 -0.6469  0.7064 -0.3071
  995SOL     ow 3977   0.717   6.471   3.758 -0.1489 -0.5468 -0.3922
  995SOL     hw 3978   0.810   6.462   3.737  0.0842  0.4637  0.1544
  995SOL     hw 3979   0.691   6.553   3.716  0.0505  0.9419  2.1603
  995SOL     vw 3980   0.726   6.481   3.750 -0.0918 -0.2170  0.0167
  996SOL     ow 3981   6.726   1.702   2.166  0.4876 -0.3912 -0.5122
  996SOL     hw 3982   6.664   1.632   2.188 -0.1840  0.3924  0.1560
  996SOL     hw 3983   6.742   1.746   2.250 -1.4310  2.1372 -1.3588
  996SOL     vw 3984   6.720   1.699   2.180  0.1457  0.0458 -0.5358
  997SOL     ow 3985   1.427   1.465   2.128  0.0122 -0.2000  0.0682
  997SOL     hw 3986   1.347   1.518   2.141 -0.8947 -1.3821 -0.5060
  997SOL     hw 3987   1.483   1.489   2.201 -1.5592 -0.5446  1.4598
  997SOL     vw 3988   1.424   1.475   2.139 -0.3148 -0.4014  0.1761
  998SOL     ow 3989   1.832   1.022   2.733  0.4010 -0.3029  0.1697
  998SOL     hw 3990   1.752   1.036   2.785 -0.2882  1.3253 -1.2229
  998SOL     hw 3991   1.897   1.078   2.776  0.6799 -1.2219  0.9878
  998SOL     vw 3992   1.830   1.031   2.746  0.3469 -0.2093  0.0939
  999SOL     ow 3993   5.166   3.842   2.672  0.5407  0.0903  0.1068
  999SOL     hw 3994   5.125   3.767   2.715  2.4559  0.0695  2.0263
  999SOL     hw 3995   5.127   3.918   2.714  1.0052  0.0923  0.5507
  999SOL     vw 3996   5.156   3.842   2.683  0.8550  0.0877  0.4187
 1000SOL     ow 3997   5.022   1.147   6.663  0.0584 -0.1164  0.8194
 1000SOL     hw 3998   5.029   1.076   6.600  2.8316  0.3812  0.4353
 1000SOL     hw 3999   4.950   1.202   6.631 -0.1965 -1.1882 -0.4985
 1000SOL     vw 4000   5.014   1.145   6.650  0.3908 -0.1921  0.5951
 1001SOL     ow 4001   1.593   6.195   3.071 -0.3698 -0.4110 -0.4146
 1001SOL     hw 4002   1.528   6.261   3.050 -0.5138 -0.5786 -0.5025
 1001SOL     hw 4003   1.651   6.237   3.134 -1.3756 -0.7103  0.7529
 1001SOL     vw 4004   1.592   6.209   3.076 -0.5215 -0.4728 -0.2720
 1002SOL     ow 4005   5.797   3.691   6.020  0.2799 -0.0361 -0.4722
 1002SOL     hw 4006   5.764   3.606   5.988 -1.4225 -0.6571  2.4895
 1002SOL     hw 4007   5.874   3.669   6.072 -0.7069 -0.0030  1.0958
 1002SOL     vw 4008   5.803   3.677   6.023 -0.0751 -0.1137  0.1254
 1003SOL     ow 4009   0.394   7.236   2.938 -0.2429 -0.1071  0.6133
 1003SOL     hw 4010   0.370   7.146   2.917 -0.7505 -0.1392  1.3071
 1003SOL     hw 4011   0.453   7.228   3.014  2.0841 -0.0415 -1.0667
 1003SOL     vw 4012   0.399   7.224   2.945 -0.0028 -0.1028  0.4832
 1004SOL     ow 4013   0.521   2.960   6.014  0.5408  0.0323  0.1613
 1004SOL     hw 4014   0.459   3.001   6.075  0.9493  1.1439 -0.1487
 1004SOL     hw 4015   0.503   2.866   6.021 -0.4753  0.2636  0.8328
 1004SOL     vw 4016   0.511   2.953   6.023  0.4607  0.2095  0.2089
 1005SOL     ow 4017   2.286   3.803   0.854 -0.1020 -0.4332 -0.6374
 1005SOL     hw 4018   2.241   3.835   0.932  0.0296  1.7431 -1.3786
 1005SOL     hw 4019   2.375   3.836   0.862  0.6138 -2.2552 -0.5812
 1005SOL     vw 4020   2.292   3.812   0.865  0.0098 -0.3864 -0.7278
 1006SOL     ow 4021   4.553   1.407   5.960  0.5511  0.8192  0.1563
 1006SOL     hw 4022   4.625   1.382   6.018  1.3140  0.8814 -0.7397
 1006SOL     hw 4023   4.497   1.330   5.958 -1.1683  1.8152  3.3664
 1006SOL     vw 4024   4.555   1.393   5.967  0.4251  0.9589  0.4613
 1007SOL     ow 4025   0.356   2.195   4.440 -0.4283  0.1707  0.1343
 1007SOL     hw 4026   0.294   2.135   4.400  1.3839 -1.9964  0.3814
 1007SOL     hw 4027   0.401   2.237   4.367  0.5175 -1.2372 -0.1268
 1007SOL     vw 4028   0.353   2.193   4.425 -0.0644 -0.3009  0.1326
 1008SOL     ow 4029   3.463   7.405   0.775  0.5874 -0.4352 -0.1035
 1008SOL     hw 4030   3.515   7.351   0.834  0.7801 -0.1629 -0.0224
 1008SOL     hw 4031   3.503   7.393   0.689 -0.1035 -1.3577 -0.3082
 1008SOL     vw 4032   3.475   7.397   0.772  0.5215 -0.5205 -0.1198
 1009SOL     ow 4033   6.032   4.930   4.347  0.3087  0.0934 -0.5854
 1009SOL     hw 4034   6.088   4.905   4.420 -0.5999  0.0668  0.1176
 1009SOL     hw 4035   5.992   4.848   4.319  0.2792  0.1802 -0.7964
 1009SOL     vw 4036   6.034   4.916   4.353  0.1850  0.1013 -0.5205
 1010SOL     ow 4037   1.610   4.396   3.931 -0.1734 -0.3755 -0.7423
 1010SOL     hw 4038   1.662   4.434   4.001 -0.1932 -0.5186 -0.6479
 1010SOL     hw 4039   1.519   4.419   3.952 -0.0267  1.2700 -1.7790
 1010SOL     vw 4040   1.605   4.404   3.943 -0.1566 -0.1776 -0.8665
 1011SOL     ow 4041   6.865   3.456   1.534 -0.0875  0.2310 -0.4452
 1011SOL     hw 4042   6.923   3.472   1.459  2.5443 -0.0046  1.3910
 1011SOL     hw 4043   6.909   3.387   1.584 -1.0604  1.2481  1.9713
 1011SOL     vw 4044   6.879   3.449   1.531  0.1314  0.3340  0.1159
 1012SOL     ow 4045   0.823   6.989   4.931  0.5083 -0.2536  0.3913
 1012SOL     hw 4046   0.798   7.025   5.016 -1.1202 -0.3709  0.0028
 1012SOL     hw 4047   0.833   7.066   4.874 -1.0057 -0.2797  0.0568
 1012SOL     vw 4048   0.821   7.004   4.935  0.0937 -0.2728  0.2959
 1013SOL     ow 4049   4.935   5.404   4.946  1.1321  0.3570  0.0809
 1013SOL     hw 4050   5.019   5.412   4.900  1.0933 -0.1278 -0.0798
 1013SOL     hw 4051   4.881   5.351   4.887  1.5011 -1.4239  1.2576
 1013SOL     vw 4052   4.939   5.398   4.932  1.1756  0.0582  0.2148
 1014SOL     ow 4053   2.226   2.217   3.600 -0.3825 -0.6513 -0.3429
 1014SOL     hw 4054   2.166   2.176   3.538  0.5084 -1.4946 -0.6626
 1014SOL     hw 4055   2.311   2.176   3.582  0.4724  1.0649 -0.4397
 1014SOL     vw 4056   2.230   2.206   3.589 -0.1521 -0.5361 -0.3978
 1015SOL     ow 4057   6.149   2.603   2.259  0.0154 -0.0752 -0.6512
 1015SOL     hw 4058   6.179   2.556   2.337 -0.5142 -0.8735 -0.9108
 1015SOL     hw 4059   6.094   2.673   2.293 -1.3098 -1.2144 -0.3110
 1015SOL     vw 4060   6.145   2.606   2.273 -0.2294 -0.3309 -0.6405
 1016SOL     ow 4061   1.833   4.959   4.005  0.4802 -0.6324 -0.4677
 1016SOL     hw 4062   1.920   4.996   3.993 -0.8975  2.7222 -1.1644
 1016SOL     hw 4063   1.822   4.956   4.100  0.5775  1.1180 -0.3666
 1016SOL     vw 4064   1.843   4.963   4.016  0.3113  0.0410 -0.5465
 1017SOL     ow 4065   5.565   4.806   3.931 -0.3492  0.1192  0.4870
 1017SOL     hw 4066   5.520   4.867   3.873  1.2870  2.1742  1.2337
 1017SOL     hw 4067   5.639   4.856   3.965  1.4078 -2.4764  0.7709
 1017SOL     vw 4068   5.569   4.821   3.928  0.0982  0.0477  0.6230
 1018SOL     ow 4069   4.393   4.433   7.097 -0.8962 -0.6447  0.0867
 1018SOL     hw 4070   4.357   4.502   7.042 -1.9591 -1.0009  0.3093
 1018SOL     hw 4071   4.319   4.401   7.147  0.0056 -0.4686  1.6020
 1018SOL     vw 4072   4.379   4.438   7.096 -0.9174 -0.6685  0.3159
 1019SOL     ow 4073   5.161   2.371   7.423 -0.8343 -0.4188  0.3025
 1019SOL     hw 4074   5.179   2.297   7.365 -0.7596 -0.4832  0.4079
 1019SOL     hw 4075   5.137   2.443   7.364 -2.8557 -1.0492  0.2609
 1019SOL     vw 4076   5.160   2.371   7.407 -1.0915 -0.5106  0.3109
 1020SOL     ow 4077   2.418   0.228   3.022  0.5586  0.0735 -0.9976
 1020SOL     hw 4078   2.325   0.246   3.035  0.5511 -1.3127  1.4676
 1020SOL     hw 4079   2.463   0.285   3.084  1.2759 -0.0665 -1.3777
 1020SOL     vw 4080   2.412   0.238   3.032  0.6522 -0.1278 -0.7224
 1021SOL     ow 4081   1.627   3.002   0.436 -0.2229  0.8908  0.6774
 1021SOL     hw 4082   1.606   2.918   0.395  1.3276  0.2084  1.2337
 1021SOL     hw 4083   1.544   3.051   0.432 -1.0744 -0.5247  0.0574
 1021SOL     vw 4084   1.613   2.997   0.430 -0.1307  0.6142  0.6690
 1022SOL     ow 4085   2.033   4.902   5.468 -1.2348 -0.6602  0.0521
 1022SOL     hw 4086   1.957   4.892   5.410 -1.7067 -0.0656  0.5520
 1022SOL     hw 4087   2.108   4.878   5.413 -1.6066  0.4813 -1.0010
 1022SOL     vw 4088   2.033   4.897   5.453 -1.3460 -0.4315 -0.0210
 1023SOL     ow 4089   1.060   2.612   2.409 -0.5580  0.2010 -0.6440
 1023SOL     hw 4090   1.079   2.685   2.350 -1.4351 -0.4962 -1.8302
 1023SOL     hw 4091   0.985   2.568   2.369 -1.1032 -0.3711  0.9366
 1023SOL     vw 4092   1.052   2.616   2.396 -0.7457  0.0336 -0.5918
 1024SOL     ow 4093   3.289   0.260   5.863  0.0811  0.1910 -0.6397
 1024SOL     hw 4094   3.372   0.265   5.911  0.0509 -0.5603 -0.4905
 1024SOL     hw 4095   3.313   0.227   5.777  0.2278  2.2237 -1.4246
 1024SOL     vw 4096   3.303   0.257   5.858  0.0963  0.3601 -0.7236
 1025SOL     ow 4097   4.207   4.250   0.144  0.1448 -0.1441 -0.5778
 1025SOL     hw 4098   4.155   4.330   0.158 -0.7790 -0.3136 -2.5898
 1025SOL     hw 4099   4.143   4.179   0.152  0.8395 -0.6535  0.5665
 1025SOL     vw 4100   4.191   4.251   0.147  0.1144 -0.2337 -0.6923
 1026SOL     ow 4101   0.919   2.831   5.872 -0.0767  0.5926 -0.3208
 1026SOL     hw 4102   0.899   2.800   5.784  1.0572 -2.9634  0.5118
 1026SOL     hw 4103   1.012   2.854   5.869  0.0888  0.0090  0.0001
 1026SOL     vw 4104   0.929   2.830   5.860  0.0947  0.0464 -0.1688
 1027SOL     ow 4105   4.351   6.640   1.772  0.7179 -0.4844  0.4000
 1027SOL     hw 4106   4.349   6.641   1.677 -0.0020  0.4714  0.4123
 1027SOL     hw 4107   4.428   6.692   1.795  2.0703 -2.3756  0.3438
 1027SOL     vw 4108   4.361   6.647   1.763  0.8011 -0.6075  0.3942
 1028SOL     ow 4109   3.415   1.390   2.985 -0.0460 -0.1418  0.2150
 1028SOL     hw 4110   3.415   1.480   2.951  1.5428  0.7133  2.2309
 1028SOL     hw 4111   3.499   1.383   3.031 -0.7742 -2.1941  1.3185
 1028SOL     vw 4112   3.426   1.401   2.986  0.0676 -0.2998  0.6264
 1029SOL     ow 4113   5.604   5.957   5.622  0.0225 -0.3798 -0.1610
 1029SOL     hw 4114   5.684   5.917   5.658 -1.0987 -3.0462 -0.4166
 1029SOL     hw 4115   5.536   5.936   5.686 -0.5533  1.8371  0.0316
 1029SOL     vw 4116   5.606   5.949   5.635 -0.2015 -0.4392 -0.1693
 1030SOL     ow 4117   3.952   3.019   6.221  0.0137 -0.2242 -0.6058
 1030SOL     hw 4118   4.027   3.074   6.202  1.4690 -1.8617  0.0965
 1030SOL     hw 4119   3.954   2.951   6.154 -1.5062  0.3051 -1.2241
 1030SOL     vw 4120   3.962   3.017   6.210  0.0052 -0.3704 -0.5944
 1031SOL     ow 4121   2.696   0.227   0.999  0.9336 -0.1449 -0.1039
 1031SOL     hw 4122   2.651   0.200   1.079  2.9254 -1.9651  0.4923
 1031SOL     hw 4123   2.789   0.213   1.017  1.8215  3.2457 -1.3480
 1031SOL     vw 4124   2.702   0.221   1.012  1.3134  0.0623 -0.1894
 1032SOL     ow 4125   1.522   3.686   0.621 -0.4266 -0.4544  0.4224
 1032SOL     hw 4126   1.597   3.681   0.561 -0.7529 -2.7852  0.0956
 1032SOL     hw 4127   1.553   3.644   0.702 -1.2913 -1.3472  0.3202
 1032SOL     vw 4128   1.536   3.680   0.624 -0.5838 -0.8798  0.3659
 1033SOL     ow 4129   2.060   3.772   6.110 -0.0951 -0.0478  0.2252
 1033SOL     hw 4130   2.056   3.828   6.032  1.5313 -1.4645 -0.9552
 1033SOL     hw 4131   2.076   3.833   6.182  1.8219  1.0299 -1.0374
 1033SOL     vw 4132   2.061   3.788   6.109  0.3724 -0.0925 -0.0970
 1034SOL     ow 4133   4.584   3.675   3.827  0.4484  0.3073  0.0514
 1034SOL     hw 4134   4.621   3.733   3.894  1.2734  0.3045 -0.3847
 1034SOL     hw 4135   4.647   3.603   3.820  0.9396  0.8359 -1.4627
 1034SOL     vw 4136   4.597   3.673   3.835  0.6223  0.3766 -0.2059
 1035SOL     ow 4137   7.103   6.178   5.181  0.2666  0.1249  0.1954
 1035SOL     hw 4138   7.032   6.165   5.118 -1.4403  0.3864  1.9483
 1035SOL     hw 4139   7.131   6.269   5.167 -0.1750  0.2176 -0.1097
 1035SOL     vw 4140   7.097   6.188   5.171 -0.0169  0.1717  0.3865
 1036SOL     ow 4141   1.712   5.618   4.825  0.6061 -0.6316  0.0248
 1036SOL     hw 4142   1.672   5.541   4.863 -0.4262 -0.5168 -0.7824
 1036SOL     hw 4143   1.721   5.597   4.732  1.3255 -0.1973 -0.0133
 1036SOL     vw 4144   1.708   5.605   4.818  0.5649 -0.5596 -0.0865
 1037SOL     ow 4145   4.286   1.148   1.608  0.2884 -0.0558 -0.2018
 1037SOL     hw 4146   4.349   1.080   1.632 -0.8481 -1.0869 -0.0295
 1037SOL     hw 4147   4.279   1.202   1.686  1.8661  0.8336 -0.6286
 1037SOL     vw 4148   4.293   1.146   1.622  0.3467 -0.0745 -0.2354
 1038SOL     ow 4149   0.353   0.034   0.199 -0.1724 -0.3883  0.1370
 1038SOL     hw 4150   0.401  -0.033   0.150  0.4096 -0.9045  1.3781
 1038SOL     hw 4151   0.261   0.017   0.180 -0.2194 -3.0499  2.2180
 1038SOL     vw 4152   0.348   0.023   0.190 -0.1018 -0.8076  0.5753
 1039SOL     ow 4153   1.232   4.162   5.356  0.4839  0.6128  0.0099
 1039SOL     hw 4154   1.247   4.087   5.299  0.9658  0.4842  0.3006
 1039SOL     hw 4155   1.265   4.237   5.307  2.3159  0.3171  0.7050
 1039SOL     vw 4156   1.238   4.162   5.342  0.7892  0.5567  0.1400
 1040SOL     ow 4157   2.802   3.466   4.997  0.5203 -0.0067  0.4295
 1040SOL     hw 4158   2.858   3.514   5.056  2.3140 -0.1044 -1.0958
 1040SOL     hw 4159   2.792   3.523   4.921 -2.2690  0.4032  0.9875
 1040SOL     vw 4160   2.808   3.480   4.994  0.3889  0.0346  0.3018
 1041SOL     ow 4161   3.443   4.108   0.900  0.5390 -0.1447  0.1912
 1041SOL     hw 4162   3.507   4.036   0.904  0.3811 -0.2919  0.1063
 1041SOL     hw 4163   3.490   4.183   0.935 -0.4029 -1.0517  3.8076
 1041SOL     vw 4164   3.458   4.108   0.905  0.3940 -0.2837  0.6571
 1042SOL     ow 4165   0.592   3.170   4.293  0.4072  0.0261 -0.0910
 1042SOL     hw 4166   0.598   3.092   4.238  1.6704  0.3965 -0.5087
 1042SOL     hw 4167   0.513   3.215   4.262  1.0539  0.1947 -1.5694
 1042SOL     vw 4168   0.582   3.166   4.282  0.6592  0.0973 -0.3409
 1043SOL     ow 4169   5.731   1.690   6.219 -0.5241 -0.5730 -0.2714
 1043SOL     hw 4170   5.650   1.740   6.233  0.1136  0.9291 -1.5989
 1043SOL     hw 4171   5.755   1.660   6.307 -1.3168  0.9041  0.4957
 1043SOL     vw 4172   5.723   1.693   6.233 -0.5443 -0.1799 -0.3455
 1044SOL     ow 4173   6.952   3.330   1.884 -0.4104 -0.3382  0.0806
 1044SOL     hw 4174   6.873   3.290   1.849 -0.0708 -0.8265 -0.1495
 1044SOL     hw 4175   6.981   3.271   1.953  0.6300 -1.0247 -0.9109
 1044SOL     vw 4176   6.946   3.317   1.888 -0.2282 -0.4932 -0.0805
 1045SOL     ow 4177   1.253   2.047   6.648  0.0452 -0.0330 -0.4344
 1045SOL     hw 4178   1.346   2.065   6.642  0.0676 -0.5578 -1.9548
 1045SOL     hw 4179   1.244   1.994   6.728  0.9250  0.6653  0.1409
 1045SOL     vw 4180   1.264   2.042   6.658  0.1642 -0.0103 -0.5591
 1046SOL     ow 4181   1.701   5.821   5.173  0.0581  0.1860  0.5623
 1046SOL     hw 4182   1.665   5.827   5.084 -1.1407  2.7450  1.1323
 1046SOL     hw 4183   1.793   5.799   5.160 -0.1042  0.4451 -1.3175
 1046SOL     vw 4184   1.708   5.819   5.159 -0.1215  0.5579  0.3896
 1047SOL     ow 4185   2.592   0.237   2.134  0.2074  0.0979 -0.5020
 1047SOL     hw 4186   2.632   0.156   2.168  0.2258 -0.3848 -1.6503
 1047SOL     hw 4187   2.540   0.270   2.207  0.3605 -0.8437  0.0490
 1047SOL     vw 4188   2.591   0.231   2.148  0.2301 -0.0900 -0.5808
 1048SOL     ow 4189   1.666   0.414   4.184  0.1286 -0.3561 -0.5013
 1048SOL     hw 4190   1.588   0.386   4.136  0.7404 -0.5030 -1.4355
 1048SOL     hw 4191   1.633   0.474   4.251 -0.7737 -0.3699 -0.9200
 1048SOL     vw 4192   1.651   0.418   4.187  0.0903 -0.3773 -0.6797
 1049SOL     ow 4193   2.900   4.393   2.245 -0.6844 -0.1965  0.4201
 1049SOL     hw 4194   2.926   4.385   2.337 -0.2840 -1.1030  0.2295
 1049SOL     hw 4195   2.826   4.333   2.236  0.0519 -1.0383 -0.1393
 1049SOL     vw 4196   2.893   4.384   2.256 -0.5344 -0.4270  0.3211
 1050SOL     ow 4197   0.902   5.663   1.135 -0.3562  0.1951 -0.3449
 1050SOL     hw 4198   0.997   5.669   1.128 -0.1108 -1.8866  0.4784
 1050SOL     hw 4199   0.869   5.732   1.077  1.6280  1.1932 -0.3820
 1050SOL     vw 4200   0.910   5.673   1.126 -0.0620  0.0525 -0.2411
 1051SOL     ow 4201   1.325   2.731   1.100  0.7735 -0.5979  0.0480
 1051SOL     hw 4202   1.400   2.689   1.059  1.1878 -0.7882  0.9687
 1051SOL     hw 4203   1.286   2.663   1.155  0.1343 -0.4001 -0.1591
 1051SOL     vw 4204   1.330   2.717   1.102  0.7437 -0.5969  0.1421
 1052SOL     ow 4205   3.822   0.020   5.286  0.1259  0.6293 -0.0922
 1052SOL     hw 4206   3.841   0.097   5.232 -0.3047 -0.2528 -1.5641
 1052SOL     hw 4207   3.745  -0.019   5.246  0.3073 -0.5481  0.6640
 1052SOL     vw 4208   3.814   0.025   5.274  0.0932  0.3576 -0.1864
 1053SOL     ow 4209   1.623   6.435   7.460  0.2516 -0.4711  0.8519
 1053SOL     hw 4210   1.611   6.473   7.373  0.3513 -0.7571  0.7115
 1053SOL     hw 4211   1.595   6.344   7.451  0.4799 -0.5639  1.0584
 1053SOL     vw 4212   1.618   6.428   7.447  0.2949 -0.5207  0.8605
 1054SOL     ow 4213   5.120   0.883   5.560 -0.3929 -0.3011  0.3976
 1054SOL     hw 4214   5.099   0.920   5.646  0.4140 -1.2046  1.0096
 1054SOL     hw 4215   5.215   0.867   5.563 -0.2032  0.4072 -0.9662
 1054SOL     vw 4216   5.130   0.885   5.572 -0.2618 -0.3269  0.2983
 1055SOL     ow 4217   0.168   1.048   3.412  0.0553  0.0204 -0.2040
 1055SOL     hw 4218   0.147   1.010   3.498  0.5717  1.1877  0.4697
 1055SOL     hw 4219   0.151   0.977   3.350 -0.6176 -0.7614  0.8276
 1055SOL     vw 4220   0.163   1.034   3.415  0.0346  0.0712  0.0210
 1056SOL     ow 4221   0.335   5.101   3.283  0.0471  0.0851 -0.4016
 1056SOL     hw 4222   0.396   5.170   3.257  2.1429 -2.0474 -1.4633
 1056SOL     hw 4223   0.324   5.047   3.205  0.6055 -2.2793  1.0416
 1056SOL     vw 4224   0.342   5.103   3.269  0.3973 -0.5081 -0.3512
 1057SOL     ow 4225   2.218   0.613   3.405  0.2027 -0.0949  0.0199
 1057SOL     hw 4226   2.175   0.529   3.424 -1.5561  0.4343 -1.3582
 1057SOL     hw 4227   2.158   0.658   3.346  2.1216  1.2419 -1.0284
 1057SOL     vw 4228   2.205   0.608   3.400  0.2238  0.1513 -0.3003
 1058SOL     ow 4229   3.329   2.255   6.006  0.0886 -0.6816 -1.0391
 1058SOL     hw 4230   3.336   2.264   6.101  0.2426 -1.3996 -0.9731
 1058SOL     hw 4231   3.250   2.303   5.983  0.0492 -0.5044 -0.5465
 1058SOL     vw 4232   3.320   2.262   6.016  0.1036 -0.7528 -0.9651
 1059SOL     ow 4233   5.311   7.102   6.495 -0.2679 -0.5225 -0.2296
 1059SOL     hw 4234   5.306   7.087   6.590  3.3394 -0.3570  0.1471
 1059SOL     hw 4235   5.315   7.014   6.458 -0.0521 -0.5840 -0.0629
 1059SOL     vw 4236   5.311   7.088   6.503  0.2365 -0.5090 -0.1576
 1060SOL     ow 4237   1.354   6.158   5.269  0.7167  0.4487 -0.4594
 1060SOL     hw 4238   1.317   6.245   5.254  3.2642  1.4541 -1.5138
 1060SOL     hw 4239   1.372   6.155   5.363  1.6787  1.5622 -0.5875
 1060SOL     vw 4240   1.351   6.169   5.279  1.1798  0.7284 -0.6156
 1061SOL     ow 4241   2.873   7.322   5.150  0.0756  1.0417 -0.0497
 1061SOL     hw 4242   2.871   7.354   5.240  1.1050  0.7602  0.0862
 1061SOL     hw 4243   2.802   7.369   5.106 -0.6265  0.9759  0.9712
 1061SOL     vw 4244   2.863   7.332   5.156  0.1187  0.9956  0.1030
 1062SOL     ow 4245   7.590   4.796   6.466 -0.3742  0.0520  0.3915
 1062SOL     hw 4246   7.523   4.840   6.414 -0.4267  0.5002  0.8270
 1062SOL     hw 4247   7.540   4.732   6.518 -0.2584 -0.7647 -0.4793
 1062SOL     vw 4248   7.574   4.793   6.466 -0.3660  0.0033  0.3340
 1063SOL     ow 4249   4.311   5.502   6.997 -0.0971 -0.7705 -0.2688
 1063SOL     hw 4250   4.312   5.436   7.066  1.7481 -1.2422 -0.6900
 1063SOL     hw 4251   4.339   5.455   6.918  0.3735  0.3123 -0.7714
 1063SOL     vw 4252   4.315   5.487   6.996  0.2081 -0.6897 -0.3905
 1064SOL     ow 4253   0.783   2.724   3.979  1.2217  0.1588 -0.4096
 1064SOL     hw 4254   0.853   2.671   3.939  2.1447  1.3077 -0.3810
 1064SOL     hw 4255   0.824   2.809   3.994  0.1800  0.4675  0.8257
 1064SOL     vw 4256   0.798   2.728   3.975  1.2060  0.3511 -0.2428
 1065SOL     ow 4257   6.466   5.506   0.214  0.1126 -0.5375 -0.0325
 1065SOL     hw 4258   6.387   5.536   0.259 -0.5952 -2.8974  0.4301
 1065SOL     hw 4259   6.525   5.582   0.215 -1.1331  0.4753  1.9682
 1065SOL     vw 4260   6.464   5.520   0.220 -0.1452 -0.7153  0.2925
 1066SOL     ow 4261   4.427   3.307   0.784 -0.5067 -0.1862 -0.4922
 1066SOL     hw 4262   4.373   3.240   0.741 -2.0592  1.9026 -1.9688
 1066SOL     hw 4263   4.377   3.330   0.863  0.0779 -0.7987  0.0689
 1066SOL     vw 4264   4.413   3.301   0.789 -0.6347  0.0086 -0.6130
 1067SOL     ow 4265   0.900   4.766   7.283 -0.3138  0.2428  0.4388
 1067SOL     hw 4266   0.897   4.791   7.191  0.8391  0.2821  0.3919
 1067SOL     hw 4267   0.921   4.672   7.282  1.9389  0.6683  0.6284
 1067SOL     vw 4268   0.903   4.757   7.271  0.1355  0.3042  0.4578
 1068SOL     ow 4269   2.425   5.030   6.212 -0.2099 -0.0699  0.1391
 1068SOL     hw 4270   2.465   4.967   6.272 -0.8364  0.8174  1.5443
 1068SOL     hw 4271   2.438   5.115   6.254 -2.4786  0.3714  0.0784
 1068SOL     vw 4272   2.432   5.033   6.226 -0.5919  0.1054  0.3166
 1069SOL     ow 4273   6.523   5.412   1.007 -0.3015 -0.3226  0.2555
 1069SOL     hw 4274   6.487   5.494   1.039  2.0852  0.6968  0.5734
 1069SOL     hw 4275   6.456   5.347   1.028 -1.5900  1.2920  1.4582
 1069SOL     vw 4276   6.510   5.414   1.014 -0.1566  0.0248  0.4562
 1070SOL     ow 4277   4.265   5.318   7.181  0.5488 -0.2463 -0.6686
 1070SOL     hw 4278   4.283   5.225   7.165  0.5106 -1.1459  3.4220
 1070SOL     hw 4279   4.171   5.327   7.165  0.5997 -0.8354 -1.3588
 1070SOL     vw 4280   4.255   5.307   7.177  0.5505 -0.4427 -0.2201
 1071SOL     ow 4281   7.421   1.065   2.411  0.1110 -0.4035 -0.1550
 1071SOL     hw 4282   7.458   1.070   2.499 -2.3015 -0.9911  0.9845
 1071SOL     hw 4283   7.388   1.153   2.393  0.6792 -0.2617 -0.5192
 1071SOL     vw 4284   7.422   1.077   2.420 -0.1323 -0.4624 -0.0528
 1072SOL     ow 4285   0.454   3.393   4.266 -0.0324 -0.6649 -0.1140
 1072SOL     hw 4286   0.443   3.458   4.196 -1.4958  1.2570  1.7680
 1072SOL     hw 4287   0.535   3.418   4.310  0.4493 -1.3683 -0.5762
 1072SOL     vw 4288   0.463   3.405   4.262 -0.1619 -0.5043  0.0737
 1073SOL     ow 4289   6.390   4.092   4.832 -0.1634  0.0451 -0.7596
 1073SOL     hw 4290   6.364   4.010   4.875 -1.6825  0.2717 -1.1914
 1073SOL     hw 4291   6.363   4.161   4.892  1.5761  0.2531 -0.1602
 1073SOL     vw 4292   6.383   4.090   4.845 -0.1347  0.1023 -0.7374
 1074SOL     ow 4293   1.872   5.114   4.341 -0.5157  0.0815  0.0478
 1074SOL     hw 4294   1.941   5.154   4.394 -1.5092  1.1664  0.5513
 1074SOL     hw 4295   1.911   5.033   4.308  1.1643  0.8980 -0.0668
 1074SOL     vw 4296   1.886   5.109   4.344 -0.4252  0.3326  0.0992
 1075SOL     ow 4297   2.294   0.360   4.682  0.6399 -0.0707  0.2673
 1075SOL     hw 4298   2.371   0.316   4.717  0.1210  0.5952  2.3789
 1075SOL     hw 4299   2.220   0.306   4.710  0.2139  0.3934  0.0520
 1075SOL     vw 4300   2.294   0.347   4.690  0.5153  0.0784  0.5176
 1076SOL     ow 4301   7.603   7.344   5.726 -0.6869  0.1831  0.5928
 1076SOL     hw 4302   7.575   7.435   5.737 -0.9837  0.2261 -0.3982
 1076SOL     hw 4303   7.523   7.293   5.740 -0.2144 -0.0664  2.7179
 1076SOL     vw 4304   7.589   7.350   5.729 -0.6635  0.1559  0.7424
 1077SOL     ow 4305   1.801   0.387   3.786  0.0000  0.2555 -0.1936
 1077SOL     hw 4306   1.814   0.328   3.860 -0.2158  1.6670  1.0222
 1077SOL     hw 4307   1.843   0.469   3.813 -1.1987  1.2134 -1.1023
 1077SOL     vw 4308   1.808   0.390   3.799 -0.1866  0.5681 -0.1531
 1078SOL     ow 4309   2.649   2.229   6.563  0.4911  0.0799 -0.8672
 1078SOL     hw 4310   2.660   2.319   6.530  1.3158  1.8237  3.4387
 1078SOL     hw 4311   2.739   2.198   6.574  0.3080  0.0589  0.6989
 1078SOL     vw 4312   2.662   2.237   6.560  0.5758  0.3072 -0.0923
 1079SOL     ow 4313   0.562   2.186   2.070 -0.1398 -0.3814 -0.4047
 1079SOL     hw 4314   0.579   2.260   2.011 -0.7211 -0.0410 -0.1537
 1079SOL     hw 4315   0.528   2.117   2.013 -0.0045 -0.3097 -0.5753
 1079SOL     vw 4316   0.560   2.187   2.055 -0.1987 -0.3270 -0.3941
 1080SOL     ow 4317   2.246   4.469   6.398  0.7261 -0.4567 -0.0342
 1080SOL     hw 4318   2.308   4.401   6.423 -0.4419 -2.1528 -1.5058
 1080SOL     hw 4319   2.299   4.545   6.378  2.2597 -1.6358 -0.5747
 1080SOL     vw 4320   2.261   4.470   6.399  0.7743 -0.8359 -0.2997
 1081SOL     ow 4321   5.489   6.810   1.144 -0.0803  0.1030  0.3094
 1081SOL     hw 4322   5.548   6.884   1.131  1.5218 -1.2263 -0.3797
 1081SOL     hw 4323   5.435   6.809   1.065  0.8873 -0.2813 -0.3807
 1081SOL     vw 4324   5.490   6.819   1.131  0.2584 -0.1233  0.1275
 1082SOL     ow 4325   0.533   2.428   7.333  0.3654 -0.8821  0.5063
 1082SOL     hw 4326   0.491   2.416   7.419 -0.4190 -0.2419  0.2270
 1082SOL     hw 4327   0.468   2.475   7.281  1.0684 -0.7327 -0.2589
 1082SOL     vw 4328   0.519   2.432   7.337  0.3546 -0.7780  0.3691
 1083SOL     ow 4329   2.640   5.034   1.253  0.0469  0.4888  0.1163
 1083SOL     hw 4330   2.649   5.009   1.344  0.6995  1.2798  0.2756
 1083SOL     hw 4331   2.645   4.952   1.205 -3.6028 -0.4089  0.9373
 1083SOL     vw 4332   2.642   5.020   1.258 -0.3486  0.4749  0.2457
 1084SOL     ow 4333   1.400   3.533   1.027  0.4011 -0.2429  1.0087
 1084SOL     hw 4334   1.320   3.582   1.009  0.7627 -0.3573 -1.1939
 1084SOL     hw 4335   1.377   3.442   1.008  1.0979 -0.2437  0.1078
 1084SOL     vw 4336   1.386   3.527   1.022  0.5407 -0.2582  0.5992
 1085SOL     ow 4337   2.037   4.344   5.024  0.0085  0.3076 -0.0386
 1085SOL     hw 4338   2.129   4.320   5.041 -0.4049  0.5976  3.2845
 1085SOL     hw 4339   2.043   4.418   4.964  2.0069  0.5816  0.4080
 1085SOL     vw 4340   2.050   4.350   5.019  0.2176  0.3822  0.4587
 1086SOL     ow 4341   4.669   5.496   5.046 -0.6349  0.4014  0.2027
 1086SOL     hw 4342   4.645   5.476   5.136  1.9354  0.4484  0.9619
 1086SOL     hw 4343   4.763   5.479   5.041 -0.6935  0.4382 -2.4706
 1086SOL     vw 4344   4.678   5.491   5.057 -0.3037  0.4127 -0.0498
 1087SOL     ow 4345   5.165   4.768   4.353 -0.1047  0.6206  0.4591
 1087SOL     hw 4346   5.189   4.854   4.319  1.0920 -0.4918 -1.7000
 1087SOL     hw 4347   5.094   4.738   4.296 -0.9725  0.4165  1.6096
 1087SOL     vw 4348   5.159   4.776   4.341 -0.0613  0.4468  0.3259
 1088SOL     ow 4349   5.755   5.514   0.225  0.2559 -0.3201 -0.4977
 1088SOL     hw 4350   5.758   5.466   0.143 -2.4675 -0.6865 -0.4705
 1088SOL     hw 4351   5.736   5.447   0.292 -1.0302  0.3964 -0.1055
 1088SOL     vw 4352   5.753   5.499   0.223 -0.2730 -0.2737 -0.4423
 1089SOL     ow 4353   7.378   1.347   0.440 -0.1973 -0.1447  0.1422
 1089SOL     hw 4354   7.431   1.380   0.513  0.0252 -0.3788  0.0857
 1089SOL     hw 4355   7.301   1.404   0.440  0.7817  1.2311 -0.7901
 1089SOL     vw 4356   7.375   1.359   0.450 -0.0389  0.0059  0.0117
 1090SOL     ow 4357   3.909   7.584   5.560  0.0103  0.1350 -0.0877
 1090SOL     hw 4358   3.881   7.605   5.471  1.0739 -0.1954 -0.5118
 1090SOL     hw 4359   3.841   7.525   5.593  0.5838 -1.3420 -1.3961
 1090SOL     vw 4360   3.896   7.579   5.552  0.2263 -0.1032 -0.3164
 1091SOL     ow 4361   2.789   5.152   6.239 -0.7157 -0.6994  0.2134
 1091SOL     hw 4362   2.825   5.092   6.304  0.3392  0.3562  0.6329
 1091SOL     hw 4363   2.749   5.222   6.289  0.9852  0.6488 -0.1926
 1091SOL     vw 4364   2.789   5.153   6.254 -0.3521 -0.3824  0.2153
 1092SOL     ow 4365   5.028   7.491   7.412  0.0186 -0.1727 -0.1360
 1092SOL     hw 4366   4.982   7.443   7.344  0.4501  0.4662 -0.9071
 1092SOL     hw 4367   5.067   7.424   7.468 -1.4679 -0.7124  0.2838
 1092SOL     vw 4368   5.027   7.476   7.410 -0.1206 -0.1595 -0.1824
 1093SOL     ow 4369   3.754   6.836   3.656  0.3797 -0.4452 -0.2791
 1093SOL     hw 4370   3.688   6.883   3.706  0.5236  0.1989 -0.6769
 1093SOL     hw 4371   3.707   6.799   3.582  0.5646  0.5775 -0.9271
 1093SOL     vw 4372   3.739   6.837   3.653  0.4231 -0.2255 -0.4170
 1094SOL     ow 4373   0.805   3.215   1.332 -0.1941 -0.2378 -0.8045
 1094SOL     hw 4374   0.844   3.164   1.261  0.1897  1.3153 -1.7606
 1094SOL     hw 4375   0.793   3.151   1.403 -0.1904 -1.7402 -2.0880
 1094SOL     vw 4376   0.809   3.200   1.332 -0.1429 -0.2311 -1.0999
 1095SOL     ow 4377   1.309   6.690   5.002  0.0564  0.2503 -0.7124
 1095SOL     hw 4378   1.219   6.666   5.021 -0.0566  1.7913  1.0313
 1095SOL     hw 4379   1.331   6.755   5.069  3.3416 -1.9912  0.6928
 1095SOL     vw 4380   1.300   6.695   5.013  0.4749  0.1578 -0.2968
 1096SOL     ow 4381   6.146   1.980   2.722 -0.4975 -0.1871  0.1085
 1096SOL     hw 4382   6.155   2.054   2.783 -0.3683 -1.3822  1.5891
 1096SOL     hw 4383   6.052   1.959   2.724 -0.9651  1.2847 -2.0407
 1096SOL     vw 4384   6.135   1.987   2.730 -0.5419 -0.1506  0.0204
 1097SOL     ow 4385   4.708   5.234   0.952  0.0174  0.0908  0.4278
 1097SOL     hw 4386   4.718   5.178   1.028  0.6957  0.1524  0.3936
 1097SOL     hw 4387   4.653   5.306   0.982  0.1833  0.0543  0.8287
 1097SOL     vw 4388   4.702   5.236   0.966  0.1290  0.0942  0.4762
 1098SOL     ow 4389   2.619   1.081   1.513  0.2990 -0.0842 -0.1116
 1098SOL     hw 4390   2.550   1.093   1.448  0.5524 -0.5783 -0.4746
 1098SOL     hw 4391   2.691   1.137   1.482 -0.1723  0.9666  0.6300
 1098SOL     vw 4392   2.620   1.090   1.501  0.2701 -0.0107 -0.0616
 1099SOL     ow 4393   3.670   7.334   1.723  0.5955  0.5336  0.3147
 1099SOL     hw 4394   3.631   7.265   1.670 -1.9000  0.7300  1.7410
 1099SOL     hw 4395   3.764   7.313   1.725  0.0869 -2.1465 -0.2101
 1099SOL     vw 4396   3.678   7.322   1.716  0.1991  0.2058  0.4337
 1100SOL     ow 4397   5.202   6.516   1.072  0.2737 -0.7744 -0.3722
 1100SOL     hw 4398   5.241   6.446   1.019  0.8472  0.4627 -1.6464
 1100SOL     hw 4399   5.232   6.498   1.161  1.1424 -1.6643 -0.8214
 1100SOL     vw 4400   5.211   6.504   1.076  0.4640 -0.7286 -0.5996
 1101SOL     ow 4401   3.013   4.814   1.196  0.1721 -0.2094 -0.0593
 1101SOL     hw 4402   2.941   4.752   1.192  1.3659 -1.6065 -0.8026
 1101SOL     hw 4403   3.091   4.760   1.211  1.5843  0.7986 -3.0482
 1101SOL     vw 4404   3.014   4.799   1.198  0.5158 -0.2608 -0.5518
 1102SOL     ow 4405   5.808   4.046   1.143  0.2512  0.0165 -0.4761
 1102SOL     hw 4406   5.847   4.065   1.058  0.7614  0.4838 -0.1429
 1102SOL     hw 4407   5.882   4.039   1.203  0.0856 -2.4809 -0.4417
 1102SOL     vw 4408   5.823   4.047   1.139  0.2966 -0.2515 -0.4275
 1103SOL     ow 4409   6.388   0.505   6.554  0.0903  0.1138 -0.1244
 1103SOL     hw 4410   6.308   0.508   6.501  1.2031 -1.9543 -2.1310
 1103SOL     hw 4411   6.439   0.433   6.515  2.5829  0.8448  1.5658
 1103SOL     vw 4412   6.384   0.496   6.542  0.5662 -0.0626 -0.1659
 1104SOL     ow 4413   1.552   3.074   5.195 -0.5033  0.8569 -0.4906
 1104SOL     hw 4414   1.602   3.144   5.154 -0.2866  2.0312  1.6133
 1104SOL     hw 4415   1.477   3.118   5.236  0.0737  0.0732  1.5709
 1104SOL     vw 4416   1.549   3.089   5.195 -0.3986  0.9083  0.0591
 1105SOL     ow 4417   5.598   2.659   5.334 -0.8416 -0.0978  0.1679
 1105SOL     hw 4418   5.559   2.744   5.313 -3.0840 -1.1451 -0.2108
 1105SOL     hw 4419   5.614   2.618   5.249  2.0017  0.6122  0.2730
 1105SOL     vw 4420   5.595   2.665   5.320 -0.7625 -0.1422  0.1321
 1106SOL     ow 4421   6.968   6.546   2.364 -0.0243  0.1409  0.3574
 1106SOL     hw 4422   7.025   6.609   2.408  1.0660 -0.7056  0.1885
 1106SOL     hw 4423   7.027   6.482   2.326 -1.1412 -1.4502  1.2038
 1106SOL     vw 4424   6.983   6.546   2.364 -0.0277 -0.1810  0.4468
 1107SOL     ow 4425   6.003   7.231   7.045 -0.1473  0.0527  0.0730
 1107SOL     hw 4426   6.082   7.260   7.092 -0.4801  2.1674 -0.5587
 1107SOL     hw 4427   5.946   7.197   7.114  1.0821 -1.0238  0.6045
 1107SOL     vw 4428   6.006   7.231   7.060 -0.0291  0.1895  0.0598
 1108SOL     ow 4429   3.261   7.499   0.987  0.1807 -0.7328  0.0257
 1108SOL     hw 4430   3.294   7.433   1.048 -3.3312 -1.7471  1.0885
 1108SOL     hw 4431   3.242   7.574   1.042  1.9078  0.3842 -0.8054
 1108SOL     vw 4432   3.263   7.500   1.002 -0.0547 -0.7193  0.0563
 1109SOL     ow 4433   7.018   0.413   5.080 -0.5202  0.0020 -0.3053
 1109SOL     hw 4434   6.981   0.492   5.040  0.8765  0.4915 -0.6568
 1109SOL     hw 4435   6.946   0.378   5.133 -1.3340  1.2004 -0.5765
 1109SOL     vw 4436   7.003   0.419   5.082 -0.4432  0.2247 -0.3874
 1110SOL     ow 4437   7.529   1.126   0.318  0.2416 -0.1161  0.1337
 1110SOL     hw 4438   7.587   1.183   0.267 -0.6884  0.3883 -0.3915
 1110SOL     hw 4439   7.474   1.186   0.368  2.1430 -0.5695  3.0305
 1110SOL     vw 4440   7.529   1.142   0.318  0.3700 -0.1093  0.4466
 1111SOL     ow 4441   5.486   2.823   5.566 -0.4952  0.2263  0.5669
 1111SOL     hw 4442   5.409   2.808   5.512  0.2273  0.2979 -0.5208
 1111SOL     hw 4443   5.463   2.789   5.652 -2.2321  1.4996  0.6477
 1111SOL     vw 4444   5.473   2.817   5.570 -0.6292  0.4038  0.4342
 1112SOL     ow 4445   2.361   0.038   4.455  0.0855  0.9796 -0.8297
 1112SOL     hw 4446   2.297  -0.010   4.508 -0.4164  0.6957 -1.6718
 1112SOL     hw 4447   2.445   0.018   4.495 -0.1329 -0.4098 -1.0028
 1112SOL     vw 4448   2.364   0.029   4.467 -0.0094  0.7588 -0.9637
 1113SOL     ow 4449   7.152   1.657   7.330 -0.1041 -0.1773  0.2644
 1113SOL     hw 4450   7.197   1.686   7.251  0.5945 -3.1303 -0.5459
 1113SOL     hw 4451   7.070   1.618   7.298 -0.5976  0.0740  1.1871
 1113SOL     vw 4452   7.147   1.656   7.315 -0.0770 -0.5338  0.2794
 1114SOL     ow 4453   2.592   2.247   1.682 -0.5301 -0.3308  0.3595
 1114SOL     hw 4454   2.522   2.212   1.627 -0.5041  0.8682 -0.4685
 1114SOL     hw 4455   2.663   2.265   1.621  0.1127 -0.5428  1.0387
 1114SOL     vw 4456   2.592   2.245   1.667 -0.4418 -0.2005  0.3399
 1115SOL     ow 4457   2.196   1.913   5.496 -0.2668 -0.4783  0.0175
 1115SOL     hw 4458   2.217   2.006   5.500  2.3867 -1.0002 -0.5657
 1115SOL     hw 4459   2.245   1.879   5.422 -2.9571 -1.9856 -1.2231
 1115SOL     vw 4460   2.205   1.921   5.487 -0.2716 -0.7460 -0.2234
 1116SOL     ow 4461   5.478   3.597   2.892 -0.8382  0.5474  0.5050
 1116SOL     hw 4462   5.442   3.541   2.823  2.5679 -1.9999  0.5212
 1116SOL     hw 4463   5.504   3.677   2.847 -0.6302 -0.1953 -0.7462
 1116SOL     vw 4464   5.476   3.600   2.877 -0.3614  0.1134  0.3420
 1117SOL     ow 4465   1.051   1.788   6.980  0.8035 -0.2018 -0.3134
 1117SOL     hw 4466   1.093   1.726   7.040  0.9362 -0.1414 -0.3435
 1117SOL     hw 4467   1.042   1.740   6.898 -0.5110 -0.7180  0.0929
 1117SOL     vw 4468   1.055   1.774   6.977  0.6475 -0.2620 -0.2637
 1118SOL     ow 4469   5.919   3.350   3.054 -0.0643 -0.4641  0.1561
 1118SOL     hw 4470   5.985   3.374   2.989  1.0401  0.0939  1.4279
 1118SOL     hw 4471   5.960   3.370   3.138 -2.6980  2.1434  0.9823
 1118SOL     vw 4472   5.933   3.356   3.056 -0.2663 -0.0464  0.4328
 1119SOL     ow 4473   2.359   4.744   5.093  0.2853  0.3941 -0.3765
 1119SOL     hw 4474   2.304   4.777   5.022  0.9626 -0.1951 -1.2031
 1119SOL     hw 4475   2.448   4.744   5.057  0.7114  0.5258  0.6357
 1119SOL     vw 4476   2.364   4.748   5.079  0.4309  0.3338 -0.3524
 1120SOL     ow 4477   2.342   2.183   5.383  0.4732  0.2514 -0.6426
 1120SOL     hw 4478   2.359   2.208   5.292  1.1454 -1.6964 -1.1060
 1120SOL     hw 4479   2.425   2.148   5.414 -0.6178 -2.5627 -0.5351
 1120SOL     vw 4480   2.355   2.181   5.375  0.4179 -0.3768 -0.6897
 1121SOL     ow 4481   7.384   0.719   5.294  0.7273  0.1144  0.0257
 1121SOL     hw 4482   7.411   0.704   5.384 -1.5811  3.1418  1.4243
 1121SOL     hw 4483   7.465   0.735   5.246  1.9095  1.2849  2.2525
 1121SOL     vw 4484   7.398   0.719   5.300  0.5784  0.6682  0.5040
 1122SOL     ow 4485   6.895   2.926   1.270 -0.1389  0.0755  0.7569
 1122SOL     hw 4486   6.989   2.911   1.273  0.3112  2.0073 -1.0072
 1122SOL     hw 4487   6.886   3.021   1.278 -1.9696 -0.1060  1.2687
 1122SOL     vw 4488   6.906   2.937   1.271 -0.3211  0.3064  0.5917
 1123SOL     ow 4489   6.058   1.735   0.191  0.6581  0.4102 -0.5672
 1123SOL     hw 4490   6.117   1.803   0.158  1.6180 -0.0084  0.2232
 1123SOL     hw 4491   6.111   1.688   0.256 -0.8233  0.5973  0.8481
 1123SOL     vw 4492   6.073   1.738   0.196  0.5889  0.3796 -0.2762
 1124SOL     ow 4493   2.541   5.765   3.909  0.5021  0.2320 -0.0251
 1124SOL     hw 4494   2.625   5.748   3.867 -0.2199  0.0092 -1.4381
 1124SOL     hw 4495   2.535   5.700   3.979 -0.3839 -2.8594 -2.6830
 1124SOL     vw 4496   2.551   5.754   3.913  0.2899 -0.2053 -0.5623
 1125SOL     ow 4497   2.932   1.301   7.008 -0.3240 -0.2980 -0.3068
 1125SOL     hw 4498   2.887   1.377   6.969 -1.9444 -1.4402 -0.7739
 1125SOL     hw 4499   2.886   1.225   6.972  1.9183 -1.5726 -0.6684
 1125SOL     vw 4500   2.920   1.301   6.998 -0.2419 -0.6168 -0.4160
 1126SOL     ow 4501   0.649   7.256   2.449  0.0312 -0.7470 -0.1373
 1126SOL     hw 4502   0.717   7.323   2.451 -2.0283  1.4777  0.2258
 1126SOL     hw 4503   0.645   7.229   2.357  2.4921 -2.2431  0.0946
 1126SOL     vw 4504   0.658   7.261   2.437  0.0842 -0.6509 -0.0588
 1127SOL     ow 4505   4.598   6.792   0.378  0.5083 -0.2679 -0.0770
 1127SOL     hw 4506   4.662   6.797   0.450 -0.2196 -0.3841  0.5856
 1127SOL     hw 4507   4.633   6.851   0.311 -1.0398  3.5617  2.1498
 1127SOL     vw 4508   4.611   6.801   0.379  0.2079  0.2222  0.3042
 1128SOL     ow 4509   4.415   2.656   4.664 -0.5795 -0.4967 -0.8320
 1128SOL     hw 4510   4.358   2.732   4.656  0.3770  0.3327 -0.0410
 1128SOL     hw 4511   4.503   2.690   4.646  0.0074 -1.1537  0.6573
 1128SOL     vw 4512   4.419   2.671   4.661 -0.3760 -0.4740 -0.5312
 1129SOL     ow 4513   4.473   4.704   3.332  0.2657 -0.2794  0.3929
 1129SOL     hw 4514   4.519   4.745   3.258 -0.1883  0.0889  0.3050
 1129SOL     hw 4515   4.454   4.615   3.302  1.1806 -0.5297  0.5492
 1129SOL     vw 4516   4.476   4.698   3.318  0.3264 -0.2639  0.4020
 1130SOL     ow 4517   5.504   3.385   5.695  0.4116 -0.4016  0.5206
 1130SOL     hw 4518   5.548   3.301   5.684  0.0151 -0.7280  1.3437
 1130SOL     hw 4519   5.419   3.373   5.654 -0.4906 -1.1375  2.4716
 1130SOL     vw 4520   5.499   3.373   5.688  0.2403 -0.5417  0.8862
 1131SOL     ow 4521   7.176   3.174   5.535  0.2530  0.0051  0.4716
 1131SOL     hw 4522   7.211   3.196   5.448 -0.1336 -1.2281 -0.0183
 1131SOL     hw 4523   7.233   3.221   5.596  1.2392 -0.0072 -0.4018
 1131SOL     vw 4524   7.188   3.183   5.531  0.3321 -0.1593  0.2918
 1132SOL     ow 4525   0.908   0.011   3.452  0.0502 -0.9357  0.1362
 1132SOL     hw 4526   0.879   0.098   3.424 -0.2629 -1.2217 -0.4526
 1132SOL     hw 4527   0.911   0.017   3.547  0.8636 -0.0274  0.0698
 1132SOL     vw 4528   0.904   0.023   3.461  0.1163 -0.8536  0.0497
 1133SOL     ow 4529   1.835   3.630   2.888 -0.4952 -0.1544  0.1893
 1133SOL     hw 4530   1.836   3.655   2.795  0.9496  2.0774  0.7271
 1133SOL     hw 4531   1.927   3.615   2.910 -0.7475  0.0160  1.4219
 1133SOL     vw 4532   1.847   3.631   2.878 -0.3378  0.1625  0.4228
 1134SOL     ow 4533   3.904   3.085   5.376 -0.3367 -0.6522 -0.2897
 1134SOL     hw 4534   3.964   3.017   5.345  0.3096 -1.0799  1.7333
 1134SOL     hw 4535   3.817   3.046   5.365  0.0144 -1.7687  0.6668
 1134SOL     vw 4536   3.900   3.071   5.370 -0.2050 -0.8560  0.1032
 1135SOL     ow 4537   4.483   1.294   0.249  0.1738 -0.1481 -0.6233
 1135SOL     hw 4538   4.475   1.319   0.157 -1.6190 -1.7522 -0.9834
 1135SOL     hw 4539   4.419   1.349   0.294  0.6046  0.1954 -0.4243
 1135SOL     vw 4540   4.473   1.304   0.243 -0.0055 -0.3144 -0.6446
 1136SOL     ow 4541   4.829   6.411   0.210  0.0121  0.5708 -0.2684
 1136SOL     hw 4542   4.879   6.492   0.201 -4.2238  3.4425 -0.7136
 1136SOL     hw 4543   4.844   6.365   0.128  2.0930  1.0667 -0.2378
 1136SOL     vw 4544   4.838   6.416   0.198 -0.2723  1.0152 -0.3231
 1137SOL     ow 4545   2.449   4.721   0.842 -0.2782  0.6687 -1.1524
 1137SOL     hw 4546   2.380   4.781   0.870  0.6637  0.2074  2.5711
 1137SOL     hw 4547   2.524   4.778   0.822  0.1260  0.8972  0.8512
 1137SOL     vw 4548   2.450   4.737   0.843 -0.1006  0.6380 -0.3968
 1138SOL     ow 4549   6.919   0.667   3.351 -0.1621  0.2861  0.1963
 1138SOL     hw 4550   6.986   0.621   3.402 -0.3679 -0.1754  0.0625
 1138SOL     hw 4551   6.951   0.756   3.342  0.2108  0.1864  0.5331
 1138SOL     vw 4552   6.932   0.672   3.357 -0.1400  0.2121  0.2230
 1139SOL     ow 4553   5.400   0.066   6.065 -0.6806 -0.8204  0.2286
 1139SOL     hw 4554   5.350   0.095   6.141  0.3031 -1.5964  1.2015
 1139SOL     hw 4555   5.460   0.139   6.046 -2.3541  0.2665 -1.1714
 1139SOL     vw 4556   5.402   0.080   6.072 -0.7718 -0.7794  0.1726
 1140SOL     ow 4557   3.995   7.297   7.073 -0.3662  0.2760 -0.4009
 1140SOL     hw 4558   4.045   7.318   7.151 -3.4374  1.4591  1.4180
 1140SOL     hw 4559   4.029   7.212   7.045  1.7120  0.4257  1.4238
 1140SOL     vw 4560   4.006   7.288   7.079 -0.4973  0.4520  0.0799
 1141SOL     ow 4561   5.543   6.674   2.378  0.6889  0.4435 -0.0946
 1141SOL     hw 4562   5.571   6.601   2.433  0.4975 -0.2961 -0.9678
 1141SOL     hw 4563   5.616   6.736   2.383  0.5140  0.5765  1.2921
 1141SOL     vw 4564   5.556   6.673   2.386  0.6404  0.3631 -0.0268
 1142SOL     ow 4565   4.839   2.207   0.875 -0.2332  0.4679  0.6582
 1142SOL     hw 4566   4.823   2.113   0.878  1.6591  0.1125  1.9651
 1142SOL     hw 4567   4.927   2.215   0.838  0.4714  1.5394  2.4286
 1142SOL     vw 4568   4.849   2.196   0.871  0.1094  0.5624  1.0642
 1143SOL     ow 4569   5.661   5.245   4.551  0.5874  0.2095 -0.2125
 1143SOL     hw 4570   5.749   5.219   4.524  0.1729 -1.7830  0.2049
 1143SOL     hw 4571   5.616   5.267   4.469  0.6495 -1.5285 -0.7443
 1143SOL     vw 4572   5.667   5.245   4.537  0.5412 -0.2828 -0.2275
 1144SOL     ow 4573   6.239   1.971   1.933 -0.4528  0.4705  0.4534
 1144SOL     hw 4574   6.272   1.969   1.843 -2.0248 -0.2010 -0.1402
 1144SOL     hw 4575   6.299   1.914   1.982 -0.1482  0.0699 -0.3735
 1144SOL     vw 4576   6.252   1.964   1.928 -0.6201  0.3291  0.2660
 1145SOL     ow 4577   1.333   3.715   7.581  0.5710  0.7060 -0.4738
 1145SOL     hw 4578   1.382   3.779   7.530  0.6225  0.3185 -0.9197
 1145SOL     hw 4579   1.401   3.660   7.622  0.5688  1.7894  1.0544
 1145SOL     vw 4580   1.349   3.716   7.580  0.5775  0.7977 -0.3309
 1146SOL     ow 4581   0.952   0.575   2.828 -0.0605  0.4219 -0.0446
 1146SOL     hw 4582   0.962   0.573   2.733  1.6839  0.8848  0.0993
 1146SOL     hw 4583   1.036   0.544   2.861 -0.5411  0.5687  1.3591
 1146SOL     vw 4584   0.964   0.571   2.820  0.1062  0.5024  0.1595
 1147SOL     ow 4585   1.537   6.621   5.353 -0.0663  1.0138 -0.8812
 1147SOL     hw 4586   1.599   6.692   5.337  0.4876  0.2835 -2.1935
 1147SOL     hw 4587   1.535   6.572   5.271  0.0373 -0.8484  0.1608
 1147SOL     vw 4588   1.545   6.624   5.340  0.0204  0.6716 -0.9170
 1148SOL     ow 4589   0.220   7.220   5.707  0.6821  0.2747  0.2379
 1148SOL     hw 4590   0.129   7.251   5.713  0.8081  0.7747 -0.3412
 1148SOL     hw 4591   0.272   7.300   5.705  1.3716  0.0481  3.2114
 1148SOL     vw 4592   0.215   7.235   5.708  0.7897  0.3109  0.5538
 1149SOL     ow 4593   6.952   2.493   6.620  0.2800 -0.5407 -0.0975
 1149SOL     hw 4594   7.029   2.503   6.676  0.8326  1.4442 -1.1152
 1149SOL     hw 4595   6.892   2.562   6.649 -0.3194 -0.8714 -0.5387
 1149SOL     vw 4596   6.954   2.504   6.631  0.2737 -0.3225 -0.2897
 1150SOL     ow 4597   2.105   4.222   1.068 -0.2953 -0.2411  0.3167
 1150SOL     hw 4598   2.138   4.244   1.155  0.5464 -1.6861  0.3976
 1150SOL     hw 4599   2.011   4.213   1.080 -0.1692 -0.5911  1.1220
 1150SOL     vw 4600   2.097   4.224   1.081 -0.1676 -0.4780  0.4336
 1151SOL     ow 4601   5.879   3.863   7.010 -0.4775 -0.2019 -0.2636
 1151SOL     hw 4602   5.839   3.950   7.007  4.2309  2.2860 -1.7299
 1151SOL     hw 4603   5.853   3.821   6.929 -0.9234  0.8740 -0.6927
 1151SOL     vw 4604   5.870   3.869   6.999  0.0849  0.2683 -0.5138
 1152SOL     ow 4605   5.002   3.722   6.364  0.1800 -0.2511 -0.5440
 1152SOL     hw 4606   5.011   3.808   6.404 -3.6228  0.7954 -1.4749
 1152SOL     hw 4607   4.986   3.740   6.272 -1.0531 -1.8692 -0.6976
 1152SOL     vw 4608   5.001   3.736   6.357 -0.4847 -0.3265 -0.6871
 1153SOL     ow 4609   0.269   5.775   4.707 -0.0350  0.2581 -0.1786
 1153SOL     hw 4610   0.181   5.777   4.745 -0.7249 -2.8994 -1.3045
 1153SOL     hw 4611   0.300   5.686   4.723  2.3392  0.8296 -1.1997
 1153SOL     vw 4612   0.262   5.764   4.714  0.1872 -0.0830 -0.4621
 1154SOL     ow 4613   2.945   3.632   5.181 -0.0786  0.6196  0.6966
 1154SOL     hw 4614   2.969   3.686   5.106 -0.9411 -1.3338 -1.1219
 1154SOL     hw 4615   2.888   3.687   5.234  0.0561  1.8752 -0.4137
 1154SOL     vw 4616   2.941   3.646   5.178 -0.1748  0.5275  0.3104
 1155SOL     ow 4617   0.103   5.261   0.564  0.0793  0.1859  0.7433
 1155SOL     hw 4618   0.086   5.329   0.498  3.2853 -0.4533 -0.9658
 1155SOL     hw 4619   0.062   5.183   0.529 -0.1587  0.3568  0.6411
 1155SOL     vw 4620   0.096   5.260   0.550  0.4709  0.1240  0.5043
 1156SOL     ow 4621   1.032   6.348   7.233 -0.2401  0.5628 -0.1123
 1156SOL     hw 4622   1.037   6.408   7.159  2.1303  3.9645  2.5080
 1156SOL     hw 4623   1.122   6.319   7.247 -0.7960 -0.8266  0.8739
 1156SOL     vw 4624   1.044   6.352   7.225 -0.0007  0.8280  0.3638
 1157SOL     ow 4625   3.656   5.118   4.163 -0.3721 -0.3212 -0.3761
 1157SOL     hw 4626   3.666   5.052   4.094 -2.9196 -1.3860  0.1604
 1157SOL     hw 4627   3.577   5.092   4.210 -0.8694  2.5188  0.5669
 1157SOL     vw 4628   3.647   5.106   4.160 -0.7740 -0.0870 -0.1807
 1158SOL     ow 4629   4.655   5.739   1.083 -0.2072 -0.2761 -0.6256
 1158SOL     hw 4630   4.601   5.669   1.119 -2.0335  1.8741  1.0941
 1158SOL     hw 4631   4.594   5.792   1.032  1.2733 -0.2048 -2.4416
 1158SOL     vw 4632   4.640   5.736   1.081 -0.2530  0.0169 -0.6382
 1159SOL     ow 4633   2.516   6.985   1.002 -0.6101 -0.4022  0.2098
 1159SOL     hw 4634   2.482   6.949   1.084  1.5667 -1.3995  0.7518
 1159SOL     hw 4635   2.536   6.908   0.948 -2.6749  0.2360 -1.6228
 1159SOL     vw 4636   2.515   6.970   1.005 -0.5953 -0.4497  0.0396
 1160SOL     ow 4637   2.760   3.732   2.025  0.3426  0.3780  0.2125
 1160SOL     hw 4638   2.738   3.646   2.062 -0.4860  0.8875  0.9413
 1160SOL     hw 4639   2.677   3.779   2.023  0.4828  0.5907 -1.7746
 1160SOL     vw 4640   2.747   3.727   2.030  0.2517  0.4734  0.0464
 1161SOL     ow 4641   7.448   2.662   5.796 -0.2613  0.0298  0.2987
 1161SOL     hw 4642   7.463   2.591   5.733 -0.8069  0.7502 -0.6668
 1161SOL     hw 4643   7.536   2.689   5.822  0.0177  0.4637 -1.0223
 1161SOL     vw 4644   7.462   2.656   5.791 -0.2966  0.1822 -0.0031
 1162SOL     ow 4645   6.685   2.712   4.187  0.1405  0.0182 -0.0970
 1162SOL     hw 4646   6.707   2.661   4.264  0.9157  1.8465  0.9513
 1162SOL     hw 4647   6.655   2.797   4.221  1.6979  1.3328 -1.7815
 1162SOL     vw 4648   6.684   2.717   4.202  0.4482  0.4328 -0.1810
 1163SOL     ow 4649   5.900   1.923   0.321  0.2414  0.2703 -0.2463
 1163SOL     hw 4650   5.957   1.850   0.298 -0.4244 -0.9556  1.7083
 1163SOL     hw 4651   5.960   1.992   0.350  0.8415  0.0532 -0.9464
 1163SOL     vw 4652   5.915   1.922   0.322  0.2327  0.0799 -0.0807
 1164SOL     ow 4653   4.015   7.162   5.576 -0.3180 -0.4219  0.6444
 1164SOL     hw 4654   4.059   7.085   5.538 -1.6382 -0.5877 -0.6656
 1164SOL     hw 4655   3.955   7.191   5.507  0.0327  1.7205  1.1677
 1164SOL     vw 4656   4.013   7.155   5.562 -0.4458 -0.1612  0.5405
 1165SOL     ow 4657   2.572   5.993   6.016  0.0884 -0.3370  0.0306
 1165SOL     hw 4658   2.632   5.937   5.967 -1.2004 -1.8119  0.0400
 1165SOL     hw 4659   2.625   6.067   6.043  1.3951 -0.5559 -1.7056
 1165SOL     vw 4660   2.587   5.995   6.013  0.0908 -0.5603 -0.1974
 1166SOL     ow 4661   5.916   4.170   4.337  0.5419  0.0554 -0.9218
 1166SOL     hw 4662   5.850   4.159   4.405 -0.3793  0.7315 -1.6723
 1166SOL     hw 4663   5.960   4.085   4.332 -0.0883 -0.3206 -0.2236
 1166SOL     vw 4664   5.913   4.158   4.345  0.3369  0.0949 -0.9286
 1167SOL     ow 4665   5.070   3.612   5.856  0.2569 -0.2417  0.2508
 1167SOL     hw 4666   5.152   3.580   5.894  1.1400  0.3856 -1.0219
 1167SOL     hw 4667   5.095   3.644   5.769 -0.8112  2.4701  0.8349
 1167SOL     vw 4668   5.084   3.612   5.850  0.2325  0.1990  0.1602
 1168SOL     ow 4669   6.222   7.354   7.149 -0.4809  0.6563 -0.0280
 1168SOL     hw 4670   6.314   7.345   7.124  0.1920  1.5639  1.8485
 1168SOL     hw 4671   6.210   7.448   7.161 -1.1146  0.4273  1.4222
 1168SOL     vw 4672   6.233   7.365   7.148 -0.4759  0.7458  0.4110
 1169SOL     ow 4673   5.578   4.474   3.337 -0.3228 -0.1957 -0.5942
 1169SOL     hw 4674   5.660   4.436   3.368  1.0914  1.3158 -2.2251
 1169SOL     hw 4675   5.584   4.567   3.358 -2.4502 -0.3042  0.8259
 1169SOL     vw 4676   5.589   4.481   3.344 -0.4168 -0.0105 -0.6220
 1170SOL     ow 4677   1.940   5.637   5.913  1.1301  0.6255 -0.3847
 1170SOL     hw 4678   1.906   5.648   6.001 -0.3557  0.2341 -0.8722
 1170SOL     hw 4679   1.983   5.551   5.914  0.9013  0.5144 -0.1061
 1170SOL     vw 4680   1.942   5.627   5.924  0.9040  0.5591 -0.4122
 1171SOL     ow 4681   5.352   5.682   5.407 -0.2293  0.0954 -0.3176
 1171SOL     hw 4682   5.421   5.722   5.354 -1.7625  0.7891 -1.8955
 1171SOL     hw 4683   5.294   5.755   5.429 -2.4962 -0.9617 -2.3021
 1171SOL     vw 4684   5.353   5.697   5.403 -0.7305  0.0477 -0.7877
 1172SOL     ow 4685   0.173   6.379   2.557  0.4353 -0.4449 -0.4025
 1172SOL     hw 4686   0.122   6.310   2.514 -1.2206  1.6013 -1.9743
 1172SOL     hw 4687   0.151   6.370   2.649 -2.1317 -0.2665 -0.9057
 1172SOL     vw 4688   0.163   6.369   2.563 -0.1218 -0.1514 -0.6763
 1173SOL     ow 4689   1.223   7.124   1.489 -0.3890  0.4906 -0.3897
 1173SOL     hw 4690   1.249   7.069   1.415 -0.7392 -0.6764  0.3338
 1173SOL     hw 4691   1.302   7.173   1.512  0.6198 -1.4023  0.3853
 1173SOL     vw 4692   1.237   7.123   1.483 -0.3021  0.0870 -0.1920
 1174SOL     ow 4693   2.859   0.319   6.517  0.6611 -0.1191 -0.3112
 1174SOL     hw 4694   2.935   0.280   6.560  0.4405 -0.8693 -0.5867
 1174SOL     hw 4695   2.785   0.294   6.572  0.4470 -0.6003 -0.8009
 1174SOL     vw 4696   2.859   0.310   6.530  0.6038 -0.2816 -0.4122
 1175SOL     ow 4697   6.538   7.094   4.806 -0.3279  0.2591  0.5424
 1175SOL     hw 4698   6.608   7.045   4.764 -0.9422  0.2237 -0.4654
 1175SOL     hw 4699   6.479   7.118   4.735  0.6491  3.7296  0.7033
 1175SOL     vw 4700   6.540   7.091   4.791 -0.2801  0.7124  0.4306
 1176SOL     ow 4701   3.017   0.782   5.095 -0.3394 -1.2546  0.2526
 1176SOL     hw 4702   3.019   0.829   5.011  3.0629 -2.3035 -0.4009
 1176SOL     hw 4703   3.020   0.851   5.161 -4.0388 -0.3538 -0.2769
 1176SOL     vw 4704   3.017   0.797   5.092 -0.3785 -1.2742  0.0966
 1177SOL     ow 4705   2.712   4.161   1.416  0.1260 -0.0108  0.5379
 1177SOL     hw 4706   2.646   4.169   1.347  0.6835  0.2757  0.0308
 1177SOL     hw 4707   2.792   4.139   1.369  0.8607  1.7060  0.9381
 1177SOL     vw 4708   2.714   4.159   1.401  0.2966  0.2534  0.5239
 1178SOL     ow 4709   5.162   7.629   7.588  0.1450  0.3395 -0.1158
 1178SOL     hw 4710   5.114   7.692   7.641 -2.5974 -1.4547 -0.2666
 1178SOL     hw 4711   5.098   7.596   7.525  1.9937 -1.1490 -1.3576
 1178SOL     vw 4712   5.148   7.633   7.586  0.0269 -0.0937 -0.2997
 1179SOL     ow 4713   3.909   5.414   6.649  0.4212  0.1149 -0.6107
 1179SOL     hw 4714   3.904   5.332   6.599  0.4421  0.6685 -1.5368
 1179SOL     hw 4715   3.899   5.483   6.583  2.6301  0.9317 -0.1774
 1179SOL     vw 4716   3.907   5.412   6.633  0.7154  0.2959 -0.6757
 1180SOL     ow 4717   2.495   2.954   4.930  0.1461 -0.1726 -0.2713
 1180SOL     hw 4718   2.555   2.928   4.860 -0.5204 -0.2802 -0.8043
 1180SOL     hw 4719   2.440   3.022   4.891 -0.3682 -0.3749  0.0864
 1180SOL     vw 4720   2.496   2.960   4.916 -0.0097 -0.2134 -0.2944
 1181SOL     ow 4721   5.359   7.075   3.407 -0.1469  0.3089  0.1473
 1181SOL     hw 4722   5.299   7.032   3.468  2.0887 -1.0232  1.5243
 1181SOL     hw 4723   5.357   7.020   3.329  0.0319 -0.3248  0.5797
 1181SOL     vw 4724   5.351   7.062   3.405  0.1717  0.0496  0.3861
 1182SOL     ow 4725   3.171   7.574   5.556  0.0322  0.0956 -0.2073
 1182SOL     hw 4726   3.135   7.527   5.481 -2.2987  0.4898  0.5624
 1182SOL     hw 4727   3.266   7.562   5.550 -0.1769 -0.8121 -2.5602
 1182SOL     vw 4728   3.179   7.566   5.545 -0.3029  0.0278 -0.4163
 1183SOL     ow 4729   1.008   3.876   5.817  0.3511  0.0790 -0.1045
 1183SOL     hw 4730   0.919   3.843   5.802  0.2458 -0.0638  0.8043
 1183SOL     hw 4731   0.999   3.937   5.890  1.4447 -2.0462  1.9151
 1183SOL     vw 4732   0.995   3.880   5.825  0.4815 -0.2203  0.2820
 1184SOL     ow 4733   1.804   3.174   0.311  0.1846 -0.1121 -0.0149
 1184SOL     hw 4734   1.842   3.233   0.375  2.4869 -1.8117  0.3153
 1184SOL     hw 4735   1.754   3.111   0.362 -1.6139  1.0347 -0.3013
 1184SOL     vw 4736   1.803   3.173   0.326  0.2511 -0.1851 -0.0091
 1185SOL     ow 4737   3.460   6.006   2.248 -0.1007  0.6755  0.1815
 1185SOL     hw 4738   3.472   6.096   2.278  1.9087  0.7460 -0.6433
 1185SOL     hw 4739   3.498   6.004   2.161 -2.1344 -0.4787 -0.7532
 1185SOL     vw 4740   3.467   6.017   2.241 -0.1038  0.5329 -0.0508
 1186SOL     ow 4741   2.600   7.592   4.588  0.5824  0.3241  0.7111
 1186SOL     hw 4742   2.646   7.669   4.554 -0.1953  0.1278 -0.9368
 1186SOL     hw 4743   2.640   7.575   4.673  0.0004  3.2444  1.7008
 1186SOL     vw 4744   2.611   7.600   4.594  0.4029  0.6835  0.6242
 1187SOL     ow 4745   2.775   0.942   5.083  0.7447  0.0505  0.0634
 1187SOL     hw 4746   2.741   0.951   4.995  0.7165  0.1927  0.0892
 1187SOL     hw 4747   2.753   0.852   5.108 -0.0555  0.2953  0.2671
 1187SOL     vw 4748   2.768   0.931   5.075  0.6354  0.1016  0.0935
 1188SOL     ow 4749   7.587   7.205   4.379 -0.0086  0.2454  0.3914
 1188SOL     hw 4750   7.532   7.266   4.330  0.5936 -0.2506 -0.9442
 1188SOL     hw 4751   7.530   7.172   4.449 -0.3671  2.2400  1.0942
 1188SOL     vw 4752   7.572   7.209   4.382  0.0234  0.4430  0.3080
 1189SOL     ow 4753   4.873   4.862   3.975  0.9876  0.4669 -0.6848
 1189SOL     hw 4754   4.779   4.854   3.960  0.8756  0.5520 -0.0619
 1189SOL     hw 4755   4.908   4.776   3.954  0.8657  0.6291 -1.5727
 1189SOL     vw 4756   4.865   4.850   3.970  0.9570  0.4995 -0.7197
 1190SOL     ow 4757   0.237   4.912   1.036  0.1372 -0.5905  0.2506
 1190SOL     hw 4758   0.230   5.005   1.055  1.8184 -0.6418  1.3822
 1190SOL     hw 4759   0.154   4.875   1.066 -0.5251  0.5063 -0.1509
 1190SOL     vw 4760   0.225   4.919   1.042  0.2716 -0.4523  0.3469
 1191SOL     ow 4761   1.718   5.358   4.309  0.3640  0.2606 -0.0915
 1191SOL     hw 4762   1.712   5.343   4.215 -1.6157  0.2275  0.0014
 1191SOL     hw 4763   1.772   5.286   4.342  0.3484 -0.2170 -1.0867
 1191SOL     vw 4764   1.724   5.347   4.301  0.1007  0.1934 -0.2108
 1192SOL     ow 4765   5.720   4.508   4.221  0.2315  0.1487 -0.0700
 1192SOL     hw 4766   5.647   4.445   4.225  0.5806 -0.4515 -2.0012
 1192SOL     hw 4767   5.677   4.594   4.219 -0.3096 -0.0749  1.2412
 1192SOL     vw 4768   5.705   4.511   4.221  0.2065  0.0401 -0.1516
 1193SOL     ow 4769   4.582   1.672   2.562  0.1579  0.3300  0.1561
 1193SOL     hw 4770   4.639   1.748   2.571 -1.1741  1.4376 -0.4133
 1193SOL     hw 4771   4.521   1.680   2.635  2.0208 -2.0855  2.1387
 1193SOL     vw 4772   4.581   1.683   2.573  0.2279  0.1575  0.3424
 1194SOL     ow 4773   0.336   0.768   0.493 -0.2550  0.2078 -0.0056
 1194SOL     hw 4774   0.322   0.760   0.398  0.7798 -1.5133 -0.0559
 1194SOL     hw 4775   0.304   0.856   0.514 -2.2660 -0.0409 -1.6170
 1194SOL     vw 4776   0.330   0.778   0.483 -0.3838 -0.0520 -0.2248
 1195SOL     ow 4777   3.345   2.915   2.784 -0.0341  0.5689  0.3398
 1195SOL     hw 4778   3.336   3.005   2.751  1.4897  0.4871 -0.4123
 1195SOL     hw 4779   3.438   2.894   2.770 -0.3643 -1.1352  0.4961
 1195SOL     vw 4780   3.356   2.924   2.778  0.1233  0.3332  0.2613
 1196SOL     ow 4781   1.517   0.933   4.531 -0.2965  0.5174  0.0401
 1196SOL     hw 4782   1.604   0.908   4.562 -1.8797 -2.6534  2.5141
 1196SOL     hw 4783   1.502   1.020   4.569  0.7432 -0.1180  2.0363
 1196SOL     vw 4784   1.527   0.941   4.540 -0.3682  0.0152  0.6299
 1197SOL     ow 4785   0.093   5.723   3.844  0.0373  0.1331 -0.4464
 1197SOL     hw 4786   0.040   5.758   3.916  1.5311 -0.3957  0.9659
 1197SOL     hw 4787   0.183   5.723   3.878  0.8854  0.3787 -2.5215
 1197SOL     vw 4788   0.098   5.728   3.858  0.3463  0.0954 -0.5338
 1198SOL     ow 4789   5.349   3.615   6.080 -0.2402  0.0307  0.6127
 1198SOL     hw 4790   5.439   3.590   6.099 -0.8798 -1.8528  1.3399
 1198SOL     hw 4791   5.352   3.711   6.076  2.1285 -0.0135 -1.3037
 1198SOL     vw 4792   5.361   3.625   6.082 -0.0122 -0.2238  0.4559
 1199SOL     ow 4793   2.012   5.082   2.699 -0.0387  0.0426 -0.0860
 1199SOL     hw 4794   2.034   5.105   2.609  0.9690 -0.4294  0.0184
 1199SOL     hw 4795   2.095   5.091   2.747  0.2046 -2.6894  0.1722
 1199SOL     vw 4796   2.026   5.086   2.694  0.1265 -0.3800 -0.0380
 1200SOL     ow 4797   5.101   1.107   5.386 -0.9877  0.7181 -0.0611
 1200SOL     hw 4798   5.113   1.186   5.439 -1.1399  0.9172 -0.3205
 1200SOL     hw 4799   5.118   1.035   5.446  1.6015  0.9566 -0.3671
 1200SOL     vw 4800   5.105   1.108   5.401 -0.6664  0.7758 -0.1359
 1201SOL     ow 4801   4.740   1.375   5.225 -0.1089 -0.1622  0.2087
 1201SOL     hw 4802   4.762   1.378   5.318 -0.7167 -1.5365  0.4318
 1201SOL     hw 4803   4.654   1.417   5.220  1.3122  2.9413 -0.2868
 1201SOL     vw 4804   4.731   1.381   5.237 -0.0017  0.0659  0.1729
 1202SOL     ow 4805   2.816   1.205   5.956  0.5767 -0.6404  0.2788
 1202SOL     hw 4806   2.860   1.121   5.940 -0.5166 -0.8546 -2.1088
 1202SOL     hw 4807   2.851   1.264   5.889  1.4284  0.9052  2.0173
 1202SOL     vw 4808   2.826   1.201   5.945  0.5448 -0.4647  0.1931
 1203SOL     ow 4809   3.281   6.730   4.167 -0.2723 -0.2538 -0.5658
 1203SOL     hw 4810   3.350   6.758   4.106  0.8588 -2.0133 -0.1771
 1203SOL     hw 4811   3.263   6.639   4.144 -0.3350 -0.7442  1.2241
 1203SOL     vw 4812   3.288   6.722   4.156 -0.1312 -0.5505 -0.2782
 1204SOL     ow 4813   1.739   3.729   7.014  0.2493  0.2517  0.3244
 1204SOL     hw 4814   1.738   3.640   7.051  2.3383 -0.0048 -0.1512
 1204SOL     hw 4815   1.689   3.781   7.078 -1.6858 -1.3498  0.2438
 1204SOL     vw 4816   1.732   3.724   7.028  0.2696  0.0066  0.2511
 1205SOL     ow 4817   1.728   2.999   1.771  0.0135 -0.0949  0.1760
 1205SOL     hw 4818   1.744   3.089   1.799  0.8122  0.2202 -1.1943
 1205SOL     hw 4819   1.802   2.949   1.805 -0.2206 -0.1718  0.5863
 1205SOL     vw 4820   1.740   3.004   1.779  0.0880 -0.0633  0.0494
 1206SOL     ow 4821   4.344   5.587   6.609 -0.4590  0.3748  0.4560
 1206SOL     hw 4822   4.279   5.634   6.556  0.4948  0.0095 -1.1073
 1206SOL     hw 4823   4.302   5.503   6.628 -0.0293 -0.3635 -1.6219
 1206SOL     vw 4824   4.330   5.582   6.605 -0.2763  0.2291 -0.0243
 1207SOL     ow 4825   2.260   2.106   1.670  0.6248  0.0663  0.2605
 1207SOL     hw 4826   2.238   2.030   1.617 -1.7428 -0.4162  1.7996
 1207SOL     hw 4827   2.270   2.071   1.758 -1.0164  1.5440  1.0920
 1207SOL     vw 4828   2.258   2.091   1.674  0.0958  0.1975  0.5733
 1208SOL     ow 4829   4.047   0.549   3.007 -1.2647 -0.0889 -0.1610
 1208SOL     hw 4830   4.026   0.619   2.944  0.8213  1.8987  1.1890
 1208SOL     hw 4831   4.131   0.514   2.976 -1.6215 -1.0754 -0.0409
 1208SOL     vw 4832   4.055   0.554   2.994 -1.0366  0.0432  0.0329
 1209SOL     ow 4833   5.106   4.978   7.166  0.1349  0.6350  0.6926
 1209SOL     hw 4834   5.182   4.996   7.111  0.4611  1.9630  1.5160
 1209SOL     hw 4835   5.139   4.986   7.256 -0.4726 -1.0790  1.0970
 1209SOL     vw 4836   5.120   4.982   7.171  0.0978  0.5839  0.8543
 1210SOL     ow 4837   1.841   6.010   5.573  0.9707 -0.4796 -0.1331
 1210SOL     hw 4838   1.837   6.104   5.556  0.9198 -0.5390 -0.4545
 1210SOL     hw 4839   1.756   5.988   5.610  0.1638 -0.7823 -2.0492
 1210SOL     vw 4840   1.829   6.020   5.576  0.8576 -0.5274 -0.4282
 1211SOL     ow 4841   0.545   4.900   1.077 -0.2457 -1.0236 -0.1457
 1211SOL     hw 4842   0.580   4.910   0.988 -0.0293 -0.6878 -0.0255
 1211SOL     hw 4843   0.615   4.933   1.134  0.0696 -2.2551  0.2241
 1211SOL     vw 4844   0.559   4.906   1.072 -0.1756 -1.1420 -0.0810
 1212SOL     ow 4845   2.564   3.308   4.537  0.9608 -0.1489 -0.1477
 1212SOL     hw 4846   2.550   3.297   4.631  1.7752 -1.3850 -0.1503
 1212SOL     hw 4847   2.524   3.231   4.498  2.6220 -0.8138 -0.6133
 1212SOL     vw 4848   2.557   3.297   4.544  1.2873 -0.3997 -0.2096
 1213SOL     ow 4849   7.100   3.753   2.625  0.4503 -0.6358 -0.1998
 1213SOL     hw 4850   7.087   3.661   2.605 -1.9927 -0.3609 -0.1745
 1213SOL     hw 4851   7.048   3.800   2.560 -2.2604  0.4921  2.5516
 1213SOL     vw 4852   7.091   3.747   2.614 -0.2296 -0.4506  0.1665
 1214SOL     ow 4853   0.977   6.526   4.592 -0.0419  0.2510  0.3380
 1214SOL     hw 4854   0.962   6.572   4.509  2.3879  3.2771  1.3732
 1214SOL     hw 4855   0.899   6.544   4.644 -0.3293  0.8348 -0.2795
 1214SOL     vw 4856   0.965   6.534   4.588  0.2407  0.7272  0.3934
 1215SOL     ow 4857   4.666   5.997   0.525 -0.2670 -0.2861 -0.0275
 1215SOL     hw 4858   4.680   6.022   0.616 -1.6975 -2.6961  0.9677
 1215SOL     hw 4859   4.576   5.963   0.523  0.0839 -1.2784 -2.0932
 1215SOL     vw 4860   4.656   5.996   0.537 -0.4094 -0.7350 -0.1688
 1216SOL     ow 4861   0.424   6.410   3.785 -0.2044  0.2414  0.1531
 1216SOL     hw 4862   0.334   6.408   3.817 -0.5898  4.0477 -0.2539
 1216SOL     hw 4863   0.418   6.450   3.698  1.7839 -0.7045 -0.4859
 1216SOL     vw 4864   0.412   6.415   3.777  0.0071  0.6187  0.0150
 1217SOL     ow 4865   6.382   6.842   2.011  0.4020  1.0560  0.1132
 1217SOL     hw 4866   6.360   6.921   2.060 -0.5740  0.5852  0.4827
 1217SOL     hw 4867   6.455   6.803   2.059  2.4389  2.8739 -1.3608
 1217SOL     vw 4868   6.389   6.847   2.024  0.5422  1.2336 -0.0327
 1218SOL     ow 4869   0.193   0.981   2.672 -0.5534  0.3517 -0.3589
 1218SOL     hw 4870   0.166   0.889   2.666  1.7051 -0.3690 -0.2141
 1218SOL     hw 4871   0.110   1.029   2.675 -1.9092 -1.8127  2.3911
 1218SOL     vw 4872   0.178   0.975   2.672 -0.4343 -0.0290  0.0230
 1219SOL     ow 4873   3.289   0.391   5.361  0.4187 -0.2004  0.3069
 1219SOL     hw 4874   3.252   0.303   5.356 -0.4278  0.1896 -0.4764
 1219SOL     hw 4875   3.229   0.440   5.417  0.9144 -0.1259  0.7863
 1219SOL     vw 4876   3.276   0.386   5.368  0.3725 -0.1391  0.2668
 1220SOL     ow 4877   2.859   6.500   0.544 -0.0727  0.9688 -0.6488
 1220SOL     hw 4878   2.778   6.541   0.575 -0.5767 -0.1173 -0.4777
 1220SOL     hw 4879   2.903   6.471   0.624 -1.8758 -2.7823 -0.8271
 1220SOL     vw 4880   2.854   6.502   0.559 -0.3771  0.3304 -0.6497
 1221SOL     ow 4881   2.586   4.633   4.421  0.0637 -0.4101 -0.2718
 1221SOL     hw 4882   2.619   4.600   4.337 -0.0980  0.7476 -0.8027
 1221SOL     hw 4883   2.505   4.679   4.399  0.5878  0.8486  0.3475
 1221SOL     vw 4884   2.580   4.635   4.407  0.1116 -0.0913 -0.2604
 1222SOL     ow 4885   4.794   7.509   1.379  0.3502 -0.2332 -1.3707
 1222SOL     hw 4886   4.791   7.448   1.452  1.1348  0.4739 -0.7251
 1222SOL     hw 4887   4.794   7.454   1.301 -0.8746 -0.9890 -0.8645
 1222SOL     vw 4888   4.794   7.494   1.378  0.2921 -0.2396 -1.2187
 1223SOL     ow 4889   0.174   1.409   3.182  0.8108 -0.1684 -0.1675
 1223SOL     hw 4890   0.256   1.362   3.197 -0.5088 -2.4159  0.4695
 1223SOL     hw 4891   0.171   1.424   3.088  1.5080 -0.9138 -0.3156
 1223SOL     vw 4892   0.184   1.405   3.172  0.7287 -0.5632 -0.1029
 1224SOL     ow 4893   3.669   1.020   1.738 -0.0846 -0.3540 -0.1173
 1224SOL     hw 4894   3.668   1.115   1.737 -1.3319 -0.2552 -3.1620
 1224SOL     hw 4895   3.660   0.996   1.830 -2.3026  2.5100  0.5642
 1224SOL     vw 4896   3.668   1.029   1.750 -0.5418  0.0369 -0.4291
 1225SOL     ow 4897   5.801   4.828   4.648  0.5234 -0.1314 -0.2318
 1225SOL     hw 4898   5.891   4.821   4.678  0.5557  1.2792  0.0651
 1225SOL     hw 4899   5.775   4.738   4.629  1.9846 -0.5608 -0.3196
 1225SOL     vw 4900   5.809   4.815   4.649  0.7203 -0.0019 -0.2041
 1226SOL     ow 4901   0.459   4.432   6.937  0.2310  0.0225  0.5390
 1226SOL     hw 4902   0.460   4.461   6.845  1.3181 -0.9590  0.2149
 1226SOL     hw 4903   0.402   4.355   6.936  0.8908 -0.4731  0.5156
 1226SOL     vw 4904   0.452   4.426   6.924  0.4615 -0.1724  0.4933
 1227SOL     ow 4905   2.369   4.160   1.008  0.0793 -0.1864 -0.6318
 1227SOL     hw 4906   2.437   4.097   1.031  0.8275  0.5174 -0.8677
 1227SOL     hw 4907   2.300   4.146   1.073  0.3401 -1.0779 -0.5415
 1227SOL     vw 4908   2.369   4.150   1.020  0.2124 -0.2112 -0.6510
 1228SOL     ow 4909   5.079   6.420   0.526  0.2176  0.4021  0.4200
 1228SOL     hw 4910   4.984   6.408   0.524  0.5936 -4.2503 -0.5544
 1228SOL     hw 4911   5.098   6.472   0.448 -1.4399  1.2914  0.5502
 1228SOL     vw 4912   5.069   6.425   0.515  0.0486 -0.0944  0.3086
 1229SOL     ow 4913   4.885   0.455   6.369  0.1269 -0.2528 -0.4532
 1229SOL     hw 4914   4.978   0.438   6.354  0.1873 -1.1314  0.7908
 1229SOL     hw 4915   4.849   0.370   6.392 -1.2856 -0.1892 -2.2308
 1229SOL     vw 4916   4.893   0.442   6.370 -0.0513 -0.3603 -0.5236
 1230SOL     ow 4917   1.734   2.805   0.634  0.0065  0.3630  0.0760
 1230SOL     hw 4918   1.696   2.866   0.570  1.2900  0.8766 -0.2357
 1230SOL     hw 4919   1.825   2.833   0.642  0.5584 -1.3548  0.1511
 1230SOL     vw 4920   1.741   2.817   0.627  0.2486  0.2041  0.0448
 1231SOL     ow 4921   5.279   0.619   6.560 -0.2218 -0.0608  0.1465
 1231SOL     hw 4922   5.266   0.529   6.528 -1.3225 -0.4193  1.5211
 1231SOL     hw 4923   5.310   0.667   6.483 -1.3560 -1.2025 -1.0772
 1231SOL     vw 4924   5.281   0.613   6.546 -0.5169 -0.2588  0.1667
 1232SOL     ow 4925   4.869   7.362   6.937  0.5046 -0.4038  0.3550
 1232SOL     hw 4926   4.959   7.338   6.961  1.9956  1.1193 -3.0930
 1232SOL     hw 4927   4.842   7.295   6.874  0.9979  1.4487 -1.9431
 1232SOL     vw 4928   4.877   7.350   6.932  0.7668  0.0417 -0.4032
 1233SOL     ow 4929   3.994   0.202   5.615  0.2399  0.1671  0.5482
 1233SOL     hw 4930   4.053   0.182   5.688  0.0140 -2.8409  0.0275
 1233SOL     hw 4931   3.940   0.124   5.606 -2.3915  1.9551 -0.4158
 1233SOL     vw 4932   3.995   0.189   5.624 -0.1372  0.0061  0.3521
 1234SOL     ow 4933   6.578   7.497   0.107 -0.9559 -0.4634  0.8562
 1234SOL     hw 4934   6.545   7.571   0.157 -0.8544  0.3693 -0.2887
 1234SOL     hw 4935   6.635   7.536   0.041  0.8015 -1.7095  1.5446
 1234SOL     vw 4936   6.581   7.512   0.105 -0.7107 -0.5178  0.7960
 1235SOL     ow 4937   3.120   5.519   7.170 -0.4324  0.1848  1.3970
 1235SOL     hw 4938   3.085   5.592   7.120 -0.3238 -1.0339 -0.5510
 1235SOL     hw 4939   3.082   5.441   7.129  1.8970 -1.0101  1.3372
 1235SOL     vw 4940   3.111   5.518   7.158 -0.1109 -0.1340  1.1322
 1236SOL     ow 4941   2.333   0.868   6.127 -0.0958 -0.2743 -0.5517
 1236SOL     hw 4942   2.374   0.841   6.044 -1.0850 -0.0790 -1.1220
 1236SOL     hw 4943   2.259   0.809   6.137 -0.1099 -0.1521  0.0968
 1236SOL     vw 4944   2.329   0.857   6.117 -0.2282 -0.2324 -0.5412
 1237SOL     ow 4945   6.540   2.516   6.048  0.5582  0.3250 -0.2947
 1237SOL     hw 4946   6.557   2.542   6.138 -0.3829 -0.0770  0.0091
 1237SOL     hw 4947   6.591   2.577   5.995  2.1269 -0.2293  0.5377
 1237SOL     vw 4948   6.549   2.528   6.053  0.6411  0.1987 -0.1450
 1238SOL     ow 4949   4.579   0.791   7.062 -0.0783 -0.4900  0.0338
 1238SOL     hw 4950   4.495   0.778   7.018 -0.5276  0.8253  0.4442
 1238SOL     hw 4951   4.642   0.742   7.009 -0.9449 -0.6978 -0.8345
 1238SOL     vw 4952   4.576   0.783   7.049 -0.2520 -0.3439 -0.0267
 1239SOL     ow 4953   1.852   6.765   2.845  0.4341  0.1156 -0.1399
 1239SOL     hw 4954   1.898   6.783   2.927  1.9956  0.1111 -0.9883
 1239SOL     hw 4955   1.862   6.671   2.831 -1.2614 -0.2005  0.4615
 1239SOL     vw 4956   1.859   6.755   2.854  0.4164  0.0730 -0.1725
 1240SOL     ow 4957   2.454   3.243   0.281 -0.0474  0.0703  0.4482
 1240SOL     hw 4958   2.363   3.248   0.311 -0.4732  0.0290 -0.7944
 1240SOL     hw 4959   2.479   3.334   0.265  0.1817  0.0923  0.9093
 1240SOL     vw 4960   2.445   3.255   0.283 -0.0732  0.0678  0.3451
 1241SOL     ow 4961   5.211   7.016   6.111 -0.3492  0.7908  0.6103
 1241SOL     hw 4962   5.139   7.049   6.164 -1.4230 -2.1306  1.1278
 1241SOL     hw 4963   5.219   7.079   6.039 -1.8661  2.3846  1.7644
 1241SOL     vw 4964   5.203   7.029   6.108 -0.6912  0.6154  0.8307
 1242SOL     ow 4965   1.898   6.023   4.972 -0.3323 -0.1565  0.8800
 1242SOL     hw 4966   1.934   5.945   5.015  0.0234 -0.5974 -0.1855
 1242SOL     hw 4967   1.946   6.096   5.011  0.8786 -0.6467  0.3387
 1242SOL     vw 4968   1.909   6.022   4.983 -0.1255 -0.2794  0.6680
 1243SOL     ow 4969   7.300   6.373   3.315 -0.1983 -0.4633 -0.3945
 1243SOL     hw 4970   7.349   6.301   3.354 -2.5894 -2.3685 -0.6406
 1243SOL     hw 4971   7.259   6.334   3.237 -0.9315  1.3957 -0.9830
 1243SOL     vw 4972   7.301   6.358   3.310 -0.6104 -0.4692 -0.5046
 1244SOL     ow 4973   3.983   2.911   0.322  0.4132  0.5656 -0.2834
 1244SOL     hw 4974   3.988   2.945   0.411  0.0175  1.1185 -0.4690
 1244SOL     hw 4975   3.948   2.822   0.333 -0.9239  1.1017  0.0199
 1244SOL     vw 4976   3.979   2.903   0.335  0.1845  0.7093 -0.2679
 1245SOL     ow 4977   2.870   0.135   6.939  0.8306  0.1388 -0.2019
 1245SOL     hw 4978   2.775   0.134   6.952  0.9088 -1.4985  0.4851
 1245SOL     hw 4979   2.901   0.054   6.980  2.4285  0.2142 -1.1671
 1245SOL     vw 4980   2.862   0.124   6.946  1.0518 -0.0673 -0.2387
 1246SOL     ow 4981   2.424   2.815   1.139  0.0720 -0.6562 -0.3539
 1246SOL     hw 4982   2.503   2.763   1.157 -0.2477 -0.5381  1.7167
 1246SOL     hw 4983   2.403   2.855   1.223  0.0491  2.5586 -1.7738
 1246SOL     vw 4984   2.432   2.813   1.153  0.0268 -0.2164 -0.2680
 1247SOL     ow 4985   7.601   2.933   1.203  0.3224 -0.0329  0.8692
 1247SOL     hw 4986   7.631   2.997   1.139 -0.4311  1.5781  2.0769
 1247SOL     hw 4987   7.676   2.917   1.260  1.5524 -2.7382 -1.2490
 1247SOL     vw 4988   7.615   2.939   1.202  0.3850 -0.1773  0.7491
 1248SOL     ow 4989   3.826   7.611   2.028 -0.0883 -0.2450  0.6182
 1248SOL     hw 4990   3.849   7.541   2.089  0.6929 -0.3077  0.2655
 1248SOL     hw 4991   3.906   7.625   1.976  1.8181  4.6267  4.1469
 1248SOL     vw 4992   3.840   7.604   2.029  0.2663  0.3893  1.0371
 1249SOL     ow 4993   3.678   3.055   7.528 -0.2473  0.0127  0.6143
 1249SOL     hw 4994   3.742   2.985   7.514 -2.1745 -1.4125 -1.6369
 1249SOL     hw 4995   3.605   3.012   7.573 -0.7293  1.0087  0.8056
 1249SOL     vw 4996   3.677   3.040   7.532 -0.5651 -0.0440  0.3426
 1250SOL     ow 4997   5.613   3.364   3.143 -0.0423  0.1332 -0.0797
 1250SOL     hw 4998   5.613   3.339   3.235  1.3748  1.7839  0.4178
 1250SOL     hw 4999   5.522   3.390   3.125 -0.1461  0.6849  1.1240
 1250SOL     vw 5000   5.601   3.364   3.153  0.1311  0.4238  0.1447
 1251SOL     ow 5001   5.036   4.999   6.422 -0.2907  0.0858 -0.6017
 1251SOL     hw 5002   5.118   4.982   6.375  0.4587 -0.0043  0.6881
 1251SOL     hw 5003   5.022   4.921   6.475  0.9267  1.6079  2.1732
 1251SOL     vw 5004   5.045   4.987   6.423 -0.0310  0.2749 -0.0653
 1252SOL     ow 5005   1.697   4.283   3.310  0.4623 -0.1804  0.6278
 1252SOL     hw 5006   1.652   4.308   3.391  1.8402  0.1854  1.3058
 1252SOL     hw 5007   1.787   4.310   3.323  0.8996 -0.9024 -0.7051
 1252SOL     vw 5008   1.703   4.290   3.322  0.7018 -0.2275  0.5414
 1253SOL     ow 5009   6.033   6.860   1.964  0.3404  0.7930  0.3885
 1253SOL     hw 5010   6.023   6.913   2.044 -0.4766 -1.0426  1.5663
 1253SOL     hw 5011   5.951   6.874   1.916 -1.1410 -1.4526  2.0580
 1253SOL     vw 5012   6.021   6.869   1.969  0.0372  0.2546  0.7641
 1254SOL     ow 5013   0.557   4.505   5.443  0.1668 -0.2234 -0.1536
 1254SOL     hw 5014   0.572   4.597   5.466 -0.8678 -0.0569 -0.1374
 1254SOL     hw 5015   0.464   4.500   5.421  0.2318 -1.2551 -0.2316
 1254SOL     vw 5016   0.547   4.516   5.443  0.0389 -0.3376 -0.1619
 1255SOL     ow 5017   5.061   6.521   0.830  0.2151 -0.1522 -0.0404
 1255SOL     hw 5018   5.101   6.519   0.743 -1.6402 -0.6065 -0.9296
 1255SOL     hw 5019   4.973   6.488   0.816 -0.0609 -0.4117  2.0746
 1255SOL     vw 5020   5.055   6.517   0.816 -0.0660 -0.2463  0.1214
 1256SOL     ow 5021   3.856   0.972   2.476  0.5923  0.3995  0.2303
 1256SOL     hw 5022   3.922   0.967   2.545 -1.7613 -0.0514  2.6457
 1256SOL     hw 5023   3.887   0.913   2.408  2.3480 -0.2647  1.5429
 1256SOL     vw 5024   3.868   0.964   2.477  0.5134  0.2524  0.7221
 1257SOL     ow 5025   5.789   7.554   1.739 -0.4321 -0.0763  0.0197
 1257SOL     hw 5026   5.840   7.509   1.672 -1.1325 -0.8525 -0.0114
 1257SOL     hw 5027   5.777   7.488   1.808  0.9018  0.9223  1.2577
 1257SOL     vw 5028   5.794   7.539   1.740 -0.3486 -0.0470  0.1789
 1258SOL     ow 5029   0.714   6.006   5.432 -0.0150  0.1909 -0.3331
 1258SOL     hw 5030   0.741   6.007   5.524  1.5304  0.2026 -0.7573
 1258SOL     hw 5031   0.698   6.097   5.410 -2.1484  0.0390  0.3750
 1258SOL     vw 5032   0.715   6.018   5.441 -0.0926  0.1724 -0.2959
 1259SOL     ow 5033   1.158   5.429   4.456 -0.7666 -0.2129 -0.8428
 1259SOL     hw 5034   1.101   5.488   4.408 -1.5545 -1.2154 -1.1838
 1259SOL     hw 5035   1.155   5.459   4.546  0.4352  1.4717 -1.3241
 1259SOL     vw 5036   1.150   5.441   4.461 -0.7120 -0.1228 -0.9513
 1260SOL     ow 5037   6.521   0.772   7.527 -0.1974 -0.5938 -0.3397
 1260SOL     hw 5038   6.514   0.862   7.558  0.6965 -0.4113 -0.6288
 1260SOL     hw 5039   6.468   0.770   7.447 -0.5269 -0.4322 -0.1292
 1260SOL     vw 5040   6.513   0.783   7.521 -0.1230 -0.5484 -0.3500
 1261SOL     ow 5041   6.118   3.091   4.103 -0.1697 -0.6428 -0.6099
 1261SOL     hw 5042   6.037   3.130   4.135 -0.2658 -0.9960 -0.4124
 1261SOL     hw 5043   6.186   3.153   4.127 -0.5337  0.3840 -2.0768
 1261SOL     vw 5044   6.116   3.104   4.110 -0.2301 -0.5540 -0.7775
 1262SOL     ow 5045   3.896   0.649   3.912 -0.6805  0.2546  0.6615
 1262SOL     hw 5046   3.933   0.720   3.860 -2.6051  3.6111  3.4229
 1262SOL     hw 5047   3.946   0.651   3.994 -2.3209  0.1149  1.7169
 1262SOL     vw 5048   3.907   0.659   3.916 -1.1507  0.6790  1.1652
 1263SOL     ow 5049   6.942   5.143   5.639 -0.4759  0.2340  0.1436
 1263SOL     hw 5050   6.968   5.054   5.615 -1.2961 -0.3701  1.3763
 1263SOL     hw 5051   7.025   5.190   5.652 -0.0362 -0.3167 -0.6266
 1263SOL     vw 5052   6.956   5.138   5.638 -0.5262  0.0820  0.2046
 1264SOL     ow 5053   4.622   4.625   7.121 -0.0665  0.5571  0.2927
 1264SOL     hw 5054   4.679   4.700   7.140  0.6562  0.2564 -0.5785
 1264SOL     hw 5055   4.648   4.597   7.033 -1.8274  0.6209 -0.2896
 1264SOL     vw 5056   4.633   4.631   7.112 -0.2036  0.5260  0.1011
 1265SOL     ow 5057   5.986   7.300   4.834 -0.7875  0.1560 -0.5415
 1265SOL     hw 5058   5.972   7.343   4.918 -1.5655 -1.5920  0.2725
 1265SOL     hw 5059   5.902   7.306   4.789 -0.1378  1.8586 -1.6170
 1265SOL     vw 5060   5.973   7.306   4.839 -0.8047  0.1500 -0.5760
 1266SOL     ow 5061   7.341   5.777   5.992  0.1642 -0.5593 -0.4424
 1266SOL     hw 5062   7.280   5.850   5.989 -0.6309 -1.0615  1.6646
 1266SOL     hw 5063   7.295   5.709   6.041  1.7653 -1.5995 -0.2969
 1266SOL     vw 5064   7.327   5.777   5.998  0.2706 -0.7629 -0.1452
 1267SOL     ow 5065   1.421   4.952   7.367  0.0977 -0.9251 -0.0043
 1267SOL     hw 5066   1.335   4.936   7.327 -1.6640 -2.0272  3.7540
 1267SOL     hw 5067   1.470   4.872   7.352 -1.0710 -1.9027  1.1355
 1267SOL     vw 5068   1.416   4.940   7.360 -0.2888 -1.1995  0.6418
 1268SOL     ow 5069   0.714   2.229   7.606 -0.5289 -0.8334 -0.3092
 1268SOL     hw 5070   0.667   2.168   7.663  2.2069 -0.4618  2.6827
 1268SOL     hw 5071   0.674   2.314   7.623 -2.2754 -1.2500 -2.0609
 1268SOL     vw 5072   0.703   2.232   7.616 -0.3984 -0.8395 -0.1454
 1269SOL     ow 5073   3.415   6.362   1.631  0.1851 -0.7670 -0.1408
 1269SOL     hw 5074   3.383   6.312   1.706  2.0219 -0.7871  0.6817
 1269SOL     hw 5075   3.459   6.437   1.669 -2.0818  1.3408 -1.3427
 1269SOL     vw 5076   3.416   6.365   1.646  0.1284 -0.4919 -0.1909
 1270SOL     ow 5077   4.036   1.858   4.373 -0.3737 -0.5340 -0.2911
 1270SOL     hw 5078   4.027   1.877   4.466 -0.0889  2.0116 -0.6922
 1270SOL     hw 5079   3.953   1.886   4.335 -0.0780 -0.4959 -0.9175
 1270SOL     vw 5080   4.024   1.864   4.380 -0.2968 -0.1931 -0.4268
 1271SOL     ow 5081   6.354   4.325   3.533 -0.0028  0.3698  0.1889
 1271SOL     hw 5082   6.269   4.291   3.503  0.1272  0.2383 -0.0357
 1271SOL     hw 5083   6.386   4.377   3.459  1.0435 -1.2415 -0.5400
 1271SOL     vw 5084   6.347   4.327   3.519  0.1526  0.1402  0.0632
 1272SOL     ow 5085   6.130   3.799   3.743  0.1570  0.2058 -0.4818
 1272SOL     hw 5086   6.180   3.867   3.698 -2.4995  2.1933 -0.6672
 1272SOL     hw 5087   6.094   3.745   3.673 -0.1645  0.4468 -0.5047
 1272SOL     vw 5088   6.132   3.801   3.728 -0.2358  0.4997 -0.5093
 1273SOL     ow 5089   5.229   5.643   5.176  0.3937  1.1615  0.0644
 1273SOL     hw 5090   5.264   5.573   5.122  0.2086  1.9200 -1.0877
 1273SOL     hw 5091   5.282   5.642   5.255  1.9532  1.2370 -0.9360
 1273SOL     vw 5092   5.240   5.634   5.179  0.5751  1.2717 -0.2196
 1274SOL     ow 5093   3.343   3.526   1.750 -0.3483 -0.2398  0.1324
 1274SOL     hw 5094   3.280   3.538   1.679 -1.1639  0.1329  0.8983
 1274SOL     hw 5095   3.351   3.613   1.789 -0.2678 -0.5422  0.7949
 1274SOL     vw 5096   3.336   3.539   1.745 -0.4452 -0.2307  0.3209
 1275SOL     ow 5097   1.288   6.870   6.282 -0.1471 -0.3333  0.2910
 1275SOL     hw 5098   1.274   6.807   6.353 -1.8821 -1.3354 -0.8686
 1275SOL     hw 5099   1.373   6.848   6.246 -0.5161 -1.7364  0.2144
 1275SOL     vw 5100   1.297   6.859   6.287 -0.4247 -0.6509  0.1278
 1276SOL     ow 5101   2.491   2.563   0.096  0.3812  0.0034 -0.4177
 1276SOL     hw 5102   2.522   2.639   0.046  2.9987 -1.2006 -0.8149
 1276SOL     hw 5103   2.512   2.584   0.187  1.2777 -0.2908 -0.5476
 1276SOL     vw 5104   2.498   2.576   0.101  0.8448 -0.1943 -0.4872
 1277SOL     ow 5105   3.833   0.890   5.501 -0.1270 -0.0947 -0.0316
 1277SOL     hw 5106   3.774   0.965   5.498  0.5006  0.4086  0.0297
 1277SOL     hw 5107   3.813   0.847   5.585 -0.3004  0.1570  0.0576
 1277SOL     vw 5108   3.823   0.894   5.512 -0.0670  0.0049 -0.0119
 1278SOL     ow 5109   5.121   2.558   7.220 -0.4134 -1.0766  0.5231
 1278SOL     hw 5110   5.088   2.506   7.147 -1.3602  1.4087 -0.9654
 1278SOL     hw 5111   5.216   2.554   7.213 -0.4930 -0.6688 -1.0573
 1278SOL     vw 5112   5.129   2.551   7.210 -0.5488 -0.6950  0.1183
 1279SOL     ow 5113   6.243   2.832   1.282 -0.0228  0.2090  0.6124
 1279SOL     hw 5114   6.224   2.872   1.367  1.3254  1.5294  0.3579
 1279SOL     hw 5115   6.268   2.742   1.302 -1.6758 -0.1012  1.3839
 1279SOL     vw 5116   6.244   2.826   1.296 -0.0629  0.3424  0.6807
 1280SOL     ow 5117   3.244   7.011   3.461 -0.6523  0.2568  0.0795
 1280SOL     hw 5118   3.261   7.068   3.536  0.4380  0.2637 -0.1494
 1280SOL     hw 5119   3.218   6.927   3.500 -4.5621  1.4319  0.4330
 1280SOL     vw 5120   3.243   7.007   3.476 -1.0242  0.4127  0.0960
 1281SOL     ow 5121   6.893   5.744   1.755 -0.1561  0.4554  0.1720
 1281SOL     hw 5122   6.802   5.765   1.776 -0.1683 -0.8348  1.6086
 1281SOL     hw 5123   6.888   5.682   1.682 -0.3270  1.6447 -0.8520
 1281SOL     vw 5124   6.881   5.739   1.748 -0.1800  0.4423  0.2265
 1282SOL     ow 5125   1.202   2.377   0.524  0.3179  0.3506  0.1359
 1282SOL     hw 5126   1.293   2.348   0.531  0.3403  0.5020  0.4549
 1282SOL     hw 5127   1.154   2.298   0.499  0.3869  0.0418  0.9628
 1282SOL     vw 5128   1.207   2.363   0.522  0.3299  0.3297  0.2871
 1283SOL     ow 5129   5.137   7.316   5.342 -0.4106 -0.0451  0.0884
 1283SOL     hw 5130   5.228   7.288   5.350 -0.8566 -1.6692 -0.1404
 1283SOL     hw 5131   5.110   7.285   5.256 -0.3990  2.9099 -1.1092
 1283SOL     vw 5132   5.146   7.308   5.332 -0.4675  0.1304 -0.0997
 1284SOL     ow 5133   0.806   7.125   1.634  0.5901  0.3870 -0.1605
 1284SOL     hw 5134   0.889   7.091   1.667 -0.2764 -1.1290  0.5354
 1284SOL     hw 5135   0.740   7.094   1.696 -0.7860 -0.5000 -1.9688
 1284SOL     vw 5136   0.808   7.116   1.646  0.2942  0.0701 -0.3073
 1285SOL     ow 5137   2.380   7.237   2.214  0.0310  0.3322 -0.4363
 1285SOL     hw 5138   2.372   7.145   2.187  1.3815  0.7524 -2.4677
 1285SOL     hw 5139   2.291   7.271   2.210 -0.3625 -0.6584 -0.4709
 1285SOL     vw 5140   2.367   7.229   2.210  0.1572  0.2570 -0.7091
 1286SOL     ow 5141   3.202   6.289   1.387 -0.1820  0.2089 -1.0106
 1286SOL     hw 5142   3.166   6.272   1.474  0.2304 -0.1449 -0.8984
 1286SOL     hw 5143   3.227   6.202   1.355  1.3776  0.5052 -0.7065
 1286SOL     vw 5144   3.201   6.275   1.394  0.0782  0.2012 -0.9557
 1287SOL     ow 5145   4.579   5.607   6.231 -0.0243  0.2254 -0.3539
 1287SOL     hw 5146   4.554   5.527   6.277 -0.4537  0.7235  0.2937
 1287SOL     hw 5147   4.659   5.636   6.275 -0.8292  1.0956  0.5969
 1287SOL     vw 5148   4.586   5.600   6.243 -0.1869  0.4063 -0.1431
 1288SOL     ow 5149   4.677   0.142   7.456  0.0042  0.2651 -1.2874
 1288SOL     hw 5150   4.587   0.172   7.464 -0.3200 -0.8991 -0.2497
 1288SOL     hw 5151   4.715   0.197   7.388 -1.6567  0.3884 -2.1593
 1288SOL     vw 5152   4.670   0.153   7.448 -0.2575  0.1278 -1.2655
 1289SOL     ow 5153   4.536   0.464   6.761 -0.1826  0.1210  0.1082
 1289SOL     hw 5154   4.490   0.437   6.840  0.1916  1.2670  0.7390
 1289SOL     hw 5155   4.486   0.539   6.728 -1.7006 -1.7175 -2.0911
 1289SOL     vw 5156   4.524   0.470   6.767 -0.3335  0.0296 -0.0989
 1290SOL     ow 5157   4.936   1.458   4.038 -0.3658 -0.4656 -0.0272
 1290SOL     hw 5158   4.982   1.400   3.978  1.4186  0.9111 -0.0720
 1290SOL     hw 5159   4.845   1.458   4.007  0.2757 -0.6437 -2.0693
 1290SOL     vw 5160   4.930   1.450   4.026 -0.0455 -0.3075 -0.3023
 1291SOL     ow 5161   6.063   1.465   2.923 -0.7145 -0.1530 -0.8062
 1291SOL     hw 5162   5.984   1.458   2.975 -1.2676  1.1931 -1.4065
 1291SOL     hw 5163   6.135   1.455   2.985 -1.3550 -0.5539 -0.1241
 1291SOL     vw 5164   6.062   1.463   2.938 -0.8719 -0.0283 -0.7954
 1292SOL     ow 5165   1.192   3.703   1.763 -0.4269 -0.1802 -0.1209
 1292SOL     hw 5166   1.169   3.700   1.856 -1.0766  1.4585 -0.1899
 1292SOL     hw 5167   1.280   3.666   1.758 -0.2763 -0.0322  1.1895
 1292SOL     vw 5168   1.200   3.698   1.774 -0.4927  0.0556  0.0429
 1293SOL     ow 5169   5.033   5.256   3.113 -0.0979  0.2515  0.3481
 1293SOL     hw 5170   5.060   5.184   3.169 -0.1052  0.5256  0.7065
 1293SOL     hw 5171   5.111   5.311   3.105  1.2050 -1.7845 -3.1510
 1293SOL     vw 5172   5.047   5.254   3.119  0.0732  0.0188 -0.0663
 1294SOL     ow 5173   6.477   5.766   4.656  0.3355 -0.1150 -0.0267
 1294SOL     hw 5174   6.412   5.702   4.627  0.2679 -1.1167  2.1557
 1294SOL     hw 5175   6.559   5.717   4.659  0.0610 -0.5725  2.8834
 1294SOL     vw 5176   6.479   5.752   4.652  0.2904 -0.3078  0.6452
 1295SOL     ow 5177   3.372   1.138   2.451  0.3132  0.7597 -0.8705
 1295SOL     hw 5178   3.309   1.084   2.403 -0.5607 -0.3317  1.3759
 1295SOL     hw 5179   3.388   1.213   2.393 -0.6206 -0.4902 -2.8540
 1295SOL     vw 5180   3.365   1.141   2.437  0.0747  0.4508 -0.8358
 1296SOL     ow 5181   3.238   5.836   2.817  0.5443 -0.3043 -0.4101
 1296SOL     hw 5182   3.237   5.898   2.744  2.3442 -2.6284 -2.6136
 1296SOL     hw 5183   3.320   5.853   2.863  0.0601  0.2642  0.2558
 1296SOL     vw 5184   3.248   5.846   2.813  0.7180 -0.5360 -0.6130
 1297SOL     ow 5185   7.276   3.925   3.937 -0.3877  0.0094 -0.3252
 1297SOL     hw 5186   7.313   3.838   3.950 -0.5876  0.1378  1.4060
 1297SOL     hw 5187   7.185   3.909   3.911 -1.0191 -0.3654  1.8947
 1297SOL     vw 5188   7.269   3.912   3.935 -0.4973 -0.0230  0.1961
 1298SOL     ow 5189   1.776   6.847   3.747 -0.2311  0.2190  0.2734
 1298SOL     hw 5190   1.758   6.753   3.749  0.1208  0.1556  1.1420
 1298SOL     hw 5191   1.772   6.874   3.839  0.8702  0.8162  0.1644
 1298SOL     vw 5192   1.773   6.838   3.759 -0.0394  0.2892  0.3736
 1299SOL     ow 5193   1.959   2.874   4.210  0.8196 -0.4711 -0.4973
 1299SOL     hw 5194   1.984   2.905   4.297  4.3418 -3.5307 -0.1497
 1299SOL     hw 5195   1.985   2.945   4.151 -1.3572  1.5289  0.7544
 1299SOL     vw 5196   1.966   2.888   4.213  0.9971 -0.6109 -0.2863
 1300SOL     ow 5197   7.106   5.315   2.153  0.1841  0.0625  0.0030
 1300SOL     hw 5198   7.117   5.389   2.093 -1.3134 -1.4588 -2.3045
 1300SOL     hw 5199   7.185   5.262   2.141  0.4058  0.3303  0.2605
 1300SOL     vw 5200   7.118   5.318   2.144  0.0157 -0.1030 -0.2675
 1301SOL     ow 5201   2.373   0.111   6.226 -0.0106  0.4518  0.1468
 1301SOL     hw 5202   2.278   0.123   6.231 -0.5941 -0.6115 -4.0928
 1301SOL     hw 5203   2.390   0.029   6.271 -1.7180 -1.0305 -1.7433
 1301SOL     vw 5204   2.362   0.102   6.232 -0.3128  0.1160 -0.6618
 1302SOL     ow 5205   5.238   1.632   2.388  0.2899  0.7500 -0.3215
 1302SOL     hw 5206   5.173   1.645   2.319  2.0768  1.5122 -1.9222
 1302SOL     hw 5207   5.302   1.702   2.375  1.0608  0.5016  1.6976
 1302SOL     vw 5208   5.238   1.643   2.377  0.6273  0.8178 -0.2662
 1303SOL     ow 5209   3.776   6.032   6.358  0.0303  0.1549  0.4838
 1303SOL     hw 5210   3.803   6.019   6.449  1.1769  0.7145  0.2469
 1303SOL     hw 5211   3.858   6.031   6.308 -0.6935 -2.9916 -0.9575
 1303SOL     vw 5212   3.791   6.030   6.363  0.0859 -0.1862  0.2623
 1304SOL     ow 5213   2.404   0.484   2.438 -0.0787  0.1644 -0.0081
 1304SOL     hw 5214   2.484   0.537   2.443  0.0147  0.0811 -0.5808
 1304SOL     hw 5215   2.393   0.449   2.527 -0.0701  1.0422  0.3519
 1304SOL     vw 5216   2.413   0.487   2.451 -0.0652  0.2692 -0.0360
 1305SOL     ow 5217   1.432   5.558   4.527  0.3400 -0.0873  0.3993
 1305SOL     hw 5218   1.443   5.570   4.621 -2.4625  2.0262  0.5763
 1305SOL     hw 5219   1.501   5.611   4.487 -0.0632  1.1649  1.3042
 1305SOL     vw 5220   1.443   5.566   4.534 -0.0829  0.3567  0.5422
 1306SOL     ow 5221   3.371   0.337   6.745 -0.0464 -0.4174  0.3885
 1306SOL     hw 5222   3.372   0.393   6.667 -0.2442 -2.6215 -1.3332
 1306SOL     hw 5223   3.439   0.271   6.728  2.2672  0.8761  3.6714
 1306SOL     vw 5224   3.380   0.336   6.732  0.2328 -0.5375  0.5946
 1307SOL     ow 5225   6.483   0.739   5.690 -0.3095  1.0098 -0.0886
 1307SOL     hw 5226   6.495   0.770   5.780  1.4498  0.8886 -0.2378
 1307SOL     hw 5227   6.496   0.817   5.636 -0.2459  0.8701 -0.2766
 1307SOL     vw 5228   6.486   0.753   5.695 -0.0689  0.9754 -0.1333
 1308SOL     ow 5229   1.535   5.052   4.272  0.5114  0.1791 -0.1945
 1308SOL     hw 5230   1.601   5.010   4.327  1.7465 -0.6695 -2.1934
 1308SOL     hw 5231   1.586   5.103   4.208 -0.7607 -0.1526 -1.5425
 1308SOL     vw 5232   1.550   5.053   4.271  0.5065  0.0234 -0.6361
 1309SOL     ow 5233   5.397   1.728   2.634 -0.4944 -0.6488  0.4267
 1309SOL     hw 5234   5.393   1.798   2.699 -0.9779 -0.6522  0.4021
 1309SOL     hw 5235   5.312   1.685   2.639 -1.7423  1.1755 -2.2002
 1309SOL     vw 5236   5.385   1.732   2.643 -0.7229 -0.4086  0.0769
 1310SOL     ow 5237   4.184   4.684   1.627 -0.3579 -0.0760  0.1410
 1310SOL     hw 5238   4.195   4.774   1.657 -0.3387  0.1158 -0.4206
 1310SOL     hw 5239   4.106   4.686   1.571  2.5929  0.9041 -4.5795
 1310SOL     vw 5240   4.175   4.696   1.623  0.0339  0.0787 -0.5559
 1311SOL     ow 5241   5.002   0.076   0.275 -0.3444  0.0069  0.4324
 1311SOL     hw 5242   4.995   0.136   0.201 -1.1556 -1.4706 -0.7441
 1311SOL     hw 5243   4.965   0.124   0.349 -1.1468  0.8888 -0.5195
 1311SOL     vw 5244   4.996   0.090   0.275 -0.5572 -0.0717  0.1516
 1312SOL     ow 5245   5.554   5.357   6.053  0.1988 -0.7146  0.2423
 1312SOL     hw 5246   5.555   5.300   6.130  2.1625 -0.0255  0.7925
 1312SOL     hw 5247   5.640   5.345   6.013  0.5737  1.6046  0.2087
 1312SOL     vw 5248   5.565   5.348   6.058  0.5071 -0.3176  0.3107
 1313SOL     ow 5249   4.398   0.364   3.369  0.0012  0.1239 -0.0525
 1313SOL     hw 5250   4.475   0.307   3.361 -0.2077  0.0887 -2.6660
 1313SOL     hw 5251   4.324   0.303   3.368 -0.1814  0.0766  3.3938
 1313SOL     vw 5252   4.399   0.348   3.368 -0.0508  0.1130  0.0572
 1314SOL     ow 5253   7.054   1.474   6.609 -0.1237  0.2921  0.4116
 1314SOL     hw 5254   7.043   1.382   6.635  0.5967  0.2360  0.5644
 1314SOL     hw 5255   7.058   1.472   6.514  0.3069  0.1062  0.4305
 1314SOL     vw 5256   7.053   1.461   6.600  0.0279  0.2601  0.4342
 1315SOL     ow 5257   4.044   5.886   7.329  0.0327  0.3089  0.4983
 1315SOL     hw 5258   4.051   5.936   7.410 -0.3987  0.3367  0.5209
 1315SOL     hw 5259   3.953   5.899   7.301 -0.6035 -1.8097  1.3962
 1315SOL     vw 5260   4.033   5.894   7.336 -0.1082  0.0329  0.6196
 1316SOL     ow 5261   5.726   6.032   7.021  0.0669  0.0437  0.7919
 1316SOL     hw 5262   5.701   5.945   6.989  2.2552 -0.7435  1.0410
 1316SOL     hw 5263   5.749   6.081   6.942 -1.3126  0.4984  0.6375
 1316SOL     vw 5264   5.726   6.027   7.007  0.1736  0.0000  0.8044
 1317SOL     ow 5265   0.878   1.528   0.745 -0.1499 -0.4782 -0.0621
 1317SOL     hw 5266   0.972   1.526   0.760 -0.0916  1.8457  0.2104
 1317SOL     hw 5267   0.846   1.601   0.797 -2.1896 -1.4243  0.1259
 1317SOL     vw 5268   0.886   1.537   0.754 -0.4113 -0.2964 -0.0013
 1318SOL     ow 5269   3.620   1.058   4.604  0.5117 -0.0717  0.2045
 1318SOL     hw 5270   3.666   1.089   4.526 -0.8603  1.9434  0.1249
 1318SOL     hw 5271   3.528   1.075   4.587  0.0065 -1.0620  1.6498
 1318SOL     vw 5272   3.614   1.064   4.592  0.2640  0.0635  0.3848
 1319SOL     ow 5273   5.456   6.218   2.145  0.2348 -0.4116  0.3330
 1319SOL     hw 5274   5.419   6.275   2.213  2.1523  1.5079 -0.1053
 1319SOL     hw 5275   5.518   6.162   2.192  3.2510  2.4160  0.1093
 1319SOL     vw 5276   5.459   6.218   2.160  0.8860  0.2148  0.2456
 1320SOL     ow 5277   3.352   6.879   0.996 -0.4159  0.3635 -0.2641
 1320SOL     hw 5278   3.339   6.938   0.922  1.6975 -0.8805 -1.7304
 1320SOL     hw 5279   3.447   6.871   1.004 -0.6200 -0.9090  1.4804
 1320SOL     vw 5280   3.363   6.886   0.987 -0.1640  0.0317 -0.2274
 1321SOL     ow 5281   3.876   5.514   0.646  0.4522  0.4614 -0.1302
 1321SOL     hw 5282   3.871   5.576   0.573 -3.5756 -2.0772 -2.3984
 1321SOL     hw 5283   3.961   5.472   0.637  1.2366  2.2186 -1.5054
 1321SOL     vw 5284   3.886   5.516   0.635  0.0243  0.3586 -0.6109
 1322SOL     ow 5285   6.676   5.345   0.052  0.2005  0.3473 -0.1521
 1322SOL     hw 5286   6.717   5.294  -0.017  1.5500 -1.3673  1.8004
 1322SOL     hw 5287   6.747   5.399   0.088  0.1197 -0.4773  1.3365
 1322SOL     vw 5288   6.691   5.346   0.048  0.3679  0.0124  0.3019
 1323SOL     ow 5289   0.804   3.785   5.089  0.2112 -0.1431 -0.0864
 1323SOL     hw 5290   0.877   3.846   5.099 -0.5776  1.1112 -1.4830
 1323SOL     hw 5291   0.726   3.841   5.086 -0.6085 -1.2692 -0.7766
 1323SOL     vw 5292   0.803   3.801   5.090 -0.0010 -0.1261 -0.3617
 1324SOL     ow 5293   3.300   0.710   5.021 -0.4691 -0.1179 -0.0721
 1324SOL     hw 5294   3.393   0.695   5.037 -0.5065  0.4192  0.7057
 1324SOL     hw 5295   3.298   0.766   4.943 -0.2008 -1.0821 -0.7886
 1324SOL     vw 5296   3.312   0.716   5.013 -0.4388 -0.1743 -0.0639
 1325SOL     ow 5297   0.258   0.329   3.796 -0.0064  0.3607  0.0705
 1325SOL     hw 5298   0.310   0.356   3.720  0.1900  0.5377  0.2694
 1325SOL     hw 5299   0.174   0.302   3.758  0.3051 -0.1458 -0.2732
 1325SOL     vw 5300   0.253   0.329   3.781  0.0606  0.3172  0.0514
 1326SOL     ow 5301   6.666   1.427   1.532 -0.3203 -0.2089 -0.4665
 1326SOL     hw 5302   6.630   1.474   1.457 -1.8646  0.1167  0.4440
 1326SOL     hw 5303   6.759   1.417   1.512 -0.6502  0.1059 -2.2898
 1326SOL     vw 5304   6.674   1.432   1.520 -0.5674 -0.1244 -0.5869
 1327SOL     ow 5305   2.038   5.753   3.200  0.1213 -0.2234 -0.9789
 1327SOL     hw 5306   1.994   5.836   3.218  1.2006  0.0683  0.5205
 1327SOL     hw 5307   2.098   5.772   3.128  3.2670  1.5011  1.7979
 1327SOL     vw 5308   2.040   5.766   3.193  0.6787  0.0427 -0.4147
 1328SOL     ow 5309   4.265   2.893   4.676 -0.5200  0.0559 -0.1347
 1328SOL     hw 5310   4.319   2.965   4.643 -2.7053  2.1055  0.5519
 1328SOL     hw 5311   4.182   2.933   4.700 -2.2991 -2.9198 -0.8326
 1328SOL     vw 5312   4.261   2.907   4.675 -1.0433 -0.0664 -0.1364
 1329SOL     ow 5313   6.966   0.384   3.279  0.1397  0.3655 -0.6917
 1329SOL     hw 5314   6.924   0.301   3.302  0.2578  0.2613 -0.8513
 1329SOL     hw 5315   7.059   0.362   3.269  0.4501  0.8260  0.8865
 1329SOL     vw 5316   6.973   0.370   3.281  0.1960  0.4125 -0.5045
 1330SOL     ow 5317   0.955   2.740   6.668  0.1392  0.3562 -0.4235
 1330SOL     hw 5318   0.976   2.734   6.761 -1.4144  0.2900 -0.0486
 1330SOL     hw 5319   0.985   2.827   6.642  0.3030  0.4952  0.2149
 1330SOL     vw 5320   0.961   2.751   6.677 -0.0442  0.3659 -0.2897
 1331SOL     ow 5321   1.554   3.166   6.134  0.0626  0.1339  0.4253
 1331SOL     hw 5322   1.566   3.091   6.191  0.0709  0.0428  0.3054
 1331SOL     hw 5323   1.460   3.168   6.115  0.1423 -0.1737 -0.0127
 1331SOL     vw 5324   1.543   3.156   6.139  0.0742  0.0812  0.3517
 1332SOL     ow 5325   7.253   4.838   5.011  0.2393 -0.3482  0.0175
 1332SOL     hw 5326   7.304   4.910   4.974 -0.0481 -0.0220  0.2577
 1332SOL     hw 5327   7.311   4.798   5.076  0.3657 -0.2756 -0.0511
 1332SOL     vw 5328   7.267   4.842   5.015  0.2182 -0.2956  0.0403
 1333SOL     ow 5329   6.145   5.624   0.488  0.7660 -0.1291  0.1713
 1333SOL     hw 5330   6.236   5.625   0.518  0.4007  0.1045  1.2901
 1333SOL     hw 5331   6.104   5.698   0.532  0.6259  1.3492 -2.2626
 1333SOL     vw 5332   6.152   5.634   0.498  0.6995  0.0970 -0.0022
 1334SOL     ow 5333   3.909   1.349   1.190 -0.0649 -0.1383  0.3143
 1334SOL     hw 5334   4.000   1.336   1.217  0.9857  2.6331 -1.5018
 1334SOL     hw 5335   3.912   1.349   1.094 -2.0796 -0.3475  0.2053
 1334SOL     vw 5336   3.921   1.347   1.181 -0.1922  0.1997  0.0603
 1335SOL     ow 5337   4.665   6.758   6.756  0.9269 -0.1758  0.6591
 1335SOL     hw 5338   4.630   6.778   6.669 -0.9708 -2.7967  0.6799
 1335SOL     hw 5339   4.760   6.754   6.743  0.7556  0.3998 -1.0711
 1335SOL     vw 5340   4.673   6.760   6.743  0.6540 -0.4458  0.4337
 1336SOL     ow 5341   2.536   5.264   3.122 -0.0592 -0.7282  0.2943
 1336SOL     hw 5342   2.509   5.176   3.093  0.6076 -1.0672  0.6724
 1336SOL     hw 5343   2.476   5.323   3.077  0.2096 -1.3077 -0.8838
 1336SOL     vw 5344   2.524   5.260   3.112  0.0643 -0.8495  0.1887
 1337SOL     ow 5345   1.195   3.281   1.851 -0.1267  0.0931 -0.1364
 1337SOL     hw 5346   1.277   3.301   1.897 -2.0281  0.8067  3.2668
 1337SOL     hw 5347   1.199   3.186   1.836  0.1687 -0.4295  2.7069
 1337SOL     vw 5348   1.207   3.271   1.855 -0.3386  0.1183  0.6877
 1338SOL     ow 5349   7.518   5.667   3.613 -0.6291  0.0013  0.8466
 1338SOL     hw 5350   7.484   5.752   3.585 -1.5427  0.0669  2.0878
 1338SOL     hw 5351   7.476   5.605   3.554 -1.3570  0.2665  1.0707
 1338SOL     vw 5352   7.508   5.670   3.601 -0.8457  0.0448  1.0399
 1339SOL     ow 5353   2.964   6.675   2.505  0.5435 -0.5898 -0.0023
 1339SOL     hw 5354   3.029   6.652   2.571  2.1346  1.2323 -0.8336
 1339SOL     hw 5355   3.012   6.727   2.440 -1.7508  1.0358 -0.5697
 1339SOL     vw 5356   2.979   6.679   2.505  0.4507 -0.1349 -0.1868
 1340SOL     ow 5357   7.543   1.561   1.636  0.1084 -0.6047 -0.2358
 1340SOL     hw 5358   7.482   1.544   1.709  0.7426  1.4205  0.8473
 1340SOL     hw 5359   7.609   1.619   1.673  1.3023 -0.7180 -2.0678
 1340SOL     vw 5360   7.543   1.567   1.651  0.3493 -0.3524 -0.3346
 1341SOL     ow 5361   1.981   0.521   3.153 -0.5011  0.0646 -0.4376
 1341SOL     hw 5362   1.913   0.454   3.158 -0.1578 -0.1775  1.8703
 1341SOL     hw 5363   1.982   0.561   3.240  2.1712  0.1719 -0.4536
 1341SOL     vw 5364   1.972   0.518   3.165 -0.1032  0.0468 -0.1354
 1342SOL     ow 5365   2.242   3.836   4.191  0.5718  0.1590 -0.4892
 1342SOL     hw 5366   2.175   3.856   4.256 -0.0883 -2.8158 -0.0868
 1342SOL     hw 5367   2.300   3.774   4.236  0.8345 -0.9724 -2.2928
 1342SOL     vw 5368   2.241   3.830   4.206  0.5194 -0.3828 -0.6740
 1343SOL     ow 5369   6.895   3.307   6.825  0.9387  0.1144 -0.1212
 1343SOL     hw 5370   6.831   3.237   6.821  1.3876 -0.3116  0.0537
 1343SOL     hw 5371   6.951   3.285   6.899 -0.9800  2.4673  2.2322
 1343SOL     vw 5372   6.894   3.295   6.834  0.7451  0.3687  0.2127
 1344SOL     ow 5373   7.257   0.627   1.543  0.5103  0.3871  0.6319
 1344SOL     hw 5374   7.269   0.705   1.598 -0.6634  0.8330  0.2869
 1344SOL     hw 5375   7.342   0.613   1.502  0.6773  1.6358  0.5161
 1344SOL     vw 5376   7.270   0.636   1.545  0.3774  0.6107  0.5711
 1345SOL     ow 5377   3.171   4.223   2.685  0.1046  0.0531  0.2068
 1345SOL     hw 5378   3.075   4.217   2.684  0.2095 -2.6081 -1.0109
 1345SOL     hw 5379   3.199   4.176   2.607  2.4664 -0.5985  1.3693
 1345SOL     vw 5380   3.162   4.216   2.675  0.4300 -0.3843  0.1997
 1346SOL     ow 5381   1.741   2.585   2.381  0.1528 -0.6018  0.1586
 1346SOL     hw 5382   1.794   2.660   2.354  0.8632 -1.3549 -0.5396
 1346SOL     hw 5383   1.687   2.620   2.453 -0.0107  0.7607 -0.5853
 1346SOL     vw 5384   1.741   2.600   2.387  0.2249 -0.5214 -0.0317
 1347SOL     ow 5385   3.067   6.509   4.653  0.3673  0.1152  0.0395
 1347SOL     hw 5386   3.073   6.435   4.592  1.9556  1.1227 -1.1041
 1347SOL     hw 5387   3.036   6.470   4.735  2.6005 -2.1108 -0.0679
 1347SOL     vw 5388   3.063   6.494   4.655  0.8717 -0.0458 -0.1256
 1348SOL     ow 5389   5.253   6.385   1.907 -0.1681 -0.1611 -0.3431
 1348SOL     hw 5390   5.254   6.428   1.821  0.1672 -1.3013 -0.9209
 1348SOL     hw 5391   5.215   6.451   1.965  0.5731  1.0387 -1.1438
 1348SOL     vw 5392   5.248   6.400   1.903 -0.0262 -0.1533 -0.5251
 1349SOL     ow 5393   1.963   4.116   0.376  0.0817  0.0475  0.2256
 1349SOL     hw 5394   1.963   4.021   0.391  0.8266  0.1387  0.8446
 1349SOL     hw 5395   1.881   4.133   0.330  0.2335 -0.9821 -0.4415
 1349SOL     vw 5396   1.952   4.106   0.372  0.2000 -0.0765  0.2193
 1350SOL     ow 5397   6.939   3.866   1.157  0.4163  0.0189 -0.3723
 1350SOL     hw 5398   6.985   3.949   1.145  0.4704  0.1151  0.4762
 1350SOL     hw 5399   6.934   3.829   1.069  4.1572 -1.0634 -0.3098
 1350SOL     vw 5400   6.945   3.872   1.144  0.9170 -0.1112 -0.2521
 1351SOL     ow 5401   0.549   6.425   4.045  0.2000  0.3602 -0.3263
 1351SOL     hw 5402   0.518   6.374   4.120  0.6907 -0.3401 -0.6007
 1351SOL     hw 5403   0.548   6.516   4.077 -0.4538  0.1687  0.2335
 1351SOL     vw 5404   0.545   6.431   4.059  0.1785  0.2427 -0.2887
 1352SOL     ow 5405   6.535   5.667   2.916 -0.2890 -0.5093  0.3532
 1352SOL     hw 5406   6.613   5.704   2.876 -0.3389 -0.8092 -0.0264
 1352SOL     hw 5407   6.492   5.742   2.958 -0.1761 -0.2093 -0.0556
 1352SOL     vw 5408   6.539   5.682   2.916 -0.2806 -0.5093  0.2493
 1353SOL     ow 5409   5.098   6.961   2.473  0.1598  0.0064 -0.1161
 1353SOL     hw 5410   5.027   6.999   2.524 -1.9956 -2.7085 -0.8420
 1353SOL     hw 5411   5.134   7.034   2.423 -1.1722  1.7255  1.3008
 1353SOL     vw 5412   5.094   6.976   2.473 -0.3004 -0.1249 -0.0249
 1354SOL     ow 5413   3.833   3.153   0.079  0.4343  0.4575 -0.1702
 1354SOL     hw 5414   3.775   3.138   0.004  0.1914  0.2185  0.0628
 1354SOL     hw 5415   3.787   3.114   0.153  1.3928 -0.7642 -0.1636
 1354SOL     vw 5416   3.819   3.146   0.079  0.5287  0.2649 -0.1386
 1355SOL     ow 5417   6.946   5.890   3.322 -0.7930 -0.7660  0.3913
 1355SOL     hw 5418   7.013   5.835   3.282  0.7680  1.2236  0.1285
 1355SOL     hw 5419   6.962   5.883   3.416  0.5777  0.5962  0.2854
 1355SOL     vw 5420   6.957   5.882   3.329 -0.4063 -0.3235  0.3426
 1356SOL     ow 5421   1.930   2.727   6.125 -0.2489  0.3068  0.1719
 1356SOL     hw 5422   1.883   2.646   6.145 -1.2790  0.8539  0.0047
 1356SOL     hw 5423   2.018   2.713   6.160 -0.3419 -0.9731 -0.0698
 1356SOL     vw 5424   1.936   2.715   6.132 -0.3970  0.2102  0.1183
 1357SOL     ow 5425   4.652   5.297   2.203  0.3857 -0.1510 -0.4704
 1357SOL     hw 5426   4.709   5.248   2.143  2.6151 -1.9946  2.7770
 1357SOL     hw 5427   4.706   5.370   2.233  0.3282 -0.7032  1.0782
 1357SOL     vw 5428   4.667   5.300   2.199  0.6723 -0.4671  0.1625
 1358SOL     ow 5429   7.593   6.478   1.945  0.0150  0.4321  0.1499
 1358SOL     hw 5430   7.670   6.423   1.957  1.0644  1.6718 -0.6621
 1358SOL     hw 5431   7.542   6.432   1.878  0.0290 -0.3894  0.6815
 1358SOL     vw 5432   7.596   6.465   1.937  0.1552  0.4876  0.1129
 1359SOL     ow 5433   4.993   2.623   6.790  0.0433 -0.3867 -0.2188
 1359SOL     hw 5434   4.990   2.630   6.695 -0.7191  2.4182 -0.0762
 1359SOL     hw 5435   5.021   2.710   6.819  0.6687 -1.3002  2.1254
 1359SOL     vw 5436   4.996   2.636   6.781  0.0253 -0.1372  0.1094
 1360SOL     ow 5437   6.904   5.612   7.402  0.3689 -0.2042  0.2415
 1360SOL     hw 5438   6.886   5.564   7.483  1.0489 -0.8826  0.0074
 1360SOL     hw 5439   6.932   5.544   7.340  0.0006  0.3265 -0.5165
 1360SOL     vw 5440   6.905   5.597   7.404  0.4103 -0.2239  0.1109
 1361SOL     ow 5441   3.904   3.125   7.177 -0.5613  0.9432 -0.0634
 1361SOL     hw 5442   3.927   3.062   7.246 -0.6330  1.0085  0.0194
 1361SOL     hw 5443   3.972   3.113   7.111  0.2841  1.8275  0.6160
 1361SOL     vw 5444   3.916   3.115   7.177 -0.4591  1.0684  0.0372
 1362SOL     ow 5445   3.417   1.427   1.416 -0.2642 -1.1471  0.0095
 1362SOL     hw 5446   3.388   1.376   1.492 -3.6946  1.3591  0.6078
 1362SOL     hw 5447   3.355   1.403   1.347  0.2462 -0.3677 -0.7258
 1362SOL     vw 5448   3.405   1.417   1.417 -0.6495 -0.7136 -0.0085
 1363SOL     ow 5449   7.406   5.240   3.287  0.3698 -0.3175 -0.1576
 1363SOL     hw 5450   7.414   5.276   3.376  3.6756 -1.7680  0.2910
 1363SOL     hw 5451   7.316   5.207   3.282 -0.6172  1.8208  1.7788
 1363SOL     vw 5452   7.395   5.241   3.298  0.6754 -0.2270  0.1570
 1364SOL     ow 5453   5.755   7.269   6.068  0.6204 -0.2034 -0.0188
 1364SOL     hw 5454   5.750   7.289   6.161  3.1057 -0.8979  0.3275
 1364SOL     hw 5455   5.690   7.200   6.055  3.0433 -3.2096  2.2049
 1364SOL     vw 5456   5.745   7.262   6.078  1.2679 -0.6921  0.3202
 1365SOL     ow 5457   7.135   2.276   1.075 -0.6391  0.4186  0.2341
 1365SOL     hw 5458   7.084   2.357   1.082 -1.0574  0.4918 -2.5600
 1365SOL     hw 5459   7.106   2.224   1.150  0.2405  3.0934  2.6126
 1365SOL     vw 5460   7.124   2.280   1.086 -0.5784  0.7811  0.1792
 1366SOL     ow 5461   7.174   5.754   1.084  0.5586  0.9026  0.3527
 1366SOL     hw 5462   7.185   5.664   1.053  1.9262  1.0712  0.2960
 1366SOL     hw 5463   7.168   5.806   1.005  0.1696  0.9032  0.3836
 1366SOL     vw 5464   7.175   5.749   1.070  0.6878  0.9248  0.3493
 1367SOL     ow 5465   1.863   3.889   4.014 -0.1394  0.3304 -0.1917
 1367SOL     hw 5466   1.843   3.796   4.012  1.6509 -0.1358  0.8841
 1367SOL     hw 5467   1.797   3.930   3.958 -2.6114 -1.2293  1.4171
 1367SOL     vw 5468   1.852   3.882   4.006 -0.2294  0.0632  0.1624
 1368SOL     ow 5469   1.793   3.448   6.452 -0.4022  0.3692  0.5583
 1368SOL     hw 5470   1.709   3.406   6.433  0.2273 -0.0669 -1.5366
 1368SOL     hw 5471   1.809   3.505   6.376  0.8289  1.0282  1.2791
 1368SOL     vw 5472   1.784   3.450   6.439 -0.1567  0.3986  0.3769
 1369SOL     ow 5473   7.484   0.037   5.272  0.2791  0.1638 -0.1182
 1369SOL     hw 5474   7.432   0.024   5.192 -0.7828 -0.5081  0.6473
 1369SOL     hw 5475   7.427   0.089   5.329  1.0425  0.6691  0.1916
 1369SOL     vw 5476   7.470   0.042   5.269  0.2396  0.1419  0.0234
 1370SOL     ow 5477   5.204   3.993   3.407  0.1793 -0.6571 -0.2824
 1370SOL     hw 5478   5.118   3.964   3.377 -0.4554  0.3002  0.5408
 1370SOL     hw 5479   5.252   3.913   3.427 -1.6631 -1.2234  2.4118
 1370SOL     vw 5480   5.199   3.979   3.405 -0.1476 -0.6055  0.1817
 1371SOL     ow 5481   7.294   0.016   6.899  0.1376  0.6106  0.0549
 1371SOL     hw 5482   7.270   0.065   6.977 -2.4011 -0.6272  0.1845
 1371SOL     hw 5483   7.249   0.061   6.827 -1.4842 -0.8690  0.0542
 1371SOL     vw 5484   7.285   0.028   6.900 -0.4115  0.2520  0.0720
 1372SOL     ow 5485   3.850   6.289   6.277  0.2663  0.4155  0.0202
 1372SOL     hw 5486   3.852   6.238   6.197  1.1392  0.6922 -0.1403
 1372SOL     hw 5487   3.852   6.224   6.347 -0.8588  0.1595 -0.1619
 1372SOL     vw 5488   3.851   6.274   6.276  0.2329  0.4182 -0.0246
 1373SOL     ow 5489   0.317   1.396   2.795  0.1094 -0.0377  0.3563
 1373SOL     hw 5490   0.228   1.391   2.831  0.2877 -1.7174  0.6434
 1373SOL     hw 5491   0.304   1.419   2.703 -0.9436 -3.6127 -0.5455
 1373SOL     vw 5492   0.303   1.399   2.788 -0.0060 -0.7310  0.2751
 1374SOL     ow 5493   0.296   5.574   6.454  0.5391 -0.9925  0.1915
 1374SOL     hw 5494   0.377   5.614   6.488  0.3389 -0.7106  0.3430
 1374SOL     hw 5495   0.243   5.560   6.532 -0.0414 -0.0853 -0.0302
 1374SOL     vw 5496   0.300   5.577   6.469  0.4361 -0.8354  0.1819
 1375SOL     ow 5497   1.127   7.261   6.932 -1.1417 -0.6454  0.3283
 1375SOL     hw 5498   1.139   7.264   6.837  2.4976 -0.9292  0.6298
 1375SOL     hw 5499   1.085   7.344   6.953  0.9187  0.9328 -1.2884
 1375SOL     vw 5500   1.123   7.272   6.922 -0.3897 -0.4747  0.1545
 1376SOL     ow 5501   2.278   4.721   5.595  0.2263  0.1165  0.8924
 1376SOL     hw 5502   2.277   4.755   5.505 -2.3184  0.0128  0.7971
 1376SOL     hw 5503   2.370   4.705   5.614  0.9350  1.2279 -1.2818
 1376SOL     vw 5504   2.290   4.724   5.585 -0.0159  0.2496  0.5929
 1377SOL     ow 5505   0.413   3.339   3.005 -0.1350 -0.2683  0.2907
 1377SOL     hw 5506   0.387   3.408   3.066 -0.1334  0.5481 -0.6015
 1377SOL     hw 5507   0.333   3.287   2.992 -1.0085  1.3766 -1.3387
 1377SOL     vw 5508   0.399   3.341   3.011 -0.2501  0.0565 -0.0420
 1378SOL     ow 5509   3.067   5.547   1.313 -0.1136 -0.0347  0.5177
 1378SOL     hw 5510   3.095   5.457   1.301  0.6372  0.2398  0.1383
 1378SOL     hw 5511   3.017   5.546   1.395  0.5776 -0.6381  0.9358
 1378SOL     vw 5512   3.064   5.535   1.322  0.0767 -0.0782  0.5228
 1379SOL     ow 5513   1.508   6.183   5.506 -0.0557 -0.1041  0.0745
 1379SOL     hw 5514   1.602   6.199   5.499 -0.1731  0.3152 -0.7174
 1379SOL     hw 5515   1.472   6.265   5.541  0.1550 -1.1544  3.0043
 1379SOL     vw 5516   1.515   6.196   5.509 -0.0435 -0.1874  0.3564
 1380SOL     ow 5517   0.074   1.209   2.136 -0.0557  0.7220 -0.0888
 1380SOL     hw 5518  -0.005   1.158   2.154  0.0106  0.6624  0.0360
 1380SOL     hw 5519   0.056   1.295   2.174 -0.5535  1.0972 -1.1568
 1380SOL     vw 5520   0.061   1.214   2.144 -0.1126  0.7637 -0.2131
 1381SOL     ow 5521   2.039   4.524   4.036  0.3215  0.2476  0.2846
 1381SOL     hw 5522   1.949   4.514   4.066 -0.2603 -0.3316 -1.5260
 1381SOL     hw 5523   2.044   4.470   3.957  1.1123  3.2822 -1.9179
 1381SOL     vw 5524   2.028   4.515   4.030  0.3492  0.5715 -0.2449
 1382SOL     ow 5525   0.229   4.613   6.852  0.6062 -0.5344 -0.3373
 1382SOL     hw 5526   0.214   4.541   6.791 -1.1658 -0.3155 -0.2235
 1382SOL     hw 5527   0.217   4.692   6.800  2.1893 -0.2778 -0.3760
 1382SOL     vw 5528   0.226   4.614   6.837  0.5813 -0.4716 -0.3273
 1383SOL     ow 5529   1.835   1.189   6.946  0.2034 -0.1771  0.0598
 1383SOL     hw 5530   1.756   1.137   6.949 -0.7309  1.1400 -0.5621
 1383SOL     hw 5531   1.849   1.206   6.852  0.6925  0.3675  0.2230
 1383SOL     vw 5532   1.827   1.185   6.934  0.1447  0.0685 -0.0007
 1384SOL     ow 5533   1.007   1.937   4.960  0.3624  0.1469  0.5806
 1384SOL     hw 5534   1.088   1.909   5.003  0.3966  1.0512  1.1409
 1384SOL     hw 5535   0.941   1.873   4.989  0.4067  0.6735  1.9517
 1384SOL     vw 5536   1.009   1.925   4.970  0.3728  0.3357  0.8354
 1385SOL     ow 5537   6.131   4.495   4.523 -0.2044  0.2615  0.3108
 1385SOL     hw 5538   6.061   4.477   4.460 -0.3475  0.8067  0.3068
 1385SOL     hw 5539   6.194   4.549   4.474  1.2866 -1.9271 -0.3438
 1385SOL     vw 5540   6.130   4.500   4.508 -0.0267  0.0448  0.2239
 1386SOL     ow 5541   4.213   5.273   0.035  0.5716  0.8990 -0.1035
 1386SOL     hw 5542   4.229   5.280  -0.059 -2.8598  0.7206 -0.8210
 1386SOL     hw 5543   4.190   5.181   0.049 -0.5886  1.2692  0.5575
 1386SOL     vw 5544   4.212   5.262   0.025 -0.0341  0.9243 -0.1109
 1387SOL     ow 5545   2.096   6.887   0.165  0.7001 -0.7093 -0.0943
 1387SOL     hw 5546   2.169   6.841   0.121  2.4071  0.9391  0.8717
 1387SOL     hw 5547   2.059   6.822   0.224  2.6354 -1.1040  0.7705
 1387SOL     vw 5548   2.101   6.872   0.167  1.1806 -0.5438  0.1472
 1388SOL     ow 5549   0.923   4.029   7.447 -0.0140 -0.2005 -0.2512
 1388SOL     hw 5550   0.968   4.059   7.368  0.8626  0.5924  0.5241
 1388SOL     hw 5551   0.854   4.094   7.462 -2.3585 -2.0408 -2.1182
 1388SOL     vw 5552   0.920   4.041   7.439 -0.2077 -0.3390 -0.3951
 1389SOL     ow 5553   3.692   4.489   2.941 -0.6832  0.3255 -0.5382
 1389SOL     hw 5554   3.720   4.541   2.866  4.1126  1.0135  1.3705
 1389SOL     hw 5555   3.753   4.416   2.943 -1.5950 -0.4602  1.8939
 1389SOL     vw 5556   3.704   4.486   2.931 -0.1708  0.3126  0.0346
 1390SOL     ow 5557   4.831   3.440   5.021  0.4270 -0.3512  0.2419
 1390SOL     hw 5558   4.786   3.431   5.105  0.2021  0.0086  0.1620
 1390SOL     hw 5559   4.923   3.449   5.043  0.3934 -0.4835  0.4374
 1390SOL     vw 5560   4.837   3.440   5.035  0.3932 -0.3211  0.2570
 1391SOL     ow 5561   5.852   6.763   6.697  0.2952 -0.2509 -0.4914
 1391SOL     hw 5562   5.772   6.710   6.698  1.2839 -1.7938  0.4023
 1391SOL     hw 5563   5.921   6.703   6.668  1.4633  0.5336  0.5317
 1391SOL     vw 5564   5.851   6.748   6.693  0.5798 -0.3510 -0.2387
 1392SOL     ow 5565   2.229   1.807   1.649  0.3032  0.6437 -0.1918
 1392SOL     hw 5566   2.281   1.805   1.569  0.8968 -0.3751  0.2078
 1392SOL     hw 5567   2.221   1.716   1.675  0.1172  0.9618  0.9158
 1392SOL     vw 5568   2.235   1.795   1.642  0.3569  0.5512  0.0070
 1393SOL     ow 5569   4.840   6.959   4.046 -0.0312  0.1262 -0.0546
 1393SOL     hw 5570   4.860   6.966   3.952 -0.6712  0.7658 -0.1481
 1393SOL     hw 5571   4.908   7.011   4.088  1.8009 -2.1922  0.0541
 1393SOL     vw 5572   4.852   6.967   4.039  0.1261 -0.0954 -0.0527
 1394SOL     ow 5573   5.849   0.360   0.598  0.6832  0.7938  0.2578
 1394SOL     hw 5574   5.773   0.338   0.544 -0.5678  0.9694  1.8778
 1394SOL     hw 5575   5.908   0.406   0.538 -0.0683 -0.1420 -1.2614
 1394SOL     vw 5576   5.846   0.363   0.583  0.4191  0.6935  0.2711
 1395SOL     ow 5577   0.662   0.077   2.884  0.3057 -0.2396 -0.1467
 1395SOL     hw 5578   0.636   0.104   2.796  0.2689 -0.5249 -0.2236
 1395SOL     hw 5579   0.718   0.148   2.915  2.0571 -1.1054 -1.2055
 1395SOL     vw 5580   0.666   0.090   2.877  0.5319 -0.3915 -0.2965
 1396SOL     ow 5581   2.740   5.398   6.379 -0.1804  0.7091  0.1518
 1396SOL     hw 5582   2.673   5.376   6.444  1.7643  1.3233  2.5231
 1396SOL     hw 5583   2.820   5.411   6.430  1.6104  0.7750 -2.4562
 1396SOL     vw 5584   2.742   5.397   6.395  0.3124  0.7987  0.1206
 1397SOL     ow 5585   4.624   0.641   1.779  0.6089 -0.5585  0.2877
 1397SOL     hw 5586   4.539   0.641   1.821 -0.3780 -0.9987 -1.5828
 1397SOL     hw 5587   4.685   0.613   1.847 -0.6930 -0.0616  1.7125
 1397SOL     vw 5588   4.621   0.638   1.793  0.3071 -0.5510  0.2289
 1398SOL     ow 5589   3.465   1.542   2.336 -0.3800 -0.5743  0.2237
 1398SOL     hw 5590   3.419   1.622   2.310 -0.9991 -0.3613  1.8811
 1398SOL     hw 5591   3.544   1.541   2.282 -1.5690 -0.1643 -1.6157
 1398SOL     vw 5592   3.470   1.552   2.325 -0.6187 -0.4921  0.1998
 1399SOL     ow 5593   0.781   7.013   1.378 -0.1079  0.0852 -0.2733
 1399SOL     hw 5594   0.694   7.011   1.340 -0.4767 -2.5924  0.5554
 1399SOL     hw 5595   0.767   7.046   1.467 -0.3094 -0.5172 -0.0796
 1399SOL     vw 5596   0.768   7.017   1.385 -0.1832 -0.3476 -0.1384
 1400SOL     ow 5597   7.406   6.834   2.177 -0.4162 -0.1658  0.1838
 1400SOL     hw 5598   7.473   6.838   2.108  3.1584 -1.5561  3.2158
 1400SOL     hw 5599   7.386   6.925   2.196  2.8053  0.5272  0.9238
 1400SOL     vw 5600   7.412   6.846   2.170  0.4804 -0.2575  0.6815
 1401SOL     ow 5601   2.046   4.335   3.830  0.8289 -0.5580 -0.0228
 1401SOL     hw 5602   2.125   4.353   3.779 -0.4049 -0.3354 -1.9844
 1401SOL     hw 5603   1.995   4.277   3.773 -0.0692 -1.3703  1.5586
 1401SOL     vw 5604   2.050   4.330   3.815  0.5476 -0.6359 -0.0727
 1402SOL     ow 5605   7.073   6.206   2.048  0.5061 -0.8234  0.0784
 1402SOL     hw 5606   7.145   6.240   1.994 -0.6332  0.6081 -0.5980
 1402SOL     hw 5607   7.052   6.277   2.108 -1.5374 -0.4555 -0.9752
 1402SOL     vw 5608   7.080   6.220   2.049  0.0865 -0.5858 -0.1498
 1403SOL     ow 5609   7.434   0.099   0.218  0.4049  0.2653  0.1900
 1403SOL     hw 5610   7.520   0.129   0.249 -0.0334 -0.4391  2.3164
 1403SOL     hw 5611   7.371   0.150   0.269 -0.3547 -2.2129  1.9485
 1403SOL     vw 5612   7.437   0.110   0.229  0.2468 -0.1546  0.7025
 1404SOL     ow 5613   3.673   7.196   2.365 -0.0670 -0.2721 -0.7375
 1404SOL     hw 5614   3.764   7.224   2.362  0.3765 -1.2886  1.3849
 1404SOL     hw 5615   3.650   7.179   2.274  1.9250 -0.1946 -1.2979
 1404SOL     vw 5616   3.682   7.197   2.352  0.2544 -0.3955 -0.5313
 1405SOL     ow 5617   3.690   4.267   6.111 -0.4243 -0.0649  0.3359
 1405SOL     hw 5618   3.743   4.343   6.138  1.5242 -1.7870  1.6201
 1405SOL     hw 5619   3.699   4.205   6.183  0.2522 -2.5866 -1.7610
 1405SOL     vw 5620   3.698   4.269   6.124 -0.0781 -0.6249  0.2286
 1406SOL     ow 5621   0.781   0.334   2.842  0.2358  0.0427 -0.5926
 1406SOL     hw 5622   0.707   0.330   2.782  0.1208  1.8903 -0.6291
 1406SOL     hw 5623   0.856   0.308   2.789  0.0913  1.3753 -1.4990
 1406SOL     vw 5624   0.781   0.330   2.827  0.2016  0.4623 -0.7170
 1407SOL     ow 5625   3.171   1.297   2.309  0.0533 -0.0320  0.0072
 1407SOL     hw 5626   3.140   1.378   2.269  1.0425 -0.0207 -0.7639
 1407SOL     hw 5627   3.163   1.231   2.241 -0.7264 -0.6061  0.6253
 1407SOL     vw 5628   3.166   1.299   2.295  0.0808 -0.1063 -0.0131
 1408SOL     ow 5629   7.318   1.800   0.392 -0.4273  0.7058 -0.0516
 1408SOL     hw 5630   7.363   1.726   0.352 -0.0266  1.0134 -0.1697
 1408SOL     hw 5631   7.371   1.876   0.369 -2.0818  1.3811 -1.9751
 1408SOL     vw 5632   7.331   1.800   0.384 -0.5927  0.8355 -0.3210
 1409SOL     ow 5633   1.173   4.888   0.317 -0.0645 -0.2255  0.0633
 1409SOL     hw 5634   1.097   4.832   0.332  1.0649 -1.8004  0.0818
 1409SOL     hw 5635   1.234   4.866   0.387  0.8844  0.1659 -0.6161
 1409SOL     vw 5636   1.171   4.878   0.328  0.2097 -0.3815 -0.0239
 1410SOL     ow 5637   6.994   1.783   3.915 -1.1885 -0.2535  0.1666
 1410SOL     hw 5638   6.903   1.787   3.945 -1.5944 -0.5080 -0.9518
 1410SOL     hw 5639   7.005   1.694   3.883 -0.7849 -0.0038 -0.4088
 1410SOL     vw 5640   6.983   1.772   3.914 -1.1888 -0.2541 -0.0569
 1411SOL     ow 5641   5.617   2.213   3.421  0.7574  0.1416  0.2542
 1411SOL     hw 5642   5.698   2.236   3.376  2.1805 -1.1644  2.0358
 1411SOL     hw 5643   5.589   2.294   3.464  1.8446  0.2990  0.6944
 1411SOL     vw 5644   5.624   2.227   3.420  1.0884 -0.0099  0.5474
 1412SOL     ow 5645   1.031   6.216   1.951  0.1912  0.1621  0.1341
 1412SOL     hw 5646   1.099   6.190   1.888 -0.3043 -0.3329 -0.2074
 1412SOL     hw 5647   0.987   6.134   1.974 -2.7966  0.7985 -2.5660
 1412SOL     vw 5648   1.034   6.202   1.945 -0.2685  0.1810 -0.2672
 1413SOL     ow 5649   4.090   2.138   3.528  0.1019 -0.1229  0.1665
 1413SOL     hw 5650   4.122   2.165   3.443 -1.3763 -0.1749 -0.4314
 1413SOL     hw 5651   4.045   2.055   3.512 -1.8164  0.7720  0.6133
 1413SOL     vw 5652   4.088   2.130   3.515 -0.3462 -0.0118  0.1466
 1414SOL     ow 5653   2.844   6.487   1.183  0.2207 -0.0862  0.8174
 1414SOL     hw 5654   2.927   6.457   1.145  0.3304  0.0548  0.9460
 1414SOL     hw 5655   2.782   6.484   1.110  0.0489 -1.3164  0.9851
 1414SOL     vw 5656   2.847   6.483   1.168  0.2124 -0.2301  0.8565
 1415SOL     ow 5657   6.578   1.885   6.792 -0.0867  0.0635 -0.3839
 1415SOL     hw 5658   6.558   1.830   6.867 -1.5410  0.3030 -0.5559
 1415SOL     hw 5659   6.536   1.969   6.811  1.3154  0.8378 -0.5351
 1415SOL     vw 5660   6.570   1.889   6.804 -0.0935  0.1973 -0.4268
 1416SOL     ow 5661   3.835   3.481   4.214 -0.2277 -0.2605 -0.0594
 1416SOL     hw 5662   3.907   3.448   4.159 -0.2257  0.1932 -0.3365
 1416SOL     hw 5663   3.804   3.558   4.167 -0.6196 -0.2141  0.2811
 1416SOL     vw 5664   3.841   3.486   4.201 -0.2791 -0.1945 -0.0513
 1417SOL     ow 5665   0.672   7.292   1.910  0.8487 -0.0906  0.2327
 1417SOL     hw 5666   0.596   7.256   1.867  0.6153  0.1714  0.4208
 1417SOL     hw 5667   0.732   7.218   1.920  0.5214 -0.3455  0.2990
 1417SOL     vw 5668   0.670   7.277   1.906  0.7747 -0.0899  0.2663
 1418SOL     ow 5669   4.651   3.123   5.865  0.2163 -0.2074  0.2324
 1418SOL     hw 5670   4.653   3.149   5.957 -0.5581  0.0600  0.1811
 1418SOL     hw 5671   4.685   3.199   5.818  1.4404 -0.6591  0.3476
 1418SOL     vw 5672   4.656   3.136   5.871  0.2759 -0.2317  0.2410
 1419SOL     ow 5673   4.530   1.342   7.604  0.3920 -0.1282 -0.0748
 1419SOL     hw 5674   4.592   1.399   7.648  0.2863  0.3592 -0.5472
 1419SOL     hw 5675   4.448   1.391   7.602  0.1849 -0.4655 -0.1159
 1419SOL     vw 5676   4.528   1.356   7.610  0.3507 -0.1085 -0.1425
 1420SOL     ow 5677   1.131   5.082   7.378 -0.0111  0.1389 -0.1767
 1420SOL     hw 5678   1.145   5.176   7.361 -0.9166  0.2859 -0.1516
 1420SOL     hw 5679   1.148   5.040   7.294 -1.0898  0.4944 -0.5807
 1420SOL     vw 5680   1.135   5.089   7.365 -0.2729  0.2050 -0.2267
 1421SOL     ow 5681   2.245   5.555   1.998  0.0969 -0.4848 -0.4347
 1421SOL     hw 5682   2.306   5.576   2.069 -0.3629 -1.9965  0.4560
 1421SOL     hw 5683   2.162   5.595   2.025  0.6123  1.5267 -1.6214
 1421SOL     vw 5684   2.242   5.563   2.011  0.1042 -0.4189 -0.4739
 1422SOL     ow 5685   7.078   7.069   1.720  0.1877 -0.0124  0.3967
 1422SOL     hw 5686   7.043   7.134   1.660 -0.2674 -0.9098 -0.3383
 1422SOL     hw 5687   7.163   7.045   1.683 -0.8622 -1.8804 -0.9496
 1422SOL     vw 5688   7.085   7.074   1.707 -0.0110 -0.3769  0.1221
 1423SOL     ow 5689   1.439   6.362   7.077 -0.5376  0.2758  0.3912
 1423SOL     hw 5690   1.439   6.386   6.984  0.6067  0.5198  0.4356
 1423SOL     hw 5691   1.501   6.290   7.083 -0.3379  0.4980  1.0260
 1423SOL     vw 5692   1.447   6.356   7.065 -0.3603  0.3374  0.4811
 1424SOL     ow 5693   6.060   7.553   4.044 -0.7002  1.1621 -0.1553
 1424SOL     hw 5694   6.012   7.496   3.983  0.2026  0.1382  0.0628
 1424SOL     hw 5695   6.015   7.638   4.038 -2.9497  0.0872  0.5381
 1424SOL     vw 5696   6.048   7.557   4.035 -0.8779  0.8850 -0.0350
 1425SOL     ow 5697   3.738   4.588   1.617 -0.5888  0.0035 -0.2096
 1425SOL     hw 5698   3.828   4.616   1.605 -0.9112  0.5641 -1.4951
 1425SOL     hw 5699   3.733   4.502   1.573 -0.3696 -0.6559  1.0162
 1425SOL     vw 5700   3.749   4.580   1.609 -0.6024 -0.0098 -0.2175
 1426SOL     ow 5701   7.422   1.593   0.234  0.1658 -0.5294 -0.1868
 1426SOL     hw 5702   7.371   1.515   0.213 -0.1459 -0.1797 -0.7262
 1426SOL     hw 5703   7.430   1.640   0.152  0.2402  0.0781  0.1616
 1426SOL     vw 5704   7.416   1.589   0.221  0.1345 -0.4031 -0.2120
 1427SOL     ow 5705   1.432   6.491   0.312 -0.2512 -0.5122  0.3152
 1427SOL     hw 5706   1.422   6.559   0.246  1.6631 -0.7076 -0.2357
 1427SOL     hw 5707   1.404   6.411   0.268  0.8257 -0.6088 -0.2321
 1427SOL     vw 5708   1.427   6.489   0.297  0.1435 -0.5510  0.1703
 1428SOL     ow 5709   5.132   4.245   3.419  0.0914  0.7685  0.1079
 1428SOL     hw 5710   5.038   4.238   3.437  0.0148  2.6816  0.7277
 1428SOL     hw 5711   5.168   4.160   3.443 -1.2700  0.4987  1.3052
 1428SOL     vw 5712   5.124   4.233   3.425 -0.0982  0.9854  0.3476
 1429SOL     ow 5713   5.968   1.582   2.380 -0.2121 -0.3448  0.3308
 1429SOL     hw 5714   6.008   1.663   2.350 -2.2448  1.1859  1.5142
 1429SOL     hw 5715   5.903   1.561   2.313  0.4371 -1.1628 -0.0723
 1429SOL     vw 5716   5.965   1.590   2.367 -0.3946 -0.2508  0.4337
 1430SOL     ow 5717   3.270   6.466   4.945 -0.2914  0.4534 -0.4865
 1430SOL     hw 5718   3.311   6.538   4.994  0.6325  0.6102 -1.4691
 1430SOL     hw 5719   3.340   6.401   4.934 -1.0013 -0.4147  0.0064
 1430SOL     vw 5720   3.285   6.467   4.950 -0.2633  0.3595 -0.5512
 1431SOL     ow 5721   6.905   6.600   2.078  0.3865 -0.0631  0.8465
 1431SOL     hw 5722   6.964   6.569   2.009 -0.0556  1.6158 -0.3454
 1431SOL     hw 5723   6.942   6.565   2.159  2.2850 -0.1018  0.0050
 1431SOL     vw 5724   6.918   6.591   2.079  0.5786  0.1533  0.5780
 1432SOL     ow 5725   2.706   0.137   6.324  0.1950  0.1784  0.4594
 1432SOL     hw 5726   2.637   0.071   6.338 -1.7089  2.0970  0.6052
 1432SOL     hw 5727   2.759   0.132   6.404 -0.8702 -0.1299  1.1795
 1432SOL     vw 5728   2.704   0.127   6.337 -0.1969  0.3908  0.5739
 1433SOL     ow 5729   3.347   5.323   6.975 -0.1730  0.3291 -0.1673
 1433SOL     hw 5730   3.256   5.297   6.988 -0.6825  1.3229 -1.4906
 1433SOL     hw 5731   3.396   5.271   7.038 -1.6908  0.0505  0.8438
 1433SOL     vw 5732   3.341   5.313   6.985 -0.4405  0.4234 -0.2086
 1434SOL     ow 5733   1.343   6.490   6.071 -0.5421  0.2113 -0.2929
 1434SOL     hw 5734   1.355   6.416   6.131  0.6858  1.8680  1.5773
 1434SOL     hw 5735   1.250   6.511   6.078 -0.3141  0.7299  1.4909
 1434SOL     vw 5736   1.332   6.483   6.080 -0.3499  0.4983  0.1893
 1435SOL     ow 5737   6.132   7.561   3.013 -0.6380  0.2767 -0.2731
 1435SOL     hw 5738   6.215   7.520   2.987  0.1157  1.4348  0.2519
 1435SOL     hw 5739   6.070   7.488   3.018  0.3910 -0.6369 -0.4732
 1435SOL     vw 5740   6.135   7.546   3.010 -0.4027  0.3090 -0.2303
 1436SOL     ow 5741   0.606   0.216   4.702 -0.1886 -0.2102  0.1925
 1436SOL     hw 5742   0.593   0.186   4.792  0.3646 -1.0720 -0.0073
 1436SOL     hw 5743   0.646   0.142   4.657 -0.8508  0.0575 -0.8794
 1436SOL     vw 5744   0.609   0.203   4.708 -0.2030 -0.2886  0.0248
 1437SOL     ow 5745   7.163   1.474   1.983 -0.0126 -0.1424 -0.2222
 1437SOL     hw 5746   7.237   1.492   1.925  1.2501 -0.7388  1.1214
 1437SOL     hw 5747   7.193   1.506   2.069 -2.1383  1.5078 -0.0146
 1437SOL     vw 5748   7.177   1.481   1.987 -0.1266 -0.0033 -0.0175
 1438SOL     ow 5749   5.030   1.041   6.969 -0.4044  0.4239  0.4783
 1438SOL     hw 5750   4.966   1.057   7.038 -0.4556  1.0106  0.3072
 1438SOL     hw 5751   5.051   0.948   6.975 -0.1640  0.5379  1.4951
 1438SOL     vw 5752   5.025   1.031   6.979 -0.3796  0.5164  0.5901
 1439SOL     ow 5753   5.596   6.853   2.043  0.3316 -0.0289 -0.1274
 1439SOL     hw 5754   5.643   6.852   2.127  1.0338  1.5488 -0.4466
 1439SOL     hw 5755   5.665   6.863   1.977 -0.3531  1.3035 -0.6874
 1439SOL     vw 5756   5.612   6.854   2.045  0.3343  0.3548 -0.2434
 1440SOL     ow 5757   6.028   2.776   2.430 -0.3594 -0.2238  0.2440
 1440SOL     hw 5758   5.940   2.791   2.466 -0.6913 -0.5173 -0.4285
 1440SOL     hw 5759   6.087   2.811   2.497 -1.0206  2.5040 -0.4678
 1440SOL     vw 5760   6.024   2.783   2.444 -0.4904  0.0973  0.0614
 1441SOL     ow 5761   0.730   6.946   2.267  0.1879  0.7798 -0.2739
 1441SOL     hw 5762   0.820   6.941   2.299  0.4098  1.7740 -0.6945
 1441SOL     hw 5763   0.727   7.028   2.216 -0.8150  0.5029 -0.6894
 1441SOL     vw 5764   0.741   6.956   2.264  0.0849  0.8745 -0.3842
 1442SOL     ow 5765   5.344   1.868   2.343 -0.6164  0.2743 -1.1056
 1442SOL     hw 5766   5.351   1.893   2.435  0.1690  1.3009 -1.4172
 1442SOL     hw 5767   5.264   1.911   2.312  0.0348  1.3913 -1.3105
 1442SOL     vw 5768   5.335   1.877   2.351 -0.4270  0.5572 -1.1737
 1443SOL     ow 5769   1.775   7.133   6.373 -1.1984  0.2984  0.1451
 1443SOL     hw 5770   1.861   7.092   6.381 -1.8789 -1.1323  0.5802
 1443SOL     hw 5771   1.771   7.196   6.445 -0.2563  0.8855 -0.3073
 1443SOL     vw 5772   1.786   7.136   6.384 -1.1640  0.1872  0.1431
 1444SOL     ow 5773   6.319   6.291   6.474  0.5609 -0.3340  0.2085
 1444SOL     hw 5774   6.261   6.242   6.532 -0.6547  1.1546  0.3344
 1444SOL     hw 5775   6.404   6.290   6.518 -0.3515  0.8422  2.1546
 1444SOL     vw 5776   6.323   6.285   6.488  0.2799  0.0176  0.4818
 1445SOL     ow 5777   4.925   0.519   5.004 -0.3155 -0.3106 -0.2169
 1445SOL     hw 5778   4.845   0.526   5.056 -1.1893 -0.8096 -1.4406
 1445SOL     hw 5779   4.944   0.425   5.002  0.3016 -0.1995  0.0421
 1445SOL     vw 5780   4.917   0.508   5.011 -0.3490 -0.3617 -0.3443
 1446SOL     ow 5781   2.783   1.517   0.073  0.1022  0.4813  0.0979
 1446SOL     hw 5782   2.775   1.444   0.134  0.3837  0.2946 -0.0885
 1446SOL     hw 5783   2.860   1.565   0.102 -1.2636  1.9363  1.5226
 1446SOL     vw 5784   2.792   1.514   0.085 -0.0408  0.6487  0.2613
 1447SOL     ow 5785   1.066   6.851   4.902  0.1156 -0.4197 -0.2218
 1447SOL     hw 5786   1.028   6.767   4.931 -1.5405  0.3606 -0.0412
 1447SOL     hw 5787   0.997   6.915   4.916  1.6796  1.1787  0.5452
 1447SOL     vw 5788   1.052   6.848   4.908  0.1035 -0.1059 -0.0968
 1448SOL     ow 5789   7.177   1.635   6.871 -0.3948 -0.1946  0.7266
 1448SOL     hw 5790   7.159   1.610   6.781 -0.6752 -0.5198  0.8716
 1448SOL     hw 5791   7.161   1.729   6.874  1.2934  0.1525  0.0199
 1448SOL     vw 5792   7.173   1.644   6.860 -0.2089 -0.1916  0.6526
 1449SOL     ow 5793   2.289   5.635   6.955 -0.7397  0.0349 -0.2235
 1449SOL     hw 5794   2.328   5.549   6.973  0.2670  0.2637 -1.2267
 1449SOL     hw 5795   2.195   5.618   6.945 -0.7031 -0.7678  0.6994
 1449SOL     vw 5796   2.282   5.622   6.956 -0.6021 -0.0408 -0.2344
 1450SOL     ow 5797   0.566   6.891   5.676  0.3321 -0.5343  1.5390
 1450SOL     hw 5798   0.632   6.894   5.607  0.7635 -0.1135  1.9557
 1450SOL     hw 5799   0.577   6.806   5.717  1.5008  0.0282  2.4372
 1450SOL     vw 5800   0.576   6.880   5.672  0.5432 -0.4048  1.7126
 1451SOL     ow 5801   4.796   6.948   6.371  0.4598 -0.1662 -0.0345
 1451SOL     hw 5802   4.738   7.021   6.347  1.1051  0.8193  1.3320
 1451SOL     hw 5803   4.847   6.932   6.292 -1.6469 -1.0869 -1.3072
 1451SOL     vw 5804   4.795   6.956   6.357  0.2668 -0.1576 -0.0222
 1452SOL     ow 5805   5.605   6.604   1.910  0.2968 -0.1980 -0.4955
 1452SOL     hw 5806   5.686   6.633   1.868 -0.0483  3.4363  0.9998
 1452SOL     hw 5807   5.610   6.508   1.909  3.5932 -0.1439 -2.2718
 1452SOL     vw 5808   5.616   6.595   1.904  0.6864  0.2885 -0.5326
 1453SOL     ow 5809   1.447   5.155   3.875 -0.5419  0.0066  0.1689
 1453SOL     hw 5810   1.466   5.222   3.809  2.1331 -1.1163 -0.3208
 1453SOL     hw 5811   1.415   5.080   3.824 -0.1370 -0.2814  0.3392
 1453SOL     vw 5812   1.445   5.154   3.859 -0.1355 -0.1795  0.1268
 1454SOL     ow 5813   0.945   5.440   7.564 -0.5140 -0.4880  0.6117
 1454SOL     hw 5814   0.930   5.527   7.601  1.4687  0.6229 -1.0157
 1454SOL     hw 5815   0.870   5.426   7.505 -0.5035  0.4390  0.3632
 1454SOL     vw 5816   0.933   5.450   7.561 -0.2510 -0.2193  0.3641
 1455SOL     ow 5817   5.080   2.287   0.788 -0.1585  0.0619 -0.1465
 1455SOL     hw 5818   5.065   2.332   0.704 -0.6613  0.8684  0.3649
 1455SOL     hw 5819   5.156   2.231   0.771 -0.6100 -0.2396 -1.3136
 1455SOL     vw 5820   5.088   2.285   0.775 -0.2844  0.1285 -0.2330
 1456SOL     ow 5821   3.257   0.229   5.580  0.0654 -0.2170 -0.7371
 1456SOL     hw 5822   3.212   0.144   5.578  1.3398 -0.8893 -2.7502
 1456SOL     hw 5823   3.341   0.213   5.537  1.6997  1.3536  1.6417
 1456SOL     vw 5824   3.262   0.216   5.574  0.4493 -0.0985 -0.6888
 1457SOL     ow 5825   5.878   6.758   4.986 -0.0372 -0.0679  0.0022
 1457SOL     hw 5826   5.946   6.816   5.020  0.3494  0.2487 -1.2523
 1457SOL     hw 5827   5.866   6.692   5.055  1.3051  0.0513  0.3833
 1457SOL     vw 5828   5.886   6.757   5.000  0.1910 -0.0105 -0.1130
 1458SOL     ow 5829   5.072   1.953   6.008  0.0867  0.3906 -0.1934
 1458SOL     hw 5830   4.978   1.939   5.992  0.1174  0.4835 -0.4684
 1458SOL     hw 5831   5.075   2.017   6.079 -0.0788  1.8106 -1.4143
 1458SOL     vw 5832   5.060   1.960   6.015  0.0689  0.5902 -0.3908
 1459SOL     ow 5833   0.538   7.577   3.784  0.5937  0.1598  0.6872
 1459SOL     hw 5834   0.535   7.503   3.844 -4.1040 -0.3211  0.2934
 1459SOL     hw 5835   0.520   7.653   3.839  0.4972  0.3061  0.4570
 1459SOL     vw 5836   0.535   7.577   3.799 -0.0389  0.1156  0.6049
 1460SOL     ow 5837   4.456   0.412   3.670  0.1093  0.4133 -0.2624
 1460SOL     hw 5838   4.451   0.409   3.574 -2.9093  0.5974 -0.1959
 1460SOL     hw 5839   4.506   0.492   3.688  3.6193 -1.2795 -1.5854
 1460SOL     vw 5840   4.462   0.422   3.659  0.1743  0.2142 -0.4282
 1461SOL     ow 5841   5.000   5.363   3.377  0.1507  0.0462 -0.1959
 1461SOL     hw 5842   4.912   5.346   3.410  1.4810 -3.1076  2.2959
 1461SOL     hw 5843   4.996   5.339   3.285 -1.2445 -1.8714  0.2889
 1461SOL     vw 5844   4.988   5.357   3.369  0.1419 -0.6227  0.1969
 1462SOL     ow 5845   6.236   1.770   4.906  0.6213  0.2801  0.7608
 1462SOL     hw 5846   6.286   1.781   4.825 -0.1388 -1.8740 -0.0993
 1462SOL     hw 5847   6.153   1.815   4.888 -0.2203 -1.5800 -0.4251
 1462SOL     vw 5848   6.231   1.777   4.893  0.4098 -0.2496  0.4907
 1463SOL     ow 5849   3.903   0.670   4.272 -0.7365  0.0362 -0.4838
 1463SOL     hw 5850   3.832   0.610   4.248 -1.2935  0.7598 -0.7001
 1463SOL     hw 5851   3.982   0.616   4.269 -1.2074 -0.6582 -0.7781
 1463SOL     vw 5852   3.904   0.655   4.269 -0.8720  0.0400 -0.5512
 1464SOL     ow 5853   3.772   3.843   5.258 -1.0762  0.0073  0.1226
 1464SOL     hw 5854   3.857   3.872   5.292 -0.7702 -1.0074  0.2659
 1464SOL     hw 5855   3.789   3.755   5.223 -2.3421 -0.7815  1.3883
 1464SOL     vw 5856   3.786   3.835   5.258 -1.2029 -0.2308  0.3085
 1465SOL     ow 5857   1.264   2.415   2.413 -0.1869 -0.1198  0.1577
 1465SOL     hw 5858   1.220   2.335   2.382  0.6010  0.4547 -2.7156
 1465SOL     hw 5859   1.192   2.476   2.430 -0.6801 -0.5846 -0.2174
 1465SOL     vw 5860   1.248   2.412   2.411 -0.1480 -0.1054 -0.2708
 1466SOL     ow 5861   2.689   0.001   2.285 -0.5608 -0.0422  0.7587
 1466SOL     hw 5862   2.721  -0.077   2.241 -2.0799 -2.3853  3.4205
 1466SOL     hw 5863   2.754   0.018   2.353  0.4690  1.9596 -0.6435
 1466SOL     vw 5864   2.702  -0.007   2.288 -0.6255 -0.0870  0.9249
 1467SOL     ow 5865   6.037   3.829   6.613  0.2821 -0.5074 -0.7977
 1467SOL     hw 5866   6.053   3.815   6.519  0.8786  2.5494 -1.2610
 1467SOL     hw 5867   6.125   3.842   6.650 -0.0779  1.8236 -0.5748
 1467SOL     vw 5868   6.051   3.829   6.605  0.3135  0.2034 -0.8297
 1468SOL     ow 5869   7.116   3.409   6.249  0.2105 -0.1030 -0.2430
 1468SOL     hw 5870   7.024   3.423   6.226  0.1526 -0.8300 -0.4556
 1468SOL     hw 5871   7.128   3.461   6.329  0.6248  3.1625 -2.2264
 1468SOL     vw 5872   7.105   3.418   6.257  0.2575  0.2317 -0.5326
 1469SOL     ow 5873   2.600   5.140   0.986  0.2490 -0.1022 -0.6378
 1469SOL     hw 5874   2.597   5.221   0.935  0.5516  0.6392  0.4922
 1469SOL     hw 5875   2.625   5.073   0.922 -0.8302  0.5300 -1.7718
 1469SOL     vw 5876   2.603   5.142   0.971  0.1465  0.0789 -0.6383
 1470SOL     ow 5877   4.376   3.869   6.945  0.0259  0.4466 -0.1033
 1470SOL     hw 5878   4.460   3.910   6.922 -0.3834  1.0409 -0.5659
 1470SOL     hw 5879   4.397   3.813   7.020  0.7900  0.7680 -0.0616
 1470SOL     vw 5880   4.390   3.867   6.952  0.0730  0.5674 -0.1590
 1471SOL     ow 5881   4.946   1.876   5.576  0.5338 -0.2528  0.1139
 1471SOL     hw 5882   5.015   1.827   5.532  0.6598  0.0377 -0.0165
 1471SOL     hw 5883   4.916   1.939   5.510  0.5814  0.0444  0.3753
 1471SOL     vw 5884   4.951   1.878   5.561  0.5565 -0.1752  0.1314
 1472SOL     ow 5885   3.444   4.400   1.356  0.6652  0.4206  0.4312
 1472SOL     hw 5886   3.420   4.424   1.267 -0.2387 -0.1430  0.5115
 1472SOL     hw 5887   3.506   4.328   1.347 -0.1646 -0.2812  0.2680
 1472SOL     vw 5888   3.449   4.394   1.343  0.4363  0.2534  0.4203
 1473SOL     ow 5889   0.425   5.976   4.634  0.0405 -0.0255 -0.3737
 1473SOL     hw 5890   0.365   5.909   4.666  0.7067  0.6015  2.3886
 1473SOL     hw 5891   0.383   6.059   4.658  2.0928  0.4250  2.0035
 1473SOL     vw 5892   0.411   5.978   4.641  0.3991  0.1166  0.3040
 1474SOL     ow 5893   3.186   5.026   1.188 -0.3310 -0.9918  0.0887
 1474SOL     hw 5894   3.240   5.024   1.109 -3.1072  0.0941 -1.9612
 1474SOL     hw 5895   3.198   5.114   1.223 -0.2603 -0.9709  0.0140
 1474SOL     vw 5896   3.195   5.037   1.182 -0.6878 -0.8459 -0.1917
 1475SOL     ow 5897   0.519   2.210   6.908 -0.0718 -0.2775 -0.0765
 1475SOL     hw 5898   0.426   2.224   6.888 -0.1949  0.2468  0.8111
 1475SOL     hw 5899   0.551   2.297   6.935  0.1814 -0.8223  1.4985
 1475SOL     vw 5900   0.511   2.224   6.909 -0.0547 -0.2801  0.2487
 1476SOL     ow 5901   4.889   7.332   7.204 -0.4881  0.7437 -0.5569
 1476SOL     hw 5902   4.851   7.361   7.121  1.0461 -0.5671 -1.7783
 1476SOL     hw 5903   4.890   7.237   7.199 -3.5749  0.3130  2.5258
 1476SOL     vw 5904   4.884   7.323   7.193 -0.6928  0.5143 -0.3111
 1477SOL     ow 5905   1.200   1.611   2.101  0.6114 -0.4612  0.7760
 1477SOL     hw 5906   1.234   1.622   2.011  1.8363  0.8378  1.3534
 1477SOL     hw 5907   1.138   1.538   2.094  1.2011 -0.8640 -0.9903
 1477SOL     vw 5908   1.197   1.603   2.088  0.8509 -0.3430  0.6192
 1478SOL     ow 5909   1.058   6.950   4.271 -0.1944 -0.5364  0.0856
 1478SOL     hw 5910   1.064   7.024   4.211  1.0311 -0.9634 -0.3466
 1478SOL     hw 5911   1.147   6.939   4.305 -0.0081 -2.6718 -0.9373
 1478SOL     vw 5912   1.071   6.958   4.268 -0.0082 -0.8745 -0.1063
 1479SOL     ow 5913   1.464   3.548   4.376 -0.0124  0.3901  0.1157
 1479SOL     hw 5914   1.483   3.609   4.447  1.3204 -1.3478  1.3511
 1479SOL     hw 5915   1.541   3.492   4.372 -0.4918 -0.1924 -2.0764
 1479SOL     vw 5916   1.477   3.549   4.385  0.1001  0.0839 -0.0105
 1480SOL     ow 5917   3.836   4.812   1.115 -0.1602  0.5237  0.2178
 1480SOL     hw 5918   3.932   4.818   1.122 -0.2208  0.1211  1.5249
 1480SOL     hw 5919   3.819   4.719   1.099 -0.3304  0.6546 -0.4175
 1480SOL     vw 5920   3.847   4.801   1.114 -0.1906  0.4878  0.3064
 1481SOL     ow 5921   7.434   4.234   3.968 -0.1304  0.9830 -0.1856
 1481SOL     hw 5922   7.356   4.290   3.970  0.3308  1.6103  0.3530
 1481SOL     hw 5923   7.506   4.293   3.948  0.9122  1.2815  3.6292
 1481SOL     vw 5924   7.433   4.249   3.965  0.0679  1.1053  0.3887
 1482SOL     ow 5925   1.396   0.817   4.323 -0.0195 -0.4566 -0.1967
 1482SOL     hw 5926   1.440   0.732   4.320 -0.0842 -0.6248  1.9720
 1482SOL     hw 5927   1.429   0.858   4.403 -0.9100  1.0627 -0.5687
 1482SOL     vw 5928   1.407   0.811   4.333 -0.1455 -0.2784  0.0403
 1483SOL     ow 5929   1.340   5.534   5.010 -0.1239 -0.3652 -0.2036
 1483SOL     hw 5930   1.304   5.448   5.032 -2.1758  0.4612 -0.0519
 1483SOL     hw 5931   1.365   5.527   4.918 -3.3120 -0.2749 -1.1909
 1483SOL     vw 5932   1.338   5.522   5.001 -0.8153 -0.2441 -0.3138
 1484SOL     ow 5933   5.629   0.450   3.516 -0.2571 -0.0165 -0.0770
 1484SOL     hw 5934   5.622   0.360   3.548 -3.9411  0.4546  0.9142
 1484SOL     hw 5935   5.617   0.443   3.421 -0.4895 -0.5981 -0.0064
 1484SOL     vw 5936   5.627   0.437   3.508 -0.7737 -0.0311  0.0631
 1485SOL     ow 5937   2.164   5.367   2.256 -0.2595  0.2232 -0.2094
 1485SOL     hw 5938   2.217   5.436   2.296  1.7154 -0.7655 -0.9864
 1485SOL     hw 5939   2.205   5.353   2.170 -2.5704  0.2639 -1.3964
 1485SOL     vw 5940   2.177   5.374   2.250 -0.3039  0.0982 -0.4685
 1486SOL     ow 5941   5.761   2.357   4.625  0.3360 -0.8673  0.7259
 1486SOL     hw 5942   5.738   2.264   4.617 -1.5681 -0.3648 -0.6316
 1486SOL     hw 5943   5.800   2.379   4.541 -2.7477  0.3404 -0.5409
 1486SOL     vw 5944   5.763   2.347   4.613 -0.3223 -0.6417  0.3796
 1487SOL     ow 5945   1.398   3.790   5.451  0.7831  0.1247 -0.6722
 1487SOL     hw 5946   1.490   3.783   5.427  0.2328 -0.9865 -2.6669
 1487SOL     hw 5947   1.371   3.700   5.469 -0.3808  0.1525 -2.1091
 1487SOL     vw 5948   1.407   3.778   5.450  0.5569 -0.0182 -1.1249
 1488SOL     ow 5949   7.315   2.726   2.057 -0.0597  0.1324 -0.7713
 1488SOL     hw 5950   7.308   2.663   2.129  1.2285  0.0503 -0.6965
 1488SOL     hw 5951   7.259   2.690   1.988 -2.0722  0.6825  0.4843
 1488SOL     vw 5952   7.307   2.713   2.057 -0.1554  0.1941 -0.5958
 1489SOL     ow 5953   5.148   2.144   6.180  0.2553  0.6726 -0.0430
 1489SOL     hw 5954   5.118   2.229   6.149 -0.0506  1.2061  1.6478
 1489SOL     hw 5955   5.110   2.135   6.267  1.1020 -0.7604  0.2077
 1489SOL     vw 5956   5.139   2.154   6.187  0.3264  0.5540  0.2131
 1490SOL     ow 5957   0.256   0.195   4.588 -0.5695  0.2810  0.3408
 1490SOL     hw 5958   0.276   0.244   4.668 -0.7076 -2.1139  1.9776
 1490SOL     hw 5959   0.165   0.167   4.600 -0.4563 -0.4636 -0.4612
 1490SOL     vw 5960   0.246   0.198   4.600 -0.5728 -0.1332  0.4508
 1491SOL     ow 5961   3.612   3.410   5.216  1.0448  0.6482  0.5437
 1491SOL     hw 5962   3.650   3.341   5.271  1.3317 -0.9185 -1.4757
 1491SOL     hw 5963   3.526   3.376   5.192  1.6464  0.3652 -1.4214
 1491SOL     vw 5964   3.606   3.396   5.220  1.1622  0.4040  0.0179
 1492SOL     ow 5965   1.158   4.435   5.844 -0.1871  0.3859  0.0149
 1492SOL     hw 5966   1.086   4.493   5.869  0.5465  1.0070  0.7263
 1492SOL     hw 5967   1.189   4.399   5.927  0.6328  0.5081 -0.2349
 1492SOL     vw 5968   1.152   4.438   5.858  0.0179  0.4842  0.0758
 1493SOL     ow 5969   4.405   3.056   4.515  0.1577 -0.6158 -0.0117
 1493SOL     hw 5970   4.368   2.985   4.462  1.5788 -2.0373  0.7836
 1493SOL     hw 5971   4.329   3.108   4.542 -0.9007 -1.6056 -0.9533
 1493SOL     vw 5972   4.390   3.053   4.512  0.2055 -0.9339 -0.0310
 1494SOL     ow 5973   0.508   0.064   4.925  0.2281 -0.2528  0.1932
 1494SOL     hw 5974   0.422   0.023   4.936 -1.8416  3.5020 -0.3577
 1494SOL     hw 5975   0.543   0.069   5.014  0.4894 -2.7692  0.3147
 1494SOL     vw 5976   0.501   0.059   4.938 -0.0105 -0.0894  0.1364
 1495SOL     ow 5977   1.828   2.860   0.908 -0.1483  0.3209  1.2011
 1495SOL     hw 5978   1.762   2.882   0.973 -0.0092 -1.0691  1.8490
 1495SOL     hw 5979   1.780   2.818   0.837 -0.1295  0.6007  1.0207
 1495SOL     vw 5980   1.813   2.858   0.907 -0.1275  0.1745  1.2628
 1496SOL     ow 5981   4.451   0.910   1.303  0.4244  0.1360  0.6431
 1496SOL     hw 5982   4.535   0.922   1.347  0.5604 -1.9720  1.0653
 1496SOL     hw 5983   4.473   0.869   1.219 -0.1532 -0.2151  0.6573
 1496SOL     vw 5984   4.465   0.906   1.298  0.3662 -0.1884  0.7007
 1497SOL     ow 5985   6.855   6.905   4.189 -0.2293 -0.5441  0.1413
 1497SOL     hw 5986   6.823   6.995   4.193  0.2415 -0.3841  0.3466
 1497SOL     hw 5987   6.861   6.877   4.280  0.5359 -0.4521  0.1294
 1497SOL     vw 5988   6.852   6.913   4.201 -0.0658 -0.5112  0.1669
 1498SOL     ow 5989   6.045   7.444   4.283 -1.0244  0.0553 -0.0890
 1498SOL     hw 5990   6.055   7.475   4.193  0.6924  2.2663  0.7676
 1498SOL     hw 5991   6.087   7.358   4.283  0.9985  0.9617 -0.9761
 1498SOL     vw 5992   6.052   7.436   4.271 -0.5312  0.4663 -0.0930
 1499SOL     ow 5993   5.936   0.379   1.815  1.0506  0.0805 -0.1044
 1499SOL     hw 5994   5.991   0.399   1.739 -0.2493  3.1701 -0.3983
 1499SOL     hw 5995   5.953   0.451   1.877  0.7836 -1.4286  1.8208
 1499SOL     vw 5996   5.946   0.391   1.813  0.8442  0.2890  0.1107
 1500SOL     ow 5997   4.511   5.821   0.171  0.8985 -0.2772 -0.1125
 1500SOL     hw 5998   4.490   5.865   0.253 -1.2930 -3.3240  1.1773
 1500SOL     hw 5999   4.431   5.828   0.119 -0.1009 -3.6384  0.7293
 1500SOL     vw 6000   4.498   5.828   0.175  0.4773 -1.1227  0.1687
 1501SOL     ow 6001   0.107   5.346   6.352 -0.2351 -0.3231  0.1352
 1501SOL     hw 6002   0.036   5.403   6.380 -0.7835 -1.0932  0.3678
 1501SOL     hw 6003   0.108   5.275   6.416  0.2765 -0.6953 -0.2682
 1501SOL     vw 6004   0.098   5.344   6.364 -0.2399 -0.4737  0.1130
 1502SOL     ow 6005   2.180   5.553   1.688  0.3497  0.4203  0.4086
 1502SOL     hw 6006   2.182   5.511   1.602  0.6039  1.0344  0.1079
 1502SOL     hw 6007   2.131   5.634   1.674 -1.5816 -0.5246  1.3463
 1502SOL     vw 6008   2.174   5.559   1.675  0.1284  0.3765  0.4926
 1503SOL     ow 6009   2.322   5.091   1.093 -0.4892 -0.2553 -0.7302
 1503SOL     hw 6010   2.284   5.011   1.056 -1.2346  0.4709 -1.5853
 1503SOL     hw 6011   2.247   5.141   1.124  0.0894 -1.1637  2.6671
 1503SOL     vw 6012   2.307   5.087   1.093 -0.5113 -0.2792 -0.3948
 1504SOL     ow 6013   3.845   4.112   5.893  0.4519  0.2962 -0.0239
 1504SOL     hw 6014   3.931   4.104   5.936 -0.2520 -1.6819  1.1542
 1504SOL     hw 6015   3.823   4.022   5.868 -1.7158  0.6052  0.6227
 1504SOL     vw 6016   3.854   4.099   5.896  0.0731  0.0761  0.2170
 1505SOL     ow 6017   7.280   4.216   1.045  1.1271  0.1300  0.3517
 1505SOL     hw 6018   7.264   4.296   1.095  0.2400 -0.2226  0.6567
 1505SOL     hw 6019   7.312   4.153   1.110 -0.3995 -0.4464  0.5821
 1505SOL     vw 6020   7.282   4.218   1.060  0.8085  0.0076  0.4223
 1506SOL     ow 6021   1.378   3.146   1.515 -0.3358  0.5518  0.7085
 1506SOL     hw 6022   1.456   3.132   1.462 -1.3831 -0.6215 -0.5754
 1506SOL     hw 6023   1.309   3.096   1.472 -1.3077 -0.2829  3.0569
 1506SOL     vw 6024   1.379   3.138   1.503 -0.6022  0.2868  0.8489
 1507SOL     ow 6025   0.361   5.732   3.940  0.1409 -0.7996 -0.4382
 1507SOL     hw 6026   0.452   5.704   3.949 -0.0164 -1.2180 -0.1266
 1507SOL     hw 6027   0.364   5.827   3.955  0.2429 -1.1030  1.7617
 1507SOL     vw 6028   0.374   5.741   3.943  0.1336 -0.8950 -0.1068
 1508SOL     ow 6029   5.137   6.486   2.162  0.4082  0.0060 -0.5888
 1508SOL     hw 6030   5.060   6.536   2.188  0.7653 -0.2753  1.1289
 1508SOL     hw 6031   5.130   6.405   2.212  1.5658 -0.2453 -0.8139
 1508SOL     vw 6032   5.126   6.482   2.172  0.6080 -0.0641 -0.3917
 1509SOL     ow 6033   2.328   4.129   4.100 -0.8689 -0.6488  0.3165
 1509SOL     hw 6034   2.377   4.129   4.183  2.0067  1.4025 -1.2230
 1509SOL     hw 6035   2.255   4.189   4.116 -0.8241 -0.8898  1.5782
 1509SOL     vw 6036   2.325   4.137   4.113 -0.4836 -0.4098  0.2799
 1510SOL     ow 6037   1.801   6.870   3.298  0.4387 -0.3377  0.1907
 1510SOL     hw 6038   1.854   6.862   3.377  0.7999 -2.5168 -0.2096
 1510SOL     hw 6039   1.728   6.810   3.312 -0.1949  0.2237 -0.6079
 1510SOL     vw 6040   1.798   6.861   3.311  0.4028 -0.5512  0.0324
 1511SOL     ow 6041   2.423   4.483   0.965 -0.1337 -1.3101  0.3747
 1511SOL     hw 6042   2.387   4.494   1.052 -2.0583 -2.9316 -0.1424
 1511SOL     hw 6043   2.432   4.572   0.930 -0.9017 -0.7403  1.6019
 1511SOL     vw 6044   2.420   4.496   0.972 -0.4889 -1.4486  0.4684
 1512SOL     ow 6045   1.314   7.478   4.401 -0.1937  0.4276 -0.2391
 1512SOL     hw 6046   1.353   7.559   4.368  0.3964  0.4083  0.3800
 1512SOL     hw 6047   1.253   7.507   4.469  2.3199  0.2686  2.2823
 1512SOL     vw 6048   1.311   7.493   4.405  0.2158  0.4041  0.1755
 1513SOL     ow 6049   2.235   0.405   6.797 -0.3645  0.3596 -0.0142
 1513SOL     hw 6050   2.166   0.450   6.749  0.0393  0.1290 -0.8384
 1513SOL     hw 6051   2.285   0.359   6.729 -0.1569 -0.4934  0.6962
 1513SOL     vw 6052   2.233   0.405   6.781 -0.2840  0.2167 -0.0291
 1514SOL     ow 6053   7.504   1.476   1.190 -0.0610  0.2235 -0.3602
 1514SOL     hw 6054   7.443   1.403   1.175  0.0139  0.6606 -3.3773
 1514SOL     hw 6055   7.516   1.515   1.104  4.2341  0.4291  0.1344
 1514SOL     vw 6056   7.497   1.472   1.177  0.5157  0.3083 -0.6931
 1515SOL     ow 6057   0.781   2.164   7.348 -0.3277 -0.3278 -0.1716
 1515SOL     hw 6058   0.703   2.177   7.295 -0.9448  0.2360  0.8533
 1515SOL     hw 6059   0.758   2.197   7.435  1.4091  0.9061 -0.1124
 1515SOL     vw 6060   0.768   2.170   7.353 -0.1799 -0.0906 -0.0286
 1516SOL     ow 6061   3.495   5.920   2.545 -0.4414 -0.0378 -0.2868
 1516SOL     hw 6062   3.552   5.926   2.622 -0.9975  1.1359  0.0401
 1516SOL     hw 6063   3.409   5.948   2.576 -0.7202  0.2376 -1.2893
 1516SOL     vw 6064   3.491   5.924   2.559 -0.5513  0.1535 -0.3760
 1517SOL     ow 6065   0.278   4.131   0.798 -0.1181 -0.6040 -0.0328
 1517SOL     hw 6066   0.215   4.150   0.867 -1.4396  0.5345 -1.4645
 1517SOL     hw 6067   0.265   4.039   0.777 -1.4667 -0.3492 -0.4131
 1517SOL     vw 6068   0.268   4.122   0.804 -0.4704 -0.4201 -0.2719
 1518SOL     ow 6069   7.037   0.535   6.719 -0.0232  0.2130  0.5927
 1518SOL     hw 6070   7.110   0.481   6.688 -0.1200  0.5046 -0.1526
 1518SOL     hw 6071   7.079   0.613   6.755 -0.0091  1.5296 -2.0449
 1518SOL     vw 6072   7.052   0.538   6.720 -0.0343  0.4252  0.1462
 1519SOL     ow 6073   4.286   4.607   6.932  0.2214  0.0911 -0.1971
 1519SOL     hw 6074   4.305   4.672   6.864  1.2029  0.2818  0.2477
 1519SOL     hw 6075   4.202   4.569   6.905  0.4029  0.4342 -1.3055
 1519SOL     vw 6076   4.277   4.611   6.919  0.3750  0.1614 -0.2844
 1520SOL     ow 6077   5.660   7.194   3.309 -0.2811  0.0693  0.7215
 1520SOL     hw 6078   5.741   7.244   3.315 -1.1099  1.4398  0.8430
 1520SOL     hw 6079   5.672   7.139   3.231  1.2852 -0.7746  1.5023
 1520SOL     vw 6080   5.673   7.193   3.299 -0.1841  0.1388  0.8408
 1521SOL     ow 6081   1.948   5.919   4.692 -0.1651  0.1801 -0.1506
 1521SOL     hw 6082   1.911   5.906   4.605  1.3070  0.2562 -0.8024
 1521SOL     hw 6083   2.019   5.982   4.680  0.4443 -0.2505  1.0051
 1521SOL     vw 6084   1.952   5.926   4.679  0.1095  0.1333 -0.0842
 1522SOL     ow 6085   1.152   0.810   5.262  0.4296  0.0478 -0.0865
 1522SOL     hw 6086   1.214   0.773   5.325 -0.7983  0.2362  1.2774
 1522SOL     hw 6087   1.108   0.880   5.310 -1.3166 -0.5258 -0.7926
 1522SOL     vw 6088   1.155   0.814   5.277  0.0372 -0.0030  0.0002
 1523SOL     ow 6089   4.190   5.378   0.324 -0.3337  0.2250  0.0654
 1523SOL     hw 6090   4.127   5.335   0.382  2.1707 -1.8555  1.4486
 1523SOL     hw 6091   4.266   5.396   0.380  0.3391  2.7736 -1.4926
 1523SOL     vw 6092   4.192   5.375   0.339  0.0856  0.2866  0.0423
 1524SOL     ow 6093   6.282   5.649   4.534  0.3448  0.1497 -0.4627
 1524SOL     hw 6094   6.304   5.664   4.442  1.5350 -1.4454 -0.4942
 1524SOL     hw 6095   6.277   5.553   4.542  1.8962  0.1628  1.4379
 1524SOL     vw 6096   6.284   5.638   4.523  0.7062 -0.0591 -0.2162
 1525SOL     ow 6097   6.225   1.539   0.274  0.1110  0.2312  0.5235
 1525SOL     hw 6098   6.307   1.490   0.282 -0.5750 -0.6369  3.2729
 1525SOL     hw 6099   6.160   1.475   0.247  0.3289  1.0228 -2.1846
 1525SOL     vw 6100   6.227   1.524   0.271  0.0494  0.2211  0.5290
 1526SOL     ow 6101   1.082   3.368   0.134  0.0951 -0.2552 -0.0321
 1526SOL     hw 6102   1.159   3.331   0.177  0.1904 -0.1086 -0.0738
 1526SOL     hw 6103   1.027   3.293   0.113 -0.8541 -0.2217  2.0492
 1526SOL     vw 6104   1.085   3.353   0.137 -0.0175 -0.2315  0.2370
 1527SOL     ow 6105   4.756   5.331   3.481  0.4035 -0.0975  0.0127
 1527SOL     hw 6106   4.665   5.310   3.500 -0.7949  3.6622 -0.8729
 1527SOL     hw 6107   4.793   5.355   3.567  0.1216 -0.0912  0.1326
 1527SOL     vw 6108   4.749   5.331   3.495  0.2081  0.3996 -0.0882
 1528SOL     ow 6109   3.033   6.697   1.429  0.1114  0.6203  0.6176
 1528SOL     hw 6110   3.036   6.696   1.333 -0.7834 -1.5273  0.5472
 1528SOL     hw 6111   3.112   6.651   1.456 -1.3663 -2.1221  0.6976
 1528SOL     vw 6112   3.044   6.691   1.420 -0.2015 -0.0248  0.6189
 1529SOL     ow 6113   3.806   1.561   0.024 -0.5165  0.5899 -0.3931
 1529SOL     hw 6114   3.750   1.485   0.015  1.4339 -0.9670 -0.1050
 1529SOL     hw 6115   3.841   1.576  -0.064  1.1382 -0.5571  0.0258
 1529SOL     vw 6116   3.803   1.553   0.011 -0.0408  0.2332 -0.2998
 1530SOL     ow 6117   3.870   0.149   6.648 -0.0185  0.5459  0.6257
 1530SOL     hw 6118   3.889   0.204   6.725  1.8328 -0.6021  1.0588
 1530SOL     hw 6119   3.932   0.179   6.582  0.4996 -0.4931  0.6245
 1530SOL     vw 6120   3.881   0.161   6.650  0.2940  0.2573  0.6826
 1531SOL     ow 6121   1.039   2.016   0.254  0.4302  0.3826  0.0069
 1531SOL     hw 6122   1.023   2.079   0.324 -0.1606 -0.2126  0.4093
 1531SOL     hw 6123   1.092   1.948   0.294 -0.2451 -0.1634 -0.0168
 1531SOL     vw 6124   1.044   2.016   0.268  0.2631  0.2320  0.0569
 1532SOL     ow 6125   1.292   6.299   7.292 -0.3230 -0.1725 -0.1779
 1532SOL     hw 6126   1.285   6.374   7.350  0.3326 -1.0896  1.1194
 1532SOL     hw 6127   1.331   6.335   7.212  1.2789  0.6469  0.9101
 1532SOL     vw 6128   1.297   6.314   7.289 -0.0252 -0.1853  0.1369
 1533SOL     ow 6129   2.761   6.201   5.360  0.7457 -0.1996 -0.1174
 1533SOL     hw 6130   2.791   6.275   5.308 -1.5938  0.0172 -1.2865
 1533SOL     hw 6131   2.678   6.230   5.399  1.0264 -1.3512  1.4647
 1533SOL     vw 6132   2.754   6.215   5.358  0.4740 -0.3228 -0.0627
 1534SOL     ow 6133   3.466   1.805   4.685 -0.5420  0.5289 -0.0976
 1534SOL     hw 6134   3.457   1.886   4.736 -1.4713  0.1394  0.3686
 1534SOL     hw 6135   3.550   1.816   4.639 -0.4432  1.5686  0.2868
 1534SOL     vw 6136   3.476   1.817   4.685 -0.6515  0.6146  0.0145
 1535SOL     ow 6137   3.705   1.375   5.660 -0.0614  0.9015 -0.0191
 1535SOL     hw 6138   3.738   1.462   5.684 -3.8365  2.7058 -0.6506
 1535SOL     hw 6139   3.674   1.338   5.743 -0.1803  0.9801 -0.0286
 1535SOL     vw 6140   3.706   1.381   5.674 -0.5752  1.1500 -0.1035
 1536SOL     ow 6141   6.697   5.202   0.877 -0.4715 -0.3445 -0.1412
 1536SOL     hw 6142   6.695   5.124   0.932 -0.6954  3.0001  5.2380
 1536SOL     hw 6143   6.787   5.206   0.845  0.9039 -0.6390  3.2914
 1536SOL     vw 6144   6.709   5.192   0.880 -0.3195  0.0579  1.0214
 1537SOL     ow 6145   3.902   4.801   2.925  0.5428  0.1542 -0.1343
 1537SOL     hw 6146   3.874   4.785   3.015  0.0675 -0.4865 -0.3929
 1537SOL     hw 6147   3.956   4.725   2.903  0.7054  0.3371 -0.3773
 1537SOL     vw 6148   3.906   4.789   2.934  0.5015  0.0937 -0.2006
 1538SOL     ow 6149   3.972   2.743   2.094  0.3921 -0.6515  0.2749
 1538SOL     hw 6150   3.950   2.831   2.064 -1.7305 -0.7181  1.4702
 1538SOL     hw 6151   4.045   2.756   2.155 -1.1821  0.5870  1.9900
 1538SOL     vw 6152   3.979   2.756   2.099 -0.0956 -0.4969  0.6588
 1539SOL     ow 6153   2.891   0.326   5.773 -0.4344 -0.5442  0.0175
 1539SOL     hw 6154   2.868   0.244   5.728 -0.6285 -0.6921  0.3853
 1539SOL     hw 6155   2.877   0.394   5.707 -1.1761 -0.7114 -0.0054
 1539SOL     vw 6156   2.886   0.324   5.758 -0.5578 -0.5858  0.0632
 1540SOL     ow 6157   4.601   1.098   7.508  0.1665 -0.1802 -0.4097
 1540SOL     hw 6158   4.610   1.186   7.547 -0.2935 -0.0828 -0.5166
 1540SOL     hw 6159   4.648   1.041   7.569 -0.8375 -0.0780  0.4975
 1540SOL     vw 6160   4.609   1.102   7.521 -0.0267 -0.1539 -0.3040
 1541SOL     ow 6161   3.992   7.074   3.699  0.2855 -0.5542  0.1579
 1541SOL     hw 6162   4.065   7.134   3.685  0.9661 -1.3102  0.3831
 1541SOL     hw 6163   3.914   7.125   3.677  0.9969 -0.4074 -2.3600
 1541SOL     vw 6164   3.991   7.088   3.694  0.4691 -0.6347 -0.1446
 1542SOL     ow 6165   2.925   2.952   2.951  0.0185 -0.5867 -0.5910
 1542SOL     hw 6166   2.862   2.901   3.002  2.0210 -2.7129 -0.1017
 1542SOL     hw 6167   2.888   3.041   2.949 -1.3041 -0.9392  2.5532
 1542SOL     vw 6168   2.912   2.957   2.957  0.1081 -0.9137 -0.1116
 1543SOL     ow 6169   5.243   1.874   5.782 -0.4558 -0.8525 -0.3784
 1543SOL     hw 6170   5.303   1.818   5.831  0.3750  0.5476  0.2520
 1543SOL     hw 6171   5.228   1.827   5.700 -0.3203 -2.3034  0.3949
 1543SOL     vw 6172   5.249   1.861   5.778 -0.3281 -0.8592 -0.1934
 1544SOL     ow 6173   5.551   7.433   5.184  0.4599  0.3933  0.1896
 1544SOL     hw 6174   5.503   7.514   5.166 -0.8257  0.1659  2.2233
 1544SOL     hw 6175   5.631   7.461   5.228  0.2036  0.5989  0.5307
 1544SOL     vw 6176   5.555   7.447   5.187  0.2565  0.3905  0.5033
 1545SOL     ow 6177   3.859   5.456   6.939  0.3187  0.3109  0.4914
 1545SOL     hw 6178   3.880   5.449   6.845  1.8537  0.4843  0.7889
 1545SOL     hw 6179   3.926   5.403   6.982  1.3636  2.4486  1.6410
 1545SOL     vw 6180   3.871   5.448   6.932  0.6591  0.6161  0.6824
 1546SOL     ow 6181   7.438   3.336   6.822  0.6212 -1.0885  0.0914
 1546SOL     hw 6182   7.362   3.301   6.776  1.1259 -2.2814  0.1258
 1546SOL     hw 6183   7.477   3.398   6.761 -0.4616 -0.3446  0.1407
 1546SOL     vw 6184   7.433   3.339   6.808  0.5448 -1.1476  0.1023
 1547SOL     ow 6185   0.957   3.638   4.846 -0.0066 -0.1483  0.6277
 1547SOL     hw 6186   1.003   3.722   4.857 -1.6341  0.7008  1.3435
 1547SOL     hw 6187   1.027   3.573   4.842  1.3273  1.2755 -0.3954
 1547SOL     vw 6188   0.973   3.641   4.847 -0.0453  0.1516  0.5872
 1548SOL     ow 6189   4.783   6.503   0.836 -0.2034 -0.2981  0.0578
 1548SOL     hw 6190   4.705   6.552   0.810 -0.5256 -0.5171  0.5945
 1548SOL     hw 6191   4.753   6.413   0.845 -0.3426 -0.0865  2.1094
 1548SOL     vw 6192   4.769   6.498   0.833 -0.2642 -0.2990  0.3994
 1549SOL     ow 6193   6.375   0.750   2.143 -0.6287 -0.1552  1.1108
 1549SOL     hw 6194   6.371   0.842   2.168  0.5150  0.2614 -0.0834
 1549SOL     hw 6195   6.460   0.720   2.175  1.4227  0.7017 -2.8217
 1549SOL     vw 6196   6.386   0.758   2.150 -0.2074  0.0128  0.4343
 1550SOL     ow 6197   3.648   5.020   1.272 -0.5098 -0.1164 -0.0021
 1550SOL     hw 6198   3.634   5.102   1.223  1.9082  0.8080  0.7145
 1550SOL     hw 6199   3.625   5.042   1.362 -1.2592 -0.6968 -0.0412
 1550SOL     vw 6200   3.643   5.034   1.277 -0.2896 -0.0708  0.0873
 1551SOL     ow 6201   3.427   7.115   3.636  0.4217 -0.2865 -0.4800
 1551SOL     hw 6202   3.406   7.199   3.595 -0.2607 -0.4036 -0.3974
 1551SOL     hw 6203   3.481   7.069   3.572  0.7960  0.2178 -0.5251
 1551SOL     vw 6204   3.431   7.120   3.622  0.3812 -0.2353 -0.4750
 1552SOL     ow 6205   5.702   6.988   6.579  0.1700 -0.0771 -0.7369
 1552SOL     hw 6206   5.755   6.910   6.587  0.2850 -0.0151 -0.8806
 1552SOL     hw 6207   5.698   7.025   6.667  0.4431 -0.0313 -0.7429
 1552SOL     vw 6208   5.708   6.983   6.591  0.2213 -0.0632 -0.7565
 1553SOL     ow 6209   6.447   2.949   1.149 -0.5424  0.1142 -0.2591
 1553SOL     hw 6210   6.368   2.918   1.194 -0.3393  0.2693  0.2054
 1553SOL     hw 6211   6.515   2.888   1.176  0.0005  1.2805  1.1408
 1553SOL     vw 6212   6.445   2.937   1.158 -0.4442  0.2885 -0.0131
 1554SOL     ow 6213   3.014   4.781   3.380  0.0313  0.3851 -0.0557
 1554SOL     hw 6214   3.096   4.822   3.351  0.1241 -1.3402 -2.6188
 1554SOL     hw 6215   2.946   4.830   3.334  0.1217 -1.7892 -2.8403
 1554SOL     vw 6216   3.016   4.793   3.370  0.0554 -0.1295 -0.7613
 1555SOL     ow 6217   2.378   5.307   6.339 -0.8994 -0.4678  0.0932
 1555SOL     hw 6218   2.412   5.386   6.297  1.0654 -0.9793  0.5911
 1555SOL     hw 6219   2.307   5.338   6.395  1.3699  1.3877  2.1556
 1555SOL     vw 6220   2.373   5.321   6.341 -0.3408 -0.2906  0.4308
 1556SOL     ow 6221   6.458   3.380   1.979  0.1439 -0.1206 -0.2206
 1556SOL     hw 6222   6.405   3.318   2.028 -0.0892 -0.4903 -0.9310
 1556SOL     hw 6223   6.506   3.429   2.046 -0.9076  0.0545  0.4205
 1556SOL     vw 6224   6.457   3.378   1.994 -0.0257 -0.1463 -0.2298
 1557SOL     ow 6225   5.503   2.242   1.152 -0.2610 -0.1786  1.0823
 1557SOL     hw 6226   5.550   2.176   1.204  0.6741  0.1830  0.7190
 1557SOL     hw 6227   5.546   2.325   1.173  0.0191  0.0032 -0.1221
 1557SOL     vw 6228   5.515   2.244   1.162 -0.1009 -0.1069  0.8755
 1558SOL     ow 6229   6.410   7.127   2.031  0.3766  0.6161  0.0278
 1558SOL     hw 6230   6.315   7.130   2.041  0.5611  1.7146  2.0346
 1558SOL     hw 6231   6.443   7.184   2.101  2.5422 -0.3855 -0.0975
 1558SOL     vw 6232   6.402   7.135   2.042  0.6866  0.6289  0.2761
 1559SOL     ow 6233   0.904   6.709   1.368  0.1072 -0.1242 -0.1733
 1559SOL     hw 6234   0.876   6.688   1.457 -0.4852 -0.6050 -0.4669
 1559SOL     hw 6235   0.866   6.640   1.314 -0.4659  0.7588 -0.9374
 1559SOL     vw 6236   0.895   6.697   1.372 -0.0466 -0.0713 -0.3129
 1560SOL     ow 6237   3.265   4.327   2.930  0.1362  0.6497  0.6138
 1560SOL     hw 6238   3.198   4.330   2.998  0.2938 -0.3570  0.8197
 1560SOL     hw 6239   3.217   4.309   2.849 -0.1099  2.3293  0.3522
 1560SOL     vw 6240   3.250   4.325   2.929  0.1246  0.7384  0.6064
 1561SOL     ow 6241   1.410   4.814   4.130 -0.2269 -0.4909  0.0208
 1561SOL     hw 6242   1.340   4.762   4.168 -1.3388  0.2818 -0.9075
 1561SOL     hw 6243   1.406   4.898   4.176  0.6667 -0.7188  0.5535
 1561SOL     vw 6244   1.400   4.818   4.141 -0.2557 -0.4191 -0.0315
 1562SOL     ow 6245   2.525   0.790   6.316 -0.2535 -0.3030  0.4674
 1562SOL     hw 6246   2.468   0.815   6.243  1.2987  0.7197 -0.4434
 1562SOL     hw 6247   2.504   0.698   6.332 -1.3974 -0.2429 -0.5331
 1562SOL     vw 6248   2.515   0.781   6.308 -0.1997 -0.1601  0.2153
 1563SOL     ow 6249   5.081   1.177   4.839 -0.1966 -0.7259 -0.2440
 1563SOL     hw 6250   5.019   1.163   4.767 -0.2197 -0.5556 -0.2587
 1563SOL     hw 6251   5.159   1.213   4.796  0.7550 -2.9807 -0.5346
 1563SOL     vw 6252   5.083   1.180   4.824 -0.0741 -1.0009 -0.2842
 1564SOL     ow 6253   5.608   5.761   0.311 -0.2664 -0.2945 -1.1544
 1564SOL     hw 6254   5.640   5.675   0.286 -1.7188 -1.0066 -0.7041
 1564SOL     hw 6255   5.592   5.754   0.405  4.1538  2.0121  0.0459
 1564SOL     vw 6256   5.610   5.749   0.320  0.1249 -0.0842 -0.9366
 1565SOL     ow 6257   7.151   3.149   4.999 -0.5724  0.5129  0.2720
 1565SOL     hw 6258   7.085   3.079   4.991 -0.6059  0.6832 -1.1183
 1565SOL     hw 6259   7.107   3.227   4.965  0.9206  0.2402 -2.5215
 1565SOL     vw 6260   7.136   3.150   4.993 -0.3800  0.4994 -0.2799
 1566SOL     ow 6261   6.485   3.844   5.407  0.3640  0.2654  1.1484
 1566SOL     hw 6262   6.428   3.915   5.376 -0.6098 -0.7949  0.4316
 1566SOL     hw 6263   6.435   3.802   5.476 -1.0849 -2.4202 -1.3072
 1566SOL     vw 6264   6.471   3.848   5.412  0.0446 -0.2288  0.7298
 1567SOL     ow 6265   2.666   5.413   1.983  0.3586  0.0031  0.2447
 1567SOL     hw 6266   2.713   5.494   1.965 -1.2464  1.0444  0.4779
 1567SOL     hw 6267   2.731   5.355   2.022  1.4959  1.2671  0.3009
 1567SOL     vw 6268   2.681   5.416   1.986  0.2967  0.3073  0.2828
 1568SOL     ow 6269   2.315   7.507   7.498  0.4275  1.2275 -0.4466
 1568SOL     hw 6270   2.314   7.600   7.521  0.5148  1.4423 -1.2915
 1568SOL     hw 6271   2.328   7.505   7.403 -0.1986  0.3650 -0.5332
 1568SOL     vw 6272   2.317   7.519   7.488  0.3564  1.1423 -0.5693
 1569SOL     ow 6273   5.397   7.277   0.265  0.5427 -0.1442  0.5322
 1569SOL     hw 6274   5.471   7.271   0.326 -0.4382  0.0544  1.7894
 1569SOL     hw 6275   5.427   7.232   0.186  1.7913 -0.5796  1.2260
 1569SOL     vw 6276   5.411   7.270   0.263  0.5782 -0.1752  0.7896
 1570SOL     ow 6277   6.649   0.750   6.854  0.2458  0.7725  0.0124
 1570SOL     hw 6278   6.715   0.799   6.903 -1.8168  1.7741  1.9280
 1570SOL     hw 6279   6.577   0.812   6.841 -2.6734 -1.6661  2.9227
 1570SOL     vw 6280   6.648   0.765   6.858 -0.4115  0.5829  0.6490
 1571SOL     ow 6281   4.260   7.573   6.685 -0.6684 -0.0678  0.0402
 1571SOL     hw 6282   4.206   7.532   6.752 -1.8005  1.8322  0.3483
 1571SOL     hw 6283   4.199   7.592   6.613 -0.0668  0.5430 -0.3248
 1571SOL     vw 6284   4.245   7.570   6.684 -0.7384  0.2635  0.0327
 1572SOL     ow 6285   7.207   5.749   7.515  0.4046 -0.8074  0.0551
 1572SOL     hw 6286   7.194   5.745   7.610 -0.5891 -0.3997 -0.0483
 1572SOL     hw 6287   7.138   5.808   7.484  0.8760 -0.7355 -0.8944
 1572SOL     vw 6288   7.196   5.756   7.523  0.3357 -0.7439 -0.0839
 1573SOL     ow 6289   7.194   3.164   1.461  0.0310  0.0325 -0.3437
 1573SOL     hw 6290   7.197   3.119   1.377  2.3233  0.8660 -0.7778
 1573SOL     hw 6291   7.279   3.207   1.468 -0.2154  0.2458  2.2669
 1573SOL     vw 6292   7.206   3.164   1.451  0.3011  0.1706 -0.0566
 1574SOL     ow 6293   5.613   6.345   3.289 -0.1169  0.5738  0.6362
 1574SOL     hw 6294   5.561   6.422   3.310 -1.0389 -0.1748  1.2150
 1574SOL     hw 6295   5.630   6.303   3.373 -0.1937 -0.1954  0.2811
 1574SOL     vw 6296   5.608   6.349   3.303 -0.2487  0.3736  0.6657
 1575SOL     ow 6297   3.457   2.977   6.486 -0.5783  0.0252 -0.2669
 1575SOL     hw 6298   3.426   2.902   6.436 -1.0760 -1.5961  2.3200
 1575SOL     hw 6299   3.377   3.026   6.506 -0.6572 -0.4909  0.7099
 1575SOL     vw 6300   3.442   2.974   6.482 -0.6543 -0.2570  0.2031
 1576SOL     ow 6301   4.400   5.363   2.184 -0.5176  0.1053 -0.2272
 1576SOL     hw 6302   4.390   5.442   2.237 -1.2800  0.0269 -0.2467
 1576SOL     hw 6303   4.486   5.328   2.208 -0.9185 -0.0144  1.0575
 1576SOL     vw 6304   4.410   5.369   2.194 -0.6711  0.0789 -0.0601
 1577SOL     ow 6305   5.053   0.250   0.049 -0.2735  0.7245  0.1887
 1577SOL     hw 6306   5.012   0.286  -0.030 -0.0342 -0.3895 -0.4559
 1577SOL     hw 6307   5.086   0.327   0.096  3.1072  1.3060 -2.7098
 1577SOL     vw 6308   5.052   0.265   0.045  0.2043  0.6543 -0.2789
 1578SOL     ow 6309   0.989   5.185   0.002 -0.2996  0.4093  0.0140
 1578SOL     hw 6310   0.977   5.186   0.096 -2.3256  1.8317 -0.2145
 1578SOL     hw 6311   0.976   5.275  -0.026 -1.1649 -0.2081 -1.7661
 1578SOL     vw 6312   0.986   5.197   0.010 -0.6811  0.5152 -0.2510
 1579SOL     ow 6313   7.273   1.386   3.232 -0.7081 -0.1092 -0.5364
 1579SOL     hw 6314   7.185   1.418   3.213 -0.1322  2.3309  0.4812
 1579SOL     hw 6315   7.278   1.386   3.328  0.2884 -0.5860 -0.5744
 1579SOL     vw 6316   7.262   1.390   3.242 -0.5007  0.1497 -0.4071
 1580SOL     ow 6317   6.759   2.033   6.527 -0.4170 -0.6161  0.2786
 1580SOL     hw 6318   6.853   2.047   6.534 -0.1086 -2.2535 -0.2231
 1580SOL     hw 6319   6.736   2.062   6.439 -0.8229  1.8969  1.1521
 1580SOL     vw 6320   6.768   2.038   6.516 -0.4299 -0.5006  0.3273
 1581SOL     ow 6321   4.353   2.352   3.138  0.3612 -0.0964  0.4467
 1581SOL     hw 6322   4.350   2.421   3.071 -1.5480  0.4003  0.9752
 1581SOL     hw 6323   4.332   2.272   3.090 -1.9968  0.3969  0.5493
 1581SOL     vw 6324   4.350   2.351   3.123 -0.2019  0.0342  0.5299
 1582SOL     ow 6325   2.915   5.031   6.700 -0.2111  0.6592  0.6274
 1582SOL     hw 6326   2.920   5.022   6.795  1.0073  1.4259  0.6565
 1582SOL     hw 6327   2.929   4.942   6.668  1.1081  0.6564  1.1442
 1582SOL     vw 6328   2.917   5.018   6.709  0.1239  0.7598  0.6993
 1583SOL     ow 6329   6.003   4.208   1.518 -0.4487 -0.1510 -0.1185
 1583SOL     hw 6330   6.092   4.186   1.493  0.5527  0.8212  2.2212
 1583SOL     hw 6331   6.001   4.304   1.520 -0.4126 -0.0837  2.9911
 1583SOL     vw 6332   6.014   4.218   1.515 -0.3116 -0.0141  0.6005
 1584SOL     ow 6333   5.986   7.249   6.706 -0.4492  0.2323  0.7427
 1584SOL     hw 6334   6.007   7.333   6.664  0.7613 -0.9322 -1.1157
 1584SOL     hw 6335   5.991   7.185   6.636 -1.8406 -1.3672  2.0290
 1584SOL     vw 6336   5.990   7.252   6.692 -0.4733 -0.1328  0.6673
 1585SOL     ow 6337   7.192   3.114   1.083 -0.4153 -0.2568  0.3863
 1585SOL     hw 6338   7.122   3.158   1.036 -0.2854  0.0576  0.4856
 1585SOL     hw 6339   7.252   3.184   1.108 -0.4482 -0.4241  0.9558
 1585SOL     vw 6340   7.191   3.129   1.080 -0.4027 -0.2375  0.4745
 1586SOL     ow 6341   5.875   3.954   3.851 -0.1695 -0.6095  0.2676
 1586SOL     hw 6342   5.841   3.988   3.934  3.0022 -2.4091  2.4989
 1586SOL     hw 6343   5.938   4.020   3.822 -1.4240  0.1201 -0.9326
 1586SOL     vw 6344   5.879   3.967   3.858  0.0837 -0.7507  0.4038
 1587SOL     ow 6345   5.196   2.414   6.055 -0.3738  0.0955 -0.0141
 1587SOL     hw 6346   5.176   2.472   6.128  0.6063  1.7235 -0.9921
 1587SOL     hw 6347   5.126   2.430   5.992 -0.2311  0.0315 -0.1900
 1587SOL     vw 6348   5.184   2.424   6.056 -0.2255  0.3018 -0.1662
 1588SOL     ow 6349   2.281   0.354   4.398 -0.6154 -0.6728  0.0657
 1588SOL     hw 6350   2.249   0.443   4.387  1.9903  0.2808 -0.5249
 1588SOL     hw 6351   2.279   0.339   4.492 -0.5935  0.2044  0.2140
 1588SOL     vw 6352   2.276   0.364   4.409 -0.2686 -0.4312  0.0072
 1589SOL     ow 6353   4.684   3.290   0.603 -0.3521  0.1021  0.0656
 1589SOL     hw 6354   4.675   3.204   0.644  1.0485 -0.6717 -1.1632
 1589SOL     hw 6355   4.595   3.314   0.577 -0.7210 -1.1204  0.1506
 1589SOL     vw 6356   4.671   3.282   0.605 -0.2160 -0.1613 -0.0853
 1590SOL     ow 6357   5.512   5.388   4.734 -0.1264 -0.4207  0.0947
 1590SOL     hw 6358   5.548   5.356   4.651  0.6026 -2.0905  1.0009
 1590SOL     hw 6359   5.445   5.325   4.757  1.9398 -1.9906  2.3720
 1590SOL     vw 6360   5.508   5.376   4.726  0.2422 -0.8478  0.5147
 1591SOL     ow 6361   7.341   5.508   3.024  0.0346 -0.6919  0.0051
 1591SOL     hw 6362   7.367   5.418   3.003 -0.7182 -1.6299  2.6916
 1591SOL     hw 6363   7.249   5.512   3.001 -0.4357 -1.2849  1.6411
 1591SOL     vw 6364   7.332   5.496   3.018 -0.1268 -0.8938  0.5755
 1592SOL     ow 6365   3.462   2.706   2.524 -0.8319 -0.2121  0.7823
 1592SOL     hw 6366   3.383   2.727   2.573 -1.3767 -0.2198 -0.0787
 1592SOL     hw 6367   3.467   2.610   2.527 -0.8574 -0.2117  0.8364
 1592SOL     vw 6368   3.452   2.696   2.531 -0.9072 -0.2130  0.6758
 1593SOL     ow 6369   5.306   1.244   4.687  0.3370 -0.5045  0.2235
 1593SOL     hw 6370   5.372   1.175   4.688  1.0684  0.0984 -1.8897
 1593SOL     hw 6371   5.347   1.317   4.732  1.0167 -0.2350 -0.8083
 1593SOL     vw 6372   5.320   1.244   4.693  0.5231 -0.3894 -0.1912
 1594SOL     ow 6373   3.938   7.099   5.822 -0.0491 -0.1177  0.4988
 1594SOL     hw 6374   3.947   7.118   5.728 -2.0406 -1.4239 -0.0218
 1594SOL     hw 6375   4.015   7.140   5.862  0.9765  0.2927 -1.7190
 1594SOL     vw 6376   3.949   7.107   5.815 -0.1765 -0.2358  0.1376
 1595SOL     ow 6377   6.598   5.858   2.420 -0.1043 -0.1754  0.1567
 1595SOL     hw 6378   6.676   5.810   2.392  0.3247  0.7390 -0.2821
 1595SOL     hw 6379   6.599   5.937   2.365 -0.5396  0.5418  1.1597
 1595SOL     vw 6380   6.609   5.862   2.409 -0.1051  0.0401  0.2311
 1596SOL     ow 6381   1.794   7.047   0.055  0.0260 -0.0707  0.1163
 1596SOL     hw 6382   1.860   7.093   0.107 -0.4747  1.6687 -0.7154
 1596SOL     hw 6383   1.733   7.115   0.028 -0.9091 -1.2884 -0.9617
 1596SOL     vw 6384   1.795   7.062   0.058 -0.1634 -0.0021 -0.1357
 1597SOL     ow 6385   0.350   6.134   3.688 -0.2786  0.1510 -1.0144
 1597SOL     hw 6386   0.394   6.200   3.741 -0.6308  0.8117 -1.5359
 1597SOL     hw 6387   0.321   6.181   3.610 -0.9337 -0.5170 -1.1825
 1597SOL     vw 6388   0.352   6.149   3.685 -0.4115  0.1502 -1.1054
 1598SOL     ow 6389   6.774   3.801   5.563  0.0743 -0.2737  0.3598
 1598SOL     hw 6390   6.833   3.857   5.612 -0.9742  1.5429 -0.3666
 1598SOL     hw 6391   6.769   3.720   5.614  0.9629  0.5965  1.8767
 1598SOL     vw 6392   6.782   3.797   5.576  0.0532  0.0807  0.4640
 1599SOL     ow 6393   6.952   1.333   0.479 -0.6607  0.0523  0.4031
 1599SOL     hw 6394   7.043   1.363   0.487 -1.4968  2.7050  1.0681
 1599SOL     hw 6395   6.926   1.358   0.390 -0.6972 -0.8679  0.1486
 1599SOL     vw 6396   6.961   1.340   0.468 -0.7756  0.2808  0.4572
 1600SOL     ow 6397   4.193   1.609   3.533  0.4770  0.1165  0.7516
 1600SOL     hw 6398   4.149   1.598   3.449  2.3055  0.3046 -0.2786
 1600SOL     hw 6399   4.157   1.690   3.569 -0.4053 -0.0295  0.2244
 1600SOL     vw 6400   4.183   1.618   3.527  0.6018  0.1221  0.5460
 1601SOL     ow 6401   0.521   2.046   2.808  0.0773 -0.0941  0.2652
 1601SOL     hw 6402   0.491   2.096   2.884  1.1211 -2.4270  2.3830
 1601SOL     hw 6403   0.579   2.105   2.761 -3.2161  2.6142 -0.8113
 1601SOL     vw 6404   0.525   2.060   2.812 -0.2195 -0.0446  0.4025
 1602SOL     ow 6405   0.783   7.395   1.588 -0.6078  0.2341  0.2972
 1602SOL     hw 6406   0.823   7.308   1.587  0.8873  0.8879 -1.3052
 1602SOL     hw 6407   0.694   7.380   1.554 -1.1565 -0.9508  2.1157
 1602SOL     vw 6408   0.776   7.382   1.583 -0.4829  0.1638  0.3257
 1603SOL     ow 6409   1.353   5.873   5.095 -0.3518 -0.6453 -0.3785
 1603SOL     hw 6410   1.292   5.912   5.032 -0.7324 -2.7035 -1.3859
 1603SOL     hw 6411   1.386   5.947   5.145 -1.3741  0.8875 -1.8336
 1603SOL     vw 6412   1.349   5.888   5.093 -0.5369 -0.7145 -0.7036
 1604SOL     ow 6413   2.512   6.350   6.782  0.3530 -0.7732 -0.3314
 1604SOL     hw 6414   2.478   6.302   6.857 -0.7201 -0.4885 -0.6135
 1604SOL     hw 6415   2.573   6.413   6.819 -0.1833 -0.6168  0.3094
 1604SOL     vw 6416   2.516   6.352   6.796  0.1405 -0.7150 -0.2840
 1605SOL     ow 6417   3.873   3.706   4.935 -0.2653 -0.3098 -0.2098
 1605SOL     hw 6418   3.884   3.691   4.842 -0.7655  0.0576 -0.3322
 1605SOL     hw 6419   3.820   3.786   4.941 -2.4293 -1.6765  0.3260
 1605SOL     vw 6420   3.867   3.714   4.924 -0.6169 -0.4417 -0.1554
 1606SOL     ow 6421   4.048   3.505   5.133  0.2294 -0.1226  0.0890
 1606SOL     hw 6422   3.957   3.529   5.150  0.3779 -0.1460  0.9348
 1606SOL     hw 6423   4.043   3.444   5.059 -0.5780 -1.1666  0.9636
 1606SOL     vw 6424   4.035   3.500   5.125  0.1426 -0.2635  0.3161
 1607SOL     ow 6425   0.832   2.418   5.188  0.0562 -0.4595 -0.1483
 1607SOL     hw 6426   0.884   2.449   5.114 -2.0252  0.3524 -1.3854
 1607SOL     hw 6427   0.841   2.486   5.255  1.1697 -0.7095 -0.0401
 1607SOL     vw 6428   0.840   2.431   5.187 -0.0715 -0.3854 -0.2973
 1608SOL     ow 6429   2.076   4.301   5.336  0.4989 -0.5147 -0.0966
 1608SOL     hw 6430   2.157   4.251   5.351 -0.2429 -1.6694  0.1552
 1608SOL     hw 6431   2.041   4.316   5.424 -0.7912 -2.1299 -0.2946
 1608SOL     vw 6432   2.082   4.296   5.350  0.2309 -0.8802 -0.0896
 1609SOL     ow 6433   2.021   3.762   7.005  0.2129 -0.2284  0.3341
 1609SOL     hw 6434   2.046   3.821   6.934  1.1948 -0.3040  0.6018
 1609SOL     hw 6435   1.957   3.812   7.056 -0.4962 -0.1733 -0.5833
 1609SOL     vw 6436   2.016   3.777   7.002  0.2489 -0.2310  0.2484
 1610SOL     ow 6437   5.537   6.986   6.353  0.0118 -0.1256  0.2503
 1610SOL     hw 6438   5.517   7.070   6.313  2.4537  0.7541  0.7514
 1610SOL     hw 6439   5.572   7.008   6.439  1.1064 -1.6214  0.2188
 1610SOL     vw 6440   5.539   7.000   6.359  0.4785 -0.2069  0.3126
 1611SOL     ow 6441   3.407   4.881   3.005  0.3102  0.3101  0.5140
 1611SOL     hw 6442   3.442   4.950   2.949 -3.1433  1.9814  0.1294
 1611SOL     hw 6443   3.349   4.926   3.065 -0.2739 -2.0478  1.8599
 1611SOL     vw 6444   3.404   4.896   3.005 -0.2226  0.2193  0.6409
 1612SOL     ow 6445   1.065   1.136   4.888 -0.3833 -0.1898 -0.5049
 1612SOL     hw 6446   1.116   1.063   4.922  0.4357  0.2614 -0.7486
 1612SOL     hw 6447   0.978   1.099   4.872  0.1253 -1.2070 -0.9794
 1612SOL     vw 6448   1.060   1.122   4.890 -0.2081 -0.2645 -0.5996
 1613SOL     ow 6449   6.806   3.600   5.735  0.4262  0.4371  0.0537
 1613SOL     hw 6450   6.816   3.588   5.829  0.1521  0.2620  0.0616
 1613SOL     hw 6451   6.770   3.517   5.703 -2.6997  1.5440  0.2859
 1613SOL     vw 6452   6.802   3.587   5.743 -0.0224  0.5600  0.0854
 1614SOL     ow 6453   0.536   1.460   2.961  0.4867  0.1080  0.0420
 1614SOL     hw 6454   0.596   1.386   2.954 -0.9774 -1.1900  0.7172
 1614SOL     hw 6455   0.473   1.447   2.890  0.4955  0.9799 -0.1360
 1614SOL     vw 6456   0.535   1.449   2.951  0.2947  0.0519  0.1076
 1615SOL     ow 6457   1.647   5.869   4.902 -0.9269 -0.8951  0.0771
 1615SOL     hw 6458   1.641   5.781   4.865 -1.5943 -0.8486  0.0712
 1615SOL     hw 6459   1.556   5.898   4.912 -0.7498 -0.6251  1.0774
 1615SOL     vw 6460   1.634   5.861   4.899 -0.9917 -0.8531  0.2086
 1616SOL     ow 6461   4.631   2.813   7.021  0.1444 -0.2779  0.6449
 1616SOL     hw 6462   4.575   2.760   6.964  1.2800 -0.9702  0.1401
 1616SOL     hw 6463   4.615   2.903   6.993  0.2567 -0.5631 -0.3938
 1616SOL     vw 6464   4.621   2.818   7.010  0.3092 -0.4069  0.4416
 1617SOL     ow 6465   1.605   4.893   3.626  0.0393  0.4167 -0.2792
 1617SOL     hw 6466   1.696   4.896   3.596 -0.3242  1.7774 -1.3288
 1617SOL     hw 6467   1.555   4.861   3.551 -0.2371 -1.6262  0.7000
 1617SOL     vw 6468   1.610   4.889   3.612 -0.0450  0.3266 -0.2886
 1618SOL     ow 6469   7.497   3.197   1.418  0.4605 -0.1079  0.6181
 1618SOL     hw 6470   7.578   3.204   1.368  1.8189  1.2132  2.8676
 1618SOL     hw 6471   7.506   3.114   1.466  0.4158 -0.0267  0.7671
 1618SOL     vw 6472   7.509   3.187   1.418  0.6342  0.0770  0.9346
 1619SOL     ow 6473   5.587   3.826   5.913  0.5574 -0.0286 -0.4709
 1619SOL     hw 6474   5.631   3.875   5.844 -0.0978 -0.7627 -1.4333
 1619SOL     hw 6475   5.658   3.791   5.967  1.1445 -0.5309 -1.5361
 1619SOL     vw 6476   5.602   3.828   5.911  0.5484 -0.1918 -0.7386
 1620SOL     ow 6477   2.237   6.463   6.902  0.5219  0.3650  0.6380
 1620SOL     hw 6478   2.223   6.369   6.917 -0.8839  0.5468  0.5868
 1620SOL     hw 6479   2.210   6.504   6.985  0.1183  0.7937  0.2995
 1620SOL     vw 6480   2.231   6.456   6.915  0.2831  0.4456  0.5865
 1621SOL     ow 6481   3.929   5.356   6.364 -0.2017  0.0832  0.8761
 1621SOL     hw 6482   3.866   5.290   6.391  2.0095 -2.4051  0.3458
 1621SOL     hw 6483   4.014   5.319   6.388  1.2976  1.5931 -1.6887
 1621SOL     vw 6484   3.932   5.342   6.371  0.2879 -0.0458  0.4678
 1622SOL     ow 6485   0.011   2.357   0.157 -0.0926 -0.2936 -0.4034
 1622SOL     hw 6486   0.073   2.302   0.206 -0.6586  0.1890  0.9120
 1622SOL     hw 6487   0.042   2.353   0.067  1.6553 -0.3658  0.1499
 1622SOL     vw 6488   0.023   2.349   0.152  0.0633 -0.2395 -0.1568
 1623SOL     ow 6489   2.665   7.458   5.058 -0.0233  0.4937  0.0302
 1623SOL     hw 6490   2.633   7.539   5.096  0.9567  1.2245 -0.6430
 1623SOL     hw 6491   2.608   7.443   4.983  0.1445  0.8734 -0.1765
 1623SOL     vw 6492   2.654   7.467   5.053  0.1281  0.6402 -0.0856
 1624SOL     ow 6493   6.763   4.637   3.554 -0.3147  0.1068  0.2967
 1624SOL     hw 6494   6.840   4.658   3.608 -0.0895  1.8463 -0.6282
 1624SOL     hw 6495   6.783   4.551   3.517  0.3183 -0.3191  1.5538
 1624SOL     vw 6496   6.776   4.629   3.556 -0.2012  0.2801  0.3405
 1625SOL     ow 6497   3.933   1.396   0.692  0.0385 -0.1929  0.3169
 1625SOL     hw 6498   3.976   1.343   0.625 -0.3757  1.1032 -1.0236
 1625SOL     hw 6499   3.946   1.348   0.773  1.4007 -1.3257 -0.5419
 1625SOL     vw 6500   3.940   1.383   0.694  0.1636 -0.1713  0.0267
 1626SOL     ow 6501   1.772   2.261   2.834 -0.2100  0.3597 -0.1096
 1626SOL     hw 6502   1.695   2.268   2.777  1.4671  0.6059 -2.4824
 1626SOL     hw 6503   1.805   2.350   2.840 -0.6381  0.4348  1.7744
 1626SOL     vw 6504   1.766   2.274   2.827 -0.0452  0.4021 -0.1740
 1627SOL     ow 6505   3.049   5.701   0.434 -0.2457  0.6552  0.0924
 1627SOL     hw 6506   3.070   5.619   0.390  0.0032 -0.0473  1.4681
 1627SOL     hw 6507   3.106   5.766   0.392 -0.0307  0.0174 -0.6126
 1627SOL     vw 6508   3.060   5.699   0.423 -0.1845  0.4783  0.1809
 1628SOL     ow 6509   0.848   3.673   0.041 -0.2737  0.3695  0.0491
 1628SOL     hw 6510   0.758   3.643   0.054  0.4269 -1.0319  2.2851
 1628SOL     hw 6511   0.872   3.710   0.126  0.9264  1.7334 -0.8536
 1628SOL     vw 6512   0.839   3.674   0.054 -0.0229  0.3645  0.2250
 1629SOL     ow 6513   3.591   5.817   6.356  0.2224 -0.2031  0.5183
 1629SOL     hw 6514   3.673   5.866   6.352  0.1191  0.0389  1.1639
 1629SOL     hw 6515   3.548   5.834   6.273  0.8927 -0.4406  0.1206
 1629SOL     vw 6516   3.596   5.826   6.345  0.2971 -0.2024  0.5507
 1630SOL     ow 6517   6.008   1.543   2.681  0.0549  0.5031 -0.3001
 1630SOL     hw 6518   6.040   1.530   2.770  0.3914  2.8921 -0.0040
 1630SOL     hw 6519   5.926   1.495   2.677  2.3226 -3.8725 -0.3466
 1630SOL     vw 6520   6.002   1.535   2.692  0.3984  0.2410 -0.2673
 1631SOL     ow 6521   7.335   1.396   2.967 -0.2922 -0.4546  0.5412
 1631SOL     hw 6522   7.348   1.371   3.058  2.5307 -1.4169 -0.0307
 1631SOL     hw 6523   7.353   1.316   2.917 -1.1960  0.2076 -0.9140
 1631SOL     vw 6524   7.339   1.382   2.972 -0.0389 -0.4942  0.2738
 1632SOL     ow 6525   7.133   1.646   2.649  0.7981 -0.3468  0.3468
 1632SOL     hw 6526   7.109   1.623   2.559 -0.1204  0.6549  0.3204
 1632SOL     hw 6527   7.124   1.565   2.698 -0.8234 -0.4247 -0.0451
 1632SOL     vw 6528   7.129   1.632   2.643  0.4630 -0.2250  0.2917
 1633SOL     ow 6529   6.636   1.420   5.792 -0.0495  0.6372 -0.2159
 1633SOL     hw 6530   6.579   1.490   5.759 -0.4149 -0.5689 -2.2965
 1633SOL     hw 6531   6.681   1.387   5.714  1.1744 -0.5379  0.9318
 1633SOL     vw 6532   6.635   1.425   5.777  0.0639  0.3231 -0.3388
 1634SOL     ow 6533   2.818   3.889   6.970  0.0820  0.3761 -0.3819
 1634SOL     hw 6534   2.766   3.922   7.044  1.9812 -0.4357  1.3910
 1634SOL     hw 6535   2.903   3.866   7.008  1.9077  1.9193 -3.2061
 1634SOL     vw 6536   2.822   3.890   6.985  0.5734  0.4727 -0.5207
 1635SOL     ow 6537   2.265   3.093   1.050  0.7288 -0.3392 -0.0195
 1635SOL     hw 6538   2.204   3.026   1.020  0.7593 -0.5892  0.4745
 1635SOL     hw 6539   2.352   3.055   1.035  0.7621 -0.0685 -0.5260
 1635SOL     vw 6540   2.268   3.079   1.044  0.7373 -0.3365 -0.0211
 1636SOL     ow 6541   2.476   1.213   2.564 -0.4703  0.3231  0.6604
 1636SOL     hw 6542   2.431   1.175   2.488 -0.8727  0.3275  0.8912
 1636SOL     hw 6543   2.564   1.178   2.561 -0.7299 -0.3346  0.6624
 1636SOL     vw 6544   2.481   1.203   2.553 -0.5578  0.2368  0.6913
 1637SOL     ow 6545   4.732   5.775   4.987 -0.1991 -0.0202 -0.5320
 1637SOL     hw 6546   4.702   5.684   4.988 -0.3462  0.0094 -1.4283
 1637SOL     hw 6547   4.657   5.826   5.014 -1.0546  0.0661 -2.8705
 1637SOL     vw 6548   4.718   5.770   4.991 -0.3314 -0.0050 -0.9589
 1638SOL     ow 6549   2.422   2.180   1.479 -0.0564  0.0811 -0.1572
 1638SOL     hw 6550   2.376   2.237   1.417  1.2465  1.1007 -0.2454
 1638SOL     hw 6551   2.360   2.167   1.551 -0.5505  1.2670 -0.3387
 1638SOL     vw 6552   2.408   2.186   1.480  0.0504  0.3721 -0.1928
 1639SOL     ow 6553   2.725   4.981   6.014  0.1161 -0.2872 -0.3803
 1639SOL     hw 6554   2.730   5.012   6.105 -1.0379  0.7511 -0.6393
 1639SOL     hw 6555   2.635   4.949   6.005  1.0105 -3.0532 -0.3813
 1639SOL     vw 6556   2.714   4.981   6.025  0.0819 -0.5150 -0.4144
 1640SOL     ow 6557   0.965   7.351   3.509  0.1857  1.0121 -0.5581
 1640SOL     hw 6558   1.008   7.372   3.592  0.5178 -0.6596 -0.2644
 1640SOL     hw 6559   0.937   7.435   3.474  0.1351  1.7703  1.1993
 1640SOL     vw 6560   0.967   7.365   3.516  0.2229  0.8917 -0.2874
 1641SOL     ow 6561   7.394   2.330   6.892 -0.1300 -0.0443 -1.2759
 1641SOL     hw 6562   7.381   2.370   6.978 -1.4750 -0.3374 -1.3256
 1641SOL     hw 6563   7.486   2.303   6.891  0.3231  1.3786 -0.5433
 1641SOL     vw 6564   7.404   2.332   6.903 -0.2475  0.1048 -1.1859
 1642SOL     ow 6565   7.538   7.232   0.510  0.2525  0.4726  0.2165
 1642SOL     hw 6566   7.450   7.206   0.484  0.9208 -1.6478 -0.1898
 1642SOL     hw 6567   7.532   7.246   0.605 -1.0641  3.1303 -0.1634
 1642SOL     vw 6568   7.526   7.230   0.519  0.1669  0.5434  0.1127
 1643SOL     ow 6569   5.966   1.281   5.023 -0.2698 -0.1344  0.2901
 1643SOL     hw 6570   5.961   1.340   5.098  0.7128 -2.0163  1.9423
 1643SOL     hw 6571   6.018   1.206   5.055  1.5125 -0.3496 -2.7118
 1643SOL     vw 6572   5.972   1.279   5.037  0.0949 -0.4110  0.1121
 1644SOL     ow 6573   6.593   3.505   2.183 -0.2960  0.3644 -0.0725
 1644SOL     hw 6574   6.580   3.598   2.201 -0.0829  0.9180 -2.4149
 1644SOL     hw 6575   6.685   3.490   2.203  0.4159  1.4034 -2.2222
 1644SOL     vw 6576   6.603   3.515   2.188 -0.1738  0.5746 -0.6651
 1645SOL     ow 6577   0.418   1.336   3.211  0.4333  0.6872 -0.3802
 1645SOL     hw 6578   0.464   1.366   3.133  0.6472  0.2230 -0.4341
 1645SOL     hw 6579   0.467   1.259   3.240  1.1140  1.5663  0.9324
 1645SOL     vw 6580   0.431   1.330   3.205  0.5513  0.7420 -0.2141
 1646SOL     ow 6581   3.017   6.275   1.160 -0.0738  0.5170 -0.0754
 1646SOL     hw 6582   3.070   6.318   1.226 -0.7194 -1.0444  1.5565
 1646SOL     hw 6583   3.077   6.259   1.087  1.2939  0.1790  1.0798
 1646SOL     vw 6584   3.032   6.279   1.159  0.0216  0.2666  0.2924
 1647SOL     ow 6585   3.531   3.132   2.196  0.6971 -0.7639  0.3553
 1647SOL     hw 6586   3.523   3.226   2.181  0.9901 -0.5999  1.1789
 1647SOL     hw 6587   3.455   3.094   2.151  0.2516 -0.0823  0.5152
 1647SOL     vw 6588   3.520   3.139   2.188  0.6769 -0.6523  0.4852
 1648SOL     ow 6589   2.695   1.424   2.584 -0.1285 -0.0121  0.1470
 1648SOL     hw 6590   2.605   1.390   2.578  0.5280 -2.1489  1.2382
 1648SOL     hw 6591   2.694   1.504   2.532 -2.7183  0.1644  0.3263
 1648SOL     vw 6592   2.683   1.430   2.576 -0.3835 -0.2708  0.3146
 1649SOL     ow 6593   5.237   6.747   1.539  0.0908  0.3035 -0.4016
 1649SOL     hw 6594   5.191   6.790   1.466 -0.0692 -0.5279 -0.8065
 1649SOL     hw 6595   5.320   6.720   1.501  0.3208  0.5414 -0.0627
 1649SOL     vw 6596   5.242   6.749   1.524  0.0999  0.2253 -0.4104
 1650SOL     ow 6597   2.026   2.094   1.355 -0.8872 -0.8885  0.0666
 1650SOL     hw 6598   1.933   2.104   1.375 -1.1614 -1.2874 -0.9398
 1650SOL     hw 6599   2.065   2.178   1.377 -1.4085 -0.8541  0.8950
 1650SOL     vw 6600   2.019   2.106   1.361 -0.9922 -0.9366  0.0431
 1651SOL     ow 6601   2.859   0.950   6.250 -0.5917 -0.2682  0.5807
 1651SOL     hw 6602   2.840   0.862   6.218  0.8251 -0.6942  0.8098
 1651SOL     hw 6603   2.954   0.957   6.243 -0.6817  1.2154  0.6636
 1651SOL     vw 6604   2.869   0.939   6.245 -0.4166 -0.1287  0.6218
 1652SOL     ow 6605   2.735   5.656   6.281  0.4643 -0.1023 -0.0200
 1652SOL     hw 6606   2.744   5.562   6.296 -1.8015 -0.2513  0.7615
 1652SOL     hw 6607   2.792   5.674   6.206  1.7384 -1.8748  0.4646
 1652SOL     vw 6608   2.744   5.646   6.273  0.3334 -0.3562  0.1471
 1653SOL     ow 6609   1.658   1.358   7.141 -0.7773  0.0395 -0.1530
 1653SOL     hw 6610   1.577   1.309   7.130  0.5879 -2.5662  0.6898
 1653SOL     hw 6611   1.634   1.431   7.198 -2.3744 -1.0843  0.6810
 1653SOL     vw 6612   1.644   1.361   7.147 -0.8079 -0.4525  0.0682
 1654SOL     ow 6613   3.876   4.057   7.101 -0.2948  0.3856 -0.5192
 1654SOL     hw 6614   3.845   4.147   7.110 -1.3094 -0.0366  0.4098
 1654SOL     hw 6615   3.801   4.009   7.065 -0.2541 -0.3748  0.3794
 1654SOL     vw 6616   3.862   4.063   7.097 -0.4233  0.2294 -0.2782
 1655SOL     ow 6617   1.964   1.767   3.106  0.1600  0.3847 -0.2264
 1655SOL     hw 6618   2.037   1.820   3.140 -0.8014  1.0973  0.8314
 1655SOL     hw 6619   1.897   1.774   3.174 -1.4390  0.9350 -1.7782
 1655SOL     vw 6620   1.965   1.775   3.120 -0.1778  0.5513 -0.2916
 1656SOL     ow 6621   2.958   1.265   3.493  0.4743 -0.1217 -0.4579
 1656SOL     hw 6622   2.962   1.359   3.480  1.8726  0.1684  1.6125
 1656SOL     hw 6623   2.864   1.245   3.491 -0.2840  2.0816  3.2198
 1656SOL     vw 6624   2.946   1.275   3.491  0.5587  0.2072  0.3005
 1657SOL     ow 6625   3.728   5.562   7.402  1.4661  0.4933 -0.5413
 1657SOL     hw 6626   3.777   5.643   7.389  3.5573 -0.7693 -0.9969
 1657SOL     hw 6627   3.747   5.536   7.492  0.6075  0.5953 -0.3151
 1657SOL     vw 6628   3.737   5.569   7.412  1.6288  0.3402 -0.5715
 1658SOL     ow 6629   3.339   1.153   3.081  0.4038  0.2895  0.1213
 1658SOL     hw 6630   3.355   1.240   3.044  0.5778  0.3526  0.3423
 1658SOL     hw 6631   3.277   1.169   3.152  0.0210  0.1605 -0.1801
 1658SOL     vw 6632   3.333   1.167   3.086  0.3763  0.2808  0.1106
 1659SOL     ow 6633   0.720   7.527   1.830 -0.1993 -0.4767 -0.4612
 1659SOL     hw 6634   0.721   7.435   1.859  1.7374 -0.1092  0.8905
 1659SOL     hw 6635   0.684   7.575   1.904 -2.1086 -0.1949 -1.5259
 1659SOL     vw 6636   0.716   7.521   1.843 -0.1957 -0.3908 -0.4234
 1660SOL     ow 6637   0.728   7.358   1.130  0.1154  0.2080 -1.1240
 1660SOL     hw 6638   0.774   7.437   1.101  0.6030  0.1844 -0.4361
 1660SOL     hw 6639   0.691   7.321   1.050 -1.8827  2.2258 -1.2272
 1660SOL     vw 6640   0.729   7.364   1.115 -0.0839  0.4711 -1.0469
 1661SOL     ow 6641   2.376   4.848   3.960  0.0882  0.5507  0.3248
 1661SOL     hw 6642   2.363   4.847   3.865 -0.0948  0.1261  0.3508
 1661SOL     hw 6643   2.288   4.861   3.995  0.1888  0.9437  0.4306
 1661SOL     vw 6644   2.362   4.849   3.952  0.0772  0.5465  0.3421
 1662SOL     ow 6645   7.286   3.867   2.884 -0.0892 -0.6712  0.2942
 1662SOL     hw 6646   7.217   3.907   2.937  2.0440  2.2353  1.1063
 1662SOL     hw 6647   7.355   3.846   2.946  1.1501 -0.2096 -0.8824
 1662SOL     vw 6648   7.286   3.870   2.899  0.3562 -0.2269  0.2460
 1663SOL     ow 6649   5.618   6.307   7.213 -0.5040 -0.3660  0.1656
 1663SOL     hw 6650   5.531   6.314   7.253 -0.2474  1.9458  0.4852
 1663SOL     hw 6651   5.652   6.397   7.215  1.0997 -0.8658 -1.7568
 1663SOL     vw 6652   5.611   6.320   7.219 -0.2587 -0.1268 -0.0458
 1664SOL     ow 6653   2.697   6.689   4.144  0.8855 -0.0263  0.3614
 1664SOL     hw 6654   2.780   6.678   4.190  0.7630 -0.6038  0.4533
 1664SOL     hw 6655   2.719   6.741   4.067  1.0757  1.0503  1.1117
 1664SOL     vw 6656   2.711   6.695   4.140  0.8944  0.0398  0.4725
 1665SOL     ow 6657   1.098   7.081   4.657 -0.2759  0.2008  0.2052
 1665SOL     hw 6658   1.023   7.101   4.601 -1.2911 -1.8367  0.7442
 1665SOL     hw 6659   1.143   7.165   4.668 -1.4409  1.1260 -1.5994
 1665SOL     vw 6660   1.094   7.095   4.651 -0.5635  0.0539  0.0384
 1666SOL     ow 6661   5.277   7.454   2.221 -0.1890  0.1920 -0.3301
 1666SOL     hw 6662   5.318   7.456   2.134  0.3947  0.9332 -0.0516
 1666SOL     hw 6663   5.346   7.484   2.280 -0.9112  0.7357  0.2504
 1666SOL     vw 6664   5.292   7.458   2.217 -0.2069  0.3617 -0.2166
 1667SOL     ow 6665   1.648   5.822   5.751 -0.7060 -0.4148 -0.0097
 1667SOL     hw 6666   1.719   5.758   5.753 -1.2790 -1.0561  2.1023
 1667SOL     hw 6667   1.588   5.790   5.684  0.3318 -0.5942 -0.8695
 1667SOL     vw 6668   1.649   5.809   5.743 -0.6447 -0.5231  0.1554
 1668SOL     ow 6669   0.336   6.242   4.776 -0.0948  0.4089  0.2867
 1668SOL     hw 6670   0.263   6.194   4.816  0.6008 -1.6025 -0.7136
 1668SOL     hw 6671   0.305   6.332   4.768 -2.6140 -0.4690 -0.4835
 1668SOL     vw 6672   0.322   6.247   4.780 -0.3354  0.0277  0.0529
 1669SOL     ow 6673   3.684   5.056   5.226 -0.5355  0.3591  0.0086
 1669SOL     hw 6674   3.642   5.038   5.310 -0.6373  0.0055 -0.1128
 1669SOL     hw 6675   3.687   4.970   5.183 -0.4888  0.5401 -0.3496
 1669SOL     vw 6676   3.679   5.042   5.231 -0.5429  0.3362 -0.0546
 1670SOL     ow 6677   5.006   5.882   5.013  0.7239  0.7230  0.7683
 1670SOL     hw 6678   5.035   5.974   5.014  0.5596  1.1078 -4.4382
 1670SOL     hw 6679   5.081   5.834   4.978 -0.0705 -0.7143  0.9892
 1670SOL     vw 6680   5.020   5.888   5.008  0.5972  0.5841  0.1109
 1671SOL     ow 6681   3.555   5.198   6.623 -0.8916 -0.1221 -0.7038
 1671SOL     hw 6682   3.619   5.147   6.674  0.3114 -0.1424 -2.1620
 1671SOL     hw 6683   3.475   5.195   6.675 -0.1958 -1.5769  0.3498
 1671SOL     vw 6684   3.553   5.191   6.637 -0.6409 -0.3169 -0.7572
 1672SOL     ow 6685   7.204   2.977   5.789 -0.2671  0.2511 -0.3628
 1672SOL     hw 6686   7.263   2.957   5.861  0.1789  0.1126 -0.7573
 1672SOL     hw 6687   7.124   3.009   5.831  0.1022  0.4849  0.1801
 1672SOL     vw 6688   7.201   2.979   5.804 -0.1597  0.2638 -0.3431
 1673SOL     ow 6689   4.391   1.899   5.760 -0.7029  0.0563  0.5992
 1673SOL     hw 6690   4.423   1.816   5.796 -1.1814  0.2445  1.5062
 1673SOL     hw 6691   4.305   1.911   5.803  0.1103  1.8779  1.8511
 1673SOL     vw 6692   4.384   1.889   5.771 -0.6588  0.3216  0.8836
 1674SOL     ow 6693   6.700   4.966   2.175  0.4635  0.2823 -0.1658
 1674SOL     hw 6694   6.733   4.901   2.113  0.7933  2.0932 -1.9772
 1674SOL     hw 6695   6.778   5.017   2.199  0.5378 -0.9122  2.5408
 1674SOL     vw 6696   6.715   4.964   2.170  0.5169  0.3636 -0.0476
 1675SOL     ow 6697   7.585   2.782   5.517  0.0798 -0.2333 -0.9484
 1675SOL     hw 6698   7.642   2.825   5.453  1.5434 -0.2273  0.2720
 1675SOL     hw 6699   7.641   2.715   5.557 -1.1574 -1.0276 -0.5064
 1675SOL     vw 6700   7.600   2.779   5.514  0.1097 -0.3374 -0.7288
 1676SOL     ow 6701   7.227   1.148   1.955  0.3082 -0.4372 -0.4775
 1676SOL     hw 6702   7.272   1.142   1.871 -1.7662  0.5297 -1.7540
 1676SOL     hw 6703   7.180   1.232   1.952 -1.8306 -1.4886  0.5405
 1676SOL     vw 6704   7.226   1.159   1.944 -0.2477 -0.4483 -0.5116
 1677SOL     ow 6705   5.201   5.567   6.105  0.7642 -0.1153 -0.8585
 1677SOL     hw 6706   5.201   5.654   6.144  0.8042 -0.6203  0.3155
 1677SOL     hw 6707   5.152   5.513   6.167  2.3917 -1.3532 -0.5768
 1677SOL     vw 6708   5.194   5.571   6.118  0.9842 -0.3452 -0.6666
 1678SOL     ow 6709   0.390   4.685   6.507  0.4804  0.5426  0.5650
 1678SOL     hw 6710   0.413   4.723   6.422 -0.0245 -1.1307 -0.3659
 1678SOL     hw 6711   0.314   4.735   6.536 -1.7939 -1.2517 -1.8481
 1678SOL     vw 6712   0.383   4.697   6.499  0.1137  0.0851  0.1237
 1679SOL     ow 6713   3.681   5.879   2.755  0.0700 -0.2131  0.8387
 1679SOL     hw 6714   3.730   5.961   2.746  1.0234 -0.8605 -0.1261
 1679SOL     hw 6715   3.705   5.846   2.842  1.4211 -0.5405  0.3649
 1679SOL     vw 6716   3.691   5.885   2.765  0.3742 -0.3417  0.6490
 1680SOL     ow 6717   7.269   4.239   2.827  0.0390 -0.5011 -0.3466
 1680SOL     hw 6718   7.306   4.322   2.795  1.6751 -1.9224 -2.4119
 1680SOL     hw 6719   7.298   4.233   2.917  0.8825  0.6462 -0.5229
 1680SOL     vw 6720   7.278   4.249   2.834  0.3660 -0.5372 -0.6423
 1681SOL     ow 6721   2.763   6.218   0.489 -0.5276  0.9657  0.7807
 1681SOL     hw 6722   2.808   6.134   0.481  1.7762  2.3105 -2.2853
 1681SOL     hw 6723   2.678   6.204   0.448  1.0974  0.8013 -2.8665
 1681SOL     vw 6724   2.758   6.205   0.483 -0.0093  1.1215 -0.1050
 1682SOL     ow 6725   6.245   0.082   4.199 -0.2761 -0.7647 -0.2853
 1682SOL     hw 6726   6.320   0.023   4.204 -1.0600 -1.6714  1.3549
 1682SOL     hw 6727   6.182   0.035   4.143 -0.8261 -1.4291  0.8674
 1682SOL     vw 6728   6.246   0.068   4.192 -0.4520 -0.9720  0.0832
 1683SOL     ow 6729   1.216   5.990   3.604  0.3186 -0.0692  0.0243
 1683SOL     hw 6730   1.267   6.035   3.537 -0.6248  2.2388  0.7525
 1683SOL     hw 6731   1.247   5.899   3.601  2.8869  0.7409 -1.0246
 1683SOL     vw 6732   1.227   5.984   3.595  0.5330  0.3421 -0.0180
 1684SOL     ow 6733   6.945   0.032   6.463  0.4045  0.6334  0.5453
 1684SOL     hw 6734   6.908  -0.027   6.396  0.0191  1.1825  0.2688
 1684SOL     hw 6735   6.869   0.077   6.499  0.6782  0.7993  0.9172
 1684SOL     vw 6736   6.930   0.030   6.459  0.3898  0.7277  0.5579
 1685SOL     ow 6737   0.190   5.353   5.655  0.4572  0.2795 -0.1236
 1685SOL     hw 6738   0.128   5.338   5.727  4.1538 -1.6886  3.0409
 1685SOL     hw 6739   0.231   5.436   5.676  1.1546 -0.0228 -0.2742
 1685SOL     vw 6740   0.187   5.362   5.668  1.0370 -0.0200  0.2739
 1686SOL     ow 6741   4.612   6.819   4.187  0.1917  0.3112 -0.0244
 1686SOL     hw 6742   4.581   6.842   4.100 -1.4243 -0.0556  0.4087
 1686SOL     hw 6743   4.545   6.854   4.246  0.4773 -0.7297  0.9580
 1686SOL     vw 6744   4.599   6.826   4.183  0.0160  0.1254  0.1619
 1687SOL     ow 6745   7.399   6.414   0.166  0.1246 -0.5787  0.5178
 1687SOL     hw 6746   7.364   6.349   0.226 -0.2424 -1.3682 -0.5233
 1687SOL     hw 6747   7.345   6.491   0.180  0.6319 -0.4407  1.8371
 1687SOL     vw 6748   7.387   6.416   0.175  0.1431 -0.6647  0.5545
 1688SOL     ow 6749   5.392   4.636   4.354  0.4979  0.3979  0.3520
 1688SOL     hw 6750   5.420   4.637   4.446  0.3932 -0.0041  0.3936
 1688SOL     hw 6751   5.312   4.689   4.353  1.4409  1.8631  0.1610
 1688SOL     vw 6752   5.385   4.643   4.366  0.6084  0.5383  0.3321
 1689SOL     ow 6753   6.943   3.659   1.340 -0.1111  0.3779  0.4773
 1689SOL     hw 6754   7.008   3.717   1.381  0.8673 -0.1971 -0.2221
 1689SOL     hw 6755   6.942   3.686   1.248  2.3153 -2.3566 -0.4918
 1689SOL     vw 6756   6.952   3.671   1.334  0.3383 -0.0588  0.2572
 1690SOL     ow 6757   2.278   3.226   3.349 -0.3535  0.6139 -0.1862
 1690SOL     hw 6758   2.295   3.289   3.419 -0.0572  1.6090 -1.1202
 1690SOL     hw 6759   2.365   3.197   3.321 -0.4815 -2.0916  1.8034
 1690SOL     vw 6760   2.292   3.230   3.355 -0.3314  0.3883 -0.0468
 1691SOL     ow 6761   5.811   1.108   4.753  0.8216 -0.8631  0.0665
 1691SOL     hw 6762   5.822   1.120   4.659 -0.5936 -0.4261 -0.0630
 1691SOL     hw 6763   5.822   1.013   4.767 -2.2353 -1.5080 -1.0814
 1691SOL     vw 6764   5.814   1.097   4.743  0.2315 -0.8905 -0.1023
 1692SOL     ow 6765   1.941   0.691   3.342 -0.4135  0.2909  0.6289
 1692SOL     hw 6766   1.941   0.750   3.418 -0.5742  0.3862  0.5550
 1692SOL     hw 6767   1.862   0.714   3.294 -1.1036 -0.7794  1.2115
 1692SOL     vw 6768   1.930   0.702   3.346 -0.5257  0.1623  0.6959
 1693SOL     ow 6769   7.620   7.400   1.009  0.2713  0.3421 -0.1572
 1693SOL     hw 6770   7.710   7.377   0.985 -0.7346 -1.7387 -2.2448
 1693SOL     hw 6771   7.616   7.383   1.103  1.9217  0.0183 -0.1037
 1693SOL     vw 6772   7.632   7.395   1.018  0.3562  0.0253 -0.4256
 1694SOL     ow 6773   6.419   2.126   7.554  0.4972  0.8503 -0.4487
 1694SOL     hw 6774   6.450   2.079   7.477  0.0475  0.5552 -0.4573
 1694SOL     hw 6775   6.329   2.152   7.531 -0.3696 -0.9430  0.6969
 1694SOL     vw 6776   6.411   2.124   7.541  0.3233  0.5747 -0.2987
 1695SOL     ow 6777   2.071   5.119   5.904  1.0615  0.8549  0.3582
 1695SOL     hw 6778   2.058   5.126   5.998 -1.1522  1.4519  0.0533
 1695SOL     hw 6779   2.000   5.170   5.865  1.7528  0.3995 -1.6544
 1695SOL     vw 6780   2.060   5.127   5.911  0.8606  0.8736  0.0527
 1696SOL     ow 6781   7.202   0.910   5.413 -0.2770 -0.1587  0.4688
 1696SOL     hw 6782   7.273   0.968   5.439  1.0489 -0.3502 -2.3247
 1696SOL     hw 6783   7.122   0.960   5.429  0.7897  2.1601 -1.0067
 1696SOL     vw 6784   7.201   0.924   5.418  0.0386  0.1220 -0.0944
 1697SOL     ow 6785   3.384   2.164   3.196 -0.4740  0.0247  0.5647
 1697SOL     hw 6786   3.292   2.187   3.182 -0.7048 -1.1787 -0.0428
 1697SOL     hw 6787   3.411   2.217   3.270 -1.4120  1.0462  0.2045
 1697SOL     vw 6788   3.375   2.174   3.204 -0.6282  0.0007  0.4370
 1698SOL     ow 6789   6.207   5.143   2.908  1.0035 -0.1714 -0.0971
 1698SOL     hw 6790   6.143   5.133   2.979  0.5271  3.2194  0.1135
 1698SOL     hw 6791   6.292   5.141   2.953  0.6769  4.1317  1.1813
 1698SOL     vw 6792   6.210   5.142   2.923  0.8974  0.8438  0.0993
 1699SOL     ow 6793   0.711   2.041   3.088  0.8583 -0.1455 -0.1342
 1699SOL     hw 6794   0.748   1.955   3.107 -1.8559 -1.3932  0.0389
 1699SOL     hw 6795   0.665   2.029   3.004 -1.9740  0.1931  1.2348
 1699SOL     vw 6796   0.710   2.028   3.079  0.1265 -0.2655  0.0691
 1700SOL     ow 6797   4.743   0.518   2.774 -0.3739  0.8534 -0.1999
 1700SOL     hw 6798   4.725   0.489   2.863 -0.3410  0.6408 -0.2619
 1700SOL     hw 6799   4.803   0.592   2.784 -1.8361  2.0339  0.0438
 1700SOL     vw 6800   4.749   0.524   2.787 -0.5622  0.9811 -0.1760
 1701SOL     ow 6801   7.155   2.621   5.947 -0.0745  0.5106  0.5479
 1701SOL     hw 6802   7.110   2.627   5.863  2.2547 -0.7111 -0.8765
 1701SOL     hw 6803   7.099   2.564   6.000 -0.3240 -0.8534 -1.0928
 1701SOL     vw 6804   7.141   2.614   5.943  0.1998  0.1695  0.1435
 1702SOL     ow 6805   0.086   1.437   2.923 -0.5111  0.2013  0.2603
 1702SOL     hw 6806  -0.001   1.396   2.918 -0.9392  1.1563 -0.5716
 1702SOL     hw 6807   0.068   1.531   2.917  0.4655  0.5326  1.8680
 1702SOL     vw 6808   0.072   1.444   2.922 -0.4387  0.3711  0.3626
 1703SOL     ow 6809   0.201   6.653   5.766 -0.2613  0.3070 -0.0720
 1703SOL     hw 6810   0.119   6.607   5.750 -1.1870  2.4172 -2.0321
 1703SOL     hw 6811   0.269   6.587   5.753 -1.5768 -1.1094 -0.0567
 1703SOL     vw 6812   0.199   6.638   5.762 -0.5570  0.3986 -0.3288
 1704SOL     ow 6813   5.754   0.786   3.559 -0.3469  0.1371  0.3504
 1704SOL     hw 6814   5.671   0.813   3.520  0.6936  0.2786 -1.9406
 1704SOL     hw 6815   5.816   0.853   3.532  1.3953 -2.1488 -1.8038
 1704SOL     vw 6816   5.751   0.799   3.550  0.0203 -0.1458 -0.2360
 1705SOL     ow 6817   3.754   5.361   2.428  0.0068 -0.1675 -1.0146
 1705SOL     hw 6818   3.796   5.444   2.407 -1.5621  0.4397 -1.8534
 1705SOL     hw 6819   3.695   5.344   2.354  0.6461 -2.2826 -1.1106
 1705SOL     vw 6820   3.752   5.369   2.415 -0.1158 -0.3667 -1.1379
 1706SOL     ow 6821   0.803   1.988   5.425  0.0256 -0.3279  1.2483
 1706SOL     hw 6822   0.829   1.906   5.383  1.0374 -0.1904  1.5833
 1706SOL     hw 6823   0.882   2.042   5.422 -0.5550  0.5422  1.2647
 1706SOL     vw 6824   0.817   1.984   5.419  0.0825 -0.1950  1.2946
 1707SOL     ow 6825   6.263   2.010   3.672 -0.6389 -0.2411  0.2345
 1707SOL     hw 6826   6.196   2.055   3.723 -1.5314  0.9866 -1.8974
 1707SOL     hw 6827   6.214   1.950   3.616  0.2475 -0.9335  0.1763
 1707SOL     vw 6828   6.248   2.008   3.672 -0.6399 -0.1706 -0.0544
 1708SOL     ow 6829   5.804   5.746   2.279 -0.9681 -0.0637  0.3152
 1708SOL     hw 6830   5.809   5.656   2.310  0.9913  0.2688  1.1423
 1708SOL     hw 6831   5.720   5.779   2.311 -1.2689 -1.3065  0.8272
 1708SOL     vw 6832   5.794   5.739   2.287 -0.7493 -0.1838  0.4920
 1709SOL     ow 6833   1.161   2.963   2.815 -0.1163  0.1877  0.2654
 1709SOL     hw 6834   1.185   2.961   2.908  1.8961  0.1594 -0.2205
 1709SOL     hw 6835   1.140   3.055   2.798 -0.3136  0.2269  0.6971
 1709SOL     vw 6836   1.161   2.975   2.825  0.1231  0.1891  0.2583
 1710SOL     ow 6837   0.900   7.493   5.682  0.0219  0.2514  0.0652
 1710SOL     hw 6838   0.879   7.517   5.772  1.8174  1.4464  0.2164
 1710SOL     hw 6839   0.850   7.413   5.666 -1.7874  1.0468  1.4719
 1710SOL     vw 6840   0.891   7.485   5.691  0.0201  0.5138  0.2708
 1711SOL     ow 6841   5.940   1.383   4.743  0.2141  0.2106  0.2441
 1711SOL     hw 6842   5.877   1.393   4.672  1.5311  2.8295 -0.7088
 1711SOL     hw 6843   5.947   1.470   4.782  1.4683 -0.5566  1.8897
 1711SOL     vw 6844   5.933   1.396   4.739  0.5534  0.4548  0.3355
 1712SOL     ow 6845   3.414   0.296   1.911 -0.1610  0.1834 -0.6193
 1712SOL     hw 6846   3.494   0.246   1.926  0.5808  1.0026 -1.6909
 1712SOL     hw 6847   3.375   0.306   1.998  1.2991  0.4120  0.0310
 1712SOL     vw 6848   3.419   0.291   1.925  0.1295  0.3216 -0.6748
 1713SOL     ow 6849   3.248   4.664   3.838 -0.1672 -0.4330 -0.2467
 1713SOL     hw 6850   3.336   4.670   3.801  0.0546 -0.0860  0.3199
 1713SOL     hw 6851   3.221   4.755   3.851 -0.3138 -0.5433  0.2526
 1713SOL     vw 6852   3.256   4.677   3.835 -0.1571 -0.4020 -0.1061
 1714SOL     ow 6853   3.237   4.147   1.064 -0.1274  0.6867 -0.0529
 1714SOL     hw 6854   3.161   4.132   1.007 -0.8300  0.4099  0.9260
 1714SOL     hw 6855   3.310   4.105   1.018 -0.6501  0.5784 -0.8050
 1714SOL     vw 6856   3.237   4.140   1.050 -0.2892  0.6361 -0.0230
 1715SOL     ow 6857   5.221   3.513   6.308  0.6365 -0.2287  0.5082
 1715SOL     hw 6858   5.247   3.544   6.222 -0.6741  1.4733  0.6852
 1715SOL     hw 6859   5.148   3.569   6.334  0.0548 -1.6182  2.1237
 1715SOL     vw 6860   5.215   3.524   6.300  0.3870 -0.1874  0.7446
 1716SOL     ow 6861   0.798   0.897   6.932  0.1239 -0.4572  0.3146
 1716SOL     hw 6862   0.758   0.949   6.862  0.6322 -2.0405 -1.2082
 1716SOL     hw 6863   0.756   0.930   7.012 -1.8494  0.1456 -0.8820
 1716SOL     vw 6864   0.787   0.908   6.933 -0.0694 -0.5866 -0.0443
 1717SOL     ow 6865   3.446   0.165   5.419  0.2897  0.0274 -0.2534
 1717SOL     hw 6866   3.459   0.259   5.403  0.1609  0.0007 -0.5099
 1717SOL     hw 6867   3.509   0.122   5.361  0.2739 -0.0489 -0.2134
 1717SOL     vw 6868   3.456   0.172   5.410  0.2706  0.0138 -0.2818
 1718SOL     ow 6869   0.027   6.398   0.085 -0.8226 -0.0118 -0.8003
 1718SOL     hw 6870  -0.068   6.399   0.094 -0.7567  1.8344  0.2242
 1718SOL     hw 6871   0.049   6.485   0.054  0.4429 -0.9936 -2.8895
 1718SOL     vw 6872   0.017   6.409   0.083 -0.6469  0.1023 -0.9408
 1719SOL     ow 6873   6.916   5.108   2.277  0.3324 -0.2611  0.1230
 1719SOL     hw 6874   6.988   5.168   2.257  0.6678 -0.7175 -0.0477
 1719SOL     hw 6875   6.927   5.087   2.370  0.7464 -0.7620 -0.0372
 1719SOL     vw 6876   6.927   5.113   2.287  0.4313 -0.3877  0.0794
 1720SOL     ow 6877   1.553   3.539   3.037  0.1266 -0.4988 -0.5489
 1720SOL     hw 6878   1.516   3.544   2.949 -0.9611  0.5326 -0.0478
 1720SOL     hw 6879   1.518   3.457   3.073 -3.4105  1.3375  0.6230
 1720SOL     vw 6880   1.544   3.529   3.030 -0.4836 -0.1204 -0.3283
 1721SOL     ow 6881   0.598   1.349   0.684  0.4104  0.3363 -0.1653
 1721SOL     hw 6882   0.523   1.363   0.742  0.7835  4.0422 -0.3334
 1721SOL     hw 6883   0.572   1.390   0.601  1.9870  0.1276 -0.8008
 1721SOL     vw 6884   0.584   1.356   0.680  0.6676  0.7977 -0.2713
 1722SOL     ow 6885   0.852   7.535   1.379  0.6301 -0.2246 -0.1232
 1722SOL     hw 6886   0.821   7.474   1.446  0.7694  0.0854  0.2253
 1722SOL     hw 6887   0.925   7.490   1.337 -0.3094 -0.9908 -0.9915
 1722SOL     vw 6888   0.857   7.521   1.382  0.5246 -0.2849 -0.1917
 1723SOL     ow 6889   7.022   5.047   3.060 -0.0751  0.1884  0.0315
 1723SOL     hw 6890   7.096   5.058   3.120 -1.9346  1.8439  2.2059
 1723SOL     hw 6891   7.060   5.056   2.973  2.8281 -2.7961  0.8262
 1723SOL     vw 6892   7.037   5.050   3.057  0.0627  0.0129  0.4232
 1724SOL     ow 6893   6.982   0.708   6.369  0.3155 -0.0947 -0.6863
 1724SOL     hw 6894   6.961   0.661   6.288  0.2998  1.8125 -1.8607
 1724SOL     hw 6895   7.077   0.706   6.374  0.3348  0.0593 -0.9439
 1724SOL     vw 6896   6.991   0.701   6.359  0.3161  0.1773 -0.8755
 1725SOL     ow 6897   1.308   1.563   1.837 -0.6017 -0.6427 -0.1212
 1725SOL     hw 6898   1.312   1.652   1.803  0.9188 -0.8900 -0.6539
 1725SOL     hw 6899   1.393   1.549   1.879 -1.4672 -1.2556  1.4936
 1725SOL     vw 6900   1.320   1.573   1.838 -0.5152 -0.7562  0.0216
 1726SOL     ow 6901   1.830   2.940   5.200  0.4694  0.2393 -0.0529
 1726SOL     hw 6902   1.739   2.942   5.229  0.1901 -2.0371 -0.5418
 1726SOL     hw 6903   1.825   2.940   5.105  0.8510 -1.4314 -0.1062
 1726SOL     vw 6904   1.817   2.940   5.191  0.4829 -0.2815 -0.1242
 1727SOL     ow 6905   1.718   3.142   4.805  0.0622  0.5657 -0.0158
 1727SOL     hw 6906   1.729   3.047   4.796 -1.6060  0.0446  2.4190
 1727SOL     hw 6907   1.699   3.173   4.716 -0.7710 -1.6058 -0.6582
 1727SOL     vw 6908   1.717   3.133   4.792 -0.2677  0.2105  0.2205
 1728SOL     ow 6909   7.219   0.251   2.774 -0.0656  0.5955  0.5387
 1728SOL     hw 6910   7.186   0.162   2.763  1.2210  0.0988  0.5800
 1728SOL     hw 6911   7.252   0.253   2.863  1.7517  0.4679 -0.1000
 1728SOL     vw 6912   7.219   0.239   2.784  0.3438  0.5132  0.4600
 1729SOL     ow 6913   5.554   7.298   4.399 -0.1399  0.4056 -1.1853
 1729SOL     hw 6914   5.559   7.292   4.304 -0.0768  1.7622 -1.2814
 1729SOL     hw 6915   5.470   7.342   4.416  0.4416  1.3668 -0.6881
 1729SOL     vw 6916   5.543   7.303   4.389 -0.0548  0.7112 -1.1322
 1730SOL     ow 6917   3.504   0.659   2.625 -0.1321 -0.0907  0.0634
 1730SOL     hw 6918   3.544   0.686   2.542 -1.1080 -2.4445 -1.2691
 1730SOL     hw 6919   3.417   0.629   2.602  0.1525 -2.4375  1.6199
 1730SOL     vw 6920   3.498   0.658   2.611 -0.2233 -0.7109  0.0930
 1731SOL     ow 6921   6.532   0.798   5.949  0.6396  0.3842  0.1522
 1731SOL     hw 6922   6.622   0.776   5.928  0.2340 -1.2108 -0.0143
 1731SOL     hw 6923   6.523   0.890   5.921  1.9868  0.3393 -0.5083
 1731SOL     vw 6924   6.543   0.807   5.942  0.7637  0.1678  0.0432
 1732SOL     ow 6925   4.771   5.242   7.484  0.7351  0.3223  0.2243
 1732SOL     hw 6926   4.856   5.212   7.516  0.3907  1.4300  2.3226
 1732SOL     hw 6927   4.780   5.337   7.476 -0.9654  0.8290  2.9648
 1732SOL     vw 6928   4.783   5.250   7.487  0.4652  0.5355  0.8626
 1733SOL     ow 6929   3.095   6.975   4.937 -0.4902 -0.3641  0.1724
 1733SOL     hw 6930   3.122   6.971   5.029  0.7132  0.2487 -0.1456
 1733SOL     hw 6931   3.097   7.068   4.915  0.9426 -0.6367 -0.9555
 1733SOL     vw 6932   3.098   6.986   4.946 -0.1425 -0.3192 -0.0184
 1734SOL     ow 6933   6.370   3.017   6.882  0.2844 -0.3835  0.8547
 1734SOL     hw 6934   6.366   2.966   6.801 -3.1502 -1.0808  1.3126
 1734SOL     hw 6935   6.459   3.004   6.914  1.7196 -0.2697 -2.6206
 1734SOL     vw 6936   6.381   3.009   6.876  0.0207 -0.4604  0.4566
 1735SOL     ow 6937   6.149   3.150   0.285 -0.2599  0.2223  0.0697
 1735SOL     hw 6938   6.155   3.147   0.381  2.3689  2.0203  0.0650
 1735SOL     hw 6939   6.216   3.213   0.259 -2.5574  1.7214 -2.8431
 1735SOL     vw 6940   6.159   3.158   0.294 -0.2160  0.6572 -0.3153
 1736SOL     ow 6941   6.368   0.795   6.609 -0.1339  0.1997 -0.2627
 1736SOL     hw 6942   6.398   0.708   6.584  0.7579 -0.1086  1.7308
 1736SOL     hw 6943   6.362   0.843   6.526  2.0245 -0.9321 -1.1433
 1736SOL     vw 6944   6.371   0.790   6.594  0.2689  0.0097 -0.1159
 1737SOL     ow 6945   1.819   1.500   6.878  0.1848  0.0147  0.1780
 1737SOL     hw 6946   1.844   1.508   6.786 -0.7548 -0.9173 -0.1717
 1737SOL     hw 6947   1.752   1.567   6.891  0.3073  0.1369  0.1893
 1737SOL     vw 6948   1.814   1.510   6.867  0.0771 -0.0920  0.1338
 1738SOL     ow 6949   7.604   5.521   3.363  0.5480  0.0848  0.1885
 1738SOL     hw 6950   7.671   5.456   3.340 -0.3501 -0.0177 -2.3896
 1738SOL     hw 6951   7.653   5.592   3.405  1.9875 -0.8248  0.1154
 1738SOL     vw 6952   7.620   5.522   3.366  0.6194 -0.0486 -0.1613
 1739SOL     ow 6953   0.864   2.617   7.025  0.0118 -0.5488 -0.7420
 1739SOL     hw 6954   0.776   2.653   7.016 -0.0997 -0.0250  1.8599
 1739SOL     hw 6955   0.922   2.691   7.008 -0.1641  0.1188  1.3183
 1739SOL     vw 6956   0.860   2.631   7.021 -0.0261 -0.3915 -0.1266
 1740SOL     ow 6957   3.157   1.447   3.466  0.6540  0.7225  0.1015
 1740SOL     hw 6958   3.167   1.499   3.546  0.5174  3.0162 -1.2718
 1740SOL     hw 6959   3.125   1.510   3.401 -2.3550 -1.6947 -1.0053
 1740SOL     vw 6960   3.154   1.463   3.468  0.2390  0.7063 -0.2258
 1741SOL     ow 6961   1.107   6.317   3.347  0.1123  1.0495  0.5407
 1741SOL     hw 6962   1.175   6.361   3.297  0.7008  0.7889  1.0846
 1741SOL     hw 6963   1.093   6.234   3.301  1.4547  0.3152  1.4089
 1741SOL     vw 6964   1.114   6.312   3.334  0.3670  0.9181  0.7271
 1742SOL     ow 6965   5.649   4.718   3.392  0.1923  0.0535 -0.4429
 1742SOL     hw 6966   5.744   4.703   3.390 -0.0608 -2.4163  1.3273
 1742SOL     hw 6967   5.639   4.802   3.436  1.5673  0.8619 -1.6092
 1742SOL     vw 6968   5.660   4.727   3.398  0.3402 -0.1655 -0.3632
 1743SOL     ow 6969   3.247   4.851   3.268 -0.1199 -0.2586 -0.3524
 1743SOL     hw 6970   3.195   4.917   3.223 -1.3620 -0.6842  0.4083
 1743SOL     hw 6971   3.228   4.769   3.222 -1.0669 -0.6208  0.6168
 1743SOL     vw 6972   3.237   4.849   3.256 -0.4088 -0.3624 -0.1241
 1744SOL     ow 6973   2.178   2.927   4.653 -0.2960  0.0654  0.2416
 1744SOL     hw 6974   2.164   3.022   4.647 -2.4984 -0.2679 -1.5489
 1744SOL     hw 6975   2.193   2.910   4.745 -2.9702  1.8524  1.1267
 1744SOL     vw 6976   2.178   2.938   4.664 -0.9394  0.2571  0.1221
 1745SOL     ow 6977   6.065   3.497   2.862 -0.2095  0.6373 -0.4737
 1745SOL     hw 6978   6.072   3.454   2.777  1.9822  0.0807 -0.0919
 1745SOL     hw 6979   6.116   3.578   2.852 -3.1948  2.6183 -0.7903
 1745SOL     vw 6980   6.073   3.502   2.850 -0.3142  0.8252 -0.4650
 1746SOL     ow 6981   5.517   7.487   5.475  0.7970  0.4331  0.6440
 1746SOL     hw 6982   5.474   7.421   5.420  0.6158 -0.1584  1.4714
 1746SOL     hw 6983   5.595   7.511   5.426  1.2720 -0.9707  0.6634
 1746SOL     vw 6984   5.521   7.482   5.461  0.8354  0.1698  0.7555
 1747SOL     ow 6985   5.013   1.628   5.869  0.4237 -0.1700  0.2798
 1747SOL     hw 6986   4.976   1.663   5.950 -1.2874 -1.1791 -0.0175
 1747SOL     hw 6987   5.095   1.586   5.896  0.9886  1.3695  1.1001
 1747SOL     vw 6988   5.019   1.627   5.884  0.2725 -0.1000  0.3490
 1748SOL     ow 6989   3.935   0.363   2.820 -0.0978  0.6223 -0.8536
 1748SOL     hw 6990   3.992   0.433   2.853 -0.4691  0.5185  0.0397
 1748SOL     hw 6991   3.935   0.298   2.890 -0.5448  0.1807 -1.2624
 1748SOL     vw 6992   3.943   0.364   2.834 -0.2058  0.5504 -0.7896
 1749SOL     ow 6993   0.504   0.307   0.463 -0.8497 -0.5418  0.3543
 1749SOL     hw 6994   0.411   0.292   0.478 -1.5421  1.2826 -1.7192
 1749SOL     hw 6995   0.524   0.255   0.385 -0.6152  0.5455 -0.3264
 1749SOL     vw 6996   0.495   0.298   0.455 -0.9101 -0.1577 -0.0091
 1750SOL     ow 6997   6.863   3.023   1.014 -0.2318  0.1691  0.6289
 1750SOL     hw 6998   6.914   3.100   0.987 -0.8703  0.1697 -0.6655
 1750SOL     hw 6999   6.906   2.993   1.094 -0.0568  1.9448  1.2474
 1750SOL     vw 7000   6.876   3.030   1.021 -0.2925  0.4035  0.5397
 1751SOL     ow 7001   1.126   6.251   0.452  0.3362  0.6985  0.6883
 1751SOL     hw 7002   1.147   6.191   0.381  0.1618 -0.9787  1.9829
 1751SOL     hw 7003   1.033   6.271   0.439 -0.2791 -1.3165  1.5912
 1751SOL     vw 7004   1.116   6.245   0.441  0.2320  0.2112  0.9783
 1752SOL     ow 7005   7.261   7.040   0.414 -0.4844 -0.0095 -0.4013
 1752SOL     hw 7006   7.233   6.952   0.441 -1.2440 -0.4767 -2.5076
 1752SOL     hw 7007   7.329   7.025   0.348 -0.0925  1.0151 -0.2564
 1752SOL     vw 7008   7.266   7.026   0.409 -0.5331  0.0639 -0.6601
 1753SOL     ow 7009   2.236   4.798   6.146 -0.3903  0.0411 -0.4470
 1753SOL     hw 7010   2.225   4.893   6.154 -0.7559 -0.0736  0.5493
 1753SOL     hw 7011   2.272   4.771   6.230  2.4142 -0.3587 -1.6571
 1753SOL     vw 7012   2.239   4.807   6.158 -0.0685 -0.0269 -0.4752
 1754SOL     ow 7013   1.095   1.528   2.843  0.3535  0.0714 -0.0510
 1754SOL     hw 7014   1.028   1.554   2.780  0.7316  0.8531 -0.1403
 1754SOL     hw 7015   1.119   1.609   2.888  2.0558  0.0333 -0.8035
 1754SOL     vw 7016   1.089   1.542   2.841  0.6279  0.1696 -0.1621
 1755SOL     ow 7017   4.149   2.794   0.803  0.2890  0.2578  0.5826
 1755SOL     hw 7018   4.079   2.842   0.759 -0.0139 -0.8976 -0.2575
 1755SOL     hw 7019   4.197   2.751   0.732  2.2894  1.5392  1.0831
 1755SOL     vw 7020   4.146   2.795   0.788  0.5128  0.2744  0.5378
 1756SOL     ow 7021   0.143   3.286   4.739 -0.1265 -0.0109  0.3086
 1756SOL     hw 7022   0.230   3.260   4.710 -0.6162 -0.5470 -0.7288
 1756SOL     hw 7023   0.138   3.256   4.829 -0.0583 -2.0882 -0.3169
 1756SOL     vw 7024   0.154   3.279   4.747 -0.1821 -0.3558  0.0894
 1757SOL     ow 7025   0.935   1.931   2.326 -0.7534 -0.1120  0.3686
 1757SOL     hw 7026   0.927   2.025   2.314  0.6886 -0.2544 -2.5653
 1757SOL     hw 7027   1.015   1.920   2.377 -0.3895  0.2552 -0.1115
 1757SOL     vw 7028   0.945   1.942   2.331 -0.5152 -0.0824 -0.0818
 1758SOL     ow 7029   3.852   5.115   2.444  0.4431  0.1938 -0.2494
 1758SOL     hw 7030   3.901   5.087   2.367  1.4654  2.2873 -0.4277
 1758SOL     hw 7031   3.856   5.210   2.441 -0.7509  0.3441  1.6182
 1758SOL     vw 7032   3.859   5.124   2.433  0.4203  0.4897 -0.0265
 1759SOL     ow 7033   1.430   6.291   6.792  0.0290 -0.7184 -0.0820
 1759SOL     hw 7034   1.449   6.202   6.822  1.4488 -1.1422 -2.0553
 1759SOL     hw 7035   1.338   6.288   6.766  0.2966 -1.9288 -1.0248
 1759SOL     vw 7036   1.421   6.279   6.792  0.2516 -0.9339 -0.4666
 1760SOL     ow 7037   0.387   6.933   5.002  0.0462  0.2701  0.1615
 1760SOL     hw 7038   0.367   6.840   5.011  1.9037 -0.2864 -0.9190
 1760SOL     hw 7039   0.358   6.972   5.085  0.2064 -1.4476  1.0768
 1760SOL     vw 7040   0.380   6.926   5.014  0.3124 -0.0300  0.1397
 1761SOL     ow 7041   1.336   7.408   6.462  0.3355 -0.2923 -0.1154
 1761SOL     hw 7042   1.377   7.486   6.498 -0.1629  0.0117 -0.1968
 1761SOL     hw 7043   1.274   7.380   6.530 -0.1046 -0.1200 -0.4419
 1761SOL     vw 7044   1.333   7.414   6.476  0.2117 -0.2294 -0.1693
 1762SOL     ow 7045   0.919   6.702   4.385 -0.7833 -0.0895  0.2587
 1762SOL     hw 7046   0.832   6.734   4.411 -0.4655  2.5953 -1.6193
 1762SOL     hw 7047   0.970   6.781   4.371  2.1853 -1.5902  1.7162
 1762SOL     vw 7048   0.914   6.716   4.387 -0.3497  0.0668  0.2034
 1763SOL     ow 7049   4.933   5.311   0.220 -0.0054  0.5098  0.6304
 1763SOL     hw 7050   4.897   5.352   0.141  0.1676 -0.7154 -0.1048
 1763SOL     hw 7051   4.857   5.302   0.279 -0.7876 -1.2275 -0.5533
 1763SOL     vw 7052   4.918   5.315   0.218 -0.0858  0.1190  0.3772
 1764SOL     ow 7053   7.432   5.696   3.210 -0.2169  0.3765  0.1126
 1764SOL     hw 7054   7.478   5.642   3.274  0.0464  0.6996  0.1974
 1764SOL     hw 7055   7.395   5.633   3.148 -0.4879  0.0647  0.5890
 1764SOL     vw 7056   7.433   5.681   3.210 -0.2179  0.3784  0.1866
 1765SOL     ow 7057   5.409   4.353   6.623 -0.2611  0.3608  0.2056
 1765SOL     hw 7058   5.315   4.340   6.641 -0.2124 -1.4243 -0.5766
 1765SOL     hw 7059   5.421   4.448   6.624 -2.1114  0.6333  0.1390
 1765SOL     vw 7060   5.398   4.364   6.626 -0.4988  0.1614  0.0937
 1766SOL     ow 7061   4.414   0.686   6.633 -0.2929 -0.6389  0.6159
 1766SOL     hw 7062   4.364   0.683   6.552 -0.8779 -0.1107  0.9463
 1766SOL     hw 7063   4.389   0.769   6.674  0.3079 -0.7042  1.1345
 1766SOL     vw 7064   4.404   0.697   6.628 -0.2904 -0.5779  0.7279
 1767SOL     ow 7065   3.454   7.278   6.970 -0.3853  0.2661 -0.3418
 1767SOL     hw 7066   3.425   7.365   6.999  0.4060  0.5162 -0.2925
 1767SOL     hw 7067   3.424   7.220   7.040  0.5609  0.7296  0.4770
 1767SOL     vw 7068   3.446   7.282   6.983 -0.1560  0.3600 -0.2275
 1768SOL     ow 7069   2.840   6.469   2.322  0.2759  0.3320 -0.8208
 1768SOL     hw 7070   2.923   6.455   2.367  0.5535  0.5795 -1.2520
 1768SOL     hw 7071   2.817   6.384   2.287  0.6192  0.3772 -1.1604
 1768SOL     vw 7072   2.848   6.456   2.324  0.3579  0.3707 -0.9224
 1769SOL     ow 7073   3.237   1.373   5.543 -0.2607  0.2465 -0.9924
 1769SOL     hw 7074   3.239   1.353   5.636 -1.4033 -0.3413 -1.0709
 1769SOL     hw 7075   3.144   1.388   5.524  0.0716  1.4618 -1.8121
 1769SOL     vw 7076   3.225   1.373   5.552 -0.3676  0.3294 -1.1106
 1770SOL     ow 7077   2.138   4.157   0.602 -0.6068  0.3212 -0.0325
 1770SOL     hw 7078   2.132   4.202   0.686  1.2131  0.9158 -0.1722
 1770SOL     hw 7079   2.232   4.157   0.581 -1.0512  0.7506 -2.3573
 1770SOL     vw 7080   2.150   4.163   0.610 -0.4252  0.4563 -0.3577
 1771SOL     ow 7081   5.897   5.147   4.157 -0.2614  0.6149  0.4096
 1771SOL     hw 7082   5.982   5.153   4.113 -0.0314  0.9599  0.8919
 1771SOL     hw 7083   5.865   5.237   4.158 -0.5987  0.4956  0.3030
 1771SOL     vw 7084   5.904   5.160   4.151 -0.2759  0.6447  0.4592
 1772SOL     ow 7085   3.491   7.346   0.269 -0.4868  0.7516  0.7099
 1772SOL     hw 7086   3.440   7.424   0.247 -0.9069  0.1432 -0.5533
 1772SOL     hw 7087   3.526   7.315   0.185  1.8068  1.0162  1.4846
 1772SOL     vw 7088   3.489   7.352   0.255 -0.2395  0.7064  0.6454
 1773SOL     ow 7089   3.375   6.860   1.275 -0.2161  0.3465 -0.0183
 1773SOL     hw 7090   3.461   6.894   1.301  0.8773 -2.7270  0.8245
 1773SOL     hw 7091   3.381   6.848   1.181  0.0627  0.6350 -0.0407
 1773SOL     vw 7092   3.387   6.863   1.266 -0.0352 -0.0210  0.0899
 1774SOL     ow 7093   2.544   7.252   0.955  0.1577  0.1838 -0.6541
 1774SOL     hw 7094   2.541   7.284   1.045  3.3068 -1.2305  0.0806
 1774SOL     hw 7095   2.530   7.158   0.962 -1.6104  0.3080 -1.9274
 1774SOL     vw 7096   2.542   7.244   0.968  0.3399  0.0138 -0.7252
 1775SOL     ow 7097   1.856   3.188   6.097 -0.3187  0.1650 -0.1399
 1775SOL     hw 7098   1.945   3.221   6.089  0.3409 -1.5937 -0.5654
 1775SOL     hw 7099   1.867   3.098   6.129 -1.9406 -0.0558 -0.1313
 1775SOL     vw 7100   1.869   3.180   6.100 -0.4457 -0.0962 -0.1950
 1776SOL     ow 7101   6.629   7.330   4.890 -0.1113 -0.3260  0.7344
 1776SOL     hw 7102   6.603   7.238   4.893 -3.2143  0.3564 -0.5302
 1776SOL     hw 7103   6.546   7.378   4.883  1.4531  2.4262 -1.1358
 1776SOL     vw 7104   6.614   7.324   4.889 -0.3145  0.1273  0.3209
 1777SOL     ow 7105   1.944   6.007   3.206  0.0328  0.3119 -0.4421
 1777SOL     hw 7106   1.991   6.090   3.204 -0.8557  0.9035  1.2791
 1777SOL     hw 7107   1.908   5.998   3.118 -0.6840  2.2689 -0.4029
 1777SOL     vw 7108   1.945   6.017   3.194 -0.1790  0.6483 -0.2098
 1778SOL     ow 7109   2.575   1.706   7.533  0.1313 -0.7820 -0.3363
 1778SOL     hw 7110   2.622   1.789   7.535  2.6820 -2.0944 -1.7162
 1778SOL     hw 7111   2.508   1.719   7.466  0.7820  0.0168 -0.8496
 1778SOL     vw 7112   2.572   1.719   7.525  0.5537 -0.8498 -0.5860
 1779SOL     ow 7113   4.876   1.122   4.636  0.0020  0.9686  0.5494
 1779SOL     hw 7114   4.949   1.103   4.577  0.0965 -0.6314  1.1331
 1779SOL     hw 7115   4.797   1.108   4.583  0.0965  0.7201  0.4759
 1779SOL     vw 7116   4.875   1.118   4.621  0.0269  0.7247  0.6168
 1780SOL     ow 7117   4.599   5.599   0.073  0.4296 -0.1418 -0.1100
 1780SOL     hw 7118   4.576   5.676   0.125 -0.5897 -1.2806  1.2212
 1780SOL     hw 7119   4.591   5.628  -0.018  0.2439  1.3590  0.3598
 1780SOL     vw 7120   4.595   5.613   0.068  0.2706 -0.0939  0.1277
 1781SOL     ow 7121   5.362   6.365   0.926  0.3094  0.2452 -0.0265
 1781SOL     hw 7122   5.398   6.300   0.987 -1.7567 -0.0057  1.0284
 1781SOL     hw 7123   5.274   6.332   0.906 -0.9512  2.8006  0.7844
 1781SOL     vw 7124   5.355   6.352   0.932 -0.1292  0.5493  0.2197
 1782SOL     ow 7125   4.579   5.232   2.957  0.0965 -0.0734  0.1932
 1782SOL     hw 7126   4.492   5.199   2.937 -0.0025  0.3681 -0.1119
 1782SOL     hw 7127   4.626   5.227   2.874 -0.0963  1.0919 -0.0020
 1782SOL     vw 7128   4.574   5.227   2.944  0.0579  0.1385  0.1273
 1783SOL     ow 7129   6.788   4.399   3.275 -0.0070 -0.2576 -0.2883
 1783SOL     hw 7130   6.869   4.450   3.276 -0.5908  0.7229  1.5447
 1783SOL     hw 7131   6.816   4.309   3.287  0.8294  0.1060  0.6511
 1783SOL     vw 7132   6.802   4.394   3.277  0.0265 -0.0803  0.0774
 1784SOL     ow 7133   6.986   5.907   7.425  0.1917  0.0712  0.5172
 1784SOL     hw 7134   7.025   5.958   7.354  1.7944 -0.6358  0.8362
 1784SOL     hw 7135   6.966   5.972   7.492  0.7419  0.4821  0.2949
 1784SOL     vw 7136   6.988   5.922   7.424  0.4759  0.0322  0.5298
 1785SOL     ow 7137   7.221   3.192   0.743  0.1914  0.0926  0.4659
 1785SOL     hw 7138   7.238   3.282   0.770  0.6276 -0.1610  1.0692
 1785SOL     hw 7139   7.282   3.139   0.795  0.0814 -0.5340 -0.0226
 1785SOL     vw 7140   7.231   3.197   0.753  0.2346 -0.0235  0.4810
 1786SOL     ow 7141   0.425   0.269   4.208  0.2042 -0.4193  0.4685
 1786SOL     hw 7142   0.412   0.364   4.202  1.1865 -0.2549  0.7242
 1786SOL     hw 7143   0.507   0.260   4.257  0.2524 -1.4003  0.2125
 1786SOL     vw 7144   0.434   0.280   4.214  0.3401 -0.5270  0.4685
 1787SOL     ow 7145   1.308   1.937   1.913 -0.0848  0.3825 -0.1327
 1787SOL     hw 7146   1.380   1.994   1.887  1.3880 -1.5846 -0.5810
 1787SOL     hw 7147   1.279   1.896   1.832 -4.5484  3.9609 -0.7949
 1787SOL     vw 7148   1.313   1.939   1.899 -0.4793  0.5952 -0.2791
 1788SOL     ow 7149   3.565   5.207   3.108 -0.8520  0.9134  0.4282
 1788SOL     hw 7150   3.478   5.214   3.147  0.3488  1.7477  3.1978
 1788SOL     hw 7151   3.598   5.122   3.138  0.1061  1.5692  1.2746
 1788SOL     vw 7152   3.558   5.196   3.117 -0.5671  1.1101  0.9053
 1789SOL     ow 7153   2.335   4.238   3.707 -0.4323 -0.3687 -0.4867
 1789SOL     hw 7154   2.405   4.250   3.772 -1.4010  0.9878  0.3606
 1789SOL     hw 7155   2.362   4.291   3.632  0.5082 -1.6473 -1.1082
 1789SOL     vw 7156   2.348   4.246   3.706 -0.4361 -0.3586 -0.4570
 1790SOL     ow 7157   6.235   1.559   2.449 -0.7207 -0.1450  0.0850
 1790SOL     hw 7158   6.312   1.614   2.461 -0.9479  0.2426 -0.2293
 1790SOL     hw 7159   6.245   1.522   2.362 -1.2565  0.4922 -0.2563
 1790SOL     vw 7160   6.246   1.561   2.439 -0.8211 -0.0098 -0.0014
 1791SOL     ow 7161   6.398   3.039   2.606  0.3968 -0.2345 -0.2938
 1791SOL     hw 7162   6.340   3.095   2.554  2.3397  0.8958 -1.3643
 1791SOL     hw 7163   6.361   2.951   2.597 -2.0498  0.6341  0.4382
 1791SOL     vw 7164   6.386   3.035   2.598  0.3304  0.0292 -0.3384
 1792SOL     ow 7165   2.088   5.907   1.952  0.0975  0.0161 -0.3545
 1792SOL     hw 7166   2.074   5.824   1.998  1.8596 -0.3860 -0.4641
 1792SOL     hw 7167   2.082   5.884   1.859 -1.3326  0.4188 -0.3898
 1792SOL     vw 7168   2.085   5.893   1.946  0.1413  0.0160 -0.3736
 1793SOL     ow 7169   2.868   1.474   5.191  0.4188  0.2297 -0.6679
 1793SOL     hw 7170   2.870   1.569   5.185 -1.3358  0.4173  0.8122
 1793SOL     hw 7171   2.883   1.455   5.284 -2.1976 -0.7132 -0.3472
 1793SOL     vw 7172   2.870   1.484   5.203 -0.1578  0.1301 -0.4301
 1794SOL     ow 7173   1.719   6.767   6.305  0.2286 -0.4140  0.1908
 1794SOL     hw 7174   1.762   6.682   6.302  0.4876 -0.3890  2.0074
 1794SOL     hw 7175   1.784   6.826   6.344  0.1345  0.6868 -1.2374
 1794SOL     vw 7176   1.733   6.764   6.310  0.2505 -0.2656  0.2425
 1795SOL     ow 7177   2.570   0.161   6.925  0.0705  0.3713  0.0590
 1795SOL     hw 7178   2.540   0.242   6.966 -0.5670  0.4204 -0.4874
 1795SOL     hw 7179   2.493   0.104   6.925  1.0086 -1.0343  2.3010
 1795SOL     vw 7180   2.556   0.164   6.931  0.1100  0.1923  0.2830
 1796SOL     ow 7181   2.321   6.652   6.711 -0.2721 -0.5071  0.6639
 1796SOL     hw 7182   2.413   6.637   6.735 -0.4639  0.8962  2.5616
 1796SOL     hw 7183   2.323   6.726   6.651 -0.1616 -0.4188  0.7763
 1796SOL     vw 7184   2.333   6.660   6.707 -0.2829 -0.3104  0.9294
 1797SOL     ow 7185   4.555   0.378   1.527 -0.7131  0.5665  0.4199
 1797SOL     hw 7186   4.611   0.448   1.561  1.1684 -0.5380 -0.2525
 1797SOL     hw 7187   4.557   0.390   1.432 -0.4159 -0.3430  0.3000
 1797SOL     vw 7188   4.563   0.389   1.519 -0.4258  0.3008  0.3153
 1798SOL     ow 7189   0.150   3.561   4.643  0.1070  0.2115  0.2327
 1798SOL     hw 7190   0.114   3.618   4.710  0.3765  1.3152 -0.5369
 1798SOL     hw 7191   0.144   3.473   4.681 -0.1564  0.7543  1.5089
 1798SOL     vw 7192   0.145   3.557   4.657  0.1078  0.4287  0.2997
 1799SOL     ow 7193   3.652   6.309   1.099 -0.4853 -0.4211 -0.6760
 1799SOL     hw 7194   3.708   6.327   1.023 -1.8794 -2.4841 -2.2935
 1799SOL     hw 7195   3.574   6.269   1.062 -2.1965  0.5324  1.6985
 1799SOL     vw 7196   3.649   6.306   1.084 -0.8950 -0.5674 -0.5761
 1800SOL     ow 7197   6.523   4.880   6.908 -0.1722 -0.3535 -0.3598
 1800SOL     hw 7198   6.580   4.818   6.863 -2.1544 -2.3882 -0.2578
 1800SOL     hw 7199   6.565   4.895   6.992  1.3852  0.1253 -1.1774
 1800SOL     vw 7200   6.536   4.874   6.913 -0.2284 -0.5586 -0.4544
 1801SOL     ow 7201   2.290   1.983   1.899 -0.1617  0.3243 -0.9747
 1801SOL     hw 7202   2.287   1.898   1.855  0.1718  0.0118 -0.3955
 1801SOL     hw 7203   2.202   1.994   1.936  0.3203 -0.5894  0.4850
 1801SOL     vw 7204   2.278   1.973   1.898 -0.0541  0.1625 -0.7057
 1802SOL     ow 7205   1.142   0.350   3.926 -0.2150 -0.2871  0.7886
 1802SOL     hw 7206   1.067   0.291   3.919 -0.0010 -0.8579  2.7025
 1802SOL     hw 7207   1.191   0.319   4.002 -0.9221  3.2275  2.9233
 1802SOL     vw 7208   1.139   0.338   3.935 -0.2800  0.1013  1.3229
 1803SOL     ow 7209   7.345   2.663   0.833  0.2156  0.8763  0.2627
 1803SOL     hw 7210   7.382   2.689   0.749  0.2263  0.3828  0.1143
 1803SOL     hw 7211   7.342   2.567   0.830  0.9526  0.8070  1.1281
 1803SOL     vw 7212   7.350   2.654   0.822  0.3142  0.8020  0.3573
 1804SOL     ow 7213   3.399   7.137   5.766  0.1939 -0.2684 -0.1617
 1804SOL     hw 7214   3.310   7.119   5.796  0.1697  0.2078  0.0617
 1804SOL     hw 7215   3.399   7.111   5.674  0.2532 -1.6638  0.2143
 1804SOL     vw 7216   3.387   7.131   5.758  0.1987 -0.3898 -0.0825
 1805SOL     ow 7217   2.852   3.566   5.824  0.1144  0.4025  0.4919
 1805SOL     hw 7218   2.790   3.574   5.896 -0.7292  0.0735 -0.1771
 1805SOL     hw 7219   2.896   3.651   5.820 -0.7372  0.8521  0.5731
 1805SOL     vw 7220   2.850   3.578   5.833 -0.1093  0.4184  0.4146
 1806SOL     ow 7221   2.349   3.829   1.883 -0.0020 -0.5397  0.1506
 1806SOL     hw 7222   2.407   3.905   1.880 -0.6672  0.0070  0.7126
 1806SOL     hw 7223   2.332   3.816   1.977 -1.0131 -0.5197 -0.0256
 1806SOL     vw 7224   2.355   3.837   1.895 -0.2230 -0.4649  0.2015
 1807SOL     ow 7225   7.542   5.428   3.804 -0.1507 -0.4207 -0.0785
 1807SOL     hw 7226   7.448   5.447   3.811 -0.2788 -0.7521 -0.7818
 1807SOL     hw 7227   7.545   5.334   3.783  0.3802 -0.6750  1.0463
 1807SOL     vw 7228   7.530   5.418   3.803 -0.0973 -0.4981 -0.0228
 1808SOL     ow 7229   4.174   5.577   0.068  0.4530 -0.1329 -0.1137
 1808SOL     hw 7230   4.231   5.621   0.006 -0.1357  0.1230 -0.4821
 1808SOL     hw 7231   4.109   5.643   0.093  0.4094 -0.3675  0.4231
 1808SOL     vw 7232   4.173   5.592   0.063  0.3695 -0.1299 -0.0913
 1809SOL     ow 7233   0.429   5.457   6.235  0.5635 -0.0141 -0.4864
 1809SOL     hw 7234   0.486   5.392   6.274  0.0799  1.4947  3.1514
 1809SOL     hw 7235   0.477   5.487   6.157  2.8300 -1.5473  0.2082
 1809SOL     vw 7236   0.443   5.453   6.230  0.7987 -0.0172  0.0854
 1810SOL     ow 7237   4.676   3.489   4.105 -0.2840 -0.9495 -0.0971
 1810SOL     hw 7238   4.714   3.564   4.059 -0.4020 -0.6780  0.2386
 1810SOL     hw 7239   4.599   3.525   4.149 -0.6453 -1.3827 -0.3622
 1810SOL     vw 7240   4.671   3.504   4.105 -0.3474 -0.9707 -0.0880
 1811SOL     ow 7241   7.323   2.686   6.593  0.7427 -0.3547  0.7078
 1811SOL     hw 7242   7.399   2.648   6.548  1.3610  3.6346 -2.1680
 1811SOL     hw 7243   7.260   2.704   6.524  0.3803  3.2553  1.7698
 1811SOL     vw 7244   7.325   2.683   6.578  0.7765  0.6479  0.4687
 1812SOL     ow 7245   1.492   2.422   1.370  0.9083 -0.5591  0.1102
 1812SOL     hw 7246   1.535   2.507   1.381 -0.1767 -0.0236  0.3674
 1812SOL     hw 7247   1.481   2.390   1.460  0.1842 -0.3791  0.0917
 1812SOL     vw 7248   1.496   2.429   1.383  0.6696 -0.4648  0.1417
 1813SOL     ow 7249   3.507   1.208   0.716  0.2061 -0.0020  0.4400
 1813SOL     hw 7250   3.442   1.277   0.706 -1.2397 -1.5595 -1.6870
 1813SOL     hw 7251   3.495   1.176   0.806 -0.6772  0.9573  0.6824
 1813SOL     vw 7252   3.497   1.213   0.727 -0.1012 -0.0809  0.1914
 1814SOL     ow 7253   0.240   5.047   4.308  0.2514 -0.3075 -0.1833
 1814SOL     hw 7254   0.324   5.043   4.264 -0.7243 -2.7355 -2.1206
 1814SOL     hw 7255   0.182   5.093   4.247 -0.5393 -1.5004 -0.3787
 1814SOL     vw 7256   0.243   5.052   4.294  0.0184 -0.7854 -0.4647
 1815SOL     ow 7257   4.042   6.845   3.853  0.2066  0.1390  0.5849
 1815SOL     hw 7258   4.011   6.935   3.844  1.9346  0.6954 -0.4243
 1815SOL     hw 7259   4.128   6.845   3.811 -1.3990 -2.9330 -3.3919
 1815SOL     vw 7260   4.050   6.857   3.846  0.2232 -0.1929 -0.0731
 1816SOL     ow 7261   2.098   3.859   4.661  0.2714 -0.2454  1.1463
 1816SOL     hw 7262   2.062   3.947   4.668 -0.3605 -0.4256  0.4186
 1816SOL     hw 7263   2.192   3.871   4.666  0.2836  0.6651 -0.4588
 1816SOL     vw 7264   2.105   3.872   4.662  0.1895 -0.1491  0.8385
 1817SOL     ow 7265   7.527   5.989   2.774 -0.1784 -0.0071  0.1228
 1817SOL     hw 7266   7.539   6.079   2.804  0.8488 -0.4785  1.1817
 1817SOL     hw 7267   7.511   5.938   2.854  1.1989 -1.0662 -0.2268
 1817SOL     vw 7268   7.526   5.994   2.788  0.1388 -0.2089  0.2164
 1818SOL     ow 7269   2.082   3.533   2.843 -0.1646  0.5411 -0.0247
 1818SOL     hw 7270   2.150   3.529   2.776 -2.6480 -0.7039 -2.7011
 1818SOL     hw 7271   2.124   3.503   2.923  2.7810  1.3614 -1.1503
 1818SOL     vw 7272   2.096   3.529   2.844 -0.1037  0.4851 -0.5263
 1819SOL     ow 7273   0.921   3.434   0.321 -0.1260  1.6420  0.2364
 1819SOL     hw 7274   0.981   3.428   0.246  1.3170 -1.6575  1.4504
 1819SOL     hw 7275   0.853   3.369   0.302 -0.0520  1.1767  1.4802
 1819SOL     vw 7276   0.920   3.425   0.309  0.0741  1.1454  0.5606
 1820SOL     ow 7277   6.499   0.490   6.809 -0.3379  0.6816 -0.3354
 1820SOL     hw 7278   6.469   0.450   6.727 -1.5949  0.1818  0.3436
 1820SOL     hw 7279   6.475   0.427   6.876  3.3230 -0.3520  0.2309
 1820SOL     vw 7280   6.492   0.476   6.807 -0.0205  0.4793 -0.1712
 1821SOL     ow 7281   2.254   1.653   5.352  0.0527  0.2335 -0.3132
 1821SOL     hw 7282   2.268   1.565   5.386  0.1269  0.1060 -0.6633
 1821SOL     hw 7283   2.160   1.669   5.364 -0.6355 -1.1405 -3.0607
 1821SOL     vw 7284   2.243   1.644   5.358 -0.0284  0.0353 -0.7222
 1822SOL     ow 7285   6.040   5.054   3.772 -0.1984  0.2500  0.5960
 1822SOL     hw 7286   6.133   5.049   3.796 -0.2485  0.6545  0.8689
 1822SOL     hw 7287   6.022   4.969   3.731  0.1204 -0.0878  1.1384
 1822SOL     vw 7288   6.050   5.042   3.769 -0.1628  0.2587  0.7035
 1823SOL     ow 7289   2.000   0.513   7.168 -0.0764  0.6816  0.0779
 1823SOL     hw 7290   2.047   0.597   7.166  0.6275  0.3073  0.4479
 1823SOL     hw 7291   2.056   0.456   7.222 -1.9397  0.8152  2.2960
 1823SOL     vw 7292   2.014   0.517   7.175 -0.2294  0.6499  0.4194
 1824SOL     ow 7293   1.192   3.017   1.802 -0.1798  0.0749  0.5090
 1824SOL     hw 7294   1.155   3.038   1.716 -1.9799  4.4570  2.0834
 1824SOL     hw 7295   1.286   3.029   1.792 -0.2355 -0.5249 -1.0271
 1824SOL     vw 7296   1.199   3.021   1.790 -0.4247  0.5740  0.5140
 1825SOL     ow 7297   4.213   4.016   1.486  0.3699  0.1949 -0.1776
 1825SOL     hw 7298   4.137   3.958   1.479  1.1783 -0.7157 -1.8559
 1825SOL     hw 7299   4.217   4.061   1.401  0.6844  1.5867  0.5313
 1825SOL     vw 7300   4.203   4.015   1.474  0.5178  0.2584 -0.3055
 1826SOL     ow 7301   1.935   0.211   3.963 -0.7389 -0.0497 -0.0868
 1826SOL     hw 7302   1.946   0.217   4.058 -0.1242 -1.6101 -0.0253
 1826SOL     hw 7303   1.908   0.120   3.948 -0.2667  0.0167 -1.4423
 1826SOL     vw 7304   1.933   0.200   3.974 -0.5955 -0.2468 -0.2575
 1827SOL     ow 7305   3.928   0.406   7.165 -0.7738  0.2928  0.3727
 1827SOL     hw 7306   3.948   0.315   7.142  1.6714  0.7963  0.2718
 1827SOL     hw 7307   3.890   0.400   7.253 -1.2192 -0.8565  0.1224
 1827SOL     vw 7308   3.925   0.393   7.174 -0.5100  0.2076  0.3262
 1828SOL     ow 7309   7.332   3.530   3.138  0.2872 -0.9153 -0.1934
 1828SOL     hw 7310   7.305   3.526   3.046  0.3132  0.0517 -0.2506
 1828SOL     hw 7311   7.391   3.605   3.143 -2.5644  1.4674  1.2989
 1828SOL     vw 7312   7.336   3.539   3.127 -0.0856 -0.4734 -0.0041
 1829SOL     ow 7313   0.683   0.406   6.920  0.2066 -0.3171 -0.0638
 1829SOL     hw 7314   0.692   0.494   6.956 -3.3046  0.9012 -1.7333
 1829SOL     hw 7315   0.743   0.403   6.846  0.7557  0.4553  0.3432
 1829SOL     vw 7316   0.692   0.417   6.915 -0.1842 -0.0545 -0.2306
 1830SOL     ow 7317   2.987   3.783   4.964 -0.6335  0.9601 -0.1495
 1830SOL     hw 7318   2.926   3.822   4.902  0.7084  0.4801 -1.8584
 1830SOL     hw 7319   3.033   3.715   4.913 -0.0227  0.0028  1.5869
 1830SOL     vw 7320   2.985   3.779   4.949 -0.3757  0.7704 -0.1454
 1831SOL     ow 7321   1.066   7.382   2.935 -0.0033  0.9491  0.2608
 1831SOL     hw 7322   1.141   7.327   2.957 -0.5446  0.9728  2.3671
 1831SOL     hw 7323   1.057   7.373   2.840  0.7718 -1.5187  0.3364
 1831SOL     vw 7324   1.074   7.373   2.925  0.0277  0.6263  0.5486
 1832SOL     ow 7325   4.411   4.066   0.228 -0.0809  0.0077 -0.7441
 1832SOL     hw 7326   4.466   4.141   0.251  0.7492 -0.8245  0.0721
 1832SOL     hw 7327   4.323   4.102   0.218 -0.1156  0.7810  1.7753
 1832SOL     vw 7328   4.406   4.080   0.230  0.0241  0.0000 -0.3040
 1833SOL     ow 7329   4.207   6.902   1.694  0.1543 -0.7268  0.3137
 1833SOL     hw 7330   4.261   6.825   1.711 -0.1388 -1.8486 -3.0208
 1833SOL     hw 7331   4.140   6.871   1.633 -0.8045  1.8733 -0.0778
 1833SOL     vw 7332   4.206   6.888   1.688 -0.0105 -0.5317 -0.1779
 1834SOL     ow 7333   4.911   4.791   5.568  0.0885 -0.1486 -0.6445
 1834SOL     hw 7334   4.867   4.744   5.639 -0.0851  1.3324  0.2636
 1834SOL     hw 7335   4.854   4.779   5.492 -1.8433  1.5551  0.4570
 1834SOL     vw 7336   4.898   4.783   5.567 -0.1891  0.2716 -0.3793
 1835SOL     ow 7337   1.941   7.327   1.310  0.2836 -0.3637 -0.1300
 1835SOL     hw 7338   1.965   7.385   1.382 -1.2533  0.0447  0.0759
 1835SOL     hw 7339   1.895   7.255   1.351 -0.6174 -0.1219 -0.6907
 1835SOL     vw 7340   1.938   7.325   1.325 -0.0380 -0.2778 -0.1767
 1836SOL     ow 7341   6.445   1.378   6.467  0.2849  0.0601  0.0086
 1836SOL     hw 7342   6.392   1.357   6.544 -0.8097  1.6336 -0.2482
 1836SOL     hw 7343   6.525   1.328   6.478 -0.3195 -0.6245  1.5923
 1836SOL     vw 7344   6.448   1.369   6.478  0.0608  0.1774  0.1838
 1837SOL     ow 7345   0.543   3.063   4.520  0.3995  0.2463 -0.0015
 1837SOL     hw 7346   0.486   2.993   4.487  0.6212  0.3464 -0.6070
 1837SOL     hw 7347   0.574   3.108   4.441  1.9792 -0.3242  0.2596
 1837SOL     vw 7348   0.540   3.060   4.505  0.6372  0.1841 -0.0472
 1838SOL     ow 7349   4.344   3.842   3.437  0.5855 -0.8751 -0.1002
 1838SOL     hw 7350   4.355   3.906   3.367  0.4752 -0.7798 -0.0310
 1838SOL     hw 7351   4.256   3.858   3.471  0.0697 -1.9180 -0.9289
 1838SOL     vw 7352   4.334   3.853   3.432  0.5031 -1.0000 -0.2004
 1839SOL     ow 7353   2.299   2.141   7.041 -0.5368 -0.1916  0.1522
 1839SOL     hw 7354   2.357   2.096   7.102  0.2035  0.0698 -0.3462
 1839SOL     hw 7355   2.295   2.231   7.074 -0.3076 -0.1025 -0.0622
 1839SOL     vw 7356   2.306   2.147   7.054 -0.4089 -0.1454  0.0584
 1840SOL     ow 7357   6.385   0.121   2.162 -0.2717 -0.1776 -0.1077
 1840SOL     hw 7358   6.453   0.054   2.152 -1.0410 -0.8783 -0.8350
 1840SOL     hw 7359   6.352   0.135   2.073 -0.8940  0.3417  0.1979
 1840SOL     vw 7360   6.389   0.114   2.149 -0.4556 -0.2015 -0.1634
 1841SOL     ow 7361   2.314   1.101   2.915  0.1856 -0.2471 -0.0121
 1841SOL     hw 7362   2.221   1.119   2.904  0.1288  1.6156  2.4747
 1841SOL     hw 7363   2.334   1.133   3.003  3.0550 -1.1614 -0.2254
 1841SOL     vw 7364   2.304   1.108   2.925  0.5567 -0.1219  0.2878
 1842SOL     ow 7365   2.305   2.763   4.471  0.1740  0.5408  0.9620
 1842SOL     hw 7366   2.270   2.824   4.536  2.1586  0.1323  2.5218
 1842SOL     hw 7367   2.358   2.702   4.522 -0.5897 -1.6540 -0.7194
 1842SOL     vw 7368   2.307   2.763   4.486  0.3352  0.1973  0.9460
 1843SOL     ow 7369   1.513   6.684   0.126  0.1977 -0.1468 -0.5410
 1843SOL     hw 7370   1.421   6.710   0.120  0.2124  0.0742  0.1254
 1843SOL     hw 7371   1.555   6.755   0.174  0.9958  0.4092 -1.9793
 1843SOL     vw 7372   1.506   6.697   0.131  0.3050 -0.0446 -0.6429
 1844SOL     ow 7373   7.625   6.616   3.891 -0.0748 -0.0706 -0.0296
 1844SOL     hw 7374   7.563   6.551   3.923  0.9400 -1.8662 -1.5134
 1844SOL     hw 7375   7.570   6.687   3.857 -1.3593 -1.5161 -1.1227
 1844SOL     vw 7376   7.610   6.617   3.891 -0.1104 -0.4981 -0.3697
 1845SOL     ow 7377   1.270   3.655   3.374  0.0580  0.1081  0.5888
 1845SOL     hw 7378   1.253   3.595   3.447 -1.4670  0.7135  0.7750
 1845SOL     hw 7379   1.268   3.599   3.296  1.2138 -0.4649  0.9552
 1845SOL     vw 7380   1.267   3.639   3.373  0.0092  0.1124  0.6617
 1846SOL     ow 7381   0.502   0.388   7.587 -0.1003 -0.8500  0.3897
 1846SOL     hw 7382   0.464   0.367   7.501  1.2455  1.7263 -0.9879
 1846SOL     hw 7383   0.431   0.431   7.634  0.2460  1.9161 -1.3248
 1846SOL     vw 7384   0.488   0.391   7.582  0.1230 -0.1452 -0.0184
 1847SOL     ow 7385   2.655   0.076   2.897 -0.0772  0.0935 -0.3136
 1847SOL     hw 7386   2.716   0.146   2.920 -1.0542  1.1791 -0.9579
 1847SOL     hw 7387   2.636   0.090   2.805  0.7546 -1.8682 -0.8442
 1847SOL     vw 7388   2.661   0.087   2.888 -0.0963 -0.0221 -0.4687
 1848SOL     ow 7389   1.965   5.689   4.832  0.4671  0.0241 -0.0687
 1848SOL     hw 7390   1.969   5.755   4.763  0.1972 -0.5129 -0.6025
 1848SOL     hw 7391   1.874   5.660   4.834  0.8568 -1.3775 -0.8518
 1848SOL     vw 7392   1.954   5.694   4.823  0.4829 -0.2315 -0.2422
 1849SOL     ow 7393   1.615   3.265   7.021  0.1506 -0.8911 -0.0152
 1849SOL     hw 7394   1.546   3.275   7.086  0.0454  0.4773 -0.2990
 1849SOL     hw 7395   1.599   3.180   6.981  0.6060 -2.0740  2.1630
 1849SOL     vw 7396   1.604   3.255   7.024  0.1968 -0.8667  0.2348
 1850SOL     ow 7397   6.677   2.986   1.487  0.0253 -0.2753 -0.0100
 1850SOL     hw 7398   6.621   2.998   1.564 -0.0932 -2.0071  0.2106
 1850SOL     hw 7399   6.623   3.016   1.414 -1.2097 -1.7838  0.2110
 1850SOL     vw 7400   6.662   2.992   1.488 -0.1533 -0.7027  0.0483
 1851SOL     ow 7401   2.940   4.944   6.942 -0.1767 -0.5680 -0.1869
 1851SOL     hw 7402   2.850   4.926   6.969 -0.3658  0.3506 -0.1835
 1851SOL     hw 7403   2.988   4.863   6.963 -0.2350  0.1368  3.1618
 1851SOL     vw 7404   2.935   4.931   6.948 -0.2093 -0.3538  0.2553
 1852SOL     ow 7405   7.009   1.705   4.187  0.3649  0.0165 -0.1620
 1852SOL     hw 7406   6.915   1.725   4.190  0.6756  1.5140  0.6669
 1852SOL     hw 7407   7.033   1.722   4.096  0.1245  1.2115 -0.0240
 1852SOL     vw 7408   7.000   1.710   4.175  0.3741  0.3718 -0.0343
 1853SOL     ow 7409   2.753   3.099   5.882  0.0854  0.7447  0.0242
 1853SOL     hw 7410   2.711   3.013   5.877  2.4294 -0.7655  3.0141
 1853SOL     hw 7411   2.684   3.161   5.857 -2.4154 -1.8134  0.0871
 1853SOL     vw 7412   2.738   3.096   5.878  0.0646  0.2079  0.4272
 1854SOL     ow 7413   1.165   2.811   0.348 -0.0419  0.3055 -0.0832
 1854SOL     hw 7414   1.070   2.819   0.336 -0.2859 -0.3986  1.1948
 1854SOL     hw 7415   1.189   2.884   0.405 -0.0201 -0.1516  0.5084
 1854SOL     vw 7416   1.156   2.822   0.354 -0.0712  0.1523  0.1634
 1855SOL     ow 7417   2.930   3.396   7.255  0.0178 -0.4955  0.0580
 1855SOL     hw 7418   2.924   3.301   7.248 -0.0990 -0.3675 -2.5811
 1855SOL     hw 7419   3.024   3.414   7.264  0.1658 -0.8163 -0.7941
 1855SOL     vw 7420   2.942   3.386   7.256  0.0219 -0.5208 -0.4029
 1856SOL     ow 7421   5.473   5.062   3.059  0.4285 -0.2914  0.6289
 1856SOL     hw 7422   5.433   5.081   3.143 -0.4613 -1.0563  0.3981
 1856SOL     hw 7423   5.558   5.106   3.062  1.0189 -1.4589  2.4722
 1856SOL     vw 7424   5.479   5.070   3.070  0.3891 -0.5462  0.8417
 1857SOL     ow 7425   2.187   5.493   1.412  0.4405  0.4466  0.3180
 1857SOL     hw 7426   2.228   5.454   1.334  0.1782  0.8885 -0.0423
 1857SOL     hw 7427   2.096   5.506   1.388  0.2965  0.3493  0.7946
 1857SOL     vw 7428   2.181   5.490   1.399  0.3868  0.4921  0.3334
 1858SOL     ow 7429   7.589   2.558   5.166  0.1141  0.3415 -0.1038
 1858SOL     hw 7430   7.557   2.478   5.124 -0.0705  0.1251  0.4412
 1858SOL     hw 7431   7.671   2.578   5.121  0.0267 -0.0035 -0.4204
 1858SOL     vw 7432   7.595   2.550   5.154  0.0780  0.2674 -0.0737
 1859SOL     ow 7433   0.630   3.195   7.534  0.9343  0.1468 -0.4410
 1859SOL     hw 7434   0.602   3.247   7.609 -0.0051 -1.9419  0.7709
 1859SOL     hw 7435   0.577   3.227   7.461 -0.0421  0.5146  0.4015
 1859SOL     vw 7436   0.619   3.206   7.535  0.6815 -0.0802 -0.1698
 1860SOL     ow 7437   7.549   5.357   2.800 -0.0844 -0.3408  0.1196
 1860SOL     hw 7438   7.521   5.273   2.837  0.7920  0.0957  1.8800
 1860SOL     hw 7439   7.643   5.349   2.790  0.4473  1.2704  2.8343
 1860SOL     vw 7440   7.557   5.345   2.804  0.1011 -0.0708  0.7102
 1861SOL     ow 7441   2.463   0.232   4.193  0.6260 -0.3669  0.1226
 1861SOL     hw 7442   2.480   0.291   4.119  0.0795 -0.5304 -0.1425
 1861SOL     hw 7443   2.517   0.155   4.175  1.8207  0.3079  0.7949
 1861SOL     vw 7444   2.472   0.229   4.181  0.7116 -0.2995  0.1762
 1862SOL     ow 7445   6.824   5.625   3.591  0.3522 -0.3628  0.2287
 1862SOL     hw 7446   6.899   5.684   3.587  0.2743 -0.2226  0.7318
 1862SOL     hw 7447   6.848   5.560   3.658  0.5212 -1.0261 -0.4623
 1862SOL     vw 7448   6.837   5.624   3.600  0.3643 -0.4318  0.2040
 1863SOL     ow 7449   2.862   2.448   4.855  0.4631  0.3725 -0.6207
 1863SOL     hw 7450   2.873   2.431   4.762  4.9055 -2.6218  0.1352
 1863SOL     hw 7451   2.840   2.362   4.892 -0.9186  1.4335  1.1945
 1863SOL     vw 7452   2.860   2.434   4.848  0.8669  0.1173 -0.2813
 1864SOL     ow 7453   3.225   7.358   0.657 -0.4378 -0.4130 -0.3864
 1864SOL     hw 7454   3.210   7.267   0.684 -1.4854 -0.5073 -1.2222
 1864SOL     hw 7455   3.230   7.354   0.562  1.6324  0.1278 -0.3320
 1864SOL     vw 7456   3.224   7.346   0.648 -0.3030 -0.3541 -0.4895
 1865SOL     ow 7457   2.551   2.629   0.340  0.4530 -0.0747  0.4606
 1865SOL     hw 7458   2.567   2.715   0.379  0.4989  0.5273 -0.8203
 1865SOL     hw 7459   2.622   2.574   0.373 -0.3191 -0.0043  2.3416
 1865SOL     vw 7460   2.563   2.633   0.349  0.3573  0.0139  0.5398
 1866SOL     ow 7461   4.463   5.910   6.395  0.2953  0.2424  0.0742
 1866SOL     hw 7462   4.461   6.002   6.421 -0.2881  0.6449 -1.3226
 1866SOL     hw 7463   4.464   5.862   6.478 -0.6523  1.4714  0.8301
 1866SOL     vw 7464   4.463   5.915   6.409  0.0935  0.4575 -0.0105
 1867SOL     ow 7465   7.199   3.785   3.203  0.1864  0.1171  0.5247
 1867SOL     hw 7466   7.133   3.840   3.246 -1.6407 -0.8831 -0.7971
 1867SOL     hw 7467   7.279   3.837   3.203 -0.5516  1.3136  2.3879
 1867SOL     vw 7468   7.200   3.799   3.208 -0.1519  0.1428  0.5962
 1868SOL     ow 7469   5.061   7.289   7.609  0.1002  0.4591 -0.3298
 1868SOL     hw 7470   5.060   7.306   7.703  0.3554 -1.7947  0.1346
 1868SOL     hw 7471   4.981   7.240   7.593  0.5185  0.0190 -1.1083
 1868SOL     vw 7472   5.050   7.285   7.619  0.1888  0.1037 -0.3712
 1869SOL     ow 7473   0.002   7.258   5.978 -0.4272  0.9652 -0.1915
 1869SOL     hw 7474   0.004   7.307   5.896 -1.0291  0.6870 -0.3743
 1869SOL     hw 7475  -0.008   7.326   6.045 -0.0846  1.1812 -0.3536
 1869SOL     vw 7476   0.001   7.273   5.976 -0.4614  0.9570 -0.2370
 1870SOL     ow 7477   0.302   1.100   1.697 -0.3940  0.9184 -0.3017
 1870SOL     hw 7478   0.223   1.122   1.648  0.6347  2.3360 -1.3794
 1870SOL     hw 7479   0.362   1.066   1.631  0.2647  0.7939  0.3533
 1870SOL     vw 7480   0.299   1.098   1.682 -0.1714  1.0890 -0.3574
 1871SOL     ow 7481   2.197   4.853   4.523 -0.2565 -0.3464 -0.1485
 1871SOL     hw 7482   2.262   4.818   4.462  1.7158  1.3944  0.8538
 1871SOL     hw 7483   2.163   4.775   4.568  1.7837 -1.2597 -0.0734
 1871SOL     vw 7484   2.201   4.838   4.521  0.2729 -0.2375 -0.0062
 1872SOL     ow 7485   6.145   0.148   1.662  0.4602  0.0681 -0.2248
 1872SOL     hw 7486   6.197   0.130   1.740 -0.3992 -3.0195 -0.2057
 1872SOL     hw 7487   6.185   0.094   1.593 -1.0135 -0.2032 -0.9096
 1872SOL     vw 7488   6.157   0.139   1.663  0.1523 -0.3751 -0.3126
 1873SOL     ow 7489   2.911   3.834   7.612 -0.2365 -0.1669  0.3436
 1873SOL     hw 7490   2.840   3.896   7.598 -0.1755  0.1163  1.2002
 1873SOL     hw 7491   2.963   3.837   7.532 -0.4240  0.6445  0.2426
 1873SOL     vw 7492   2.909   3.842   7.600 -0.2532 -0.0225  0.4432
 1874SOL     ow 7493   5.767   6.011   7.313 -0.5083 -0.2280 -0.5985
 1874SOL     hw 7494   5.768   5.968   7.399 -0.1223  0.1110 -0.4334
 1874SOL     hw 7495   5.851   5.987   7.273  0.7861  2.2094  0.4162
 1874SOL     vw 7496   5.778   6.002   7.319 -0.2868  0.1383 -0.4430
 1875SOL     ow 7497   6.640   3.400   1.165 -0.5579  0.2460 -0.5699
 1875SOL     hw 7498   6.638   3.441   1.079  0.3199 -2.2248 -1.8535
 1875SOL     hw 7499   6.570   3.336   1.162  0.4283 -0.8906 -0.0206
 1875SOL     vw 7500   6.630   3.397   1.153 -0.3121 -0.2300 -0.6668
 1876SOL     ow 7501   6.372   3.570   6.063  0.3613 -0.1419 -0.6664
 1876SOL     hw 7502   6.333   3.543   6.146  0.4685  0.7795 -0.3075
 1876SOL     hw 7503   6.440   3.505   6.046  0.4514 -0.2410  0.0513
 1876SOL     vw 7504   6.376   3.557   6.072  0.3872 -0.0334 -0.5243
 1877SOL     ow 7505   1.629   1.337   6.457 -0.4948 -0.4368 -0.9493
 1877SOL     hw 7506   1.604   1.430   6.462  1.4966  0.1103  3.4826
 1877SOL     hw 7507   1.550   1.290   6.482 -0.9359  0.2165 -1.0797
 1877SOL     vw 7508   1.615   1.343   6.461 -0.2903 -0.2784 -0.3819
 1878SOL     ow 7509   1.195   6.202   3.896 -0.1774  0.6410  0.2524
 1878SOL     hw 7510   1.252   6.253   3.839  1.7470 -2.1465 -0.5035
 1878SOL     hw 7511   1.219   6.228   3.985  1.1577  0.6463 -0.0991
 1878SOL     vw 7512   1.205   6.212   3.900  0.2527  0.2737  0.1063
 1879SOL     ow 7513   1.820   4.188   1.075  0.4773 -0.5181  0.5124
 1879SOL     hw 7514   1.769   4.202   1.155  1.4789 -0.7619  1.2202
 1879SOL     hw 7515   1.831   4.093   1.070 -0.6783 -0.6098 -0.6409
 1879SOL     vw 7516   1.815   4.177   1.085  0.4570 -0.5624  0.4536
 1880SOL     ow 7517   7.172   1.519   0.476  0.6099 -0.5849 -0.3395
 1880SOL     hw 7518   7.156   1.559   0.562  1.4598  0.5704 -0.6938
 1880SOL     hw 7519   7.160   1.590   0.414  2.1569 -0.8511 -0.9914
 1880SOL     vw 7520   7.169   1.533   0.479  0.9263 -0.4676 -0.4722
 1881SOL     ow 7521   2.288   0.170   3.532 -0.4621 -0.0032 -0.1001
 1881SOL     hw 7522   2.284   0.179   3.627 -0.1804  2.5069 -0.2646
 1881SOL     hw 7523   2.370   0.214   3.508 -0.0295 -1.4643 -1.4493
 1881SOL     vw 7524   2.298   0.177   3.542 -0.3679  0.1352 -0.2999
 1882SOL     ow 7525   6.825   3.912   6.572  0.3962 -0.7233 -0.4922
 1882SOL     hw 7526   6.795   3.958   6.494  1.6986 -1.2553 -1.3440
 1882SOL     hw 7527   6.809   3.819   6.553  2.2308 -1.0040 -0.8697
 1882SOL     vw 7528   6.819   3.906   6.559  0.8101 -0.8305 -0.6545
 1883SOL     ow 7529   2.498   4.227   0.768 -0.5465  0.1395 -0.4920
 1883SOL     hw 7530   2.485   4.205   0.676 -0.1848 -0.2220 -0.4578
 1883SOL     hw 7531   2.586   4.196   0.789 -0.3733  0.7920 -0.1938
 1883SOL     vw 7532   2.508   4.220   0.759 -0.4760  0.1779 -0.4481
 1884SOL     ow 7533   0.783   1.926   5.714 -0.2809 -0.8266  0.3796
 1884SOL     hw 7534   0.858   1.982   5.737 -1.9321  0.9889  1.6658
 1884SOL     hw 7535   0.771   1.940   5.620 -0.8230  1.3066  0.7128
 1884SOL     vw 7536   0.791   1.935   5.705 -0.5703 -0.3056  0.5932
 1885SOL     ow 7537   0.400   6.574   4.568  0.0319 -0.0205 -0.2520
 1885SOL     hw 7538   0.355   6.600   4.488 -1.2910 -0.4263  0.3249
 1885SOL     hw 7539   0.445   6.493   4.546  0.6048  0.4646 -0.8818
 1885SOL     vw 7540   0.400   6.567   4.555 -0.0670 -0.0100 -0.2592
 1886SOL     ow 7541   1.412   3.790   3.632 -0.2098  0.1403  0.3316
 1886SOL     hw 7542   1.416   3.818   3.541 -0.1090 -0.5412  0.1206
 1886SOL     hw 7543   1.356   3.855   3.674 -0.8281  0.0781 -0.3642
 1886SOL     vw 7544   1.405   3.802   3.625 -0.2781  0.0421  0.2120
 1887SOL     ow 7545   2.411   3.213   3.822 -0.2783  0.2980 -0.2982
 1887SOL     hw 7546   2.473   3.213   3.894 -2.2320  0.0093  1.5070
 1887SOL     hw 7547   2.410   3.304   3.791  0.2902  0.5331  0.3440
 1887SOL     vw 7548   2.419   3.225   3.828 -0.4610  0.2909  0.0247
 1888SOL     ow 7549   5.897   3.934   1.709 -0.2464 -0.1772 -0.1236
 1888SOL     hw 7550   5.956   3.861   1.689 -0.9011 -0.4743 -1.0502
 1888SOL     hw 7551   5.810   3.900   1.688 -0.8734 -0.0580  2.0984
 1888SOL     vw 7552   5.893   3.920   1.703 -0.4158 -0.2006  0.0473
 1889SOL     ow 7553   6.700   2.144   0.214  0.0918 -0.0808 -0.0008
 1889SOL     hw 7554   6.695   2.054   0.181 -0.2612 -0.8141  1.9132
 1889SOL     hw 7555   6.619   2.155   0.265 -0.2395  1.6063 -0.8294
 1889SOL     vw 7556   6.689   2.134   0.217  0.0014  0.0449  0.1424
 1890SOL     ow 7557   4.047   5.718   2.808 -0.3049 -1.2357 -0.1795
 1890SOL     hw 7558   4.014   5.712   2.898 -0.5734 -0.7446 -0.2450
 1890SOL     hw 7559   3.969   5.713   2.753 -0.1503 -1.4231 -0.3857
 1890SOL     vw 7560   4.032   5.716   2.813 -0.3197 -1.1957 -0.2152
 1891SOL     ow 7561   4.591   6.253   5.237  0.0495 -0.1251 -0.0076
 1891SOL     hw 7562   4.671   6.217   5.275 -0.3755 -1.0220  0.0483
 1891SOL     hw 7563   4.528   6.182   5.241 -1.8135  1.5283  2.9887
 1891SOL     vw 7564   4.594   6.239   5.242 -0.2522 -0.0253  0.3951
 1892SOL     ow 7565   1.993   5.806   5.660  0.0866  0.2319  0.2126
 1892SOL     hw 7566   1.963   5.807   5.751  0.4835  4.2288  0.4708
 1892SOL     hw 7567   1.943   5.876   5.617  1.6545  0.1047 -2.0147
 1892SOL     vw 7568   1.982   5.815   5.666  0.3459  0.7424 -0.0472
 1893SOL     ow 7569   0.368   2.027   2.601  0.1173 -0.0531  0.2262
 1893SOL     hw 7570   0.285   2.006   2.644 -0.5166  0.6342 -0.6480
 1893SOL     hw 7571   0.427   2.048   2.674 -0.4245 -0.6503  0.8618
 1893SOL     vw 7572   0.365   2.027   2.616 -0.0378 -0.0414  0.1948
 1894SOL     ow 7573   0.316   6.455   6.452  0.2041 -0.1511  0.8458
 1894SOL     hw 7574   0.304   6.549   6.441  0.6298 -0.2807 -1.1729
 1894SOL     hw 7575   0.266   6.415   6.380  0.6809 -1.4177  1.1767
 1894SOL     vw 7576   0.308   6.462   6.441  0.3232 -0.3352  0.6232
 1895SOL     ow 7577   6.235   1.370   7.589 -0.2576 -0.3854 -0.7123
 1895SOL     hw 7578   6.221   1.279   7.561  0.0986 -0.9508  0.8364
 1895SOL     hw 7579   6.315   1.396   7.545  0.6746 -1.4891  0.2628
 1895SOL     vw 7580   6.243   1.361   7.580 -0.0877 -0.6057 -0.3791
 1896SOL     ow 7581   2.471   3.832   7.582 -0.2259 -0.7564  0.5481
 1896SOL     hw 7582   2.470   3.914   7.631  1.4029  0.7548 -1.7080
 1896SOL     hw 7583   2.383   3.827   7.543  0.0299  0.6600 -0.3125
 1896SOL     vw 7584   2.459   3.842   7.583  0.0228 -0.3701  0.1371
 1897SOL     ow 7585   5.652   1.198   3.482 -0.5272 -0.0542  0.2876
 1897SOL     hw 7586   5.706   1.141   3.427  1.3452 -0.3897  2.3104
 1897SOL     hw 7587   5.680   1.286   3.460 -0.9090 -0.0855 -0.3578
 1897SOL     vw 7588   5.663   1.202   3.472 -0.3302 -0.1027  0.4694
 1898SOL     ow 7589   5.302   6.322   3.274 -0.0431  0.4091 -0.1507
 1898SOL     hw 7590   5.270   6.385   3.209 -1.8279  0.9490  1.1556
 1898SOL     hw 7591   5.361   6.372   3.330 -0.6201  0.6591  0.2422
 1898SOL     vw 7592   5.305   6.337   3.272 -0.3548  0.5136  0.0734
 1899SOL     ow 7593   1.530   6.819   1.901 -0.3388  0.8711 -0.3023
 1899SOL     hw 7594   1.554   6.911   1.898  0.0218  0.7895 -0.0876
 1899SOL     hw 7595   1.506   6.796   1.811 -1.1376  1.3543 -0.2195
 1899SOL     vw 7596   1.530   6.828   1.889 -0.3965  0.9239 -0.2630
 1900SOL     ow 7597   4.504   1.169   7.229 -0.0590  0.1545 -0.3940
 1900SOL     hw 7598   4.512   1.262   7.253  2.8299  0.0586 -0.5897
 1900SOL     hw 7599   4.456   1.170   7.146 -2.5811  1.1746  0.9660
 1900SOL     vw 7600   4.499   1.181   7.221 -0.0105  0.2764 -0.2403
 1901SOL     ow 7601   0.321   7.304   2.459 -0.0059  0.0693  0.2675
 1901SOL     hw 7602   0.298   7.290   2.366 -0.1863  0.3104  0.2730
 1901SOL     hw 7603   0.260   7.247   2.507 -0.7798  0.8890  0.2927
 1901SOL     vw 7604   0.310   7.294   2.453 -0.1318  0.2093  0.2717
 1902SOL     ow 7605   3.859   3.297   6.245  0.1861  0.2981 -0.1420
 1902SOL     hw 7606   3.898   3.310   6.332 -0.3125 -0.7197  0.2484
 1902SOL     hw 7607   3.772   3.336   6.252 -0.3118 -0.8455  0.2063
 1902SOL     vw 7608   3.853   3.304   6.258  0.0547  0.0129 -0.0446
 1903SOL     ow 7609   6.779   7.183   3.996 -0.2632 -0.2551 -0.2982
 1903SOL     hw 7610   6.684   7.188   3.997 -0.2751  1.9534  3.2555
 1903SOL     hw 7611   6.808   7.274   3.994  1.7530 -0.8321  0.1292
 1903SOL     vw 7612   6.771   7.196   3.996  0.0014 -0.0398  0.2270
 1904SOL     ow 7613   2.581   0.215   2.629 -0.1617  0.2410 -0.0308
 1904SOL     hw 7614   2.493   0.195   2.661 -1.0844 -0.0372 -2.5272
 1904SOL     hw 7615   2.573   0.213   2.533  2.0646  2.3316 -0.3660
 1904SOL     vw 7616   2.568   0.212   2.620  0.0103  0.4801 -0.4044
 1905SOL     ow 7617   2.979   3.067   0.311 -0.5676 -0.6721 -0.2836
 1905SOL     hw 7618   3.032   3.020   0.376  0.7546  1.5946  0.3606
 1905SOL     hw 7619   2.911   3.111   0.363 -1.1416 -0.9945 -0.7563
 1905SOL     vw 7620   2.977   3.066   0.327 -0.4689 -0.4156 -0.2609
 1906SOL     ow 7621   3.190   6.678   4.451 -0.3392  0.5214  0.1499
 1906SOL     hw 7622   3.148   6.620   4.387  0.3909 -0.7929  0.8072
 1906SOL     hw 7623   3.189   6.628   4.533  2.4360  0.3983  0.2223
 1906SOL     vw 7624   3.185   6.664   4.454  0.1234  0.3319  0.2460
 1907SOL     ow 7625   2.376   1.065   6.445 -1.0054 -0.0119 -0.8820
 1907SOL     hw 7626   2.345   0.996   6.386  1.0957 -2.8611  1.0896
 1907SOL     hw 7627   2.466   1.040   6.466 -1.1173  1.7505  2.2185
 1907SOL     vw 7628   2.384   1.053   6.440 -0.7429 -0.1553 -0.2129
 1908SOL     ow 7629   1.798   1.654   0.313 -0.3730 -0.9411 -0.7561
 1908SOL     hw 7630   1.766   1.577   0.361 -2.2633  0.2566  0.0260
 1908SOL     hw 7631   1.719   1.692   0.275  0.2628  1.5311  0.2403
 1908SOL     vw 7632   1.783   1.649   0.314 -0.5385 -0.4569 -0.5214
 1909SOL     ow 7633   6.642   1.863   0.165 -0.5471 -0.6357 -0.6850
 1909SOL     hw 7634   6.550   1.847   0.184  0.0378 -2.0118  1.3476
 1909SOL     hw 7635   6.689   1.826   0.240  1.5756  1.9398 -0.5719
 1909SOL     vw 7636   6.636   1.856   0.178 -0.1898 -0.4774 -0.4019
 1910SOL     ow 7637   5.227   6.489   1.333 -0.4020 -0.0526 -0.1132
 1910SOL     hw 7638   5.294   6.442   1.383 -0.0385 -0.5322 -1.0330
 1910SOL     hw 7639   5.166   6.521   1.399  2.1302  2.7936  1.0749
 1910SOL     vw 7640   5.228   6.487   1.348 -0.0200  0.2596 -0.0778
 1911SOL     ow 7641   2.697   4.095   6.850  0.3246 -0.7173  0.4149
 1911SOL     hw 7642   2.663   4.176   6.887  2.1393  1.2749 -1.8873
 1911SOL     hw 7643   2.622   4.055   6.806 -0.0630  1.3173 -0.9146
 1911SOL     vw 7644   2.683   4.101   6.849  0.5127 -0.1860 -0.0644
 1912SOL     ow 7645   5.783   1.525   6.000  0.1981 -0.1928  0.2487
 1912SOL     hw 7646   5.745   1.571   6.075  1.2939  0.7024  0.2827
 1912SOL     hw 7647   5.766   1.433   6.018  0.6380 -0.0160  1.7290
 1912SOL     vw 7648   5.776   1.519   6.012  0.4005 -0.0514  0.4482
 1913SOL     ow 7649   1.794   4.359   5.241 -0.0923 -0.6084  0.8906
 1913SOL     hw 7650   1.744   4.322   5.169 -2.3911  2.3178  0.7629
 1913SOL     hw 7651   1.729   4.370   5.311  0.9913  0.8207  1.7235
 1913SOL     vw 7652   1.779   4.356   5.241 -0.2526 -0.0339  0.9837
 1914SOL     ow 7653   2.211   6.652   3.134 -0.0218 -0.1353  0.2595
 1914SOL     hw 7654   2.226   6.616   3.046 -0.1429 -1.5232  0.7746
 1914SOL     hw 7655   2.133   6.707   3.124  0.8827  1.0020 -0.8211
 1914SOL     vw 7656   2.202   6.654   3.121  0.0815 -0.1683  0.1848
 1915SOL     ow 7657   0.966   4.508   2.115 -0.1734 -0.5342 -0.1272
 1915SOL     hw 7658   1.017   4.534   2.192 -0.0002 -0.6527 -0.2018
 1915SOL     hw 7659   0.888   4.466   2.152  0.0677 -0.8887 -0.0177
 1915SOL     vw 7660   0.962   4.506   2.130 -0.1188 -0.5963 -0.1225
 1916SOL     ow 7661   4.558   5.372   6.860  0.2569  0.8433  0.5646
 1916SOL     hw 7662   4.601   5.289   6.877 -0.3713  0.4601  0.3362
 1916SOL     hw 7663   4.588   5.398   6.773  0.6165  0.9640  0.7226
 1916SOL     vw 7664   4.567   5.365   6.851  0.2215  0.8087  0.5553
 1917SOL     ow 7665   5.647   5.530   6.763 -0.7003 -1.0766  0.1056
 1917SOL     hw 7666   5.552   5.530   6.769 -0.9518 -4.0629 -1.9178
 1917SOL     hw 7667   5.667   5.467   6.694  2.7389  0.1158 -0.1758
 1917SOL     vw 7668   5.637   5.522   6.755 -0.2797 -1.3132 -0.1986
 1918SOL     ow 7669   6.788   3.820   6.218 -0.9825 -0.0333 -0.2484
 1918SOL     hw 7670   6.704   3.775   6.215 -2.2592  1.9625  1.8207
 1918SOL     hw 7671   6.767   3.909   6.246  1.7291  0.8860 -0.7528
 1918SOL     vw 7672   6.775   3.826   6.222 -0.7932  0.3514 -0.0420
 1919SOL     ow 7673   7.545   1.057   3.385  0.1990 -0.6531 -0.0565
 1919SOL     hw 7674   7.533   1.149   3.360  1.1370 -0.8647 -1.3713
 1919SOL     hw 7675   7.637   1.052   3.412 -0.0614 -1.0516  0.7933
 1919SOL     vw 7676   7.556   1.069   3.386  0.2885 -0.7336 -0.1178
 1920SOL     ow 7677   2.987   6.244   7.590  1.1386  0.1809 -0.7448
 1920SOL     hw 7678   3.076   6.240   7.626  0.6735  2.0729  0.7602
 1920SOL     hw 7679   2.991   6.312   7.524  0.4707  1.4604  0.4894
 1920SOL     vw 7680   3.000   6.252   7.586  0.9891  0.5991 -0.3834
 1921SOL     ow 7681   6.476   0.958   6.780 -0.0134  0.8767  0.4322
 1921SOL     hw 7682   6.406   0.975   6.842 -0.5936  0.3009 -0.0474
 1921SOL     hw 7683   6.441   0.890   6.722  1.9433 -1.5383  1.8862
 1921SOL     vw 7684   6.462   0.951   6.780  0.1681  0.4821  0.5608
 1922SOL     ow 7685   3.593   6.968   5.863  0.4783 -0.2479 -0.1824
 1922SOL     hw 7686   3.505   7.005   5.865 -0.3783 -2.1933  0.9261
 1922SOL     hw 7687   3.607   6.942   5.772  0.0108  0.3082 -0.4139
 1922SOL     vw 7688   3.583   6.969   5.851  0.3036 -0.4311 -0.0665
 1923SOL     ow 7689   4.435   4.403   4.203 -0.5198  0.4023  0.0741
 1923SOL     hw 7690   4.470   4.333   4.148 -0.0916  2.2861 -2.2682
 1923SOL     hw 7691   4.513   4.442   4.244 -0.0305  2.5630 -2.6119
 1923SOL     vw 7692   4.450   4.399   4.201 -0.3986  0.9360 -0.5894
 1924SOL     ow 7693   0.727   0.654   7.011  0.5628  0.6788  0.8318
 1924SOL     hw 7694   0.808   0.630   7.056  1.7239  0.6906 -1.1534
 1924SOL     hw 7695   0.736   0.747   6.993 -0.7519  1.1182  2.1662
 1924SOL     vw 7696   0.739   0.663   7.015  0.5425  0.7384  0.7458
 1925SOL     ow 7697   0.729   2.987   0.029 -0.6013  0.1742  0.5586
 1925SOL     hw 7698   0.703   3.062  -0.026 -0.2178 -0.5737 -0.6714
 1925SOL     hw 7699   0.748   2.917  -0.034 -1.1758 -1.0353  1.7028
 1925SOL     vw 7700   0.728   2.988   0.013 -0.6265 -0.0840  0.5472
 1926SOL     ow 7701   0.341   3.400   5.174  0.0235 -0.1382  0.0541
 1926SOL     hw 7702   0.257   3.354   5.183  1.0278 -1.9173  0.9105
 1926SOL     hw 7703   0.317   3.491   5.157 -2.1101 -1.0461 -2.6769
 1926SOL     vw 7704   0.327   3.406   5.173 -0.1255 -0.4927 -0.1934
 1927SOL     ow 7705   6.683   0.501   3.263 -0.4280 -0.7200  0.5295
 1927SOL     hw 7706   6.630   0.451   3.325 -2.3208  0.3761 -0.1343
 1927SOL     hw 7707   6.621   0.559   3.219  0.8273 -1.5407 -2.5119
 1927SOL     vw 7708   6.668   0.502   3.266 -0.5119 -0.6836  0.0407
 1928SOL     ow 7709   7.521   2.858   6.690 -0.3647 -0.2164 -0.2427
 1928SOL     hw 7710   7.580   2.783   6.691 -0.1259 -0.0244  0.6513
 1928SOL     hw 7711   7.565   2.925   6.743 -0.3839  0.7162 -1.3533
 1928SOL     vw 7712   7.534   2.857   6.697 -0.3357 -0.0681 -0.2708
 1929SOL     ow 7713   1.574   3.297   6.422 -0.3860 -0.4822 -0.2588
 1929SOL     hw 7714   1.514   3.250   6.479  0.8943 -0.8589  0.8443
 1929SOL     hw 7715   1.585   3.241   6.346  0.5515 -1.6795  0.7112
 1929SOL     vw 7716   1.568   3.283   6.420 -0.0933 -0.6899  0.0145
 1930SOL     ow 7717   3.270   1.871   2.530 -0.0779 -0.6948 -0.0982
 1930SOL     hw 7718   3.269   1.888   2.436 -2.5790 -1.5824 -0.3061
 1930SOL     hw 7719   3.271   1.776   2.538  0.6679 -0.6288  0.7949
 1930SOL     vw 7720   3.270   1.861   2.519 -0.3093 -0.8032 -0.0079
 1931SOL     ow 7721   7.621   5.915   5.228 -0.1286 -0.2732  0.1722
 1931SOL     hw 7722   7.534   5.876   5.231  0.3898 -1.4074  3.0357
 1931SOL     hw 7723   7.610   5.994   5.173 -3.1336  0.0867  1.1178
 1931SOL     vw 7724   7.608   5.921   5.221 -0.4568 -0.3753  0.6747
 1932SOL     ow 7725   0.521   3.057   6.486 -0.2736  0.0240  1.0681
 1932SOL     hw 7726   0.470   2.985   6.523  0.9224 -0.4835  1.7471
 1932SOL     hw 7727   0.606   3.019   6.466 -0.4464  0.5987 -1.0340
 1932SOL     vw 7728   0.525   3.042   6.488 -0.1386  0.0329  0.8802
 1933SOL     ow 7729   0.688   3.243   3.077  0.0089  0.6166  0.2507
 1933SOL     hw 7730   0.677   3.152   3.103 -1.1170  0.5040 -0.5777
 1933SOL     hw 7731   0.777   3.247   3.042 -0.4298 -0.5249 -1.0883
 1933SOL     vw 7732   0.698   3.232   3.076 -0.1975  0.4512 -0.0352
 1934SOL     ow 7733   3.265   4.268   1.697 -0.2843 -0.0012  0.4906
 1934SOL     hw 7734   3.316   4.192   1.725  1.3749  1.6113  2.0967
 1934SOL     hw 7735   3.236   4.245   1.608 -2.3355 -3.6482  1.8616
 1934SOL     vw 7736   3.268   4.255   1.689 -0.3359 -0.2694  0.8833
 1935SOL     ow 7737   1.768   0.398   5.294 -0.1485 -0.1075 -0.3023
 1935SOL     hw 7738   1.679   0.366   5.281  0.4404 -1.2319 -1.9439
 1935SOL     hw 7739   1.759   0.493   5.298 -1.3497 -0.1597 -1.1647
 1935SOL     vw 7740   1.755   0.406   5.293 -0.2292 -0.2627 -0.6323
 1936SOL     ow 7741   7.112   2.945   1.656 -0.0085 -0.5077 -0.0965
 1936SOL     hw 7742   7.206   2.947   1.642 -0.0078 -1.6020 -0.2682
 1936SOL     hw 7743   7.101   2.899   1.739 -0.3185  1.0024  0.7328
 1936SOL     vw 7744   7.123   2.940   1.665 -0.0494 -0.4528 -0.0097
 1937SOL     ow 7745   6.798   5.211   5.074  0.0933  0.4206 -0.5935
 1937SOL     hw 7746   6.851   5.279   5.116  1.2110  0.3872 -1.8864
 1937SOL     hw 7747   6.765   5.158   5.147 -0.3801  2.0193  0.4006
 1937SOL     vw 7748   6.800   5.213   5.089  0.1786  0.6273 -0.6330
 1938SOL     ow 7749   2.412   4.473   4.936  0.0542  0.4356 -0.6079
 1938SOL     hw 7750   2.356   4.548   4.958 -0.9241 -0.4107 -0.0832
 1938SOL     hw 7751   2.369   4.398   4.979  0.6911 -0.5167 -1.5863
 1938SOL     vw 7752   2.399   4.473   4.945  0.0092  0.1984 -0.6678
 1939SOL     ow 7753   5.730   4.060   0.304 -0.7760 -0.3114  0.5143
 1939SOL     hw 7754   5.810   4.094   0.265  0.2977 -0.2699  2.5957
 1939SOL     hw 7755   5.729   3.967   0.281 -0.3124 -0.2324  0.1647
 1939SOL     vw 7756   5.741   4.052   0.296 -0.5732 -0.2956  0.7428
 1940SOL     ow 7757   1.204   7.604   5.556 -1.0353  0.0325  0.2071
 1940SOL     hw 7758   1.238   7.677   5.505  0.4275 -1.2506 -0.7291
 1940SOL     hw 7759   1.212   7.528   5.499 -1.3359 -1.0914  1.5946
 1940SOL     vw 7760   1.209   7.603   5.542 -0.8820 -0.2849  0.2668
 1941SOL     ow 7761   4.430   7.313   1.278  0.8651 -0.1691  0.2483
 1941SOL     hw 7762   4.511   7.269   1.303 -0.2202 -1.6806  1.3236
 1941SOL     hw 7763   4.375   7.243   1.242 -0.4545  0.5353  0.8144
 1941SOL     vw 7764   4.433   7.298   1.276  0.5479 -0.2754  0.4649
 1942SOL     ow 7765   4.998   5.059   4.119  0.0281  0.6468 -0.2644
 1942SOL     hw 7766   5.092   5.048   4.130  0.6910  1.3189 -4.0165
 1942SOL     hw 7767   4.971   4.983   4.067 -1.7451  0.0513  1.3878
 1942SOL     vw 7768   5.007   5.047   4.114 -0.1187  0.6568 -0.5417
 1943SOL     ow 7769   4.664   1.954   5.737 -0.0752 -0.0980 -0.1548
 1943SOL     hw 7770   4.679   1.922   5.826 -0.1032  0.0522 -0.0965
 1943SOL     hw 7771   4.569   1.966   5.731  0.1831  3.6391  1.1042
 1943SOL     vw 7772   4.654   1.951   5.748 -0.0448  0.4148  0.0191
 1944SOL     ow 7773   1.193   1.346   4.644 -0.1992  0.2440 -0.6128
 1944SOL     hw 7774   1.142   1.376   4.569 -0.1861  0.6466 -0.4640
 1944SOL     hw 7775   1.275   1.313   4.607 -0.6462 -0.5977 -0.8720
 1944SOL     vw 7776   1.197   1.345   4.629 -0.2565  0.1861 -0.6273
 1945SOL     ow 7777   2.467   4.292   2.628  0.4046 -0.4896 -0.0739
 1945SOL     hw 7778   2.425   4.216   2.669  1.7452 -2.5151 -2.2591
 1945SOL     hw 7779   2.446   4.365   2.687 -2.1811 -2.2318  1.3473
 1945SOL     vw 7780   2.459   4.292   2.642  0.2404 -0.9868 -0.1748
 1946SOL     ow 7781   5.476   6.190   3.066 -0.2030 -0.5699 -0.0021
 1946SOL     hw 7782   5.437   6.191   2.979 -1.3588  1.4744  0.4578
 1946SOL     hw 7783   5.406   6.219   3.124  1.0741  0.0146  1.3308
 1946SOL     vw 7784   5.462   6.194   3.062 -0.1872 -0.2232  0.2345
 1947SOL     ow 7785   2.313   7.279   5.029  0.2316  0.0647 -0.1277
 1947SOL     hw 7786   2.264   7.204   4.997 -4.2454  1.7777  1.8680
 1947SOL     hw 7787   2.314   7.269   5.124  0.6549  1.8379  0.1033
 1947SOL     vw 7788   2.307   7.268   5.037 -0.3033  0.5248  0.1662
 1948SOL     ow 7789   2.434   5.374   1.863 -0.9083 -0.4751  0.0434
 1948SOL     hw 7790   2.519   5.374   1.909 -0.7193  2.2098 -0.1841
 1948SOL     hw 7791   2.378   5.319   1.918  0.0568  0.4766  2.0786
 1948SOL     vw 7792   2.438   5.367   1.877 -0.7559  0.0050  0.2819
 1949SOL     ow 7793   7.423   0.142   0.890  0.0427 -0.3387  0.1394
 1949SOL     hw 7794   7.375   0.224   0.889 -2.2076 -1.5628 -1.2588
 1949SOL     hw 7795   7.514   0.167   0.903 -0.6532  2.3030  0.3855
 1949SOL     vw 7796   7.429   0.156   0.891 -0.3457 -0.1517 -0.0126
 1950SOL     ow 7797   5.807   2.449   5.429 -0.3288  0.1354 -0.7617
 1950SOL     hw 7798   5.826   2.357   5.451  3.5783  0.2642 -2.7804
 1950SOL     hw 7799   5.838   2.459   5.339 -0.4600  3.5108 -0.5549
 1950SOL     vw 7800   5.814   2.438   5.420  0.1695  0.5977 -1.0006
 1951SOL     ow 7801   4.844   5.557   7.619  0.0293 -0.1389  0.7230
 1951SOL     hw 7802   4.767   5.569   7.673  0.6804  1.5440  1.3242
 1951SOL     hw 7803   4.859   5.641   7.577  0.8837 -0.7556 -0.2874
 1951SOL     vw 7804   4.836   5.569   7.620  0.2277  0.0019  0.6690
 1952SOL     ow 7805   5.407   2.994   3.053 -0.6795  0.0315 -1.4284
 1952SOL     hw 7806   5.429   2.902   3.067 -0.8277  0.3876  1.9826
 1952SOL     hw 7807   5.465   3.043   3.112 -3.3124  1.7398 -0.0112
 1952SOL     vw 7808   5.417   2.989   3.063 -1.0464  0.3039 -0.7915
 1953SOL     ow 7809   2.197   4.900   5.768 -0.1913  0.6820  0.3213
 1953SOL     hw 7810   2.155   4.832   5.820  2.1154 -0.7528  0.4039
 1953SOL     hw 7811   2.230   4.855   5.691  1.1141  1.7352  0.2276
 1953SOL     vw 7812   2.195   4.885   5.765  0.2854  0.6318  0.3200
 1954SOL     ow 7813   1.878   3.402   3.141  0.2805  0.8325 -0.0181
 1954SOL     hw 7814   1.861   3.325   3.195  1.8005  0.3937 -0.1235
 1954SOL     hw 7815   1.866   3.370   3.051 -1.4324  1.3565 -0.0256
 1954SOL     vw 7816   1.874   3.388   3.136  0.2550  0.8436 -0.0329
 1955SOL     ow 7817   1.300   2.962   1.234  0.1471  0.8057 -0.0483
 1955SOL     hw 7818   1.302   2.879   1.187  1.1496  0.2683  0.9031
 1955SOL     hw 7819   1.392   2.990   1.237  0.1732  0.6231  1.9223
 1955SOL     vw 7820   1.312   2.955   1.228  0.2828  0.7107  0.3372
 1956SOL     ow 7821   3.206   4.637   1.247 -0.6455  0.2359 -0.6602
 1956SOL     hw 7822   3.279   4.668   1.194  0.3870  1.0024  1.1202
 1956SOL     hw 7823   3.199   4.544   1.226 -0.4723  0.5574 -2.3104
 1956SOL     vw 7824   3.215   4.629   1.237 -0.4865  0.3796 -0.6431
 1957SOL     ow 7825   5.527   5.170   6.266 -0.0024 -0.7340 -0.4375
 1957SOL     hw 7826   5.470   5.212   6.330 -0.2864 -0.4794 -0.8531
 1957SOL     hw 7827   5.529   5.078   6.292 -0.1448 -0.6382 -0.0883
 1957SOL     vw 7828   5.520   5.163   6.278 -0.0587 -0.6876 -0.4463
 1958SOL     ow 7829   5.057   3.936   6.118  0.2873  0.6714  0.0779
 1958SOL     hw 7830   5.062   4.018   6.167  0.9110  0.2913  0.6609
 1958SOL     hw 7831   5.146   3.918   6.090  0.2296 -0.0377  0.3338
 1958SOL     vw 7832   5.069   3.945   6.121  0.3619  0.5277  0.1888
 1959SOL     ow 7833   5.342   5.236   6.439 -0.0980 -0.1151 -0.7330
 1959SOL     hw 7834   5.355   5.331   6.439 -0.8262 -0.0065 -0.4641
 1959SOL     hw 7835   5.366   5.209   6.528 -1.8321  0.1226 -0.1530
 1959SOL     vw 7836   5.347   5.245   6.451 -0.4230 -0.0694 -0.6211
 1960SOL     ow 7837   6.722   7.234   4.499  0.1242  0.6445  0.8123
 1960SOL     hw 7838   6.756   7.264   4.414 -1.3758  2.0076  0.6584
 1960SOL     hw 7839   6.707   7.141   4.486  3.2459  0.0280  0.7394
 1960SOL     vw 7840   6.725   7.226   4.486  0.3383  0.7432  0.7823
 1961SOL     ow 7841   5.608   6.358   0.764  0.4685 -0.7775  0.8168
 1961SOL     hw 7842   5.538   6.384   0.824 -0.0920 -1.8869  0.6664
 1961SOL     hw 7843   5.604   6.262   0.763  0.9158 -0.7975 -0.4542
 1961SOL     vw 7844   5.598   6.349   0.771  0.4537 -0.9265  0.6292
 1962SOL     ow 7845   4.187   0.244   5.437  0.2122  0.6689  0.1865
 1962SOL     hw 7846   4.132   0.222   5.512  0.6743 -0.8942  0.0902
 1962SOL     hw 7847   4.218   0.333   5.456 -2.6426  1.8029  0.0198
 1962SOL     vw 7848   4.184   0.253   5.449 -0.1032  0.6123  0.1519
 1963SOL     ow 7849   5.816   5.568   5.835  0.0069 -0.7111  0.0099
 1963SOL     hw 7850   5.903   5.603   5.817 -0.3409 -0.1286 -0.6222
 1963SOL     hw 7851   5.827   5.512   5.912  1.7013 -3.7109 -2.2099
 1963SOL     vw 7852   5.829   5.565   5.843  0.1843 -1.0300 -0.3667
 1964SOL     ow 7853   3.219   5.840   5.111  0.1923  0.5994 -0.1465
 1964SOL     hw 7854   3.241   5.886   5.192  0.4341  0.6404 -0.2316
 1964SOL     hw 7855   3.237   5.904   5.042 -0.7736  0.8347 -0.1896
 1964SOL     vw 7856   3.224   5.855   5.112  0.0968  0.6359 -0.1633
 1965SOL     ow 7857   5.647   6.713   4.838  0.1264  0.2154 -0.0685
 1965SOL     hw 7858   5.689   6.629   4.858 -0.7284 -0.0032  0.9485
 1965SOL     hw 7859   5.554   6.696   4.854 -0.9639 -0.2677 -5.1775
 1965SOL     vw 7860   5.640   6.700   4.842 -0.1302  0.1230 -0.6082
 1966SOL     ow 7861   0.100   6.727   0.907  0.3886  0.0232 -0.5941
 1966SOL     hw 7862   0.189   6.732   0.874  0.2843  1.0209 -0.7349
 1966SOL     hw 7863   0.109   6.717   1.001  0.6722  3.1883 -0.1853
 1966SOL     vw 7864   0.113   6.726   0.915  0.4122  0.5727 -0.5587
 1967SOL     ow 7865   3.321   0.779   7.135 -0.3747 -0.4550 -0.4874
 1967SOL     hw 7866   3.231   0.806   7.156 -1.1734 -1.1778 -2.6941
 1967SOL     hw 7867   3.328   0.690   7.170 -1.7577 -1.7272 -3.1013
 1967SOL     vw 7868   3.310   0.771   7.142 -0.6626 -0.7182 -1.1234
 1968SOL     ow 7869   2.472   5.552   2.637  0.1542  0.6306 -0.3959
 1968SOL     hw 7870   2.517   5.528   2.557  0.7192  0.8505 -0.1494
 1968SOL     hw 7871   2.426   5.633   2.615  0.6884  0.9477 -0.3701
 1968SOL     vw 7872   2.472   5.559   2.624  0.2991  0.7017 -0.3599
 1969SOL     ow 7873   2.508   2.203   6.170  0.0967 -0.1973 -0.2667
 1969SOL     hw 7874   2.591   2.156   6.157  0.1517 -0.0329 -0.5107
 1969SOL     hw 7875   2.498   2.257   6.092  0.3425  0.6800  0.2966
 1969SOL     vw 7876   2.517   2.204   6.158  0.1364 -0.0600 -0.2246
 1970SOL     ow 7877   7.431   1.777   2.854 -0.1256  0.3870 -0.8827
 1970SOL     hw 7878   7.356   1.739   2.808 -0.1216  0.7621 -1.2110
 1970SOL     hw 7879   7.413   1.872   2.853  0.7775  0.5642 -1.7308
 1970SOL     vw 7880   7.418   1.785   2.848 -0.0060  0.4598 -1.0378
 1971SOL     ow 7881   1.705   4.134   3.976  0.4483 -0.1455  0.6154
 1971SOL     hw 7882   1.665   4.221   3.977  1.9851  0.5849  1.9340
 1971SOL     hw 7883   1.652   4.083   4.036  0.7748  0.4788  1.4474
 1971SOL     vw 7884   1.692   4.139   3.984  0.6942  0.0331  0.8992
 1972SOL     ow 7885   0.669   7.252   4.413 -0.2308 -0.2673  0.1469
 1972SOL     hw 7886   0.615   7.246   4.492 -0.3666 -0.4220  0.0428
 1972SOL     hw 7887   0.699   7.343   4.412 -1.6760  0.2442 -0.5577
 1972SOL     vw 7888   0.666   7.263   4.424 -0.4393 -0.2203  0.0403
 1973SOL     ow 7889   6.642   0.716   6.328 -0.2068 -0.6708  0.0857
 1973SOL     hw 7890   6.672   0.629   6.304 -1.5014 -1.8756  2.4659
 1973SOL     hw 7891   6.548   0.716   6.308 -1.0634 -1.2788  3.4908
 1973SOL     vw 7892   6.634   0.705   6.322 -0.4907 -0.9100  0.8488
 1974SOL     ow 7893   2.588   1.041   5.926  0.5665  0.4285 -0.1757
 1974SOL     hw 7894   2.658   1.105   5.919 -0.0905  1.4987  2.1165
 1974SOL     hw 7895   2.518   1.075   5.870  1.2908  0.1358 -1.2830
 1974SOL     vw 7896   2.588   1.054   5.918  0.5754  0.5311 -0.0196
 1975SOL     ow 7897   2.603   4.260   2.240 -0.2145  1.1292 -0.3392
 1975SOL     hw 7898   2.607   4.329   2.307 -0.7601 -0.3463  1.2960
 1975SOL     hw 7899   2.526   4.208   2.264  1.8123 -1.8183  0.3246
 1975SOL     vw 7900   2.593   4.262   2.252 -0.0191  0.5455 -0.0358
 1976SOL     ow 7901   1.648   3.010   7.014  0.2504  0.2280 -0.3258
 1976SOL     hw 7902   1.733   3.037   6.978  0.0666 -0.1364 -1.0519
 1976SOL     hw 7903   1.663   3.004   7.108  0.8470  0.8328 -0.3692
 1976SOL     vw 7904   1.662   3.013   7.021  0.3048  0.2596 -0.4272
 1977SOL     ow 7905   2.160   0.652   6.123 -0.1839 -0.0714 -0.4141
 1977SOL     hw 7906   2.167   0.558   6.137 -0.9207 -0.1367 -0.4323
 1977SOL     hw 7907   2.066   0.669   6.123 -0.0768  0.5619 -1.1032
 1977SOL     vw 7908   2.149   0.642   6.125 -0.2670  0.0035 -0.5076
 1978SOL     ow 7909   6.573   7.057   1.806  0.3618  0.2745 -0.1335
 1978SOL     hw 7910   6.524   7.081   1.885 -0.5041  1.3167 -0.9529
 1978SOL     hw 7911   6.543   7.118   1.739  0.5609 -1.0018 -1.4619
 1978SOL     vw 7912   6.562   7.068   1.807  0.2737  0.2437 -0.4168
 1979SOL     ow 7913   3.342   5.025   1.427 -0.0667  0.0506 -0.0665
 1979SOL     hw 7914   3.332   4.931   1.444  0.0105 -0.2082 -1.3520
 1979SOL     hw 7915   3.348   5.031   1.332  0.3145  1.3278  0.0276
 1979SOL     vw 7916   3.342   5.013   1.417 -0.0061  0.1850 -0.2238
 1980SOL     ow 7917   2.954   0.736   4.681  0.1067  0.6248 -0.0478
 1980SOL     hw 7918   2.889   0.693   4.625 -0.6149  0.7013  0.6969
 1980SOL     hw 7919   2.919   0.824   4.695  0.4612  0.7250  0.2231
 1980SOL     vw 7920   2.940   0.742   4.676  0.0583  0.6481  0.0861
 1981SOL     ow 7921   2.170   4.370   0.415  0.0549  0.3344  0.2681
 1981SOL     hw 7922   2.189   4.453   0.371  1.0358 -1.0939 -2.2349
 1981SOL     hw 7923   2.251   4.348   0.460 -0.0943  0.5675  0.6532
 1981SOL     vw 7924   2.184   4.378   0.415  0.1647  0.1767 -0.0113
 1982SOL     ow 7925   5.367   4.586   4.637 -0.2207  0.4019  0.2974
 1982SOL     hw 7926   5.316   4.634   4.703 -0.2744  1.1346 -0.2522
 1982SOL     hw 7927   5.303   4.528   4.596 -1.0363  2.3371 -1.3734
 1982SOL     vw 7928   5.352   4.585   4.640 -0.3352  0.7539  0.0041
 1983SOL     ow 7929   6.042   5.949   4.505  0.0665 -0.0984  0.4765
 1983SOL     hw 7930   6.094   6.026   4.528 -0.3247  0.3359 -0.0493
 1983SOL     hw 7931   6.035   5.899   4.586  0.9495  0.0406  0.6477
 1983SOL     vw 7932   6.048   5.952   4.519  0.1314 -0.0229  0.4299
 1984SOL     ow 7933   5.193   6.548   5.995  0.2804 -0.3436 -0.6319
 1984SOL     hw 7934   5.194   6.525   5.902  1.5053 -2.5739 -0.1316
 1984SOL     hw 7935   5.155   6.636   5.997 -0.3944 -0.4910 -3.1617
 1984SOL     vw 7936   5.188   6.557   5.983  0.3529 -0.6573 -0.8996
 1985SOL     ow 7937   2.413   4.427   4.052 -0.3290 -0.1715  0.3256
 1985SOL     hw 7938   2.414   4.337   4.085  2.6380 -0.2858  0.1133
 1985SOL     hw 7939   2.500   4.461   4.070 -1.1695  2.4693 -0.2118
 1985SOL     vw 7940   2.424   4.419   4.059 -0.0484  0.1616  0.2270
 1986SOL     ow 7941   3.947   5.742   0.119 -0.3862 -0.6888 -0.3528
 1986SOL     hw 7942   3.952   5.834   0.147  0.0551 -0.9006  0.2622
 1986SOL     hw 7943   3.854   5.728   0.101 -0.6216 -0.4305  0.6191
 1986SOL     vw 7944   3.935   5.753   0.120 -0.3589 -0.6828 -0.1434
 1987SOL     ow 7945   1.161   5.320   5.036 -0.4454 -0.7624  0.0409
 1987SOL     hw 7946   1.233   5.257   5.031  1.6390  1.1606  2.9202
 1987SOL     hw 7947   1.112   5.296   5.114 -0.9690 -0.1133 -0.0726
 1987SOL     vw 7948   1.164   5.309   5.046 -0.2394 -0.4232  0.4058
 1988SOL     ow 7949   1.517   5.478   0.381 -0.1874 -0.6438  0.0917
 1988SOL     hw 7950   1.541   5.509   0.294  0.3507  0.6635  0.6872
 1988SOL     hw 7951   1.599   5.472   0.429 -0.6659  0.6158  1.1204
 1988SOL     vw 7952   1.531   5.481   0.376 -0.1795 -0.3052  0.3060
 1989SOL     ow 7953   1.617   2.786   3.836  1.0718  0.9362  1.4398
 1989SOL     hw 7954   1.642   2.875   3.859  0.2439  1.3492  0.7445
 1989SOL     hw 7955   1.646   2.775   3.746  4.8329 -0.8789  2.6551
 1989SOL     vw 7956   1.625   2.796   3.827  1.4588  0.7513  1.5084
 1990SOL     ow 7957   5.883   5.833   5.589 -0.5160 -0.4425 -0.5979
 1990SOL     hw 7958   5.947   5.904   5.587  0.6170 -1.4447 -1.4994
 1990SOL     hw 7959   5.927   5.763   5.637 -0.4564 -1.5592 -2.2178
 1990SOL     vw 7960   5.898   5.833   5.595 -0.3588 -0.7222 -0.9308
 1991SOL     ow 7961   0.730   5.593   4.823 -0.3433  0.5322 -0.1319
 1991SOL     hw 7962   0.764   5.620   4.738  1.0602 -0.0448  0.2209
 1991SOL     hw 7963   0.678   5.515   4.804  0.2580  0.1937 -0.4349
 1991SOL     vw 7964   0.728   5.586   4.809 -0.0788  0.4115 -0.1254
 1992SOL     ow 7965   2.164   7.121   7.264 -0.2205  0.3333  0.3459
 1992SOL     hw 7966   2.115   7.077   7.194  0.5999 -0.2436  0.1183
 1992SOL     hw 7967   2.240   7.065   7.279 -0.3178  0.5115  1.6289
 1992SOL     vw 7968   2.168   7.108   7.257 -0.1252  0.2809  0.4852
 1993SOL     ow 7969   5.253   3.926   0.570 -0.3375  0.0329  0.1087
 1993SOL     hw 7970   5.332   3.871   0.566  0.1104 -0.0816  4.5273
 1993SOL     hw 7971   5.287   4.015   0.569 -0.2225  0.0038  0.6142
 1993SOL     vw 7972   5.268   3.930   0.570 -0.2637  0.0139  0.7583
 1994SOL     ow 7973   1.635   1.501   5.889  0.1405 -0.1308  0.0313
 1994SOL     hw 7974   1.602   1.591   5.887  0.4748 -0.0060  0.1528
 1994SOL     hw 7975   1.572   1.453   5.943 -0.7120 -0.2445 -1.0144
 1994SOL     vw 7976   1.622   1.506   5.896  0.0721 -0.1293 -0.0906
 1995SOL     ow 7977   6.262   4.676   4.085 -0.1511  0.5990 -0.2657
 1995SOL     hw 7978   6.181   4.720   4.110 -0.5873  0.1671 -0.8660
 1995SOL     hw 7979   6.233   4.591   4.050  0.6812 -0.3524  1.2234
 1995SOL     vw 7980   6.247   4.670   4.083 -0.0992  0.4168 -0.1483
 1996SOL     ow 7981   0.881   4.490   5.241  0.4150 -0.5791 -0.3249
 1996SOL     hw 7982   0.912   4.453   5.158 -1.7766  0.9965 -1.9599
 1996SOL     hw 7983   0.946   4.555   5.264  1.5913 -1.7532 -0.1914
 1996SOL     vw 7984   0.893   4.493   5.233  0.2811 -0.5262 -0.5231
 1997SOL     ow 7985   0.604   0.328   0.777  0.7421 -0.2190  0.0786
 1997SOL     hw 7986   0.523   0.349   0.824  0.4476  4.1037 -1.8636
 1997SOL     hw 7987   0.674   0.346   0.839  0.3084 -0.6302  0.6996
 1997SOL     vw 7988   0.602   0.333   0.791  0.6460  0.2971 -0.0957
 1998SOL     ow 7989   7.510   0.987   0.578  0.3915 -0.0845 -0.1720
 1998SOL     hw 7990   7.563   0.954   0.651 -0.1344  1.0950  0.7858
 1998SOL     hw 7991   7.420   0.964   0.602  0.0964  1.3032  0.1531
 1998SOL     vw 7992   7.505   0.979   0.591  0.2835  0.2542 -0.0028
 1999SOL     ow 7993   3.690   0.025   6.990  1.0950 -0.1932  0.2727
 1999SOL     hw 7994   3.626  -0.001   6.924 -0.4613  2.3074  0.6385
 1999SOL     hw 7995   3.700  -0.052   7.046 -1.4577 -0.7796  0.0440
 1999SOL     vw 7996   3.683   0.011   6.989  0.5529  0.0594  0.2909
 2000SOL     ow 7997   4.543   5.247   7.629 -0.2428 -0.0608 -0.2997
 2000SOL     hw 7998   4.627   5.241   7.585 -0.0167 -0.6811  0.2065
 2000SOL     hw 7999   4.478   5.237   7.559  0.1087 -1.0581 -0.4966
 2000SOL     vw 8000   4.545   5.245   7.614 -0.1664 -0.2739 -0.2589
 2001SOL     ow 8001   3.669   3.461   1.669 -0.7064 -0.2296  0.7899
 2001SOL     hw 8002   3.705   3.528   1.728  2.4712 -0.2595 -0.8997
 2001SOL     hw 8003   3.686   3.496   1.581 -3.6841 -0.9963 -0.2090
 2001SOL     vw 8004   3.676   3.475   1.665 -0.6801 -0.3346  0.4353
 2002SOL     ow 8005   4.753   6.358   6.270  0.2273  0.1980 -0.0855
 2002SOL     hw 8006   4.766   6.388   6.360  0.1090 -1.2944  0.4643
 2002SOL     hw 8007   4.660   6.372   6.253  0.5950  2.1969 -0.6685
 2002SOL     vw 8008   4.743   6.364   6.280  0.2604  0.2649 -0.0899
 2003SOL     ow 8009   2.832   0.314   2.964 -0.2366  0.1216  0.2365
 2003SOL     hw 8010   2.851   0.311   3.058 -0.1441  1.4073  0.2744
 2003SOL     hw 8011   2.902   0.368   2.927 -0.5432  0.0290 -0.4977
 2003SOL     vw 8012   2.844   0.321   2.971 -0.2649  0.2790  0.1447
 2004SOL     ow 8013   6.135   0.650   2.209  0.0132  0.0823  0.0484
 2004SOL     hw 8014   6.100   0.722   2.262  0.8805  0.7973 -0.3173
 2004SOL     hw 8015   6.221   0.681   2.181 -0.4292 -0.2781 -1.8108
 2004SOL     vw 8016   6.142   0.663   2.213  0.0691  0.1290 -0.2453
 2005SOL     ow 8017   1.708   2.739   4.142 -0.6025  0.3771 -0.4054
 2005SOL     hw 8018   1.660   2.773   4.217 -0.2813  3.1151 -1.3574
 2005SOL     hw 8019   1.798   2.770   4.155 -0.4414  0.4832 -1.6739
 2005SOL     vw 8020   1.713   2.747   4.154 -0.5389  0.7523 -0.6986
 2006SOL     ow 8021   4.445   3.541   0.050 -0.7918 -0.1577  0.5793
 2006SOL     hw 8022   4.411   3.456   0.023  0.2769 -1.3509  2.7306
 2006SOL     hw 8023   4.368   3.597   0.056 -1.3110 -0.3110 -2.7828
 2006SOL     vw 8024   4.430   3.537   0.047 -0.7193 -0.3353  0.4199
 2007SOL     ow 8025   2.045   7.024   7.516  0.2764  0.0243  0.2051
 2007SOL     hw 8026   2.066   6.947   7.464  0.8866  0.5123 -0.2923
 2007SOL     hw 8027   2.068   7.000   7.606  0.7234 -0.2774  0.0143
 2007SOL     vw 8028   2.051   7.011   7.521  0.4158  0.0489  0.1142
 2008SOL     ow 8029   0.264   5.683   5.131  0.2044 -0.1874 -0.5945
 2008SOL     hw 8030   0.247   5.660   5.040  0.3518  0.1942 -0.7237
 2008SOL     hw 8031   0.357   5.663   5.143 -0.2302 -1.9489  0.0090
 2008SOL     vw 8032   0.274   5.677   5.120  0.1665 -0.3691 -0.5322
 2009SOL     ow 8033   6.458   2.171   6.662 -1.1841 -0.0955  0.3254
 2009SOL     hw 8034   6.415   2.215   6.736 -0.1374  0.0008  0.8868
 2009SOL     hw 8035   6.537   2.222   6.646 -0.1864 -1.4701  0.6767
 2009SOL     vw 8036   6.462   2.184   6.670 -0.9143 -0.2642  0.4458
 2010SOL     ow 8037   7.349   3.320   6.400  0.3441 -0.0498 -0.6902
 2010SOL     hw 8038   7.432   3.314   6.352  0.8697  0.9245  0.0598
 2010SOL     hw 8039   7.282   3.319   6.331  0.9649 -0.8377 -1.3069
 2010SOL     vw 8040   7.351   3.319   6.384  0.4952 -0.0252 -0.6728
 2011SOL     ow 8041   4.900   2.289   1.862  0.3618  0.1530 -0.0344
 2011SOL     hw 8042   4.818   2.303   1.814 -0.8776  0.8216  2.1162
 2011SOL     hw 8043   4.880   2.218   1.922  2.3068 -1.6056 -1.3533
 2011SOL     vw 8044   4.887   2.282   1.863  0.4547  0.0092  0.0753
 2012SOL     ow 8045   3.725   3.413   7.146 -0.6578  0.4193 -0.1082
 2012SOL     hw 8046   3.780   3.482   7.184  0.2238 -0.3029 -0.0464
 2012SOL     hw 8047   3.670   3.459   7.082  0.1884  1.1290 -0.3463
 2012SOL     vw 8048   3.725   3.428   7.142 -0.4297  0.4176 -0.1314
 2013SOL     ow 8049   2.123   1.532   4.665  0.7945  0.5418 -0.5568
 2013SOL     hw 8050   2.212   1.563   4.643  0.9109 -0.9759 -2.4741
 2013SOL     hw 8051   2.116   1.546   4.759  2.8379  1.2815 -0.4521
 2013SOL     vw 8052   2.134   1.538   4.674  1.0794  0.4391 -0.7958
 2014SOL     ow 8053   2.210   3.072   4.967 -0.2290 -0.6825  0.4934
 2014SOL     hw 8054   2.241   3.110   5.049  0.2197  1.1991 -0.4918
 2014SOL     hw 8055   2.114   3.074   4.974 -0.1912 -0.5154  0.9806
 2014SOL     vw 8056   2.201   3.078   4.978 -0.1647 -0.4121  0.4277
 2015SOL     ow 8057   7.588   1.163   2.896  0.4548 -0.1959 -0.2300
 2015SOL     hw 8058   7.577   1.113   2.977  1.8583  1.4436  1.0347
 2015SOL     hw 8059   7.679   1.150   2.872  0.8591  1.6994  0.1295
 2015SOL     vw 8060   7.598   1.154   2.904  0.6936  0.2705 -0.0156
 2016SOL     ow 8061   2.552   3.034   4.404  0.1276  0.4128 -0.4027
 2016SOL     hw 8062   2.642   3.066   4.409  0.7154 -1.1744 -0.2486
 2016SOL     hw 8063   2.561   2.940   4.391 -1.5103  0.3507 -1.3878
 2016SOL     vw 8064   2.565   3.026   4.403 -0.0110  0.1953 -0.5124
 2017SOL     ow 8065   1.608   4.168   3.582 -0.8720  0.4304 -0.4084
 2017SOL     hw 8066   1.676   4.187   3.646 -0.5295  2.4412 -1.2977
 2017SOL     hw 8067   1.639   4.090   3.537 -1.0946 -1.0000  1.7682
 2017SOL     vw 8068   1.621   4.160   3.584 -0.8562  0.5069 -0.2384
 2018SOL     ow 8069   1.950   4.626   5.471  0.0893 -0.0414  0.0075
 2018SOL     hw 8070   1.928   4.550   5.524  0.3719  0.0097  0.2009
 2018SOL     hw 8071   2.010   4.677   5.526 -0.2877  0.4426 -0.0266
 2018SOL     vw 8072   1.955   4.622   5.485  0.0768  0.0293  0.0286
 2019SOL     ow 8073   3.773   2.971   2.369 -0.1045  0.1576  0.3813
 2019SOL     hw 8074   3.829   3.045   2.392 -1.1115  1.4128 -0.9955
 2019SOL     hw 8075   3.828   2.894   2.384  2.0891  1.3276 -1.0478
 2019SOL     vw 8076   3.788   2.971   2.374  0.0520  0.4777  0.0110
 2020SOL     ow 8077   4.675   6.908   0.143 -0.0990  0.5991  0.2737
 2020SOL     hw 8078   4.754   6.883   0.095  0.1587 -0.2286  1.0973
 2020SOL     hw 8079   4.607   6.914   0.076  0.2223 -0.6649 -0.1799
 2020SOL     vw 8080   4.677   6.906   0.128 -0.0229  0.3231  0.3225
 2021SOL     ow 8081   4.056   0.813   3.806 -0.1747 -0.4157  0.3785
 2021SOL     hw 8082   4.123   0.780   3.746 -0.0008 -0.1770  0.4411
 2021SOL     hw 8083   4.106   0.850   3.880 -0.3994 -1.8539  1.2894
 2021SOL     vw 8084   4.072   0.814   3.808 -0.1814 -0.5740  0.5069
 2022SOL     ow 8085   7.586   7.566   0.504 -0.3770 -0.0488 -0.1360
 2022SOL     hw 8086   7.528   7.568   0.580  2.0234  0.6256  1.8352
 2022SOL     hw 8087   7.587   7.656   0.471 -1.3440 -0.3206 -0.9474
 2022SOL     vw 8088   7.578   7.578   0.510 -0.1879  0.0043  0.0171
 2023SOL     ow 8089   5.130   0.680   6.791 -0.0402 -0.4961  0.7147
 2023SOL     hw 8090   5.105   0.599   6.836  0.1830  0.0360  1.8257
 2023SOL     hw 8091   5.178   0.650   6.713 -2.4338 -1.4942 -0.4838
 2023SOL     vw 8092   5.133   0.665   6.787 -0.3266 -0.5575  0.7033
 2024SOL     ow 8093   0.006   5.098   6.260 -0.3046 -0.3534  0.8540
 2024SOL     hw 8094   0.042   5.185   6.275 -0.2035 -0.7773  3.4646
 2024SOL     hw 8095  -0.080   5.114   6.220  1.3622  0.7296 -2.6980
 2024SOL     vw 8096  -0.001   5.112   6.256 -0.0710 -0.2666  0.7300
 2025SOL     ow 8097   1.867   4.321   4.308 -0.3931 -0.1501 -0.4478
 2025SOL     hw 8098   1.846   4.343   4.399  0.2434 -0.8836 -0.1139
 2025SOL     hw 8099   1.822   4.238   4.293  0.7211 -0.8005 -0.3095
 2025SOL     vw 8100   1.858   4.313   4.318 -0.1621 -0.3326 -0.3860
 2026SOL     ow 8101   2.204   3.612   1.745 -0.5715 -0.3396 -0.2479
 2026SOL     hw 8102   2.285   3.560   1.749 -0.6401 -0.4155  0.1535
 2026SOL     hw 8103   2.140   3.560   1.793 -0.6864  0.0311  0.0044
 2026SOL     vw 8104   2.206   3.599   1.752 -0.5957 -0.3008 -0.1616
 2027SOL     ow 8105   4.824   3.138   4.974 -1.1089  0.9756  0.4838
 2027SOL     hw 8106   4.883   3.065   4.993  0.2079  1.6602 -0.8089
 2027SOL     hw 8107   4.738   3.098   4.967 -0.1755 -0.8537 -2.1636
 2027SOL     vw 8108   4.821   3.123   4.976 -0.8121  0.8245 -0.0360
 2028SOL     ow 8109   2.688   5.783   6.517 -0.8916  0.1700  0.4992
 2028SOL     hw 8110   2.702   5.745   6.430 -2.4733 -0.6673  0.5777
 2028SOL     hw 8111   2.769   5.830   6.536  0.6753 -2.1374 -0.1322
 2028SOL     vw 8112   2.700   5.784   6.508 -0.8936 -0.2449  0.4258
 2029SOL     ow 8113   0.968   5.796   4.880  0.5404 -0.7087  0.7264
 2029SOL     hw 8114   1.058   5.817   4.855  0.7481 -1.9744  0.3266
 2029SOL     hw 8115   0.972   5.705   4.910 -0.7417 -1.0449 -0.0437
 2029SOL     vw 8116   0.980   5.787   4.881  0.3986 -0.9201  0.5722
 2030SOL     ow 8117   5.708   0.264   1.804 -0.9252  0.2888  0.2451
 2030SOL     hw 8118   5.651   0.309   1.867 -1.2910 -2.0395  1.6829
 2030SOL     hw 8119   5.787   0.318   1.801 -1.6057  1.4137  1.3178
 2030SOL     vw 8120   5.711   0.277   1.812 -1.0636  0.1300  0.5763
 2031SOL     ow 8121   2.423   5.666   1.466 -0.1254 -0.5861 -0.2537
 2031SOL     hw 8122   2.343   5.619   1.443  0.4299 -0.5940 -2.4200
 2031SOL     hw 8123   2.485   5.643   1.396  1.2311  0.7505  0.4453
 2031SOL     vw 8124   2.421   5.657   1.454  0.1268 -0.4108 -0.4473
 2032SOL     ow 8125   7.153   4.617   2.299  0.6592  0.0505 -0.5714
 2032SOL     hw 8126   7.148   4.567   2.380  2.0396  0.2082 -0.3746
 2032SOL     hw 8127   7.140   4.552   2.230 -3.9657  0.3437 -0.2856
 2032SOL     vw 8128   7.151   4.602   2.300  0.2310  0.1099 -0.5077
 2033SOL     ow 8129   1.970   3.991   3.621  0.4232 -0.9234 -1.1789
 2033SOL     hw 8130   2.060   3.990   3.655  0.7443 -1.5692 -2.0024
 2033SOL     hw 8131   1.925   3.923   3.671  0.1449 -0.0366 -0.1791
 2033SOL     vw 8132   1.976   3.982   3.632  0.4289 -0.8914 -1.1557
 2034SOL     ow 8133   1.296   7.312   4.119  0.6079  0.0123 -0.3369
 2034SOL     hw 8134   1.239   7.329   4.044 -2.1655 -0.2105  1.5446
 2034SOL     hw 8135   1.379   7.284   4.081 -0.5170  0.3461 -3.2895
 2034SOL     vw 8136   1.299   7.311   4.104  0.0935  0.0269 -0.4783
 2035SOL     ow 8137   5.039   2.442   6.988 -0.6014 -0.6181  0.6346
 2035SOL     hw 8138   5.046   2.356   6.947 -1.6590 -0.3833 -0.0590
 2035SOL     hw 8139   5.038   2.503   6.915 -1.4869 -0.1283  1.0485
 2035SOL     vw 8140   5.040   2.438   6.973 -0.8576 -0.5225  0.5977
 2036SOL     ow 8141   1.354   6.386   0.796 -0.0182 -0.1015 -0.1091
 2036SOL     hw 8142   1.287   6.453   0.783  0.4716  0.1674 -1.4287
 2036SOL     hw 8143   1.313   6.305   0.767 -0.1515 -0.1351  0.1723
 2036SOL     vw 8144   1.340   6.384   0.791  0.0289 -0.0708 -0.2461
 2037SOL     ow 8145   4.657   6.828   3.384 -0.1842  0.6274  0.0166
 2037SOL     hw 8146   4.650   6.811   3.478  1.2733  2.3440  0.4787
 2037SOL     hw 8147   4.583   6.885   3.365 -2.6231 -2.4896 -0.7035
 2037SOL     vw 8148   4.646   6.833   3.394 -0.3135  0.4427 -0.0174
 2038SOL     ow 8149   4.491   4.635   3.958 -0.2020 -0.8963 -0.1627
 2038SOL     hw 8150   4.438   4.680   4.024  3.1321  1.8005  0.9784
 2038SOL     hw 8151   4.535   4.565   4.006  0.0483 -0.7742 -0.2128
 2038SOL     vw 8152   4.490   4.631   3.973  0.2708 -0.5243 -0.0188
 2039SOL     ow 8153   3.699   4.742   1.378  0.4898  0.5754  0.8902
 2039SOL     hw 8154   3.733   4.690   1.451 -1.8046  2.1651  3.3119
 2039SOL     hw 8155   3.605   4.723   1.376  0.2228  1.8331 -0.5623
 2039SOL     vw 8156   3.691   4.733   1.387  0.1520  0.9513  1.0180
 2040SOL     ow 8157   5.941   6.388   0.763  0.1338 -0.1769 -0.8741
 2040SOL     hw 8158   6.005   6.438   0.813 -1.7859 -0.4234  2.0742
 2040SOL     hw 8159   5.971   6.297   0.772  0.5478 -0.1019 -1.4201
 2040SOL     vw 8160   5.954   6.382   0.771 -0.0651 -0.1996 -0.5571
 2041SOL     ow 8161   4.872   6.669   4.051 -0.1499 -0.3271  0.0494
 2041SOL     hw 8162   4.870   6.573   4.052 -1.2153 -0.3122  0.8301
 2041SOL     hw 8163   4.925   6.691   3.974 -0.5915 -1.5343 -0.6306
 2041SOL     vw 8164   4.879   6.659   4.041 -0.3486 -0.4842  0.0627
 2042SOL     ow 8165   5.565   6.116   2.550 -0.2096 -0.1925  0.3029
 2042SOL     hw 8166   5.523   6.102   2.635  0.5670 -0.9573  0.5764
 2042SOL     hw 8167   5.652   6.150   2.572 -0.7873  1.8187 -0.2596
 2042SOL     vw 8168   5.571   6.119   2.564 -0.1831 -0.0281  0.2648
 2043SOL     ow 8169   0.360   3.170   1.307 -0.2926 -0.0175  0.6736
 2043SOL     hw 8170   0.283   3.118   1.329 -0.4856 -0.0638 -0.1011
 2043SOL     hw 8171   0.415   3.112   1.254 -0.3107  0.4214  0.1604
 2043SOL     vw 8172   0.357   3.156   1.303 -0.3205  0.0345  0.5037
 2044SOL     ow 8173   5.101   7.368   5.649  0.5744 -0.2057  0.5075
 2044SOL     hw 8174   5.151   7.286   5.648 -2.0926 -2.1989 -4.2224
 2044SOL     hw 8175   5.018   7.345   5.691  0.9879  1.0765  2.0813
 2044SOL     vw 8176   5.097   7.354   5.654  0.2768 -0.2997  0.0908
 2045SOL     ow 8177   3.654   1.350   0.385 -0.7599  0.0756 -0.5116
 2045SOL     hw 8178   3.673   1.312   0.299 -1.4893  0.5045 -0.8706
 2045SOL     hw 8179   3.612   1.279   0.433  1.2816 -0.7576  0.1570
 2045SOL     vw 8180   3.651   1.335   0.380 -0.5870  0.0224 -0.4707
 2046SOL     ow 8181   4.593   0.483   6.238 -0.4395 -0.1659 -0.4465
 2046SOL     hw 8182   4.521   0.443   6.287  0.5811 -0.2622  1.0389
 2046SOL     hw 8183   4.587   0.443   6.151 -1.7289 -0.7097 -0.1418
 2046SOL     vw 8184   4.583   0.472   6.233 -0.4747 -0.2504 -0.2105
 2047SOL     ow 8185   7.577   3.851   1.945  0.2192 -0.7194  0.3911
 2047SOL     hw 8186   7.599   3.868   2.037  3.3147 -1.9303 -0.0100
 2047SOL     hw 8187   7.483   3.833   1.946  0.1496 -0.6974  3.3121
 2047SOL     vw 8188   7.567   3.851   1.958  0.6187 -0.8762  0.7236
 2048SOL     ow 8189   3.105   6.933   5.218 -0.4033  0.0985  0.2622
 2048SOL     hw 8190   3.031   6.992   5.202 -0.2648  0.0384 -0.6462
 2048SOL     hw 8191   3.065   6.846   5.227 -0.5114  0.1755  0.5297
 2048SOL     vw 8192   3.090   6.929   5.217 -0.3994  0.1009  0.1776
 2049SOL     ow 8193   6.070   0.246   1.988 -0.6061  0.3850 -0.3034
 2049SOL     hw 8194   6.119   0.174   1.947 -2.4567 -0.7470 -0.6296
 2049SOL     hw 8195   6.025   0.288   1.916 -1.3410  0.4289  0.1762
 2049SOL     vw 8196   6.071   0.242   1.973 -0.9475  0.2415 -0.2831
 2050SOL     ow 8197   3.431   4.428   1.845 -0.1833 -0.1623  0.3822
 2050SOL     hw 8198   3.380   4.403   1.768  1.7851  1.0542 -1.4360
 2050SOL     hw 8199   3.366   4.455   1.909 -1.8904 -0.9505 -0.9424
 2050SOL     vw 8200   3.416   4.428   1.843 -0.1490 -0.1056 -0.0324
 2051SOL     ow 8201   6.652   3.760   4.700  0.7474  0.2039 -0.0399
 2051SOL     hw 8202   6.642   3.839   4.753  2.8017 -0.3150  1.2567
 2051SOL     hw 8203   6.568   3.715   4.707 -0.1127  1.7714  0.0287
 2051SOL     vw 8204   6.640   3.764   4.708  0.9050  0.3422  0.1402
 2052SOL     ow 8205   1.561   3.681   3.859 -0.9556  0.3997  0.1093
 2052SOL     hw 8206   1.500   3.706   3.928 -1.0303 -0.1196  0.2363
 2052SOL     hw 8207   1.605   3.602   3.893  1.3561  1.9262  0.9712
 2052SOL     vw 8208   1.559   3.673   3.873 -0.6604  0.5326  0.2396
 2053SOL     ow 8209   2.479   4.282   5.826  0.9679  0.4859 -0.0371
 2053SOL     hw 8210   2.572   4.259   5.823  0.2591 -2.8418 -2.2553
 2053SOL     hw 8211   2.440   4.215   5.882 -0.2023  1.4509  0.3374
 2053SOL     vw 8212   2.487   4.270   5.833  0.7200  0.1740 -0.2804
 2054SOL     ow 8213   2.086   2.347   1.676  0.0348 -0.1365 -0.2546
 2054SOL     hw 8214   2.007   2.304   1.711  1.1965 -1.4233  0.9228
 2054SOL     hw 8215   2.148   2.275   1.665  1.1300  0.8969 -0.9071
 2054SOL     vw 8216   2.084   2.332   1.680  0.3326 -0.1700 -0.1854
 2055SOL     ow 8217   6.869   3.483   6.181 -0.0349  0.8554  0.3745
 2055SOL     hw 8218   6.782   3.450   6.160  1.3323 -2.4562 -0.6392
 2055SOL     hw 8219   6.891   3.541   6.108 -0.3244 -0.5498 -0.8811
 2055SOL     vw 8220   6.860   3.487   6.169  0.1075  0.2332  0.0749
 2056SOL     ow 8221   0.969   3.409   1.376 -0.0762 -0.2084 -0.0148
 2056SOL     hw 8222   0.922   3.492   1.379  0.3519  0.0131  0.7041
 2056SOL     hw 8223   0.901   3.344   1.355 -0.0210  0.5888 -3.1338
 2056SOL     vw 8224   0.954   3.411   1.373 -0.0124 -0.0740 -0.3315
 2057SOL     ow 8225   4.505   3.547   3.435  0.4738 -0.5423  0.2573
 2057SOL     hw 8226   4.542   3.499   3.508 -0.0434 -3.2272 -1.1320
 2057SOL     hw 8227   4.577   3.556   3.373 -0.0814 -1.9990 -0.6392
 2057SOL     vw 8228   4.519   3.542   3.436  0.3321 -1.0886 -0.0443
 2058SOL     ow 8229   7.441   3.926   6.365  0.4421  0.1364  0.8295
 2058SOL     hw 8230   7.479   3.937   6.453  0.2395  2.0403  0.7104
 2058SOL     hw 8231   7.400   4.010   6.346  1.0802  0.0009 -1.3816
 2058SOL     vw 8232   7.441   3.939   6.374  0.4995  0.3697  0.5221
 2059SOL     ow 8233   4.989   5.003   0.264  0.3182 -0.0827 -0.6050
 2059SOL     hw 8234   4.919   5.020   0.201  2.6009 -0.2746 -3.3877
 2059SOL     hw 8235   5.023   4.917   0.240  0.7073 -0.6058  1.5496
 2059SOL     vw 8236   4.984   4.994   0.253  0.6707 -0.1774 -0.6879
 2060SOL     ow 8237   6.824   5.474   1.001 -0.0363  0.4067 -0.2985
 2060SOL     hw 8238   6.915   5.473   0.971  0.1688 -0.6006  0.3000
 2060SOL     hw 8239   6.780   5.534   0.942  1.3267  2.1216  0.3415
 2060SOL     vw 8240   6.830   5.482   0.990  0.1707  0.5002 -0.1351
 2061SOL     ow 8241   6.820   2.497   4.354 -0.2328 -0.1962  0.1346
 2061SOL     hw 8242   6.851   2.462   4.270 -1.9425 -1.2501 -0.0900
 2061SOL     hw 8243   6.899   2.535   4.393  1.4641 -2.9556 -0.2917
 2061SOL     vw 8244   6.835   2.497   4.348 -0.2346 -0.6993  0.0486
 2062SOL     ow 8245   6.303   6.715   6.567 -0.2934 -0.0067  0.2454
 2062SOL     hw 8246   6.347   6.716   6.482  0.6017  2.5434  0.6858
 2062SOL     hw 8247   6.371   6.691   6.629 -0.6798 -0.7332  0.4000
 2062SOL     vw 8248   6.318   6.712   6.564 -0.2265  0.2339  0.3238
 2063SOL     ow 8249   4.088   4.068   6.902  0.2233  0.4301 -0.0590
 2063SOL     hw 8250   4.014   4.086   6.960  1.3265  0.3141  1.4239
 2063SOL     hw 8251   4.047   4.056   6.816 -1.3713  1.5036  0.4808
 2063SOL     vw 8252   4.073   4.069   6.898  0.1583  0.5567  0.2077
 2064SOL     ow 8253   0.987   2.500   4.946  0.7515 -0.3155  0.2495
 2064SOL     hw 8254   0.901   2.479   4.910  0.8268  0.3527 -0.3439
 2064SOL     hw 8255   1.041   2.424   4.923  0.1062 -1.1743  1.4605
 2064SOL     vw 8256   0.983   2.487   4.938  0.6763 -0.3406  0.3309
 2065SOL     ow 8257   4.187   0.992   1.359  0.3685  0.5861 -0.1658
 2065SOL     hw 8258   4.277   0.987   1.326 -0.2497 -2.2466 -1.7456
 2065SOL     hw 8259   4.133   0.955   1.289 -1.6116 -1.0791  2.0493
 2065SOL     vw 8260   4.192   0.986   1.346  0.0260 -0.0074 -0.0820
 2066SOL     ow 8261   0.845   1.512   5.359  0.0897  0.3287 -0.6481
 2066SOL     hw 8262   0.910   1.456   5.317 -1.4655 -0.3808 -2.1820
 2066SOL     hw 8263   0.765   1.498   5.310 -1.0695  1.7552  0.7305
 2066SOL     vw 8264   0.843   1.503   5.347 -0.2684  0.4233 -0.6685
 2067SOL     ow 8265   4.008   6.201   4.240 -0.2897  0.0368  0.4690
 2067SOL     hw 8266   4.095   6.234   4.262  0.5218 -1.5345 -0.2574
 2067SOL     hw 8267   3.961   6.278   4.210  0.9374  0.8755  0.6082
 2067SOL     vw 8268   4.013   6.215   4.239 -0.0207 -0.0598  0.3917
 2068SOL     ow 8269   2.204   2.543   1.498  0.0880  0.7317  0.0852
 2068SOL     hw 8270   2.159   2.474   1.546  0.8111 -0.1542 -0.4845
 2068SOL     hw 8271   2.260   2.585   1.563 -0.2032  0.6648  0.3854
 2068SOL     vw 8272   2.205   2.540   1.513  0.1450  0.6061  0.0497
 2069SOL     ow 8273   1.076   4.092   2.071  0.2776 -0.1894  0.0083
 2069SOL     hw 8274   0.993   4.127   2.104 -0.8610 -1.2911 -1.5647
 2069SOL     hw 8275   1.119   4.057   2.149 -0.5981  0.6355  0.8962
 2069SOL     vw 8276   1.071   4.092   2.086  0.0119 -0.2258 -0.0821
 2070SOL     ow 8277   3.802   0.562   3.552  0.8107 -0.3175 -0.3087
 2070SOL     hw 8278   3.781   0.473   3.524 -0.0406 -0.7291  1.4773
 2070SOL     hw 8279   3.725   0.614   3.528  1.4572  0.0332 -1.6786
 2070SOL     vw 8280   3.789   0.557   3.545  0.7837 -0.3256 -0.2538
 2071SOL     ow 8281   1.242   2.265   6.417 -0.6965 -0.0715 -0.0876
 2071SOL     hw 8282   1.287   2.278   6.334 -0.9876 -0.6057 -0.3370
 2071SOL     hw 8283   1.237   2.353   6.456 -2.2368  0.5312 -1.5197
 2071SOL     vw 8284   1.247   2.278   6.411 -0.9382 -0.0623 -0.3097
 2072SOL     ow 8285   5.101   2.969   3.174 -0.1480 -0.4980 -0.1221
 2072SOL     hw 8286   5.047   3.028   3.227 -1.8784 -1.6706 -0.4606
 2072SOL     hw 8287   5.096   2.885   3.219  3.3293 -0.2141  1.0684
 2072SOL     vw 8288   5.093   2.965   3.187  0.0827 -0.6154 -0.0098
 2073SOL     ow 8289   5.255   4.662   5.529 -0.2396  0.2109  0.1454
 2073SOL     hw 8290   5.285   4.638   5.441 -0.2987  0.8593 -0.0569
 2073SOL     hw 8291   5.282   4.589   5.584  0.8333  0.3223 -0.2085
 2073SOL     vw 8292   5.262   4.649   5.525 -0.1059  0.3111  0.0720
 2074SOL     ow 8293   1.510   6.682   5.978  0.0125 -0.4104 -0.2197
 2074SOL     hw 8294   1.497   6.768   5.940 -0.0185 -0.5637 -0.5569
 2074SOL     hw 8295   1.499   6.695   6.072 -1.1989 -0.2786 -0.3702
 2074SOL     vw 8296   1.507   6.695   5.985 -0.1514 -0.4132 -0.2840
 2075SOL     ow 8297   0.340   2.497   7.111 -0.2010 -0.2744 -0.5747
 2075SOL     hw 8298   0.395   2.541   7.046 -0.3614 -0.5699 -0.9126
 2075SOL     hw 8299   0.260   2.549   7.113  0.7668  1.3084  1.3027
 2075SOL     vw 8300   0.337   2.510   7.103 -0.0945 -0.1045 -0.3717
 2076SOL     ow 8301   1.726   5.101   2.706 -0.4315 -0.3108 -0.1818
 2076SOL     hw 8302   1.729   5.174   2.643  0.8416  1.3340  1.6766
 2076SOL     hw 8303   1.743   5.023   2.653  1.5610  1.1087 -1.7579
 2076SOL     vw 8304   1.728   5.100   2.690 -0.0007  0.0937 -0.1446
 2077SOL     ow 8305   1.045   5.829   6.233  0.1369  0.3233 -0.8491
 2077SOL     hw 8306   1.027   5.849   6.325  0.1103 -1.4962 -0.4356
 2077SOL     hw 8307   0.960   5.803   6.197  0.2329  0.6053 -1.2877
 2077SOL     vw 8308   1.031   5.828   6.241  0.1461  0.1206 -0.8523
 2078SOL     ow 8309   2.969   4.505   3.792 -0.0595  0.0473  0.4967
 2078SOL     hw 8310   2.968   4.438   3.859  2.3183  0.4358  1.0335
 2078SOL     hw 8311   2.880   4.506   3.756 -0.0960 -3.5966  0.1986
 2078SOL     vw 8312   2.957   4.497   3.796  0.2494 -0.3822  0.5283
 2079SOL     ow 8313   4.332   1.530   3.320 -0.3921 -0.1316 -0.0778
 2079SOL     hw 8314   4.342   1.609   3.267 -0.4049 -0.8496 -1.1932
 2079SOL     hw 8315   4.343   1.458   3.257  0.5557 -1.0266  1.0769
 2079SOL     vw 8316   4.334   1.531   3.304 -0.2685 -0.3444 -0.0726
 2080SOL     ow 8317   5.693   2.308   6.751 -0.0562  0.3468 -0.2145
 2080SOL     hw 8318   5.648   2.239   6.703  1.0006  1.3939 -2.9290
 2080SOL     hw 8319   5.625   2.372   6.771 -0.3123  0.5652 -1.6919
 2080SOL     vw 8320   5.678   2.308   6.747  0.0491  0.5138 -0.7675
 2081SOL     ow 8321   4.732   0.979   6.367  0.0334  0.2478 -0.3946
 2081SOL     hw 8322   4.648   0.933   6.360 -0.2428  0.8044 -0.8130
 2081SOL     hw 8323   4.754   0.973   6.460 -0.6395  0.3848 -0.2151
 2081SOL     vw 8324   4.724   0.973   6.378 -0.0916  0.3393 -0.4261
 2082SOL     ow 8325   6.315   7.129   6.876 -0.2579 -0.1050 -0.2878
 2082SOL     hw 8326   6.273   7.086   6.802  1.3373 -0.5981 -0.9655
 2082SOL     hw 8327   6.350   7.211   6.840  2.4693 -1.3449 -0.7540
 2082SOL     vw 8328   6.314   7.134   6.862  0.3123 -0.3338 -0.4387
 2083SOL     ow 8329   2.995   6.677   5.183  0.0227  0.1527 -0.2044
 2083SOL     hw 8330   2.992   6.606   5.247 -0.0486 -1.6786 -2.1222
 2083SOL     hw 8331   2.904   6.706   5.174  0.3921  2.7703  2.8447
 2083SOL     vw 8332   2.983   6.672   5.190  0.0621  0.2565 -0.0551
 2084SOL     ow 8333   1.226   2.181   2.015 -0.3995 -0.1776 -0.1049
 2084SOL     hw 8334   1.174   2.237   1.958  0.7849  0.1559 -0.8973
 2084SOL     hw 8335   1.276   2.242   2.069  2.0018 -0.3496 -1.9693
 2084SOL     vw 8336   1.226   2.196   2.014  0.0736 -0.1564 -0.4556
 2085SOL     ow 8337   0.628   3.576   0.214 -0.2078  0.5341 -0.1144
 2085SOL     hw 8338   0.699   3.623   0.256  0.0357 -0.2795  0.4066
 2085SOL     hw 8339   0.548   3.608   0.257 -0.1386  1.2200 -0.4871
 2085SOL     vw 8340   0.627   3.586   0.225 -0.1665  0.5171 -0.0948
 2086SOL     ow 8341   6.117   6.024   2.491  0.1314  0.5869  0.3142
 2086SOL     hw 8342   6.038   6.076   2.473 -1.7285 -1.8047  1.0911
 2086SOL     hw 8343   6.158   6.070   2.564 -2.4231  0.1419  2.1774
 2086SOL     vw 8344   6.112   6.037   2.498 -0.4513  0.2124  0.6626
 2087SOL     ow 8345   4.744   5.092   4.592 -0.0147 -0.9847  0.2433
 2087SOL     hw 8346   4.753   5.145   4.671 -0.2292  2.5322 -1.9154
 2087SOL     hw 8347   4.650   5.077   4.583 -0.0847 -0.4679  0.0995
 2087SOL     vw 8348   4.733   5.097   4.602 -0.0525 -0.4525 -0.0606
 2088SOL     ow 8349   2.951   1.103   3.858  0.2243 -0.8217 -0.0309
 2088SOL     hw 8350   2.879   1.045   3.884 -0.0613 -0.9559 -1.0482
 2088SOL     hw 8351   2.907   1.182   3.826  0.6289  0.4767  2.3940
 2088SOL     vw 8352   2.936   1.106   3.857  0.2400 -0.6681  0.1549
 2089SOL     ow 8353   0.284   7.467   4.089  0.2373  0.1072  0.1961
 2089SOL     hw 8354   0.296   7.540   4.149 -0.8030  2.0055 -1.7736
 2089SOL     hw 8355   0.212   7.494   4.032  0.6422 -1.9379 -1.4097
 2089SOL     vw 8356   0.276   7.480   4.090  0.1535  0.0877 -0.2759
 2090SOL     ow 8357   4.862   6.212   0.403  0.3147 -0.2935  0.7127
 2090SOL     hw 8358   4.844   6.265   0.481  1.0492 -0.0431  0.7215
 2090SOL     hw 8359   4.874   6.276   0.333  0.4530 -0.4818  0.5633
 2090SOL     vw 8360   4.862   6.227   0.404  0.4299 -0.2856  0.6942
 2091SOL     ow 8361   5.313   6.787   1.922 -0.3341 -0.0459  0.4648
 2091SOL     hw 8362   5.263   6.714   1.886 -4.1866  1.3836  2.3792
 2091SOL     hw 8363   5.312   6.853   1.853 -1.7295  0.1782  0.6694
 2091SOL     vw 8364   5.306   6.786   1.908 -1.0266  0.1724  0.7444
 2092SOL     ow 8365   6.446   6.505   2.376 -0.2155 -0.0481 -0.4312
 2092SOL     hw 8366   6.422   6.417   2.404 -0.3951  0.5410  1.4027
 2092SOL     hw 8367   6.497   6.540   2.448 -1.2742  1.8212 -0.5155
 2092SOL     vw 8368   6.449   6.498   2.389 -0.3788  0.2763 -0.2004
 2093SOL     ow 8369   1.234   3.103   5.156  0.2653  0.6124  0.6538
 2093SOL     hw 8370   1.253   3.017   5.119 -0.5716  0.3565  0.7998
 2093SOL     hw 8371   1.272   3.165   5.093  0.6159  0.1456  0.4014
 2093SOL     vw 8372   1.242   3.100   5.143  0.2012  0.5170  0.6397
 2094SOL     ow 8373   1.873   3.926   3.338  0.6757 -0.3225 -0.0783
 2094SOL     hw 8374   1.952   3.937   3.285  2.4008 -0.2646  2.3547
 2094SOL     hw 8375   1.900   3.947   3.427 -1.7574 -1.6115  1.0799
 2094SOL     vw 8376   1.887   3.930   3.343  0.5823 -0.4849  0.3954
 2095SOL     ow 8377   3.890   6.683   5.535  0.2327  0.0208  0.0914
 2095SOL     hw 8378   3.866   6.619   5.468 -3.4803 -0.2657  1.4644
 2095SOL     hw 8379   3.877   6.636   5.618 -1.4864  2.0858  1.0916
 2095SOL     vw 8380   3.885   6.668   5.537 -0.4839  0.2556  0.4041
 2096SOL     ow 8381   2.956   2.819   2.669  0.0477 -0.6338  0.2303
 2096SOL     hw 8382   2.898   2.876   2.718 -1.2698 -1.9297  0.2716
 2096SOL     hw 8383   2.906   2.795   2.591  0.1975 -2.3516  0.6103
 2096SOL     vw 8384   2.942   2.823   2.665 -0.1062 -1.0314  0.2860
 2097SOL     ow 8385   0.863   3.525   3.316  0.7347 -0.2834  0.2343
 2097SOL     hw 8386   0.945   3.486   3.348 -0.9392 -2.0633  2.7015
 2097SOL     hw 8387   0.802   3.517   3.390 -1.7472  0.8243 -1.5561
 2097SOL     vw 8388   0.866   3.519   3.330  0.1864 -0.3722  0.3238
 2098SOL     ow 8389   0.648   0.553   1.712  0.0668  0.3878  0.1225
 2098SOL     hw 8390   0.722   0.542   1.772  0.6378  0.9083 -0.4666
 2098SOL     hw 8391   0.634   0.466   1.674  1.8254  0.7269 -1.4068
 2098SOL     vw 8392   0.656   0.540   1.715  0.3742  0.5012 -0.1570
 2099SOL     ow 8393   2.547   1.508   5.129 -0.1183 -0.2681  1.0255
 2099SOL     hw 8394   2.498   1.549   5.200 -0.5003  0.3290  0.4300
 2099SOL     hw 8395   2.523   1.559   5.051 -3.2102 -3.5046 -0.4515
 2099SOL     vw 8396   2.537   1.520   5.128 -0.5766 -0.6163  0.7517
 2100SOL     ow 8397   4.400   4.403   7.623  0.2580  0.2350  0.4203
 2100SOL     hw 8398   4.446   4.448   7.694  1.1228 -2.3611  1.6542
 2100SOL     hw 8399   4.333   4.350   7.668 -0.6808  0.2293 -0.9235
 2100SOL     vw 8400   4.397   4.402   7.638  0.2484 -0.1085  0.4058
 2101SOL     ow 8401   6.218   2.756   0.165  0.4271 -0.0759  0.0455
 2101SOL     hw 8402   6.260   2.825   0.113  2.3905 -1.7896 -0.7599
 2101SOL     hw 8403   6.254   2.767   0.253 -2.4443  2.4425  1.1097
 2101SOL     vw 8404   6.228   2.766   0.170  0.3073  0.0303  0.0797
 2102SOL     ow 8405   3.497   5.222   7.179  0.4838 -0.4463 -0.2634
 2102SOL     hw 8406   3.587   5.246   7.159  0.2940  1.7407  1.1951
 2102SOL     hw 8407   3.506   5.148   7.240  1.1709 -1.7058 -1.8013
 2102SOL     vw 8408   3.510   5.215   7.185  0.5493 -0.3238 -0.2737
 2103SOL     ow 8409   4.232   1.890   4.175  0.2038 -0.1044  0.2172
 2103SOL     hw 8410   4.184   1.865   4.254 -0.1471  3.1509  1.2079
 2103SOL     hw 8411   4.165   1.929   4.118  1.1974  2.3500  0.6173
 2103SOL     vw 8412   4.216   1.892   4.178  0.2885  0.6489  0.4005
 2104SOL     ow 8413   0.657   4.281   5.272  0.1223 -0.0106 -0.1661
 2104SOL     hw 8414   0.570   4.274   5.232  1.0983 -0.8089 -2.2886
 2104SOL     hw 8415   0.694   4.193   5.264  1.0657  0.2719  0.8840
 2104SOL     vw 8416   0.650   4.268   5.266  0.3755 -0.0784 -0.3073
 2105SOL     ow 8417   6.410   1.772   0.750 -0.1650 -0.3632  0.5578
 2105SOL     hw 8418   6.446   1.842   0.803 -0.3149  1.1477 -1.2373
 2105SOL     hw 8419   6.476   1.756   0.682 -1.0600 -0.4398 -0.3239
 2105SOL     vw 8420   6.424   1.779   0.748 -0.3028 -0.1740  0.2046
 2106SOL     ow 8421   3.384   4.082   4.914  0.1629 -0.6380  0.3222
 2106SOL     hw 8422   3.402   4.104   4.823  0.4483 -3.6194 -0.4674
 2106SOL     hw 8423   3.465   4.103   4.961 -0.5612  2.5690  0.3379
 2106SOL     vw 8424   3.397   4.087   4.908  0.1051 -0.6084  0.2201
 2107SOL     ow 8425   4.612   2.529   3.097  0.1210 -0.7269 -0.0435
 2107SOL     hw 8426   4.659   2.605   3.063  0.9136 -0.8102  0.8288
 2107SOL     hw 8427   4.534   2.522   3.042  0.5136  0.1542 -0.7263
 2107SOL     vw 8428   4.608   2.539   3.086  0.2775 -0.6216 -0.0185
 2108SOL     ow 8429   5.058   0.948   0.557  0.1799 -0.1262 -0.3536
 2108SOL     hw 8430   5.009   0.986   0.484 -0.8275 -1.0552 -0.1919
 2108SOL     hw 8431   5.147   0.937   0.523  0.3970  1.9431 -0.5297
 2108SOL     vw 8432   5.063   0.951   0.543  0.0756  0.0243 -0.3555
 2109SOL     ow 8433   0.776   0.787   1.607  0.1668 -0.2619 -0.0176
 2109SOL     hw 8434   0.800   0.796   1.700  0.5781  0.1054 -0.1577
 2109SOL     hw 8435   0.857   0.805   1.560 -0.2418  0.4018 -0.4784
 2109SOL     vw 8436   0.790   0.790   1.613  0.1672 -0.1259 -0.0969
 2110SOL     ow 8437   6.886   0.408   6.531 -0.5978 -0.3769 -0.4556
 2110SOL     hw 8438   6.911   0.432   6.442 -2.1263  0.4287 -0.7101
 2110SOL     hw 8439   6.936   0.467   6.587 -1.7843  1.1531 -0.9377
 2110SOL     vw 8440   6.896   0.419   6.527 -0.9561 -0.0688 -0.5529
 2111SOL     ow 8441   2.479   1.675   4.937  0.1394  0.2871 -0.1985
 2111SOL     hw 8442   2.460   1.740   5.005  1.7107  1.2513 -0.6236
 2111SOL     hw 8443   2.497   1.727   4.859  2.3309 -0.5691 -0.3287
 2111SOL     vw 8444   2.479   1.691   4.936  0.6359  0.3014 -0.2716
 2112SOL     ow 8445   3.181   7.089   4.372 -0.4960  0.9523  0.8149
 2112SOL     hw 8446   3.227   7.172   4.386 -1.1824  1.2157  1.5941
 2112SOL     hw 8447   3.164   7.086   4.278  1.1365  0.8201  0.4815
 2112SOL     vw 8448   3.185   7.099   4.362 -0.3711  0.9696  0.8738
 2113SOL     ow 8449   7.129   2.879   0.820 -0.4784  0.9781 -0.5515
 2113SOL     hw 8450   7.124   2.839   0.733 -3.3008  1.3147 -0.6251
 2113SOL     hw 8451   7.124   2.973   0.804  0.0211  1.0954 -0.0511
 2113SOL     vw 8452   7.128   2.886   0.806 -0.7851  1.0380 -0.4952
 2114SOL     ow 8453   4.378   3.227   4.304 -0.6763  0.1196 -0.4892
 2114SOL     hw 8454   4.404   3.160   4.367 -1.4413 -0.1799 -0.4880
 2114SOL     hw 8455   4.386   3.309   4.352  2.7433  0.3833 -1.2016
 2114SOL     vw 8456   4.383   3.229   4.318 -0.3259  0.1150 -0.5832
 2115SOL     ow 8457   2.575   1.960   3.973  0.6138 -0.1006  0.5068
 2115SOL     hw 8458   2.513   1.892   3.945 -2.0674  2.8651 -1.6427
 2115SOL     hw 8459   2.660   1.928   3.945 -0.5341 -2.4529 -0.6231
 2115SOL     vw 8460   2.578   1.947   3.966  0.1085 -0.0197  0.0740
 2116SOL     ow 8461   5.524   1.154   3.723  0.3385  0.0260  1.1639
 2116SOL     hw 8462   5.431   1.173   3.726  0.2620 -0.4498  1.9783
 2116SOL     hw 8463   5.545   1.151   3.629 -0.9828 -2.2868  0.8602
 2116SOL     vw 8464   5.515   1.156   3.711  0.1543 -0.3419  1.2313
 2117SOL     ow 8465   0.895   3.692   2.267 -0.0116 -0.1697  0.4770
 2117SOL     hw 8466   0.860   3.779   2.288 -0.6651 -1.4070  5.8542
 2117SOL     hw 8467   0.984   3.692   2.302  0.1603 -1.5256  0.1071
 2117SOL     vw 8468   0.902   3.703   2.274 -0.0752 -0.5118  1.1377
 2118SOL     ow 8469   1.394   6.582   5.735  0.5716  0.0004  0.1760
 2118SOL     hw 8470   1.347   6.660   5.706  2.0145  1.3923  1.4438
 2118SOL     hw 8471   1.394   6.525   5.658 -0.4545  1.2625 -0.8060
 2118SOL     vw 8472   1.388   6.584   5.721  0.6266  0.3505  0.2141
 2119SOL     ow 8473   2.135   3.204   3.122  0.5039  0.9603  0.6008
 2119SOL     hw 8474   2.181   3.193   3.206  0.8273  0.9814  0.4283
 2119SOL     hw 8475   2.202   3.187   3.056 -0.0345 -0.2397  0.3382
 2119SOL     vw 8476   2.150   3.201   3.124  0.4756  0.8048  0.5435
 2120SOL     ow 8477   2.713   4.806   1.146 -0.1397 -0.3648  0.7230
 2120SOL     hw 8478   2.729   4.777   1.056  0.3289  2.0225 -0.0259
 2120SOL     hw 8479   2.749   4.736   1.201 -1.1107 -2.2186 -0.9022
 2120SOL     vw 8480   2.720   4.793   1.142 -0.2060 -0.2947  0.4098
 2121SOL     ow 8481   1.901   1.667   5.907 -0.3355 -0.3523  0.2954
 2121SOL     hw 8482   1.894   1.726   5.833  4.7186  1.0989  0.6378
 2121SOL     hw 8483   1.853   1.711   5.977  1.2437  2.2816 -0.1370
 2121SOL     vw 8484   1.894   1.681   5.907  0.5396  0.1867  0.2832
 2122SOL     ow 8485   2.760   6.706   0.061  0.3989 -0.2773  0.8146
 2122SOL     hw 8486   2.778   6.612   0.060 -2.3173 -0.8735  1.1354
 2122SOL     hw 8487   2.688   6.717   0.123  0.2156  1.9347  0.3139
 2122SOL     vw 8488   2.753   6.695   0.069  0.0165 -0.0639  0.7908
 2123SOL     ow 8489   3.439   5.848   2.991  0.5245  0.9207  0.3324
 2123SOL     hw 8490   3.437   5.806   3.077  0.6485  3.8741  1.9042
 2123SOL     hw 8491   3.526   5.887   2.986  1.0710 -0.4103 -1.8457
 2123SOL     vw 8492   3.450   5.848   3.002  0.6130  1.1349  0.2525
 2124SOL     ow 8493   3.495   5.058   5.459  0.9390  0.3808  0.1910
 2124SOL     hw 8494   3.420   5.078   5.401  0.5756 -1.0161  0.1475
 2124SOL     hw 8495   3.476   5.106   5.539  0.3182  0.5536 -0.0513
 2124SOL     vw 8496   3.482   5.067   5.462  0.8092  0.2193  0.1533
 2125SOL     ow 8497   1.815   3.023   5.594 -0.8774  0.4146  0.1321
 2125SOL     hw 8498   1.829   3.022   5.689 -1.1849 -0.8627  0.1902
 2125SOL     hw 8499   1.903   3.013   5.557 -0.9143 -0.9640  0.3490
 2125SOL     vw 8500   1.829   3.021   5.601 -0.9228  0.0641  0.1681
 2126SOL     ow 8501   4.656   7.078   7.377  0.3123 -0.3615  0.2968
 2126SOL     hw 8502   4.640   7.167   7.347  0.0521 -0.6037 -0.2936
 2126SOL     hw 8503   4.670   7.028   7.297 -0.9473 -1.1354  0.5339
 2126SOL     vw 8504   4.656   7.083   7.362  0.1118 -0.4957  0.2503
 2127SOL     ow 8505   3.497   6.777   4.036 -0.3591  0.3131  0.4493
 2127SOL     hw 8506   3.577   6.743   4.075 -1.2886  0.1314  2.3351
 2127SOL     hw 8507   3.524   6.854   3.986  1.0911 -0.3083  0.2419
 2127SOL     vw 8508   3.511   6.782   4.034 -0.2904  0.2069  0.6709
 2128SOL     ow 8509   3.034   0.750   5.993 -0.1593 -0.4388  0.4739
 2128SOL     hw 8510   2.955   0.737   6.046 -0.3809  2.0453  0.8880
 2128SOL     hw 8511   3.079   0.823   6.036 -0.2332  1.5471 -2.5579
 2128SOL     vw 8512   3.029   0.758   6.006 -0.1982  0.1510  0.1290
 2129SOL     ow 8513   0.468   2.017   5.873 -0.2603 -0.2990 -0.2104
 2129SOL     hw 8514   0.372   2.020   5.873 -0.2646 -0.3213 -0.8780
 2129SOL     hw 8515   0.493   2.084   5.937 -0.7031  0.6940 -1.0473
 2129SOL     vw 8516   0.458   2.026   5.881 -0.3193 -0.1709 -0.4089
 2130SOL     ow 8517   3.733   5.709   6.570 -0.2285 -0.6249  0.3231
 2130SOL     hw 8518   3.679   5.742   6.499  0.9396 -1.7627 -1.1581
 2130SOL     hw 8519   3.683   5.729   6.650 -2.2122 -0.5431 -0.8782
 2130SOL     vw 8520   3.720   5.716   6.571 -0.3362 -0.7641 -0.0305
 2131SOL     ow 8521   5.211   7.210   2.442  0.6222  0.6242  0.5598
 2131SOL     hw 8522   5.171   7.267   2.507  0.8267 -0.2434  1.4755
 2131SOL     hw 8523   5.292   7.179   2.484  0.8825  0.2426 -0.2043
 2131SOL     vw 8524   5.216   7.213   2.456  0.6840  0.4597  0.5800
 2132SOL     ow 8525   3.493   7.595   6.775  0.8185  0.4281  0.0621
 2132SOL     hw 8526   3.521   7.672   6.726 -1.0354 -1.0251 -3.7162
 2132SOL     hw 8527   3.524   7.520   6.723 -2.2765 -1.2420  0.3698
 2132SOL     vw 8528   3.500   7.595   6.761  0.1656  0.0162 -0.3960
 2133SOL     ow 8529   2.720   2.945   1.018 -0.1803  0.4300  0.0778
 2133SOL     hw 8530   2.668   2.885   1.071  0.7648 -1.1154 -0.6717
 2133SOL     hw 8531   2.670   3.027   1.017 -1.5323 -0.3571  1.0789
 2133SOL     vw 8532   2.707   2.948   1.025 -0.2340  0.1221  0.1110
 2134SOL     ow 8533   3.332   5.700   4.888  0.3207 -0.2212  0.4319
 2134SOL     hw 8534   3.361   5.642   4.817 -0.0394 -3.2822  2.5956
 2134SOL     hw 8535   3.411   5.746   4.914  0.7002  0.0992 -1.1621
 2134SOL     vw 8536   3.346   5.698   4.882  0.3232 -0.5827  0.5069
 2135SOL     ow 8537   2.148   2.670   4.223 -0.2318 -0.5757  0.3104
 2135SOL     hw 8538   2.080   2.737   4.213  0.3645 -0.2504 -2.4752
 2135SOL     hw 8539   2.100   2.587   4.221 -0.6975 -0.3063 -0.0140
 2135SOL     vw 8540   2.133   2.668   4.221 -0.2146 -0.4971 -0.0999
 2136SOL     ow 8541   6.494   3.513   6.823  0.0419 -0.0054  0.6513
 2136SOL     hw 8542   6.574   3.502   6.874  1.0502  3.9722  0.2656
 2136SOL     hw 8543   6.525   3.525   6.733 -0.5979  3.4819  0.7471
 2136SOL     vw 8544   6.509   3.513   6.818  0.0906  0.9794  0.6132
 2137SOL     ow 8545   2.951   4.839   5.919 -0.3235  0.7279 -0.3339
 2137SOL     hw 8546   2.873   4.884   5.950  0.7634  1.0389  2.1809
 2137SOL     hw 8547   2.934   4.746   5.937 -0.4404  0.7015 -0.5751
 2137SOL     vw 8548   2.939   4.833   5.925 -0.1955  0.7653 -0.0341
 2138SOL     ow 8549   4.062   3.515   0.335 -0.6212  0.3698  0.2615
 2138SOL     hw 8550   4.122   3.581   0.301  1.1479 -1.2818  0.0272
 2138SOL     hw 8551   4.116   3.436   0.346 -2.8264 -1.3109 -0.3171
 2138SOL     vw 8552   4.077   3.513   0.332 -0.6790 -0.0700  0.1543
 2139SOL     ow 8553   4.899   3.145   7.202  0.4263  0.2986  0.1735
 2139SOL     hw 8554   4.973   3.085   7.216  2.3015  2.3954 -0.3264
 2139SOL     hw 8555   4.836   3.093   7.153  2.1924 -1.1419 -0.7106
 2139SOL     vw 8556   4.900   3.130   7.198  0.9065  0.3852 -0.0088
 2140SOL     ow 8557   6.513   3.109   3.986  0.3884  0.0894  0.0990
 2140SOL     hw 8558   6.571   3.137   3.915  1.2306 -1.6450  0.0662
 2140SOL     hw 8559   6.512   3.014   3.981 -0.5903 -0.0229  1.6088
 2140SOL     vw 8560   6.520   3.100   3.976  0.3705 -0.1543  0.2939
 2141SOL     ow 8561   0.125   6.119   0.188 -0.5829  0.3657 -0.2059
 2141SOL     hw 8562   0.184   6.068   0.133  0.1168  1.0212 -0.0897
 2141SOL     hw 8563   0.048   6.063   0.201 -0.2731 -0.2350 -0.9161
 2141SOL     vw 8564   0.122   6.105   0.182 -0.4498  0.3726 -0.2843
 2142SOL     ow 8565   2.486   3.917   6.740  0.7916 -0.4496  0.3984
 2142SOL     hw 8566   2.416   3.954   6.687  2.8220  1.1642 -1.3489
 2142SOL     hw 8567   2.446   3.904   6.826 -1.6535  0.2678 -0.5355
 2142SOL     vw 8568   2.472   3.920   6.745  0.7371 -0.1421  0.0446
 2143SOL     ow 8569   6.249   7.081   0.022  0.5150 -0.9410  0.2390
 2143SOL     hw 8570   6.220   6.992   0.044  1.9187 -1.0925  1.6889
 2143SOL     hw 8571   6.168   7.132   0.014 -0.2675 -2.1218  0.4014
 2143SOL     vw 8572   6.235   7.076   0.024  0.5968 -1.1168  0.4517
 2144SOL     ow 8573   0.974   3.067   0.138 -0.1688 -0.2393 -0.5758
 2144SOL     hw 8574   0.891   3.038   0.098  2.0629 -2.0086 -4.5450
 2144SOL     hw 8575   1.042   3.028   0.083  3.4915 -0.8608  3.7809
 2144SOL     vw 8576   0.972   3.058   0.125  0.6086 -0.5547 -0.5247
 2145SOL     ow 8577   2.560   5.246   6.536  0.1536 -0.0052  0.7104
 2145SOL     hw 8578   2.559   5.260   6.630  0.7832 -0.9674  0.8710
 2145SOL     hw 8579   2.472   5.271   6.507 -0.0172  0.3644  1.5363
 2145SOL     vw 8580   2.548   5.251   6.544  0.2140 -0.0837  0.8404
 2146SOL     ow 8581   7.554   7.436   6.890 -0.3647 -0.0321 -0.6656
 2146SOL     hw 8582   7.532   7.524   6.921  0.3351 -0.5795  1.6142
 2146SOL     hw 8583   7.568   7.386   6.970  1.3174 -1.7043 -1.9186
 2146SOL     vw 8584   7.553   7.441   6.905 -0.0503 -0.3252 -0.5302
 2147SOL     ow 8585   5.428   4.918   2.812 -0.1457  0.1750 -0.3463
 2147SOL     hw 8586   5.397   4.983   2.749  1.0088  0.0243 -1.1026
 2147SOL     hw 8587   5.446   4.968   2.891  0.2393  0.7031 -0.7617
 2147SOL     vw 8588   5.427   4.933   2.814  0.0575  0.2251 -0.5009
 2148SOL     ow 8589   7.080   2.662   6.461  0.4881 -0.3014 -0.1515
 2148SOL     hw 8590   7.004   2.700   6.416  1.1693  2.2702  0.6754
 2148SOL     hw 8591   7.046   2.583   6.503 -1.1094 -0.5701 -1.8268
 2148SOL     vw 8592   7.065   2.657   6.461  0.3674  0.0023 -0.2637
 2149SOL     ow 8593   6.194   6.507   6.298  0.2179  0.3849  0.3937
 2149SOL     hw 8594   6.180   6.557   6.218  1.0665  0.4027  0.2536
 2149SOL     hw 8595   6.135   6.547   6.362 -0.5259  0.3148 -0.2387
 2149SOL     vw 8596   6.184   6.518   6.296  0.2317  0.3781  0.2916
 2150SOL     ow 8597   5.533   5.707   2.088  0.1914 -0.1695  0.5350
 2150SOL     hw 8598   5.495   5.619   2.082 -1.5073  0.6120 -1.9924
 2150SOL     hw 8599   5.515   5.735   2.178 -1.2944 -1.5680  0.7215
 2150SOL     vw 8600   5.525   5.699   2.099 -0.2289 -0.2511  0.2261
 2151SOL     ow 8601   7.433   6.721   7.411  0.0985 -0.5327  0.2740
 2151SOL     hw 8602   7.493   6.782   7.369  0.3079 -1.7140 -1.2242
 2151SOL     hw 8603   7.456   6.725   7.504  1.6564 -0.0457 -0.0987
 2151SOL     vw 8604   7.444   6.729   7.418  0.3316 -0.6242  0.0272
 2152SOL     ow 8605   2.010   3.096   6.949 -0.6111 -0.8671 -0.5667
 2152SOL     hw 8606   1.990   3.039   7.024  0.5517 -0.1423  0.3341
 2152SOL     hw 8607   1.934   3.087   6.891 -3.8449  1.8829  2.7082
 2152SOL     vw 8608   1.997   3.087   6.952 -0.8844 -0.4086 -0.0155
 2153SOL     ow 8609   7.330   6.855   6.134 -0.2705 -0.5555 -0.1968
 2153SOL     hw 8610   7.372   6.916   6.196 -0.7426  0.6202 -1.0144
 2153SOL     hw 8611   7.258   6.817   6.184  0.6275 -1.2265  0.6417
 2153SOL     vw 8612   7.326   6.858   6.149 -0.2143 -0.4888 -0.1941
 2154SOL     ow 8613   4.722   4.554   4.210  0.3217  0.4104  0.0391
 2154SOL     hw 8614   4.696   4.546   4.301  2.4864  0.6715  0.7519
 2154SOL     hw 8615   4.757   4.468   4.188  0.8361  0.6628 -0.1607
 2154SOL     vw 8616   4.723   4.542   4.219  0.6752  0.4780  0.1068
 2155SOL     ow 8617   4.902   3.440   0.472  0.5304  0.3232  0.6047
 2155SOL     hw 8618   4.934   3.357   0.436 -0.3015  1.2808 -2.7051
 2155SOL     hw 8619   4.831   3.466   0.413  0.4077  3.1386  1.8283
 2155SOL     vw 8620   4.897   3.432   0.459  0.4046  0.8210  0.3295
 2156SOL     ow 8621   3.442   2.093   2.610  0.5891  0.5631 -0.0814
 2156SOL     hw 8622   3.520   2.072   2.559 -1.9549 -1.7970 -3.4880
 2156SOL     hw 8623   3.377   2.027   2.583 -1.9470  0.8284  4.3429
 2156SOL     vw 8624   3.444   2.081   2.599 -0.0813  0.2868  0.0528
 2157SOL     ow 8625   6.896   3.644   4.832  0.0746  0.4222 -0.0355
 2157SOL     hw 8626   6.932   3.731   4.846 -0.5820  0.8547 -0.9488
 2157SOL     hw 8627   6.971   3.590   4.807  0.1484  1.3046 -1.8967
 2157SOL     vw 8628   6.911   3.648   4.830 -0.0021  0.5957 -0.4017
 2158SOL     ow 8629   3.013   5.659   4.935  0.1212  0.0094  0.5105
 2158SOL     hw 8630   3.000   5.584   4.877 -2.3387  0.4218  0.4160
 2158SOL     hw 8631   3.025   5.734   4.876  1.9383 -0.1616  0.6052
 2158SOL     vw 8632   3.013   5.659   4.920  0.0364  0.0410  0.5107
 2159SOL     ow 8633   2.692   3.159   0.328  0.4890 -0.9745  0.6488
 2159SOL     hw 8634   2.599   3.181   0.326  0.3141 -1.3982  2.5801
 2159SOL     hw 8635   2.734   3.232   0.282 -0.6996 -0.2416  0.6761
 2159SOL     vw 8636   2.685   3.172   0.322  0.3091 -0.9336  0.9072
 2160SOL     ow 8637   1.162   0.490   7.497  0.1798  0.0960 -0.3431
 2160SOL     hw 8638   1.250   0.520   7.522 -0.2079 -1.0025  2.7745
 2160SOL     hw 8639   1.126   0.452   7.577 -2.0416 -2.1671 -2.2454
 2160SOL     vw 8640   1.169   0.489   7.511 -0.1644 -0.3475 -0.1824
 2161SOL     ow 8641   7.402   5.232   3.003  0.6654 -0.2466  0.1585
 2161SOL     hw 8642   7.364   5.254   3.088 -2.8211  2.1863 -1.7923
 2161SOL     hw 8643   7.394   5.136   2.998  1.3721 -0.5172  2.6371
 2161SOL     vw 8644   7.396   5.222   3.014  0.2990  0.0391  0.2282
 2162SOL     ow 8645   3.897   5.940   3.638  0.5098 -0.2789 -0.1793
 2162SOL     hw 8646   3.885   5.861   3.586  1.3992  0.4660 -1.5926
 2162SOL     hw 8647   3.809   5.969   3.659  0.1479 -0.9095 -0.8022
 2162SOL     vw 8648   3.884   5.934   3.634  0.5794 -0.2639 -0.4480
 2163SOL     ow 8649   5.349   3.231   6.224  0.2332 -0.5384 -0.1602
 2163SOL     hw 8650   5.384   3.155   6.271  0.0389 -0.4834  0.0764
 2163SOL     hw 8651   5.368   3.213   6.132  2.6716  0.3938  0.0872
 2163SOL     vw 8652   5.356   3.219   6.218  0.5291 -0.4081 -0.0963
 2164SOL     ow 8653   7.425   7.387   4.244 -0.3010  0.0941  0.1055
 2164SOL     hw 8654   7.452   7.336   4.168 -1.7603 -2.3816  1.1306
 2164SOL     hw 8655   7.454   7.477   4.225  0.6539 -0.7171 -2.6616
 2164SOL     vw 8656   7.433   7.392   4.232 -0.3672 -0.3395 -0.1245
 2165SOL     ow 8657   0.994   4.707   5.339  0.6171 -0.3550 -1.5783
 2165SOL     hw 8658   0.916   4.701   5.393  0.3522 -1.1033 -2.0231
 2165SOL     hw 8659   0.983   4.787   5.288  1.4076  0.9962  0.2617
 2165SOL     vw 8660   0.983   4.716   5.339  0.6864 -0.2751 -1.3940
 2166SOL     ow 8661   1.723   5.337   3.480  0.4064  0.0979 -0.3604
 2166SOL     hw 8662   1.676   5.300   3.555  0.5117 -0.1038 -0.3927
 2166SOL     hw 8663   1.735   5.263   3.420  1.7027 -0.1092  0.1165
 2166SOL     vw 8664   1.719   5.322   3.482  0.5913  0.0441 -0.3018
 2167SOL     ow 8665   2.333   1.753   1.402 -0.3901  0.3046 -0.4833
 2167SOL     hw 8666   2.327   1.658   1.409 -1.0014  0.4641  2.4342
 2167SOL     hw 8667   2.262   1.778   1.343 -0.2564 -1.0151 -1.2444
 2167SOL     vw 8668   2.323   1.744   1.396 -0.4530  0.1516 -0.1988
 2168SOL     ow 8669   4.895   6.844   4.299  0.2465 -0.0202  0.4907
 2168SOL     hw 8670   4.971   6.788   4.314  1.1476  1.4005  1.4411
 2168SOL     hw 8671   4.866   6.869   4.387 -1.2340 -0.3927  0.1356
 2168SOL     vw 8672   4.901   6.840   4.313  0.1702  0.1183  0.5689
 2169SOL     ow 8673   6.945   6.731   1.756 -0.3152  0.3709  0.2887
 2169SOL     hw 8674   6.999   6.657   1.785  0.8087  1.1473  0.2333
 2169SOL     hw 8675   6.874   6.690   1.705  1.4369 -0.5670 -1.5327
 2169SOL     vw 8676   6.943   6.716   1.753  0.0644  0.3498  0.0411
 2170SOL     ow 8677   5.275   4.210   3.163 -0.1169 -0.6836 -0.6514
 2170SOL     hw 8678   5.246   4.237   3.250 -0.2375 -0.2449 -0.8221
 2170SOL     hw 8679   5.249   4.118   3.156 -0.4802 -0.6038 -0.3850
 2170SOL     vw 8680   5.268   4.202   3.174 -0.1807 -0.6151 -0.6387
 2171SOL     ow 8681   2.498   7.492   2.397 -0.5136 -0.0784  1.1273
 2171SOL     hw 8682   2.421   7.546   2.380 -2.5697 -3.1598 -0.3628
 2171SOL     hw 8683   2.570   7.537   2.353 -1.7862  2.0002  1.0416
 2171SOL     vw 8684   2.497   7.505   2.389 -0.9526 -0.2108  0.9193
 2172SOL     ow 8685   7.359   3.674   3.419 -0.3177  0.0049  0.2824
 2172SOL     hw 8686   7.444   3.717   3.433 -1.1729  1.2211  2.1186
 2172SOL     hw 8687   7.318   3.674   3.505 -2.0339 -0.9359 -0.4956
 2172SOL     vw 8688   7.365   3.680   3.432 -0.6571  0.0414  0.4220
 2173SOL     ow 8689   2.302   0.746   0.878 -0.5395 -0.8373 -0.3799
 2173SOL     hw 8690   2.239   0.679   0.905  0.4037 -2.0639 -1.1219
 2173SOL     hw 8691   2.346   0.772   0.959 -1.8105 -0.1228  0.1161
 2173SOL     vw 8692   2.299   0.741   0.892 -0.5827 -0.9048 -0.4123
 2174SOL     ow 8693   2.476   2.164   1.964 -0.0399  0.1540 -0.1845
 2174SOL     hw 8694   2.446   2.076   1.942 -2.0628  0.1492  2.1165
 2174SOL     hw 8695   2.400   2.206   2.005  0.8850  2.9726 -1.0687
 2174SOL     vw 8696   2.462   2.158   1.967 -0.1848  0.5252  0.0024
 2175SOL     ow 8697   1.253   3.708   5.011 -0.1583  0.1154  0.2912
 2175SOL     hw 8698   1.264   3.787   5.065  2.3965 -0.4852  0.7960
 2175SOL     hw 8699   1.312   3.722   4.937  0.9819 -1.6288  0.8185
 2175SOL     vw 8700   1.262   3.720   5.009  0.3291 -0.1941  0.4277
 2176SOL     ow 8701   0.321   5.330   5.950 -0.0810 -0.2095  0.4904
 2176SOL     hw 8702   0.243   5.274   5.949 -0.5958  0.3979  2.6568
 2176SOL     hw 8703   0.312   5.385   5.872 -2.7160  0.9902  1.5268
 2176SOL     vw 8704   0.310   5.330   5.939 -0.4966  0.0291  0.9127
 2177SOL     ow 8705   3.315   0.016   3.868 -0.1557  0.6625  0.4157
 2177SOL     hw 8706   3.281  -0.060   3.914  0.0187  1.8761  2.7308
 2177SOL     hw 8707   3.401  -0.011   3.836 -0.5034 -0.3979  0.3663
 2177SOL     vw 8708   3.322   0.003   3.870 -0.1786  0.6827  0.7148
 2178SOL     ow 8709   5.312   2.759   3.304  0.6211  0.5774  0.0516
 2178SOL     hw 8710   5.377   2.786   3.370 -0.5931 -2.5221  2.8298
 2178SOL     hw 8711   5.363   2.747   3.224  2.8871  1.2874  1.2941
 2178SOL     vw 8712   5.328   2.761   3.302  0.7601  0.2620  0.5820
 2179SOL     ow 8713   2.661   4.916   0.828 -0.9738  0.6466 -0.1272
 2179SOL     hw 8714   2.752   4.887   0.819 -0.6952  1.9670 -2.2465
 2179SOL     hw 8715   2.624   4.908   0.740 -3.3511 -1.0106  0.8880
 2179SOL     vw 8716   2.668   4.911   0.815 -1.2507  0.6022 -0.2728
 2180SOL     ow 8717   5.157   5.473   4.809  0.3939 -0.1486 -0.3529
 2180SOL     hw 8718   5.173   5.566   4.794 -2.1640  0.4294  0.0771
 2180SOL     hw 8719   5.144   5.437   4.721 -0.1617  0.2301 -0.4303
 2180SOL     vw 8720   5.158   5.481   4.795 -0.0167 -0.0226 -0.3064
 2181SOL     ow 8721   4.434   1.696   2.773  0.2954  0.0636 -0.0078
 2181SOL     hw 8722   4.353   1.646   2.786 -1.0298  2.0597 -0.1716
 2181SOL     hw 8723   4.461   1.720   2.862  0.5584 -0.3464  0.0267
 2181SOL     vw 8724   4.427   1.692   2.787  0.1550  0.2729 -0.0248
 2182SOL     ow 8725   2.740   0.405   4.991  0.2104  0.2243  0.3093
 2182SOL     hw 8726   2.708   0.492   5.014  3.6827  1.6293  0.4122
 2182SOL     hw 8727   2.787   0.374   5.069 -0.0165 -1.2684 -0.1038
 2182SOL     vw 8728   2.742   0.412   5.004  0.6386  0.2127  0.2685
 2183SOL     ow 8729   0.881   2.980   7.093 -0.4058  0.8012  0.2102
 2183SOL     hw 8730   0.867   3.067   7.055 -0.4807  1.2903  1.2951
 2183SOL     hw 8731   0.947   2.995   7.161  0.2463 -0.1739 -0.1946
 2183SOL     vw 8732   0.888   2.994   7.097 -0.3296  0.7371  0.2997
 2184SOL     ow 8733   7.556   3.558   0.159 -0.4873 -0.1846  0.2204
 2184SOL     hw 8734   7.615   3.606   0.217  1.1652 -1.8116  0.0019
 2184SOL     hw 8735   7.542   3.616   0.085  1.4989 -0.0175 -0.0715
 2184SOL     vw 8736   7.562   3.572   0.157 -0.0069 -0.3771  0.1530
 2185SOL     ow 8737   0.858   3.391   5.019 -0.4220  0.2405  0.1393
 2185SOL     hw 8738   0.880   3.449   5.092  1.6707  0.0625 -0.2697
 2185SOL     hw 8739   0.799   3.443   4.964  0.5438  1.6248  0.3314
 2185SOL     vw 8740   0.853   3.406   5.021 -0.0184  0.3996  0.1106
 2186SOL     ow 8741   6.503   5.134   3.983  1.0563 -0.3079 -0.4711
 2186SOL     hw 8742   6.501   5.181   4.067 -0.4363 -1.0579 -0.0584
 2186SOL     hw 8743   6.595   5.112   3.971  1.0432 -2.6623  2.4288
 2186SOL     vw 8744   6.515   5.137   3.993  0.8576 -0.7176 -0.0340
 2187SOL     ow 8745   1.296   1.337   2.964  0.2176  0.8308  0.2170
 2187SOL     hw 8746   1.258   1.346   3.051 -1.5785 -1.7232 -0.1956
 2187SOL     hw 8747   1.390   1.351   2.977 -0.0168  0.5576  2.5573
 2187SOL     vw 8748   1.304   1.340   2.977 -0.0503  0.4578  0.4712
 2188SOL     ow 8749   1.241   6.159   0.678 -1.1045 -0.0646 -0.0739
 2188SOL     hw 8750   1.187   6.191   0.606  0.1344 -3.3057 -2.7186
 2188SOL     hw 8751   1.200   6.076   0.703  1.1971 -1.4174 -0.5168
 2188SOL     vw 8752   1.228   6.152   0.672 -0.6374 -0.6709 -0.4812
 2189SOL     ow 8753   0.433   6.519   0.379 -0.2216 -0.3085  0.1427
 2189SOL     hw 8754   0.494   6.499   0.450 -1.5022 -0.2756  1.2966
 2189SOL     hw 8755   0.438   6.614   0.369 -0.6076 -0.2156  0.7534
 2189SOL     vw 8756   0.442   6.529   0.387 -0.4415 -0.2918  0.3755
 2190SOL     ow 8757   2.534   3.566   6.746 -0.5794  0.6455  0.1153
 2190SOL     hw 8758   2.595   3.540   6.814 -1.8562 -0.9744  0.7299
 2190SOL     hw 8759   2.589   3.595   6.673  0.8514  0.5627  1.1270
 2190SOL     vw 8760   2.549   3.566   6.745 -0.5590  0.4208  0.3300
 2191SOL     ow 8761   1.474   1.050   2.324  0.4547  0.0585 -0.1139
 2191SOL     hw 8762   1.480   1.121   2.388 -1.8005  0.6571 -0.4892
 2191SOL     hw 8763   1.393   1.005   2.346  2.6451 -3.6815  1.2878
 2191SOL     vw 8764   1.464   1.053   2.336  0.4461 -0.3560  0.0213
 2192SOL     ow 8765   3.438   1.320   1.697 -0.6984  0.4952 -0.0775
 2192SOL     hw 8766   3.354   1.289   1.732 -1.2050  0.6274 -1.1301
 2192SOL     hw 8767   3.487   1.350   1.774 -0.7689 -1.5319  0.7992
 2192SOL     vw 8768   3.433   1.320   1.712 -0.7745  0.2452 -0.1007
 2193SOL     ow 8769   7.050   2.412   6.096  0.0970 -0.3339 -0.1617
 2193SOL     hw 8770   7.029   2.328   6.054 -0.3755  0.4730 -1.6499
 2193SOL     hw 8771   7.091   2.389   6.179 -1.5224 -2.0282  0.2263
 2193SOL     vw 8772   7.053   2.398   6.101 -0.1791 -0.4511 -0.3071
 2194SOL     ow 8773   5.334   6.029   1.936 -0.6555  0.4237 -0.1490
 2194SOL     hw 8774   5.406   5.994   1.883 -0.1041  0.9366  0.2466
 2194SOL     hw 8775   5.377   6.089   1.998 -1.6168  2.3150 -1.2161
 2194SOL     vw 8776   5.350   6.032   1.937 -0.7093  0.7410 -0.2376
 2195SOL     ow 8777   6.094   2.124   6.026 -0.4109 -0.1653  0.4815
 2195SOL     hw 8778   6.035   2.167   6.088 -1.2012 -0.0666 -0.3164
 2195SOL     hw 8779   6.037   2.068   5.974  0.5500 -1.9652  1.2905
 2195SOL     vw 8780   6.079   2.122   6.027 -0.3884 -0.3897  0.4828
 2196SOL     ow 8781   6.955   2.956   6.602 -0.1069  0.1107 -0.3172
 2196SOL     hw 8782   6.950   2.871   6.558  0.1811 -0.7739  1.2890
 2196SOL     hw 8783   6.930   3.019   6.534  0.3185 -1.1769 -1.7368
 2196SOL     vw 8784   6.951   2.953   6.587 -0.0129 -0.1760 -0.2925
 2197SOL     ow 8785   3.012   4.831   2.118  0.2481 -0.0961 -0.1935
 2197SOL     hw 8786   3.100   4.818   2.155 -0.1290 -0.1494  0.6980
 2197SOL     hw 8787   3.016   4.788   2.033  1.4788  1.0134 -0.7328
 2197SOL     vw 8788   3.024   4.823   2.112  0.3607  0.0432 -0.1470
 2198SOL     ow 8789   0.020   3.936   2.196 -0.0592 -0.0461 -0.1907
 2198SOL     hw 8790   0.105   3.977   2.180  0.3180  0.6876  2.9015
 2198SOL     hw 8791   0.030   3.894   2.282 -2.3925 -1.2135 -0.4100
 2198SOL     vw 8792   0.032   3.936   2.205 -0.3173 -0.1034  0.1884
 2199SOL     ow 8793   4.106   7.396   5.461  0.2009  0.2522  0.2382
 2199SOL     hw 8794   4.051   7.459   5.507  0.7566  0.1224  1.1062
 2199SOL     hw 8795   4.079   7.311   5.496 -1.0924 -0.0961 -1.4946
 2199SOL     vw 8796   4.096   7.393   5.472  0.1037  0.1891  0.1245
 2200SOL     ow 8797   3.345   0.990   0.558  0.7568  0.9155 -0.3360
 2200SOL     hw 8798   3.394   1.050   0.501  0.2882  0.0457 -1.7144
 2200SOL     hw 8799   3.401   0.913   0.565  0.8516  1.0547  0.4817
 2200SOL     vw 8800   3.359   0.988   0.551  0.7073  0.8191 -0.4100
 2201SOL     ow 8801   7.442   0.053   4.190  0.5816  0.0923 -0.0355
 2201SOL     hw 8802   7.353   0.028   4.214  1.0956 -1.5393  0.2878
 2201SOL     hw 8803   7.433   0.092   4.103 -0.2688 -1.7209 -0.8221
 2201SOL     vw 8804   7.429   0.055   4.181  0.5372 -0.3622 -0.0966
 2202SOL     ow 8805   2.461   5.942   5.383  0.3605 -0.5608  0.4242
 2202SOL     hw 8806   2.505   5.881   5.323  1.8226 -1.6899  2.5285
 2202SOL     hw 8807   2.449   6.022   5.331  1.3224 -1.5527 -1.4420
 2202SOL     vw 8808   2.465   5.945   5.368  0.6803 -0.8407  0.4559
 2203SOL     ow 8809   7.058   3.923   3.386  0.3412  0.3749 -0.0935
 2203SOL     hw 8810   6.990   3.988   3.366  0.8085  1.2662  1.1154
 2203SOL     hw 8811   7.042   3.900   3.477  2.3286  1.4634  0.5984
 2203SOL     vw 8812   7.047   3.929   3.395  0.6649  0.6362  0.1572
 2204SOL     ow 8813   2.495   0.397   3.452  0.2486 -0.4879  0.0939
 2204SOL     hw 8814   2.585   0.386   3.420 -0.0490 -2.3121 -0.1993
 2204SOL     hw 8815   2.503   0.459   3.524  1.6192 -0.0123 -0.4222
 2204SOL     vw 8816   2.508   0.404   3.457  0.3903 -0.6658 -0.0129
 2205SOL     ow 8817   6.362   7.163   1.589  1.0142  0.2751  0.3521
 2205SOL     hw 8818   6.356   7.241   1.644  1.4353 -0.7213  1.8569
 2205SOL     hw 8819   6.401   7.194   1.507  1.6451  1.5455  1.1113
 2205SOL     vw 8820   6.366   7.178   1.585  1.1530  0.3111  0.6508
 2206SOL     ow 8821   3.987   3.308   4.079 -0.2946  0.0780  0.0551
 2206SOL     hw 8822   4.018   3.341   3.995 -0.4424 -0.9454 -0.4197
 2206SOL     hw 8823   3.920   3.243   4.057 -0.7394  0.1953  0.9817
 2206SOL     vw 8824   3.982   3.303   4.065 -0.3729 -0.0416  0.1144
 2207SOL     ow 8825   3.461   3.395   7.325  0.4026  0.0568 -0.4056
 2207SOL     hw 8826   3.552   3.406   7.351 -0.2247  2.3160  1.2369
 2207SOL     hw 8827   3.449   3.457   7.253  0.1332 -0.0922 -0.4891
 2207SOL     vw 8828   3.471   3.405   7.319  0.2842  0.3352 -0.1998
 2208SOL     ow 8829   3.868   2.416   5.403  0.3243 -0.6186 -0.5024
 2208SOL     hw 8830   3.916   2.403   5.485 -0.8892 -2.5184 -0.0250
 2208SOL     hw 8831   3.930   2.389   5.335  0.6705 -0.9825 -0.0537
 2208SOL     vw 8832   3.883   2.411   5.405  0.2099 -0.9172 -0.3803
 2209SOL     ow 8833   2.870   4.211   3.664 -0.0713 -0.3147 -0.1510
 2209SOL     hw 8834   2.874   4.137   3.724 -0.5547  0.3582  0.7355
 2209SOL     hw 8835   2.960   4.222   3.632  0.2088 -0.6129  0.5312
 2209SOL     vw 8836   2.882   4.203   3.667 -0.0981 -0.2651  0.0559
 2210SOL     ow 8837   3.564   4.047   5.897 -0.2744  0.5956  1.0877
 2210SOL     hw 8838   3.544   3.991   5.822  0.5997  1.6077  0.0486
 2210SOL     hw 8839   3.584   3.986   5.968  1.1215 -0.4386 -0.1261
 2210SOL     vw 8840   3.564   4.032   5.896  0.0252  0.5925  0.7904
 2211SOL     ow 8841   6.691   6.024   6.429 -0.6516 -0.0025  0.5741
 2211SOL     hw 8842   6.688   5.955   6.495 -1.7659  0.0209  0.5721
 2211SOL     hw 8843   6.655   5.982   6.350 -0.5346  0.3353  0.3429
 2211SOL     vw 8844   6.686   6.009   6.427 -0.7832  0.0451  0.5436
 2212SOL     ow 8845   0.818   4.311   1.849  0.5730  0.4900  0.3572
 2212SOL     hw 8846   0.750   4.335   1.786  0.8395  1.1117  0.3045
 2212SOL     hw 8847   0.782   4.234   1.894 -1.1223  2.0093  1.7803
 2212SOL     vw 8848   0.804   4.304   1.847  0.3845  0.7722  0.5381
 2213SOL     ow 8849   5.560   3.414   2.173 -0.5156  0.2021 -0.1264
 2213SOL     hw 8850   5.614   3.446   2.101  0.1403  0.0063  0.2648
 2213SOL     hw 8851   5.615   3.351   2.219 -0.1364  1.7546  1.7219
 2213SOL     vw 8852   5.574   3.410   2.170 -0.3791  0.3811  0.1692
 2214SOL     ow 8853   0.522   7.351   2.708  0.1478 -0.0905  0.7015
 2214SOL     hw 8854   0.603   7.388   2.742 -1.9751  4.0141  2.0088
 2214SOL     hw 8855   0.478   7.313   2.784  0.9080 -2.8345 -0.0986
 2214SOL     vw 8856   0.527   7.351   2.722 -0.0320  0.0889  0.7683
 2215SOL     ow 8857   5.453   3.140   2.816  0.1019  0.0440  0.3150
 2215SOL     hw 8858   5.420   3.125   2.905  0.0916  3.6179  1.0664
 2215SOL     hw 8859   5.420   3.227   2.793  1.7726  0.0609 -2.4299
 2215SOL     vw 8860   5.444   3.150   2.825  0.3209  0.5178  0.0521
 2216SOL     ow 8861   2.185   7.201   3.679  0.2110 -0.2387  0.0648
 2216SOL     hw 8862   2.097   7.164   3.665 -0.3227  0.9825  0.0734
 2216SOL     hw 8863   2.228   7.137   3.736 -1.6725  0.4717  2.5022
 2216SOL     vw 8864   2.179   7.187   3.685 -0.1078  0.0160  0.3877
 2217SOL     ow 8865   0.643   0.619   7.580 -0.1560 -0.3719 -0.0044
 2217SOL     hw 8866   0.556   0.654   7.598 -0.2912 -0.5145 -0.3735
 2217SOL     hw 8867   0.702   0.672   7.633 -0.6273 -1.3956  1.6363
 2217SOL     vw 8868   0.640   0.630   7.590 -0.2360 -0.5258  0.1633
 2218SOL     ow 8869   2.627   1.178   6.223  0.2445 -0.5626 -0.1129
 2218SOL     hw 8870   2.673   1.249   6.178 -0.7289 -0.6148 -1.2503
 2218SOL     hw 8871   2.599   1.119   6.152 -1.1422 -0.7629  0.5635
 2218SOL     vw 8872   2.629   1.180   6.207 -0.0670 -0.5960 -0.1740
 2219SOL     ow 8873   6.167   4.412   2.808 -0.4995  0.0158 -0.1167
 2219SOL     hw 8874   6.244   4.356   2.812 -0.7116 -0.3113 -0.4843
 2219SOL     hw 8875   6.198   4.497   2.838 -0.3867 -0.5000  1.3181
 2219SOL     vw 8876   6.181   4.416   2.812 -0.5126 -0.0951  0.0242
 2220SOL     ow 8877   4.543   5.687   5.900 -0.6676 -0.5504  0.2550
 2220SOL     hw 8878   4.512   5.632   5.828 -2.0881  1.6897 -1.0081
 2220SOL     hw 8879   4.638   5.683   5.894 -0.7323 -0.5310 -1.7657
 2220SOL     vw 8880   4.551   5.679   5.889 -0.8636 -0.2522 -0.1781
 2221SOL     ow 8881   2.399   4.323   0.525  0.1681  0.1372 -0.2072
 2221SOL     hw 8882   2.443   4.311   0.441 -0.0068  0.2075 -0.3114
 2221SOL     hw 8883   2.407   4.417   0.543 -0.2544  0.2131 -0.4060
 2221SOL     vw 8884   2.406   4.334   0.516  0.0894  0.1564 -0.2472
 2222SOL     ow 8885   3.233   4.906   5.772  0.1803 -0.8490  0.5453
 2222SOL     hw 8886   3.190   4.856   5.702 -1.7995  0.5750  0.6607
 2222SOL     hw 8887   3.324   4.914   5.743 -0.2168 -1.7067 -1.0628
 2222SOL     vw 8888   3.240   4.900   5.759 -0.1332 -0.7741  0.3486
 2223SOL     ow 8889   5.545   2.499   4.675 -0.0692  0.5866  0.4510
 2223SOL     hw 8890   5.614   2.437   4.647 -0.1241  0.5721  0.3477
 2223SOL     hw 8891   5.587   2.585   4.668 -0.3094  0.6482 -0.3901
 2223SOL     vw 8892   5.560   2.502   4.670 -0.1082  0.5928  0.3264
 2224SOL     ow 8893   2.401   5.126   2.282  0.2404 -0.8181 -0.1977
 2224SOL     hw 8894   2.402   5.047   2.228 -0.6507 -0.5147 -0.6800
 2224SOL     hw 8895   2.308   5.144   2.296  0.4243  0.3954 -0.4616
 2224SOL     vw 8896   2.389   5.118   2.277  0.1472 -0.6182 -0.2960
 2225SOL     ow 8897   4.299   0.624   3.344 -0.1966 -0.5972 -0.8322
 2225SOL     hw 8898   4.376   0.679   3.329 -0.2753 -0.6811 -1.5676
 2225SOL     hw 8899   4.334   0.535   3.350 -0.0978 -0.5082  0.1149
 2225SOL     vw 8900   4.314   0.620   3.343 -0.1941 -0.5965 -0.8043
 2226SOL     ow 8901   7.539   0.406   6.639  0.0917 -0.0532 -0.3108
 2226SOL     hw 8902   7.544   0.344   6.711  0.4426  0.5294  0.1840
 2226SOL     hw 8903   7.522   0.353   6.562  1.0320 -0.8347 -0.0009
 2226SOL     vw 8904   7.538   0.391   6.639  0.2620 -0.0794 -0.2048
 2227SOL     ow 8905   2.389   0.629   5.268 -0.5728  0.1344  0.6729
 2227SOL     hw 8906   2.367   0.616   5.360 -1.5999 -1.0710  0.2859
 2227SOL     hw 8907   2.333   0.701   5.240 -0.3783  0.3927  0.9421
 2227SOL     vw 8908   2.379   0.637   5.277 -0.6827  0.0094  0.6573
 2228SOL     ow 8909   5.294   1.582   5.412  0.2537 -0.1141  0.6732
 2228SOL     hw 8910   5.363   1.618   5.356  0.1503  1.9728  1.8199
 2228SOL     hw 8911   5.342   1.531   5.478  0.5285 -0.5458  0.1522
 2228SOL     vw 8912   5.310   1.580   5.413  0.2763  0.1043  0.7553
 2229SOL     ow 8913   5.895   6.622   1.848  0.4453 -0.4950 -0.5527
 2229SOL     hw 8914   5.861   6.534   1.835 -0.9568 -0.3151  1.4451
 2229SOL     hw 8915   5.898   6.633   1.943 -1.3663  2.3006 -0.7047
 2229SOL     vw 8916   5.891   6.612   1.859  0.0212 -0.1023 -0.3092
 2230SOL     ow 8917   2.957   0.147   4.204 -0.0013 -0.7062 -0.2333
 2230SOL     hw 8918   3.007   0.065   4.207 -1.1317 -1.4062  0.3317
 2230SOL     hw 8919   2.962   0.181   4.294 -2.2620 -1.9035  0.4209
 2230SOL     vw 8920   2.964   0.140   4.217 -0.4487 -0.9565 -0.0722
 2231SOL     ow 8921   1.756   3.873   3.754 -0.1309 -0.3718 -0.1644
 2231SOL     hw 8922   1.697   3.805   3.787 -0.7180  0.3158  0.2311
 2231SOL     hw 8923   1.699   3.948   3.739  0.6631  0.3489  0.3602
 2231SOL     vw 8924   1.741   3.874   3.757 -0.1036 -0.1860 -0.0429
 2232SOL     ow 8925   5.655   6.932   2.543  0.1214 -0.4014 -0.4156
 2232SOL     hw 8926   5.594   7.003   2.564  0.1504 -0.3045 -0.6517
 2232SOL     hw 8927   5.674   6.891   2.627  0.1163 -0.1198 -0.2754
 2232SOL     vw 8928   5.650   6.936   2.557  0.1247 -0.3517 -0.4283
 2233SOL     ow 8929   2.539   6.071   1.398 -0.2613 -0.0345 -0.0395
 2233SOL     hw 8930   2.560   6.151   1.446 -1.8797  1.3002 -1.4354
 2233SOL     hw 8931   2.512   6.009   1.466  0.7614  0.6390  1.0401
 2233SOL     vw 8932   2.539   6.074   1.414 -0.3400  0.2306 -0.0811
 2234SOL     ow 8933   5.201   2.796   1.843  0.5465  0.3740  0.7851
 2234SOL     hw 8934   5.184   2.731   1.911  0.7300  1.5234  1.9619
 2234SOL     hw 8935   5.275   2.847   1.876  0.6299  0.9684 -0.2797
 2234SOL     vw 8936   5.209   2.794   1.856  0.5815  0.6042  0.7999
 2235SOL     ow 8937   4.013   0.479   5.256 -0.7294  0.0646  0.5275
 2235SOL     hw 8938   3.934   0.485   5.203 -0.2939 -2.7971 -0.6681
 2235SOL     hw 8939   4.080   0.525   5.206 -1.0009 -0.0287  0.0768
 2235SOL     vw 8940   4.012   0.486   5.243 -0.7079 -0.3252  0.3104
 2236SOL     ow 8941   2.706   2.652   4.925  0.2160  0.1858  0.2615
 2236SOL     hw 8942   2.766   2.600   4.872 -0.2007 -0.1553  0.1201
 2236SOL     hw 8943   2.642   2.589   4.958 -1.8131  0.9256 -1.9328
 2236SOL     vw 8944   2.705   2.637   4.923 -0.1067  0.2383 -0.0467
 2237SOL     ow 8945   1.847   1.230   6.363  0.2295  0.1290 -0.2798
 2237SOL     hw 8946   1.852   1.199   6.273  0.6413 -1.1488  0.1696
 2237SOL     hw 8947   1.756   1.258   6.374 -0.4831 -1.9903 -0.3727
 2237SOL     vw 8948   1.836   1.230   6.352  0.1898 -0.3192 -0.2327
 2238SOL     ow 8949   0.280   1.463   6.915  0.5495 -0.5648 -0.3477
 2238SOL     hw 8950   0.348   1.423   6.969 -0.7647 -0.9412  1.1137
 2238SOL     hw 8951   0.277   1.554   6.944 -0.6471 -0.9381  0.7834
 2238SOL     vw 8952   0.289   1.469   6.926  0.2182 -0.6637 -0.0055
 2239SOL     ow 8953   4.787   7.519   7.533 -0.1086 -0.2110 -0.5043
 2239SOL     hw 8954   4.878   7.526   7.506  0.0722  1.2700  0.3590
 2239SOL     hw 8955   4.746   7.599   7.498 -0.6730 -0.0398  0.5088
 2239SOL     vw 8956   4.793   7.531   7.524 -0.1593  0.0072 -0.2568
 2240SOL     ow 8957   6.138   5.148   4.047 -0.3737 -0.2039  0.3983
 2240SOL     hw 8958   6.132   5.215   3.980 -1.8466 -1.1908 -0.5245
 2240SOL     hw 8959   6.210   5.177   4.104 -1.3144  2.4079  0.3855
 2240SOL     vw 8960   6.147   5.160   4.045 -0.6919  0.0105  0.2749
 2241SOL     ow 8961   1.909   1.376   5.784 -0.2205  0.7834 -0.2751
 2241SOL     hw 8962   1.938   1.390   5.694  4.7471  1.0749  1.0856
 2241SOL     hw 8963   1.937   1.286   5.804  0.4620  1.3443  1.4654
 2241SOL     vw 8964   1.916   1.366   5.775  0.5249  0.8959  0.1340
 2242SOL     ow 8965   7.070   1.380   1.728  0.7506 -0.0798  0.0113
 2242SOL     hw 8966   7.076   1.435   1.650  3.2818 -0.7476 -0.3436
 2242SOL     hw 8967   7.092   1.439   1.800 -1.9699  0.6352  0.3659
 2242SOL     vw 8968   7.074   1.395   1.727  0.7253 -0.0736  0.0113
 2243SOL     ow 8969   4.982   1.683   4.229 -0.0706  0.1274 -0.3819
 2243SOL     hw 8970   4.977   1.602   4.177 -1.6361  0.0212 -0.1208
 2243SOL     hw 8971   4.995   1.752   4.164 -2.0835  0.0085 -1.0070
 2243SOL     vw 8972   4.983   1.681   4.213 -0.5426  0.0978 -0.4299
 2244SOL     ow 8973   3.679   3.142   6.984 -0.0604 -0.2365  0.0512
 2244SOL     hw 8974   3.597   3.101   6.957  0.1077 -0.5841  0.0642
 2244SOL     hw 8975   3.733   3.143   6.905 -0.8635  1.9922 -0.5508
 2244SOL     vw 8976   3.676   3.137   6.970 -0.1442  0.0117 -0.0265
 2245SOL     ow 8977   0.963   4.828   1.118  0.2497  0.6080 -0.0426
 2245SOL     hw 8978   0.918   4.752   1.155 -2.6655  2.1313 -0.1356
 2245SOL     hw 8979   1.001   4.795   1.036 -0.0759 -0.9608  0.3910
 2245SOL     vw 8980   0.962   4.813   1.112 -0.1779  0.6020  0.0023
 2246SOL     ow 8981   5.174   5.849   5.504 -0.2905  0.6028  0.0512
 2246SOL     hw 8982   5.081   5.841   5.482 -0.4743  2.4513  0.0265
 2246SOL     hw 8983   5.179   5.821   5.595 -0.4593 -1.6381 -0.5554
 2246SOL     vw 8984   5.162   5.844   5.513 -0.3371  0.5510 -0.0322
 2247SOL     ow 8985   1.966   5.426   3.429  0.0159  0.3650  0.6831
 2247SOL     hw 8986   1.884   5.393   3.466  0.5831  0.5919  2.1991
 2247SOL     hw 8987   2.030   5.358   3.450  0.2367  0.2126 -0.4476
 2247SOL     vw 8988   1.964   5.413   3.437  0.1199  0.3750  0.7340
 2248SOL     ow 8989   3.325   7.359   1.825  0.4283 -0.4622 -0.0217
 2248SOL     hw 8990   3.369   7.404   1.897 -1.0918  1.1300 -0.0226
 2248SOL     hw 8991   3.276   7.288   1.868 -1.8845  1.5196  0.8850
 2248SOL     vw 8992   3.324   7.356   1.840 -0.0774  0.0093  0.0979
 2249SOL     ow 8993   2.395   3.411   1.093 -0.1476 -0.3678 -0.0242
 2249SOL     hw 8994   2.437   3.326   1.082  1.1601  0.5523 -3.1236
 2249SOL     hw 8995   2.463   3.468   1.128 -0.6168 -0.2671  0.7370
 2249SOL     vw 8996   2.409   3.407   1.096 -0.0370 -0.2331 -0.3327
 2250SOL     ow 8997   2.407   2.439   3.498 -0.0312 -0.3011  0.0719
 2250SOL     hw 8998   2.434   2.524   3.463 -3.3979 -0.1122 -2.5414
 2250SOL     hw 8999   2.466   2.376   3.457 -0.6507  0.3994 -2.0008
 2250SOL     vw 9000   2.418   2.442   3.488 -0.5571 -0.1837 -0.5463
 2251SOL     ow 9001   3.454   5.555   7.291 -0.2214 -0.3508 -0.3526
 2251SOL     hw 9002   3.541   5.555   7.330 -0.4158  1.4417  0.1797
 2251SOL     hw 9003   3.452   5.635   7.238 -1.6358 -0.1679 -0.0648
 2251SOL     vw 9004   3.465   5.566   7.289 -0.4336 -0.0904 -0.2441
 2252SOL     ow 9005   5.214   4.955   7.405  0.6163  0.2931  0.1830
 2252SOL     hw 9006   5.256   5.019   7.462 -0.7521  0.8248  0.6246
 2252SOL     hw 9007   5.287   4.913   7.359  1.7320  0.0915  2.0421
 2252SOL     vw 9008   5.230   4.958   7.406  0.5827  0.3369  0.4866
 2253SOL     ow 9009   6.198   2.445   3.023 -0.7751 -0.8116  0.0328
 2253SOL     hw 9010   6.174   2.363   3.066 -2.5084 -0.3470  0.0443
 2253SOL     hw 9011   6.127   2.461   2.961 -0.6150  0.8113  0.2269
 2253SOL     vw 9012   6.185   2.436   3.021 -0.9823 -0.5362  0.0601
 2254SOL     ow 9013   1.193   2.302   5.100 -0.6747  0.0855  0.0449
 2254SOL     hw 9014   1.254   2.244   5.146 -1.3705 -0.0727  0.7738
 2254SOL     hw 9015   1.208   2.388   5.138  2.0070  0.9650 -2.5947
 2254SOL     vw 9016   1.203   2.305   5.111 -0.4128  0.1807 -0.2072
 2255SOL     ow 9017   5.024   2.181   7.568  0.1542  0.3569  0.1720
 2255SOL     hw 9018   4.976   2.151   7.646  2.0016 -1.9632  0.5291
 2255SOL     hw 9019   4.960   2.174   7.497 -0.7039 -0.4551  0.9861
 2255SOL     vw 9020   5.009   2.176   7.569  0.2849 -0.0564  0.3264
 2256SOL     ow 9021   4.538   2.554   1.213 -1.1355  0.1456 -0.7535
 2256SOL     hw 9022   4.473   2.498   1.256 -2.0037  2.0045  0.4998
 2256SOL     hw 9023   4.604   2.570   1.281 -0.7200  0.3637 -1.2046
 2256SOL     vw 9024   4.538   2.549   1.228 -1.1952  0.4195 -0.6476
 2257SOL     ow 9025   6.239   0.003   4.525 -0.1995  0.1156  0.1733
 2257SOL     hw 9026   6.175  -0.053   4.570 -0.1769 -0.7282 -0.7991
 2257SOL     hw 9027   6.301   0.028   4.593 -0.1469 -1.1499  0.6188
 2257SOL     vw 9028   6.239  -0.001   4.540 -0.1898 -0.1627  0.1040
 2258SOL     ow 9029   5.165   6.645   2.491  0.4799 -0.1080  0.7244
 2258SOL     hw 9030   5.226   6.573   2.506  0.9313 -0.0243 -0.5483
 2258SOL     hw 9031   5.080   6.602   2.482  0.8470 -0.6149 -0.7750
 2258SOL     vw 9032   5.162   6.630   2.492  0.5879 -0.1638  0.3587
 2259SOL     ow 9033   1.799   4.075   4.253  0.7244  0.1894  0.3813
 2259SOL     hw 9034   1.854   4.005   4.289  3.1219  0.8962 -1.6675
 2259SOL     hw 9035   1.818   4.075   4.159 -1.6318  1.5558 -0.1891
 2259SOL     vw 9036   1.809   4.065   4.245  0.7299  0.4630  0.0360
 2260SOL     ow 9037   2.611   5.510   3.525  0.0973  0.2972  0.2069
 2260SOL     hw 9038   2.555   5.572   3.478 -1.8834  0.2014  2.2793
 2260SOL     hw 9039   2.591   5.425   3.486 -0.7643  0.3491  0.5272
 2260SOL     vw 9040   2.601   5.507   3.514 -0.2778  0.2913  0.5225
 2261SOL     ow 9041   3.785   3.602   5.164  0.0827  0.8477  0.0049
 2261SOL     hw 9042   3.709   3.546   5.181 -1.9640  3.4383 -0.0544
 2261SOL     hw 9043   3.779   3.624   5.071  0.2210  1.9821  0.2497
 2261SOL     vw 9044   3.774   3.598   5.154 -0.1692  1.3393  0.0293
 2262SOL     ow 9045   2.379   4.563   0.623 -0.4923  0.3021 -0.1311
 2262SOL     hw 9046   2.417   4.619   0.691 -1.1837 -1.9224  2.2179
 2262SOL     hw 9047   2.290   4.545   0.653 -0.5583 -1.3851 -1.2189
 2262SOL     vw 9048   2.372   4.568   0.636 -0.5922 -0.2141  0.0353
 2263SOL     ow 9049   4.251   7.434   1.469  0.6105 -0.1855 -0.0609
 2263SOL     hw 9050   4.252   7.527   1.445  1.0012 -0.1181  0.2161
 2263SOL     hw 9051   4.287   7.390   1.392 -0.5052 -0.2059 -0.5900
 2263SOL     vw 9052   4.256   7.441   1.456  0.5150 -0.1793 -0.0942
 2264SOL     ow 9053   7.525   1.219   0.879 -0.0974 -0.4579 -0.2459
 2264SOL     hw 9054   7.523   1.212   0.784 -2.0395 -0.0506 -0.2705
 2264SOL     hw 9055   7.561   1.306   0.896 -3.4879  1.2259 -0.8092
 2264SOL     vw 9056   7.530   1.229   0.869 -0.8011 -0.1820 -0.3234
 2265SOL     ow 9057   3.297   1.587   2.576  0.1983  0.3123 -0.1581
 2265SOL     hw 9058   3.360   1.567   2.506  2.1624 -2.6107  2.1742
 2265SOL     hw 9059   3.347   1.638   2.639 -0.7850  0.7764  0.2504
 2265SOL     vw 9060   3.312   1.591   2.575  0.3277 -0.0122  0.2035
 2266SOL     ow 9061   0.329   1.384   2.472 -0.2751 -0.1289  0.4056
 2266SOL     hw 9062   0.241   1.410   2.444 -0.8216 -1.0919  1.2014
 2266SOL     hw 9063   0.321   1.293   2.499  0.8687 -0.0948  0.9398
 2266SOL     vw 9064   0.316   1.376   2.472 -0.1963 -0.2514  0.5810
 2267SOL     ow 9065   2.526   3.806   7.275 -0.3396 -0.3357  0.1868
 2267SOL     hw 9066   2.575   3.723   7.277 -0.8975 -0.6703  1.3108
 2267SOL     hw 9067   2.496   3.818   7.366 -0.1995  1.1493  0.0617
 2267SOL     vw 9068   2.528   3.796   7.288 -0.3947 -0.1839  0.3188
 2268SOL     ow 9069   4.302   5.369   3.134 -0.7845 -0.2475  0.3921
 2268SOL     hw 9070   4.240   5.382   3.206 -0.3662  1.8378  0.4566
 2268SOL     hw 9071   4.388   5.378   3.174 -0.5277  0.0057 -0.1936
 2268SOL     vw 9072   4.305   5.372   3.149 -0.6952  0.0608  0.3235
 2269SOL     ow 9073   6.009   5.314   2.740  0.8050 -0.4972 -0.0133
 2269SOL     hw 9074   5.948   5.387   2.740 -0.5277 -1.5702 -0.0209
 2269SOL     hw 9075   5.954   5.236   2.748  2.2238 -1.4633  0.9943
 2269SOL     vw 9076   5.994   5.313   2.741  0.8161 -0.7663  0.1186
 2270SOL     ow 9077   0.230   3.369   7.310 -1.0080 -0.2049  0.1168
 2270SOL     hw 9078   0.220   3.281   7.274 -0.0958 -1.1470  2.0404
 2270SOL     hw 9079   0.308   3.364   7.365 -1.2669  1.6576  0.7137
 2270SOL     vw 9080   0.239   3.356   7.312 -0.9218 -0.0833  0.4494
 2271SOL     ow 9081   4.828   0.747   0.715 -0.3967  0.0733  0.0075
 2271SOL     hw 9082   4.780   0.700   0.647  0.9742 -0.0977 -0.8931
 2271SOL     hw 9083   4.846   0.680   0.781 -0.5000 -0.1082 -0.1454
 2271SOL     vw 9084   4.824   0.732   0.715 -0.2296  0.0268 -0.1315
 2272SOL     ow 9085   5.295   2.208   0.022  0.0210 -0.1130  0.2235
 2272SOL     hw 9086   5.362   2.225   0.088 -0.6300  1.0415  0.6121
 2272SOL     hw 9087   5.343   2.168  -0.051  1.5658  2.5099 -0.3435
 2272SOL     vw 9088   5.310   2.205   0.021  0.1390  0.3854  0.1998
 2273SOL     ow 9089   2.376   3.873   3.896  0.6583  0.1535  0.1924
 2273SOL     hw 9090   2.466   3.875   3.861  0.6951  0.9443  0.3039
 2273SOL     hw 9091   2.321   3.880   3.818  0.7328  1.4289  0.2353
 2273SOL     vw 9092   2.381   3.874   3.881  0.6731  0.4262  0.2128
 2274SOL     ow 9093   3.566   6.332   1.905  0.0325 -0.4829 -0.7709
 2274SOL     hw 9094   3.534   6.245   1.928 -2.1140  0.6524  0.9030
 2274SOL     hw 9095   3.608   6.364   1.985  1.1112 -0.0911 -1.4755
 2274SOL     vw 9096   3.567   6.325   1.919 -0.1084 -0.2816 -0.6430
 2275SOL     ow 9097   6.304   0.121   1.889  0.0771 -0.1759 -0.0165
 2275SOL     hw 9098   6.354   0.203   1.884 -3.9860  2.5706 -1.0047
 2275SOL     hw 9099   6.365   0.054   1.860  4.3452  1.9934  2.8351
 2275SOL     vw 9100   6.319   0.123   1.884  0.1042  0.4727  0.2294
 2276SOL     ow 9101   1.763   7.020   6.732 -0.1124  0.3279 -0.4192
 2276SOL     hw 9102   1.729   6.982   6.651  0.6417 -0.7828 -0.2415
 2276SOL     hw 9103   1.715   6.975   6.801  0.4802 -0.0132 -0.2189
 2276SOL     vw 9104   1.752   7.009   6.730  0.0653  0.1364 -0.3691
 2277SOL     ow 9105   4.450   5.762   7.145  0.0102 -0.0709  0.3538
 2277SOL     hw 9106   4.537   5.799   7.127 -0.2356  0.7661  0.8329
 2277SOL     hw 9107   4.399   5.836   7.179 -1.1074 -0.3689 -0.5856
 2277SOL     vw 9108   4.455   5.777   7.147 -0.1698  0.0002  0.2930
 2278SOL     ow 9109   1.576   6.625   6.744 -0.4485  0.3353  0.5785
 2278SOL     hw 9110   1.581   6.556   6.678  0.5640  0.2822  0.6915
 2278SOL     hw 9111   1.578   6.706   6.694  0.4955  0.2987  0.5332
 2278SOL     vw 9112   1.577   6.626   6.729 -0.1903  0.3238  0.5877
 2279SOL     ow 9113   1.078   1.024   1.681  0.0913 -0.6067 -0.3559
 2279SOL     hw 9114   1.113   1.020   1.592 -1.2045 -0.6685 -0.8801
 2279SOL     hw 9115   1.085   0.934   1.713 -1.9654 -1.1955 -1.4236
 2279SOL     vw 9116   1.084   1.012   1.673 -0.3510 -0.6925 -0.5659
 2280SOL     ow 9117   0.513   4.756   5.554  0.0476 -0.4476  0.2622
 2280SOL     hw 9118   0.424   4.727   5.531 -0.4824  0.1089  1.5005
 2280SOL     hw 9119   0.501   4.842   5.593  1.4207  0.7262 -1.7382
 2280SOL     vw 9120   0.499   4.763   5.556  0.1589 -0.2193  0.1616
 2281SOL     ow 9121   4.736   3.047   4.319  0.0157 -0.3376  0.4250
 2281SOL     hw 9122   4.736   2.965   4.368 -1.9327 -0.0172  1.0602
 2281SOL     hw 9123   4.696   3.111   4.379  1.4006  1.0784 -0.0826
 2281SOL     vw 9124   4.730   3.045   4.334 -0.0587 -0.1085  0.4418
 2282SOL     ow 9125   2.618   5.842   1.210  0.6761  0.1057 -0.6285
 2282SOL     hw 9126   2.657   5.791   1.139  0.2925 -1.3444  0.1527
 2282SOL     hw 9127   2.524   5.829   1.199  0.3946  2.6729 -1.8465
 2282SOL     vw 9128   2.611   5.834   1.199  0.5883  0.2530 -0.6862
 2283SOL     ow 9129   2.140   5.120   2.372  0.1548 -0.0095  0.3060
 2283SOL     hw 9130   2.105   5.070   2.297 -0.5486  0.1575  0.5163
 2283SOL     hw 9131   2.132   5.211   2.345 -0.3401  0.0602  0.6883
 2283SOL     vw 9132   2.135   5.125   2.358 -0.0033  0.0215  0.3842
 2284SOL     ow 9133   2.282   2.927   4.194 -0.2416 -0.6294  0.4434
 2284SOL     hw 9134   2.271   2.943   4.101 -3.1731 -0.9702  0.6475
 2284SOL     hw 9135   2.316   3.009   4.230  1.9844 -0.8312 -0.9912
 2284SOL     vw 9136   2.285   2.940   4.187 -0.3347 -0.7011  0.2811
 2285SOL     ow 9137   0.374   6.894   4.659  0.2651  0.5442  0.2595
 2285SOL     hw 9138   0.389   6.800   4.649 -0.5697  0.2480  1.5915
 2285SOL     hw 9139   0.296   6.911   4.607 -1.3142 -0.0974  2.2995
 2285SOL     vw 9140   0.366   6.884   4.651 -0.0534  0.4203  0.7043
 2286SOL     ow 9141   0.470   3.093   5.378 -0.2274  0.7302 -0.4618
 2286SOL     hw 9142   0.475   3.040   5.298 -1.3589  0.8200 -0.6103
 2286SOL     hw 9143   0.384   3.074   5.414  0.3880  0.4723  0.9122
 2286SOL     vw 9144   0.460   3.084   5.372 -0.2955  0.7080 -0.3002
 2287SOL     ow 9145   5.634   1.148   2.203 -0.2006 -0.5473  0.2923
 2287SOL     hw 9146   5.654   1.229   2.248  0.4490 -0.9668  0.7713
 2287SOL     hw 9147   5.564   1.171   2.142  1.1482  0.7634 -0.8362
 2287SOL     vw 9148   5.627   1.162   2.201  0.0629 -0.4297  0.2066
 2288SOL     ow 9149   3.580   0.167   6.638  0.1537 -0.2178 -0.3392
 2288SOL     hw 9150   3.533   0.140   6.559  0.6081  0.9980 -1.0544
 2288SOL     hw 9151   3.673   0.157   6.614  0.3358  1.6475 -0.5456
 2288SOL     vw 9152   3.586   0.162   6.624  0.2377  0.1887 -0.4606
 2289SOL     ow 9153   6.487   7.285   2.229 -0.0652 -0.3224 -0.0297
 2289SOL     hw 9154   6.437   7.317   2.303 -2.4633 -1.2557 -1.1561
 2289SOL     hw 9155   6.548   7.356   2.208 -1.9612  1.5268  0.4713
 2289SOL     vw 9156   6.489   7.298   2.236 -0.6320 -0.2015 -0.1122
 2290SOL     ow 9157   7.167   6.391   2.245  0.1318  0.4788  0.6799
 2290SOL     hw 9158   7.231   6.332   2.204 -1.8761 -3.2503  2.4335
 2290SOL     hw 9159   7.199   6.402   2.335 -1.6702 -1.7250  1.6887
 2290SOL     vw 9160   7.180   6.385   2.251 -0.3710 -0.3042  1.0445
 2291SOL     ow 9161   5.158   2.981   2.869 -0.4114  0.5803 -0.5884
 2291SOL     hw 9162   5.151   3.066   2.825 -2.8028  0.4445 -0.6323
 2291SOL     hw 9163   5.109   2.921   2.812  1.0608 -0.8044 -0.4509
 2291SOL     vw 9164   5.150   2.985   2.856 -0.5326  0.3796 -0.5760
 2292SOL     ow 9165   2.789   0.816   1.422 -0.0742  1.0017 -0.2792
 2292SOL     hw 9166   2.790   0.742   1.362  0.2787 -0.2324  1.1781
 2292SOL     hw 9167   2.860   0.873   1.393  0.9930 -0.2576 -0.2318
 2292SOL     vw 9168   2.798   0.814   1.411  0.1131  0.6727 -0.0806
 2293SOL     ow 9169   1.212   7.305   1.790 -0.1867 -0.4405  0.2301
 2293SOL     hw 9170   1.155   7.324   1.865 -2.2650  0.8260 -1.5366
 2293SOL     hw 9171   1.174   7.226   1.751 -0.2326 -0.0875 -0.4575
 2293SOL     vw 9172   1.199   7.297   1.795 -0.4668 -0.2270 -0.0937
 2294SOL     ow 9173   5.364   3.399   2.719 -0.0625 -0.2775  0.3371
 2294SOL     hw 9174   5.290   3.342   2.699  0.0111 -0.6327  1.0275
 2294SOL     hw 9175   5.424   3.389   2.645 -1.0248  0.5771 -0.5791
 2294SOL     vw 9176   5.362   3.390   2.707 -0.1798 -0.2117  0.3072
 2295SOL     ow 9177   7.412   2.168   0.086 -0.6755  0.1385 -1.1461
 2295SOL     hw 9178   7.353   2.173   0.011  1.1325 -1.1146 -2.7627
 2295SOL     hw 9179   7.463   2.088   0.071  1.2350  1.0060  0.2939
 2295SOL     vw 9180   7.411   2.158   0.075 -0.1850  0.0877 -1.1694
 2296SOL     ow 9181   0.831   4.963   7.479 -0.9585 -0.3091 -0.5276
 2296SOL     hw 9182   0.830   4.900   7.407 -2.1823 -1.9059  0.8257
 2296SOL     hw 9183   0.745   5.005   7.475 -0.5411  0.5470 -0.7685
 2296SOL     vw 9184   0.820   4.961   7.469 -1.0648 -0.4072 -0.3810
 2297SOL     ow 9185   5.469   5.218   5.782 -0.6304 -0.3537 -0.1162
 2297SOL     hw 9186   5.479   5.166   5.702  0.8032 -1.0608  0.4878
 2297SOL     hw 9187   5.532   5.181   5.843 -3.5212 -1.6756  2.3682
 2297SOL     vw 9188   5.478   5.207   5.779 -0.8228 -0.6213  0.2913
 2298SOL     ow 9189   1.391   1.938   4.691 -0.8224 -0.0761 -0.6631
 2298SOL     hw 9190   1.321   2.001   4.709 -1.2292 -0.2224 -1.6529
 2298SOL     hw 9191   1.365   1.859   4.738 -0.8764  0.1446 -0.3183
 2298SOL     vw 9192   1.378   1.936   4.700 -0.8832 -0.0662 -0.7482
 2299SOL     ow 9193   6.836   4.368   2.581  0.2463  1.0704 -0.1070
 2299SOL     hw 9194   6.815   4.412   2.499 -0.4122  0.2608 -0.3900
 2299SOL     hw 9195   6.770   4.299   2.588 -0.3242  1.7308  1.5793
 2299SOL     vw 9196   6.824   4.365   2.571  0.0839  1.0507  0.0781
 2300SOL     ow 9197   3.291   4.988   2.341 -0.8640  0.2160  0.2704
 2300SOL     hw 9198   3.353   4.999   2.269 -0.5803 -1.3724  0.2423
 2300SOL     hw 9199   3.344   4.995   2.420 -0.7017 -0.7141  0.2545
 2300SOL     vw 9200   3.306   4.990   2.342 -0.8051 -0.1163  0.2648
 2301SOL     ow 9201   4.937   0.740   2.581  0.0075 -0.1003  0.3155
 2301SOL     hw 9202   4.907   0.742   2.491 -0.4841 -0.5773  0.4567
 2301SOL     hw 9203   4.970   0.828   2.599  3.0604 -0.8036 -1.2974
 2301SOL     vw 9204   4.937   0.752   2.572  0.3457 -0.2560  0.1214
 2302SOL     ow 9205   0.761   2.897   6.098 -0.1050 -0.3068  0.3643
 2302SOL     hw 9206   0.676   2.930   6.069  0.1856  0.2419  0.1236
 2302SOL     hw 9207   0.815   2.894   6.018 -0.2939 -1.9313  0.2626
 2302SOL     vw 9208   0.757   2.901   6.084 -0.0916 -0.4488  0.3190
 2303SOL     ow 9209   1.609   3.842   3.036 -0.0972 -0.2920  0.1567
 2303SOL     hw 9210   1.572   3.885   2.959 -0.0025  0.5486  0.5704
 2303SOL     hw 9211   1.639   3.914   3.092 -0.1837 -0.8813  0.9854
 2303SOL     vw 9212   1.608   3.857   3.033 -0.0960 -0.2589  0.3206
 2304SOL     ow 9213   4.123   4.834   1.217 -0.0728 -0.0958  0.6425
 2304SOL     hw 9214   4.182   4.909   1.224 -1.0426  0.6195  1.5396
 2304SOL     hw 9215   4.175   4.766   1.174  0.9647  0.9415  0.2036
 2304SOL     vw 9216   4.138   4.835   1.212 -0.0637  0.1354  0.7030
 2305SOL     ow 9217   4.825   5.738   6.242  0.3112  0.1394 -0.0895
 2305SOL     hw 9218   4.810   5.735   6.337 -2.5960  0.0593 -0.4371
 2305SOL     hw 9219   4.893   5.673   6.226 -0.2525 -1.0092  1.8118
 2305SOL     vw 9220   4.832   5.729   6.252 -0.1469 -0.0229  0.1154
 2306SOL     ow 9221   0.294   6.022   3.925  0.2425 -0.7149  0.0293
 2306SOL     hw 9222   0.321   6.033   3.834  0.3820 -5.9644 -0.8548
 2306SOL     hw 9223   0.198   6.028   3.923  0.2687 -0.4175 -0.3548
 2306SOL     vw 9224   0.285   6.024   3.913  0.2644 -1.3683 -0.1380
 2307SOL     ow 9225   0.597   1.043   0.866 -0.2643 -0.9096 -0.7444
 2307SOL     hw 9226   0.570   1.132   0.888 -0.5994 -1.0269 -0.6595
 2307SOL     hw 9227   0.669   1.024   0.926  1.0094 -0.0674 -1.9463
 2307SOL     vw 9228   0.603   1.052   0.877 -0.1405 -0.8140 -0.8917
 2308SOL     ow 9229   0.970   2.223   0.058  0.1501 -1.0972 -0.0600
 2308SOL     hw 9230   0.997   2.315   0.069  1.1565 -1.3635 -0.1900
 2308SOL     hw 9231   0.878   2.228   0.032 -0.0866 -0.1617  0.8874
 2308SOL     vw 9232   0.961   2.236   0.056  0.2516 -1.0087  0.0479
 2309SOL     ow 9233   2.442   2.672   3.363  0.8628 -0.6246  0.5072
 2309SOL     hw 9234   2.462   2.626   3.282 -0.8224 -0.1455 -0.2400
 2309SOL     hw 9235   2.524   2.671   3.412  2.3197  0.1518 -1.7197
 2309SOL     vw 9236   2.455   2.666   3.359  0.8327 -0.4588  0.1148
 2310SOL     ow 9237   0.385   5.633   3.010 -0.3319  0.1360  0.2039
 2310SOL     hw 9238   0.321   5.662   3.075 -0.7244 -3.0423  1.4269
 2310SOL     hw 9239   0.353   5.667   2.927 -3.7156 -1.3101  0.7679
 2310SOL     vw 9240   0.373   5.641   3.008 -0.8301 -0.4742  0.4396
 2311SOL     ow 9241   2.225   1.255   4.753  0.1930  0.1791 -0.6515
 2311SOL     hw 9242   2.194   1.337   4.715 -1.2678 -0.5772 -1.1606
 2311SOL     hw 9243   2.172   1.187   4.711  0.6108 -0.9376  0.5537
 2311SOL     vw 9244   2.214   1.257   4.743  0.0556 -0.0681 -0.5596
 2312SOL     ow 9245   5.723   4.465   1.688  0.3433 -0.6510 -0.0947
 2312SOL     hw 9246   5.759   4.553   1.675  1.3298 -0.9456  0.5434
 2312SOL     hw 9247   5.633   4.471   1.658  0.5876  0.4184 -0.6479
 2312SOL     vw 9248   5.716   4.477   1.682  0.5057 -0.5488 -0.0834
 2313SOL     ow 9249   3.832   5.372   2.740 -0.5038 -0.8436  0.3022
 2313SOL     hw 9250   3.801   5.298   2.690 -0.2320 -0.3502 -0.6278
 2313SOL     hw 9251   3.924   5.381   2.715 -0.7217  0.2502 -0.1799
 2313SOL     vw 9252   3.840   5.364   2.731 -0.4967 -0.6344  0.1159
 2314SOL     ow 9253   3.042   0.548   4.875 -0.9180 -0.3309 -0.1338
 2314SOL     hw 9254   3.029   0.453   4.868 -1.1922 -0.5294  2.1866
 2314SOL     hw 9255   3.012   0.583   4.791 -2.1914 -2.1794 -0.5089
 2314SOL     vw 9256   3.036   0.540   4.863 -1.1222 -0.6010  0.1228
 2315SOL     ow 9257   4.967   4.953   3.560  0.3364  0.5312 -0.2473
 2315SOL     hw 9258   5.035   4.966   3.627  0.4103  0.2161 -0.2569
 2315SOL     hw 9259   4.944   4.860   3.568 -0.2897  0.6951 -0.0584
 2315SOL     vw 9260   4.973   4.942   3.570  0.2635  0.5112 -0.2236
 2316SOL     ow 9261   0.946   3.418   4.061  0.0625 -0.2290  0.7593
 2316SOL     hw 9262   0.881   3.440   3.994  0.3161  1.2261  0.9538
 2316SOL     hw 9263   1.030   3.441   4.021  0.2096  0.7134  1.5715
 2316SOL     vw 9264   0.949   3.424   4.047  0.1154  0.0874  0.8922
 2317SOL     ow 9265   7.034   5.986   1.821 -0.0903  0.1306  0.2946
 2317SOL     hw 9266   7.124   5.982   1.789 -0.6570 -0.4535 -1.3257
 2317SOL     hw 9267   6.996   5.902   1.795 -0.9187  0.0753  1.5945
 2317SOL     vw 9268   7.041   5.974   1.813 -0.2744  0.0463  0.2524
 2318SOL     ow 9269   0.912   0.227   1.181  0.1924  0.3737  0.1759
 2318SOL     hw 9270   0.850   0.168   1.225  1.0991  0.6851  1.9814
 2318SOL     hw 9271   0.954   0.173   1.114 -1.2465 -0.1341 -0.3499
 2318SOL     vw 9272   0.909   0.212   1.178  0.1222  0.3477  0.3448
 2319SOL     ow 9273   2.548   4.876   6.371 -0.1205  0.3960 -0.0795
 2319SOL     hw 9274   2.613   4.816   6.334  0.8885  1.5591 -0.2295
 2319SOL     hw 9275   2.587   4.906   6.453 -0.9144  0.3604  0.3224
 2319SOL     vw 9276   2.562   4.872   6.377 -0.0923  0.5445 -0.0463
 2320SOL     ow 9277   0.867   4.384   5.510 -0.2986 -0.4869 -0.1476
 2320SOL     hw 9278   0.961   4.378   5.492  0.2295  2.3677  1.2104
 2320SOL     hw 9279   0.855   4.337   5.592  0.2040  0.2583  0.3625
 2320SOL     vw 9280   0.878   4.377   5.518 -0.1626 -0.0119  0.0989
 2321SOL     ow 9281   4.764   1.676   5.736  0.3445 -0.0064 -0.5810
 2321SOL     hw 9282   4.833   1.667   5.802 -0.4242 -1.4198  0.0937
 2321SOL     hw 9283   4.687   1.637   5.777 -0.3233 -0.3316 -2.0795
 2321SOL     vw 9284   4.763   1.669   5.750  0.1550 -0.2357 -0.6893
 2322SOL     ow 9285   0.036   6.354   0.406  0.0292 -0.1717  0.0427
 2322SOL     hw 9286  -0.027   6.422   0.428 -0.5784 -1.4728  2.9371
 2322SOL     hw 9287   0.051   6.308   0.489  4.1076 -0.5510 -0.6787
 2322SOL     vw 9288   0.030   6.357   0.420  0.4871 -0.3934  0.3294
 2323SOL     ow 9289   0.555   2.952   0.220  0.0343 -0.0924 -0.5112
 2323SOL     hw 9290   0.606   2.954   0.139 -0.4173  0.8273 -0.7870
 2323SOL     hw 9291   0.466   2.978   0.193 -0.2525 -0.3364  0.1845
 2323SOL     vw 9292   0.550   2.956   0.205 -0.0631 -0.0033 -0.4558
 2324SOL     ow 9293   2.668   0.174   4.427  0.0143  0.2644  0.5778
 2324SOL     hw 9294   2.674   0.267   4.407  0.8705  0.2636  0.8153
 2324SOL     hw 9295   2.655   0.133   4.341  2.8583  0.3387  0.0151
 2324SOL     vw 9296   2.667   0.181   4.413  0.5025  0.2741  0.5350
 2325SOL     ow 9297   3.783   1.273   1.781  0.0461 -0.2400 -0.8767
 2325SOL     hw 9298   3.758   1.332   1.710 -1.3824 -1.0474 -1.0738
 2325SOL     hw 9299   3.859   1.316   1.821 -1.1813  1.9646 -0.7194
 2325SOL     vw 9300   3.790   1.287   1.777 -0.3043 -0.0557 -0.8820
 2326SOL     ow 9301   0.205   0.630   6.445  1.2350 -0.4702 -0.6671
 2326SOL     hw 9302   0.194   0.570   6.518 -0.8813  2.1504  1.4255
 2326SOL     hw 9303   0.123   0.624   6.396  0.3381  1.6034  0.4403
 2326SOL     vw 9304   0.193   0.621   6.448  0.8374  0.1492 -0.2449
 2327SOL     ow 9305   4.929   3.953   3.351 -0.2506  0.3827  0.6192
 2327SOL     hw 9306   4.939   3.858   3.349  2.3326  0.5387  2.1080
 2327SOL     hw 9307   4.928   3.979   3.258  1.6693 -0.9066  0.1933
 2327SOL     vw 9308   4.930   3.944   3.338  0.3433  0.2331  0.7596
 2328SOL     ow 9309   1.004   3.624   2.037 -0.5597  0.3628 -0.3956
 2328SOL     hw 9310   0.943   3.555   2.010 -0.1477 -0.9851  1.8690
 2328SOL     hw 9311   0.963   3.662   2.115  1.9204 -1.3936  1.9354
 2328SOL     vw 9312   0.990   3.620   2.044 -0.1781 -0.0468  0.2106
 2329SOL     ow 9313   3.783   7.517   6.762 -0.3731  0.3078  0.1038
 2329SOL     hw 9314   3.771   7.555   6.849 -2.7203  0.7135 -0.3077
 2329SOL     hw 9315   3.780   7.591   6.702 -0.2960 -0.1027 -0.4208
 2329SOL     vw 9316   3.781   7.532   6.766 -0.6726  0.3068 -0.0196
 2330SOL     ow 9317   2.104   4.424   6.159  0.3532  0.2324  0.2540
 2330SOL     hw 9318   2.013   4.451   6.169  0.9415  2.7411 -0.3959
 2330SOL     hw 9319   2.147   4.450   6.240  1.0291  1.7836 -0.5577
 2330SOL     vw 9320   2.098   4.431   6.171  0.5200  0.7682  0.0613
 2331SOL     ow 9321   2.620   5.582   6.659 -0.6587  0.7794  0.4110
 2331SOL     hw 9322   2.671   5.581   6.740  0.8335 -1.3701 -0.4795
 2331SOL     hw 9323   2.659   5.652   6.606 -0.2184  0.7459  0.6877
 2331SOL     vw 9324   2.632   5.591   6.663 -0.4036  0.4916  0.3300
 2332SOL     ow 9325   7.289   2.935   6.294 -0.1795  0.3665  0.3060
 2332SOL     hw 9326   7.336   3.010   6.330  1.1415 -0.0425 -0.4940
 2332SOL     hw 9327   7.209   2.973   6.258  0.6159  1.4648 -0.3865
 2332SOL     vw 9328   7.285   2.950   6.294  0.0999  0.4575  0.1087
 2333SOL     ow 9329   3.886   3.921   0.614 -0.9897 -0.2862  0.4580
 2333SOL     hw 9330   3.909   4.009   0.586 -2.1656 -0.6165 -1.7627
 2333SOL     hw 9331   3.951   3.899   0.680 -0.2346  1.9488  0.5388
 2333SOL     vw 9332   3.897   3.929   0.619 -1.0453 -0.0350  0.1757
 2334SOL     ow 9333   0.594   0.076   6.098 -0.1128  0.2441  0.0494
 2334SOL     hw 9334   0.671   0.097   6.151  1.7413  0.2501 -2.4852
 2334SOL     hw 9335   0.537   0.027   6.158  2.6499 -1.3824  1.5592
 2334SOL     vw 9336   0.597   0.073   6.113  0.4963  0.0300 -0.0858
 2335SOL     ow 9337   6.395   4.721   3.289 -0.2556 -0.0526 -0.0897
 2335SOL     hw 9338   6.405   4.629   3.314  1.0556  0.2516  0.5932
 2335SOL     hw 9339   6.340   4.758   3.358  0.5951  0.0388  0.5460
 2335SOL     vw 9340   6.389   4.714   3.301  0.0298 -0.0007  0.0844
 2336SOL     ow 9341   5.761   7.232   5.053  0.0400  0.0343  0.8556
 2336SOL     hw 9342   5.845   7.257   5.092  0.9162 -0.3423 -0.7331
 2336SOL     hw 9343   5.695   7.266   5.114  1.3328  0.4835  2.0392
 2336SOL     vw 9344   5.763   7.239   5.066  0.3259  0.0439  0.8020
 2337SOL     ow 9345   0.032   7.600   4.376 -0.2903  0.1022  0.5629
 2337SOL     hw 9346  -0.052   7.617   4.333 -0.4249 -0.2764  0.6729
 2337SOL     hw 9347   0.018   7.622   4.468 -1.2207 -2.9007  1.2245
 2337SOL     vw 9348   0.019   7.605   4.382 -0.4308 -0.3440  0.6645
 2338SOL     ow 9349   0.845   2.830   0.631 -0.2401  1.2227 -0.0759
 2338SOL     hw 9350   0.860   2.735   0.636 -0.3696  1.2122  0.1377
 2338SOL     hw 9351   0.846   2.849   0.538  3.0850  1.5606 -0.0837
 2338SOL     vw 9352   0.847   2.820   0.619  0.1815  1.2660 -0.0487
 2339SOL     ow 9353   1.645   6.211   2.349  0.6915 -0.2910 -0.0797
 2339SOL     hw 9354   1.714   6.185   2.288 -1.0193 -1.4483 -1.6488
 2339SOL     hw 9355   1.572   6.153   2.328 -1.0971  1.4957  0.8785
 2339SOL     vw 9356   1.644   6.200   2.338  0.2298 -0.2079 -0.1602
 2340SOL     ow 9357   5.408   3.032   1.628 -0.3240  0.0721 -0.4132
 2340SOL     hw 9358   5.475   2.989   1.574  1.0863  4.0860 -2.2461
 2340SOL     hw 9359   5.449   3.038   1.715  0.2005 -0.6051 -0.6007
 2340SOL     vw 9360   5.423   3.027   1.633 -0.0689  0.5125 -0.6798
 2341SOL     ow 9361   2.733   5.060   2.388  0.0689 -0.1076 -0.3018
 2341SOL     hw 9362   2.794   5.134   2.394 -1.3658  1.0624  0.8529
 2341SOL     hw 9363   2.788   4.982   2.388  1.6242  0.9486 -1.2364
 2341SOL     vw 9364   2.748   5.060   2.389  0.0849  0.1860 -0.2729
 2342SOL     ow 9365   5.787   1.419   2.651  0.3948 -0.0231  0.6261
 2342SOL     hw 9366   5.785   1.327   2.676  0.8140 -0.4283 -0.7304
 2342SOL     hw 9367   5.707   1.431   2.599  0.5924  0.2576  0.3873
 2342SOL     vw 9368   5.776   1.408   2.647  0.4764 -0.0395  0.4156
 2343SOL     ow 9369   0.232   7.527   6.858 -0.1143  0.1811  0.3448
 2343SOL     hw 9370   0.151   7.486   6.827  0.6805 -1.0078 -0.2869
 2343SOL     hw 9371   0.266   7.467   6.924  0.4571  0.4366  0.2959
 2343SOL     vw 9372   0.226   7.514   6.862  0.0660  0.0579  0.2549
 2344SOL     ow 9373   5.388   4.158   0.479 -0.2339 -0.2845  0.1548
 2344SOL     hw 9374   5.451   4.188   0.544  0.8350  0.0470 -0.9987
 2344SOL     hw 9375   5.313   4.215   0.490 -0.1168 -0.3131  1.1674
 2344SOL     vw 9376   5.386   4.169   0.489 -0.0772 -0.2446  0.1362
 2345SOL     ow 9377   1.588   5.945   2.658  0.0982 -0.4986  0.5805
 2345SOL     hw 9378   1.535   5.974   2.584  1.2755  0.9699  0.2761
 2345SOL     hw 9379   1.663   6.004   2.659  3.0429 -3.8299 -0.4523
 2345SOL     vw 9380   1.591   5.956   2.649  0.6421 -0.7443  0.4041
 2346SOL     ow 9381   4.018   0.075   7.034 -0.1873 -0.8251  0.2096
 2346SOL     hw 9382   4.039   0.009   6.968 -0.4846  0.6023 -1.3806
 2346SOL     hw 9383   4.071   0.051   7.110  3.3456 -0.2748 -1.8618
 2346SOL     vw 9384   4.028   0.063   7.035  0.2396 -0.5642 -0.2735
 2347SOL     ow 9385   0.610   1.353   2.118  0.0374 -0.5490 -0.6951
 2347SOL     hw 9386   0.640   1.330   2.030 -0.7302  1.2466 -1.4875
 2347SOL     hw 9387   0.688   1.387   2.162  0.1717 -0.2848 -1.1303
 2347SOL     vw 9388   0.624   1.355   2.112 -0.0462 -0.2772 -0.8571
 2348SOL     ow 9389   5.444   6.584   5.957 -0.4094  0.7024 -0.0169
 2348SOL     hw 9390   5.352   6.573   5.978 -0.3056 -0.8696 -0.2864
 2348SOL     hw 9391   5.458   6.528   5.880  0.8176  0.7402  0.1570
 2348SOL     vw 9392   5.434   6.575   5.949 -0.2339  0.5000 -0.0293
 2349SOL     ow 9393   1.862   2.462   3.320 -0.2588 -0.7324 -0.1999
 2349SOL     hw 9394   1.767   2.466   3.327 -0.4135 -2.7309 -0.6570
 2349SOL     hw 9395   1.879   2.406   3.245  1.2990 -0.3295 -0.1950
 2349SOL     vw 9396   1.852   2.455   3.311 -0.0737 -0.9431 -0.2596
 2350SOL     ow 9397   4.833   7.105   7.577 -0.0471  0.7282 -0.7272
 2350SOL     hw 9398   4.828   7.113   7.482  0.2553 -0.3967 -0.8473
 2350SOL     hw 9399   4.868   7.018   7.593 -1.6673  0.2318  0.4323
 2350SOL     vw 9400   4.837   7.095   7.567 -0.2210  0.5143 -0.5901
 2351SOL     ow 9401   1.465   3.209   3.851 -0.4479  0.4219  0.3364
 2351SOL     hw 9402   1.559   3.202   3.868 -0.7430  0.3308  2.0952
 2351SOL     hw 9403   1.441   3.122   3.819 -0.5330 -0.7691  3.3304
 2351SOL     vw 9404   1.475   3.196   3.849 -0.4981  0.2527  0.9634
 2352SOL     ow 9405   5.758   1.054   2.868  0.0116 -0.7222 -0.3927
 2352SOL     hw 9406   5.797   1.090   2.789 -2.1889  0.1286 -1.1585
 2352SOL     hw 9407   5.815   0.981   2.891  0.8938 -0.8020 -2.5665
 2352SOL     vw 9408   5.771   1.049   2.861 -0.1624 -0.6205 -0.7806
 2353SOL     ow 9409   5.970   0.848   2.854 -0.5996 -0.8353  0.6931
 2353SOL     hw 9410   6.060   0.879   2.859 -0.5786 -0.8456  0.3636
 2353SOL     hw 9411   5.974   0.771   2.798 -0.5697 -1.7337  1.8819
 2353SOL     vw 9412   5.982   0.842   2.847 -0.5929 -0.9552  0.8063
 2354SOL     ow 9413   7.139   2.022   3.882 -0.9496 -0.7802 -0.1352
 2354SOL     hw 9414   7.090   1.944   3.907  1.2181 -1.8655  0.9546
 2354SOL     hw 9415   7.223   2.014   3.927  0.3248  0.9178 -2.0190
 2354SOL     vw 9416   7.144   2.011   3.891 -0.4954 -0.6995 -0.2400
 2355SOL     ow 9417   1.645   6.368   6.648 -0.7380  0.4767 -0.2042
 2355SOL     hw 9418   1.674   6.305   6.582 -0.7384 -2.3541  2.2801
 2355SOL     hw 9419   1.577   6.322   6.697  1.6072  0.9497  3.9243
 2355SOL     vw 9420   1.640   6.354   6.645 -0.4286  0.1652  0.6680
 2356SOL     ow 9421   1.232   6.863   2.108 -0.4098 -0.2856  0.6888
 2356SOL     hw 9422   1.186   6.896   2.185 -1.6467 -0.2666 -0.0377
 2356SOL     hw 9423   1.316   6.831   2.142  0.0297  1.7945  1.6987
 2356SOL     vw 9424   1.237   6.863   2.123 -0.5150 -0.0086  0.7261
 2357SOL     ow 9425   2.110   3.989   4.425  0.5642  0.0973  0.3017
 2357SOL     hw 9426   2.032   4.041   4.443 -1.7091 -1.9839 -2.4777
 2357SOL     hw 9427   2.117   3.930   4.500 -0.5337  0.3332  0.6161
 2357SOL     vw 9428   2.100   3.988   4.437  0.1194 -0.1462 -0.0236
 2358SOL     ow 9429   6.193   0.908   1.385 -0.1434 -0.3775 -0.0469
 2358SOL     hw 9430   6.151   0.823   1.372 -0.9363  0.2559 -2.1444
 2358SOL     hw 9431   6.121   0.968   1.405 -0.3534  0.6516 -3.3176
 2358SOL     vw 9432   6.178   0.905   1.386 -0.2759 -0.1582 -0.7551
 2359SOL     ow 9433   1.660   0.233   6.027  0.2202  0.2418 -0.0568
 2359SOL     hw 9434   1.705   0.158   5.988 -0.2157  0.8275 -1.8141
 2359SOL     hw 9435   1.597   0.194   6.088 -0.2174 -0.8675 -1.1596
 2359SOL     vw 9436   1.657   0.218   6.030  0.1050  0.1727 -0.4342
 2360SOL     ow 9437   2.956   5.785   2.789 -0.3427  0.2137  0.4830
 2360SOL     hw 9438   2.912   5.700   2.778  0.1408  0.0346 -0.1740
 2360SOL     hw 9439   2.895   5.849   2.753 -0.2535  0.0152 -0.0330
 2360SOL     vw 9440   2.943   5.782   2.782 -0.2671  0.1640  0.3282
 2361SOL     ow 9441   6.628   4.728   0.273  0.8482  0.3160 -0.5604
 2361SOL     hw 9442   6.658   4.759   0.359 -1.8546  0.4143  0.4284
 2361SOL     hw 9443   6.567   4.795   0.244 -0.3892 -1.0739 -1.2654
 2361SOL     vw 9444   6.624   4.741   0.281  0.3283  0.1454 -0.5230
 2362SOL     ow 9445   4.889   5.613   3.349 -0.3196  0.2641  0.3297
 2362SOL     hw 9446   4.847   5.566   3.276 -1.5096  0.9533  0.5323
 2362SOL     hw 9447   4.841   5.696   3.353 -1.7773 -0.6125  3.2927
 2362SOL     vw 9448   4.877   5.618   3.340 -0.6688  0.2394  0.7473
 2363SOL     ow 9449   2.487   4.909   2.437  0.1524  0.1528 -0.1136
 2363SOL     hw 9450   2.513   4.839   2.377  0.7538  1.2639 -1.1951
 2363SOL     hw 9451   2.401   4.883   2.469 -1.1129  0.4058 -2.9775
 2363SOL     vw 9452   2.479   4.896   2.433  0.0650  0.3328 -0.6343
 2364SOL     ow 9453   3.625   0.943   0.613  0.0787  0.0465  0.6077
 2364SOL     hw 9454   3.572   1.020   0.633 -0.2808 -0.6254  2.4895
 2364SOL     hw 9455   3.692   0.941   0.681  1.6916  0.0778 -0.9047
 2364SOL     vw 9456   3.627   0.953   0.625  0.2441 -0.0380  0.6564
 2365SOL     ow 9457   6.968   4.835   2.227  0.5393 -0.3543  0.2332
 2365SOL     hw 9458   6.880   4.830   2.266  0.8788  1.6687  1.3820
 2365SOL     hw 9459   6.952   4.854   2.135 -0.3359  2.8801  0.9151
 2365SOL     vw 9460   6.954   4.837   2.220  0.4685  0.3393  0.4748
 2366SOL     ow 9461   7.316   7.099   2.129 -0.7384  0.2860  0.5931
 2366SOL     hw 9462   7.385   7.134   2.184  0.0628 -1.3501  0.6887
 2366SOL     hw 9463   7.346   7.112   2.039  0.0985 -1.1102  0.6424
 2366SOL     vw 9464   7.329   7.105   2.124 -0.5224 -0.1140  0.6121
 2367SOL     ow 9465   1.660   5.206   4.071  0.3632  0.0361 -0.2729
 2367SOL     hw 9466   1.723   5.155   4.020 -1.2848  1.3700 -3.9412
 2367SOL     hw 9467   1.575   5.186   4.033 -1.3798 -0.3305  3.3384
 2367SOL     vw 9468   1.657   5.197   4.059 -0.0842  0.1638 -0.2801
 2368SOL     ow 9469   1.907   2.660   3.642  0.0073 -0.8151  0.7174
 2368SOL     hw 9470   1.919   2.695   3.554  0.4039  0.7917  1.3743
 2368SOL     hw 9471   1.935   2.568   3.635  0.5741 -0.5671 -0.6925
 2368SOL     vw 9472   1.912   2.652   3.629  0.1344 -0.5703  0.6181
 2369SOL     ow 9473   6.854   2.700   2.907 -0.1125  0.1711  0.0501
 2369SOL     hw 9474   6.866   2.611   2.874 -2.1361 -1.7089  3.6822
 2369SOL     hw 9475   6.924   2.712   2.971 -0.0347  1.1187 -0.1958
 2369SOL     vw 9476   6.865   2.690   2.911 -0.3693  0.0480  0.4969
 2370SOL     ow 9477   3.091   0.975   6.145 -0.2366  0.2290  0.5598
 2370SOL     hw 9478   3.177   0.963   6.185 -0.0508  1.4573  0.5867
 2370SOL     hw 9479   3.091   1.067   6.117 -1.8979  0.5304  1.4353
 2370SOL     vw 9480   3.102   0.986   6.147 -0.4314  0.4308  0.6788
 2371SOL     ow 9481   4.480   0.000   0.524  0.0369  0.6688  1.0118
 2371SOL     hw 9482   4.407  -0.028   0.469  1.6827  2.5355 -2.4179
 2371SOL     hw 9483   4.448   0.079   0.568 -1.1511 -0.5909  2.5060
 2371SOL     vw 9484   4.466   0.007   0.523  0.0973  0.7488  0.7564
 2372SOL     ow 9485   4.888   5.161   3.835 -0.2255 -0.1020  0.4578
 2372SOL     hw 9486   4.923   5.081   3.874 -1.9763 -0.9408  0.4031
 2372SOL     hw 9487   4.804   5.134   3.796 -1.4087  1.9631  1.3981
 2372SOL     vw 9488   4.881   5.147   3.835 -0.6125  0.0598  0.5746
 2373SOL     ow 9489   4.874   3.732   6.052  0.5222  0.4454  0.1048
 2373SOL     hw 9490   4.788   3.773   6.047  0.9403  1.1913 -1.6428
 2373SOL     hw 9491   4.934   3.804   6.074  1.0886  0.5629 -1.7199
 2373SOL     vw 9492   4.871   3.747   6.055  0.6521  0.5593 -0.3664
 2374SOL     ow 9493   7.211   0.884   5.997 -0.3288  0.0435 -0.0145
 2374SOL     hw 9494   7.217   0.953   6.063  1.0296 -0.7958  0.7969
 2374SOL     hw 9495   7.278   0.821   6.023 -0.4190 -0.7830 -1.6704
 2374SOL     vw 9496   7.220   0.885   6.009 -0.1616 -0.1762 -0.1261
 2375SOL     ow 9497   1.664   0.155   7.140  0.7440  0.2957  0.5120
 2375SOL     hw 9498   1.692   0.085   7.081 -0.8613  0.3832 -0.4035
 2375SOL     hw 9499   1.569   0.157   7.131  0.5706  1.1363  2.2040
 2375SOL     vw 9500   1.655   0.146   7.131  0.5093  0.4181  0.6144
 2376SOL     ow 9501   6.654   2.756   5.934 -0.1016 -0.3359  0.4054
 2376SOL     hw 9502   6.563   2.779   5.913 -0.2861 -0.3978  1.0843
 2376SOL     hw 9503   6.705   2.785   5.859 -0.4517  1.3774  0.7876
 2376SOL     vw 9504   6.648   2.763   5.921 -0.1719 -0.1180  0.5455
 2377SOL     ow 9505   1.443   4.395   3.617  0.0455  0.9090  1.0719
 2377SOL     hw 9506   1.352   4.380   3.645 -0.1164  2.2402  1.3192
 2377SOL     hw 9507   1.484   4.308   3.622 -1.5757 -0.0081 -0.4354
 2377SOL     vw 9508   1.436   4.381   3.621 -0.1897  0.9639  0.9058
 2378SOL     ow 9509   5.981   0.887   2.396  0.3985 -0.4121 -0.5167
 2378SOL     hw 9510   5.915   0.893   2.327 -0.6369 -0.5483  0.4422
 2378SOL     hw 9511   5.954   0.812   2.449 -0.0638  0.9435  1.2692
 2378SOL     vw 9512   5.969   0.878   2.394  0.2007 -0.2512 -0.1546
 2379SOL     ow 9513   0.528   0.494   4.823  0.1650 -0.5926  0.4055
 2379SOL     hw 9514   0.579   0.436   4.766 -0.1343 -0.7039  0.2507
 2379SOL     hw 9515   0.445   0.448   4.835 -0.9812  0.8315 -1.5765
 2379SOL     vw 9516   0.524   0.480   4.817 -0.0257 -0.4194  0.1235
 2380SOL     ow 9517   0.700   6.158   4.550 -0.0743 -0.3862  0.2637
 2380SOL     hw 9518   0.793   6.182   4.559  0.1844 -0.0787 -2.3583
 2380SOL     hw 9519   0.702   6.075   4.502 -1.1649 -0.8444  0.9939
 2380SOL     vw 9520   0.713   6.151   4.545 -0.1841 -0.4063  0.0141
 2381SOL     ow 9521   2.702   1.191   5.146 -0.0263  0.0962  0.2223
 2381SOL     hw 9522   2.743   1.105   5.130 -0.0332 -0.0241  0.8138
 2381SOL     hw 9523   2.630   1.172   5.206  0.3392  0.5909  0.8374
 2381SOL     vw 9524   2.698   1.177   5.152  0.0211  0.1456  0.3815
 2382SOL     ow 9525   7.008   3.011   5.973  0.1268 -0.1951  0.0954
 2382SOL     hw 9526   6.960   3.091   5.950  1.7702  0.8787  0.2272
 2382SOL     hw 9527   6.941   2.954   6.011 -1.0794  1.1812  0.1555
 2382SOL     vw 9528   6.993   3.014   5.975  0.1845  0.1283  0.1209
 2383SOL     ow 9529   0.398   4.090   5.192  0.1524  0.7839  0.2881
 2383SOL     hw 9530   0.381   4.075   5.285 -0.6148  0.0717  0.0501
 2383SOL     hw 9531   0.314   4.123   5.157  0.4114  0.9750 -0.1668
 2383SOL     vw 9532   0.384   4.093   5.200  0.0854  0.7150  0.1969
 2384SOL     ow 9533   7.121   2.224   3.681  0.5862  0.3153 -0.5836
 2384SOL     hw 9534   7.214   2.229   3.660  0.4719 -1.0914 -1.6002
 2384SOL     hw 9535   7.077   2.219   3.596 -0.1140 -2.6542 -0.1850
 2384SOL     vw 9536   7.127   2.224   3.667  0.4790 -0.2621 -0.6651
 2385SOL     ow 9537   6.673   3.740   1.899 -1.2333  0.0446 -0.5497
 2385SOL     hw 9538   6.670   3.814   1.960 -0.1364 -1.1026  0.9678
 2385SOL     hw 9539   6.725   3.674   1.944 -1.6484 -1.4303 -2.1313
 2385SOL     vw 9540   6.679   3.741   1.913 -1.1435 -0.3015 -0.5581
 2386SOL     ow 9541   4.922   5.423   3.715  0.1694 -0.1709 -0.1934
 2386SOL     hw 9542   4.912   5.452   3.806  4.0490  0.0282  0.3315
 2386SOL     hw 9543   4.971   5.341   3.721  1.8645  0.6199 -2.1258
 2386SOL     vw 9544   4.927   5.416   3.728  0.9048 -0.0403 -0.3791
 2387SOL     ow 9545   4.122   3.820   4.737 -0.0743  0.2784  0.7995
 2387SOL     hw 9546   4.067   3.751   4.698  0.2576  0.8957 -0.8601
 2387SOL     hw 9547   4.212   3.792   4.719  0.0802  0.7609  0.8122
 2387SOL     vw 9548   4.127   3.807   4.729 -0.0105  0.4234  0.5825
 2388SOL     ow 9549   1.062   1.255   6.316 -0.0029  0.2013 -0.4436
 2388SOL     hw 9550   1.066   1.161   6.303 -0.8633  0.1221 -0.2002
 2388SOL     hw 9551   0.973   1.271   6.348  0.9301  0.7566  2.1907
 2388SOL     vw 9552   1.051   1.245   6.319  0.0066  0.2641 -0.0641
 2389SOL     ow 9553   5.488   1.857   3.077  0.5315 -0.1395  0.1039
 2389SOL     hw 9554   5.460   1.766   3.087  4.3573 -1.6646 -1.3280
 2389SOL     hw 9555   5.477   1.876   2.984  2.7458 -0.3587 -0.2486
 2389SOL     vw 9556   5.483   1.848   3.066  1.3287 -0.3696 -0.1315
 2390SOL     ow 9557   6.338   6.014   4.643  0.5704 -0.3445 -0.8953
 2390SOL     hw 9558   6.389   6.075   4.696 -0.6670 -0.4650  0.5074
 2390SOL     hw 9559   6.384   5.931   4.652  0.4345 -0.3416 -0.0654
 2390SOL     vw 9560   6.351   6.011   4.652  0.3893 -0.3600 -0.6008
 2391SOL     ow 9561   0.432   0.748   1.647  0.8089 -0.2519 -0.3070
 2391SOL     hw 9562   0.355   0.716   1.694  1.8167 -1.5086  0.5765
 2391SOL     hw 9563   0.398   0.814   1.587 -0.6375  0.9312  1.6983
 2391SOL     vw 9564   0.418   0.753   1.645  0.7510 -0.2616  0.0741
 2392SOL     ow 9565   3.571   6.562   1.767  0.4161 -0.8590 -0.5946
 2392SOL     hw 9566   3.573   6.490   1.830  2.6731  0.7114  1.2511
 2392SOL     hw 9567   3.615   6.526   1.690  1.3583 -1.5199  0.2271
 2392SOL     vw 9568   3.577   6.547   1.765  0.8382 -0.7389 -0.2427
 2393SOL     ow 9569   0.587   1.735   3.568  0.3473  0.4387  0.1388
 2393SOL     hw 9570   0.606   1.698   3.481 -0.8662 -0.3759  0.1997
 2393SOL     hw 9571   0.672   1.764   3.600  0.8620  0.5134 -1.2150
 2393SOL     vw 9572   0.601   1.734   3.561  0.2551  0.3411 -0.0317
 2394SOL     ow 9573   2.207   1.516   4.962  0.7685  0.2646  0.1378
 2394SOL     hw 9574   2.257   1.573   4.903 -0.5815  0.6635 -0.6541
 2394SOL     hw 9575   2.140   1.573   5.000 -0.3130 -0.6880 -0.3051
 2394SOL     vw 9576   2.205   1.531   4.960  0.4478  0.1916 -0.0250
 2395SOL     ow 9577   5.051   5.023   3.291 -0.2854 -0.3381 -0.0124
 2395SOL     hw 9578   5.039   5.026   3.386 -1.3091  1.6679 -0.1475
 2395SOL     hw 9579   4.988   4.956   3.261 -0.1629 -0.7713  0.6778
 2395SOL     vw 9580   5.041   5.014   3.300 -0.4044 -0.1304  0.0607
 2396SOL     ow 9581   1.197   2.551   5.237 -0.4124 -0.1821  0.4941
 2396SOL     hw 9582   1.108   2.579   5.259  0.1670  0.9983  1.4033
 2396SOL     hw 9583   1.236   2.526   5.321  0.9167  1.6911  0.4911
 2396SOL     vw 9584   1.191   2.551   5.251 -0.1606  0.2208  0.6139
 2397SOL     ow 9585   7.507   6.041   2.029  0.1652 -0.0840  0.2178
 2397SOL     hw 9586   7.561   6.012   1.955  2.7445  1.1369  1.4668
 2397SOL     hw 9587   7.432   5.981   2.030  2.4860 -3.2810 -0.4768
 2397SOL     vw 9588   7.504   6.029   2.020  0.8118 -0.3445  0.2910
 2398SOL     ow 9589   3.833   3.377   0.277 -0.0360 -0.0292 -0.5297
 2398SOL     hw 9590   3.787   3.327   0.345  1.1804 -1.7274 -0.8877
 2398SOL     hw 9591   3.909   3.416   0.323  1.5477 -2.2767 -1.0846
 2398SOL     vw 9592   3.837   3.376   0.292  0.3333 -0.5498 -0.6502
 2399SOL     ow 9593   2.705   0.536   0.970 -0.1438  0.2881  0.1563
 2399SOL     hw 9594   2.676   0.620   0.933  3.7865  1.7036 -0.1154
 2399SOL     hw 9595   2.732   0.557   1.059  1.5309 -0.5210 -0.1368
 2399SOL     vw 9596   2.704   0.550   0.977  0.5956  0.3681  0.0818
 2400SOL     ow 9597   5.150   0.811   7.029  0.0118 -0.1729 -0.3976
 2400SOL     hw 9598   5.079   0.758   7.064 -1.1448  1.2003 -0.5553
 2400SOL     hw 9599   5.170   0.773   6.944 -0.2995 -0.7820 -0.1992
 2400SOL     vw 9600   5.143   0.799   7.022 -0.1817 -0.0722 -0.3922
 2401SOL     ow 9601   6.307   3.525   6.306  0.3004 -0.2458 -0.3391
 2401SOL     hw 9602   6.297   3.582   6.383 -2.3079  0.5544 -1.1445
 2401SOL     hw 9603   6.253   3.448   6.327  1.5988 -1.1986 -0.3881
 2401SOL     vw 9604   6.298   3.522   6.319  0.1273 -0.2660 -0.4516
 2402SOL     ow 9605   1.847   7.208   7.390  0.1534  0.7993 -0.6674
 2402SOL     hw 9606   1.833   7.297   7.359  0.3347  1.6525  1.5593
 2402SOL     hw 9607   1.760   7.167   7.386  0.0051  1.1634 -1.3631
 2402SOL     vw 9608   1.833   7.214   7.385  0.1577  0.9599 -0.4654
 2403SOL     ow 9609   4.424   6.065   2.764 -0.0109  0.4745  0.1852
 2403SOL     hw 9610   4.494   6.056   2.829 -0.7101  1.5848  1.1223
 2403SOL     hw 9611   4.435   6.153   2.729  0.1105  0.0265 -0.9358
 2403SOL     vw 9612   4.435   6.075   2.768 -0.0870  0.5615  0.1609
 2404SOL     ow 9613   4.803   2.475   2.811 -0.7440  0.5654 -1.2196
 2404SOL     hw 9614   4.840   2.441   2.729 -1.5086  0.1963 -1.4187
 2404SOL     hw 9615   4.728   2.527   2.784  0.8502  3.1525 -0.9818
 2404SOL     vw 9616   4.798   2.477   2.797 -0.6347  0.8581 -1.2145
 2405SOL     ow 9617   1.912   4.386   0.563 -0.0201 -0.4060 -0.7730
 2405SOL     hw 9618   1.864   4.452   0.513 -0.4157 -0.4033 -0.3923
 2405SOL     hw 9619   1.867   4.382   0.647  0.0783 -1.0761 -0.7483
 2405SOL     vw 9620   1.900   4.394   0.567 -0.0594 -0.4938 -0.7195
 2406SOL     ow 9621   1.107   4.914   4.262 -0.2469  0.1971  0.0730
 2406SOL     hw 9622   1.126   4.820   4.269 -1.7243 -0.3135 -1.9131
 2406SOL     hw 9623   1.181   4.949   4.213  1.3708  0.5623  2.5517
 2406SOL     vw 9624   1.119   4.906   4.257 -0.2283  0.1781  0.1378
 2407SOL     ow 9625   5.168   2.841   1.579 -0.3495  0.1847 -0.2022
 2407SOL     hw 9626   5.198   2.798   1.658  2.9919  1.2450 -0.7288
 2407SOL     hw 9627   5.079   2.809   1.566 -1.1082  0.0479  3.9591
 2407SOL     vw 9628   5.160   2.831   1.587 -0.0086  0.3067  0.2773
 2408SOL     ow 9629   6.570   4.286   3.707 -0.1611  0.2287 -0.3951
 2408SOL     hw 9630   6.651   4.239   3.687 -0.3431 -0.1362 -0.2828
 2408SOL     hw 9631   6.503   4.245   3.651 -0.0337  1.3493 -1.4066
 2408SOL     vw 9632   6.572   4.274   3.697 -0.1683  0.3283 -0.5137
 2409SOL     ow 9633   2.266   2.285   2.077 -0.4068 -0.3527 -0.0251
 2409SOL     hw 9634   2.191   2.276   2.017 -1.7835 -0.0893  1.5935
 2409SOL     hw 9635   2.239   2.353   2.139 -0.3000 -2.6084  2.6868
 2409SOL     vw 9636   2.252   2.293   2.077 -0.5744 -0.6156  0.5462
 2410SOL     ow 9637   5.295   7.471   4.254 -0.0062 -0.8116 -0.1144
 2410SOL     hw 9638   5.292   7.413   4.178 -0.3021 -0.3967 -0.4240
 2410SOL     hw 9639   5.380   7.514   4.247 -1.1823  1.4430 -1.9052
 2410SOL     vw 9640   5.306   7.469   4.243 -0.2005 -0.4592 -0.3915
 2411SOL     ow 9641   1.240   1.028   4.129 -0.0127 -0.4178 -0.8477
 2411SOL     hw 9642   1.183   1.074   4.067  1.3528 -1.1121 -2.7144
 2411SOL     hw 9643   1.294   1.097   4.168 -0.3086 -0.0550 -1.0778
 2411SOL     vw 9644   1.240   1.043   4.126  0.1284 -0.4616 -1.1246
 2412SOL     ow 9645   1.554   6.517   0.659 -0.1201 -0.4352  0.1859
 2412SOL     hw 9646   1.600   6.581   0.714 -0.2550 -0.4394  0.3037
 2412SOL     hw 9647   1.483   6.484   0.714  0.8035 -1.7461  0.6313
 2412SOL     vw 9648   1.551   6.521   0.674 -0.0161 -0.6084  0.2602
 2413SOL     ow 9649   6.102   3.751   4.046 -0.0663  1.1211  0.7149
 2413SOL     hw 9650   6.171   3.692   4.078 -0.1559  0.9195  0.5385
 2413SOL     hw 9651   6.100   3.822   4.110  0.5722  1.3272  0.5155
 2413SOL     vw 9652   6.111   3.753   4.059  0.0060  1.1216  0.6652
 2414SOL     ow 9653   5.603   3.851   1.090 -0.3420  0.1474  0.0311
 2414SOL     hw 9654   5.614   3.768   1.044  2.2922  0.3681  0.1107
 2414SOL     hw 9655   5.605   3.827   1.183  2.4220  0.3756  0.1162
 2414SOL     vw 9656   5.605   3.837   1.096  0.3700  0.2067  0.0528
 2415SOL     ow 9657   1.491   5.657   5.221  0.3098  0.4675  0.8158
 2415SOL     hw 9658   1.560   5.721   5.240 -1.4317  2.1554  1.8461
 2415SOL     hw 9659   1.533   5.572   5.234  2.2218  1.4182  1.2774
 2415SOL     vw 9660   1.506   5.654   5.225  0.3322  0.8154  1.0130
 2416SOL     ow 9661   0.916   3.973   3.171  0.1825 -0.4089 -0.2645
 2416SOL     hw 9662   0.872   4.027   3.105  2.3984  1.8121 -0.0947
 2416SOL     hw 9663   0.903   3.883   3.141 -3.0188  0.1614 -1.0141
 2416SOL     vw 9664   0.908   3.968   3.158  0.0525 -0.0407 -0.3411
 2417SOL     ow 9665   0.938   2.181   3.168  0.1425 -0.4753 -0.0174
 2417SOL     hw 9666   0.858   2.147   3.130  0.5800 -2.2356  0.5581
 2417SOL     hw 9667   1.007   2.123   3.135  1.0223  0.2868  0.4331
 2417SOL     vw 9668   0.937   2.169   3.158  0.3163 -0.6070  0.1179
 2418SOL     ow 9669   1.965   2.823   4.488  0.1671  0.5214  0.0937
 2418SOL     hw 9670   2.045   2.845   4.537 -0.1547  1.5094  0.1967
 2418SOL     hw 9671   1.896   2.825   4.554 -0.0817  0.5994 -0.1673
 2418SOL     vw 9672   1.966   2.826   4.503  0.0918  0.6622  0.0727
 2419SOL     ow 9673   7.514   1.040   2.672 -0.3727  0.5251 -0.2218
 2419SOL     hw 9674   7.426   1.002   2.680  0.6736 -2.1659 -0.5998
 2419SOL     hw 9675   7.539   1.063   2.761 -1.5002  1.4715 -0.1292
 2419SOL     vw 9676   7.505   1.038   2.685 -0.3834  0.2949 -0.2596
 2420SOL     ow 9677   6.577   5.431   1.385  0.2801 -0.1624  0.1290
 2420SOL     hw 9678   6.563   5.509   1.331 -0.3167 -0.7405 -0.5675
 2420SOL     hw 9679   6.646   5.383   1.340 -1.0949 -1.2843 -0.8713
 2420SOL     vw 9680   6.584   5.435   1.372  0.0200 -0.3865 -0.0948
 2421SOL     ow 9681   6.391   6.169   2.122 -0.1806  0.0503  0.4313
 2421SOL     hw 9682   6.321   6.107   2.101 -1.5746  2.1972 -1.9215
 2421SOL     hw 9683   6.360   6.214   2.200 -0.4607 -0.3735  0.5717
 2421SOL     vw 9684   6.378   6.166   2.129 -0.4017  0.2775  0.1395
 2422SOL     ow 9685   7.363   2.285   5.944  0.4876 -0.3573 -0.6727
 2422SOL     hw 9686   7.400   2.229   5.876 -1.0382 -0.1240 -1.7288
 2422SOL     hw 9687   7.276   2.248   5.961 -0.0363  0.9273 -0.4838
 2422SOL     vw 9688   7.357   2.272   5.937  0.2172 -0.1570 -0.7868
 2423SOL     ow 9689   0.503   5.100   6.275 -0.0814  0.3585  0.2573
 2423SOL     hw 9690   0.483   5.131   6.363 -0.3008  0.8930  0.0253
 2423SOL     hw 9691   0.441   5.029   6.260  1.9687 -1.9073  1.7041
 2423SOL     vw 9692   0.492   5.095   6.285  0.1602  0.1304  0.4175
 2424SOL     ow 9693   4.404   2.130   4.725 -0.5083  0.6112 -0.4093
 2424SOL     hw 9694   4.477   2.125   4.663 -1.4827 -0.5778 -1.5065
 2424SOL     hw 9695   4.363   2.044   4.721 -2.8571  1.6719 -0.9235
 2424SOL     vw 9696   4.409   2.118   4.716 -0.9465  0.5943 -0.6218
 2425SOL     ow 9697   2.667   2.858   0.336  0.6074  0.4973 -0.1062
 2425SOL     hw 9698   2.646   2.831   0.246  2.4811 -2.3045  0.1582
 2425SOL     hw 9699   2.666   2.953   0.333 -1.2418  0.5137 -2.6075
 2425SOL     vw 9700   2.665   2.867   0.324  0.6108  0.1298 -0.4014
 2426SOL     ow 9701   6.968   4.260   3.528  0.3945 -0.5278 -0.4065
 2426SOL     hw 9702   6.949   4.179   3.576 -0.3986 -0.1749 -0.1123
 2426SOL     hw 9703   6.929   4.246   3.442 -0.4418 -0.1483 -0.0926
 2426SOL     vw 9704   6.960   4.247   3.523  0.1793 -0.4313 -0.3264
 2427SOL     ow 9705   7.330   0.009   1.463 -0.3813  0.1248  0.1215
 2427SOL     hw 9706   7.315   0.070   1.535  1.5137  1.1029 -0.2351
 2427SOL     hw 9707   7.393  -0.054   1.498  1.5446  1.3350 -0.9586
 2427SOL     vw 9708   7.337   0.009   1.477  0.1230  0.4135 -0.0681
 2428SOL     ow 9709   2.208   3.082   3.620  0.3780 -0.3525  0.4464
 2428SOL     hw 9710   2.223   3.151   3.555 -0.4174  1.4762  2.0974
 2428SOL     hw 9711   2.113   3.071   3.621  0.1025  1.4765  2.9709
 2428SOL     vw 9712   2.198   3.090   3.611  0.2367  0.1301  0.9973
 2429SOL     ow 9713   5.110   3.403   5.091 -0.0109 -0.0385  0.2572
 2429SOL     hw 9714   5.203   3.406   5.067 -0.0215  2.9307  0.2000
 2429SOL     hw 9715   5.111   3.407   5.187  0.0119  2.3874  0.2305
 2429SOL     vw 9716   5.122   3.404   5.101 -0.0091  0.6733  0.2463
 2430SOL     ow 9717   1.363   2.645   2.627  0.1865  0.3598  0.0058
 2430SOL     hw 9718   1.369   2.706   2.554 -2.0174 -0.6282 -1.0968
 2430SOL     hw 9719   1.403   2.691   2.700  0.5193  2.2512 -1.3018
 2430SOL     vw 9720   1.369   2.659   2.627 -0.0603  0.4791 -0.3122
 2431SOL     ow 9721   5.034   2.252   2.895  0.0970 -0.1479  0.2431
 2431SOL     hw 9722   5.002   2.178   2.844  0.6697 -0.1918 -0.0676
 2431SOL     hw 9723   5.119   2.224   2.928  0.1201  0.2039  0.4926
 2431SOL     vw 9724   5.041   2.239   2.893  0.1755 -0.1073  0.2350
 2432SOL     ow 9725   5.110   4.873   5.351 -0.1310 -0.2027 -0.1132
 2432SOL     hw 9726   5.035   4.924   5.322 -0.0198  0.6170  0.9557
 2432SOL     hw 9727   5.186   4.919   5.314 -0.1135 -0.6819 -0.6899
 2432SOL     vw 9728   5.110   4.886   5.342 -0.1137 -0.1576 -0.0484
 2433SOL     ow 9729   0.981   2.566   3.878  0.1842 -0.7579  0.5575
 2433SOL     hw 9730   1.044   2.604   3.939 -0.6982  1.8922 -0.0626
 2433SOL     hw 9731   1.026   2.564   3.794 -0.7362  2.0864 -0.1120
 2433SOL     vw 9732   0.995   2.570   3.875 -0.0536 -0.0331  0.3873
 2434SOL     ow 9733   6.324   2.295   6.433  0.6497 -0.4086  0.2166
 2434SOL     hw 9734   6.357   2.221   6.485 -0.8594  0.6256  2.7883
 2434SOL     hw 9735   6.365   2.372   6.472 -0.2886  0.3859 -0.3248
 2434SOL     vw 9736   6.334   2.295   6.445  0.3269 -0.1674  0.4842
 2435SOL     ow 9737   0.288   2.723   0.588  0.8645 -0.2695  0.0321
 2435SOL     hw 9738   0.200   2.711   0.624  0.8965  3.2133  1.7263
 2435SOL     hw 9739   0.346   2.684   0.654  0.6819 -0.6583 -0.0326
 2435SOL     vw 9740   0.284   2.716   0.602  0.8446  0.1386  0.2471
 2436SOL     ow 9741   6.878   0.577   3.030  0.2249 -0.9451 -0.3527
 2436SOL     hw 9742   6.849   0.663   2.999  2.0069 -0.0526  0.2499
 2436SOL     hw 9743   6.948   0.552   2.970  1.5453 -0.6761  1.0024
 2436SOL     vw 9744   6.884   0.585   3.018  0.6344 -0.7918 -0.0944
 2437SOL     ow 9745   7.094   0.964   4.027 -0.3313  0.2840 -0.2598
 2437SOL     hw 9746   7.140   0.883   4.006 -0.4618 -0.2211  1.2768
 2437SOL     hw 9747   7.020   0.937   4.081  0.9098  1.5695  2.2464
 2437SOL     vw 9748   7.090   0.950   4.031 -0.1850  0.3870  0.2735
 2438SOL     ow 9749   3.129   4.405   1.972  0.5758  0.5762 -0.6486
 2438SOL     hw 9750   3.163   4.344   1.907  2.9624  0.7599  0.3271
 2438SOL     hw 9751   3.098   4.349   2.043 -0.8028  0.4226 -1.3428
 2438SOL     vw 9752   3.129   4.389   1.973  0.7088  0.5798 -0.6115
 2439SOL     ow 9753   5.060   5.509   1.216 -0.4157  0.0814  0.4615
 2439SOL     hw 9754   5.090   5.428   1.175  0.3719  0.6300 -0.0602
 2439SOL     hw 9755   5.075   5.495   1.310  0.2493 -0.1525  0.3248
 2439SOL     vw 9756   5.066   5.496   1.223 -0.2241  0.1230  0.3747
 2440SOL     ow 9757   1.959   0.690   0.783  0.0782 -0.5000  0.3033
 2440SOL     hw 9758   2.015   0.642   0.844 -2.4347 -1.3222  2.1024
 2440SOL     hw 9759   1.931   0.624   0.719  2.5139  0.3092 -1.7774
 2440SOL     vw 9760   1.963   0.675   0.782  0.0680 -0.5017  0.2661
 2441SOL     ow 9761   5.902   0.888   0.965  0.2487  0.5959  0.0230
 2441SOL     hw 9762   5.815   0.908   0.931  0.6323 -0.1923 -1.4794
 2441SOL     hw 9763   5.917   0.797   0.941  0.6160  0.0128  2.2172
 2441SOL     vw 9764   5.892   0.878   0.957  0.3479  0.4150  0.1143
 2442SOL     ow 9765   1.035   3.254   2.063  0.2507  0.5945 -0.5878
 2442SOL     hw 9766   1.077   3.242   2.148 -0.2012  0.9935 -0.2968
 2442SOL     hw 9767   1.107   3.265   2.001  0.5880 -0.0584 -0.3159
 2442SOL     vw 9768   1.050   3.254   2.066  0.2356  0.5610 -0.5136
 2443SOL     ow 9769   6.620   2.817   2.906 -0.3073  0.4377  0.4391
 2443SOL     hw 9770   6.604   2.890   2.966 -4.3532 -0.8546  1.2734
 2443SOL     hw 9771   6.712   2.794   2.920  0.1609  3.1456  2.6781
 2443SOL     vw 9772   6.630   2.823   2.916 -0.7794  0.6245  0.8446
 2444SOL     ow 9773   1.024   2.043   1.878 -0.4977 -0.8732  0.1804
 2444SOL     hw 9774   0.983   1.979   1.821 -2.6592 -1.6078  2.3714
 2444SOL     hw 9775   0.983   2.126   1.854 -0.3645 -0.9272 -0.2440
 2444SOL     vw 9776   1.013   2.046   1.868 -0.7652 -0.9772  0.4135
 2445SOL     ow 9777   5.733   2.027   2.118 -0.3706 -0.3543  0.3120
 2445SOL     hw 9778   5.703   1.983   2.039  0.9992 -0.7606 -0.0014
 2445SOL     hw 9779   5.718   1.963   2.188  0.8856 -1.0481 -0.0277
 2445SOL     vw 9780   5.727   2.013   2.117 -0.0243 -0.4995  0.2260
 2446SOL     ow 9781   6.806   3.751   1.612  0.8843  0.3539  0.3073
 2446SOL     hw 9782   6.836   3.721   1.698 -0.4655  0.1435  0.7249
 2446SOL     hw 9783   6.785   3.843   1.625 -1.7527 -0.2670  0.9188
 2446SOL     vw 9784   6.807   3.759   1.625  0.3583  0.2444  0.4431
 2447SOL     ow 9785   0.202   4.931   6.337  0.0407  0.3345  0.4650
 2447SOL     hw 9786   0.137   4.893   6.396 -0.5028 -0.2226 -0.4643
 2447SOL     hw 9787   0.160   5.010   6.302  0.5825  0.9819  1.2406
 2447SOL     vw 9788   0.188   4.936   6.340  0.0405  0.3462  0.4447
 2448SOL     ow 9789   4.981   1.283   1.344  0.5888  0.4145 -0.8007
 2448SOL     hw 9790   4.930   1.211   1.381 -0.0139  0.4424 -1.5672
 2448SOL     hw 9791   5.062   1.242   1.313  1.0887  0.3834  0.4866
 2448SOL     vw 9792   4.985   1.268   1.345  0.5751  0.4140 -0.7320
 2449SOL     ow 9793   4.481   4.281   1.115  0.7666  0.4185  0.3769
 2449SOL     hw 9794   4.522   4.196   1.132  0.2721  0.3955  1.5965
 2449SOL     hw 9795   4.387   4.263   1.121  0.6676  1.1995  1.5010
 2449SOL     vw 9796   4.474   4.267   1.118  0.6883  0.5183  0.6861
 2450SOL     ow 9797   3.990   5.058   2.873 -0.2016  0.0349 -0.4058
 2450SOL     hw 9798   3.969   4.966   2.888  2.6084 -0.7951 -0.9096
 2450SOL     hw 9799   4.002   5.065   2.778  0.6812  0.6239 -0.2675
 2450SOL     vw 9800   3.989   5.047   2.862  0.2856  0.0033 -0.4541
 2451SOL     ow 9801   0.737   3.513   3.551  0.2015 -0.0265 -0.4213
 2451SOL     hw 9802   0.670   3.453   3.585  1.7968 -0.6469  1.7866
 2451SOL     hw 9803   0.689   3.595   3.536 -1.2385 -0.6992  0.2489
 2451SOL     vw 9804   0.722   3.516   3.553  0.2220 -0.1971 -0.0416
 2452SOL     ow 9805   2.369   5.937   1.567 -0.1478 -0.4500 -0.0710
 2452SOL     hw 9806   2.403   5.855   1.530 -0.4967 -0.1133 -1.1641
 2452SOL     hw 9807   2.297   5.961   1.510  0.6466  1.2157 -0.4212
 2452SOL     vw 9808   2.364   5.929   1.555 -0.0889 -0.1857 -0.2614
 2453SOL     ow 9809   2.865   0.150   2.019 -0.1703 -0.2549  0.4355
 2453SOL     hw 9810   2.879   0.108   1.934  1.0934  1.0506 -0.0552
 2453SOL     hw 9811   2.871   0.079   2.083 -0.0065 -1.0941 -0.4891
 2453SOL     vw 9812   2.868   0.135   2.016  0.0180 -0.1934  0.2488
 2454SOL     ow 9813   2.298   3.206   4.202 -0.4461 -0.3511 -0.2309
 2454SOL     hw 9814   2.319   3.261   4.127 -0.9064 -0.1014 -0.1818
 2454SOL     hw 9815   2.327   3.256   4.278 -0.6972 -0.2563 -0.1970
 2454SOL     vw 9816   2.304   3.220   4.203 -0.5400 -0.3055 -0.2198
 2455SOL     ow 9817   1.045   2.799   6.956  0.4589 -0.2138  0.6377
 2455SOL     hw 9818   1.139   2.801   6.974  1.2914  0.0060 -3.0156
 2455SOL     hw 9819   1.011   2.878   6.997  2.1620  0.5155  0.7143
 2455SOL     vw 9820   1.053   2.810   6.964  0.7935 -0.0885  0.1657
 2456SOL     ow 9821   0.266   5.776   4.328 -0.1502 -0.1355  0.6846
 2456SOL     hw 9822   0.336   5.822   4.375  1.6980  0.1462 -2.0574
 2456SOL     hw 9823   0.197   5.842   4.319  1.0752  1.0989 -0.2760
 2456SOL     vw 9824   0.266   5.791   4.333  0.2553  0.0644  0.1962
 2457SOL     ow 9825   1.372   5.346   6.152 -0.3646 -0.0848 -0.0051
 2457SOL     hw 9826   1.331   5.300   6.225 -1.1240 -1.2000 -1.0849
 2457SOL     hw 9827   1.398   5.277   6.091 -0.8431  0.8503 -1.3310
 2457SOL     vw 9828   1.370   5.331   6.153 -0.5279 -0.1087 -0.3226
 2458SOL     ow 9829   0.393   3.257   4.608  0.0050  0.0573  1.1813
 2458SOL     hw 9830   0.447   3.183   4.580  0.0957  0.2789  0.7540
 2458SOL     hw 9831   0.341   3.279   4.531  1.7741  2.0223  0.4267
 2458SOL     vw 9832   0.394   3.250   4.594  0.2504  0.3458  1.0254
 2459SOL     ow 9833   2.757   5.741   0.571  0.4992  0.4035  0.3358
 2459SOL     hw 9834   2.669   5.778   0.562  1.1506  2.0143  0.3180
 2459SOL     hw 9835   2.743   5.656   0.613 -1.0723  0.5841  0.2213
 2459SOL     vw 9836   2.744   5.734   0.576  0.3779  0.6402  0.3183
 2460SOL     ow 9837   0.227   6.616   2.377  0.9295 -0.4093 -0.5038
 2460SOL     hw 9838   0.207   6.629   2.284 -0.8374 -1.1172 -0.2431
 2460SOL     hw 9839   0.177   6.683   2.422  1.0260 -0.6868  0.0206
 2460SOL     vw 9840   0.218   6.627   2.371  0.7091 -0.5393 -0.4002
 2461SOL     ow 9841   3.269   4.772   1.473 -0.1836 -0.4675 -0.4554
 2461SOL     hw 9842   3.247   4.705   1.409  0.7328 -1.3109  0.0852
 2461SOL     hw 9843   3.345   4.737   1.521  1.6809  1.8051 -1.5169
 2461SOL     vw 9844   3.276   4.759   1.471  0.1833 -0.2789 -0.5241
 2462SOL     ow 9845   2.506   4.556   5.686 -0.0164  0.0099  0.0025
 2462SOL     hw 9846   2.540   4.640   5.718 -0.7646 -0.7367  3.1176
 2462SOL     hw 9847   2.580   4.516   5.640  1.6238  0.7899  1.8113
 2462SOL     vw 9848   2.521   4.562   5.684  0.1013  0.0145  0.6521
 2463SOL     ow 9849   5.597   1.848   2.305  0.1240 -0.4296  0.0823
 2463SOL     hw 9850   5.602   1.771   2.249 -0.0098 -0.1148 -0.3673
 2463SOL     hw 9851   5.504   1.870   2.307  0.3316  0.6184 -1.0317
 2463SOL     vw 9852   5.585   1.841   2.298  0.1338 -0.2499 -0.1240
 2464SOL     ow 9853   1.431   3.800   4.829 -0.3434  0.4288 -0.3884
 2464SOL     hw 9854   1.491   3.778   4.758  0.4279 -0.8787  0.6169
 2464SOL     hw 9855   1.425   3.896   4.827 -1.6105  0.3982 -3.1784
 2464SOL     vw 9856   1.438   3.810   4.819 -0.4089  0.2522 -0.6239
 2465SOL     ow 9857   6.060   2.839   4.248  0.2335  0.5843  0.1413
 2465SOL     hw 9858   6.094   2.796   4.326 -0.7856  2.8533  1.9474
 2465SOL     hw 9859   5.973   2.800   4.235  0.3656  0.2764  0.1703
 2465SOL     vw 9860   6.053   2.828   4.256  0.1166  0.8429  0.3834
 2466SOL     ow 9861   6.283   7.200   7.406 -0.4943  1.5802 -0.3012
 2466SOL     hw 9862   6.227   7.245   7.342  0.8839  0.3742 -2.4524
 2466SOL     hw 9863   6.221   7.166   7.472 -2.0309  2.3189 -1.3072
 2466SOL     vw 9864   6.267   7.201   7.407 -0.5155  1.5185 -0.7176
 2467SOL     ow 9865   5.931   2.451   6.689 -0.7198  0.4553  0.0780
 2467SOL     hw 9866   5.903   2.541   6.704 -1.1179  0.7811 -2.2230
 2467SOL     hw 9867   6.023   2.458   6.663 -0.4516  0.0761  0.8976
 2467SOL     vw 9868   5.939   2.464   6.687 -0.7367  0.4482 -0.1173
 2468SOL     ow 9869   3.651   2.435   0.998 -0.1546 -0.0694  0.0940
 2468SOL     hw 9870   3.659   2.339   0.997 -0.7932 -0.1564  1.2811
 2468SOL     hw 9871   3.740   2.466   0.985  0.0453 -0.8192 -0.4257
 2468SOL     vw 9872   3.664   2.426   0.996 -0.2124 -0.1799  0.1820
 2469SOL     ow 9873   0.946   1.802   6.727 -0.1833 -0.5302 -0.2228
 2469SOL     hw 9874   0.998   1.807   6.647  1.8608 -1.3266  0.9732
 2469SOL     hw 9875   0.912   1.713   6.727  2.7203 -1.7924  1.3647
 2469SOL     vw 9876   0.948   1.791   6.716  0.4695 -0.8018  0.1447
 2470SOL     ow 9877   6.284   4.677   6.814 -0.0155  0.3465 -0.2323
 2470SOL     hw 9878   6.334   4.606   6.775  2.7442  1.2704  1.3402
 2470SOL     hw 9879   6.222   4.703   6.745 -0.6416 -2.9969 -1.0964
 2470SOL     vw 9880   6.282   4.671   6.799  0.2658  0.0272 -0.1388
 2471SOL     ow 9881   3.702   5.930   3.055  1.1319 -0.3356 -0.1940
 2471SOL     hw 9882   3.748   6.003   3.013 -0.2968  0.2636 -0.7550
 2471SOL     hw 9883   3.723   5.940   3.148  1.6873  0.2580 -0.3708
 2471SOL     vw 9884   3.711   5.941   3.062  1.0167 -0.1786 -0.2913
 2472SOL     ow 9885   7.363   0.457   2.488 -0.0506  0.0743  0.7639
 2472SOL     hw 9886   7.449   0.496   2.476 -0.2748  0.5859  0.8107
 2472SOL     hw 9887   7.304   0.509   2.433 -0.4919  0.3300  1.4601
 2472SOL     vw 9888   7.366   0.469   2.479 -0.1383  0.1756  0.8619
 2473SOL     ow 9889   3.214   7.269   5.442  0.3764 -0.0515 -0.4768
 2473SOL     hw 9890   3.296   7.309   5.472  0.9593 -0.4241 -1.5344
 2473SOL     hw 9891   3.233   7.238   5.353 -0.1554 -2.2989  0.1129
 2473SOL     vw 9892   3.228   7.270   5.434  0.3831 -0.3972 -0.5381
 2474SOL     ow 9893   2.354   2.514   5.300  1.3653 -0.1293  0.1564
 2474SOL     hw 9894   2.417   2.495   5.370  1.2341  1.1637  0.6638
 2474SOL     hw 9895   2.357   2.437   5.243  3.4366 -0.1044  0.1503
 2474SOL     vw 9896   2.363   2.501   5.301  1.6212  0.0447  0.2224
 2475SOL     ow 9897   5.738   3.504   2.870  0.1142  0.3812  0.7488
 2475SOL     hw 9898   5.798   3.575   2.848 -0.7778  0.4897 -1.6371
 2475SOL     hw 9899   5.651   3.542   2.860 -0.4219 -0.1717  2.7432
 2475SOL     vw 9900   5.735   3.518   2.866 -0.0741  0.3226  0.6971
 2476SOL     ow 9901   5.218   5.298   5.668  0.0038  0.0354  0.4413
 2476SOL     hw 9902   5.190   5.219   5.715  0.3230  0.1655  0.8632
 2476SOL     hw 9903   5.137   5.337   5.636 -0.3548  0.6039  1.9624
 2476SOL     vw 9904   5.204   5.293   5.670 -0.0014  0.1278  0.6979
 2477SOL     ow 9905   6.697   5.958   2.878 -1.4013 -0.0886 -0.4668
 2477SOL     hw 9906   6.780   5.970   2.832 -0.3598  1.1648  1.5870
 2477SOL     hw 9907   6.639   6.025   2.842 -0.1800  1.7725  0.8383
 2477SOL     vw 9908   6.700   5.969   2.867 -1.1027  0.3223 -0.0236
 2478SOL     ow 9909   2.127   7.294   7.520 -0.1254  0.0681  0.0295
 2478SOL     hw 9910   2.082   7.299   7.604  0.2728  2.2381  0.1631
 2478SOL     hw 9911   2.196   7.360   7.525 -0.2525  0.4529 -2.0829
 2478SOL     vw 9912   2.130   7.303   7.532 -0.0896  0.4053 -0.2315
 2479SOL     ow 9913   5.887   3.694   4.324  0.5746 -0.3644  0.4311
 2479SOL     hw 9914   5.943   3.618   4.310  1.3779  0.3476 -0.3921
 2479SOL     hw 9915   5.802   3.658   4.350  1.3899 -1.4740  1.6647
 2479SOL     vw 9916   5.883   3.679   4.326  0.7880 -0.4168  0.4849
 2480SOL     ow 9917   7.155   5.161   3.270 -0.1504  0.1035 -0.2447
 2480SOL     hw 9918   7.130   5.250   3.243 -0.5394 -0.3487 -1.4526
 2480SOL     hw 9919   7.160   5.166   3.365 -1.6924  1.0497 -0.1676
 2480SOL     vw 9920   7.152   5.174   3.279 -0.4051  0.1688 -0.3940
 2481SOL     ow 9921   2.886   5.082   1.121 -0.1273  0.0021  0.4967
 2481SOL     hw 9922   2.896   5.098   1.027 -2.8530 -1.1807 -0.0739
 2481SOL     hw 9923   2.792   5.091   1.137  0.3942  1.5229  3.4186
 2481SOL     vw 9924   2.875   5.086   1.110 -0.4182  0.0467  0.8069
 2482SOL     ow 9925   3.394   4.039   2.961  0.1478 -0.0419 -0.2444
 2482SOL     hw 9926   3.318   4.097   2.958 -1.4985 -2.0702 -0.2695
 2482SOL     hw 9927   3.421   4.031   2.870 -2.4120 -2.6465 -0.9154
 2482SOL     vw 9928   3.387   4.046   2.949 -0.4072 -0.6530 -0.3362
 2483SOL     ow 9929   1.315   1.227   4.296  0.6405 -0.3829 -0.4151
 2483SOL     hw 9930   1.296   1.315   4.265 -1.5989 -0.7938 -0.3790
 2483SOL     hw 9931   1.408   1.215   4.278  0.3178  0.7775 -3.4548
 2483SOL     vw 9932   1.325   1.237   4.290  0.3025 -0.2840 -0.8113
 2484SOL     ow 9933   3.754   7.394   7.096  0.7718  0.3579  0.9210
 2484SOL     hw 9934   3.726   7.411   7.185  2.2066 -1.2860  1.7591
 2484SOL     hw 9935   3.848   7.374   7.104  0.8461 -0.2166 -0.8857
 2484SOL     vw 9936   3.763   7.393   7.109  0.9708  0.0653  0.7930
 2485SOL     ow 9937   6.707   0.598   6.602 -0.0320  0.5294  0.3839
 2485SOL     hw 9938   6.765   0.528   6.570 -1.4172  0.1479 -1.4455
 2485SOL     hw 9939   6.726   0.673   6.545 -2.7044 -0.2335 -1.6950
 2485SOL     vw 9940   6.718   0.598   6.590 -0.5672  0.3785 -0.1318
 2486SOL     ow 9941   6.741   1.750   4.717 -0.7903 -0.1517  0.0852
 2486SOL     hw 9942   6.781   1.825   4.761  0.8303  1.3121 -3.4458
 2486SOL     hw 9943   6.651   1.747   4.750 -0.3180  2.0848  1.8108
 2486SOL     vw 9944   6.735   1.760   4.727 -0.5140  0.3365 -0.1528
 2487SOL     ow 9945   7.102   0.729   5.184  1.0397 -0.1470 -0.2092
 2487SOL     hw 9946   7.012   0.719   5.213  1.6479 -0.2596  1.8560
 2487SOL     hw 9947   7.127   0.643   5.151  1.7683 -1.7026  3.7473
 2487SOL     vw 9948   7.094   0.717   5.184  1.2162 -0.3671  0.5851
 2488SOL     ow 9949   2.564   4.803   5.755  0.5080 -0.8800  0.4600
 2488SOL     hw 9950   2.537   4.854   5.831 -3.1369 -1.2984 -0.3699
 2488SOL     hw 9951   2.604   4.867   5.696 -1.2613  0.5371  0.6858
 2488SOL     vw 9952   2.566   4.818   5.757 -0.2062 -0.7484  0.3805
 2489SOL     ow 9953   4.647   1.135   0.484 -0.4022  0.5385 -0.4874
 2489SOL     hw 9954   4.579   1.152   0.550 -0.8670 -0.5439 -0.6590
 2489SOL     hw 9955   4.696   1.060   0.519  0.6857  1.2832 -0.3890
 2489SOL     vw 9956   4.644   1.127   0.497 -0.3200  0.4940 -0.4971
 2490SOL     ow 9957   0.704   7.513   4.820 -0.1670 -0.3975  0.6779
 2490SOL     hw 9958   0.787   7.523   4.867  0.6435 -0.6759 -0.6425
 2490SOL     hw 9959   0.652   7.588   4.848  1.3505  0.9951 -0.0740
 2490SOL     vw 9960   0.708   7.524   4.830  0.1401 -0.2503  0.4046
 2491SOL     ow 9961   4.420   2.260   6.603  0.8182  0.6876 -0.2106
 2491SOL     hw 9962   4.446   2.289   6.691 -0.6960  0.8106  0.2237
 2491SOL     hw 9963   4.455   2.327   6.544  2.9966 -0.0714  0.1296
 2491SOL     vw 9964   4.428   2.273   6.607  0.9055  0.6037 -0.1087
 2492SOL     ow 9965   5.022   3.317   4.810 -0.5987 -0.5006  0.5768
 2492SOL     hw 9966   5.102   3.354   4.848 -1.0186  0.6833  0.3516
 2492SOL     hw 9967   5.041   3.307   4.717 -0.1993 -1.6920  0.7611
 2492SOL     vw 9968   5.035   3.320   4.803 -0.6013 -0.5015  0.5715
 2493SOL     ow 9969   5.700   3.957   4.071 -0.5866  0.4218  0.7274
 2493SOL     hw 9970   5.698   4.048   4.103 -3.6130  0.3424  1.0967
 2493SOL     hw 9971   5.609   3.938   4.048  0.2755 -1.9299 -1.1863
 2493SOL     vw 9972   5.688   3.967   4.073 -0.8719  0.1011  0.5238
 2494SOL     ow 9973   6.819   2.905   6.117  0.3054 -0.2394  0.2702
 2494SOL     hw 9974   6.754   2.855   6.068 -0.5547  1.4562 -0.4352
 2494SOL     hw 9975   6.778   2.992   6.128  2.0838  0.5951  0.6039
 2494SOL     vw 9976   6.805   2.910   6.112  0.4265  0.0943  0.2210
 2495SOL     ow 9977   4.635   3.556   7.492 -0.1232  0.0404  0.4848
 2495SOL     hw 9978   4.721   3.574   7.532  0.0164 -0.4136  0.3976
 2495SOL     hw 9979   4.574   3.555   7.566 -0.0428  0.3004  0.5553
 2495SOL     vw 9980   4.639   3.558   7.507 -0.0939  0.0149  0.4826
 2496SOL     ow 9981   2.305   3.547   0.839  0.7381 -0.0343 -0.2991
 2496SOL     hw 9982   2.262   3.535   0.755 -0.4901 -0.6214  0.3934
 2496SOL     hw 9983   2.295   3.641   0.858 -1.5079 -0.3735  0.4744
 2496SOL     vw 9984   2.298   3.558   0.831  0.2795 -0.1565 -0.1057
 2497SOL     ow 9985   4.100   5.369   6.131  0.5981 -0.5679 -0.4755
 2497SOL     hw 9986   4.027   5.383   6.191  3.2557  1.5610  2.6075
 2497SOL     hw 9987   4.084   5.430   6.059  0.0228  1.0327  0.9374
 2497SOL     vw 9988   4.088   5.379   6.129  0.8729 -0.0756  0.1175
 2498SOL     ow 9989   5.007   2.492   3.061  0.3398  0.3349  0.3143
 2498SOL     hw 9990   5.004   2.524   3.151  0.0795 -0.2810  0.5282
 2498SOL     hw 9991   5.100   2.497   3.037  0.2653  1.5876  0.2089
 2498SOL     vw 9992   5.019   2.497   3.069  0.2954  0.4190  0.3287
 2499SOL     ow 9993   1.361   6.502   7.477 -0.5668 -0.2413 -0.1327
 2499SOL     hw 9994   1.450   6.484   7.509 -0.4500  0.3179 -0.1263
 2499SOL     hw 9995   1.312   6.526   7.556  0.2292  3.1753 -0.5139
 2499SOL     vw 9996   1.366   6.503   7.492 -0.4464  0.2832 -0.1822
 2500SOL     ow 9997   6.313   1.007   2.224  0.2486 -0.5123 -0.5935
 2500SOL     hw 9998   6.322   1.084   2.167  2.1078 -0.2651 -0.0279
 2500SOL     hw 9999   6.280   1.043   2.307 -0.1874 -0.5441 -0.7461
 2500SOL     vw10000   6.310   1.022   2.227  0.4363 -0.4838 -0.5391
 2501SOL     ow10001   0.980   5.518   5.007 -0.1465  0.0045 -0.1842
 2501SOL     hw10002   1.028   5.437   5.023 -0.0656  0.3657  1.5453
 2501SOL     hw10003   0.888   5.493   5.018 -0.1599  0.0283 -0.2419
 2501SOL     vw10004   0.974   5.504   5.011 -0.1376  0.0556  0.0365
 2502SOL     ow10005   1.955   3.523   6.855 -0.2230 -0.4208  0.2828
 2502SOL     hw10006   1.957   3.607   6.899 -4.2053  0.4712 -0.8455
 2502SOL     hw10007   1.995   3.462   6.917  0.5444  1.8422  2.1446
 2502SOL     vw10008   1.961   3.526   6.869 -0.6471 -0.0044  0.3796
 2503SOL     ow10009   4.180   3.644   4.946  0.2067 -0.3010 -0.2697
 2503SOL     hw10010   4.151   3.591   5.021  0.8523  0.7625  0.7667
 2503SOL     hw10011   4.252   3.594   4.908  0.1564 -0.6407  0.0678
 2503SOL     vw10012   4.186   3.630   4.951  0.2851 -0.2055 -0.0887
 2504SOL     ow10013   6.686   3.657   5.304 -0.3603  0.0707  0.6475
 2504SOL     hw10014   6.746   3.649   5.230  0.2990 -1.0275  1.2812
 2504SOL     hw10015   6.635   3.576   5.304 -2.7146  1.4259 -0.5588
 2504SOL     vw10016   6.687   3.645   5.294 -0.5839  0.1045  0.5720
 2505SOL     ow10017   2.702   2.731   6.041 -0.1319  0.6437 -0.1553
 2505SOL     hw10018   2.633   2.794   6.018 -1.3307 -0.9613 -1.1723
 2505SOL     hw10019   2.729   2.695   5.957  0.1544 -0.5660  0.4443
 2505SOL     vw10020   2.696   2.735   6.027 -0.2524  0.2722 -0.2103
 2506SOL     ow10021   5.590   4.084   6.696  0.1838 -0.2270 -0.0373
 2506SOL     hw10022   5.598   4.052   6.786 -0.0042 -0.6696 -0.1748
 2506SOL     hw10023   5.668   4.050   6.652 -0.8405 -1.9472 -0.6061
 2506SOL     vw10024   5.602   4.075   6.702  0.0238 -0.5124 -0.1304
 2507SOL     ow10025   5.764   7.557   5.325 -0.0098  0.1777  0.1719
 2507SOL     hw10026   5.779   7.650   5.309  0.5800  0.0054 -0.3116
 2507SOL     hw10027   5.817   7.536   5.401  1.7854 -0.2819 -1.1411
 2507SOL     vw10028   5.773   7.566   5.333  0.3049  0.0944 -0.0651
 2508SOL     ow10029   1.449   3.786   0.928  0.1970  0.1047 -0.0278
 2508SOL     hw10030   1.436   3.857   0.991 -1.0642  0.5852 -0.7907
 2508SOL     hw10031   1.435   3.706   0.979  0.3680  0.4393  0.5598
 2508SOL     vw10032   1.445   3.785   0.943  0.0531  0.2123 -0.0510
 2509SOL     ow10033   7.498   7.618   2.872 -0.4722  0.0289  0.3814
 2509SOL     hw10034   7.429   7.569   2.917 -2.1170 -0.0270 -2.0321
 2509SOL     hw10035   7.556   7.552   2.835  0.2165  0.0578  1.3648
 2509SOL     vw10036   7.496   7.603   2.873 -0.5984  0.0255  0.1926
 2510SOL     ow10037   0.053   6.249   7.453  0.0577 -0.6106  0.1289
 2510SOL     hw10038   0.023   6.213   7.536 -0.0737  1.0881  0.8638
 2510SOL     hw10039   0.128   6.195   7.429  0.9032 -0.3812  2.0298
 2510SOL     vw10040   0.059   6.237   7.461  0.1519 -0.3562  0.4768
 2511SOL     ow10041   0.818   7.320   2.764 -0.5141  0.9230  0.4697
 2511SOL     hw10042   0.874   7.346   2.691 -2.4452  1.7888 -0.8127
 2511SOL     hw10043   0.851   7.235   2.792  1.3889  1.4018 -0.2239
 2511SOL     vw10044   0.830   7.313   2.758 -0.5178  1.1003  0.2091
 2512SOL     ow10045   6.560   5.414   3.065 -0.5968 -0.3876  0.4790
 2512SOL     hw10046   6.564   5.465   3.146  0.1820 -1.1055  0.9025
 2512SOL     hw10047   6.550   5.480   2.996 -2.8131  0.1519  1.2406
 2512SOL     vw10048   6.559   5.430   3.066 -0.7868 -0.4113  0.6354
 2513SOL     ow10049   5.230   0.851   2.314 -0.3757 -0.2750  0.0522
 2513SOL     hw10050   5.212   0.768   2.358 -0.8105  0.9448  2.2825
 2513SOL     hw10051   5.163   0.857   2.246 -2.6244 -0.1607  2.1669
 2513SOL     vw10052   5.219   0.841   2.311 -0.7298 -0.0990  0.6255
 2514SOL     ow10053   7.264   4.152   3.726 -0.0076 -0.3183  0.7052
 2514SOL     hw10054   7.176   4.187   3.739 -0.7869 -2.2025  0.7577
 2514SOL     hw10055   7.275   4.151   3.631 -1.1722 -2.5669  0.5191
 2514SOL     vw10056   7.254   4.157   3.715 -0.2639 -0.8633  0.6876
 2515SOL     ow10057   2.687   4.130   3.463 -0.6830 -1.1038 -0.6647
 2515SOL     hw10058   2.678   4.225   3.475 -1.0243 -1.5105  4.4901
 2515SOL     hw10059   2.781   4.114   3.471 -0.8522 -1.3127  1.6565
 2515SOL     vw10060   2.698   4.141   3.466 -0.7502 -1.1849  0.3216
 2516SOL     ow10061   6.554   3.691   6.226  0.1614 -0.9314 -0.1547
 2516SOL     hw10062   6.487   3.667   6.162  0.9368 -0.7799 -1.0632
 2516SOL     hw10063   6.518   3.766   6.273 -0.0280 -0.3741 -1.1460
 2516SOL     vw10064   6.541   3.698   6.224  0.2387 -0.8379 -0.4053
 2517SOL     ow10065   3.071   6.661   7.546  0.5171 -0.2579  0.0666
 2517SOL     hw10066   3.085   6.621   7.460  1.2631  0.7105 -0.2784
 2517SOL     hw10067   2.984   6.699   7.540 -0.0450 -1.4645  0.2675
 2517SOL     vw10068   3.061   6.661   7.534  0.5413 -0.2890  0.0477
 2518SOL     ow10069   7.495   7.454   0.268  0.3745 -0.5680 -0.4023
 2518SOL     hw10070   7.413   7.404   0.269 -0.3166  0.4155  2.6118
 2518SOL     hw10071   7.468   7.543   0.244  0.2616  0.0640  1.8738
 2518SOL     vw10072   7.480   7.459   0.265  0.2687 -0.3548  0.2957
 2519SOL     ow10073   1.862   5.589   4.304 -0.3700  0.5477  0.2129
 2519SOL     hw10074   1.836   5.614   4.215  0.7180  0.7293 -0.0701
 2519SOL     hw10075   1.823   5.503   4.318  0.6500 -0.1372 -1.0003
 2519SOL     vw10076   1.853   5.581   4.294 -0.0919  0.4811  0.0157
 2520SOL     ow10077   2.525   4.353   4.653 -0.1004 -0.0836 -0.0951
 2520SOL     hw10078   2.545   4.263   4.679 -0.0331  0.0890  0.4818
 2520SOL     hw10079   2.499   4.347   4.562  1.6954 -0.4494 -0.6216
 2520SOL     vw10080   2.524   4.341   4.645  0.1453 -0.1094 -0.0885
 2521SOL     ow10081   0.690   5.952   3.742  0.1139 -0.0681  0.6599
 2521SOL     hw10082   0.696   5.995   3.657 -0.3142  1.6803  1.4749
 2521SOL     hw10083   0.767   5.982   3.790 -0.3075 -0.0345  1.3291
 2521SOL     vw10084   0.701   5.961   3.738  0.0018  0.1669  0.8556
 2522SOL     ow10085   5.750   7.622   5.810  0.1519 -0.3802 -0.1284
 2522SOL     hw10086   5.677   7.672   5.774 -0.8157 -0.0300  2.1540
 2522SOL     hw10087   5.716   7.585   5.892  2.4016 -0.5436  0.8084
 2522SOL     vw10088   5.736   7.623   5.816  0.3209 -0.3555  0.2964
 2523SOL     ow10089   1.712   0.422   7.139 -0.0304  0.3174 -1.0175
 2523SOL     hw10090   1.711   0.326   7.137 -1.2739  0.2827 -0.0079
 2523SOL     hw10091   1.620   0.447   7.148  0.3108  1.5973 -0.8717
 2523SOL     vw10092   1.700   0.412   7.140 -0.1495  0.4817 -0.8652
 2524SOL     ow10093   2.344   0.588   4.841  0.2784  0.5306  0.0997
 2524SOL     hw10094   2.331   0.506   4.792  0.9297  0.1240  0.5797
 2524SOL     hw10095   2.265   0.639   4.825 -1.4482 -1.3348  2.0304
 2524SOL     vw10096   2.332   0.584   4.832  0.1366  0.2308  0.4179
 2525SOL     ow10097   1.837   3.151   0.046  0.5642 -0.2657  0.0026
 2525SOL     hw10098   1.811   3.227  -0.006  1.9727  0.2949  0.0929
 2525SOL     hw10099   1.802   3.169   0.133  0.2932 -0.0658 -0.1445
 2525SOL     vw10100   1.829   3.163   0.051  0.7143 -0.1653 -0.0049
 2526SOL     ow10101   4.455   1.860   7.211 -0.0324 -0.3018 -0.8913
 2526SOL     hw10102   4.468   1.797   7.140  0.3198 -0.4496 -0.7013
 2526SOL     hw10103   4.360   1.870   7.217 -0.1922 -1.9724  0.0741
 2526SOL     vw10104   4.444   1.853   7.202 -0.0069 -0.5417 -0.7389
 2527SOL     ow10105   1.685   2.810   5.510 -0.0057 -0.3968  0.0027
 2527SOL     hw10106   1.725   2.875   5.568  2.3267 -0.4444 -1.4201
 2527SOL     hw10107   1.612   2.856   5.469  1.1314  1.1348 -0.4082
 2527SOL     vw10108   1.681   2.825   5.512  0.4522 -0.2010 -0.2391
 2528SOL     ow10109   4.246   4.626   1.101  0.2747 -0.3881 -0.4372
 2528SOL     hw10110   4.326   4.588   1.137  0.4050 -1.9492 -2.2206
 2528SOL     hw10111   4.263   4.634   1.007 -1.5153 -0.3655 -0.7977
 2528SOL     vw10112   4.259   4.622   1.093  0.0558 -0.5910 -0.7200
 2529SOL     ow10113   5.507   0.398   6.279 -0.3367  0.4137 -0.0898
 2529SOL     hw10114   5.568   0.341   6.232 -1.5456 -2.1621  1.2612
 2529SOL     hw10115   5.547   0.410   6.365 -0.8031  0.3190  0.1440
 2529SOL     vw10116   5.520   0.392   6.284 -0.5577  0.0614  0.1194
 2530SOL     ow10117   2.520   5.642   4.174  0.2260 -0.6568 -0.0345
 2530SOL     hw10118   2.455   5.699   4.215 -1.0795 -0.6965 -1.9052
 2530SOL     hw10119   2.603   5.688   4.185 -0.5884  0.9483 -0.2658
 2530SOL     vw10120   2.523   5.656   4.181 -0.0538 -0.4504 -0.3119
 2531SOL     ow10121   1.678   0.843   5.549  0.2715  0.1923  0.5076
 2531SOL     hw10122   1.591   0.816   5.578  0.4791 -0.1111  0.8587
 2531SOL     hw10123   1.671   0.937   5.536 -0.0626  0.1969  0.7074
 2531SOL     vw10124   1.666   0.852   5.551  0.2548  0.1529  0.5803
 2532SOL     ow10125   2.766   1.275   3.790  0.3405 -0.6322 -0.2742
 2532SOL     hw10126   2.735   1.206   3.731  1.6819 -1.3989 -0.1425
 2532SOL     hw10127   2.743   1.357   3.747 -2.1571 -1.0945  0.0104
 2532SOL     vw10128   2.759   1.277   3.777  0.1881 -0.7944 -0.2191
 2533SOL     ow10129   1.131   5.650   5.210 -0.2067 -0.3498 -0.1817
 2533SOL     hw10130   1.056   5.611   5.164 -1.8999 -1.2552  3.0853
 2533SOL     hw10131   1.095   5.724   5.258  2.0015  2.1531 -2.0395
 2533SOL     vw10132   1.117   5.654   5.210 -0.1388 -0.1388  0.0041
 2534SOL     ow10133   2.121   2.426   3.404 -0.4274 -0.2190 -0.2132
 2534SOL     hw10134   2.028   2.422   3.384 -0.3753 -2.2723 -0.2143
 2534SOL     hw10135   2.165   2.415   3.320 -0.1379  1.6250 -0.3451
 2534SOL     vw10136   2.114   2.424   3.390 -0.3824 -0.2466 -0.2308
 2535SOL     ow10137   3.880   0.906   4.405  0.2917 -0.6409  0.8415
 2535SOL     hw10138   3.892   0.813   4.385  0.8159 -1.0289  2.8120
 2535SOL     hw10139   3.946   0.950   4.352 -2.2355 -0.9091 -2.9825
 2535SOL     vw10140   3.890   0.899   4.395  0.0274 -0.7275  0.5970
 2536SOL     ow10141   6.682   1.716   7.558 -0.5292  1.0018 -0.3388
 2536SOL     hw10142   6.658   1.763   7.638 -0.1545 -0.0798  0.4326
 2536SOL     hw10143   6.600   1.703   7.511 -1.2327 -0.8942  1.2909
 2536SOL     vw10144   6.668   1.720   7.562 -0.5724  0.6089 -0.0222
 2537SOL     ow10145   6.416   5.361   7.524 -0.4095  0.2340  0.1290
 2537SOL     hw10146   6.342   5.390   7.470 -1.3066 -2.3052 -0.1468
 2537SOL     hw10147   6.464   5.299   7.468 -0.4919 -1.3202  1.6812
 2537SOL     vw10148   6.413   5.356   7.509 -0.5388 -0.3061  0.2973
 2538SOL     ow10149   0.767   1.995   6.699 -0.1650 -0.0911 -0.1566
 2538SOL     hw10150   0.817   2.076   6.710 -1.2944  1.0453 -2.6524
 2538SOL     hw10151   0.833   1.926   6.697  0.7942  0.6234  2.5660
 2538SOL     vw10152   0.783   1.996   6.700 -0.1875  0.1531 -0.1268
 2539SOL     ow10153   0.698   4.032   5.854  0.1665 -1.4571 -0.4654
 2539SOL     hw10154   0.609   4.066   5.861  0.9368  1.1094 -1.8831
 2539SOL     hw10155   0.687   3.937   5.846 -2.5536 -1.1030 -2.1472
 2539SOL     vw10156   0.685   4.024   5.854 -0.0908 -1.0719 -0.8745
 2540SOL     ow10157   1.320   3.582   3.818  0.2182 -0.0477  1.1529
 2540SOL     hw10158   1.284   3.510   3.869  0.7346 -1.9363 -0.9972
 2540SOL     hw10159   1.244   3.627   3.782 -0.0847 -0.2953  1.4775
 2540SOL     vw10160   1.306   3.579   3.820  0.2463 -0.3294  0.9120
 2541SOL     ow10161   6.328   3.684   7.185  0.4709  0.5103  0.3657
 2541SOL     hw10162   6.350   3.742   7.259  1.6773  0.1212  0.3405
 2541SOL     hw10163   6.413   3.658   7.150 -0.0868  1.1740 -1.5618
 2541SOL     vw10164   6.342   3.688   7.190  0.5565  0.5465  0.1082
 2542SOL     ow10165   1.379   0.190   7.411 -0.0882  0.0634 -0.2704
 2542SOL     hw10166   1.311   0.253   7.385 -1.4560 -0.2523  2.2278
 2542SOL     hw10167   1.333   0.127   7.467  2.4183  0.5731  2.6509
 2542SOL     vw10168   1.364   0.190   7.415  0.0620  0.0890  0.4444
 2543SOL     ow10169   5.554   4.069   4.280 -0.5300 -0.5559 -0.3855
 2543SOL     hw10170   5.603   4.036   4.355  1.6468 -2.0965 -2.3291
 2543SOL     hw10171   5.502   3.994   4.251  0.5886 -0.8271 -1.8383
 2543SOL     vw10172   5.554   4.055   4.286 -0.0949 -0.7949 -0.8335
 2544SOL     ow10173   6.779   0.943   6.322 -0.1101 -0.7958 -0.0406
 2544SOL     hw10174   6.719   0.869   6.324 -0.2817 -0.6406  0.8148
 2544SOL     hw10175   6.726   1.016   6.291 -1.2278  0.0429  3.3835
 2544SOL     vw10176   6.764   0.943   6.318 -0.2804 -0.6646  0.5240
 2545SOL     ow10177   1.164   1.997   3.083  0.8335  0.8591 -0.7533
 2545SOL     hw10178   1.224   1.979   3.156  1.0131  0.4519 -0.9969
 2545SOL     hw10179   1.135   1.910   3.054  0.2044  1.0485 -0.7067
 2545SOL     vw10180   1.168   1.983   3.089  0.7743  0.8304 -0.7793
 2546SOL     ow10181   6.925   5.084   5.938 -0.4015  0.1458  0.1265
 2546SOL     hw10182   6.920   5.144   6.012  1.7068  2.1549 -1.2267
 2546SOL     hw10183   6.935   4.997   5.978  1.1901  1.2130  2.2103
 2546SOL     vw10184   6.926   5.080   5.953  0.0868  0.5515  0.2229
 2547SOL     ow10185   4.849   4.941   7.293 -0.0629  0.0533 -0.3943
 2547SOL     hw10186   4.790   4.907   7.360  0.3365  0.9560  0.4250
 2547SOL     hw10187   4.795   5.000   7.241  0.3305  1.7410  1.0246
 2547SOL     vw10188   4.834   4.944   7.295  0.0417  0.3951 -0.0992
 2548SOL     ow10189   4.090   3.256   0.135  0.7307 -0.0540  0.2918
 2548SOL     hw10190   4.088   3.161   0.129  1.9147 -0.0195 -2.7667
 2548SOL     hw10191   4.158   3.276   0.199  1.6262 -1.2914 -0.2451
 2548SOL     vw10192   4.099   3.246   0.142  1.0052 -0.2128 -0.1825
 2549SOL     ow10193   1.934   6.475   7.494 -0.0346  0.0405 -0.2655
 2549SOL     hw10194   1.929   6.515   7.407 -0.9829  3.0780  1.0669
 2549SOL     hw10195   2.020   6.500   7.527 -0.2928  0.2748  0.2504
 2549SOL     vw10196   1.945   6.483   7.487 -0.1938  0.4723 -0.0215
 2550SOL     ow10197   2.208   2.748   3.464  0.0952  0.4362 -0.2051
 2550SOL     hw10198   2.295   2.736   3.424  0.5232  1.0449  0.5264
 2550SOL     hw10199   2.208   2.838   3.496 -1.6310  1.2029 -2.1156
 2550SOL     vw10200   2.220   2.758   3.463 -0.0761  0.6174 -0.3607
 2551SOL     ow10201   2.090   4.451   2.796 -0.2702  0.1712 -0.4444
 2551SOL     hw10202   2.025   4.407   2.851 -0.0129  0.2714 -0.0600
 2551SOL     hw10203   2.174   4.429   2.835 -0.0755  0.0958 -0.9045
 2551SOL     vw10204   2.092   4.443   2.808 -0.2106  0.1745 -0.4544
 2552SOL     ow10205   1.744   2.036   5.700 -0.0774  0.4782  0.3139
 2552SOL     hw10206   1.807   2.032   5.628  1.7156  1.2094  1.7573
 2552SOL     hw10207   1.692   1.956   5.691  1.2792 -0.3281 -0.7540
 2552SOL     vw10208   1.745   2.025   5.689  0.3381  0.4684  0.3633
 2553SOL     ow10209   0.111   3.654   2.528  0.0735 -0.1832 -0.2085
 2553SOL     hw10210   0.191   3.667   2.478  0.7981 -0.0167  0.9555
 2553SOL     hw10211   0.116   3.563   2.557  0.0470 -0.0483  0.2181
 2553SOL     vw10212   0.122   3.644   2.525  0.1656 -0.1435  0.0013
 2554SOL     ow10213   2.348   4.294   4.379  0.0682 -0.0531  0.1281
 2554SOL     hw10214   2.300   4.370   4.348 -0.2195 -0.1232  0.3907
 2554SOL     hw10215   2.291   4.255   4.446 -0.2307 -1.0454 -0.6684
 2554SOL     vw10216   2.334   4.299   4.384 -0.0093 -0.1934  0.0577
 2555SOL     ow10217   2.616   7.181   2.421 -0.0453 -0.5970  0.5935
 2555SOL     hw10218   2.634   7.210   2.511 -1.0005  2.2911 -0.0255
 2555SOL     hw10219   2.660   7.097   2.414 -0.7718 -1.4471  4.0709
 2555SOL     vw10220   2.624   7.174   2.432 -0.2671 -0.3283  0.9706
 2556SOL     ow10221   5.385   7.262   5.303 -0.6065 -0.3268 -0.5325
 2556SOL     hw10222   5.446   7.293   5.236 -0.5171  0.9192  0.0841
 2556SOL     hw10223   5.398   7.168   5.306  0.7233 -0.1776 -0.9560
 2556SOL     vw10224   5.395   7.254   5.294 -0.4191 -0.1426 -0.5071
 2557SOL     ow10225   5.316   2.055   4.388  0.4185 -0.1478  0.3742
 2557SOL     hw10226   5.247   2.101   4.341 -1.1633 -0.7756  1.9817
 2557SOL     hw10227   5.370   2.016   4.319 -1.4383 -0.5298 -0.9276
 2557SOL     vw10228   5.314   2.056   4.373 -0.0350 -0.2812  0.4146
 2558SOL     ow10229   2.535   0.829   5.623 -0.0290  0.1326 -0.3390
 2558SOL     hw10230   2.574   0.817   5.536 -0.6486  2.7863 -1.0573
 2558SOL     hw10231   2.450   0.785   5.617  1.5465 -3.3621  0.3889
 2558SOL     vw10232   2.529   0.821   5.611  0.0969  0.0216 -0.3378
 2559SOL     ow10233   6.832   5.492   3.048 -0.5339 -0.4038 -0.0623
 2559SOL     hw10234   6.751   5.450   3.020 -1.3883  1.1131 -0.0342
 2559SOL     hw10235   6.823   5.498   3.144  0.3935 -1.7069  0.1285
 2559SOL     vw10236   6.820   5.488   3.057 -0.5243 -0.3757 -0.0334
 2560SOL     ow10237   0.677   3.535   3.113  0.4557 -0.3016  0.1019
 2560SOL     hw10238   0.715   3.620   3.089 -0.7535  0.6393  1.2918
 2560SOL     hw10239   0.738   3.499   3.177  1.1819 -0.5235 -0.7069
 2560SOL     vw10240   0.690   3.542   3.118  0.3920 -0.2066  0.1522
 2561SOL     ow10241   2.123   6.108   4.704 -0.0402  0.5019 -0.3225
 2561SOL     hw10242   2.173   6.132   4.625 -0.2751 -1.5759 -1.1635
 2561SOL     hw10243   2.159   6.165   4.772  0.8165  1.7267 -1.7114
 2561SOL     vw10244   2.135   6.119   4.702  0.0418  0.3896 -0.6166
 2562SOL     ow10245   6.684   5.591   0.802  0.1746 -0.3372  0.7402
 2562SOL     hw10246   6.693   5.602   0.707 -0.8866  2.6443  0.8664
 2562SOL     hw10247   6.623   5.660   0.828 -0.4710 -1.7885  3.4798
 2562SOL     vw10248   6.677   5.601   0.793 -0.0505 -0.1354  1.1183
 2563SOL     ow10249   3.554   7.498   1.904 -0.5013  1.6424 -0.4486
 2563SOL     hw10250   3.645   7.504   1.933 -0.2512  0.9253 -1.0490
 2563SOL     hw10251   3.559   7.455   1.818 -1.5149 -0.0369  0.2667
 2563SOL     vw10252   3.567   7.493   1.896 -0.6020  1.3263 -0.4334
 2564SOL     ow10253   6.656   1.549   6.074  0.1478  0.5726 -0.0290
 2564SOL     hw10254   6.608   1.562   6.156 -2.9524  0.8252 -1.7139
 2564SOL     hw10255   6.614   1.609   6.012 -0.4037 -2.3423 -2.7564
 2564SOL     vw10256   6.644   1.558   6.077 -0.3340  0.2214 -0.6113
 2565SOL     ow10257   1.428   0.381   4.090 -0.2652  0.1896  0.6918
 2565SOL     hw10258   1.356   0.422   4.138  0.6861  0.5689  1.8291
 2565SOL     hw10259   1.418   0.287   4.109  0.4461  0.3872  2.1531
 2565SOL     vw10260   1.417   0.374   4.099 -0.0458  0.2657  1.0347
 2566SOL     ow10261   3.159   0.524   6.160 -0.8209  0.0586 -0.1006
 2566SOL     hw10262   3.080   0.481   6.194 -0.0073 -0.3332  1.3918
 2566SOL     hw10263   3.189   0.580   6.232 -0.3922  1.1349 -1.0830
 2566SOL     vw10264   3.152   0.526   6.174 -0.6571  0.1489 -0.0334
 2567SOL     ow10265   0.994   1.871   1.681 -0.0487  0.0966  0.5801
 2567SOL     hw10266   0.998   1.952   1.630 -1.2829  0.2260  0.6568
 2567SOL     hw10267   0.973   1.804   1.616  1.5261 -0.2855  0.4203
 2567SOL     vw10268   0.992   1.873   1.665 -0.0037  0.0632  0.5692
 2568SOL     ow10269   6.301   2.953   0.025 -0.2491 -0.3749 -0.0952
 2568SOL     hw10270   6.251   3.030   0.051 -1.1469 -1.1058  0.3913
 2568SOL     hw10271   6.376   2.988  -0.022 -0.4469  0.8163  0.4383
 2568SOL     vw10272   6.305   2.968   0.023 -0.3936 -0.3141  0.0394
 2569SOL     ow10273   5.103   2.444   1.892  0.2091 -0.3219  0.3700
 2569SOL     hw10274   5.017   2.405   1.877  0.3287  0.2745 -2.3933
 2569SOL     hw10275   5.152   2.428   1.812  2.7210 -0.6050  1.8368
 2569SOL     vw10276   5.098   2.437   1.880  0.5562 -0.2805  0.1990
 2570SOL     ow10277   0.537   7.431   3.534  0.5008 -0.4801 -0.4727
 2570SOL     hw10278   0.495   7.438   3.448  1.1808  1.4340 -0.7014
 2570SOL     hw10279   0.492   7.495   3.588  1.6770  0.0749 -0.1131
 2570SOL     vw10280   0.526   7.440   3.530  0.7457 -0.1545 -0.4555
 2571SOL     ow10281   2.218   4.536   5.767  0.6240  0.5153 -0.1891
 2571SOL     hw10282   2.243   4.610   5.712 -0.5626  1.7153  0.8252
 2571SOL     hw10283   2.184   4.575   5.847 -0.7388 -1.1040  0.0857
 2571SOL     vw10284   2.217   4.551   5.771  0.2875  0.4599 -0.0191
 2572SOL     ow10285   2.869   0.946   5.888 -0.4193 -0.0880 -0.0255
 2572SOL     hw10286   2.932   0.877   5.906 -1.8543 -1.2553  0.7986
 2572SOL     hw10287   2.784   0.905   5.904 -1.3129  1.9551  0.8155
 2572SOL     vw10288   2.866   0.932   5.893 -0.7265  0.0275  0.1938
 2573SOL     ow10289   1.404   1.199   6.497 -0.0665  0.4218  0.0033
 2573SOL     hw10290   1.353   1.271   6.461  2.1341  0.3895 -3.7388
 2573SOL     hw10291   1.356   1.120   6.469  1.2478  0.4185 -2.5754
 2573SOL     vw10292   1.391   1.198   6.488  0.3973  0.4171 -0.8307
 2574SOL     ow10293   7.391   2.986   4.318 -0.9846  0.2433  0.1586
 2574SOL     hw10294   7.433   2.983   4.232 -0.5062 -0.0679  0.3974
 2574SOL     hw10295   7.442   2.926   4.372 -0.3494  1.5538  1.0755
 2574SOL     vw10296   7.403   2.978   4.314 -0.8378  0.3752  0.3111
 2575SOL     ow10297   7.340   1.442   5.350  0.2049 -0.0892 -0.0205
 2575SOL     hw10298   7.341   1.537   5.338  2.3755 -0.0147  0.3492
 2575SOL     hw10299   7.274   1.427   5.417  1.6370  1.4653  1.8437
 2575SOL     vw10300   7.332   1.453   5.357  0.6804  0.1256  0.2742
 2576SOL     ow10301   5.856   3.090   2.709 -0.0308  0.5028  0.3054
 2576SOL     hw10302   5.939   3.114   2.667 -0.3287 -1.0270 -1.2778
 2576SOL     hw10303   5.831   3.008   2.667 -2.0109  0.5774  1.2400
 2576SOL     vw10304   5.863   3.083   2.698 -0.3314  0.3109  0.2197
 2577SOL     ow10305   6.900   1.425   0.248 -0.0353 -0.0289 -0.5404
 2577SOL     hw10306   6.837   1.359   0.219  0.2971  0.3407 -2.2259
 2577SOL     hw10307   6.847   1.498   0.279 -0.4346 -0.0648 -1.1318
 2577SOL     vw10308   6.885   1.426   0.248 -0.0443  0.0151 -0.8408
 2578SOL     ow10309   6.228   7.242   4.015  0.3348 -0.3212  0.3603
 2578SOL     hw10310   6.161   7.186   3.978  0.8684  0.4314 -1.9432
 2578SOL     hw10311   6.201   7.331   3.991  1.2201  0.1226  0.9457
 2578SOL     vw10312   6.216   7.247   4.007  0.5219 -0.1633  0.1338
 2579SOL     ow10313   2.149   6.572   7.612 -0.2728  0.0831  0.0688
 2579SOL     hw10314   2.204   6.650   7.621  0.3847 -0.5568  2.2085
 2579SOL     hw10315   2.152   6.530   7.698 -0.8428 -2.1664 -0.9218
 2579SOL     vw10316   2.157   6.577   7.624 -0.2612 -0.2980  0.2204
 2580SOL     ow10317   1.832   4.281   7.488  0.4365  0.7371  0.9125
 2580SOL     hw10318   1.832   4.200   7.438  1.1585  0.1724  1.8065
 2580SOL     hw10319   1.782   4.342   7.434  0.6998 -0.0190 -0.2158
 2580SOL     vw10320   1.825   4.279   7.475  0.5665  0.5631  0.8814
 2581SOL     ow10321   3.556   5.749   6.787 -0.0807 -0.6104 -0.5777
 2581SOL     hw10322   3.493   5.775   6.720  1.1040 -1.9705 -2.3240
 2581SOL     hw10323   3.511   5.682   6.838 -0.5607 -0.4681 -0.8123
 2581SOL     vw10324   3.542   5.744   6.785  0.0123 -0.7710 -0.8390
 2582SOL     ow10325   3.371   0.181   4.151 -0.0508 -0.0301 -0.1924
 2582SOL     hw10326   3.313   0.156   4.223  0.0750 -0.2563 -0.1707
 2582SOL     hw10327   3.457   0.150   4.177  0.3148  1.3319  0.3141
 2582SOL     vw10328   3.375   0.174   4.164  0.0139  0.1198 -0.1228
 2583SOL     ow10329   4.731   2.182   5.013  0.1189 -0.0229 -0.2530
 2583SOL     hw10330   4.699   2.120   4.947  0.0617 -0.3383  0.0667
 2583SOL     hw10331   4.815   2.147   5.040  0.2608  0.2457 -0.3428
 2583SOL     vw10332   4.738   2.169   5.008  0.1299 -0.0291 -0.2224
 2584SOL     ow10333   0.772   5.353   1.198  0.1960 -0.5010  0.1863
 2584SOL     hw10334   0.682   5.382   1.184  0.1203  0.6260  2.5305
 2584SOL     hw10335   0.820   5.381   1.120 -1.6689 -2.3623 -1.7693
 2584SOL     vw10336   0.767   5.360   1.186 -0.0600 -0.5980  0.2376
 2585SOL     ow10337   0.093   1.585   0.262  0.5610  0.6960  0.0885
 2585SOL     hw10338   0.001   1.587   0.290  0.7582  0.4046  0.7868
 2585SOL     hw10339   0.114   1.492   0.251 -0.1423  0.8177 -3.3185
 2585SOL     vw10340   0.084   1.573   0.265  0.4943  0.6737 -0.2689
 2586SOL     ow10341   5.584   7.346   5.701 -0.0781  0.2261 -0.0796
 2586SOL     hw10342   5.669   7.301   5.701 -0.0529  0.1426  1.9272
 2586SOL     hw10343   5.575   7.382   5.613  1.7990 -0.2032 -0.4944
 2586SOL     vw10344   5.594   7.344   5.690  0.1726  0.1585  0.1307
 2587SOL     ow10345   3.983   1.260   0.913  0.1419 -0.2609 -0.5110
 2587SOL     hw10346   4.076   1.281   0.923 -0.2332  0.4168  2.6145
 2587SOL     hw10347   3.971   1.180   0.964 -1.1111  0.1795 -0.0692
 2587SOL     vw10348   3.994   1.252   0.921 -0.0730 -0.1134 -0.0403
 2588SOL     ow10349   1.935   5.554   1.315 -0.3333 -0.0840 -0.1738
 2588SOL     hw10350   1.865   5.582   1.373  3.6315  1.9000  4.3146
 2588SOL     hw10351   1.981   5.634   1.291 -0.5683 -1.0333 -4.8611
 2588SOL     vw10352   1.932   5.568   1.319  0.1587  0.0522 -0.2001
 2589SOL     ow10353   1.884   1.237   6.670  0.3546  0.5845 -0.5766
 2589SOL     hw10354   1.906   1.326   6.644  1.6889  0.7809  1.0708
 2589SOL     hw10355   1.835   1.202   6.596 -0.7006  2.8488 -1.0303
 2589SOL     vw10356   1.881   1.244   6.657  0.3914  0.9091 -0.4191
 2590SOL     ow10357   3.363   6.692   1.641 -0.1855 -0.7956 -0.7819
 2590SOL     hw10358   3.445   6.658   1.677  1.1182  0.8363 -1.9920
 2590SOL     hw10359   3.353   6.778   1.681 -1.2666 -0.9372 -0.7277
 2590SOL     vw10360   3.373   6.699   1.651 -0.1562 -0.5987 -0.9344
 2591SOL     ow10361   2.697   0.971   3.930 -0.3761  0.0684  0.3831
 2591SOL     hw10362   2.720   0.904   3.995 -0.8268 -0.3209  0.1495
 2591SOL     hw10363   2.675   1.048   3.982 -0.7351 -0.2417  0.7011
 2591SOL     vw10364   2.697   0.972   3.945 -0.4829 -0.0239  0.3943
 2592SOL     ow10365   5.030   3.592   2.755  0.0060  1.2083 -1.3687
 2592SOL     hw10366   5.049   3.512   2.804 -1.7332  1.6845  0.2079
 2592SOL     hw10367   4.978   3.563   2.680 -0.3736  0.8339 -0.9611
 2592SOL     vw10368   5.026   3.578   2.752 -0.2737  1.2218 -1.1070
 2593SOL     ow10369   5.922   5.039   4.984 -0.1264  0.4605 -0.2010
 2593SOL     hw10370   5.982   5.042   5.058 -0.2656 -1.4193  0.0221
 2593SOL     hw10371   5.859   5.109   5.001  1.1506  1.5546  0.2598
 2593SOL     vw10372   5.922   5.049   4.996  0.0238  0.3567 -0.1106
 2594SOL     ow10373   6.176   3.457   6.863 -0.0256 -0.2017  0.1274
 2594SOL     hw10374   6.153   3.532   6.918 -1.1289 -0.3127 -0.1723
 2594SOL     hw10375   6.096   3.437   6.815  0.6848 -0.6406 -0.8974
 2594SOL     vw10376   6.163   3.465   6.864 -0.0777 -0.2743 -0.0472
 2595SOL     ow10377   6.662   6.590   1.851 -0.1763  0.3898  0.2736
 2595SOL     hw10378   6.586   6.641   1.821 -1.0866 -0.2298  1.4266
 2595SOL     hw10379   6.679   6.528   1.780  1.2455  2.5275 -1.3716
 2595SOL     vw10380   6.654   6.589   1.838 -0.1090  0.5901  0.2086
 2596SOL     ow10381   0.611   3.301   0.154 -0.7061 -0.1248  0.1496
 2596SOL     hw10382   0.534   3.278   0.204  1.1067 -0.5858  2.9482
 2596SOL     hw10383   0.639   3.385   0.190  1.9345 -1.5404  1.7477
 2596SOL     vw10384   0.605   3.309   0.165 -0.1185 -0.3725  0.7297
 2597SOL     ow10385   0.967   0.640   0.877 -0.1999 -0.1942 -0.2224
 2597SOL     hw10386   0.973   0.730   0.844 -2.2575 -0.1167 -0.5131
 2597SOL     hw10387   1.049   0.599   0.850  0.5689  1.4529 -0.5112
 2597SOL     vw10388   0.978   0.647   0.869 -0.3700  0.0333 -0.2988
 2598SOL     ow10389   6.271   5.135   1.852  0.2080 -0.2714  0.2079
 2598SOL     hw10390   6.336   5.089   1.799  2.5271  2.5900  0.3359
 2598SOL     hw10391   6.187   5.107   1.815  1.6234  0.3165 -4.0437
 2598SOL     vw10392   6.268   5.125   1.840  0.7007  0.1841 -0.3362
 2599SOL     ow10393   2.258   5.743   3.802 -0.2912 -0.6594  0.5514
 2599SOL     hw10394   2.242   5.662   3.850 -0.2238 -0.7310  0.4557
 2599SOL     hw10395   2.349   5.766   3.823  0.0179 -1.1520 -0.2113
 2599SOL     vw10396   2.268   5.735   3.811 -0.2415 -0.7341  0.4382
 2600SOL     ow10397   1.017   1.860   4.384 -0.1282 -0.4588  0.1444
 2600SOL     hw10398   1.049   1.794   4.447 -0.1924  0.6188  1.3337
 2600SOL     hw10399   1.030   1.818   4.299  3.5339 -0.5612  0.5578
 2600SOL     vw10400   1.023   1.845   4.381  0.3465 -0.3301  0.3555
 2601SOL     ow10401   4.773   3.321   2.780 -0.4423  0.4354  0.2933
 2601SOL     hw10402   4.812   3.235   2.763 -0.4783  0.2451  1.1306
 2601SOL     hw10403   4.768   3.362   2.694  1.8098  0.5499  0.1470
 2601SOL     vw10404   4.777   3.315   2.766 -0.1502  0.4256  0.3846
 2602SOL     ow10405   1.681   3.060   5.903 -0.6396 -0.0366 -1.1291
 2602SOL     hw10406   1.600   3.009   5.907 -0.2570 -0.6539 -1.0523
 2602SOL     hw10407   1.750   2.994   5.908 -0.0224  0.6407  3.2453
 2602SOL     vw10408   1.679   3.044   5.904 -0.5077 -0.0288 -0.5419
 2603SOL     ow10409   4.098   4.558   5.599  0.4291 -0.9219  0.1366
 2603SOL     hw10410   4.074   4.606   5.520  1.9355 -0.9385 -0.3788
 2603SOL     hw10411   4.081   4.620   5.671 -1.1161 -0.9774 -0.1596
 2603SOL     vw10412   4.093   4.573   5.598  0.4239 -0.9315  0.0293
 2604SOL     ow10413   2.563   3.980   3.664 -0.3461  0.0883  0.1960
 2604SOL     hw10414   2.625   3.908   3.682  2.1089  1.9001 -0.4561
 2604SOL     hw10415   2.597   4.054   3.714 -1.4780  1.4155 -0.9039
 2604SOL     vw10416   2.576   3.980   3.673 -0.1715  0.5025 -0.0352
 2605SOL     ow10417   4.723   0.912   0.066  0.1056  0.0130 -0.5292
 2605SOL     hw10418   4.772   0.836   0.033  0.3995 -0.2236  0.4123
 2605SOL     hw10419   4.662   0.875   0.130  1.1946  0.7028  0.9579
 2605SOL     vw10420   4.721   0.897   0.070  0.2880  0.0728 -0.2088
 2606SOL     ow10421   4.598   3.027   4.887  0.1491  0.1207  0.1260
 2606SOL     hw10422   4.521   3.073   4.920  2.8588  2.7979  3.4998
 2606SOL     hw10423   4.608   2.952   4.946 -0.6318 -1.2215 -1.3433
 2606SOL     vw10424   4.589   3.023   4.899  0.4036  0.2968  0.3772
 2607SOL     ow10425   4.663   1.506   0.121  0.1380  0.0000  0.1109
 2607SOL     hw10426   4.676   1.552   0.038  0.4901  0.5388  0.4609
 2607SOL     hw10427   4.734   1.537   0.177  0.2660 -0.8257  0.4152
 2607SOL     vw10428   4.674   1.516   0.117  0.2012 -0.0378  0.1972
 2608SOL     ow10429   5.478   0.568   2.367 -0.2277 -0.3444 -0.8230
 2608SOL     hw10430   5.538   0.628   2.323 -0.8104  1.2773  0.4956
 2608SOL     hw10431   5.535   0.505   2.412  0.5341  1.0490  0.2552
 2608SOL     vw10432   5.493   0.567   2.367 -0.2038  0.0535 -0.5068
 2609SOL     ow10433   5.465   4.271   7.617  0.0882 -0.0376 -0.1185
 2609SOL     hw10434   5.453   4.248   7.525 -1.1811 -0.2890  0.0957
 2609SOL     hw10435   5.557   4.297   7.623  0.5834 -1.4229 -1.1555
 2609SOL     vw10436   5.476   4.272   7.606 -0.0138 -0.2534 -0.2272
 2610SOL     ow10437   0.830   3.205   1.824 -0.4523 -0.6747 -0.1985
 2610SOL     hw10438   0.896   3.155   1.775 -0.6250 -0.9957 -0.1030
 2610SOL     hw10439   0.774   3.243   1.756  0.9977  1.2469 -0.3848
 2610SOL     vw10440   0.832   3.203   1.808 -0.2838 -0.4636 -0.2105
 2611SOL     ow10441   0.282   4.725   6.176  0.4129  0.3161 -0.2319
 2611SOL     hw10442   0.227   4.648   6.176  0.3645  0.2300  2.4873
 2611SOL     hw10443   0.223   4.798   6.196  0.1318  1.4897 -4.4886
 2611SOL     vw10444   0.267   4.725   6.179  0.3694  0.4594 -0.4346
 2612SOL     ow10445   4.030   3.927   5.060 -0.3711 -0.3336  0.2788
 2612SOL     hw10446   3.948   3.976   5.058  0.9483  2.1327  1.7932
 2612SOL     hw10447   4.053   3.922   5.153  1.3435 -0.6972 -0.1258
 2612SOL     vw10448   4.022   3.933   5.072  0.0288 -0.0561  0.4253
 2613SOL     ow10449   5.047   4.680   7.258  0.0395  0.4531  0.7756
 2613SOL     hw10450   5.045   4.593   7.219 -1.2546  1.6340 -2.1152
 2613SOL     hw10451   5.104   4.672   7.334 -0.4837 -3.0061  0.9436
 2613SOL     vw10452   5.054   4.667   7.263 -0.2003  0.1526  0.4165
 2614SOL     ow10453   1.946   0.320   6.926 -0.2414 -0.4640 -0.0196
 2614SOL     hw10454   1.874   0.286   6.873 -0.0172 -1.5150  0.3237
 2614SOL     hw10455   2.008   0.247   6.932  0.2907  0.0313  0.6869
 2614SOL     vw10456   1.945   0.306   6.920 -0.1416 -0.5373  0.1190
 2615SOL     ow10457   3.379   0.295   1.431 -0.6661 -0.3730 -0.0160
 2615SOL     hw10458   3.385   0.334   1.344  1.9587  0.8509  0.6120
 2615SOL     hw10459   3.429   0.214   1.425 -2.3350 -1.4245 -0.1647
 2615SOL     vw10460   3.386   0.290   1.419 -0.5400 -0.3503  0.0473
 2616SOL     ow10461   1.506   1.955   4.978  0.4111 -0.1615 -0.2088
 2616SOL     hw10462   1.546   1.993   4.901  0.2432  0.1624 -0.1373
 2616SOL     hw10463   1.579   1.926   5.032  0.5404  0.1705 -0.2069
 2616SOL     vw10464   1.521   1.956   4.975  0.4059 -0.0749 -0.1991
 2617SOL     ow10465   4.646   0.120   1.570 -0.2153  0.2586 -0.0039
 2617SOL     hw10466   4.559   0.101   1.605 -0.2196 -0.4971 -0.3918
 2617SOL     hw10467   4.648   0.215   1.559 -0.9262  0.2980  0.1743
 2617SOL     vw10468   4.635   0.130   1.573 -0.3095  0.1641 -0.0316
 2618SOL     ow10469   3.383   1.174   3.858 -0.1994  0.8216 -0.4180
 2618SOL     hw10470   3.411   1.099   3.910  1.5822  0.7707 -1.3684
 2618SOL     hw10471   3.447   1.243   3.878 -1.7803  2.1247  0.4229
 2618SOL     vw10472   3.395   1.173   3.868 -0.1730  0.9868 -0.4323
 2619SOL     ow10473   0.062   5.292   4.381  0.3681 -0.4893  0.0216
 2619SOL     hw10474   0.017   5.217   4.420 -0.9753 -0.6109 -1.6425
 2619SOL     hw10475   0.006   5.318   4.308  1.9938  0.6687 -0.8796
 2619SOL     vw10476   0.049   5.285   4.376  0.4054 -0.3526 -0.3166
 2620SOL     ow10477   5.389   0.512   2.676 -0.1550  0.4239 -0.2078
 2620SOL     hw10478   5.442   0.437   2.704  0.8562  1.3759  0.5224
 2620SOL     hw10479   5.332   0.530   2.750 -0.3950  0.3870 -0.3815
 2620SOL     vw10480   5.388   0.505   2.689 -0.0534  0.5447 -0.1343
 2621SOL     ow10481   5.009   3.770   0.477 -0.3987 -0.4230  0.6822
 2621SOL     hw10482   4.994   3.763   0.383  0.2164  0.4220  0.5168
 2621SOL     hw10483   5.014   3.679   0.507  0.2663 -0.7023 -0.2326
 2621SOL     vw10484   5.007   3.757   0.469 -0.2298 -0.3484  0.5397
 2622SOL     ow10485   0.879   4.051   4.495  0.8439 -0.1338  0.5206
 2622SOL     hw10486   0.879   4.101   4.576  2.0050  3.9362 -1.7135
 2622SOL     hw10487   0.972   4.037   4.475  0.8888  2.6135 -1.9333
 2622SOL     vw10488   0.891   4.055   4.503  1.0030  0.7656 -0.0982
 2623SOL     ow10489   0.657   3.220   2.408  0.2746 -0.3186  0.4999
 2623SOL     hw10490   0.705   3.153   2.456 -0.6542 -1.3613  0.0342
 2623SOL     hw10491   0.566   3.208   2.435  0.1274  0.9357  0.6001
 2623SOL     vw10492   0.651   3.209   2.418  0.1327 -0.2906  0.4518
 2624SOL     ow10493   2.107   1.796   1.275  0.5708 -0.0311  0.1789
 2624SOL     hw10494   2.060   1.872   1.309 -0.9577  0.4679 -2.6864
 2624SOL     hw10495   2.064   1.720   1.316 -0.1212  0.5515  0.5476
 2624SOL     vw10496   2.095   1.796   1.285  0.2778  0.1116 -0.1505
 2625SOL     ow10497   0.533   0.965   0.632 -0.2751  0.0846  0.2022
 2625SOL     hw10498   0.534   0.874   0.661  2.3657  0.3972  1.3950
 2625SOL     hw10499   0.550   1.016   0.711  0.5214  1.4443 -0.7994
 2625SOL     vw10500   0.535   0.959   0.646  0.1784  0.3053  0.2275
 2626SOL     ow10501   0.356   5.609   0.768 -0.4494 -0.5321 -0.5400
 2626SOL     hw10502   0.330   5.692   0.728  0.5872 -0.3995 -0.9699
 2626SOL     hw10503   0.452   5.612   0.769 -0.4255 -1.2283  0.5007
 2626SOL     vw10504   0.366   5.620   0.763 -0.3095 -0.6065 -0.4594
 2627SOL     ow10505   6.168   7.193   4.274  0.0806 -0.5208  0.3923
 2627SOL     hw10506   6.194   7.203   4.182  1.5221  0.9080  0.9114
 2627SOL     hw10507   6.141   7.102   4.281 -2.1297 -0.1879 -1.9351
 2627SOL     vw10508   6.168   7.182   4.263 -0.0207 -0.2882  0.1535
 2628SOL     ow10509   7.213   0.964   2.174  0.5622  0.4843  0.6379
 2628SOL     hw10510   7.204   1.001   2.086  0.3625  1.5984  1.1095
 2628SOL     hw10511   7.140   0.903   2.182  0.5702  0.3874  0.0377
 2628SOL     vw10512   7.202   0.961   2.163  0.5369  0.6185  0.6210
 2629SOL     ow10513   7.243   0.129   6.445  0.3204  0.4818  0.4241
 2629SOL     hw10514   7.257   0.220   6.418  0.4293  0.2956 -0.1727
 2629SOL     hw10515   7.330   0.098   6.468  0.4672  0.1941 -0.4755
 2629SOL     vw10516   7.256   0.137   6.444  0.3541  0.4193  0.2267
 2630SOL     ow10517   5.148   3.639   0.696 -0.1573 -0.1456 -0.2622
 2630SOL     hw10518   5.227   3.592   0.668 -0.1773  0.1151 -0.7602
 2630SOL     hw10519   5.166   3.662   0.788  1.1359  1.4743 -0.8441
 2630SOL     vw10520   5.161   3.636   0.704  0.0107  0.1026 -0.4047
 2631SOL     ow10521   6.166   5.319   0.105  0.0770  0.4654 -0.1562
 2631SOL     hw10522   6.127   5.345   0.021  0.3199  1.9888  0.1879
 2631SOL     hw10523   6.113   5.363   0.171  0.3795 -0.0839  0.4658
 2631SOL     vw10524   6.154   5.328   0.102  0.1490  0.5941 -0.0287
 2632SOL     ow10525   5.710   6.927   2.278  0.5234  0.0438 -0.5026
 2632SOL     hw10526   5.714   6.931   2.373  0.0452 -0.2873 -0.4660
 2632SOL     hw10527   5.789   6.973   2.249  2.0784 -2.0784  0.0960
 2632SOL     vw10528   5.721   6.933   2.286  0.6654 -0.2799 -0.4188
 2633SOL     ow10529   2.179   2.813   5.289 -1.2655 -0.1252  1.6502
 2633SOL     hw10530   2.189   2.841   5.380 -1.8029  0.5530  1.5018
 2633SOL     hw10531   2.085   2.815   5.272 -1.0457  2.5052  0.2462
 2633SOL     vw10532   2.168   2.817   5.299 -1.3075  0.3114  1.4453
 2634SOL     ow10533   1.487   3.462   4.113 -0.3653 -0.0581  0.3822
 2634SOL     hw10534   1.580   3.443   4.098 -0.7174 -0.2666 -1.8899
 2634SOL     hw10535   1.487   3.538   4.171  1.3136  1.3582 -1.3316
 2634SOL     vw10536   1.499   3.470   4.118 -0.1903  0.1013 -0.1435
 2635SOL     ow10537   0.703   3.133   2.688  0.4327 -0.4632  0.2536
 2635SOL     hw10538   0.775   3.180   2.645  1.0321 -0.9216  0.7309
 2635SOL     hw10539   0.655   3.201   2.735  0.7707 -0.1950  0.2202
 2635SOL     vw10540   0.706   3.148   2.689  0.5563 -0.4885  0.3121
 2636SOL     ow10541   0.962   6.251   4.567  0.0310  0.4806 -0.3022
 2636SOL     hw10542   0.971   6.344   4.589 -2.2323  0.4672  0.9937
 2636SOL     hw10543   1.002   6.205   4.640  0.3747  0.4077 -0.5307
 2636SOL     vw10544   0.969   6.257   4.579 -0.2222  0.4694 -0.1616
 2637SOL     ow10545   5.590   4.338   4.505  0.1556  0.2156  0.2686
 2637SOL     hw10546   5.516   4.359   4.562  0.2346 -0.6553  0.7104
 2637SOL     hw10547   5.563   4.367   4.418 -0.2304  0.9611  0.6288
 2637SOL     vw10548   5.577   4.344   4.501  0.1149  0.1988  0.3743
 2638SOL     ow10549   0.453   0.559   1.903 -1.1490  0.4143  0.6437
 2638SOL     hw10550   0.467   0.646   1.939  0.5983 -0.4647  2.2425
 2638SOL     hw10551   0.537   0.537   1.861 -1.1455 -0.9705  1.3404
 2638SOL     vw10552   0.466   0.568   1.902 -0.9180  0.1156  0.9465
 2639SOL     ow10553   5.265   0.260   6.233 -0.4083 -0.3453 -0.0063
 2639SOL     hw10554   5.215   0.318   6.177 -0.9728 -0.6188  0.2075
 2639SOL     hw10555   5.343   0.310   6.257 -0.9583  0.3694  0.2980
 2639SOL     vw10556   5.269   0.274   6.229 -0.5558 -0.2871  0.0620
 2640SOL     ow10557   6.865   3.704   5.111 -0.5027 -0.3117  0.1744
 2640SOL     hw10558   6.947   3.679   5.153 -0.0308  0.4588 -0.2775
 2640SOL     hw10559   6.864   3.654   5.029  0.9034  1.7644 -1.1966
 2640SOL     vw10560   6.875   3.694   5.105 -0.2551  0.0639 -0.0660
 2641SOL     ow10561   6.077   4.656   4.750 -0.4345 -0.4315  0.2581
 2641SOL     hw10562   6.092   4.584   4.687 -0.0378  0.5188 -0.7660
 2641SOL     hw10563   6.133   4.635   4.824  0.1674 -0.8503 -0.3071
 2641SOL     vw10564   6.086   4.643   4.751 -0.3030 -0.3614  0.0482
 2642SOL     ow10565   5.642   0.171   6.145  0.0311 -0.6609  0.9670
 2642SOL     hw10566   5.630   0.090   6.194 -0.3930  0.4332  2.7932
 2642SOL     hw10567   5.737   0.180   6.136  0.1473 -0.6249  2.1010
 2642SOL     vw10568   5.653   0.162   6.150 -0.0093 -0.5118  1.3576
 2643SOL     ow10569   4.072   5.132   5.002 -0.1903 -0.1759 -0.1568
 2643SOL     hw10570   4.135   5.082   4.949  0.1449 -0.5349  0.5685
 2643SOL     hw10571   4.076   5.091   5.089 -1.2767 -0.0738 -0.0419
 2643SOL     vw10572   4.081   5.120   5.006 -0.2894 -0.2100 -0.0458
 2644SOL     ow10573   1.265   7.039   7.119  0.4491 -0.5494  0.2542
 2644SOL     hw10574   1.202   7.012   7.186 -1.2224 -0.2477 -1.1358
 2644SOL     hw10575   1.261   6.970   7.053  0.2045  0.3757 -0.7204
 2644SOL     vw10576   1.256   7.026   7.119  0.1963 -0.3874 -0.0577
 2645SOL     ow10577   7.411   0.864   0.303  0.6253 -0.1700 -0.4045
 2645SOL     hw10578   7.339   0.922   0.278 -0.9223 -1.0111  1.7232
 2645SOL     hw10579   7.367   0.786   0.338  2.1723  1.4006  6.3388
 2645SOL     vw10580   7.396   0.861   0.304  0.6251 -0.0738  0.7659
 2646SOL     ow10581   6.156   3.859   1.408  0.3615 -0.1448  0.3218
 2646SOL     hw10582   6.219   3.875   1.479 -0.2723 -0.4736  0.9741
 2646SOL     hw10583   6.179   3.772   1.376  2.1492  0.9155 -1.4838
 2646SOL     vw10584   6.167   3.850   1.413  0.5140 -0.0483  0.1696
 2647SOL     ow10585   6.686   5.358   2.475  0.7280  0.1886 -0.2371
 2647SOL     hw10586   6.654   5.414   2.546 -0.9284 -2.1376  1.0209
 2647SOL     hw10587   6.613   5.354   2.413  1.1605  0.1605 -0.7406
 2647SOL     vw10588   6.672   5.365   2.476  0.5662 -0.1221 -0.1376
 2648SOL     ow10589   2.624   0.027   4.210  0.0411 -0.3234  0.9975
 2648SOL     hw10590   2.693  -0.001   4.150 -1.8134 -1.1572 -0.8760
 2648SOL     hw10591   2.566  -0.049   4.217 -0.6791  0.3293  2.5742
 2648SOL     vw10592   2.625   0.013   4.203 -0.2985 -0.3473  0.9582
 2649SOL     ow10593   3.106   3.598   4.807 -0.5226  0.2735  0.2632
 2649SOL     hw10594   3.150   3.524   4.847 -0.1042  0.5369  0.2933
 2649SOL     hw10595   3.076   3.566   4.722 -1.4456 -0.3021  0.7890
 2649SOL     vw10596   3.108   3.584   4.801 -0.5893  0.2321  0.3369
 2650SOL     ow10597   2.903   3.026   0.745 -0.1077  0.0453  0.6351
 2650SOL     hw10598   2.840   3.022   0.673  0.4153  1.8285  0.0149
 2650SOL     hw10599   2.959   3.100   0.723 -0.2202  0.9658  3.1144
 2650SOL     vw10600   2.902   3.035   0.732 -0.0535  0.4020  0.8803
 2651SOL     ow10601   6.902   6.904   3.943 -0.5698  0.0591 -0.4056
 2651SOL     hw10602   6.880   6.876   4.032  1.1756  0.3939  0.1803
 2651SOL     hw10603   6.996   6.888   3.937 -0.7343 -0.3238 -2.3458
 2651SOL     vw10604   6.912   6.898   3.954 -0.3612  0.0529 -0.5844
 2652SOL     ow10605   1.422   6.069   2.033 -0.5622  0.3850  0.6115
 2652SOL     hw10606   1.517   6.057   2.037 -0.6396 -0.5021  0.0320
 2652SOL     hw10607   1.405   6.094   1.942 -0.7957  1.5373  0.9478
 2652SOL     vw10608   1.433   6.071   2.022 -0.6033  0.4199  0.5795
 2653SOL     ow10609   0.141   5.514   7.613  0.2154  0.5216  0.6814
 2653SOL     hw10610   0.235   5.509   7.596 -0.0706 -0.2213 -0.8874
 2653SOL     hw10611   0.121   5.435   7.662  0.2859  0.2655  0.3027
 2653SOL     vw10612   0.151   5.503   7.617  0.1870  0.3901  0.4244
 2654SOL     ow10613   4.407   2.774   0.922  0.4697  0.7960 -0.1856
 2654SOL     hw10614   4.412   2.680   0.903  1.1192  0.9578 -0.8664
 2654SOL     hw10615   4.473   2.813   0.864 -2.0493  2.0569 -2.3961
 2654SOL     vw10616   4.417   2.767   0.911  0.2229  0.9837 -0.5671
 2655SOL     ow10617   7.599   3.874   2.500  0.2393 -0.1097 -0.6114
 2655SOL     hw10618   7.666   3.931   2.537  1.3557 -0.9824 -1.2490
 2655SOL     hw10619   7.639   3.788   2.497 -0.5066 -0.4365 -2.0575
 2655SOL     vw10620   7.613   3.870   2.505  0.2882 -0.2677 -0.8863
 2656SOL     ow10621   1.063   1.391   2.098  0.2150 -0.1710  0.4137
 2656SOL     hw10622   1.101   1.315   2.055  2.9266  0.8937  0.6914
 2656SOL     hw10623   0.978   1.403   2.057  0.5618 -2.1688 -1.0033
 2656SOL     vw10624   1.057   1.383   2.087  0.6184 -0.2941  0.2633
 2657SOL     ow10625   3.840   1.985   4.272  0.1310  0.1542 -0.2575
 2657SOL     hw10626   3.884   2.064   4.302  1.2537  0.0235 -1.4774
 2657SOL     hw10627   3.747   2.009   4.268  0.5516  1.6961 -1.4356
 2657SOL     vw10628   3.833   1.999   4.275  0.3345  0.3404 -0.5739
 2658SOL     ow10629   1.782   7.588   6.955 -0.5840 -1.0955 -0.6258
 2658SOL     hw10630   1.750   7.597   6.866  2.5292 -1.1642 -1.8771
 2658SOL     hw10631   1.877   7.597   6.948 -0.1818 -1.3074  2.6693
 2658SOL     vw10632   1.790   7.591   6.943 -0.1202 -1.1325 -0.3562
 2659SOL     ow10633   7.380   2.642   5.410 -0.3510 -0.3840  0.4304
 2659SOL     hw10634   7.445   2.693   5.459 -1.4793 -0.7045  2.3497
 2659SOL     hw10635   7.390   2.553   5.443  0.1778 -1.0442 -1.3924
 2659SOL     vw10636   7.390   2.637   5.421 -0.4299 -0.5133  0.4432
 2660SOL     ow10637   6.751   0.741   0.072  0.0579  0.2948  0.5231
 2660SOL     hw10638   6.772   0.834   0.066 -0.5847  0.3685 -1.5166
 2660SOL     hw10639   6.793   0.712   0.153  0.4749  2.2923  1.0834
 2660SOL     vw10640   6.760   0.749   0.082  0.0279  0.5680  0.3279
 2661SOL     ow10641   1.372   5.429   3.530 -0.2496  0.2384 -0.5371
 2661SOL     hw10642   1.404   5.354   3.480  0.0651 -0.3401  0.4972
 2661SOL     hw10643   1.339   5.391   3.612 -0.1830  1.2127 -0.0382
 2661SOL     vw10644   1.372   5.414   3.534 -0.1993  0.2909 -0.3347
 2662SOL     ow10645   3.983   1.401   1.920 -0.0291  0.9345  0.1983
 2662SOL     hw10646   4.071   1.378   1.889  0.1231  0.6671  0.7896
 2662SOL     hw10647   3.974   1.494   1.903  0.5955  1.0823  0.6436
 2662SOL     vw10648   3.994   1.410   1.914  0.0734  0.9187  0.3350
 2663SOL     ow10649   6.981   3.327   6.578 -0.3975 -0.8206  0.1807
 2663SOL     hw10650   6.956   3.335   6.670  0.5822  0.9957  0.3211
 2663SOL     hw10651   6.918   3.265   6.541 -1.1767 -1.1051  1.9243
 2663SOL     vw10652   6.970   3.320   6.585 -0.3710 -0.6186  0.4296
 2664SOL     ow10653   2.663   3.675   0.058  0.4856 -0.3297  0.3763
 2664SOL     hw10654   2.627   3.600   0.104  1.7180  0.0017  1.9836
 2664SOL     hw10655   2.586   3.726   0.032 -0.3366 -1.7680 -0.1421
 2664SOL     vw10656   2.648   3.672   0.061  0.5395 -0.4759  0.5200
 2665SOL     ow10657   3.801   1.310   5.365 -0.1880  0.0434  0.2693
 2665SOL     hw10658   3.887   1.347   5.383  1.1130 -1.2166 -2.6300
 2665SOL     hw10659   3.775   1.351   5.282 -1.5733 -0.8596  0.2328
 2665SOL     vw10660   3.809   1.321   5.356 -0.1991 -0.2420 -0.1180
 2666SOL     ow10661   2.055   7.564   4.868  0.2122  0.4275  0.0091
 2666SOL     hw10662   2.059   7.518   4.952  1.5735 -0.3862 -0.4727
 2666SOL     hw10663   2.040   7.494   4.804  4.0181  0.2949 -0.9437
 2666SOL     vw10664   2.054   7.549   4.870  0.8938  0.3026 -0.1802
 2667SOL     ow10665   4.608   0.886   4.584 -0.6879  0.6694  0.2870
 2667SOL     hw10666   4.644   0.901   4.496  1.6339  0.0101  1.0637
 2667SOL     hw10667   4.572   0.971   4.610  1.5660  1.7927 -0.0357
 2667SOL     vw10668   4.608   0.899   4.576 -0.0842  0.7307  0.3469
 2668SOL     ow10669   2.086   4.278   4.149 -0.3192 -0.2408 -0.1099
 2668SOL     hw10670   2.022   4.277   4.220 -0.8103  1.9108 -0.4497
 2668SOL     hw10671   2.078   4.366   4.112  2.4881 -0.0768 -0.4889
 2668SOL     vw10672   2.076   4.290   4.154 -0.0136  0.0646 -0.2050
 2669SOL     ow10673   3.103   2.248   2.613  0.3399  0.1326 -1.2158
 2669SOL     hw10674   3.065   2.163   2.634  4.2566 -1.4733  0.5385
 2669SOL     hw10675   3.161   2.230   2.538 -1.4046  2.2197 -3.2316
 2669SOL     vw10676   3.106   2.234   2.606  0.6264  0.1961 -1.2503
 2670SOL     ow10677   0.550   0.142   6.861 -0.2146 -0.7581  0.2199
 2670SOL     hw10678   0.598   0.072   6.904  1.7183 -0.5516 -1.4075
 2670SOL     hw10679   0.477   0.098   6.818  0.2815 -1.6033  0.2083
 2670SOL     vw10680   0.547   0.127   6.861  0.1059 -0.8424  0.0033
 2671SOL     ow10681   0.158   7.171   4.096 -0.7250 -0.1888  0.2522
 2671SOL     hw10682   0.180   7.162   4.003 -1.2543  2.5546 -0.2261
 2671SOL     hw10683   0.063   7.155   4.099 -0.6693 -0.5010  0.3658
 2671SOL     vw10684   0.148   7.168   4.084 -0.7875  0.1316  0.2041
 2672SOL     ow10685   0.826   0.129   1.589 -0.1305  0.0759  0.0567
 2672SOL     hw10686   0.888   0.201   1.589 -0.1653  0.1678 -2.0703
 2672SOL     hw10687   0.744   0.166   1.622  0.0517  0.8237 -0.3284
 2672SOL     vw10688   0.823   0.143   1.593 -0.1110  0.1867 -0.2747
 2673SOL     ow10689   5.147   4.668   3.261  0.0266 -0.2397 -0.2015
 2673SOL     hw10690   5.232   4.695   3.227  0.4128  0.2108  1.0974
 2673SOL     hw10691   5.100   4.635   3.184  0.5789  1.4799 -1.3267
 2673SOL     vw10692   5.152   4.667   3.246  0.1504  0.0465 -0.1786
 2674SOL     ow10693   5.790   6.375   1.790 -0.6033  0.2573 -0.4119
 2674SOL     hw10694   5.805   6.423   1.708 -0.9702 -1.2025 -1.3625
 2674SOL     hw10695   5.696   6.361   1.793 -0.7195  1.1258  0.7749
 2674SOL     vw10696   5.780   6.379   1.779 -0.6671  0.1795 -0.3808
 2675SOL     ow10697   1.830   6.453   6.824  0.6740  0.5932 -0.3277
 2675SOL     hw10698   1.862   6.367   6.851  0.6756  1.0237  1.1788
 2675SOL     hw10699   1.760   6.434   6.762 -0.0710 -0.5637  0.8029
 2675SOL     vw10700   1.825   6.439   6.820  0.5759  0.4971  0.0200
 2676SOL     ow10701   1.294   6.264   2.163 -0.3358  0.1728  0.0036
 2676SOL     hw10702   1.325   6.181   2.126 -1.2709 -0.4167  0.5039
 2676SOL     hw10703   1.371   6.320   2.164  0.2614 -0.6082 -0.5605
 2676SOL     vw10704   1.308   6.261   2.158 -0.3803 -0.0081 -0.0048
 2677SOL     ow10705   5.380   0.926   6.037  0.2558  0.4279 -0.5930
 2677SOL     hw10706   5.289   0.903   6.054  0.3340  0.5568  0.0081
 2677SOL     hw10707   5.387   1.018   6.062  0.4078  0.5911 -1.2096
 2677SOL     vw10708   5.369   0.935   6.042  0.2866  0.4664 -0.5949
 2678SOL     ow10709   5.951   7.598   2.805  0.1757 -0.3079  0.9331
 2678SOL     hw10710   5.881   7.652   2.770  0.7488  0.4937  1.0165
 2678SOL     hw10711   5.917   7.508   2.799  0.0760 -0.1639 -1.2022
 2678SOL     vw10712   5.937   7.593   2.800  0.2382 -0.1831  0.6623
 2679SOL     ow10713   1.075   0.782   4.198 -0.7182 -0.0973 -0.0802
 2679SOL     hw10714   1.015   0.739   4.258 -1.1289 -0.1365 -0.5149
 2679SOL     hw10715   1.030   0.780   4.113  0.5166 -1.4645 -0.7402
 2679SOL     vw10716   1.061   0.776   4.195 -0.6095 -0.2829 -0.2246
 2680SOL     ow10717   6.724   4.658   1.009 -0.0251 -0.0058  0.3537
 2680SOL     hw10718   6.759   4.680   0.922  0.4060 -0.6873  0.3467
 2680SOL     hw10719   6.685   4.740   1.040 -0.9016  0.0543 -0.8124
 2680SOL     vw10720   6.724   4.672   1.001 -0.0842 -0.0880  0.1989
 2681SOL     ow10721   1.703   3.446   0.552  0.3074  0.0406  0.6176
 2681SOL     hw10722   1.792   3.434   0.518  0.2237  1.5713 -0.2497
 2681SOL     hw10723   1.656   3.367   0.526  1.0441 -0.1295 -0.2289
 2681SOL     vw10724   1.708   3.434   0.544  0.3935  0.2202  0.3915
 2682SOL     ow10725   0.017   0.176   0.373 -0.8582 -0.0169  0.0865
 2682SOL     hw10726   0.099   0.157   0.417 -0.4517 -2.4147 -1.5390
 2682SOL     hw10727   0.013   0.272   0.371  1.1710  0.1667  1.4133
 2682SOL     vw10728   0.027   0.186   0.379 -0.5369 -0.3090  0.0471
 2683SOL     ow10729   4.910   5.338   4.052  0.2591 -0.4625 -0.6458
 2683SOL     hw10730   4.988   5.317   4.104 -0.2354 -1.4321 -0.2718
 2683SOL     hw10731   4.915   5.281   3.976 -0.4310 -1.0241 -0.2800
 2683SOL     vw10732   4.921   5.328   4.049  0.1030 -0.6645 -0.5481
 2684SOL     ow10733   1.588   7.159   6.180  0.0860  0.9978  0.0550
 2684SOL     hw10734   1.657   7.153   6.246 -0.3284  1.3440  0.5255
 2684SOL     hw10735   1.630   7.204   6.106  0.7112  0.1121 -0.1438
 2684SOL     vw10736   1.603   7.164   6.179  0.1138  0.9265  0.0908
 2685SOL     ow10737   1.587   6.554   7.209 -0.1289  0.4038 -0.4906
 2685SOL     hw10738   1.614   6.604   7.132 -0.6520  0.3791 -0.6951
 2685SOL     hw10739   1.534   6.483   7.173  1.3577 -0.8546 -0.2941
 2685SOL     vw10740   1.583   6.551   7.194 -0.0018  0.2344 -0.4916
 2686SOL     ow10741   7.326   2.143   7.461 -0.2651  0.0786  0.0228
 2686SOL     hw10742   7.253   2.191   7.420 -0.1588 -0.9335 -1.4405
 2686SOL     hw10743   7.404   2.179   7.419  0.0801  0.9141  1.3348
 2686SOL     vw10744   7.327   2.154   7.450 -0.2055  0.0554  0.0031
 2687SOL     ow10745   4.112   0.742   3.180  0.3158  0.1729  0.3435
 2687SOL     hw10746   4.196   0.728   3.224  1.8601  0.6888 -2.2278
 2687SOL     hw10747   4.090   0.655   3.145 -1.1378 -0.3405  2.3686
 2687SOL     vw10748   4.120   0.728   3.181  0.3278  0.1733  0.2713
 2688SOL     ow10749   1.645   1.526   2.307  0.0883 -0.0957  0.6035
 2688SOL     hw10750   1.704   1.546   2.235 -0.0119 -0.5074  0.4030
 2688SOL     hw10751   1.624   1.611   2.346 -2.5140  0.5492 -1.8894
 2688SOL     vw10752   1.650   1.540   2.303 -0.2683 -0.0649  0.2481
 2689SOL     ow10753   1.995   7.203   0.170 -0.0273 -1.0391 -0.0946
 2689SOL     hw10754   1.968   7.282   0.216  1.0269  0.5233 -2.0335
 2689SOL     hw10755   2.037   7.149   0.237 -1.4666 -0.3595  1.4295
 2689SOL     vw10756   1.997   7.206   0.185 -0.0781 -0.7434 -0.1493
 2690SOL     ow10757   5.159   3.683   5.628  0.1450  0.1181  0.1693
 2690SOL     hw10758   5.165   3.590   5.607 -1.3241 -0.2664  1.2514
 2690SOL     hw10759   5.238   3.701   5.680  0.1535 -0.6621  0.4398
 2690SOL     vw10760   5.170   3.673   5.632 -0.0479 -0.0355  0.3476
 2691SOL     ow10761   4.492   6.959   3.061  0.0230 -0.4017 -0.1804
 2691SOL     hw10762   4.443   6.925   3.137 -1.4805 -0.6547 -1.2259
 2691SOL     hw10763   4.465   6.903   2.988  0.0149  0.9913 -1.2833
 2691SOL     vw10764   4.482   6.947   3.062 -0.1764 -0.2511 -0.4637
 2692SOL     ow10765   3.728   5.989   2.375 -0.0725  0.7598 -0.6382
 2692SOL     hw10766   3.821   5.970   2.363 -0.2737 -0.5958 -0.2630
 2692SOL     hw10767   3.726   6.062   2.436  0.7478 -0.1865  0.5777
 2692SOL     vw10768   3.740   5.996   2.382  0.0093  0.4559 -0.4282
 2693SOL     ow10769   2.084   4.693   5.949  0.6566  0.0378  0.1637
 2693SOL     hw10770   2.109   4.723   6.036  1.7832  1.8853 -0.7373
 2693SOL     hw10771   2.016   4.627   5.965  2.3357 -1.3005  2.5053
 2693SOL     vw10772   2.078   4.688   5.962  1.0266  0.1051  0.3538
 2694SOL     ow10773   4.659   6.030   0.785 -0.1791  0.3298 -0.4111
 2694SOL     hw10774   4.642   6.122   0.804  3.1704  0.6441  2.0115
 2694SOL     hw10775   4.738   6.010   0.835 -1.9701 -4.4996  1.0443
 2694SOL     vw10776   4.667   6.039   0.794  0.0265 -0.2658  0.1006
 2695SOL     ow10777   1.795   4.528   3.549  0.3431  0.2725  0.0683
 2695SOL     hw10778   1.811   4.528   3.644  1.4721  3.1934 -0.0122
 2695SOL     hw10779   1.866   4.476   3.513 -1.3062 -2.7540  0.8508
 2695SOL     vw10780   1.806   4.521   3.557  0.2745  0.2582  0.1609
 2696SOL     ow10781   0.771   3.418   4.696 -0.2109 -0.1383 -0.5574
 2696SOL     hw10782   0.791   3.324   4.694  1.0126 -0.0350  2.2348
 2696SOL     hw10783   0.847   3.459   4.654  0.1346 -0.3286 -0.1316
 2696SOL     vw10784   0.784   3.411   4.690 -0.0039 -0.1496 -0.1328
 2697SOL     ow10785   6.941   6.944   6.632  0.2487 -0.6119 -0.0830
 2697SOL     hw10786   6.938   6.855   6.596 -0.9491 -0.9792  0.8505
 2697SOL     hw10787   6.885   6.995   6.574 -0.5060 -0.8815  0.3898
 2697SOL     vw10788   6.933   6.939   6.620 -0.0088 -0.6957  0.1028
 2698SOL     ow10789   2.065   2.087   1.973 -0.3200  0.3647 -0.1023
 2698SOL     hw10790   2.023   2.115   1.892 -3.1169 -1.1612  0.6869
 2698SOL     hw10791   1.994   2.083   2.037  0.8837 -2.7707  1.2563
 2698SOL     vw10792   2.050   2.090   1.970 -0.5301 -0.2503  0.1811
 2699SOL     ow10793   4.272   3.749   6.339  0.3304 -0.7098 -0.3803
 2699SOL     hw10794   4.331   3.757   6.264  1.1952 -1.8686  0.1447
 2699SOL     hw10795   4.210   3.681   6.313 -1.3257  1.0282 -1.2358
 2699SOL     vw10796   4.272   3.741   6.325  0.2255 -0.6334 -0.4237
 2700SOL     ow10797   1.727   7.401   7.228 -0.0902 -0.0655 -0.3045
 2700SOL     hw10798   1.796   7.439   7.173  0.8338  0.1445  0.9517
 2700SOL     hw10799   1.682   7.477   7.266  0.8363 -0.1626  1.0803
 2700SOL     vw10800   1.730   7.416   7.226  0.1540 -0.0505  0.0439
 2701SOL     ow10801   6.860   7.366   6.680  0.0968  0.5626 -0.8629
 2701SOL     hw10802   6.892   7.343   6.592 -2.3723 -0.6078 -1.5647
 2701SOL     hw10803   6.779   7.414   6.663 -0.3025  0.5055  0.7720
 2701SOL     vw10804   6.853   7.369   6.666 -0.2818  0.4005 -0.7401
 2702SOL     ow10805   4.936   7.212   5.817  0.4744  0.2168  0.2607
 2702SOL     hw10806   4.877   7.239   5.887  1.5191  4.1965 -0.1440
 2702SOL     hw10807   4.878   7.193   5.743 -0.4463  0.4371  0.9131
 2702SOL     vw10808   4.920   7.213   5.816  0.4909  0.7710  0.2935
 2703SOL     ow10809   6.134   5.905   5.809  0.0033  0.2242  0.0749
 2703SOL     hw10810   6.168   5.937   5.726 -1.1465  1.6968  0.1288
 2703SOL     hw10811   6.212   5.883   5.860  0.7169 -1.2974 -1.5717
 2703SOL     vw10812   6.149   5.906   5.805 -0.0544  0.2177 -0.1349
 2704SOL     ow10813   2.666   5.755   3.250  0.6740 -0.5717  0.0963
 2704SOL     hw10814   2.584   5.722   3.288  0.5556 -2.3806 -1.5871
 2704SOL     hw10815   2.647   5.846   3.228 -0.9003 -0.9556 -0.2578
 2704SOL     vw10816   2.653   5.762   3.252  0.4507 -0.8612 -0.1725
 2705SOL     ow10817   5.524   4.828   4.726 -0.6322 -0.0955  0.1478
 2705SOL     hw10818   5.521   4.733   4.737  0.9407 -0.3393 -1.1538
 2705SOL     hw10819   5.513   4.842   4.632 -0.5599  0.9949  0.2818
 2705SOL     vw10820   5.522   4.818   4.715 -0.4151  0.0162 -0.0064
 2706SOL     ow10821   2.697   5.948   5.521 -0.2989  0.0371 -0.1129
 2706SOL     hw10822   2.607   5.946   5.490 -1.6610 -0.9699  3.4417
 2706SOL     hw10823   2.709   5.864   5.565  2.4057  0.1752 -0.4013
 2706SOL     vw10824   2.687   5.937   5.522 -0.1220 -0.0775  0.3178
 2707SOL     ow10825   1.169   7.270   6.638 -0.3722  0.2996 -0.5595
 2707SOL     hw10826   1.082   7.228   6.637 -1.3854  2.1441  1.4881
 2707SOL     hw10827   1.230   7.197   6.641 -1.9439 -1.0711 -0.0854
 2707SOL     vw10828   1.165   7.255   6.638 -0.7133  0.3619 -0.2267
 2708SOL     ow10829   1.606   6.095   5.749 -0.2959 -0.0456 -0.1121
 2708SOL     hw10830   1.542   6.102   5.678 -0.5758 -0.4453  0.1008
 2708SOL     hw10831   1.619   6.001   5.760  0.0685  0.0253  0.0840
 2708SOL     vw10832   1.600   6.083   5.741 -0.2847 -0.0889 -0.0582
 2709SOL     ow10833   6.999   1.272   4.110  0.1874 -0.3726  0.1565
 2709SOL     hw10834   7.029   1.363   4.109  2.1321 -0.9467  0.9338
 2709SOL     hw10835   6.955   1.262   4.194  0.4910 -0.2909  0.3277
 2709SOL     vw10836   6.998   1.283   4.121  0.4840 -0.4375  0.2818
 2710SOL     ow10837   7.020   5.311   3.079  0.1592  0.4171  0.0494
 2710SOL     hw10838   6.935   5.349   3.056  0.8526  1.9365 -0.1223
 2710SOL     hw10839   7.012   5.219   3.054 -1.2143  0.6675 -0.5531
 2710SOL     vw10840   7.007   5.304   3.073  0.0694  0.6506 -0.0528
 2711SOL     ow10841   3.529   2.826   6.723  0.6010 -0.2386  0.2681
 2711SOL     hw10842   3.517   2.862   6.811 -3.3242  0.4485 -0.3491
 2711SOL     hw10843   3.493   2.893   6.664  0.0998 -2.0018 -1.5559
 2711SOL     vw10844   3.522   2.840   6.727  0.0169 -0.3806 -0.0536
 2712SOL     ow10845   3.695   1.154   4.336  0.3960  0.2410 -0.1596
 2712SOL     hw10846   3.762   1.218   4.362 -0.4210  1.0316  0.0680
 2712SOL     hw10847   3.743   1.086   4.290  1.3744  0.7295  0.1083
 2712SOL     vw10848   3.710   1.153   4.334  0.4172  0.4098 -0.0942
 2713SOL     ow10849   5.777   6.481   4.867 -0.2323 -0.5753  0.3356
 2713SOL     hw10850   5.812   6.396   4.838  1.9331  0.4691 -0.3408
 2713SOL     hw10851   5.779   6.477   4.962 -1.2711 -1.6890  0.3333
 2713SOL     vw10852   5.782   6.469   4.876 -0.0834 -0.5841  0.2458
 2714SOL     ow10853   1.310   3.888   0.649  0.2396 -0.3110  0.3039
 2714SOL     hw10854   1.224   3.859   0.680  0.0929  1.5484  1.8174
 2714SOL     hw10855   1.295   3.909   0.557 -0.2238 -2.4948 -0.1867
 2714SOL     vw10856   1.297   3.887   0.641  0.1591 -0.3537  0.4389
 2715SOL     ow10857   5.858   7.496   5.564 -0.3550 -0.5367  0.5966
 2715SOL     hw10858   5.844   7.402   5.574 -0.6057 -0.6919 -0.9318
 2715SOL     hw10859   5.826   7.535   5.645  2.1705 -1.9643  2.4031
 2715SOL     vw10860   5.852   7.489   5.576 -0.0551 -0.7458  0.6335
 2716SOL     ow10861   7.225   6.388   6.005  0.1875  0.5869  0.3716
 2716SOL     hw10862   7.315   6.396   5.972  0.4779  0.8641  1.2111
 2716SOL     hw10863   7.179   6.463   5.968  0.7355  1.3952  1.2938
 2716SOL     vw10864   7.231   6.399   5.995  0.2980  0.7300  0.6044
 2717SOL     ow10865   4.833   5.225   0.700 -0.1591  0.1358 -0.2096
 2717SOL     hw10866   4.872   5.309   0.725 -0.7870  0.1201  0.8928
 2717SOL     hw10867   4.796   5.191   0.781  1.1552 -1.8102 -0.3592
 2717SOL     vw10868   4.833   5.231   0.714 -0.0684 -0.1233 -0.0838
 2718SOL     ow10869   5.620   0.878   5.819 -0.1218 -0.3961  0.4561
 2718SOL     hw10870   5.595   0.949   5.759  1.8633  0.1769  0.2228
 2718SOL     hw10871   5.601   0.798   5.770 -2.4213 -0.0968  0.7338
 2718SOL     vw10872   5.614   0.877   5.805 -0.1633 -0.2810  0.4621
 2719SOL     ow10873   0.565   4.860   4.807  0.0507  0.0751 -0.1085
 2719SOL     hw10874   0.596   4.908   4.884  0.5598  2.1794 -1.5485
 2719SOL     hw10875   0.519   4.784   4.844  0.3747  0.9310  2.2576
 2719SOL     vw10876   0.563   4.856   4.822  0.1606  0.4656  0.0138
 2720SOL     ow10877   3.074   7.219   3.327  0.3852  0.5420 -0.9912
 2720SOL     hw10878   3.035   7.251   3.409  1.1239  0.3557 -0.5545
 2720SOL     hw10879   3.096   7.298   3.278  1.1915  0.6988 -0.4025
 2720SOL     vw10880   3.071   7.233   3.332  0.5890  0.5381 -0.8560
 2721SOL     ow10881   0.648   2.389   7.095 -0.9446 -0.7443 -0.7789
 2721SOL     hw10882   0.612   2.368   7.181 -0.1972  1.3109  0.0999
 2721SOL     hw10883   0.602   2.469   7.068 -1.5198 -1.6193 -2.5450
 2721SOL     vw10884   0.637   2.397   7.103 -0.9219 -0.5887 -0.8960
 2722SOL     ow10885   4.056   5.000   2.608 -0.5018  0.1820  0.0785
 2722SOL     hw10886   4.068   4.920   2.557 -0.3964  0.3100 -0.0987
 2722SOL     hw10887   3.998   5.054   2.555  0.0631  0.5517 -0.1727
 2722SOL     vw10888   4.050   4.996   2.594 -0.4137  0.2475  0.0221
 2723SOL     ow10889   1.779   4.859   5.308 -0.1729  0.2762 -0.7306
 2723SOL     hw10890   1.738   4.945   5.318  1.0687  0.8176 -0.1494
 2723SOL     hw10891   1.722   4.799   5.357  0.3520  1.2231  1.1132
 2723SOL     vw10892   1.766   4.862   5.316  0.0601  0.4725 -0.4108
 2724SOL     ow10893   3.968   1.016   3.237  0.0955  0.0004 -0.0418
 2724SOL     hw10894   3.949   1.069   3.314 -0.7344  0.8025 -0.7613
 2724SOL     hw10895   3.933   1.067   3.164  1.6154 -0.3415 -1.0483
 2724SOL     vw10896   3.961   1.029   3.237  0.1864  0.0612 -0.2697
 2725SOL     ow10897   1.465   0.690   7.335  0.0537 -0.2705 -0.1638
 2725SOL     hw10898   1.475   0.624   7.265 -0.8552  0.0550 -0.6112
 2725SOL     hw10899   1.414   0.760   7.295 -0.7444 -0.2074  0.9219
 2725SOL     vw10900   1.460   0.690   7.320 -0.1715 -0.2192 -0.0794
 2726SOL     ow10901   5.268   1.403   2.539  0.2323  0.3893 -0.0228
 2726SOL     hw10902   5.247   1.455   2.461  0.1515  0.7457  0.2365
 2726SOL     hw10903   5.240   1.457   2.612 -2.7792 -1.2736  0.2069
 2726SOL     vw10904   5.261   1.417   2.538 -0.1757  0.2170  0.0418
 2727SOL     ow10905   0.742   4.412   2.203 -0.4657 -0.1095 -0.4851
 2727SOL     hw10906   0.748   4.317   2.196  1.7020 -0.0658  0.0852
 2727SOL     hw10907   0.716   4.428   2.294  0.7301 -0.1412 -0.1301
 2727SOL     vw10908   0.739   4.401   2.214 -0.0219 -0.1080 -0.3630
 2728SOL     ow10909   1.058   0.383   7.024 -0.2122  0.3494 -0.0365
 2728SOL     hw10910   0.993   0.314   7.011 -0.2486  0.6332 -1.4831
 2728SOL     hw10911   1.042   0.445   6.953  0.7242  1.1507  0.4278
 2728SOL     vw10912   1.047   0.382   7.013 -0.0934  0.4925 -0.1659
 2729SOL     ow10913   5.606   0.181   1.322 -0.4443  0.0567 -0.5063
 2729SOL     hw10914   5.616   0.148   1.412  0.5273  2.6150  0.4239
 2729SOL     hw10915   5.694   0.213   1.299 -1.5831  3.4667 -0.6040
 2729SOL     vw10916   5.619   0.180   1.331 -0.4666  0.8441 -0.3964
 2730SOL     ow10917   1.628   1.813   7.228 -0.1018  0.2491 -0.5641
 2730SOL     hw10918   1.708   1.860   7.249 -0.9383  1.0599  0.9641
 2730SOL     hw10919   1.643   1.779   7.139  1.9634  0.2519 -0.2727
 2730SOL     vw10920   1.641   1.814   7.219  0.0603  0.3564 -0.3240
 2731SOL     ow10921   4.260   2.043   5.346 -0.1661  0.3514 -0.0478
 2731SOL     hw10922   4.322   2.010   5.412  1.0368  1.0793 -0.7935
 2731SOL     hw10923   4.194   1.973   5.339  1.1383 -0.9288 -0.0087
 2731SOL     vw10924   4.259   2.029   5.354  0.1645  0.2784 -0.1409
 2732SOL     ow10925   0.540   4.699   6.138  0.4369 -0.1121  0.5250
 2732SOL     hw10926   0.448   4.685   6.159  0.7381 -1.6210  0.9808
 2732SOL     hw10927   0.586   4.629   6.184  1.6896 -0.1796 -0.7516
 2732SOL     vw10928   0.534   4.688   6.147  0.6419 -0.3202  0.4165
 2733SOL     ow10929   5.581   4.099   0.932  0.0451  0.1449  0.3614
 2733SOL     hw10930   5.507   4.148   0.896  0.8248  2.1412  1.2798
 2733SOL     hw10931   5.647   4.103   0.863  0.3729  1.1223  0.7035
 2733SOL     vw10932   5.580   4.106   0.918  0.1912  0.5372  0.5277
 2734SOL     ow10933   3.173   7.152   5.898  0.1983  0.3111  0.2703
 2734SOL     hw10934   3.228   7.215   5.945  1.7246 -0.3753 -0.5268
 2734SOL     hw10935   3.105   7.128   5.961 -0.5480  2.8702  0.5433
 2734SOL     vw10936   3.171   7.157   5.913  0.3011  0.5584  0.2010
 2735SOL     ow10937   2.629   2.724   2.950  0.0113 -0.0947 -0.0270
 2735SOL     hw10938   2.541   2.690   2.966  1.3515 -4.5420 -0.5511
 2735SOL     hw10939   2.616   2.800   2.893 -3.4617 -0.5120 -0.0097
 2735SOL     vw10940   2.616   2.729   2.944 -0.2700 -0.7366 -0.0939
 2736SOL     ow10941   3.313   5.770   3.213  0.1078  0.0779  0.0216
 2736SOL     hw10942   3.373   5.742   3.282  0.3888  1.5275  0.4029
 2736SOL     hw10943   3.271   5.848   3.248 -2.9040 -1.4939  0.2591
 2736SOL     vw10944   3.315   5.776   3.227 -0.2526  0.0618  0.1031
 2737SOL     ow10945   5.651   6.182   5.445 -0.4780 -0.8081 -0.1074
 2737SOL     hw10946   5.744   6.196   5.427 -0.5991 -2.5879 -2.5713
 2737SOL     hw10947   5.606   6.231   5.376 -1.3308 -1.0269  0.2887
 2737SOL     vw10948   5.657   6.190   5.434 -0.6065 -1.0717 -0.3805
 2738SOL     ow10949   5.065   0.718   2.121 -0.3058 -0.2922 -0.0474
 2738SOL     hw10950   4.975   0.722   2.153 -0.8366 -0.9992 -1.3648
 2738SOL     hw10951   5.062   0.656   2.048  1.2946 -0.4785 -0.0029
 2738SOL     vw10952   5.053   0.710   2.116 -0.1650 -0.4101 -0.2154
 2739SOL     ow10953   5.482   6.780   6.161  0.8607  0.2755  0.5846
 2739SOL     hw10954   5.468   6.854   6.220 -1.1685 -0.8126  1.5761
 2739SOL     hw10955   5.457   6.812   6.075 -0.9910  0.4875  1.1705
 2739SOL     vw10956   5.477   6.794   6.158  0.3488  0.1600  0.7930
 2740SOL     ow10957   3.029   2.689   2.959  0.1302  0.4053  0.1169
 2740SOL     hw10958   3.039   2.641   3.041 -0.6593  1.8960  1.1224
 2740SOL     hw10959   3.010   2.779   2.986 -0.0095  0.9552 -1.7067
 2740SOL     vw10960   3.028   2.695   2.974  0.0076  0.6745  0.0089
 2741SOL     ow10961   3.663   6.429   6.463  0.3106 -0.8148  0.5982
 2741SOL     hw10962   3.582   6.396   6.424 -0.8284  0.8184  1.4460
 2741SOL     hw10963   3.642   6.440   6.556  1.1556  0.6256  0.6501
 2741SOL     vw10964   3.650   6.426   6.470  0.2717 -0.4091  0.7169
 2742SOL     ow10965   0.651   3.720   4.808  0.4258  0.5024  0.1828
 2742SOL     hw10966   0.570   3.756   4.844 -0.3175  1.2197 -2.0522
 2742SOL     hw10967   0.720   3.756   4.864 -0.7332  0.0798  1.9739
 2742SOL     vw10968   0.649   3.729   4.820  0.1748  0.5412  0.1247
 2743SOL     ow10969   5.517   6.340   1.909 -0.1747 -1.0569  0.2297
 2743SOL     hw10970   5.528   6.293   1.991  2.0034 -1.0175  0.0006
 2743SOL     hw10971   5.424   6.366   1.909 -0.2791 -1.2352  2.5557
 2743SOL     vw10972   5.506   6.337   1.920  0.0989 -1.0753  0.5063
 2744SOL     ow10973   3.764   3.210   0.507  0.0464  0.1203  0.1161
 2744SOL     hw10974   3.708   3.142   0.470  0.4437 -1.2583  1.8875
 2744SOL     hw10975   3.719   3.238   0.587  0.0777  1.6920 -0.3961
 2744SOL     vw10976   3.751   3.205   0.513  0.1030  0.1459  0.2823
 2745SOL     ow10977   2.465   3.074   5.280  0.1711 -0.5220 -0.1362
 2745SOL     hw10978   2.457   3.152   5.335 -2.3834  1.1044 -2.5355
 2745SOL     hw10979   2.532   3.097   5.216  0.8618 -1.1398  0.3555
 2745SOL     vw10980   2.472   3.088   5.279 -0.0750 -0.3890 -0.3879
 2746SOL     ow10981   3.316   2.183   5.737 -0.1379  0.2255  0.1230
 2746SOL     hw10982   3.262   2.257   5.766 -0.8502  0.5560 -1.8916
 2746SOL     hw10983   3.353   2.212   5.653  0.1968 -1.4236 -0.3226
 2746SOL     vw10984   3.314   2.197   5.730 -0.1878  0.0516 -0.2019
 2747SOL     ow10985   2.258   3.718   7.153  0.2827  0.0662  0.2613
 2747SOL     hw10986   2.317   3.765   7.094  1.2179  1.3799  2.1637
 2747SOL     hw10987   2.172   3.726   7.110  1.2942 -1.3947 -2.2631
 2747SOL     vw10988   2.254   3.725   7.139  0.5395  0.0467  0.1795
 2748SOL     ow10989   7.584   6.920   5.981  0.0111 -0.4706 -0.1531
 2748SOL     hw10990   7.676   6.945   5.972 -0.3348  0.7486 -0.5284
 2748SOL     hw10991   7.539   6.972   5.914 -1.1596  0.1604  1.0965
 2748SOL     vw10992   7.590   6.930   5.971 -0.1891 -0.2263 -0.0374
 2749SOL     ow10993   3.908   6.130   3.990 -0.0342  0.1403  0.2998
 2749SOL     hw10994   3.832   6.188   3.997 -0.9318 -1.0354  0.7235
 2749SOL     hw10995   3.964   6.154   4.064 -1.0442 -0.4168  1.2735
 2749SOL     vw10996   3.905   6.141   4.001 -0.2859 -0.0880  0.4841
 2750SOL     ow10997   0.261   6.591   4.314  0.4675 -0.3010 -0.6158
 2750SOL     hw10998   0.206   6.516   4.292  0.3249  0.0197 -1.3824
 2750SOL     hw10999   0.262   6.644   4.235  0.8844  0.3160 -0.2070
 2750SOL     vw11000   0.254   6.588   4.301  0.5037 -0.1771 -0.6630
 2751SOL     ow11001   2.930   5.230   2.449  0.7506 -0.0396  0.1081
 2751SOL     hw11002   2.982   5.277   2.384  0.6749 -1.3202 -0.9232
 2751SOL     hw11003   2.992   5.169   2.489  0.2344 -1.0439 -0.5921
 2751SOL     vw11004   2.945   5.228   2.446  0.6723 -0.3412 -0.1203
 2752SOL     ow11005   6.909   1.522   4.680  0.3485 -0.0184  0.1497
 2752SOL     hw11006   6.847   1.490   4.746 -0.6858  3.1114  0.8718
 2752SOL     hw11007   6.990   1.535   4.729  1.0135 -2.0651 -0.3176
 2752SOL     vw11008   6.911   1.519   4.695  0.2999  0.1245  0.1831
 2753SOL     ow11009   3.445   1.731   1.804  0.2243 -0.6962  0.1822
 2753SOL     hw11010   3.424   1.747   1.896  0.6802  0.9791  0.0269
 2753SOL     hw11011   3.534   1.762   1.794 -0.4183  0.8442 -1.2024
 2753SOL     vw11012   3.454   1.737   1.815  0.1997 -0.2719 -0.0209
 2754SOL     ow11013   2.504   2.960   2.517 -0.5813 -0.0507 -1.4915
 2754SOL     hw11014   2.541   3.033   2.468  0.3094  0.9229  0.5443
 2754SOL     hw11015   2.417   2.946   2.477 -0.0250  0.8660 -3.1112
 2754SOL     vw11016   2.497   2.968   2.505 -0.3905  0.1986 -1.4365
 2755SOL     ow11017   2.432   2.650   4.212 -0.0715 -0.3942 -0.4850
 2755SOL     hw11018   2.453   2.569   4.259 -0.1634  0.0927  0.4062
 2755SOL     hw11019   2.467   2.635   4.124  0.6118 -1.0987 -0.1117
 2755SOL     vw11020   2.440   2.637   4.207  0.0066 -0.4231 -0.3183
 2756SOL     ow11021   3.697   0.429   3.791 -0.3612  0.5133  0.0979
 2756SOL     hw11022   3.677   0.345   3.750 -0.7149  1.4897 -1.8552
 2756SOL     hw11023   3.613   0.476   3.791  0.1854  1.5320 -0.5251
 2756SOL     vw11024   3.683   0.424   3.785 -0.3357  0.7765 -0.2420
 2757SOL     ow11025   1.262   0.174   4.126  0.2968  0.4412  0.3608
 2757SOL     hw11026   1.319   0.128   4.189  0.7064  0.7508  0.2231
 2757SOL     hw11027   1.238   0.107   4.062  1.0746  0.4658  0.0347
 2757SOL     vw11028   1.267   0.159   4.126  0.4534  0.4853  0.2997
 2758SOL     ow11029   0.749   5.297   7.436  0.3236 -0.2500  0.0620
 2758SOL     hw11030   0.692   5.363   7.397  0.9283 -0.1003 -0.5838
 2758SOL     hw11031   0.772   5.238   7.364 -0.7571 -1.5813  0.7648
 2758SOL     vw11032   0.745   5.298   7.422  0.2608 -0.4060  0.0696
 2759SOL     ow11033   1.138   7.116   4.975 -0.5121  0.0909 -0.8207
 2759SOL     hw11034   1.162   7.027   4.950 -0.6616 -0.0451 -0.4906
 2759SOL     hw11035   1.222   7.164   4.976 -0.1149 -0.5631  1.0558
 2759SOL     vw11036   1.153   7.111   4.972 -0.4794 -0.0134 -0.5295
 2760SOL     ow11037   2.141   2.361   3.122 -0.1230 -0.3474  0.4916
 2760SOL     hw11038   2.230   2.357   3.086 -0.0010  0.1423  0.7217
 2760SOL     hw11039   2.101   2.278   3.097  1.0502 -1.4644  2.0921
 2760SOL     vw11040   2.148   2.350   3.114  0.0479 -0.4300  0.7331
 2761SOL     ow11041   6.338   3.658   6.514 -0.0266 -0.6889 -0.3053
 2761SOL     hw11042   6.421   3.611   6.518  0.8052  0.7861  1.5303
 2761SOL     hw11043   6.361   3.745   6.481 -0.5004  0.2504  1.6592
 2761SOL     vw11044   6.352   3.663   6.510  0.0207 -0.3705  0.1960
 2762SOL     ow11045   2.395   1.033   5.513 -0.1241 -0.6997 -0.1759
 2762SOL     hw11046   2.315   0.981   5.520 -0.5418 -0.1253 -0.6469
 2762SOL     hw11047   2.456   0.991   5.574 -0.8717 -0.9652  0.3968
 2762SOL     vw11048   2.393   1.021   5.522 -0.2778 -0.6590 -0.1626
 2763SOL     ow11049   1.224   2.649   2.041 -0.1788 -0.1329 -0.5525
 2763SOL     hw11050   1.301   2.679   2.089 -1.5976 -0.2326  1.9655
 2763SOL     hw11051   1.222   2.704   1.962  0.2990  2.6931  1.2493
 2763SOL     vw11052   1.234   2.660   2.037 -0.3030  0.2269  0.0175
 2764SOL     ow11053   7.419   1.466   5.057 -0.5680  0.5010 -0.3950
 2764SOL     hw11054   7.366   1.455   4.978 -2.1711  0.4367  0.6466
 2764SOL     hw11055   7.448   1.557   5.054 -3.0401  1.4083  0.3170
 2764SOL     vw11056   7.416   1.476   5.046 -1.1058  0.6122 -0.1638
 2765SOL     ow11057   3.500   4.435   2.735  0.0071 -0.6328  0.3029
 2765SOL     hw11058   3.572   4.491   2.709 -0.7334  0.4083  0.4032
 2765SOL     hw11059   3.508   4.357   2.680 -0.1348  0.4614 -1.3364
 2765SOL     vw11060   3.510   4.432   2.725 -0.1093 -0.3510  0.0998
 2766SOL     ow11061   7.466   3.534   7.012 -0.0986 -0.0835  0.0637
 2766SOL     hw11062   7.465   3.463   6.947  1.2004  0.6008 -0.7296
 2766SOL     hw11063   7.379   3.530   7.052  0.2298 -2.7087  0.6945
 2766SOL     vw11064   7.454   3.524   7.008  0.1161 -0.3395  0.0422
 2767SOL     ow11065   0.284   3.300   6.108 -0.7279  0.4471 -0.0119
 2767SOL     hw11066   0.329   3.343   6.035  0.9792 -0.0872  0.6800
 2767SOL     hw11067   0.195   3.287   6.077  0.2839 -0.9797 -2.5279
 2767SOL     vw11068   0.278   3.304   6.094 -0.3692  0.1884 -0.2527
 2768SOL     ow11069   0.420   5.927   3.511  0.6892  0.3322  0.0792
 2768SOL     hw11070   0.370   5.981   3.572 -0.5303 -0.0573 -0.5487
 2768SOL     hw11071   0.507   5.968   3.509  0.2586  1.3227  0.8149
 2768SOL     vw11072   0.425   5.940   3.519  0.4715  0.4115  0.0935
 2769SOL     ow11073   4.744   5.836   3.379 -0.0021  0.7670  0.6024
 2769SOL     hw11074   4.648   5.834   3.389 -0.1332  1.6991 -0.3672
 2769SOL     hw11075   4.763   5.926   3.353  1.0913  0.4319  0.2267
 2769SOL     vw11076   4.734   5.848   3.377  0.1252  0.8457  0.4249
 2770SOL     ow11077   3.695   5.638   7.060  0.3660 -0.5606 -0.3421
 2770SOL     hw11078   3.734   5.592   6.986  3.5845  0.6635  0.4403
 2770SOL     hw11079   3.674   5.568   7.123  1.9144 -1.2604 -0.5606
 2770SOL     vw11080   3.697   5.622   7.058  0.9949 -0.4916 -0.2677
 2771SOL     ow11081   1.523   2.568   1.002 -0.0564  0.0273 -0.1288
 2771SOL     hw11082   1.570   2.496   1.044  0.5881  0.7527  0.4115
 2771SOL     hw11083   1.560   2.572   0.914 -0.1524 -0.3508 -0.1884
 2771SOL     vw11084   1.534   2.559   0.996  0.0159  0.0731 -0.0654
 2772SOL     ow11085   1.654   2.586   0.767  0.0189  0.9960 -0.3673
 2772SOL     hw11086   1.678   2.514   0.708  0.0208  1.2797 -0.7137
 2772SOL     hw11087   1.682   2.665   0.721  2.2402  1.1224  1.0222
 2772SOL     vw11088   1.661   2.587   0.753  0.3123  1.0500 -0.2297
 2773SOL     ow11089   3.730   4.312   1.550 -0.6237  0.1285  0.5779
 2773SOL     hw11090   3.692   4.246   1.492 -0.0573 -1.4150  1.8962
 2773SOL     hw11091   3.695   4.292   1.636  0.4192  0.8761  1.2031
 2773SOL     vw11092   3.720   4.301   1.553 -0.4114  0.0234  0.8343
 2774SOL     ow11093   5.047   1.587   5.238 -0.2407 -0.1691  0.5724
 2774SOL     hw11094   5.122   1.591   5.297  1.1871 -0.2520 -1.1690
 2774SOL     hw11095   5.029   1.678   5.216  0.7967 -0.2407 -0.7082
 2774SOL     vw11096   5.054   1.600   5.243  0.0846 -0.1895  0.1733
 2775SOL     ow11097   6.236   5.703   5.012  0.0646 -0.4045  0.8230
 2775SOL     hw11098   6.254   5.789   5.049 -0.2039 -0.2217  0.5291
 2775SOL     hw11099   6.285   5.642   5.068  2.6056  0.1564 -0.6434
 2775SOL     vw11100   6.245   5.706   5.024  0.3643 -0.3064  0.5910
 2776SOL     ow11101   4.814   6.424   0.579 -0.5552 -0.4935 -0.4819
 2776SOL     hw11102   4.734   6.430   0.527 -0.5563 -2.4107 -0.7955
 2776SOL     hw11103   4.797   6.479   0.655 -2.6820 -1.6956  0.0128
 2776SOL     vw11104   4.801   6.432   0.582 -0.8359 -0.9050 -0.4580
 2777SOL     ow11105   3.048   2.097   2.371 -0.0881  0.2406 -0.1339
 2777SOL     hw11106   3.002   2.164   2.320 -1.1821 -1.1209 -1.0162
 2777SOL     hw11107   2.979   2.035   2.395  1.0574 -1.0805 -0.1979
 2777SOL     vw11108   3.033   2.098   2.367 -0.0812 -0.1134 -0.2589
 2778SOL     ow11109   0.534   3.871   5.175  0.2560 -0.1042  0.2482
 2778SOL     hw11110   0.475   3.944   5.158  0.1544 -0.5559 -1.6079
 2778SOL     hw11111   0.534   3.861   5.270 -2.0334  0.4073  0.3544
 2778SOL     vw11112   0.526   3.879   5.185 -0.0595 -0.0964  0.0176
 2779SOL     ow11113   0.316   4.651   2.023 -0.0820  0.5930  0.4639
 2779SOL     hw11114   0.259   4.655   1.946 -0.1392  0.1530  0.4757
 2779SOL     hw11115   0.392   4.601   1.993 -0.5709 -0.5027  0.9651
 2779SOL     vw11116   0.319   4.645   2.009 -0.1541  0.3905  0.5316
 2780SOL     ow11117   5.350   4.909   1.956  0.1820 -0.4346 -0.4031
 2780SOL     hw11118   5.391   4.851   2.020 -0.8824 -0.5178  0.2249
 2780SOL     hw11119   5.411   4.909   1.882  1.3106 -0.5402  0.4954
 2780SOL     vw11120   5.363   4.901   1.955  0.1905 -0.4597 -0.2016
 2781SOL     ow11121   0.895   4.517   5.921  0.1045  0.4483 -0.4694
 2781SOL     hw11122   0.892   4.446   5.857  3.5510  0.7810 -1.1578
 2781SOL     hw11123   0.879   4.474   6.005  1.6127 -1.1310 -0.9303
 2781SOL     vw11124   0.892   4.502   5.923  0.7583  0.2837 -0.6211
 2782SOL     ow11125   3.308   2.705   3.280  0.2304 -0.0579  0.1575
 2782SOL     hw11126   3.237   2.644   3.261  0.5466 -0.4504  0.2283
 2782SOL     hw11127   3.373   2.653   3.326 -0.7032  0.9581  2.8521
 2782SOL     vw11128   3.307   2.690   3.283  0.1490  0.0243  0.5224
 2783SOL     ow11129   6.205   1.137   5.089  0.1593 -0.5743  0.4978
 2783SOL     hw11130   6.286   1.120   5.040  0.8200  1.5953  0.7353
 2783SOL     hw11131   6.230   1.132   5.181 -0.1786 -0.7526  0.5828
 2783SOL     vw11132   6.219   1.134   5.094  0.2019 -0.3115  0.5403
 2784SOL     ow11133   0.258   7.100   3.839  0.1413  0.2066  0.0525
 2784SOL     hw11134   0.325   7.071   3.900  2.2052 -0.6704 -2.4234
 2784SOL     hw11135   0.241   7.023   3.784 -0.5618  1.3262 -1.3644
 2784SOL     vw11136   0.264   7.086   3.840  0.3209  0.2384 -0.4611
 2785SOL     ow11137   7.540   2.945   4.038  0.6751 -0.4805 -0.4362
 2785SOL     hw11138   7.506   2.880   3.977 -1.7258  0.2082  0.0573
 2785SOL     hw11139   7.572   3.017   3.983 -0.8479 -0.1564 -0.9454
 2785SOL     vw11140   7.540   2.946   4.023  0.1571 -0.3467 -0.4385
 2786SOL     ow11141   4.003   5.005   6.236 -0.0700  0.2502  0.2139
 2786SOL     hw11142   4.004   5.099   6.257  2.0103  0.2299  0.3964
 2786SOL     hw11143   3.978   4.963   6.319  1.5683  0.5404  0.8961
 2786SOL     vw11144   3.999   5.012   6.250  0.4208  0.2856  0.3281
 2787SOL     ow11145   6.510   4.482   4.160  0.1119  0.0721  1.0565
 2787SOL     hw11146   6.493   4.390   4.140 -2.1126  0.9216 -1.6677
 2787SOL     hw11147   6.429   4.513   4.202  0.2902  1.0648  0.7058
 2787SOL     vw11148   6.497   4.474   4.163 -0.1583  0.3152  0.6511
 2788SOL     ow11149   1.626   3.993   6.174  0.0401 -0.3591 -0.5730
 2788SOL     hw11150   1.578   4.076   6.166  0.4577  0.2720  2.3253
 2788SOL     hw11151   1.691   3.997   6.104  0.6871  2.3082  0.0312
 2788SOL     vw11152   1.628   4.005   6.164  0.1805  0.0761 -0.1106
 2789SOL     ow11153   4.752   5.103   3.579  0.3561 -0.1849 -0.1644
 2789SOL     hw11154   4.828   5.045   3.583  0.8254  0.5064  2.6759
 2789SOL     hw11155   4.778   5.172   3.517  0.0659 -2.4318 -3.0159
 2789SOL     vw11156   4.765   5.104   3.571  0.3798 -0.3898 -0.1658
 2790SOL     ow11157   1.931   3.314   2.845 -0.0480  0.5353 -0.2231
 2790SOL     hw11158   1.937   3.311   2.749 -1.6116  1.9920 -0.4160
 2790SOL     hw11159   1.969   3.398   2.869  1.6238 -0.4053  0.6135
 2790SOL     vw11160   1.937   3.325   2.835 -0.0337  0.6034 -0.1382
 2791SOL     ow11161   1.126   2.113   7.140  0.1371  0.6801 -0.1638
 2791SOL     hw11162   1.189   2.044   7.157  2.2208  2.6374  0.6052
 2791SOL     hw11163   1.148   2.145   7.053  0.5855  1.6894  0.3014
 2791SOL     vw11164   1.137   2.108   7.131  0.4713  1.0716 -0.0012
 2792SOL     ow11165   3.985   0.658   4.614 -0.2400  0.4915  0.0318
 2792SOL     hw11166   3.914   0.710   4.652  1.1680  0.5991  2.7083
 2792SOL     hw11167   4.046   0.722   4.578 -0.4138  0.4819 -0.2894
 2792SOL     vw11168   3.983   0.673   4.614 -0.0771  0.5044  0.3426
 2793SOL     ow11169   3.365   1.852   2.023 -0.1216 -0.7968  0.2343
 2793SOL     hw11170   3.409   1.933   1.997 -2.5184  0.2227 -0.9325
 2793SOL     hw11171   3.339   1.867   2.114 -3.9189  1.5229 -0.9993
 2793SOL     vw11172   3.367   1.865   2.031 -0.9388 -0.3563 -0.0824
 2794SOL     ow11173   7.466   7.341   0.770 -0.0061  0.6541  0.2389
 2794SOL     hw11174   7.503   7.347   0.858  0.2050 -0.8371  0.2863
 2794SOL     hw11175   7.410   7.418   0.761  2.2126  2.3905  0.5872
 2794SOL     vw11176   7.463   7.352   0.780  0.3145  0.6866  0.2911
 2795SOL     ow11177   1.482   2.547   0.027 -0.6937 -0.1271  0.4092
 2795SOL     hw11178   1.527   2.493   0.091 -0.3046 -0.8513 -0.4614
 2795SOL     hw11179   1.449   2.622   0.078 -0.7526 -0.8879  1.5186
 2795SOL     vw11180   1.483   2.550   0.042 -0.6502 -0.3232  0.4407
 2796SOL     ow11181   3.477   0.580   3.889 -0.1777 -0.1893 -0.5637
 2796SOL     hw11182   3.485   0.562   3.983 -0.2541 -0.5633 -0.6259
 2796SOL     hw11183   3.395   0.629   3.881  0.2472  0.5632 -0.3398
 2796SOL     vw11184   3.467   0.584   3.900 -0.1315 -0.1393 -0.5423
 2797SOL     ow11185   7.021   3.224   0.920 -0.4385  0.5270 -0.4370
 2797SOL     hw11186   6.957   3.292   0.902 -1.0638  0.7847  2.4116
 2797SOL     hw11187   7.068   3.213   0.837 -3.4642  1.0033 -2.3661
 2797SOL     vw11188   7.019   3.231   0.906 -0.9203  0.6238 -0.3158
 2798SOL     ow11189   6.006   3.926   4.204 -0.4016 -0.2842  0.0373
 2798SOL     hw11190   5.984   3.843   4.247  0.6929  0.3982  2.0518
 2798SOL     hw11191   5.922   3.960   4.174 -0.6315 -3.6681 -4.1024
 2798SOL     vw11192   5.992   3.919   4.206 -0.2875 -0.6405 -0.2429
 2799SOL     ow11193   5.352   4.616   3.045 -0.2662  0.2633  0.4553
 2799SOL     hw11194   5.430   4.666   3.069 -0.0542  0.6338 -0.9054
 2799SOL     hw11195   5.386   4.545   2.990 -0.8182  0.0167  0.4251
 2799SOL     vw11196   5.367   4.613   3.041 -0.3109  0.2797  0.2718
 2800SOL     ow11197   1.969   6.908   6.399 -0.3440  0.2377 -0.1669
 2800SOL     hw11198   2.002   6.893   6.488 -0.1166  1.1503 -0.0878
 2800SOL     hw11199   2.038   6.874   6.342 -1.0122 -1.4662 -0.0233
 2800SOL     vw11200   1.982   6.901   6.403 -0.4021  0.1335 -0.1378
 2801SOL     ow11201   0.901   4.611   1.856  0.3346 -0.2419  0.0219
 2801SOL     hw11202   0.816   4.586   1.819 -0.6111  1.2108  1.0744
 2801SOL     hw11203   0.937   4.674   1.794  1.1477 -1.5918 -0.9276
 2801SOL     vw11204   0.894   4.616   1.843  0.3171 -0.2282  0.0355
 2802SOL     ow11205   7.278   1.871   4.289  0.0640  0.4464 -0.5344
 2802SOL     hw11206   7.258   1.884   4.382  2.7560 -1.7714  0.4696
 2802SOL     hw11207   7.209   1.812   4.258  1.1369 -1.8310  1.1245
 2802SOL     vw11208   7.266   1.865   4.297  0.5605 -0.1467 -0.1833
 2803SOL     ow11209   0.986   2.091   6.409 -0.0137 -0.4969  0.4191
 2803SOL     hw11210   0.929   2.015   6.404 -0.1609 -0.3643  0.0768
 2803SOL     hw11211   0.951   2.152   6.345  1.2041 -0.8842 -0.6672
 2803SOL     vw11212   0.974   2.089   6.400  0.1275 -0.5305  0.2306
 2804SOL     ow11213   1.590   0.357   7.499  0.3125  0.3647  0.4140
 2804SOL     hw11214   1.532   0.291   7.462 -1.9564  0.9692  2.5998
 2804SOL     hw11215   1.531   0.422   7.537  2.4036  1.1618  2.5778
 2804SOL     vw11216   1.575   0.357   7.499  0.2890  0.5496  0.9880
 2805SOL     ow11217   6.983   4.498   3.661  0.5195  0.0292  0.4293
 2805SOL     hw11218   6.911   4.468   3.717 -1.8658  2.2533 -1.2218
 2805SOL     hw11219   7.002   4.423   3.604  0.6971 -1.1280  1.9473
 2805SOL     vw11220   6.976   4.484   3.661  0.2282  0.1700  0.4116
 2806SOL     ow11221   7.319   3.443   1.478  0.1515 -0.1889  0.0625
 2806SOL     hw11222   7.356   3.507   1.540 -1.1739  2.2242 -1.4884
 2806SOL     hw11223   7.391   3.423   1.418  0.6209 -0.3121  0.6552
 2806SOL     vw11224   7.333   3.449   1.479  0.0386  0.1134 -0.0639
 2807SOL     ow11225   1.327   3.302   4.261 -0.2311  0.0501 -0.5738
 2807SOL     hw11226   1.416   3.327   4.237  0.7862  0.9343  3.4550
 2807SOL     hw11227   1.336   3.215   4.299 -1.2149 -0.1347 -0.7383
 2807SOL     vw11228   1.340   3.294   4.263 -0.2267  0.1423 -0.0639
 2808SOL     ow11229   2.218   1.261   2.701  0.3716 -0.3169  0.8848
 2808SOL     hw11230   2.201   1.301   2.615  0.1128 -1.8271  0.2105
 2808SOL     hw11231   2.206   1.333   2.763 -1.2723  0.3924 -0.1856
 2808SOL     vw11232   2.214   1.276   2.698  0.1205 -0.4225  0.6545
 2809SOL     ow11233   5.818   2.289   3.259 -0.3856 -0.5867  0.0912
 2809SOL     hw11234   5.780   2.377   3.259 -0.3153 -0.5519  0.6106
 2809SOL     hw11235   5.855   2.278   3.172  1.4997  0.7396  0.6457
 2809SOL     vw11236   5.818   2.299   3.248 -0.1276 -0.4071  0.2328
 2810SOL     ow11237   2.965   0.950   4.250 -0.3692 -0.3639  0.6030
 2810SOL     hw11238   2.951   0.935   4.344  0.0015 -1.4126  0.5125
 2810SOL     hw11239   2.904   0.889   4.208 -2.1961  1.7035  0.1075
 2810SOL     vw11240   2.955   0.940   4.257 -0.5612 -0.2295  0.5257
 2811SOL     ow11241   4.407   7.160   5.294 -0.7918  0.7262 -0.3021
 2811SOL     hw11242   4.447   7.101   5.358  0.2127  0.9441 -0.7217
 2811SOL     hw11243   4.346   7.104   5.245 -1.0464  0.4041  0.3636
 2811SOL     vw11244   4.404   7.145   5.296 -0.6928  0.7124 -0.2697
 2812SOL     ow11245   0.705   0.449   2.189  0.0591 -0.1575  0.7528
 2812SOL     hw11246   0.685   0.411   2.103 -0.2483  0.2047  0.6600
 2812SOL     hw11247   0.668   0.388   2.252 -1.1285  0.3738  0.5911
 2812SOL     vw11248   0.698   0.436   2.186 -0.1381 -0.0396  0.7193
 2813SOL     ow11249   2.656   6.175   1.927  0.4203 -0.1011 -1.2123
 2813SOL     hw11250   2.720   6.113   1.892  0.4944 -0.5380 -0.3288
 2813SOL     hw11251   2.680   6.185   2.019 -0.3134  0.3254 -1.0592
 2813SOL     vw11252   2.668   6.168   1.934  0.3332 -0.1025 -1.0756
 2814SOL     ow11253   1.554   4.703   1.355 -0.2032  0.3132 -0.5906
 2814SOL     hw11254   1.587   4.743   1.275 -2.5796  2.1679 -0.7641
 2814SOL     hw11255   1.464   4.677   1.334 -0.0774 -1.4306  0.7751
 2814SOL     vw11256   1.546   4.705   1.342 -0.5001  0.3278 -0.4333
 2815SOL     ow11257   7.272   0.234   4.986 -0.4220 -0.4269 -0.0368
 2815SOL     hw11258   7.267   0.145   5.020 -3.0146 -0.2616  0.2018
 2815SOL     hw11259   7.271   0.224   4.891 -0.5859 -0.6526 -0.0099
 2815SOL     vw11260   7.271   0.221   4.978 -0.7858 -0.4348 -0.0017
 2816SOL     ow11261   0.597   5.841   4.877 -0.2133 -0.0033 -0.0118
 2816SOL     hw11262   0.627   5.752   4.860 -1.0511 -0.5565  1.2604
 2816SOL     hw11263   0.534   5.859   4.807 -2.2585 -1.5492  1.3228
 2816SOL     vw11264   0.592   5.832   4.866 -0.5936 -0.2804  0.3319
 2817SOL     ow11265   6.812   3.474   3.342 -0.0140 -0.7176  0.2002
 2817SOL     hw11266   6.799   3.423   3.263 -1.8709 -1.1221  0.7334
 2817SOL     hw11267   6.766   3.556   3.326 -3.2435 -2.0119  1.9723
 2817SOL     vw11268   6.804   3.478   3.329 -0.6850 -0.9419  0.5043
 2818SOL     ow11269   2.651   3.579   7.279 -0.0447 -0.2582  0.6287
 2818SOL     hw11270   2.599   3.533   7.345  0.9187 -0.0688  1.5465
 2818SOL     hw11271   2.724   3.519   7.260 -0.5427 -0.4967 -0.5966
 2818SOL     vw11272   2.654   3.565   7.286  0.0166 -0.2645  0.5882
 2819SOL     ow11273   2.672   2.562   4.098 -0.3957  0.6330 -0.7082
 2819SOL     hw11274   2.696   2.653   4.114  0.1131  0.0467  2.7470
 2819SOL     hw11275   2.735   2.512   4.150 -2.7439 -1.4724  0.3036
 2819SOL     vw11276   2.684   2.568   4.107 -0.6384  0.2778 -0.1190
 2820SOL     ow11277   0.856   1.877   3.336 -0.1969  0.0568 -0.2899
 2820SOL     hw11278   0.929   1.858   3.278  1.0090  2.3210  0.3412
 2820SOL     hw11279   0.898   1.896   3.420 -1.4481  1.8869 -0.0389
 2820SOL     vw11280   0.872   1.877   3.340 -0.2028  0.5971 -0.1736
 2821SOL     ow11281   1.937   3.426   4.809 -0.4324  0.0321  0.1553
 2821SOL     hw11282   1.931   3.350   4.866 -0.0198 -1.2580 -1.4680
 2821SOL     hw11283   1.999   3.484   4.852 -0.4704 -0.7006  1.2243
 2821SOL     vw11284   1.944   3.424   4.822 -0.3831 -0.2348  0.0823
 2822SOL     ow11285   0.294   5.546   5.803 -0.1118 -0.0138 -0.1760
 2822SOL     hw11286   0.215   5.593   5.830  0.4145  0.2844  0.8827
 2822SOL     hw11287   0.363   5.612   5.804  0.2348 -0.3536 -0.7306
 2822SOL     vw11288   0.292   5.561   5.807  0.0034 -0.0193 -0.1094
 2823SOL     ow11289   0.486   1.609   4.034 -0.0313 -0.1030  0.2082
 2823SOL     hw11290   0.487   1.525   4.079 -1.0380  0.4435  1.3358
 2823SOL     hw11291   0.578   1.633   4.025  0.2465 -1.0775  0.3382
 2823SOL     vw11292   0.498   1.601   4.039 -0.1274 -0.1595  0.3741
 2824SOL     ow11293   0.959   3.113   5.170 -0.6982 -0.1882  0.5558
 2824SOL     hw11294   0.947   3.032   5.218  0.3085 -1.5896 -1.4281
 2824SOL     hw11295   1.046   3.143   5.195 -0.6446 -0.2873  0.4884
 2824SOL     vw11296   0.969   3.107   5.180 -0.5583 -0.3861  0.2854
 2825SOL     ow11297   4.798   0.026   6.540 -0.2263 -0.9492 -0.0267
 2825SOL     hw11298   4.893   0.030   6.533 -0.2803 -0.4643 -0.6083
 2825SOL     hw11299   4.767   0.089   6.475 -0.9394 -0.9257  0.3279
 2825SOL     vw11300   4.806   0.035   6.531 -0.3278 -0.8821 -0.0565
 2826SOL     ow11301   4.110   2.693   1.088  0.5183 -0.2865 -0.3334
 2826SOL     hw11302   4.126   2.682   1.182  1.9365 -1.6498 -0.6818
 2826SOL     hw11303   4.036   2.635   1.069  0.4615 -0.2815 -0.1286
 2826SOL     vw11304   4.102   2.684   1.098  0.6979 -0.4658 -0.3523
 2827SOL     ow11305   6.711   0.572   7.450  0.0495 -0.3816 -0.5674
 2827SOL     hw11306   6.677   0.491   7.410 -2.1942  0.3002 -0.1908
 2827SOL     hw11307   6.701   0.638   7.381 -2.3225  0.4554  0.4618
 2827SOL     vw11308   6.705   0.570   7.435 -0.5591 -0.1812 -0.3822
 2828SOL     ow11309   7.277   6.698   3.378 -0.2296 -0.1647 -0.3924
 2828SOL     hw11310   7.208   6.761   3.357  0.2915  0.0859 -1.4761
 2828SOL     hw11311   7.254   6.664   3.464 -0.7882  1.1663  0.0191
 2828SOL     vw11312   7.265   6.702   3.387 -0.2346  0.0439 -0.4812
 2829SOL     ow11313   3.629   4.267   1.766 -0.2573 -0.2273  0.5500
 2829SOL     hw11314   3.553   4.320   1.787 -2.4028 -2.1178 -1.8754
 2829SOL     hw11315   3.594   4.180   1.749  2.7357 -1.7509  1.4106
 2829SOL     vw11316   3.614   4.262   1.767 -0.1456 -0.6776  0.3435
 2830SOL     ow11317   1.103   4.269   5.631 -0.4557 -0.3269 -0.3551
 2830SOL     hw11318   1.047   4.195   5.656 -1.3610 -0.0624 -1.5454
 2830SOL     hw11319   1.119   4.315   5.713 -0.2732 -1.5596  0.3372
 2830SOL     vw11320   1.098   4.265   5.645 -0.5510 -0.4547 -0.4208
 2831SOL     ow11321   4.217   3.550   2.968  0.1100 -0.3562  0.9349
 2831SOL     hw11322   4.195   3.636   3.003  1.2285  0.1433  0.4592
 2831SOL     hw11323   4.145   3.493   2.995 -1.2867  0.9967  0.1892
 2831SOL     vw11324   4.205   3.554   2.976  0.0734 -0.1118  0.7735
 2832SOL     ow11325   6.674   3.852   1.226  0.1006 -0.1164 -0.2009
 2832SOL     hw11326   6.767   3.872   1.213  0.1128 -1.1784 -2.1432
 2832SOL     hw11327   6.635   3.866   1.139 -1.4502 -0.2714  0.4516
 2832SOL     vw11328   6.681   3.857   1.213 -0.1023 -0.2769 -0.3712
 2833SOL     ow11329   5.874   3.409   6.827  0.0148  0.1857  0.4045
 2833SOL     hw11330   5.846   3.382   6.739  1.1545  2.3433 -0.7049
 2833SOL     hw11331   5.885   3.504   6.821 -0.8776  0.5618  3.2263
 2833SOL     vw11332   5.872   3.418   6.814  0.0474  0.5200  0.6304
 2834SOL     ow11333   5.789   1.858   3.035  0.2774 -0.2895  0.1720
 2834SOL     hw11334   5.737   1.876   2.956  0.4070  2.9272  0.6593
 2834SOL     hw11335   5.878   1.883   3.011  0.7592 -1.4331  0.7022
 2834SOL     vw11336   5.794   1.864   3.021  0.3579 -0.0160  0.3062
 2835SOL     ow11337   2.339   0.426   3.223 -0.5487 -0.3662  1.1983
 2835SOL     hw11338   2.245   0.414   3.234 -0.6500 -0.8320 -0.0304
 2835SOL     hw11339   2.373   0.431   3.312 -1.4227 -2.7371  1.7313
 2835SOL     vw11340   2.331   0.425   3.236 -0.6773 -0.7405  1.1065
 2836SOL     ow11341   4.653   1.989   4.850  1.3496  0.0205  0.1552
 2836SOL     hw11342   4.688   1.937   4.777  1.2720 -0.5570  0.5194
 2836SOL     hw11343   4.560   1.967   4.852  1.2506  0.4344  0.1063
 2836SOL     vw11344   4.645   1.979   4.840  1.3261 -0.0011  0.1967
 2837SOL     ow11345   6.816   0.480   6.864  0.4713  0.5887 -0.0802
 2837SOL     hw11346   6.826   0.388   6.888 -0.7480 -0.2411 -2.4576
 2837SOL     hw11347   6.898   0.502   6.819  1.8587  1.5246  2.6639
 2837SOL     vw11348   6.828   0.471   6.861  0.4935  0.6027 -0.0317
 2838SOL     ow11349   0.440   5.628   3.393 -0.8003  0.5136 -0.3109
 2838SOL     hw11350   0.410   5.583   3.314 -0.8664 -1.0414  0.5648
 2838SOL     hw11351   0.423   5.720   3.375 -3.0625  0.0034 -1.1654
 2838SOL     vw11352   0.434   5.634   3.380 -1.1075  0.2410 -0.3082
 2839SOL     ow11353   2.488   0.517   4.305 -0.1365 -0.0323 -0.2083
 2839SOL     hw11354   2.441   0.565   4.236  0.6103 -1.1903 -1.5799
 2839SOL     hw11355   2.434   0.441   4.323  0.8637 -1.0775 -1.3949
 2839SOL     vw11356   2.475   0.514   4.298  0.0941 -0.3229 -0.5457
 2840SOL     ow11357   3.792   0.792   3.159 -0.0446 -0.0773 -0.0259
 2840SOL     hw11358   3.765   0.718   3.105 -2.6807  0.2269  0.6968
 2840SOL     hw11359   3.728   0.861   3.139 -1.2978 -0.0151  3.4537
 2840SOL     vw11360   3.780   0.791   3.149 -0.5577 -0.0289  0.5286
 2841SOL     ow11361   0.282   6.912   5.656 -0.6269  0.5874  0.0461
 2841SOL     hw11362   0.239   6.829   5.677  0.1447  0.2291  0.2330
 2841SOL     hw11363   0.375   6.890   5.650 -0.0289  1.9009  2.7749
 2841SOL     vw11364   0.288   6.898   5.658 -0.4462  0.7133  0.4308
 2842SOL     ow11365   0.857   1.001   1.007  0.6776 -0.0293 -0.7925
 2842SOL     hw11366   0.907   0.990   1.088 -0.5305  0.3844  0.0460
 2842SOL     hw11367   0.912   0.964   0.939  1.7703 -0.2955  0.2121
 2842SOL     vw11368   0.871   0.995   1.009  0.6624 -0.0098 -0.5493
 2843SOL     ow11369   2.584   4.451   2.426 -0.7115  0.1352 -0.0459
 2843SOL     hw11370   2.551   4.539   2.407 -1.5117 -0.4490 -1.5341
 2843SOL     hw11371   2.524   4.417   2.492 -0.3427  0.7246  0.6078
 2843SOL     vw11372   2.572   4.458   2.432 -0.7684  0.1359 -0.1558
 2844SOL     ow11373   6.106   4.635   1.726 -0.1586 -0.1999 -0.1044
 2844SOL     hw11374   6.152   4.679   1.797  1.8103 -0.0556 -1.3881
 2844SOL     hw11375   6.040   4.698   1.697 -0.6952 -0.0967  1.2635
 2844SOL     vw11376   6.103   4.649   1.731  0.0305 -0.1671 -0.0933
 2845SOL     ow11377   2.432   6.692   4.296 -0.3568 -0.0708  0.6043
 2845SOL     hw11378   2.381   6.714   4.373  0.5122 -1.0415  1.4847
 2845SOL     hw11379   2.455   6.777   4.258 -1.7709  0.3911  0.7283
 2845SOL     vw11380   2.429   6.706   4.301 -0.4287 -0.1380  0.7370
 2846SOL     ow11381   1.652   0.841   3.545  0.4568 -0.8243 -0.0364
 2846SOL     hw11382   1.661   0.791   3.464 -0.1278  0.9596 -1.2397
 2846SOL     hw11383   1.567   0.813   3.580  1.0449 -2.1633  0.4094
 2846SOL     vw11384   1.642   0.830   3.539  0.4572 -0.7656 -0.1364
 2847SOL     ow11385   1.983   2.044   5.897 -0.2291 -0.0776 -0.4145
 2847SOL     hw11386   2.070   2.063   5.862  0.4409 -1.2599  0.5462
 2847SOL     hw11387   1.995   1.965   5.950 -1.3769  1.0542  1.6891
 2847SOL     vw11388   1.996   2.036   5.900 -0.2921 -0.0842 -0.0103
 2848SOL     ow11389   1.808   0.659   6.961  0.0427 -0.3239 -0.4989
 2848SOL     hw11390   1.822   0.741   7.008 -0.5063  0.8583 -2.2995
 2848SOL     hw11391   1.866   0.664   6.885  0.1588 -1.7153 -0.5338
 2848SOL     vw11392   1.817   0.670   6.958 -0.0144 -0.3515 -0.7410
 2849SOL     ow11393   3.834   4.311   7.166 -0.1209  0.0378 -0.2763
 2849SOL     hw11394   3.864   4.398   7.140 -1.2275  0.2888 -0.7875
 2849SOL     hw11395   3.819   4.318   7.260 -1.5347  0.8366 -0.5345
 2849SOL     vw11396   3.836   4.323   7.175 -0.4535  0.1764 -0.3777
 2850SOL     ow11397   0.970   2.406   2.986 -0.0588 -0.1186  0.1736
 2850SOL     hw11398   0.985   2.472   3.054 -2.4910 -1.1518  1.8374
 2850SOL     hw11399   0.938   2.329   3.034 -0.0711 -1.5273 -1.9809
 2850SOL     vw11400   0.968   2.405   3.001 -0.3814 -0.4406  0.1088
 2851SOL     ow11401   2.515   6.937   4.210  0.4305 -0.4383  0.0138
 2851SOL     hw11402   2.491   6.976   4.126 -2.5186  0.1975  1.0353
 2851SOL     hw11403   2.591   6.987   4.238  0.1553  0.8010 -1.3049
 2851SOL     vw11404   2.522   6.949   4.202  0.0050 -0.1907 -0.0255
 2852SOL     ow11405   5.113   1.304   5.076  0.5958  0.6398 -0.0862
 2852SOL     hw11406   5.117   1.257   4.993  2.3579 -0.5264  0.5967
 2852SOL     hw11407   5.193   1.278   5.122 -0.1470  1.5483  1.8264
 2852SOL     vw11408   5.124   1.295   5.071  0.7300  0.6058  0.2563
 2853SOL     ow11409   2.240   5.970   2.176  0.2339 -1.1125 -0.8550
 2853SOL     hw11410   2.199   6.035   2.233  2.5083 -1.6487  1.5962
 2853SOL     hw11411   2.175   5.954   2.107 -1.3116  2.0248 -0.2993
 2853SOL     vw11412   2.226   5.977   2.174  0.3302 -0.7696 -0.4582
 2854SOL     ow11413   1.225   3.261   1.228  0.3069  0.3890 -0.4979
 2854SOL     hw11414   1.290   3.264   1.158  0.5229  1.8971 -0.2626
 2854SOL     hw11415   1.185   3.174   1.220  2.4091 -0.6530 -0.5922
 2854SOL     vw11416   1.228   3.250   1.218  0.6127  0.4505 -0.4793
 2855SOL     ow11417   0.981   2.158   6.794  0.1841  0.1470 -0.2829
 2855SOL     hw11418   0.972   2.079   6.849 -0.7754  1.2528  1.2358
 2855SOL     hw11419   1.076   2.169   6.784  0.4344  0.2148  1.6856
 2855SOL     vw11420   0.992   2.149   6.800  0.0905  0.3018  0.1771
 2856SOL     ow11421   5.100   6.162   2.038 -0.0551 -0.0361  0.1456
 2856SOL     hw11422   5.022   6.197   1.995 -0.8111  0.0532  1.5420
 2856SOL     hw11423   5.173   6.211   1.998 -0.9427  1.8645  0.7737
 2856SOL     vw11424   5.100   6.173   2.027 -0.2720  0.2265  0.4127
 2857SOL     ow11425   6.267   3.030   4.361 -0.5373  0.3098  0.4288
 2857SOL     hw11426   6.210   3.066   4.430  1.0310  2.7582  0.5597
 2857SOL     hw11427   6.350   3.076   4.373  1.3848 -2.7832 -0.0502
 2857SOL     vw11428   6.270   3.041   4.372 -0.0765  0.2248  0.3834
 2858SOL     ow11429   5.478   5.105   5.532  0.1356  0.3870 -0.4896
 2858SOL     hw11430   5.502   5.013   5.547  1.5860  0.4875 -1.9327
 2858SOL     hw11431   5.414   5.102   5.461 -1.0085  0.4180  0.5093
 2858SOL     vw11432   5.473   5.092   5.525  0.1760  0.4044 -0.5484
 2859SOL     ow11433   3.225   4.880   2.673  0.3858  0.1932  0.1890
 2859SOL     hw11434   3.211   4.791   2.707 -0.9714 -0.7890 -2.6592
 2859SOL     hw11435   3.319   4.886   2.659  0.3680 -1.3602 -0.8515
 2859SOL     vw11436   3.235   4.869   2.676  0.2044 -0.1414 -0.3241
 2860SOL     ow11437   4.159   3.026   4.195 -0.4223  0.2733 -0.3127
 2860SOL     hw11438   4.225   2.957   4.203 -1.1070 -0.2725  0.9735
 2860SOL     hw11439   4.076   2.979   4.200 -0.9022  1.2663  1.4457
 2860SOL     vw11440   4.157   3.011   4.196 -0.5760  0.3322  0.0892
 2861SOL     ow11441   3.050   4.069   4.941  0.4035  0.6473  0.2499
 2861SOL     hw11442   3.006   3.988   4.968  2.9290 -0.9963 -0.2907
 2861SOL     hw11443   3.068   4.115   5.024  0.2433 -0.0451  0.6767
 2861SOL     vw11444   3.046   4.065   4.956  0.7156  0.3393  0.2348
 2862SOL     ow11445   0.332   0.309   4.808  0.0061 -0.0568 -0.1755
 2862SOL     hw11446   0.378   0.227   4.829 -1.1956 -0.5739  0.5456
 2862SOL     hw11447   0.257   0.310   4.868 -2.1298 -0.2901 -2.6592
 2862SOL     vw11448   0.328   0.298   4.818 -0.4342 -0.1558 -0.4077
 2863SOL     ow11449   0.805   2.025   4.525  0.5979  0.0557  0.1203
 2863SOL     hw11450   0.854   1.946   4.504  1.2205  0.7037 -0.9612
 2863SOL     hw11451   0.724   2.016   4.474  1.8887  1.3889 -2.3111
 2863SOL     vw11452   0.801   2.013   4.515  0.8504  0.3170 -0.3431
 2864SOL     ow11453   2.050   1.207   4.983  0.1550 -0.0270 -0.2347
 2864SOL     hw11454   1.977   1.153   5.014  0.2888 -0.6638 -0.9922
 2864SOL     hw11455   2.013   1.294   4.975 -0.5500 -0.3561 -0.6631
 2864SOL     vw11456   2.035   1.211   4.986  0.0795 -0.1544 -0.3910
 2865SOL     ow11457   7.111   3.515   4.750 -0.5107 -0.2246 -0.4469
 2865SOL     hw11458   7.158   3.595   4.725  0.5640 -0.0820  1.7272
 2865SOL     hw11459   7.171   3.470   4.810 -2.9894 -0.1508  2.3523
 2865SOL     vw11460   7.125   3.520   4.755 -0.6959 -0.1961  0.2093
 2866SOL     ow11461   7.402   1.482   1.859 -1.0432  0.0505 -0.2974
 2866SOL     hw11462   7.449   1.457   1.938 -0.2842 -0.8330 -1.0064
 2866SOL     hw11463   7.397   1.402   1.807 -1.7900  0.5450 -1.0130
 2866SOL     vw11464   7.408   1.468   1.862 -1.0417 -0.0008 -0.4853
 2867SOL     ow11465   3.051   1.960   2.695  0.0807 -0.3860  0.3355
 2867SOL     hw11466   3.113   1.935   2.626 -1.2214  1.2522 -1.5592
 2867SOL     hw11467   2.973   1.909   2.676 -0.7834  1.1357 -0.3525
 2867SOL     vw11468   3.049   1.950   2.683 -0.2052  0.0309 -0.0054
 2868SOL     ow11469   4.846   1.521   5.011 -0.6546  1.1035  0.3080
 2868SOL     hw11470   4.791   1.484   5.081  0.3673 -1.5103 -0.1484
 2868SOL     hw11471   4.792   1.517   4.933 -0.0189 -1.3761 -0.1201
 2868SOL     vw11472   4.832   1.515   5.010 -0.4361  0.4315  0.1912
 2869SOL     ow11473   3.102   2.564   3.187 -0.1257  0.1040  0.2142
 2869SOL     hw11474   3.054   2.585   3.267  0.7363 -0.2786  0.8499
 2869SOL     hw11475   3.146   2.482   3.206  1.2934  0.7593 -0.1186
 2869SOL     vw11476   3.101   2.556   3.200  0.1752  0.1400  0.2543
 2870SOL     ow11477   7.556   5.732   4.056  0.3372 -0.1358  0.4326
 2870SOL     hw11478   7.578   5.797   4.124 -0.9902  3.2494 -2.0930
 2870SOL     hw11479   7.461   5.722   4.064  0.6035 -2.6540  1.3454
 2870SOL     vw11480   7.547   5.740   4.066  0.1969 -0.0215  0.2198
 2871SOL     ow11481   0.682   1.673   3.318  0.2183  0.2913 -0.1419
 2871SOL     hw11482   0.736   1.594   3.320  0.1611  0.1879 -1.4507
 2871SOL     hw11483   0.745   1.745   3.327  0.0419  0.1277  3.7961
 2871SOL     vw11484   0.698   1.672   3.319  0.1875  0.2561  0.2052
 2872SOL     ow11485   2.476   2.669   3.918  0.2701  0.3882 -0.1302
 2872SOL     hw11486   2.549   2.610   3.937 -0.4649 -1.0810 -1.6018
 2872SOL     hw11487   2.398   2.613   3.925 -0.4322  1.1171 -1.7401
 2872SOL     vw11488   2.475   2.654   3.921  0.0805  0.2905 -0.5367
 2873SOL     ow11489   2.311   2.040   0.406  0.2343 -0.2543  0.7544
 2873SOL     hw11490   2.356   2.119   0.377 -0.4986 -0.3985 -0.8543
 2873SOL     hw11491   2.226   2.070   0.438  0.8839 -0.1436  2.5080
 2873SOL     vw11492   2.306   2.054   0.406  0.2235 -0.2587  0.7735
 2874SOL     ow11493   6.535   6.942   6.949 -0.6696  0.0166  0.2745
 2874SOL     hw11494   6.599   6.927   7.019  0.8498  0.5089 -0.9663
 2874SOL     hw11495   6.539   6.862   6.896  2.9034  1.9499 -2.8051
 2874SOL     vw11496   6.544   6.929   6.951  0.0021  0.3364 -0.2959
 2875SOL     ow11497   6.652   1.224   6.492 -0.4034  0.1761  0.2702
 2875SOL     hw11498   6.712   1.275   6.547 -1.2741  1.0607  0.4308
 2875SOL     hw11499   6.593   1.181   6.555  0.7471 -1.6300  0.1787
 2875SOL     vw11500   6.652   1.225   6.508 -0.3664  0.0545  0.2792
 2876SOL     ow11501   3.668   2.855   2.116 -0.2426 -0.0572 -0.1820
 2876SOL     hw11502   3.679   2.882   2.024 -0.6009 -1.9668 -0.8207
 2876SOL     hw11503   3.626   2.770   2.111  1.8829 -1.3059  1.6992
 2876SOL     vw11504   3.664   2.848   2.103 -0.0095 -0.4740 -0.0180
 2877SOL     ow11505   5.667   7.236   2.575 -0.3886 -0.6818 -0.0334
 2877SOL     hw11506   5.707   7.288   2.646 -1.5528  1.4577 -0.8552
 2877SOL     hw11507   5.741   7.196   2.531  0.5112 -0.4232  1.1715
 2877SOL     vw11508   5.682   7.238   2.579 -0.4237 -0.3655  0.0173
 2878SOL     ow11509   0.768   2.845   7.443 -0.3952  0.4226  0.1146
 2878SOL     hw11510   0.723   2.817   7.363 -1.3206  1.0500  0.4006
 2878SOL     hw11511   0.840   2.901   7.411  0.5406 -1.0033 -0.3681
 2878SOL     vw11512   0.772   2.849   7.428 -0.3938  0.3172  0.0885
 2879SOL     ow11513   7.555   2.938   2.477 -0.2725  0.6424 -0.2148
 2879SOL     hw11514   7.489   2.987   2.524 -0.7833  0.2679 -0.5237
 2879SOL     hw11515   7.591   2.999   2.413  0.8130  1.3161  0.9998
 2879SOL     vw11516   7.551   2.952   2.475 -0.1967  0.6818 -0.0951
 2880SOL     ow11517   6.216   1.242   2.805 -0.0352  0.0322  0.0522
 2880SOL     hw11518   6.170   1.318   2.770 -0.7202  0.8221  2.4206
 2880SOL     hw11519   6.159   1.210   2.875  1.3788 -1.1614  0.7109
 2880SOL     vw11520   6.203   1.248   2.810  0.0610 -0.0210  0.4516
 2881SOL     ow11521   2.608   0.675   2.404  0.2211  0.1405 -0.6433
 2881SOL     hw11522   2.701   0.687   2.386 -0.3626  0.3571 -4.0510
 2881SOL     hw11523   2.566   0.677   2.319 -2.9433 -0.0908  0.7643
 2881SOL     vw11524   2.615   0.677   2.391 -0.2733  0.1386 -0.9072
 2882SOL     ow11525   3.926   4.933   1.365  0.3329 -0.3415 -0.2523
 2882SOL     hw11526   3.902   5.004   1.424  0.0388  1.3950 -2.3275
 2882SOL     hw11527   4.017   4.951   1.342  0.1619 -0.4436 -1.0355
 2882SOL     vw11528   3.935   4.945   1.370  0.2714 -0.1259 -0.6294
 2883SOL     ow11529   3.419   7.042   5.507 -0.2734 -0.0871  0.8188
 2883SOL     hw11530   3.491   6.981   5.520  1.1291  0.9340 -1.5031
 2883SOL     hw11531   3.345   6.987   5.482  0.7787 -0.9383 -0.5735
 2883SOL     vw11532   3.419   7.027   5.506  0.0504 -0.0648  0.3288
 2884SOL     ow11533   7.470   1.311   1.490  0.6900 -0.3541  0.1575
 2884SOL     hw11534   7.534   1.364   1.537 -0.5868  2.2218 -0.8125
 2884SOL     hw11535   7.520   1.269   1.421  1.7344 -0.3566  0.8897
 2884SOL     vw11536   7.485   1.313   1.487  0.6597 -0.0145  0.1262
 2885SOL     ow11537   4.915   1.520   2.186  0.4041 -0.0394 -0.1617
 2885SOL     hw11538   4.933   1.607   2.150  0.3847 -0.4713 -1.2765
 2885SOL     hw11539   4.999   1.474   2.178  0.5195 -0.0047  0.7964
 2885SOL     vw11540   4.928   1.525   2.180  0.4168 -0.0918 -0.1824
 2886SOL     ow11541   5.655   0.618   6.455  0.4733 -0.0873  0.5857
 2886SOL     hw11542   5.713   0.595   6.383  2.1712 -3.5409  2.7524
 2886SOL     hw11543   5.698   0.691   6.499  1.2561 -0.2208  0.0479
 2886SOL     vw11544   5.668   0.625   6.451  0.8004 -0.5606  0.8008
 2887SOL     ow11545   6.758   4.313   7.568  0.1308 -0.1318  0.3152
 2887SOL     hw11546   6.761   4.219   7.549 -0.1447 -0.4544  1.7558
 2887SOL     hw11547   6.849   4.338   7.580  0.1044 -1.0049  3.2829
 2887SOL     vw11548   6.770   4.304   7.567  0.0911 -0.2894  0.8967
 2888SOL     ow11549   6.083   7.493   0.718 -0.3705 -0.3188  0.5468
 2888SOL     hw11550   6.168   7.511   0.759 -0.0157  0.7783 -0.6124
 2888SOL     hw11551   6.051   7.415   0.763  1.0631 -0.5169  1.2863
 2888SOL     vw11552   6.090   7.485   0.729 -0.1345 -0.2003  0.4914
 2889SOL     ow11553   2.976   6.281   5.718 -0.1028  0.8794  0.1827
 2889SOL     hw11554   3.038   6.259   5.787 -0.0909 -1.2607 -0.4318
 2889SOL     hw11555   2.894   6.298   5.764  0.2693  1.0039  0.8051
 2889SOL     vw11556   2.973   6.281   5.733 -0.0522  0.6135  0.1836
 2890SOL     ow11557   1.527   6.884   6.156 -0.0114  0.1920  0.4148
 2890SOL     hw11558   1.604   6.847   6.200  1.1353  1.5534 -0.3541
 2890SOL     hw11559   1.543   6.979   6.158 -1.1316  0.4213 -0.7602
 2890SOL     vw11560   1.540   6.892   6.162 -0.0079  0.4017  0.1581
 2891SOL     ow11561   3.143   5.798   6.709 -0.0620 -0.3903  0.2120
 2891SOL     hw11562   3.055   5.812   6.676  0.1861 -0.4973 -0.5307
 2891SOL     hw11563   3.158   5.869   6.771 -0.2928  0.2387 -0.4417
 2891SOL     vw11564   3.134   5.809   6.712 -0.0597 -0.3214  0.0279
 2892SOL     ow11565   6.537   5.054   2.769  0.1318 -0.0113  0.1413
 2892SOL     hw11566   6.599   5.052   2.696 -0.9657 -3.1176 -0.8467
 2892SOL     hw11567   6.451   5.060   2.728 -0.4880 -1.4601  1.1632
 2892SOL     vw11568   6.534   5.055   2.754 -0.0947 -0.6125  0.1458
 2893SOL     ow11569   6.674   5.094   2.549 -0.5209 -0.7690 -0.0970
 2893SOL     hw11570   6.642   5.072   2.461  0.1570  1.9032 -1.1236
 2893SOL     hw11571   6.669   5.189   2.553  1.8503 -0.6294  1.8275
 2893SOL     vw11572   6.669   5.104   2.538 -0.1187 -0.3982  0.0216
 2894SOL     ow11573   0.921   0.204   3.887  0.3100 -0.3580 -0.6016
 2894SOL     hw11574   0.864   0.200   3.964 -1.0074  0.5308 -1.4847
 2894SOL     hw11575   0.865   0.179   3.814  0.8023  1.3212 -1.6190
 2894SOL     vw11576   0.906   0.200   3.888  0.2012 -0.0192 -0.8523
 2895SOL     ow11577   5.669   1.812   2.749 -0.5605  0.0934  0.7691
 2895SOL     hw11578   5.704   1.793   2.662 -1.2256 -0.0077  0.5148
 2895SOL     hw11579   5.580   1.844   2.732 -0.6336  0.2369  1.4023
 2895SOL     vw11580   5.661   1.814   2.735 -0.6576  0.0989  0.8190
 2896SOL     ow11581   4.937   1.818   5.166  0.7201 -0.3765 -0.3631
 2896SOL     hw11582   4.843   1.829   5.152  0.4711  0.9591  1.8641
 2896SOL     hw11583   4.978   1.861   5.091 -0.4687  3.4446  0.9440
 2896SOL     vw11584   4.930   1.825   5.154  0.5305  0.3039  0.1035
 2897SOL     ow11585   6.610   1.922   1.967  0.8795  1.1878 -0.3907
 2897SOL     hw11586   6.631   2.015   1.977 -1.4685  1.9448 -1.8103
 2897SOL     hw11587   6.561   1.917   1.885  0.0695 -1.1566  0.1672
 2897SOL     vw11588   6.606   1.933   1.958  0.4625  0.9783 -0.5044
 2898SOL     ow11589   2.454   7.422   4.211  0.2775  0.0888 -0.5542
 2898SOL     hw11590   2.409   7.440   4.293 -2.5615  0.3518 -2.0569
 2898SOL     hw11591   2.458   7.327   4.205  1.8705  0.0416  0.5038
 2898SOL     vw11592   2.449   7.412   4.221  0.1132  0.1171 -0.6127
 2899SOL     ow11593   1.657   6.906   0.214  0.2356 -0.4479  0.1245
 2899SOL     hw11594   1.704   6.960   0.150  0.0116  0.1700  0.4749
 2899SOL     hw11595   1.658   6.958   0.294  0.6737 -1.2900  0.6869
 2899SOL     vw11596   1.664   6.920   0.216  0.2639 -0.4776  0.2450
 2900SOL     ow11597   1.168   5.346   7.415  0.4147 -0.1538 -0.1359
 2900SOL     hw11598   1.092   5.381   7.462 -0.3465 -1.6792 -0.1730
 2900SOL     hw11599   1.170   5.396   7.333 -1.6837 -1.3001 -0.9556
 2900SOL     vw11600   1.158   5.357   7.410  0.0374 -0.5064 -0.2489
 2901SOL     ow11601   5.150   1.691   6.344  0.0887  0.2446  0.1611
 2901SOL     hw11602   5.215   1.699   6.414 -0.9425  0.3649  1.1226
 2901SOL     hw11603   5.066   1.705   6.387 -0.6843 -1.1142 -0.8285
 2901SOL     vw11604   5.147   1.694   6.359 -0.1495  0.0813  0.1571
 2902SOL     ow11605   1.571   5.638   2.905  0.2723 -2.1102  0.7174
 2902SOL     hw11606   1.543   5.644   2.813  1.2098 -2.5572  0.3915
 2902SOL     hw11607   1.570   5.544   2.924 -3.1551 -1.9162  2.2340
 2902SOL     vw11608   1.567   5.626   2.895 -0.0562 -2.1434  0.8744
 2903SOL     ow11609   6.417   3.183   7.247  0.2037  0.7093  0.2990
 2903SOL     hw11610   6.396   3.106   7.299  2.8060  0.2376  0.7453
 2903SOL     hw11611   6.478   3.233   7.301  0.1210  2.0888 -0.8165
 2903SOL     vw11612   6.422   3.180   7.261  0.5360  0.8291  0.2108
 2904SOL     ow11613   0.099   5.574   4.201  0.2949  0.2017  0.3844
 2904SOL     hw11614   0.077   5.485   4.174 -0.3588  0.6968 -0.8003
 2904SOL     hw11615   0.036   5.629   4.156  0.8582  1.3000  0.8884
 2904SOL     vw11616   0.088   5.570   4.192  0.2830  0.4120  0.2949
 2905SOL     ow11617   1.138   3.490   7.539  0.3569  0.1067  0.8730
 2905SOL     hw11618   1.127   3.444   7.623  0.0008  1.4354  1.5778
 2905SOL     hw11619   1.109   3.427   7.473  0.0695 -0.7493  1.7936
 2905SOL     vw11620   1.133   3.476   7.542  0.2720  0.1690  1.0877
 2906SOL     ow11621   3.984   5.675   1.866  0.0271 -0.1218 -0.2282
 2906SOL     hw11622   3.999   5.726   1.787 -0.6310 -1.6782 -1.3995
 2906SOL     hw11623   3.889   5.661   1.868  0.0190 -0.0005  0.9150
 2906SOL     vw11624   3.973   5.680   1.856 -0.0607 -0.3111 -0.2320
 2907SOL     ow11625   0.562   0.072   1.991 -0.2065  0.4988 -0.1150
 2907SOL     hw11626   0.607   0.081   2.075  0.5549 -0.6905 -0.3725
 2907SOL     hw11627   0.476   0.112   2.006 -0.5699 -0.7729  1.6211
 2907SOL     vw11628   0.557   0.078   2.004 -0.1540  0.1741  0.0801
 2908SOL     ow11629   1.053   3.820   3.350  0.1727 -0.1943  0.7068
 2908SOL     hw11630   1.126   3.763   3.375 -0.0101 -0.1050  1.4572
 2908SOL     hw11631   0.992   3.762   3.305 -0.1314 -0.6545  1.6895
 2908SOL     vw11632   1.055   3.805   3.347  0.1084 -0.2433  0.9354
 2909SOL     ow11633   1.142   0.909   4.450 -0.3041 -0.4372 -0.5875
 2909SOL     hw11634   1.102   0.852   4.515  0.8756  0.1229  0.6901
 2909SOL     hw11635   1.089   0.988   4.451 -0.7530 -0.7304 -0.8927
 2909SOL     vw11636   1.130   0.912   4.458 -0.2077 -0.4019 -0.4590
 2910SOL     ow11637   0.989   3.787   7.501 -0.0765  0.2508 -0.7785
 2910SOL     hw11638   0.958   3.877   7.490 -1.4180 -0.2375 -1.2988
 2910SOL     hw11639   0.923   3.746   7.557  0.4118 -0.4635 -0.7151
 2910SOL     vw11640   0.976   3.793   7.507 -0.1890  0.0921 -0.8390
 2911SOL     ow11641   5.076   1.868   4.448  0.0703 -0.7236  0.0846
 2911SOL     hw11642   5.170   1.878   4.463  0.1425 -0.9156 -0.2439
 2911SOL     hw11643   5.039   1.953   4.471  0.5324 -0.0776 -1.4846
 2911SOL     vw11644   5.083   1.880   4.453  0.1409 -0.6637 -0.1662
 2912SOL     ow11645   6.071   5.477   0.729  0.2746 -0.2947  0.3768
 2912SOL     hw11646   5.995   5.454   0.782  0.1340  1.1936  0.8503
 2912SOL     hw11647   6.114   5.548   0.777  0.0954  1.1736 -1.5090
 2912SOL     vw11648   6.067   5.483   0.742  0.2325  0.0956  0.1905
 2913SOL     ow11649   1.185   0.310   7.282  0.1154 -0.0848  0.1776
 2913SOL     hw11650   1.153   0.350   7.201 -0.4165  0.2513  0.5501
 2913SOL     hw11651   1.137   0.354   7.352  0.7445 -0.2036  0.6988
 2913SOL     vw11652   1.174   0.321   7.280  0.1282 -0.0561  0.2956
 2914SOL     ow11653   4.471   0.888   7.300 -0.7967 -0.7116 -0.2803
 2914SOL     hw11654   4.506   0.845   7.222  1.1759 -0.6614  0.5278
 2914SOL     hw11655   4.459   0.817   7.363 -1.0319 -0.5637 -0.1568
 2914SOL     vw11656   4.474   0.873   7.298 -0.5674 -0.6854 -0.1576
 2915SOL     ow11657   2.072   5.621   4.495  0.2784 -0.1497 -0.2530
 2915SOL     hw11658   2.008   5.628   4.425  0.9504  1.1269 -0.7871
 2915SOL     hw11659   2.128   5.698   4.483 -0.9918  1.5049  3.1043
 2915SOL     vw11660   2.071   5.632   4.484  0.1996  0.2367  0.1192
 2916SOL     ow11661   3.170   4.649   3.056  0.0225  0.0724  0.1862
 2916SOL     hw11662   3.149   4.668   2.964 -2.0381 -0.2953  0.5387
 2916SOL     hw11663   3.138   4.560   3.069  3.0956 -1.1026  0.4768
 2916SOL     vw11664   3.163   4.640   3.045  0.1559 -0.1311  0.2711
 2917SOL     ow11665   2.689   0.325   4.683 -0.9959 -0.7370 -0.0101
 2917SOL     hw11666   2.660   0.278   4.605 -2.5971 -0.0501  0.1152
 2917SOL     hw11667   2.703   0.414   4.654  0.9170 -1.0045 -0.0120
 2917SOL     vw11668   2.687   0.330   4.669 -0.9547 -0.6816  0.0062
 2918SOL     ow11669   1.299   2.818   5.098 -0.0478  0.1269 -0.2599
 2918SOL     hw11670   1.372   2.803   5.038  0.4597 -0.1128  0.4057
 2918SOL     hw11671   1.278   2.731   5.133  0.0708  0.3376  0.3637
 2918SOL     vw11672   1.306   2.805   5.095  0.0349  0.1230 -0.0899
 2919SOL     ow11673   7.549   6.562   3.372 -0.9106 -0.6880  0.3843
 2919SOL     hw11674   7.616   6.494   3.374 -0.8289 -0.5998  0.6877
 2919SOL     hw11675   7.561   6.610   3.453 -0.2662  0.3639 -0.3205
 2919SOL     vw11676   7.559   6.559   3.383 -0.8152 -0.5376  0.3314
 2920SOL     ow11677   1.185   2.975   5.408  0.4606  0.9632  0.3880
 2920SOL     hw11678   1.187   2.999   5.315 -0.1387  2.2315  0.6809
 2920SOL     hw11679   1.093   2.955   5.425  0.7071 -0.1120  0.5235
 2920SOL     vw11680   1.173   2.975   5.398  0.4141  0.9886  0.4444
 2921SOL     ow11681   1.554   5.181   3.613 -0.5004  0.1811  0.0126
 2921SOL     hw11682   1.511   5.200   3.530 -2.6225  1.8934  1.3710
 2921SOL     hw11683   1.579   5.088   3.607  0.2529  0.4847 -2.8144
 2921SOL     vw11684   1.551   5.171   3.602 -0.6810  0.4470 -0.1812
 2922SOL     ow11685   3.043   5.132   3.916  0.0361 -0.8357 -0.3018
 2922SOL     hw11686   2.972   5.151   3.855  0.2285  0.4652 -0.1607
 2922SOL     hw11687   3.116   5.186   3.885  0.3293 -0.6338  0.7049
 2922SOL     vw11688   3.043   5.142   3.904  0.1003 -0.6375 -0.1503
 2923SOL     ow11689   0.815   2.180   2.047 -0.0613 -0.9677 -0.6172
 2923SOL     hw11690   0.720   2.179   2.057 -0.0714 -1.4130 -0.7511
 2923SOL     hw11691   0.833   2.263   2.002 -0.2757 -0.3387  0.4414
 2923SOL     vw11692   0.805   2.191   2.042 -0.0909 -0.9435 -0.4952
 2924SOL     ow11693   5.782   0.847   6.567  0.1070  0.5181 -0.3636
 2924SOL     hw11694   5.816   0.932   6.541  0.9138 -0.3157 -2.2863
 2924SOL     hw11695   5.853   0.786   6.546 -0.0345 -0.5426  1.9578
 2924SOL     vw11696   5.796   0.850   6.561  0.1948  0.2681 -0.3109
 2925SOL     ow11697   6.636   6.052   2.241  0.0162  0.2991  0.4041
 2925SOL     hw11698   6.645   6.123   2.305 -1.0667  1.0408 -0.2416
 2925SOL     hw11699   6.551   6.067   2.200  0.4285 -0.5084 -0.7976
 2925SOL     vw11700   6.626   6.063   2.244 -0.0725  0.2904  0.1602
 2926SOL     ow11701   7.385   4.239   4.439  0.2510  0.2377  0.1032
 2926SOL     hw11702   7.316   4.288   4.394 -1.5719 -0.8033  1.6146
 2926SOL     hw11703   7.360   4.147   4.428  1.9552 -0.2322 -0.1179
 2926SOL     vw11704   7.373   4.234   4.432  0.2358  0.0384  0.2737
 2927SOL     ow11705   0.652   5.617   0.762  0.2677  0.5168 -0.5360
 2927SOL     hw11706   0.735   5.571   0.769  0.5131  1.0648  0.3683
 2927SOL     hw11707   0.675   5.705   0.732 -0.0215  0.5547 -0.6505
 2927SOL     vw11708   0.666   5.623   0.759  0.2619  0.5944 -0.4318
 2928SOL     ow11709   7.492   6.588   0.408  0.0323 -0.3572 -0.3148
 2928SOL     hw11710   7.468   6.642   0.333 -0.0266  1.0926  0.7039
 2928SOL     hw11711   7.408   6.561   0.446  0.0516 -0.1948 -0.1544
 2928SOL     vw11712   7.478   6.591   0.403  0.0269 -0.1445 -0.1593
 2929SOL     ow11713   4.705   3.067   4.010  0.2046 -0.4101  0.8289
 2929SOL     hw11714   4.668   2.986   4.043  0.5962 -0.7383  0.4818
 2929SOL     hw11715   4.633   3.130   4.013 -0.2215 -0.8880  0.6862
 2929SOL     vw11716   4.690   3.065   4.014  0.2000 -0.5164  0.7644
 2930SOL     ow11717   4.090   3.810   1.805  0.0045  0.4169  0.3654
 2930SOL     hw11718   4.011   3.858   1.831  0.6701  0.3551  2.7440
 2930SOL     hw11719   4.138   3.871   1.749 -1.6398  0.4678 -1.1026
 2930SOL     vw11720   4.086   3.824   1.801 -0.1245  0.4154  0.4856
 2931SOL     ow11721   6.864   1.598   5.072  0.0177 -1.0617  0.4551
 2931SOL     hw11722   6.840   1.590   5.164  0.9068  0.1885  0.8195
 2931SOL     hw11723   6.897   1.687   5.063  0.4137 -1.3206 -0.9711
 2931SOL     vw11724   6.865   1.609   5.083  0.1872 -0.9309  0.3152
 2932SOL     ow11725   3.101   7.063   6.823 -0.0334 -0.1516  1.0463
 2932SOL     hw11726   3.171   7.125   6.806  0.6394 -0.7180  1.6970
 2932SOL     hw11727   3.123   7.024   6.908 -0.2992 -1.4488  0.5461
 2932SOL     vw11728   3.113   7.066   6.832  0.0204 -0.3972  1.0662
 2933SOL     ow11729   6.857   5.968   2.100  0.0842 -0.0768 -0.5468
 2933SOL     hw11730   6.773   5.991   2.138  0.0119 -0.0946 -0.6955
 2933SOL     hw11731   6.917   5.962   2.175  0.5495  2.3846 -0.6435
 2933SOL     vw11732   6.854   5.970   2.115  0.1359  0.2456 -0.5792
 2934SOL     ow11733   3.996   2.333   1.729  0.6442  0.7109  0.2096
 2934SOL     hw11734   3.914   2.284   1.722  1.3198 -0.4597  0.2707
 2934SOL     hw11735   4.010   2.367   1.640  0.1568  0.8201  0.1704
 2934SOL     vw11736   3.987   2.331   1.716  0.6692  0.5708  0.2125
 2935SOL     ow11737   5.210   2.661   2.113  0.3112 -0.1711 -0.1110
 2935SOL     hw11738   5.166   2.713   2.181 -2.3527 -2.0449 -0.2302
 2935SOL     hw11739   5.302   2.685   2.120 -0.2406  1.6149  2.4161
 2935SOL     vw11740   5.216   2.671   2.123 -0.1132 -0.1827  0.2066
 2936SOL     ow11741   3.874   2.231   0.101  0.6818 -0.3714  0.4337
 2936SOL     hw11742   3.821   2.305   0.133 -0.3146  0.4643 -2.8180
 2936SOL     hw11743   3.963   2.266   0.098  0.3810  0.3895 -0.1146
 2936SOL     vw11744   3.879   2.246   0.105  0.5107 -0.1607 -0.0677
 2937SOL     ow11745   3.801   6.115   4.364  0.1881 -0.1064 -0.0569
 2937SOL     hw11746   3.872   6.153   4.312 -0.5636  1.7596  0.1867
 2937SOL     hw11747   3.752   6.191   4.396 -1.3015 -1.3135  0.6460
 2937SOL     vw11748   3.804   6.130   4.361 -0.1078 -0.0193  0.0677
 2938SOL     ow11749   3.468   4.727   3.665  0.0128 -0.5874  0.0466
 2938SOL     hw11750   3.522   4.659   3.626 -3.6848 -2.1896 -2.9431
 2938SOL     hw11751   3.486   4.805   3.613  0.1369 -0.8328 -0.2789
 2938SOL     vw11752   3.477   4.728   3.653 -0.4586 -0.8311 -0.3908
 2939SOL     ow11753   0.780   0.354   0.086  0.1012 -0.5544 -0.1774
 2939SOL     hw11754   0.738   0.294   0.148 -0.3058 -0.0993 -0.0031
 2939SOL     hw11755   0.873   0.347   0.105  0.0403 -1.0047 -0.0426
 2939SOL     vw11756   0.787   0.345   0.097  0.0395 -0.5537 -0.1366
 2940SOL     ow11757   1.493   5.846   3.375 -0.0231 -1.2099  0.4810
 2940SOL     hw11758   1.546   5.853   3.454  0.4591  0.3023  0.0556
 2940SOL     hw11759   1.458   5.935   3.361 -1.7594 -1.9078  0.1289
 2940SOL     vw11760   1.495   5.859   3.383 -0.1885 -1.1024  0.3785
 2941SOL     ow11761   2.972   3.822   1.168 -0.6554  0.1200 -0.0948
 2941SOL     hw11762   2.954   3.729   1.182 -2.4238  0.8222  3.3966
 2941SOL     hw11763   2.911   3.848   1.098 -1.8976 -0.8621  0.5938
 2941SOL     vw11764   2.962   3.813   1.160 -1.0526  0.0831  0.4567
 2942SOL     ow11765   2.715   5.734   3.713 -0.1254 -0.0555 -0.0162
 2942SOL     hw11766   2.801   5.776   3.718  1.1694 -2.6446  2.2370
 2942SOL     hw11767   2.660   5.798   3.669  2.7753  1.9785 -1.0405
 2942SOL     vw11768   2.719   5.748   3.708  0.4281 -0.1290  0.1459
 2943SOL     ow11769   0.529   4.675   3.407 -0.3657 -0.2307 -0.0148
 2943SOL     hw11770   0.487   4.593   3.429  1.4700 -0.9895  0.8684
 2943SOL     hw11771   0.507   4.734   3.479 -2.1467  0.2760 -0.9230
 2943SOL     vw11772   0.521   4.672   3.419 -0.3586 -0.2639 -0.0179
 2944SOL     ow11773   2.568   7.211   0.666  0.3537  0.2635 -0.1234
 2944SOL     hw11774   2.484   7.172   0.644  0.7424 -1.6661  1.5043
 2944SOL     hw11775   2.630   7.171   0.605  0.6999 -1.6317  1.3468
 2944SOL     vw11776   2.565   7.200   0.655  0.4507 -0.2413  0.2853
 2945SOL     ow11777   4.703   2.987   4.655  0.4745  0.1355  0.3610
 2945SOL     hw11778   4.651   3.006   4.733  0.0639 -1.3695  0.4889
 2945SOL     hw11779   4.789   2.962   4.690  0.1439 -1.0226  0.3882
 2945SOL     vw11780   4.707   2.986   4.670  0.3767 -0.2158  0.3812
 2946SOL     ow11781   7.565   5.869   2.551 -0.3194 -0.1967 -0.0274
 2946SOL     hw11782   7.556   5.914   2.635 -0.5344  0.0108 -0.1599
 2946SOL     hw11783   7.491   5.900   2.499  0.2181  0.2299 -0.5456
 2946SOL     vw11784   7.554   5.879   2.555 -0.2768 -0.1130 -0.1134
 2947SOL     ow11785   0.624   5.844   5.160  1.0427 -0.4233 -0.1001
 2947SOL     hw11786   0.592   5.756   5.178  1.9094 -0.9866 -1.2467
 2947SOL     hw11787   0.601   5.860   5.068  1.8087  0.1383 -0.2030
 2947SOL     vw11788   0.617   5.835   5.150  1.2581 -0.4230 -0.2651
 2948SOL     ow11789   4.842   1.199   6.444  0.1431 -0.4512  0.2961
 2948SOL     hw11790   4.917   1.220   6.389 -0.0185  0.2668  0.3505
 2948SOL     hw11791   4.800   1.125   6.399 -0.3432  0.5112 -0.8773
 2948SOL     vw11792   4.847   1.192   6.431  0.0575 -0.2295  0.1483
 2949SOL     ow11793   7.399   6.684   7.096 -0.3415 -0.4220 -0.4091
 2949SOL     hw11794   7.374   6.664   7.006  1.2226  0.8312 -1.1849
 2949SOL     hw11795   7.422   6.777   7.094  0.9910 -0.6798  0.9521
 2949SOL     vw11796   7.399   6.694   7.083  0.0405 -0.2909 -0.3319
 2950SOL     ow11797   5.907   1.076   6.519 -0.3858  0.0199 -0.5221
 2950SOL     hw11798   5.984   1.108   6.472 -0.6740 -0.8475 -1.6147
 2950SOL     hw11799   5.868   1.155   6.556  0.9755  0.4822 -0.0096
 2950SOL     vw11800   5.912   1.091   6.518 -0.2446 -0.0335 -0.5987
 2951SOL     ow11801   3.677   3.531   0.052 -0.5802  0.3228 -0.1185
 2951SOL     hw11802   3.684   3.524   0.147  1.0359  0.9436 -0.1668
 2951SOL     hw11803   3.699   3.622   0.033 -1.7712  0.4421 -1.0314
 2951SOL     vw11804   3.680   3.542   0.062 -0.5242  0.4205 -0.2453
 2952SOL     ow11805   3.755   0.516   5.155  0.3425  0.0643 -0.0898
 2952SOL     hw11806   3.686   0.555   5.103  0.2354  1.5471  1.0935
 2952SOL     hw11807   3.711   0.485   5.234  0.6703 -1.1831 -0.3639
 2952SOL     vw11808   3.740   0.517   5.159  0.3717  0.0954  0.0305
 2953SOL     ow11809   5.614   1.583   2.855  0.0989  0.4523  0.1627
 2953SOL     hw11810   5.630   1.677   2.846  0.3413  0.5899  1.8453
 2953SOL     hw11811   5.620   1.550   2.765  3.9006  1.4118 -0.1154
 2953SOL     vw11812   5.617   1.591   2.842  0.6325  0.5972  0.3480
 2954SOL     ow11813   6.036   5.474   5.546 -0.4602  0.0663  0.1574
 2954SOL     hw11814   6.051   5.401   5.605  0.3965  1.0971  1.2737
 2954SOL     hw11815   6.122   5.515   5.536 -0.2183 -0.9504 -3.0916
 2954SOL     vw11816   6.049   5.470   5.552 -0.3152  0.0682 -0.1240
 2955SOL     ow11817   7.058   6.100   7.255 -0.7059 -0.0355 -0.4248
 2955SOL     hw11818   7.078   6.111   7.162  3.3674  0.7708  0.3813
 2955SOL     hw11819   6.987   6.161   7.272 -3.1923 -1.8311 -3.3492
 2955SOL     vw11820   7.051   6.109   7.245 -0.4964 -0.1659 -0.7041
 2956SOL     ow11821   3.656   5.823   4.277 -0.4728  0.7568  0.1248
 2956SOL     hw11822   3.604   5.762   4.329 -1.5340  0.7469 -0.8848
 2956SOL     hw11823   3.605   5.834   4.196  1.4783  0.1662 -1.2396
 2956SOL     vw11824   3.642   5.817   4.273 -0.3555  0.6781 -0.1886
 2957SOL     ow11825   0.182   7.359   4.355  0.1753  0.1567  0.3747
 2957SOL     hw11826   0.120   7.292   4.383  0.5320  0.8605  3.1908
 2957SOL     hw11827   0.132   7.440   4.355  0.5844  0.4140  0.6149
 2957SOL     vw11828   0.168   7.361   4.359  0.2763  0.2840  0.7780
 2958SOL     ow11829   4.286   3.098   0.695 -0.2282  0.1551 -0.2907
 2958SOL     hw11830   4.309   3.041   0.769 -0.2928 -0.0520 -0.4297
 2958SOL     hw11831   4.340   3.068   0.623 -3.0604 -2.4436 -1.5523
 2958SOL     vw11832   4.296   3.087   0.695 -0.6106 -0.2153 -0.4756
 2959SOL     ow11833   1.647   1.570   7.335 -0.2535 -0.2318  0.2573
 2959SOL     hw11834   1.647   1.656   7.294 -1.8347  0.1733  1.0157
 2959SOL     hw11835   1.649   1.588   7.429 -1.4752 -0.9562  0.4494
 2959SOL     vw11836   1.647   1.584   7.342 -0.6233 -0.2739  0.3827
 2960SOL     ow11837   1.671   3.264   5.636  0.0091 -0.1721 -0.4149
 2960SOL     hw11838   1.665   3.330   5.567  3.5967 -0.7629 -1.4794
 2960SOL     hw11839   1.712   3.189   5.595 -0.8485 -1.8396  1.5951
 2960SOL     vw11840   1.676   3.263   5.622  0.3693 -0.4702 -0.2904
 2961SOL     ow11841   6.361   2.188   6.179 -0.4040 -0.6016  0.4381
 2961SOL     hw11842   6.359   2.237   6.261  1.1887 -0.9715  0.7382
 2961SOL     hw11843   6.429   2.121   6.193 -0.8302 -1.3319 -0.8158
 2961SOL     vw11844   6.370   2.185   6.192 -0.2501 -0.7467  0.3123
 2962SOL     ow11845   0.484   3.865   5.429 -0.1248  0.2110 -0.1718
 2962SOL     hw11846   0.397   3.882   5.466 -0.5257  0.5290 -1.2127
 2962SOL     hw11847   0.543   3.871   5.504 -0.6539  2.9248  0.1327
 2962SOL     vw11848   0.480   3.868   5.444 -0.2475  0.6109 -0.2692
 2963SOL     ow11849   5.564   2.742   2.655 -0.1836  0.2994 -0.6251
 2963SOL     hw11850   5.574   2.650   2.680 -1.7606  0.1595 -0.3718
 2963SOL     hw11851   5.520   2.782   2.730  3.0778  2.0045  0.5637
 2963SOL     vw11852   5.560   2.735   2.668  0.0386  0.5059 -0.4350
 2964SOL     ow11853   3.893   0.120   2.984 -0.4998  0.3444  0.4052
 2964SOL     hw11854   3.930   0.142   3.069  0.2052  0.9893 -0.0608
 2964SOL     hw11855   3.916   0.028   2.971 -0.1648  0.3861  0.6930
 2964SOL     vw11856   3.901   0.111   2.993 -0.3626  0.4350  0.3817
 2965SOL     ow11857   6.866   4.390   1.053  0.1418 -0.0813 -0.6415
 2965SOL     hw11858   6.860   4.392   0.957  0.8884  0.2122 -0.6855
 2965SOL     hw11859   6.890   4.299   1.073  1.2789  0.1596 -0.8251
 2965SOL     vw11860   6.868   4.378   1.043  0.3903 -0.0110 -0.6715
 2966SOL     ow11861   3.542   7.051   2.863  0.5536  0.2165 -0.0829
 2966SOL     hw11862   3.614   7.108   2.890  0.8301 -0.1541 -0.0330
 2966SOL     hw11863   3.541   6.981   2.928  1.0290 -0.5202 -0.8510
 2966SOL     vw11864   3.551   7.050   2.875  0.6529  0.0703 -0.1777
 2967SOL     ow11865   5.685   1.812   0.147 -0.5982 -0.4923 -0.1318
 2967SOL     hw11866   5.710   1.734   0.197 -3.3894 -2.1096 -1.0650
 2967SOL     hw11867   5.597   1.793   0.116 -1.0241  2.7152 -1.1713
 2967SOL     vw11868   5.677   1.799   0.149 -1.0226 -0.2825 -0.3921
 2968SOL     ow11869   4.644   1.454   0.457 -0.4343 -0.2025 -0.0196
 2968SOL     hw11870   4.694   1.528   0.422 -2.9556  1.1485 -1.0854
 2968SOL     hw11871   4.649   1.465   0.552  2.3137 -0.9197 -0.0230
 2968SOL     vw11872   4.651   1.466   0.465 -0.4044 -0.1189 -0.1606
 2969SOL     ow11873   3.070   0.124   6.000  0.7032 -0.0544  0.0860
 2969SOL     hw11874   3.128   0.192   5.964  0.2510  1.2036  1.6075
 2969SOL     hw11875   3.126   0.074   6.060  0.7710 -0.3484 -0.2187
 2969SOL     vw11876   3.085   0.126   6.003  0.6526  0.0728  0.2463
 2970SOL     ow11877   1.844   0.891   3.719  0.6378 -0.4078 -0.2963
 2970SOL     hw11878   1.779   0.869   3.652 -0.1836 -1.6339  0.8470
 2970SOL     hw11879   1.832   0.985   3.733 -1.0009 -0.6144 -0.0514
 2970SOL     vw11880   1.834   0.900   3.712  0.3131 -0.5969 -0.1130
 2971SOL     ow11881   0.651   0.270   4.347  0.1751 -0.0294 -0.4980
 2971SOL     hw11882   0.716   0.290   4.280  1.4509 -1.5930  0.2084
 2971SOL     hw11883   0.675   0.326   4.421  2.5496 -2.4538  0.7711
 2971SOL     vw11884   0.663   0.280   4.348  0.6567 -0.5556 -0.2375
 2972SOL     ow11885   5.212   4.795   2.884  0.1902 -0.0348 -0.1662
 2972SOL     hw11886   5.256   4.741   2.950  0.5500  2.3441  1.7016
 2972SOL     hw11887   5.283   4.848   2.845 -0.2133 -0.4924 -1.5883
 2972SOL     vw11888   5.227   4.795   2.888  0.1843  0.2189 -0.1075
 2973SOL     ow11889   1.879   1.885   6.093 -0.5816 -0.2529  0.1202
 2973SOL     hw11890   1.836   1.969   6.110 -1.9611 -0.5213 -1.6767
 2973SOL     hw11891   1.811   1.819   6.108 -1.1112 -0.6607 -3.2688
 2973SOL     vw11892   1.865   1.887   6.097 -0.8335 -0.3421 -0.5639
 2974SOL     ow11893   2.401   2.718   5.056 -0.4954 -0.5440 -0.2024
 2974SOL     hw11894   2.415   2.801   5.011  0.8762 -0.8806 -0.4541
 2974SOL     hw11895   2.462   2.657   5.013 -1.8708 -1.8401 -0.4106
 2974SOL     vw11896   2.411   2.721   5.044 -0.4958 -0.7592 -0.2632
 2975SOL     ow11897   7.406   0.461   3.431 -0.0737  0.0855  0.0750
 2975SOL     hw11898   7.342   0.391   3.420  0.4473 -0.2850 -0.7991
 2975SOL     hw11899   7.470   0.445   3.361 -0.0584  1.5604 -0.2828
 2975SOL     vw11900   7.406   0.450   3.420 -0.0029  0.2312 -0.0875
 2976SOL     ow11901   2.791   4.042   1.642  0.3486 -1.0373  0.0917
 2976SOL     hw11902   2.755   4.097   1.572 -0.5441 -1.0360  0.5364
 2976SOL     hw11903   2.829   3.967   1.596  0.0959 -0.8586 -0.4203
 2976SOL     vw11904   2.791   4.039   1.627  0.1973 -1.0135  0.0829
 2977SOL     ow11905   7.073   4.401   2.128  0.0304  0.5397 -0.4677
 2977SOL     hw11906   7.000   4.449   2.089  0.9952 -0.0582 -3.2663
 2977SOL     hw11907   7.032   4.336   2.184 -1.4729  1.6040 -0.2727
 2977SOL     vw11908   7.058   4.399   2.130 -0.0408  0.6013 -0.8112
 2978SOL     ow11909   2.191   2.996   3.936 -0.1760  0.1826  0.1604
 2978SOL     hw11910   2.137   2.917   3.926 -0.3080  0.2697  0.1981
 2978SOL     hw11911   2.137   3.057   3.985 -0.1183  0.3439  0.0221
 2978SOL     vw11912   2.177   2.993   3.941 -0.1858  0.2153  0.1472
 2979SOL     ow11913   6.443   7.161   5.465  0.9536  0.3760  0.2678
 2979SOL     hw11914   6.398   7.208   5.394  0.4066 -1.9356 -1.0276
 2979SOL     hw11915   6.414   7.204   5.545 -0.7343  1.2323 -0.7491
 2979SOL     vw11916   6.433   7.173   5.466  0.6585  0.1841 -0.0372
 2980SOL     ow11917   7.372   5.948   1.217  0.1400 -0.3648 -0.1152
 2980SOL     hw11918   7.301   6.012   1.223  0.3478  0.0409 -1.5841
 2980SOL     hw11919   7.430   5.970   1.290  0.3534  1.3156 -0.7605
 2980SOL     vw11920   7.370   5.959   1.228  0.1957 -0.0896 -0.3942
 2981SOL     ow11921   6.483   5.203   6.488 -0.2916  0.9607 -0.5528
 2981SOL     hw11922   6.450   5.120   6.452  1.8119  0.0840 -0.6471
 2981SOL     hw11923   6.407   5.243   6.530 -1.0954 -1.7474  0.8258
 2981SOL     vw11924   6.469   5.197   6.489 -0.1202  0.4878 -0.3836
 2982SOL     ow11925   6.696   6.085   3.394 -0.5373 -0.8378 -0.0595
 2982SOL     hw11926   6.747   6.164   3.413  1.0752 -1.6133 -0.9647
 2982SOL     hw11927   6.606   6.107   3.419  0.1822  0.6888  1.2933
 2982SOL     vw11928   6.691   6.098   3.400 -0.2296 -0.7386 -0.0004
 2983SOL     ow11929   5.412   6.162   2.801 -0.5025  0.1653 -0.5041
 2983SOL     hw11930   5.370   6.077   2.811 -1.6005  0.8213  0.6673
 2983SOL     hw11931   5.345   6.226   2.825  1.4491  1.2235  2.7918
 2983SOL     vw11932   5.398   6.160   2.805 -0.3901  0.3915  0.0852
 2984SOL     ow11933   3.487   1.031   7.250  0.9926 -0.3479  0.2582
 2984SOL     hw11934   3.463   1.114   7.207  2.7408  1.2418  2.1420
 2984SOL     hw11935   3.504   1.056   7.341  1.0431 -2.9253  1.0193
 2984SOL     vw11936   3.486   1.045   7.256  1.2299 -0.4783  0.6070
 2985SOL     ow11937   6.110   5.827   2.295  0.3278  0.6192 -0.5603
 2985SOL     hw11938   6.137   5.901   2.349 -0.9189 -0.1733  1.2530
 2985SOL     hw11939   6.023   5.804   2.328  0.5777 -1.5005 -1.2245
 2985SOL     vw11940   6.102   5.833   2.307  0.1965  0.2348 -0.4088
 2986SOL     ow11941   1.726   5.572   4.565 -0.0342 -0.8190  0.4205
 2986SOL     hw11942   1.681   5.487   4.563 -1.3468 -0.1445 -0.7864
 2986SOL     hw11943   1.696   5.616   4.485  1.1876  0.4991  0.6609
 2986SOL     vw11944   1.716   5.566   4.554 -0.0462 -0.5562  0.2930
 2987SOL     ow11945   4.006   5.646   7.197  0.0812 -0.8314 -0.2465
 2987SOL     hw11946   4.014   5.729   7.242  0.4986 -0.8707 -0.2437
 2987SOL     hw11947   3.913   5.624   7.203 -0.0262 -0.3776 -0.2319
 2987SOL     vw11948   3.995   5.654   7.204  0.1220 -0.7768 -0.2441
 2988SOL     ow11949   0.821   5.723   5.289 -0.6275  0.4275 -0.3604
 2988SOL     hw11950   0.782   5.651   5.238  1.8467 -1.0539 -0.3264
 2988SOL     hw11951   0.849   5.682   5.371  1.1833  1.2849 -0.4913
 2988SOL     vw11952   0.820   5.708   5.293 -0.0622  0.3450 -0.3729
 2989SOL     ow11953   6.144   1.100   2.419 -0.4694  0.4318 -0.4197
 2989SOL     hw11954   6.209   1.090   2.489 -0.3639  1.5778 -0.3409
 2989SOL     hw11955   6.089   1.022   2.426  0.4004 -0.1579  0.0298
 2989SOL     vw11956   6.146   1.088   2.429 -0.3407  0.5053 -0.3499
 2990SOL     ow11957   1.580   7.606   7.344 -0.6676 -0.4135  0.4481
 2990SOL     hw11958   1.579   7.697   7.315 -4.3350 -0.9467 -1.8655
 2990SOL     hw11959   1.498   7.597   7.394 -1.9395 -2.9544 -1.8493
 2990SOL     vw11960   1.569   7.617   7.347 -1.3192 -0.8192 -0.1605
 2991SOL     ow11961   6.711   1.449   0.581  0.0756 -0.3405 -0.5204
 2991SOL     hw11962   6.675   1.538   0.583 -0.6978 -0.6544  0.2169
 2991SOL     hw11963   6.662   1.404   0.512 -0.1491 -0.4461 -0.2916
 2991SOL     vw11964   6.700   1.455   0.572 -0.0558 -0.3959 -0.3930
 2992SOL     ow11965   6.379   0.942   6.393  0.3755  0.0483 -0.2542
 2992SOL     hw11966   6.376   0.894   6.310 -2.4814 -1.1759  0.4266
 2992SOL     hw11967   6.306   1.004   6.388  0.7980  0.6749  0.9500
 2992SOL     vw11968   6.369   0.944   6.381  0.0544 -0.0306 -0.0057
 2993SOL     ow11969   6.173   5.982   2.086 -0.6452  1.0475  0.1024
 2993SOL     hw11970   6.093   6.017   2.047 -1.3872 -1.5646 -0.9788
 2993SOL     hw11971   6.143   5.924   2.156  0.3718  0.9796  0.5003
 2993SOL     vw11972   6.159   5.979   2.090 -0.6089  0.6940  0.0123
 2994SOL     ow11973   5.693   3.445   5.954 -0.2650  0.4703  0.4590
 2994SOL     hw11974   5.702   3.369   6.012  0.5767 -0.3576 -0.7046
 2994SOL     hw11975   5.652   3.410   5.875  0.8406  1.0392 -0.3978
 2994SOL     vw11976   5.689   3.430   5.952 -0.0081  0.4362  0.1922
 2995SOL     ow11977   1.731   2.061   1.439 -0.1241  0.0706  0.3989
 2995SOL     hw11978   1.803   2.015   1.481  0.5299  0.5111 -0.2272
 2995SOL     hw11979   1.693   1.997   1.379 -1.2475 -0.6592  1.8086
 2995SOL     vw11980   1.735   2.047   1.437 -0.1860  0.0324  0.5022
 2996SOL     ow11981   5.099   3.721   2.414  0.1304  0.1980  0.4111
 2996SOL     hw11982   5.048   3.752   2.340  2.2324  0.2346 -1.1111
 2996SOL     hw11983   5.063   3.635   2.434 -0.2519  0.0470 -0.8614
 2996SOL     vw11984   5.087   3.714   2.407  0.3574  0.1829  0.0423
 2997SOL     ow11985   3.532   5.824   4.970 -0.2602  0.4993  0.2900
 2997SOL     hw11986   3.572   5.911   4.966  2.1409 -0.5207  0.4667
 2997SOL     hw11987   3.530   5.802   5.063  2.2453 -0.8850  0.1097
 2997SOL     vw11988   3.537   5.832   4.982  0.3872  0.1822  0.2899
 2998SOL     ow11989   5.497   4.134   1.220  0.4387 -0.4103 -0.0234
 2998SOL     hw11990   5.405   4.115   1.239  0.6089 -1.8574 -0.4860
 2998SOL     hw11991   5.510   4.223   1.252 -1.1081 -0.1877  0.0858
 2998SOL     vw11992   5.486   4.143   1.227  0.2570 -0.5720 -0.0701
 2999SOL     ow11993   0.632   7.139   3.384  0.4022 -0.8239 -0.5651
 2999SOL     hw11994   0.727   7.127   3.385  0.7074  1.1863 -1.4618
 2999SOL     hw11995   0.597   7.055   3.414  2.4941 -1.0923  1.3569
 2999SOL     vw11996   0.640   7.126   3.388  0.7185 -0.5939 -0.4297
 3000SOL     ow11997   0.309   5.591   1.053 -0.0519  0.4824  0.1748
 3000SOL     hw11998   0.329   5.671   1.101 -0.7183  0.8682 -0.1862
 3000SOL     hw11999   0.323   5.614   0.961 -0.5374  0.2713  0.0476
 3000SOL     vw12000   0.313   5.604   1.047 -0.2039  0.5052  0.1104
 3001SOL     ow12001   4.776   5.271   0.417 -0.0013 -0.5573 -0.4909
 3001SOL     hw12002   4.708   5.212   0.383 -1.3328  0.2057  0.7064
 3001SOL     hw12003   4.797   5.235   0.503  0.7798 -0.5188 -0.6665
 3001SOL     vw12004   4.770   5.258   0.424 -0.0741 -0.4516 -0.3561
 3002SOL     ow12005   6.207   0.195   2.882  0.3111  0.6050  0.3590
 3002SOL     hw12006   6.240   0.270   2.833  1.2290  0.4695  0.7547
 3002SOL     hw12007   6.266   0.187   2.956 -0.4609  0.1851  0.9463
 3002SOL     vw12008   6.219   0.204   2.885  0.3304  0.5317  0.4886
 3003SOL     ow12009   0.764   7.543   5.934 -0.1228  0.3232  0.5765
 3003SOL     hw12010   0.697   7.601   5.971 -0.5114 -1.8129  3.5529
 3003SOL     hw12011   0.726   7.456   5.939  1.9195 -0.6612 -0.0239
 3003SOL     vw12012   0.750   7.539   5.940  0.0953 -0.0885  0.8903
 3004SOL     ow12013   6.184   5.509   2.875  0.7476  0.0520  0.3964
 3004SOL     hw12014   6.278   5.529   2.883  0.4138  1.7536  0.5520
 3004SOL     hw12015   6.141   5.575   2.929 -0.5318 -1.0377  0.7480
 3004SOL     vw12016   6.191   5.521   2.883  0.5352  0.1326  0.4635
 3005SOL     ow12017   3.523   4.257   3.023 -0.2840  0.1558  0.1428
 3005SOL     hw12018   3.453   4.192   3.023 -0.4421  0.3195  0.5942
 3005SOL     hw12019   3.580   4.231   3.095 -0.5759  0.7484  0.5977
 3005SOL     vw12020   3.521   4.245   3.032 -0.3433  0.2558  0.2623
 3006SOL     ow12021   1.780   1.828   1.729  0.7413 -0.3722  0.3090
 3006SOL     hw12022   1.740   1.892   1.788 -1.0447 -0.8210 -0.3662
 3006SOL     hw12023   1.788   1.748   1.781 -0.5579 -0.6809  0.0615
 3006SOL     vw12024   1.776   1.826   1.743  0.3342 -0.4722  0.1873
 3007SOL     ow12025   3.595   4.159   5.090 -0.1715 -0.4687  0.0602
 3007SOL     hw12026   3.591   4.123   5.178 -2.0706  0.6891  0.5031
 3007SOL     hw12027   3.635   4.245   5.100 -0.5754 -0.2493 -0.1625
 3007SOL     vw12028   3.600   4.165   5.103 -0.4753 -0.2868  0.0894
 3008SOL     ow12029   4.617   4.846   3.935  0.2547  0.0498  0.7823
 3008SOL     hw12030   4.554   4.917   3.941 -0.3368 -0.4739  0.8688
 3008SOL     hw12031   4.564   4.766   3.937  0.5812 -0.4171 -2.5356
 3008SOL     vw12032   4.602   4.845   3.936  0.2201 -0.0808  0.3558
 3009SOL     ow12033   2.354   5.198   5.803  0.0839  0.3719 -0.2293
 3009SOL     hw12034   2.449   5.198   5.811  0.1114 -1.2933 -0.1500
 3009SOL     hw12035   2.322   5.236   5.885  0.6552 -1.7507  1.0312
 3009SOL     vw12036   2.362   5.203   5.814  0.1630 -0.1278 -0.0525
 3010SOL     ow12037   4.721   2.839   7.321 -0.5364  0.1424 -0.2942
 3010SOL     hw12038   4.811   2.809   7.320  0.5597  3.1287 -0.4212
 3010SOL     hw12039   4.699   2.845   7.414 -0.0102  0.9856 -0.2203
 3010SOL     vw12040   4.730   2.836   7.333 -0.3223  0.6477 -0.3011
 3011SOL     ow12041   1.325   6.902   4.827 -0.9445  0.0619  0.6486
 3011SOL     hw12042   1.298   6.830   4.884  1.7061 -0.1869  1.7542
 3011SOL     hw12043   1.380   6.860   4.761 -0.4881  0.8808  0.4955
 3011SOL     vw12044   1.329   6.887   4.826 -0.5345  0.1371  0.7744
 3012SOL     ow12045   4.017   6.840   6.097  0.2380  0.4967  0.3704
 3012SOL     hw12046   4.079   6.849   6.025  0.3025 -2.1768 -0.0136
 3012SOL     hw12047   4.030   6.918   6.150  1.3965  1.7175 -1.5776
 3012SOL     vw12048   4.027   6.852   6.094  0.3994  0.3054  0.0629
 3013SOL     ow12049   0.349   6.441   5.714  0.1959  0.4790 -0.8780
 3013SOL     hw12050   0.422   6.426   5.653 -0.7025 -1.1925 -1.5846
 3013SOL     hw12051   0.346   6.362   5.768 -1.1619  0.4824 -0.9328
 3013SOL     vw12052   0.358   6.429   5.713 -0.1018  0.2589 -0.9782
 3014SOL     ow12053   0.809   5.208   7.189  0.4587 -0.1083 -0.2658
 3014SOL     hw12054   0.740   5.260   7.148  0.3279 -0.7463 -0.8806
 3014SOL     hw12055   0.803   5.122   7.146  0.1143 -0.9159  1.3258
 3014SOL     vw12056   0.799   5.203   7.178  0.3960 -0.2990 -0.1369
 3015SOL     ow12057   1.528   0.492   3.293  0.2381 -0.0193  0.0752
 3015SOL     hw12058   1.593   0.433   3.255 -0.8362 -0.3356 -1.3703
 3015SOL     hw12059   1.476   0.521   3.218 -0.7349  0.9028  1.0802
 3015SOL     vw12060   1.530   0.488   3.278 -0.0321  0.0606  0.0172
 3016SOL     ow12061   1.889   2.369   3.595 -0.1677  0.1537 -0.4035
 3016SOL     hw12062   1.862   2.398   3.508 -0.9875 -0.6845 -0.4509
 3016SOL     hw12063   1.850   2.282   3.603  1.1513 -0.3931  0.2192
 3016SOL     vw12064   1.880   2.361   3.584 -0.1017 -0.0290 -0.3277
 3017SOL     ow12065   3.416   4.587   2.990  0.1826 -0.0593 -0.5684
 3017SOL     hw12066   3.324   4.599   3.013  0.5079  0.1151  0.7493
 3017SOL     hw12067   3.454   4.675   2.994  0.6544 -0.2796  0.1407
 3017SOL     vw12068   3.409   4.600   2.994  0.2878 -0.0653 -0.3011
 3018SOL     ow12069   4.168   4.269   1.663 -0.0425  0.3694 -0.2659
 3018SOL     hw12070   4.199   4.179   1.648  0.3064  0.5811 -0.8284
 3018SOL     hw12071   4.085   4.274   1.616 -0.6767 -0.0236  0.7737
 3018SOL     vw12072   4.161   4.258   1.655 -0.0801  0.3457 -0.2029
 3019SOL     ow12073   1.949   5.377   1.104  0.0752 -0.8030  0.5347
 3019SOL     hw12074   1.939   5.443   1.173 -2.9058 -0.0334 -0.4897
 3019SOL     hw12075   1.976   5.427   1.027  0.1567 -1.1553  0.3334
 3019SOL     vw12076   1.951   5.392   1.103 -0.3073 -0.7482  0.3729
 3020SOL     ow12077   5.492   4.867   4.467  0.8714  0.5190 -0.5701
 3020SOL     hw12078   5.474   4.945   4.414  1.0277  0.8943 -0.0744
 3020SOL     hw12079   5.450   4.795   4.419 -0.2906  1.0784 -0.4186
 3020SOL     vw12080   5.484   4.868   4.453  0.7389  0.6423 -0.4847
 3021SOL     ow12081   7.360   5.656   7.302  0.3271  0.4121 -1.0535
 3021SOL     hw12082   7.306   5.684   7.376 -0.1157 -0.7547 -0.9102
 3021SOL     hw12083   7.395   5.737   7.266  3.1459  0.9080  2.3169
 3021SOL     vw12084   7.357   5.671   7.307  0.6406  0.3235 -0.5898
 3022SOL     ow12085   5.892   7.454   3.847  0.4252 -0.2925  0.2957
 3022SOL     hw12086   5.843   7.526   3.808  1.1346  1.4488  2.4289
 3022SOL     hw12087   5.876   7.380   3.789 -0.7111  1.4443 -1.7415
 3022SOL     vw12088   5.884   7.454   3.834  0.3691  0.1664  0.3084
 3023SOL     ow12089   5.586   7.463   5.971  0.3403  0.2167 -0.4799
 3023SOL     hw12090   5.655   7.405   6.004  2.0359  1.3437 -1.8439
 3023SOL     hw12091   5.551   7.417   5.895 -0.1794 -0.1937  0.0006
 3023SOL     vw12092   5.591   7.449   5.965  0.4954  0.3111 -0.5965
 3024SOL     ow12093   2.330   4.721   6.383  0.3228 -0.2740 -0.2081
 3024SOL     hw12094   2.417   4.753   6.359  0.2455  0.6616  0.6767
 3024SOL     hw12095   2.297   4.785   6.446 -0.5284 -1.2424  0.3768
 3024SOL     vw12096   2.337   4.734   6.388  0.2003 -0.2782 -0.0141
 3025SOL     ow12097   3.571   3.525   3.880  0.4390 -0.6517 -0.5052
 3025SOL     hw12098   3.653   3.573   3.898  0.1904  0.0419 -1.1809
 3025SOL     hw12099   3.598   3.433   3.873  1.2758 -0.3480 -1.4280
 3025SOL     vw12100   3.586   3.519   3.882  0.5167 -0.5202 -0.7160
 3026SOL     ow12101   5.905   7.317   0.823  0.0984  0.1362  0.0497
 3026SOL     hw12102   5.862   7.305   0.908  1.0926 -2.8494  0.2282
 3026SOL     hw12103   5.844   7.279   0.760 -0.2629  1.6092 -0.5442
 3026SOL     vw12104   5.891   7.311   0.826  0.1819 -0.0634 -0.0052
 3027SOL     ow12105   7.581   5.051   0.470  0.3223  0.1441 -0.4264
 3027SOL     hw12106   7.645   4.987   0.438  1.7793  0.5929  1.4393
 3027SOL     hw12107   7.503   5.035   0.416  0.9093 -2.5832 -0.6260
 3027SOL     vw12108   7.580   5.040   0.458  0.5922 -0.1566 -0.2065
 3028SOL     ow12109   2.667   0.698   5.100  0.1578 -0.5155  0.1060
 3028SOL     hw12110   2.607   0.738   5.038  0.8472  0.7037  0.1943
 3028SOL     hw12111   2.613   0.677   5.176 -0.4217 -0.7488 -0.3686
 3028SOL     vw12112   2.652   0.700   5.102  0.1721 -0.3854  0.0551
 3029SOL     ow12113   1.729   2.724   2.749 -0.1683  0.0352  0.8807
 3029SOL     hw12114   1.752   2.635   2.777 -1.7989 -1.4768 -2.1203
 3029SOL     hw12115   1.633   2.726   2.753 -0.1310  2.2886  2.3906
 3029SOL     vw12116   1.719   2.712   2.753 -0.3785  0.1329  0.6840
 3030SOL     ow12117   7.261   3.197   6.628  1.1366 -0.0458 -0.2783
 3030SOL     hw12118   7.177   3.240   6.647  1.4989  0.6539 -0.2301
 3030SOL     hw12119   7.288   3.235   6.544  1.3507 -0.3501 -0.3455
 3030SOL     vw12120   7.254   3.208   6.619  1.2128  0.0063 -0.2806
 3031SOL     ow12121   0.769   5.303   0.666 -0.0142 -0.0023 -0.1966
 3031SOL     hw12122   0.677   5.277   0.673  0.8245 -3.9442 -1.1108
 3031SOL     hw12123   0.789   5.299   0.573  1.3580 -0.6067  0.0878
 3031SOL     vw12124   0.760   5.299   0.655  0.2775 -0.6020 -0.2797
 3032SOL     ow12125   5.955   0.164   3.029  0.2184 -0.6377  0.1342
 3032SOL     hw12126   5.861   0.149   3.021 -0.1749  1.6731 -0.5694
 3032SOL     hw12127   5.969   0.182   3.122 -0.0617 -0.8269  0.2138
 3032SOL     vw12128   5.945   0.165   3.040  0.1297 -0.3578  0.0520
 3033SOL     ow12129   0.146   5.482   3.634 -0.0949 -0.2998  0.6921
 3033SOL     hw12130   0.165   5.435   3.552  3.5329  1.5094  0.2683
 3033SOL     hw12131   0.226   5.471   3.686  0.3305  3.8701  1.2134
 3033SOL     vw12132   0.159   5.474   3.630  0.4399  0.4888  0.7049
 3034SOL     ow12133   5.939   2.586   0.097  0.0213  0.7821  0.4277
 3034SOL     hw12134   5.967   2.507   0.144  1.3168  0.1314 -1.3142
 3034SOL     hw12135   5.844   2.581   0.097 -0.0560  0.8388  2.9476
 3034SOL     vw12136   5.930   2.575   0.103  0.1819  0.7038  0.5303
 3035SOL     ow12137   7.519   1.437   0.641 -0.0642 -0.6747  0.3334
 3035SOL     hw12138   7.523   1.416   0.734  2.9129  0.9371  0.6771
 3035SOL     hw12139   7.462   1.514   0.635 -3.1728 -2.8049  0.2449
 3035SOL     vw12140   7.512   1.444   0.652 -0.0815 -0.7430  0.3670
 3036SOL     ow12141   1.398   6.847   6.612 -0.4918 -0.3803 -0.2959
 3036SOL     hw12142   1.476   6.894   6.585 -1.5642  1.0127 -1.1351
 3036SOL     hw12143   1.389   6.777   6.547 -0.3980 -0.0109 -0.7156
 3036SOL     vw12144   1.407   6.844   6.600 -0.6210 -0.1478 -0.4618
 3037SOL     ow12145   6.617   4.653   3.970 -0.4322  0.0427 -0.4727
 3037SOL     hw12146   6.581   4.593   4.036 -0.5768  1.1512  0.4831
 3037SOL     hw12147   6.710   4.629   3.964 -0.3549  0.1159  0.3394
 3037SOL     vw12148   6.624   4.642   3.978 -0.4411  0.1988 -0.2395
 3038SOL     ow12149   4.913   4.748   4.231 -0.0334  0.4615 -0.2183
 3038SOL     hw12150   4.863   4.668   4.245  2.7381 -1.5858 -0.9906
 3038SOL     hw12151   4.882   4.782   4.147 -0.5620 -0.3802 -0.3746
 3038SOL     vw12152   4.902   4.742   4.221  0.2625  0.0806 -0.3407
 3039SOL     ow12153   0.205   0.481   1.882 -0.4504  0.5680  0.1207
 3039SOL     hw12154   0.294   0.513   1.896  0.0209 -1.2371  1.6807
 3039SOL     hw12155   0.213   0.414   1.815 -0.6499  0.4672  0.1951
 3039SOL     vw12156   0.218   0.477   1.875 -0.4146  0.3165  0.3362
 3040SOL     ow12157   5.659   5.335   2.725  0.3759 -0.3507  0.0662
 3040SOL     hw12158   5.664   5.385   2.807 -1.1843 -1.7481  1.0715
 3040SOL     hw12159   5.626   5.398   2.661 -0.9434  0.1080  1.1446
 3040SOL     vw12160   5.655   5.350   2.727 -0.0041 -0.4742  0.3412
 3041SOL     ow12161   1.885   3.074   3.033 -0.7477  0.0900 -0.4742
 3041SOL     hw12162   1.860   2.995   3.082 -2.0075  1.2060  0.7906
 3041SOL     hw12163   1.959   3.109   3.082  1.1913 -1.3258 -2.2095
 3041SOL     vw12164   1.891   3.068   3.046 -0.6580  0.0504 -0.5364
 3042SOL     ow12165   1.743   6.298   3.274  0.1989  1.1652 -0.2976
 3042SOL     hw12166   1.816   6.312   3.334  1.4434 -2.4553 -0.6770
 3042SOL     hw12167   1.676   6.255   3.327  0.5179 -0.2525 -0.9698
 3042SOL     vw12168   1.744   6.294   3.289  0.4051  0.5004 -0.4363
 3043SOL     ow12169   7.098   2.578   4.298 -0.0479  0.2822  0.3119
 3043SOL     hw12170   7.173   2.611   4.248 -0.7830  0.7173 -0.5373
 3043SOL     hw12171   7.136   2.544   4.378  0.8608  2.3569  0.8341
 3043SOL     vw12172   7.113   2.578   4.302 -0.0248  0.6133  0.2687
 3044SOL     ow12173   6.498   7.229   7.574 -0.2548 -0.1924  0.4653
 3044SOL     hw12174   6.407   7.223   7.545 -0.7202 -2.2647  2.0938
 3044SOL     hw12175   6.540   7.151   7.537  0.4326 -0.1129  1.0523
 3044SOL     vw12176   6.491   7.218   7.566 -0.2255 -0.4554  0.7577
 3045SOL     ow12177   1.145   3.524   5.190  0.7043 -0.6024  0.4140
 3045SOL     hw12178   1.170   3.559   5.276 -1.6119 -1.7603  1.6580
 3045SOL     hw12179   1.188   3.583   5.127  0.3178  1.9688  2.3635
 3045SOL     vw12180   1.154   3.537   5.193  0.3476 -0.4159  0.8354
 3046SOL     ow12181   7.206   0.386   3.208  0.3468 -0.1542 -0.5012
 3046SOL     hw12182   7.215   0.478   3.183 -1.1903  0.1798  0.0908
 3046SOL     hw12183   7.259   0.339   3.144  2.2492  1.2205 -0.0174
 3046SOL     vw12184   7.214   0.392   3.196  0.3951  0.0713 -0.3593
 3047SOL     ow12185   4.764   3.605   0.646  0.4629 -0.7584  0.1124
 3047SOL     hw12186   4.777   3.697   0.668  2.3728 -0.8099 -0.6174
 3047SOL     hw12187   4.672   3.588   0.667 -0.4828  1.7901 -1.5549
 3047SOL     vw12188   4.754   3.615   0.652  0.5901 -0.4289 -0.2039
 3048SOL     ow12189   2.616   5.871   2.083 -0.2851  0.5502  1.0807
 3048SOL     hw12190   2.668   5.891   2.160 -0.1260 -0.7873  1.3577
 3048SOL     hw12191   2.679   5.872   2.011 -0.0256 -0.1413  1.2808
 3048SOL     vw12192   2.631   5.874   2.083 -0.2298  0.2825  1.1436
 3049SOL     ow12193   0.427   6.314   4.247 -0.2861  0.2124 -0.3783
 3049SOL     hw12194   0.331   6.310   4.249 -0.4259 -2.4155  4.1621
 3049SOL     hw12195   0.453   6.225   4.223  1.0727  0.9425 -1.7115
 3049SOL     vw12196   0.417   6.301   4.244 -0.1253 -0.0381  0.0448
 3050SOL     ow12197   1.848   7.108   1.432 -1.0067  0.0214 -1.0092
 3050SOL     hw12198   1.882   7.051   1.501 -0.1951  0.7529 -0.7853
 3050SOL     hw12199   1.781   7.056   1.389  1.9391 -2.4227 -3.0388
 3050SOL     vw12200   1.843   7.094   1.436 -0.5109 -0.2046 -1.2475
 3051SOL     ow12201   5.757   4.823   4.941 -0.8596 -0.1481 -0.2905
 3051SOL     hw12202   5.839   4.857   4.976 -0.5354 -0.5424 -0.6542
 3051SOL     hw12203   5.699   4.818   5.017 -1.5372  2.9094 -0.5005
 3051SOL     vw12204   5.760   4.826   4.956 -0.9062  0.2034 -0.3660
 3052SOL     ow12205   2.272   7.524   3.438  1.0157  0.5256  0.3616
 3052SOL     hw12206   2.223   7.523   3.356 -2.4004  0.6945  2.2333
 3052SOL     hw12207   2.272   7.616   3.465  0.4892  0.2333  1.4075
 3052SOL     vw12208   2.266   7.536   3.431  0.4953  0.5093  0.7465
 3053SOL     ow12209   0.896   0.536   7.200  0.1604 -0.2256 -0.3797
 3053SOL     hw12210   0.955   0.600   7.238  0.6805 -1.2759  0.6479
 3053SOL     hw12211   0.953   0.465   7.170 -0.4578 -0.5712 -0.7587
 3053SOL     vw12212   0.911   0.535   7.201  0.1475 -0.4098 -0.2940
 3054SOL     ow12213   7.114   3.487   3.334  0.4038 -0.2953  0.1990
 3054SOL     hw12214   7.023   3.508   3.311  0.5878  0.3603  0.0480
 3054SOL     hw12215   7.121   3.393   3.321  0.2895 -0.0716 -1.7027
 3054SOL     vw12216   7.103   3.478   3.330  0.4129 -0.1791 -0.0718
 3055SOL     ow12217   4.857   5.245   2.854 -0.2065 -0.2446 -0.0285
 3055SOL     hw12218   4.807   5.319   2.889  1.6619  1.1508 -0.1404
 3055SOL     hw12219   4.873   5.268   2.762  2.0040  0.2180  0.4042
 3055SOL     vw12220   4.852   5.258   2.846  0.3316  0.0005  0.0138
 3056SOL     ow12221   2.092   0.154   4.678 -0.1033 -0.4775  0.1385
 3056SOL     hw12222   2.068   0.115   4.595  4.7425 -2.2043 -0.7679
 3056SOL     hw12223   2.091   0.081   4.740  2.6919 -0.8105 -0.0788
 3056SOL     vw12224   2.088   0.139   4.676  0.9048 -0.7493 -0.0098
 3057SOL     ow12225   4.377   2.831   4.287 -0.0311 -0.7666  0.0661
 3057SOL     hw12226   4.446   2.826   4.221  1.1561 -0.3945  1.2374
 3057SOL     hw12227   4.370   2.742   4.322  1.4324 -0.3918  1.4500
 3057SOL     vw12228   4.385   2.819   4.283  0.3188 -0.6679  0.4034
 3058SOL     ow12229   2.593   4.912   4.742  0.6107 -0.6162  0.6526
 3058SOL     hw12230   2.589   4.892   4.836  1.8718  1.3279  1.1686
 3058SOL     hw12231   2.680   4.951   4.729 -0.5308  1.6825 -0.7570
 3058SOL     vw12232   2.604   4.915   4.753  0.6266 -0.0565  0.5350
 3059SOL     ow12233   6.416   7.143   7.156 -0.1015 -0.6981  0.2269
 3059SOL     hw12234   6.503   7.183   7.150 -0.1032 -0.6290  0.6393
 3059SOL     hw12235   6.392   7.150   7.249  0.2232 -2.3669  0.4676
 3059SOL     vw12236   6.424   7.149   7.167 -0.0587 -0.9091  0.3130
 3060SOL     ow12237   0.070   7.539   5.157 -0.2400  0.1948 -0.4797
 3060SOL     hw12238  -0.010   7.573   5.197 -0.3046 -0.3613 -0.1293
 3060SOL     hw12239   0.092   7.462   5.209  0.8962  0.7201 -0.1726
 3060SOL     vw12240   0.062   7.533   5.169 -0.0986  0.1907 -0.3929
 3061SOL     ow12241   6.849   7.216   4.753  0.4647 -0.1501 -0.1894
 3061SOL     hw12242   6.826   7.133   4.795 -0.0745  0.6010  1.0359
 3061SOL     hw12243   6.821   7.204   4.662  1.8953 -1.9019 -0.4611
 3061SOL     vw12244   6.842   7.203   4.746  0.5822 -0.2820 -0.0637
 3062SOL     ow12245   7.481   3.960   6.626 -1.0347 -0.3033  0.7585
 3062SOL     hw12246   7.413   4.004   6.676 -1.6562 -0.6885  0.2752
 3062SOL     hw12247   7.563   3.990   6.664 -1.4099  1.6676  0.1291
 3062SOL     vw12248   7.483   3.970   6.638 -1.1663 -0.0941  0.6115
 3063SOL     ow12249   5.185   4.436   4.512 -0.7476  0.4000 -0.2547
 3063SOL     hw12250   5.140   4.462   4.431  1.2330  1.8057 -0.9926
 3063SOL     hw12251   5.229   4.354   4.489 -0.3054  0.7219 -0.5889
 3063SOL     vw12252   5.185   4.429   4.498 -0.4282  0.6280 -0.3960
 3064SOL     ow12253   5.379   7.000   5.283 -0.0943 -0.9072 -0.0204
 3064SOL     hw12254   5.290   6.977   5.311 -0.9424  0.8520 -1.0713
 3064SOL     hw12255   5.375   6.998   5.188 -0.0688  2.5171 -0.2237
 3064SOL     vw12256   5.367   6.997   5.274 -0.2027 -0.2234 -0.1855
 3065SOL     ow12257   0.036   1.714   2.949  0.0740 -0.8118  0.1584
 3065SOL     hw12258   0.086   1.769   2.889 -0.9403  0.5681  0.5230
 3065SOL     hw12259  -0.056   1.734   2.930 -0.2866 -1.0159  1.5347
 3065SOL     vw12260   0.030   1.724   2.939 -0.1074 -0.6567  0.3881
 3066SOL     ow12261   3.283   7.153   0.226 -0.0909  0.6085 -0.7221
 3066SOL     hw12262   3.204   7.125   0.272 -0.9262  0.7823 -2.0010
 3066SOL     hw12263   3.343   7.180   0.295 -0.3741 -1.4600  0.3836
 3066SOL     vw12264   3.280   7.153   0.241 -0.2384  0.3583 -0.7450
 3067SOL     ow12265   1.983   5.742   3.620 -0.2772 -0.0330 -0.0593
 3067SOL     hw12266   2.002   5.649   3.611 -1.2366 -0.4606  1.8895
 3067SOL     hw12267   1.888   5.749   3.607  0.2302  1.4231 -4.9422
 3067SOL     vw12268   1.973   5.731   3.617 -0.3369  0.1030 -0.4466
 3068SOL     ow12269   2.285   3.526   7.546  0.0761  0.6697 -0.7868
 3068SOL     hw12270   2.268   3.616   7.515  1.1470  0.4881 -1.9789
 3068SOL     hw12271   2.284   3.533   7.642 -3.0346  1.3248 -0.7594
 3068SOL     vw12272   2.282   3.539   7.555 -0.1930  0.7322 -0.9405
 3069SOL     ow12273   3.053   0.194   6.686 -0.0669  0.0259  0.1117
 3069SOL     hw12274   3.011   0.152   6.761 -1.7427  1.8343  0.2696
 3069SOL     hw12275   3.116   0.254   6.725 -1.1716  1.2099  0.1487
 3069SOL     vw12276   3.056   0.196   6.701 -0.4337  0.4207  0.1376
 3070SOL     ow12277   3.245   4.628   2.078  0.0811  0.0584  0.4279
 3070SOL     hw12278   3.194   4.560   2.035 -0.2853  0.7117 -0.1992
 3070SOL     hw12279   3.250   4.699   2.013 -2.3196  1.9764  2.1171
 3070SOL     vw12280   3.239   4.629   2.064 -0.2838  0.3977  0.5679
 3071SOL     ow12281   5.548   0.116   1.579  0.9097 -0.1725  0.4153
 3071SOL     hw12282   5.464   0.071   1.572  1.4759 -1.6809  2.3775
 3071SOL     hw12283   5.524   0.208   1.595 -0.2583  0.5481 -4.1525
 3071SOL     vw12284   5.533   0.122   1.580  0.8304 -0.2765  0.0716
 3072SOL     ow12285   1.432   4.699   4.789  0.5152 -0.4500 -0.2885
 3072SOL     hw12286   1.480   4.754   4.851 -1.5165 -1.2483  2.2052
 3072SOL     hw12287   1.489   4.623   4.775  0.0061 -1.5774  2.8989
 3072SOL     vw12288   1.446   4.696   4.795  0.1800 -0.7041  0.4609
 3073SOL     ow12289   0.316   0.730   6.935 -0.2236  0.0634  0.4985
 3073SOL     hw12290   0.224   0.743   6.960  0.0186  1.9648  0.5806
 3073SOL     hw12291   0.362   0.721   7.019  0.0975  2.7600  0.6966
 3073SOL     vw12292   0.310   0.731   6.949 -0.1493  0.6701  0.5352
 3074SOL     ow12293   0.463   4.475   6.670 -0.2264  0.4955  0.1703
 3074SOL     hw12294   0.447   4.557   6.623  0.8888  0.1851 -0.7961
 3074SOL     hw12295   0.463   4.407   6.602 -1.9246 -0.4423  1.0553
 3074SOL     vw12296   0.461   4.477   6.655 -0.3033  0.3309  0.1597
 3075SOL     ow12297   5.795   6.886   1.848 -0.3542  0.3250 -0.3892
 3075SOL     hw12298   5.727   6.940   1.808 -0.1133  0.4866 -0.5827
 3075SOL     hw12299   5.805   6.812   1.788 -0.6526  0.0877 -0.1477
 3075SOL     vw12300   5.787   6.883   1.835 -0.3619  0.3154 -0.3829
 3076SOL     ow12301   5.067   4.283   5.021  0.2488  0.7170  0.5261
 3076SOL     hw12302   5.053   4.377   5.032  0.9193  1.2724 -2.5364
 3076SOL     hw12303   4.985   4.251   4.984 -0.1366 -0.0404  1.9650
 3076SOL     vw12304   5.055   4.291   5.018  0.2866  0.6902  0.3116
 3077SOL     ow12305   4.035   4.479   1.227  0.0609 -0.1133 -0.4441
 3077SOL     hw12306   3.980   4.471   1.150  0.5093 -1.9561 -0.6227
 3077SOL     hw12307   4.119   4.513   1.194 -0.0243 -0.0780 -0.6237
 3077SOL     vw12308   4.039   4.483   1.213  0.1087 -0.3517 -0.4914
 3078SOL     ow12309   1.899   2.015   5.485  0.3923  0.6314 -0.1054
 3078SOL     hw12310   1.896   1.950   5.415  0.3466  0.8691 -0.3259
 3078SOL     hw12311   1.961   2.081   5.454  0.8649  0.4175  0.3610
 3078SOL     vw12312   1.907   2.015   5.472  0.4485  0.6346 -0.0730
 3079SOL     ow12313   4.255   5.975   0.771 -0.1748  0.7432 -0.6278
 3079SOL     hw12314   4.264   6.031   0.694  0.1343  1.2071 -0.2602
 3079SOL     hw12315   4.171   5.930   0.758 -0.0718  0.7319 -1.2837
 3079SOL     vw12316   4.245   5.977   0.759 -0.1206  0.8025 -0.6658
 3080SOL     ow12317   6.187   0.898   1.087 -0.0049  0.2453  0.0558
 3080SOL     hw12318   6.207   0.829   1.024  2.0180  0.3659  0.5192
 3080SOL     hw12319   6.204   0.859   1.172  3.2367  1.8142  0.2778
 3080SOL     vw12320   6.192   0.884   1.090  0.6897  0.4682  0.1463
 3081SOL     ow12321   1.856   6.015   5.299  0.0096 -0.9024  0.3226
 3081SOL     hw12322   1.822   5.996   5.386 -1.0128  1.1123  0.4350
 3081SOL     hw12323   1.786   5.988   5.239 -1.5277  2.1835  0.4920
 3081SOL     vw12324   1.842   6.009   5.302 -0.3282 -0.2296  0.3598
 3082SOL     ow12325   6.748   3.494   6.955 -0.4595  0.2717 -0.3047
 3082SOL     hw12326   6.793   3.413   6.930 -0.2379  0.2504  0.1566
 3082SOL     hw12327   6.729   3.484   7.048  2.3008  1.9866  0.5633
 3082SOL     vw12328   6.751   3.482   6.964 -0.0660  0.4951 -0.1290
 3083SOL     ow12329   5.258   7.575   5.453 -0.0999  0.2664 -0.3275
 3083SOL     hw12330   5.250   7.658   5.499  1.9900  0.2087  0.2599
 3083SOL     hw12331   5.348   7.547   5.469 -0.5875 -1.8774 -0.9350
 3083SOL     vw12332   5.269   7.582   5.461  0.1113 -0.0238 -0.3302
 3084SOL     ow12333   2.170   2.668   1.276 -0.1168 -0.2052  0.4670
 3084SOL     hw12334   2.253   2.660   1.229  0.2211 -0.4518  1.0930
 3084SOL     hw12335   2.189   2.633   1.363 -0.4997  1.0159  1.0619
 3084SOL     vw12336   2.184   2.663   1.281 -0.1227 -0.0767  0.6281
 3085SOL     ow12337   1.994   4.886   4.289  0.1864 -0.7105  0.0757
 3085SOL     hw12338   1.939   4.808   4.302 -0.4741 -0.4302 -0.8851
 3085SOL     hw12339   2.056   4.884   4.361  1.0469 -2.8626 -0.6509
 3085SOL     vw12340   1.995   4.875   4.300  0.2128 -0.9575 -0.1471
 3086SOL     ow12341   7.442   7.151   4.622  0.0619 -1.3421  0.2515
 3086SOL     hw12342   7.511   7.174   4.684  0.8113 -0.9120 -0.7182
 3086SOL     hw12343   7.384   7.227   4.622 -1.3819 -2.3573  2.3099
 3086SOL     vw12344   7.444   7.164   4.630 -0.0296 -1.4191  0.3951
 3087SOL     ow12345   3.205   5.179   4.393  0.2222 -0.8182 -0.7988
 3087SOL     hw12346   3.185   5.147   4.481  1.2432  0.9858  0.1670
 3087SOL     hw12347   3.237   5.268   4.407  0.0899 -0.3472 -3.0497
 3087SOL     vw12348   3.207   5.187   4.407  0.3395 -0.5181 -0.9685
 3088SOL     ow12349   6.388   2.670   1.935 -0.2963 -0.3663  0.1171
 3088SOL     hw12350   6.422   2.728   1.866 -2.3635  0.9078  0.0860
 3088SOL     hw12351   6.301   2.704   1.954  0.1947 -0.6422  3.4250
 3088SOL     vw12352   6.381   2.682   1.929 -0.5043 -0.2345  0.5494
 3089SOL     ow12353   0.632   0.734   0.818 -0.0227 -0.1559 -0.0379
 3089SOL     hw12354   0.714   0.783   0.813 -0.7627  1.0397 -1.0244
 3089SOL     hw12355   0.594   0.759   0.902 -0.9577  1.9792 -1.0254
 3089SOL     vw12356   0.637   0.744   0.829 -0.2437  0.2835 -0.2984
 3090SOL     ow12357   7.612   6.768   1.945 -0.0737 -0.0804  0.2647
 3090SOL     hw12358   7.578   6.827   1.879  1.6848  0.4291 -0.2245
 3090SOL     hw12359   7.600   6.680   1.908 -0.5302  0.0965 -0.0143
 3090SOL     vw12360   7.606   6.764   1.932  0.0980  0.0103  0.1633
 3091SOL     ow12361   0.466   7.075   2.639 -0.1239  0.0993  0.7154
 3091SOL     hw12362   0.425   7.022   2.708  0.8732  0.9833  2.0399
 3091SOL     hw12363   0.551   7.034   2.625 -0.6598 -0.6046 -0.6690
 3091SOL     vw12364   0.472   7.062   2.646 -0.0630  0.1235  0.7075
 3092SOL     ow12365   2.572   5.280   3.401 -0.5246 -0.8070 -0.3185
 3092SOL     hw12366   2.630   5.287   3.325 -0.3140 -0.8621 -0.1610
 3092SOL     hw12367   2.592   5.195   3.439  0.5823 -0.0676  0.7965
 3092SOL     vw12368   2.582   5.270   3.396 -0.3508 -0.7169 -0.1506
 3093SOL     ow12369   3.033   6.011   2.955 -0.0585  0.3811  0.7146
 3093SOL     hw12370   2.958   6.056   2.916  0.0751  0.3600  0.4364
 3093SOL     hw12371   3.080   6.079   3.004  1.1836  0.9724 -1.2060
 3093SOL     vw12372   3.029   6.026   2.957  0.1230  0.4561  0.4245
 3094SOL     ow12373   2.901   1.036   7.151  0.4341 -0.1193 -0.4724
 3094SOL     hw12374   2.919   0.955   7.101 -2.0038 -0.6926 -0.5608
 3094SOL     hw12375   2.872   1.005   7.237 -0.8670  0.5937 -0.6188
 3094SOL     vw12376   2.899   1.021   7.156 -0.0592 -0.1009 -0.5033
 3095SOL     ow12377   7.370   6.686   5.896 -0.2202 -0.2267 -0.2015
 3095SOL     hw12378   7.291   6.715   5.851  0.1632  0.0642 -0.6969
 3095SOL     hw12379   7.420   6.640   5.829  0.5047  0.4780 -0.1626
 3095SOL     vw12380   7.366   6.684   5.881 -0.0737 -0.0954 -0.2618
 3096SOL     ow12381   0.413   3.728   4.940  0.6342 -0.0327 -0.3306
 3096SOL     hw12382   0.332   3.774   4.916  0.0475 -0.6184  0.4752
 3096SOL     hw12383   0.427   3.751   5.032 -0.8960 -3.1611  0.8125
 3096SOL     vw12384   0.404   3.737   4.949  0.3549 -0.5227 -0.0737
 3097SOL     ow12385   3.444   3.482   3.146 -0.5538 -0.0975  0.2096
 3097SOL     hw12386   3.487   3.470   3.231 -0.7140 -0.3472  0.2565
 3097SOL     hw12387   3.444   3.395   3.107 -1.1173 -0.1185  0.2560
 3097SOL     vw12388   3.450   3.469   3.152 -0.6493 -0.1333  0.2217
 3098SOL     ow12389   2.877   1.235   6.428  0.6824 -0.1114  0.7615
 3098SOL     hw12390   2.965   1.271   6.421  1.7818 -1.9023  3.9166
 3098SOL     hw12391   2.829   1.298   6.482  1.1019 -0.8602  2.0219
 3098SOL     vw12392   2.882   1.248   6.434  0.8827 -0.4464  1.3440
 3099SOL     ow12393   4.098   4.831   7.316 -0.7401  0.8230 -0.1770
 3099SOL     hw12394   4.128   4.905   7.370 -1.1453 -0.7178  2.3484
 3099SOL     hw12395   4.070   4.765   7.380  3.3173 -3.2276 -1.9819
 3099SOL     vw12396   4.099   4.832   7.332 -0.2584  0.0854 -0.0815
 3100SOL     ow12397   4.447   0.274   6.345 -0.0856  0.3962  0.0058
 3100SOL     hw12398   4.368   0.322   6.318 -0.2475  1.1129  1.6519
 3100SOL     hw12399   4.429   0.183   6.323 -1.8015  0.4015  1.2384
 3100SOL     vw12400   4.434   0.268   6.338 -0.3338  0.4915  0.3855
 3101SOL     ow12401   0.419   1.530   6.672  0.0291 -0.2208  0.0698
 3101SOL     hw12402   0.424   1.625   6.666  1.7103 -0.3029 -0.2072
 3101SOL     hw12403   0.471   1.498   6.599 -0.2748 -1.3614  0.3274
 3101SOL     vw12404   0.426   1.538   6.662  0.2108 -0.3821  0.0675
 3102SOL     ow12405   2.689   2.500   6.499  0.7547  0.8072 -0.1083
 3102SOL     hw12406   2.633   2.564   6.543 -0.3662  0.7124 -1.3499
 3102SOL     hw12407   2.767   2.495   6.555 -1.6572 -1.4125  3.4733
 3102SOL     vw12408   2.692   2.508   6.513  0.2886  0.5019  0.2007
 3103SOL     ow12409   6.636   0.345   7.332 -0.3557 -0.3931 -0.2150
 3103SOL     hw12410   6.645   0.336   7.238 -0.2808  0.4638 -0.2944
 3103SOL     hw12411   6.595   0.263   7.360  0.1171 -0.8739 -0.9173
 3103SOL     vw12412   6.632   0.333   7.324 -0.2837 -0.3434 -0.3181
 3104SOL     ow12413   1.769   0.668   5.385  1.0436 -0.4144 -0.8549
 3104SOL     hw12414   1.861   0.682   5.405  0.6010  1.5578  0.0533
 3104SOL     hw12415   1.722   0.731   5.440 -0.9968 -2.6627  0.1678
 3104SOL     vw12416   1.775   0.678   5.395  0.7160 -0.4508 -0.6001
 3105SOL     ow12417   2.716   1.124   2.561 -0.1329  0.3388  0.2660
 3105SOL     hw12418   2.682   1.118   2.471 -0.1737  0.7046  0.2556
 3105SOL     hw12419   2.792   1.182   2.554 -0.2908  0.5752  0.5109
 3105SOL     vw12420   2.721   1.131   2.548 -0.1591  0.4182  0.2970
 3106SOL     ow12421   4.532   0.778   3.292 -0.0552  0.8945 -0.0537
 3106SOL     hw12422   4.627   0.784   3.305  0.1495 -2.4350  1.1554
 3106SOL     hw12423   4.522   0.747   3.202  0.0679  0.7408 -0.0161
 3106SOL     vw12424   4.543   0.775   3.282 -0.0122  0.4349  0.1109
 3107SOL     ow12425   3.857   2.001   0.220 -0.4375 -0.5677 -0.0862
 3107SOL     hw12426   3.951   2.001   0.236 -0.2487 -1.3360 -1.0839
 3107SOL     hw12427   3.842   2.077   0.163 -0.3831 -0.6066 -0.1517
 3107SOL     vw12428   3.867   2.011   0.214 -0.4053 -0.6742 -0.2265
 3108SOL     ow12429   2.259   4.596   0.328  0.1422  0.0665 -0.6774
 3108SOL     hw12430   2.298   4.666   0.382  0.1448  0.3797 -1.0774
 3108SOL     hw12431   2.277   4.624   0.238 -0.9544  0.1781 -0.8661
 3108SOL     vw12432   2.267   4.609   0.323 -0.0023  0.1223 -0.7551
 3109SOL     ow12433   0.002   1.611   3.234  0.0728 -0.0266  0.3310
 3109SOL     hw12434  -0.083   1.598   3.278 -0.0790  0.1821  0.1017
 3109SOL     hw12435   0.046   1.526   3.242  1.4756  0.8560  3.8797
 3109SOL     vw12436  -0.003   1.598   3.241  0.2377  0.1173  0.7689
 3110SOL     ow12437   6.935   5.755   2.819  0.0046 -0.4504 -0.2578
 3110SOL     hw12438   6.869   5.712   2.764 -1.7386  1.1409  0.4763
 3110SOL     hw12439   7.013   5.759   2.764 -1.2324 -0.2480 -2.0675
 3110SOL     vw12440   6.937   5.750   2.804 -0.3886 -0.2139 -0.3997
 3111SOL     ow12441   2.525   4.296   3.867  0.4045 -0.0442  0.5109
 3111SOL     hw12442   2.594   4.351   3.828  0.7081 -0.9072 -0.2079
 3111SOL     hw12443   2.468   4.358   3.912  1.6710  0.6902  1.1704
 3111SOL     vw12444   2.526   4.311   3.868  0.6117 -0.0613  0.5031
 3112SOL     ow12445   6.754   4.190   6.129 -0.7672  0.7930 -0.1397
 3112SOL     hw12446   6.785   4.181   6.039 -0.8566  2.4836 -0.3672
 3112SOL     hw12447   6.683   4.254   6.124 -1.2186  0.4092  1.0424
 3112SOL     vw12448   6.749   4.197   6.117 -0.8385  0.9654 -0.0138
 3113SOL     ow12449   6.504   7.165   3.974 -0.2127 -0.1717 -0.3154
 3113SOL     hw12450   6.410   7.162   3.993  0.0159  0.5644  1.0277
 3113SOL     hw12451   6.514   7.240   3.915 -0.5263 -0.5793 -0.8980
 3113SOL     vw12452   6.493   7.174   3.968 -0.2241 -0.1287 -0.2149
 3114SOL     ow12453   5.850   5.456   0.570  0.1453  0.3646  0.1575
 3114SOL     hw12454   5.814   5.375   0.533  1.7309 -0.0728 -0.5331
 3114SOL     hw12455   5.776   5.499   0.611 -0.2620 -2.8487  3.2548
 3114SOL     vw12456   5.836   5.451   0.570  0.3006 -0.1171  0.4750
 3115SOL     ow12457   7.043   1.517   3.866  0.3054 -0.7023 -0.4940
 3115SOL     hw12458   7.091   1.561   3.796  1.7415 -0.4778  0.5895
 3115SOL     hw12459   7.049   1.424   3.844 -0.2481 -0.5684 -1.2617
 3115SOL     vw12460   7.050   1.510   3.854  0.4220 -0.6550 -0.4525
 3116SOL     ow12461   1.871   4.571   0.901  0.6005  0.3072 -0.2811
 3116SOL     hw12462   1.923   4.638   0.856  0.7969  0.9452  0.8316
 3116SOL     hw12463   1.911   4.565   0.988 -0.3656 -0.1655  0.1451
 3116SOL     vw12464   1.883   4.579   0.907  0.4989  0.3288 -0.0781
 3117SOL     ow12465   3.822   6.170   6.964 -0.3263  0.2501  0.0991
 3117SOL     hw12466   3.916   6.183   6.955 -0.2105 -0.9881 -0.6749
 3117SOL     hw12467   3.790   6.157   6.875 -1.1815  0.3381  0.3811
 3117SOL     vw12468   3.830   6.170   6.951 -0.4238  0.0985  0.0341
 3118SOL     ow12469   5.473   6.713   1.433  0.1384 -0.6790  0.4280
 3118SOL     hw12470   5.438   6.732   1.345 -3.3443 -3.2843  1.0365
 3118SOL     hw12471   5.506   6.624   1.427  0.4629 -0.6546  1.6327
 3118SOL     vw12472   5.473   6.704   1.420 -0.2782 -1.0195  0.6673
 3119SOL     ow12473   2.652   3.186   4.985  0.0855 -0.3625  0.0898
 3119SOL     hw12474   2.608   3.141   4.913  2.3947  0.1318 -1.7764
 3119SOL     hw12475   2.592   3.255   5.011 -0.0707  0.7184 -2.7893
 3119SOL     vw12476   2.638   3.189   4.979  0.3695 -0.1546 -0.5364
 3120SOL     ow12477   0.592   2.208   6.626  0.6046 -0.1431  0.4330
 3120SOL     hw12478   0.631   2.121   6.623  0.0215 -0.4791  1.8607
 3120SOL     hw12479   0.571   2.222   6.718 -0.2338  1.1001  0.0815
 3120SOL     vw12480   0.594   2.198   6.637  0.4171 -0.0234  0.5751
 3121SOL     ow12481   0.569   6.235   5.389  0.0393 -0.1619  0.4984
 3121SOL     hw12482   0.475   6.246   5.396 -0.4242 -2.5802 -0.7787
 3121SOL     hw12483   0.606   6.309   5.438 -2.4226  2.8772 -1.8406
 3121SOL     vw12484   0.562   6.246   5.397 -0.3466 -0.0799  0.0212
 3122SOL     ow12485   1.372   0.094   5.835  0.2440 -0.2099 -0.0150
 3122SOL     hw12486   1.398   0.021   5.779  0.4238  0.2703 -0.5662
 3122SOL     hw12487   1.408   0.072   5.921  0.0991 -0.8781 -0.1211
 3122SOL     vw12488   1.380   0.081   5.839  0.2486 -0.2347 -0.1018
 3123SOL     ow12489   0.755   5.832   0.657  0.0728 -0.0883 -1.1498
 3123SOL     hw12490   0.806   5.857   0.579  0.1774 -0.3819 -1.1779
 3123SOL     hw12491   0.694   5.904   0.670  0.7520  0.4540 -0.8911
 3123SOL     vw12492   0.754   5.844   0.648  0.1762 -0.0556 -1.1194
 3124SOL     ow12493   6.260   6.276   2.377  0.2803  0.3597 -1.0785
 3124SOL     hw12494   6.238   6.187   2.404 -0.5326  0.4237 -1.5000
 3124SOL     hw12495   6.233   6.331   2.450  0.7663  0.2656 -0.8253
 3124SOL     vw12496   6.254   6.271   2.390  0.2370  0.3557 -1.1008
 3125SOL     ow12497   4.784   2.912   1.779 -0.3367  0.2812 -1.1145
 3125SOL     hw12498   4.749   2.986   1.829 -0.8084  1.3996 -3.0159
 3125SOL     hw12499   4.707   2.869   1.742  0.0384 -0.0827 -1.4832
 3125SOL     vw12500   4.770   2.917   1.781 -0.3498  0.3806 -1.4140
 3126SOL     ow12501   5.368   3.421   3.052  0.1924 -0.3985 -0.0162
 3126SOL     hw12502   5.299   3.470   3.096 -0.0595 -0.8950  0.1549
 3126SOL     hw12503   5.406   3.483   2.990 -0.9067 -0.3226 -0.6506
 3126SOL     vw12504   5.364   3.435   3.049  0.0141 -0.4541 -0.0774
 3127SOL     ow12505   0.861   7.265   3.139 -0.7892  0.2465 -0.7452
 3127SOL     hw12506   0.899   7.183   3.109 -0.2121  0.0638  0.4543
 3127SOL     hw12507   0.767   7.254   3.124 -0.7031 -0.5753 -0.7355
 3127SOL     vw12508   0.853   7.253   3.133 -0.7017  0.1140 -0.5856
 3128SOL     ow12509   0.538   5.151   6.017  0.7846  0.6955 -0.0917
 3128SOL     hw12510   0.538   5.149   6.112 -2.3288 -0.2118  0.0163
 3128SOL     hw12511   0.469   5.214   5.995 -1.3450 -1.9312 -1.5627
 3128SOL     vw12512   0.529   5.159   6.026  0.0929  0.2294 -0.2716
 3129SOL     ow12513   4.758   3.496   5.907  0.1289  0.2497 -0.3318
 3129SOL     hw12514   4.755   3.423   5.844  0.5241  1.1274 -1.3925
 3129SOL     hw12515   4.699   3.469   5.977  0.9998 -1.5242 -0.2263
 3129SOL     vw12516   4.749   3.483   5.908  0.2959  0.1314 -0.4578
 3130SOL     ow12517   5.183   2.141   1.149  0.2553  0.6906  0.0412
 3130SOL     hw12518   5.214   2.060   1.189 -2.8014 -1.0889 -0.9167
 3130SOL     hw12519   5.175   2.121   1.056 -1.9180  1.5651 -0.0201
 3130SOL     vw12520   5.186   2.128   1.142 -0.4349  0.5713 -0.0933
 3131SOL     ow12521   2.489   5.450   5.970  0.3933  0.3460  1.1299
 3131SOL     hw12522   2.507   5.357   5.983 -0.5454  0.0897  0.6859
 3131SOL     hw12523   2.559   5.480   5.911  0.4579 -0.1816  0.9306
 3131SOL     vw12524   2.500   5.442   5.964  0.2779  0.2427  1.0448
 3132SOL     ow12525   4.516   5.281   3.886  0.2732 -0.3432  0.0609
 3132SOL     hw12526   4.532   5.259   3.795  1.1052  1.5406 -0.2938
 3132SOL     hw12527   4.422   5.298   3.891  0.4558  1.0539 -0.8324
 3132SOL     vw12528   4.506   5.281   3.875  0.4070  0.0899 -0.1038
 3133SOL     ow12529   0.496   7.398   4.684 -0.3693  0.0106  0.5778
 3133SOL     hw12530   0.562   7.434   4.744 -0.4758 -0.4411  0.9778
 3133SOL     hw12531   0.453   7.475   4.647 -0.2570  0.3035  1.0391
 3133SOL     vw12532   0.499   7.413   4.687 -0.3685 -0.0103  0.6917
 3134SOL     ow12533   3.024   7.607   7.389  0.2008  0.6190  0.0785
 3134SOL     hw12534   3.104   7.573   7.348 -0.8551 -1.5217 -0.3340
 3134SOL     hw12535   3.043   7.604   7.483  0.4359 -0.3488  0.0085
 3134SOL     vw12536   3.037   7.602   7.396  0.0925  0.2088  0.0148
 3135SOL     ow12537   7.409   2.520   6.054  0.1108 -0.8356 -0.2491
 3135SOL     hw12538   7.394   2.477   6.139  0.2086 -1.5919 -0.6080
 3135SOL     hw12539   7.386   2.453   5.989  2.1584 -1.0397 -0.8308
 3135SOL     vw12540   7.404   2.505   6.057  0.3939 -0.9623 -0.3734
 3136SOL     ow12541   2.792   5.657   3.038  0.2004  0.2239  0.2802
 3136SOL     hw12542   2.738   5.693   2.967  0.7385 -1.3923 -1.0290
 3136SOL     hw12543   2.754   5.692   3.118 -2.7741 -0.7825 -0.5667
 3136SOL     vw12544   2.780   5.667   3.039 -0.1212 -0.1221 -0.0043
 3137SOL     ow12545   1.536   3.912   1.821  0.8525  0.1967  0.8567
 3137SOL     hw12546   1.602   3.959   1.871  1.3161 -1.5509  2.0168
 3137SOL     hw12547   1.576   3.826   1.803  0.4278  0.4969 -1.9827
 3137SOL     vw12548   1.550   3.907   1.825  0.8577  0.0057  0.6351
 3138SOL     ow12549   4.366   7.099   0.184  0.4830 -0.9958 -0.4895
 3138SOL     hw12550   4.304   7.170   0.199 -0.6134 -1.9440 -0.3779
 3138SOL     hw12551   4.434   7.137   0.129 -0.7850 -0.2131 -1.5551
 3138SOL     vw12552   4.366   7.113   0.179  0.1712 -1.0176 -0.6154
 3139SOL     ow12553   0.011   3.575   4.357 -0.5367  0.2613  0.2218
 3139SOL     hw12554  -0.074   3.618   4.364  0.7716  2.8130  2.4249
 3139SOL     hw12555   0.041   3.593   4.268 -0.5065  3.2275  0.7455
 3139SOL     vw12556   0.004   3.583   4.346 -0.3601  0.9893  0.5813
 3140SOL     ow12557   3.624   4.044   5.389 -0.2303  0.3879 -0.2912
 3140SOL     hw12558   3.677   3.972   5.355  1.2842  1.1535  0.3284
 3140SOL     hw12559   3.598   4.016   5.477  2.6665  1.5791  1.0911
 3140SOL     vw12560   3.628   4.031   5.396  0.3517  0.6461 -0.0272
 3141SOL     ow12561   4.453   0.478   2.261  0.0644  0.6478 -0.0350
 3141SOL     hw12562   4.457   0.388   2.230 -0.2447  1.4635 -2.7538
 3141SOL     hw12563   4.372   0.483   2.312 -0.6122 -0.3215 -0.9635
 3141SOL     vw12564   4.443   0.467   2.264 -0.0658  0.6275 -0.5162
 3142SOL     ow12565   2.198   4.299   0.829  0.1152  0.2568  0.4249
 3142SOL     hw12566   2.132   4.268   0.891 -0.2255 -1.2874 -0.6564
 3142SOL     hw12567   2.169   4.387   0.806 -0.0623  0.6509  1.9895
 3142SOL     vw12568   2.185   4.307   0.834  0.0468  0.1051  0.4886
 3143SOL     ow12569   2.267   0.797   2.658  0.1166 -0.3352  0.6746
 3143SOL     hw12570   2.175   0.818   2.642  0.0438 -1.4867 -0.5701
 3143SOL     hw12571   2.291   0.738   2.587  1.3697 -1.3260  1.8731
 3143SOL     vw12572   2.258   0.792   2.647  0.2723 -0.6179  0.6685
 3144SOL     ow12573   6.376   4.937   3.101 -0.1709  0.5130 -0.4323
 3144SOL     hw12574   6.421   5.020   3.084  1.2310  1.0379  4.2588
 3144SOL     hw12575   6.306   4.960   3.161 -1.1255 -1.4820 -0.7078
 3144SOL     vw12576   6.373   4.951   3.107 -0.1118  0.3192  0.1503
 3145SOL     ow12577   1.322   6.861   4.391 -0.0583  0.0492  0.5592
 3145SOL     hw12578   1.384   6.788   4.396  1.9227  1.5480 -0.9904
 3145SOL     hw12579   1.360   6.929   4.447 -0.4018  0.9313 -0.2641
 3145SOL     vw12580   1.335   6.860   4.399  0.1578  0.3631  0.2463
 3146SOL     ow12581   2.044   4.514   3.224  0.1693 -0.0182 -0.2082
 3146SOL     hw12582   2.135   4.537   3.242  0.9077 -2.8900  0.1244
 3146SOL     hw12583   2.047   4.466   3.142 -0.6612 -2.0895  0.9034
 3146SOL     vw12584   2.056   4.511   3.216  0.1571 -0.6702 -0.0178
 3147SOL     ow12585   2.265   0.689   2.905  0.8529 -0.3224  0.1359
 3147SOL     hw12586   2.173   0.680   2.929  1.1842 -0.7522  1.2777
 3147SOL     hw12587   2.263   0.711   2.812 -0.4058 -0.2101  0.1748
 3147SOL     vw12588   2.253   0.691   2.896  0.7305 -0.3643  0.2917
 3148SOL     ow12589   3.496   0.190   4.619  0.0096  0.3102 -0.3030
 3148SOL     hw12590   3.420   0.144   4.655 -0.3120 -0.8454 -2.3068
 3148SOL     hw12591   3.481   0.282   4.642 -1.4729 -0.0214  0.1980
 3148SOL     vw12592   3.484   0.196   4.627 -0.2284  0.1139 -0.5014
 3149SOL     ow12593   6.687   6.980   5.595 -0.2483 -0.0249 -0.7141
 3149SOL     hw12594   6.640   6.899   5.615 -0.5456 -0.2614 -2.2479
 3149SOL     hw12595   6.767   6.975   5.648 -0.7054 -0.8594 -0.0728
 3149SOL     vw12596   6.691   6.969   5.605 -0.3476 -0.1662 -0.8316
 3150SOL     ow12597   4.215   5.632   2.044  0.2481 -0.2434  0.6319
 3150SOL     hw12598   4.204   5.700   2.110 -2.1622  0.3305 -0.2729
 3150SOL     hw12599   4.163   5.662   1.969 -1.3844 -3.3106  0.3974
 3150SOL     vw12600   4.207   5.645   2.043 -0.2851 -0.5724  0.4815
 3151SOL     ow12601   2.822   7.064   5.423 -0.0637  0.3512 -0.6989
 3151SOL     hw12602   2.733   7.097   5.421  0.1538  0.9497 -0.6780
 3151SOL     hw12603   2.844   7.047   5.332  0.4998  2.1350 -0.9225
 3151SOL     vw12604   2.813   7.066   5.411  0.0392  0.6654 -0.7257
 3152SOL     ow12605   4.569   2.367   4.867  0.2835  0.1702 -0.0046
 3152SOL     hw12606   4.625   2.298   4.901 -2.3903  0.1738  5.4636
 3152SOL     hw12607   4.613   2.448   4.892 -0.3961  0.2218  1.0874
 3152SOL     vw12608   4.582   2.369   4.875 -0.1590  0.1775  0.8609
 3153SOL     ow12609   0.221   1.003   1.999  0.2554 -0.8145  0.4262
 3153SOL     hw12610   0.184   0.927   2.043  0.7941 -1.5294 -0.3240
 3153SOL     hw12611   0.246   0.971   1.912  2.3501 -0.3050  0.7899
 3153SOL     vw12612   0.220   0.989   1.993  0.6028 -0.8416  0.3753
 3154SOL     ow12613   7.176   0.209   1.216  0.6456 -0.1086 -0.0316
 3154SOL     hw12614   7.136   0.211   1.129  0.7880  0.2673 -0.0934
 3154SOL     hw12615   7.120   0.265   1.269  1.0754  0.4063 -0.1149
 3154SOL     vw12616   7.164   0.217   1.211  0.7212  0.0089 -0.0507
 3155SOL     ow12617   3.204   1.665   4.596  0.0313  0.3941  0.4066
 3155SOL     hw12618   3.156   1.743   4.568  1.5324  1.3181  0.3274
 3155SOL     hw12619   3.137   1.610   4.637 -1.3798  0.9488 -1.0364
 3155SOL     vw12620   3.189   1.668   4.598  0.0433  0.5892  0.2060
 3156SOL     ow12621   2.617   2.822   0.048  0.7317 -0.0135 -0.4467
 3156SOL     hw12622   2.606   2.917   0.042  0.3671 -0.1056 -1.5549
 3156SOL     hw12623   2.600   2.791  -0.041  0.5989 -1.1451 -0.0371
 3156SOL     vw12624   2.613   2.831   0.036  0.6660 -0.1749 -0.5389
 3157SOL     ow12625   7.187   7.375   6.928 -0.2309  0.0495 -0.8200
 3157SOL     hw12626   7.228   7.461   6.931  2.9102 -1.1849 -2.6538
 3157SOL     hw12627   7.211   7.334   7.011 -0.9964  0.6154 -0.3107
 3157SOL     vw12628   7.196   7.381   6.939  0.0825 -0.0386 -0.9947
 3158SOL     ow12629   4.585   6.831   6.509  0.0701  0.0376  0.4129
 3158SOL     hw12630   4.534   6.912   6.513  2.4720  1.5749  1.8195
 3158SOL     hw12631   4.660   6.852   6.453  0.1465 -1.6272 -0.1780
 3158SOL     vw12632   4.588   6.844   6.502  0.3972  0.0205  0.5205
 3159SOL     ow12633   1.717   6.507   0.387 -0.1471  0.0242 -0.4030
 3159SOL     hw12634   1.731   6.496   0.293  0.1514  0.4255 -0.4124
 3159SOL     hw12635   1.763   6.433   0.427 -0.5673 -0.3408 -0.5861
 3159SOL     vw12636   1.725   6.496   0.380 -0.1631  0.0291 -0.4284
 3160SOL     ow12637   4.065   3.888   5.324 -0.7673  0.3882  0.1400
 3160SOL     hw12638   4.054   3.870   5.418  0.6407  0.8409  0.4229
 3160SOL     hw12639   4.144   3.942   5.320  1.0001 -2.1090 -1.5410
 3160SOL     vw12640   4.074   3.893   5.336 -0.3481  0.1185 -0.0443
 3161SOL     ow12641   0.968   2.194   2.276 -0.6682  0.0266 -0.3283
 3161SOL     hw12642   0.906   2.190   2.204 -1.5896  0.5200  0.4195
 3161SOL     hw12643   1.052   2.214   2.234 -1.2864  0.8868 -1.2109
 3161SOL     vw12644   0.971   2.196   2.261 -0.8713  0.2052 -0.3462
 3162SOL     ow12645   6.002   3.767   6.349  0.0586  0.2935  0.0013
 3162SOL     hw12646   5.987   3.842   6.292  0.5216 -0.2858 -0.9001
 3162SOL     hw12647   5.933   3.705   6.326 -0.9017  0.7932  1.4022
 3162SOL     vw12648   5.991   3.769   6.339 -0.0069  0.2829  0.0675
 3163SOL     ow12649   1.027   3.474   1.727  0.2871  0.1352  0.2075
 3163SOL     hw12650   1.085   3.410   1.769  1.1745  0.8726  0.1308
 3163SOL     hw12651   1.076   3.556   1.729 -0.8691  0.8470  0.3920
 3163SOL     vw12652   1.041   3.477   1.733  0.2517  0.3264  0.2217
 3164SOL     ow12653   2.695   4.008   5.378  0.2848 -0.1386 -0.2340
 3164SOL     hw12654   2.722   4.041   5.293  1.0994 -1.9722 -0.7198
 3164SOL     hw12655   2.726   3.918   5.381 -1.2870 -0.6916  1.2967
 3164SOL     vw12656   2.703   4.001   5.367  0.1849 -0.4535 -0.0963
 3165SOL     ow12657   1.909   2.710   5.273 -0.0583  0.3897 -1.0491
 3165SOL     hw12658   1.923   2.647   5.203 -1.0684  0.7506 -1.5985
 3165SOL     hw12659   1.874   2.787   5.229 -1.4634  0.3432 -0.0855
 3165SOL     vw12660   1.906   2.711   5.258 -0.3769  0.4313 -0.9944
 3166SOL     ow12661   1.445   5.289   4.367  0.1819 -0.8767  0.3858
 3166SOL     hw12662   1.538   5.304   4.351 -0.2630 -0.5672 -2.4009
 3166SOL     hw12663   1.425   5.209   4.319 -1.0445 -0.7964  0.7435
 3166SOL     vw12664   1.455   5.281   4.359 -0.0386 -0.8254  0.0653
 3167SOL     ow12665   2.743   0.573   4.605  0.8184  0.5355 -0.3986
 3167SOL     hw12666   2.662   0.624   4.613  0.2431 -0.4731  0.5040
 3167SOL     hw12667   2.736   0.531   4.519 -0.1298 -0.3515  0.0866
 3167SOL     vw12668   2.731   0.574   4.595  0.6174  0.2854 -0.2158
 3168SOL     ow12669   2.682   7.448   6.062  0.4273  0.8013  0.1701
 3168SOL     hw12670   2.607   7.394   6.035  0.6151 -0.1671  1.5127
 3168SOL     hw12671   2.758   7.398   6.033  0.5834  1.0676  0.1191
 3168SOL     vw12672   2.682   7.434   6.054  0.4727  0.7083  0.3407
 3169SOL     ow12673   5.601   6.340   1.155 -0.4890  0.3394 -0.1137
 3169SOL     hw12674   5.686   6.342   1.199 -0.4041 -1.1842 -0.1478
 3169SOL     hw12675   5.566   6.253   1.175 -2.5168  1.2953  0.7677
 3169SOL     vw12676   5.608   6.329   1.164 -0.7458  0.2644 -0.0019
 3170SOL     ow12677   2.357   1.635   0.815  0.8058 -0.2323 -0.2091
 3170SOL     hw12678   2.378   1.550   0.855 -0.1305  0.9584  3.1985
 3170SOL     hw12679   2.267   1.626   0.784  1.0582 -0.7856 -0.7794
 3170SOL     vw12680   2.348   1.623   0.816  0.7156 -0.1482  0.1652
 3171SOL     ow12681   6.699   2.395   6.451  0.1461 -0.4700 -0.0720
 3171SOL     hw12682   6.718   2.308   6.418 -2.2954 -1.0491 -0.1336
 3171SOL     hw12683   6.770   2.413   6.513  2.4034 -1.1589 -2.2818
 3171SOL     vw12684   6.711   2.386   6.455  0.1218 -0.6373 -0.3715
 3172SOL     ow12685   3.717   6.576   0.136 -0.5133  0.6334  0.1923
 3172SOL     hw12686   3.742   6.485   0.153  3.3905  1.7541  1.2679
 3172SOL     hw12687   3.749   6.593   0.047  1.5603  1.7096  1.0796
 3172SOL     vw12688   3.724   6.566   0.126  0.2753  0.9232  0.4513
 3173SOL     ow12689   0.408   5.520   7.572 -0.0625 -0.3574  0.2883
 3173SOL     hw12690   0.443   5.437   7.605  0.3614  0.0788  0.9615
 3173SOL     hw12691   0.462   5.541   7.496  0.2169 -0.3908  0.4801
 3173SOL     vw12692   0.420   5.512   7.566  0.0303 -0.3045  0.4025
 3174SOL     ow12693   5.031   7.396   0.241 -0.5880 -0.1745  1.1724
 3174SOL     hw12694   5.051   7.318   0.293  2.2551 -0.4620 -0.1878
 3174SOL     hw12695   4.943   7.380   0.207 -0.5368 -2.2250  1.8746
 3174SOL     vw12696   5.022   7.384   0.244 -0.2062 -0.4830  1.0856
 3175SOL     ow12697   0.456   0.368   7.110  0.0867 -0.2801  0.4454
 3175SOL     hw12698   0.473   0.324   7.193 -0.4272 -0.5136  0.4336
 3175SOL     hw12699   0.445   0.460   7.133 -1.9743 -0.5910  0.9380
 3175SOL     vw12700   0.457   0.375   7.124 -0.2530 -0.3519  0.5090
 3176SOL     ow12701   5.401   6.033   7.489 -0.4144 -0.7267 -0.3012
 3176SOL     hw12702   5.462   6.106   7.503 -0.7867 -0.2342 -1.1188
 3176SOL     hw12703   5.456   5.955   7.490  0.0737 -0.3875  0.0297
 3176SOL     vw12704   5.416   6.033   7.491 -0.3991 -0.6170 -0.3655
 3177SOL     ow12705   0.665   6.822   4.448  0.2140 -0.0352  0.0597
 3177SOL     hw12706   0.665   6.917   4.454  0.9932 -0.0319  0.1782
 3177SOL     hw12707   0.606   6.801   4.376 -0.4039  0.5115  0.4069
 3177SOL     vw12708   0.657   6.832   4.440  0.2353  0.0372  0.1211
 3178SOL     ow12709   3.017   5.181   4.191  0.1674  0.3898 -0.0933
 3178SOL     hw12710   3.094   5.172   4.247  0.2750 -0.6602 -0.3749
 3178SOL     hw12711   3.046   5.151   4.105 -0.6158 -0.3231 -0.1307
 3178SOL     vw12712   3.031   5.176   4.187  0.0784  0.1571 -0.1349
 3179SOL     ow12713   0.708   0.404   7.379 -0.4769  0.1503 -0.5096
 3179SOL     hw12714   0.714   0.312   7.354  1.3974 -0.1591  0.8773
 3179SOL     hw12715   0.769   0.449   7.320  1.3993 -0.0859  1.1741
 3179SOL     vw12716   0.717   0.398   7.368  0.0179  0.0783 -0.1049
 3180SOL     ow12717   1.623   1.794   0.121  0.3013 -0.4313  0.0682
 3180SOL     hw12718   1.560   1.849   0.074 -1.1661 -1.6543  0.5028
 3180SOL     hw12719   1.638   1.720   0.063  0.5289 -0.6647  0.4235
 3180SOL     vw12720   1.617   1.792   0.107  0.1377 -0.6234  0.1724
 3181SOL     ow12721   1.372   6.090   3.425  0.7211  0.0885 -0.9968
 3181SOL     hw12722   1.458   6.120   3.456  1.4998 -0.8113 -2.1692
 3181SOL     hw12723   1.341   6.159   3.368 -0.4351  1.4722  1.1834
 3181SOL     vw12724   1.379   6.103   3.421  0.6713  0.1523 -0.8638
 3182SOL     ow12725   1.361   5.208   7.586  0.4071 -0.5433 -0.2160
 3182SOL     hw12726   1.286   5.250   7.543  1.7491  2.6589  0.3268
 3182SOL     hw12727   1.365   5.250   7.672  2.4601 -1.0924 -0.0031
 3182SOL     vw12728   1.351   5.219   7.592  0.8550 -0.1934 -0.1163
 3183SOL     ow12729   7.061   5.019   4.906 -0.1193 -0.0877  0.1735
 3183SOL     hw12730   7.077   4.936   4.951 -0.2620 -1.7846 -2.6512
 3183SOL     hw12731   7.145   5.064   4.906  0.0482 -0.3790  1.4329
 3183SOL     vw12732   7.074   5.014   4.912 -0.1161 -0.3502 -0.0331
 3184SOL     ow12733   3.207   1.181   3.380  0.8050 -0.2092  0.3588
 3184SOL     hw12734   3.153   1.222   3.313  0.7451 -1.3279 -0.3034
 3184SOL     hw12735   3.180   1.089   3.380  0.7952 -0.2367  1.9324
 3184SOL     vw12736   3.196   1.175   3.371  0.7958 -0.3605  0.4791
 3185SOL     ow12737   3.974   3.602   4.676 -0.2226 -0.1952  0.3816
 3185SOL     hw12738   3.931   3.570   4.597  1.9631  0.2194 -1.0666
 3185SOL     hw12739   4.004   3.523   4.721 -2.2668 -0.4842  1.3642
 3185SOL     vw12740   3.972   3.588   4.672 -0.2040 -0.1787  0.3200
 3186SOL     ow12741   0.564   4.744   4.518 -0.1821  0.1876 -0.1933
 3186SOL     hw12742   0.500   4.673   4.515  2.7557 -2.7136  0.5428
 3186SOL     hw12743   0.587   4.760   4.426  0.2165 -0.9278 -0.2972
 3186SOL     vw12744   0.559   4.737   4.506  0.2581 -0.3421 -0.1099
 3187SOL     ow12745   6.249   3.798   6.771 -0.2235  0.0426 -0.5529
 3187SOL     hw12746   6.192   3.776   6.845  1.1082 -1.0736  0.1792
 3187SOL     hw12747   6.257   3.716   6.722 -1.4838  0.8741 -2.2722
 3187SOL     vw12748   6.242   3.784   6.774 -0.2143  0.0050 -0.6833
 3188SOL     ow12749   3.317   5.192   6.728  0.1230  0.1850  0.0569
 3188SOL     hw12750   3.267   5.111   6.736 -0.9326  0.7686 -0.5039
 3188SOL     hw12751   3.333   5.218   6.819 -1.0882  0.2740  0.2656
 3188SOL     vw12752   3.313   5.184   6.741 -0.1762  0.2742  0.0105
 3189SOL     ow12753   2.256   5.107   2.788  0.4072 -0.3692  0.6158
 3189SOL     hw12754   2.342   5.069   2.768  1.3351  0.5234  2.5724
 3189SOL     hw12755   2.256   5.191   2.742  0.0019 -0.9511 -0.4742
 3189SOL     vw12756   2.267   5.113   2.780  0.4762 -0.3281  0.7302
 3190SOL     ow12757   5.934   1.750   6.052 -1.0353 -0.0650  0.2489
 3190SOL     hw12758   5.895   1.666   6.025  0.3667 -1.0759  1.2471
 3190SOL     hw12759   5.897   1.766   6.139  0.1604 -0.6415  0.8755
 3190SOL     vw12760   5.924   1.741   6.060 -0.6924 -0.2744  0.4635
 3191SOL     ow12761   4.205   7.087   1.891  0.4831  0.2901  0.5611
 3191SOL     hw12762   4.247   7.060   1.809  0.2875 -2.7107  1.3538
 3191SOL     hw12763   4.277   7.114   1.947  0.7701  0.7498 -0.0112
 3191SOL     vw12764   4.220   7.087   1.888  0.4954 -0.0453  0.5901
 3192SOL     ow12765   5.137   7.116   1.525 -0.0364 -0.7100  0.6607
 3192SOL     hw12766   5.079   7.127   1.450 -0.1048 -0.2233  0.7819
 3192SOL     hw12767   5.092   7.159   1.598  0.0322 -1.1702  0.9819
 3192SOL     vw12768   5.123   7.123   1.525 -0.0362 -0.7067  0.7190
 3193SOL     ow12769   0.524   5.612   5.232 -0.2618 -0.4351 -0.0899
 3193SOL     hw12770   0.561   5.559   5.162 -0.3167  0.3757 -0.7415
 3193SOL     hw12771   0.534   5.558   5.311  1.5244 -0.5755 -0.3808
 3193SOL     vw12772   0.530   5.598   5.233 -0.0334 -0.3467 -0.2141
 3194SOL     ow12773   2.406   1.155   5.789  0.1079  0.1308 -0.3492
 3194SOL     hw12774   2.446   1.196   5.712  4.4033 -0.0965  1.4822
 3194SOL     hw12775   2.337   1.215   5.816  1.4516  2.4842 -1.8534
 3194SOL     vw12776   2.402   1.168   5.782  0.8520  0.4113 -0.3061
 3195SOL     ow12777   5.621   3.603   4.400  0.0024 -0.2774  0.3546
 3195SOL     hw12778   5.577   3.650   4.471 -1.6812 -1.9974  0.5085
 3195SOL     hw12779   5.588   3.514   4.405 -0.6045 -0.3625 -2.9520
 3195SOL     vw12780   5.611   3.598   4.410 -0.2997 -0.5156 -0.0613
 3196SOL     ow12781   3.577   3.343   6.271  0.0285  0.3680 -0.3194
 3196SOL     hw12782   3.495   3.310   6.235  1.1726 -1.9503 -0.9827
 3196SOL     hw12783   3.550   3.390   6.350 -2.0252  0.6972 -1.1486
 3196SOL     vw12784   3.562   3.345   6.277 -0.0914  0.1055 -0.5164
 3197SOL     ow12785   2.775   2.767   0.771 -0.8150  0.0284 -0.4748
 3197SOL     hw12786   2.687   2.795   0.749 -0.4162  1.1170 -0.7294
 3197SOL     hw12787   2.818   2.753   0.686 -0.7220 -0.4639 -0.3535
 3197SOL     vw12788   2.769   2.769   0.757 -0.7501  0.1070 -0.4924
 3198SOL     ow12789   3.714   3.498   1.405 -0.7669 -0.4341 -0.0474
 3198SOL     hw12790   3.636   3.495   1.350  0.2490  0.9201 -1.6924
 3198SOL     hw12791   3.787   3.508   1.343  0.4756  0.9404  1.5096
 3198SOL     vw12792   3.714   3.499   1.390 -0.4689 -0.0740 -0.0590
 3199SOL     ow12793   1.697   2.192   5.949 -0.4406  0.9512  0.4278
 3199SOL     hw12794   1.606   2.162   5.945 -0.4027  0.7248  1.1489
 3199SOL     hw12795   1.711   2.213   6.041  0.0407  1.6264  0.2124
 3199SOL     vw12796   1.687   2.191   5.960 -0.3721  1.0103  0.4945
 3200SOL     ow12797   5.842   7.282   4.365 -0.5605 -0.5133 -0.2612
 3200SOL     hw12798   5.842   7.201   4.315 -0.2050  0.9192 -2.7912
 3200SOL     hw12799   5.915   7.333   4.328 -0.4603  0.7808  1.5677
 3200SOL     vw12800   5.852   7.278   4.353 -0.5004 -0.1535 -0.3536
 3201SOL     ow12801   2.704   4.530   4.868 -0.4359 -0.2658  0.5520
 3201SOL     hw12802   2.777   4.583   4.834 -0.7069  0.2384  0.7467
 3201SOL     hw12803   2.746   4.451   4.902 -0.1267 -0.7192 -0.7888
 3201SOL     vw12804   2.719   4.527   4.868 -0.4307 -0.2592  0.4008
 3202SOL     ow12805   0.011   7.108   7.475  0.2700  0.2880  0.6302
 3202SOL     hw12806   0.067   7.064   7.539  0.2689 -2.3284 -1.0209
 3202SOL     hw12807   0.072   7.143   7.411  0.1707 -1.2160 -0.3474
 3202SOL     vw12808   0.026   7.107   7.475  0.2567 -0.2556  0.2832
 3203SOL     ow12809   1.805   7.535   7.570 -0.4534 -0.1870  0.4592
 3203SOL     hw12810   1.769   7.468   7.627 -1.0144 -1.1563 -0.9772
 3203SOL     hw12811   1.883   7.494   7.531 -0.1219  0.4241  0.4697
 3203SOL     vw12812   1.811   7.521   7.572 -0.4838 -0.2344  0.2711
 3204SOL     ow12813   2.909   5.892   6.628  0.6092  0.9895 -0.1289
 3204SOL     hw12814   2.876   5.959   6.688 -0.6317  1.8538 -1.6860
 3204SOL     hw12815   2.979   5.935   6.579  1.1964  0.4855  0.2534
 3204SOL     vw12816   2.914   5.907   6.629  0.5230  1.0371 -0.2840
 3205SOL     ow12817   4.199   4.261   1.175  0.1412  0.5836 -0.2397
 3205SOL     hw12818   4.165   4.215   1.097 -1.8653 -0.2079  1.0264
 3205SOL     hw12819   4.126   4.314   1.205  0.6904  0.4494  1.4125
 3205SOL     vw12820   4.185   4.262   1.168 -0.0510  0.4613  0.1454
 3206SOL     ow12821   2.779   3.506   4.689 -0.7899 -0.1963 -0.3324
 3206SOL     hw12822   2.796   3.501   4.595 -0.5352  1.8316 -0.4382
 3206SOL     hw12823   2.716   3.577   4.697 -1.2166 -0.7083  1.0017
 3206SOL     vw12824   2.773   3.514   4.677 -0.8125  0.0037 -0.1705
 3207SOL     ow12825   3.534   2.016   4.214  0.5986 -0.4392  0.0354
 3207SOL     hw12826   3.514   1.971   4.296 -0.5615 -0.8647 -0.4519
 3207SOL     hw12827   3.464   1.989   4.154 -0.1468  1.9678 -0.3001
 3207SOL     vw12828   3.522   2.006   4.217  0.3473 -0.1777 -0.0730
 3208SOL     ow12829   7.183   1.222   3.846  0.0350 -0.1412  0.1347
 3208SOL     hw12830   7.143   1.211   3.760 -0.2829 -1.9078  0.4659
 3208SOL     hw12831   7.267   1.264   3.828  0.7871 -2.0994 -1.2728
 3208SOL     vw12832   7.189   1.226   3.832  0.0925 -0.6326 -0.0073
 3209SOL     ow12833   7.122   6.560   1.863 -0.5709 -0.5032 -0.1492
 3209SOL     hw12834   7.174   6.577   1.941 -0.3571 -0.9282 -0.1983
 3209SOL     hw12835   7.179   6.508   1.806 -0.2694  0.8315 -1.1292
 3209SOL     vw12836   7.136   6.555   1.865 -0.5028 -0.3834 -0.2850
 3210SOL     ow12837   7.592   0.422   0.327 -1.0028 -0.1646 -0.4868
 3210SOL     hw12838   7.497   0.413   0.334 -0.9176 -0.5422  0.1886
 3210SOL     hw12839   7.620   0.455   0.412 -0.2754 -2.2569  0.1411
 3210SOL     vw12840   7.583   0.425   0.339 -0.8955 -0.4904 -0.3148
 3211SOL     ow12841   6.486   6.777   1.750  0.5604 -0.3427 -0.1799
 3211SOL     hw12842   6.495   6.756   1.657 -0.9712 -0.4755 -0.3213
 3211SOL     hw12843   6.515   6.868   1.758 -1.3742  0.4199 -1.2136
 3211SOL     vw12844   6.491   6.786   1.739  0.1032 -0.2599 -0.3350
 3212SOL     ow12845   1.548   6.115   5.104  0.5429 -0.0894  0.6999
 3212SOL     hw12846   1.593   6.197   5.082  0.7372 -0.0043  1.3760
 3212SOL     hw12847   1.476   6.142   5.161  0.4624 -0.3672  0.7306
 3212SOL     vw12848   1.545   6.129   5.109  0.5579 -0.1152  0.7930
 3213SOL     ow12849   5.790   1.452   3.072  0.3135 -0.1168  0.0349
 3213SOL     hw12850   5.798   1.356   3.075  1.2229 -0.0265  1.1552
 3213SOL     hw12851   5.740   1.469   2.992 -0.1413 -1.5420 -0.0220
 3213SOL     vw12852   5.784   1.441   3.062  0.3734 -0.2929  0.1752
 3214SOL     ow12853   5.483   2.414   4.373  0.8261  0.0312  0.1021
 3214SOL     hw12854   5.516   2.338   4.326  0.4338 -0.3138  0.3819
 3214SOL     hw12855   5.534   2.488   4.338  0.1079 -0.1189 -1.3240
 3214SOL     vw12856   5.494   2.414   4.362  0.6795 -0.0341 -0.0491
 3215SOL     ow12857   1.935   2.020   2.667 -0.4729 -0.4001 -0.1097
 3215SOL     hw12858   1.961   2.084   2.601  2.1211  0.5452  1.6741
 3215SOL     hw12859   1.960   1.935   2.630 -0.6794 -0.0548 -1.0573
 3215SOL     vw12860   1.942   2.017   2.653 -0.1579 -0.2298  0.0006
 3216SOL     ow12861   5.732   7.584   4.802  0.4942 -0.2081  0.3531
 3216SOL     hw12862   5.726   7.678   4.820 -4.8079 -0.3234  0.5483
 3216SOL     hw12863   5.733   7.543   4.889  3.0464 -0.5106  0.2764
 3216SOL     vw12864   5.731   7.591   4.816  0.1314 -0.2632  0.3686
 3217SOL     ow12865   1.875   3.748   4.592  0.1089 -0.2433  0.0388
 3217SOL     hw12866   1.912   3.710   4.512  0.2158  1.0149 -0.5458
 3217SOL     hw12867   1.951   3.779   4.641 -0.0226  0.3509 -0.1140
 3217SOL     vw12868   1.890   3.747   4.588  0.1057  0.0011 -0.0584
 3218SOL     ow12869   0.183   7.052   5.960  0.8338 -0.1114 -0.2173
 3218SOL     hw12870   0.205   7.008   6.042 -2.7362 -3.3267 -0.7176
 3218SOL     hw12871   0.141   7.133   5.986 -0.0444 -0.9857  1.1601
 3218SOL     vw12872   0.180   7.057   5.974  0.2469 -0.6509 -0.1016
 3219SOL     ow12873   2.410   5.689   2.172 -0.0824 -0.4047 -0.1370
 3219SOL     hw12874   2.494   5.712   2.134 -0.8502 -0.6575 -2.0828
 3219SOL     hw12875   2.368   5.773   2.191  0.3065 -0.2772  0.1780
 3219SOL     vw12876   2.415   5.703   2.170 -0.1324 -0.4215 -0.3521
 3220SOL     ow12877   3.945   5.720   3.057  0.2080  0.0687  0.5025
 3220SOL     hw12878   3.941   5.655   3.127  1.8560 -2.3255 -1.4510
 3220SOL     hw12879   3.854   5.731   3.030 -0.0914 -2.0869  0.4182
 3220SOL     vw12880   3.932   5.713   3.063  0.3860 -0.5317  0.2337
 3221SOL     ow12881   6.444   0.903   1.457 -0.5719  0.1035 -0.6303
 3221SOL     hw12882   6.358   0.893   1.415 -0.4330 -1.3091 -0.6354
 3221SOL     hw12883   6.501   0.845   1.406 -0.1950 -0.9508  0.9333
 3221SOL     vw12884   6.440   0.894   1.444 -0.5038 -0.2220 -0.4247
 3222SOL     ow12885   5.751   7.217   4.637  0.0286 -0.4692  0.0471
 3222SOL     hw12886   5.681   7.164   4.675 -1.3209 -0.2669 -1.9655
 3222SOL     hw12887   5.806   7.153   4.591  1.4116 -0.6649  1.8740
 3222SOL     vw12888   5.749   7.201   4.636  0.0331 -0.4683  0.0224
 3223SOL     ow12889   5.505   1.042   4.713  0.2009  0.6133  0.3369
 3223SOL     hw12890   5.549   1.075   4.792  0.1653  1.5326 -0.0117
 3223SOL     hw12891   5.569   1.055   4.643  0.0538  0.2486  0.1354
 3223SOL     vw12892   5.519   1.048   4.714  0.1769  0.6865  0.2644
 3224SOL     ow12893   1.206   4.649   4.253  0.2575 -0.5726 -0.3503
 3224SOL     hw12894   1.205   4.566   4.300 -0.9417 -0.2622  0.2085
 3224SOL     hw12895   1.166   4.631   4.169 -2.2892 -0.1014  0.6724
 3224SOL     vw12896   1.201   4.636   4.248 -0.2367 -0.4694 -0.1419
 3225SOL     ow12897   4.985   4.682   3.484  0.4810 -0.4120 -0.2117
 3225SOL     hw12898   5.016   4.626   3.555  0.0623 -2.5271 -1.6099
 3225SOL     hw12899   5.035   4.653   3.407 -0.1443  0.7783 -1.0984
 3225SOL     vw12900   4.996   4.671   3.483  0.3431 -0.5338 -0.5133
 3226SOL     ow12901   0.069   4.944   0.745 -0.3985  0.0226  0.4709
 3226SOL     hw12902   0.132   4.883   0.707  1.5728  2.4556 -0.5118
 3226SOL     hw12903   0.054   4.911   0.834  1.5419 -1.2001  0.4009
 3226SOL     vw12904   0.076   4.932   0.752  0.1176  0.1822  0.3320
 3227SOL     ow12905   6.906   1.367   0.827  0.2581  0.3710 -0.1834
 3227SOL     hw12906   6.995   1.367   0.863 -0.5864 -1.3197  2.1793
 3227SOL     hw12907   6.878   1.459   0.835  1.1501  0.5908  0.8467
 3227SOL     vw12908   6.914   1.379   0.833  0.2644  0.1770  0.2643
 3228SOL     ow12909   6.941   2.478   4.111 -0.0722  0.4463  0.6780
 3228SOL     hw12910   6.986   2.550   4.156  3.2701 -1.3118  0.4784
 3228SOL     hw12911   6.903   2.518   4.033 -0.3254  2.3726  1.7267
 3228SOL     vw12912   6.942   2.493   4.107  0.3350  0.4685  0.7901
 3229SOL     ow12913   2.629   3.511   2.168 -0.2275 -0.7091  0.5209
 3229SOL     hw12914   2.597   3.426   2.140 -2.7784 -0.0035  1.0511
 3229SOL     hw12915   2.640   3.503   2.263  1.4614 -0.9801  0.3394
 3229SOL     vw12916   2.626   3.499   2.177 -0.3413 -0.6517  0.5668
 3230SOL     ow12917   1.203   0.918   4.954 -0.2532 -0.8089  0.2245
 3230SOL     hw12918   1.184   0.883   4.867  0.0596  0.5393 -0.4179
 3230SOL     hw12919   1.297   0.934   4.954 -0.1944 -1.1272  0.9448
 3230SOL     vw12920   1.213   0.916   4.943 -0.2041 -0.6730  0.2346
 3231SOL     ow12921   6.768   3.761   6.907 -0.4253  0.0070 -0.4960
 3231SOL     hw12922   6.693   3.781   6.851 -2.4672  1.0530  2.3728
 3231SOL     hw12923   6.764   3.667   6.920 -2.0624  0.1814  0.5733
 3231SOL     vw12924   6.758   3.751   6.901 -0.9105  0.1681  0.0234
 3232SOL     ow12925   5.327   6.961   1.688 -0.1663  0.7859 -0.0040
 3232SOL     hw12926   5.288   6.893   1.633 -1.6734  1.2166  0.4862
 3232SOL     hw12927   5.298   7.043   1.647  2.0597  1.1783 -0.8982
 3232SOL     vw12928   5.318   6.963   1.675 -0.0715  0.8943 -0.0572
 3233SOL     ow12929   0.850   0.665   1.125 -0.3591 -0.2151  0.4302
 3233SOL     hw12930   0.879   0.643   1.037  0.2850 -0.4813  0.7071
 3233SOL     hw12931   0.904   0.740   1.150 -0.4680 -0.2049  0.6371
 3233SOL     vw12932   0.861   0.672   1.117 -0.2885 -0.2488  0.4941
 3234SOL     ow12933   0.558   2.494   6.491  0.4196  0.1021 -0.1201
 3234SOL     hw12934   0.575   2.413   6.539 -0.4282  1.0184  1.8141
 3234SOL     hw12935   0.462   2.501   6.490  0.4950  1.7635  0.9747
 3234SOL     vw12936   0.547   2.484   6.497  0.3177  0.4421  0.2797
 3235SOL     ow12937   7.362   7.463   2.585 -0.7486  0.6234  0.2246
 3235SOL     hw12938   7.359   7.507   2.500 -0.2119 -0.6057 -0.4475
 3235SOL     hw12939   7.346   7.371   2.565 -1.2310  0.4085  1.5339
 3235SOL     vw12940   7.360   7.457   2.571 -0.7412  0.4330  0.3086
 3236SOL     ow12941   4.627   0.593   6.499  0.2789  0.6810 -0.7655
 3236SOL     hw12942   4.612   0.533   6.572  2.6260  0.6171 -0.2491
 3236SOL     hw12943   4.624   0.680   6.538  0.2989  0.7083 -0.8241
 3236SOL     vw12944   4.625   0.596   6.513  0.5910  0.6762 -0.7052
 3237SOL     ow12945   1.126   5.325   0.448 -0.9855 -0.3072 -0.2357
 3237SOL     hw12946   1.100   5.274   0.372  1.8696 -1.7991 -0.3615
 3237SOL     hw12947   1.046   5.334   0.500 -2.0070 -3.6882 -0.9558
 3237SOL     vw12948   1.112   5.319   0.445 -0.7436 -0.9501 -0.3473
 3238SOL     ow12949   1.633   6.147   3.493  0.3480 -0.4979  0.0046
 3238SOL     hw12950   1.715   6.098   3.493  0.9934  0.5163  1.4445
 3238SOL     hw12951   1.643   6.211   3.563 -0.4445  1.7767 -1.8502
 3238SOL     vw12952   1.645   6.149   3.502  0.3285 -0.0641 -0.0501
 3239SOL     ow12953   5.774   1.524   2.216  0.2384 -0.2495  0.2877
 3239SOL     hw12954   5.752   1.511   2.124  2.3432  0.6550 -0.4024
 3239SOL     hw12955   5.748   1.443   2.259  0.3320 -1.1664 -1.3176
 3239SOL     vw12956   5.768   1.512   2.209  0.5286 -0.2511 -0.0153
 3240SOL     ow12957   2.818   4.801   2.332 -0.6904  0.3607 -0.2055
 3240SOL     hw12958   2.887   4.826   2.271 -1.2402  0.1280 -0.9474
 3240SOL     hw12959   2.862   4.746   2.397 -0.4440 -1.2098 -1.6137
 3240SOL     vw12960   2.833   4.797   2.332 -0.7306  0.1228 -0.4891
 3241SOL     ow12961   4.982   2.792   7.223  1.0364  0.8377  0.1568
 3241SOL     hw12962   5.036   2.713   7.232 -0.9052 -0.9307 -2.3047
 3241SOL     hw12963   5.045   2.863   7.212  2.8404 -0.6705  0.3080
 3241SOL     vw12964   4.998   2.791   7.223  1.0183  0.4053 -0.1481
 3242SOL     ow12965   4.448   3.406   0.471  0.4031 -0.2376 -0.2506
 3242SOL     hw12966   4.536   3.428   0.440  0.8043  0.1830  1.1043
 3242SOL     hw12967   4.415   3.488   0.509  1.0038 -1.3058  2.8113
 3242SOL     vw12968   4.455   3.420   0.472  0.5352 -0.3228  0.3321
 3243SOL     ow12969   3.327   4.802   0.083 -0.0651 -0.6820  0.7155
 3243SOL     hw12970   3.405   4.748   0.068  1.1191  0.7327  1.4949
 3243SOL     hw12971   3.359   4.876   0.133 -1.7512  0.4598  0.1846
 3243SOL     vw12972   3.342   4.804   0.088 -0.1314 -0.3448  0.7483
 3244SOL     ow12973   7.520   7.455   1.570  0.0357 -0.1125 -0.2648
 3244SOL     hw12974   7.608   7.491   1.561  0.0561  0.1436  0.8269
 3244SOL     hw12975   7.507   7.445   1.665 -0.4660 -1.7623 -0.4674
 3244SOL     vw12976   7.530   7.458   1.581 -0.0279 -0.2964 -0.1475
 3245SOL     ow12977   0.011   5.611   7.331 -0.1583 -0.1285  0.2896
 3245SOL     hw12978   0.099   5.625   7.295 -0.0771 -1.3396 -0.0139
 3245SOL     hw12979   0.025   5.593   7.424 -0.1774  0.6959  0.4574
 3245SOL     vw12980   0.024   5.610   7.338 -0.1501 -0.1798  0.2718
 3246SOL     ow12981   1.916   2.482   2.780  0.2246 -0.2116 -0.5965
 3246SOL     hw12982   1.943   2.493   2.688  1.8201 -0.5668 -0.1926
 3246SOL     hw12983   1.956   2.556   2.826 -0.9971  0.2542 -0.2512
 3246SOL     vw12984   1.925   2.493   2.774  0.2739 -0.1971 -0.4976
 3247SOL     ow12985   5.609   5.618   1.825  0.1398 -0.1915 -0.5154
 3247SOL     hw12986   5.518   5.599   1.804 -0.2268  1.9807 -1.1085
 3247SOL     hw12987   5.658   5.584   1.750 -0.1930 -0.9558 -0.4041
 3247SOL     vw12988   5.604   5.611   1.812  0.0477 -0.0060 -0.5789
 3248SOL     ow12989   2.212   4.891   2.516  0.7180 -0.3526 -0.1741
 3248SOL     hw12990   2.184   4.914   2.604 -2.1139 -2.4764 -0.3649
 3248SOL     hw12991   2.197   4.970   2.464 -1.8796 -0.2945  0.4904
 3248SOL     vw12992   2.206   4.904   2.520  0.0018 -0.6256 -0.1116
 3249SOL     ow12993   0.454   4.274   1.371  0.1303 -0.0648 -0.2332
 3249SOL     hw12994   0.527   4.313   1.419  0.8957 -1.1432 -0.4940
 3249SOL     hw12995   0.495   4.219   1.305 -0.9055 -1.7473  0.4670
 3249SOL     vw12996   0.469   4.272   1.368  0.0946 -0.4294 -0.1752
 3250SOL     ow12997   4.849   3.286   4.207  0.9703  0.3378 -0.1420
 3250SOL     hw12998   4.791   3.354   4.173  4.6203  3.4625 -0.7460
 3250SOL     hw12999   4.851   3.301   4.301  0.4472 -0.0966 -0.0590
 3250SOL     vw13000   4.842   3.297   4.215  1.3831  0.6927 -0.2108
 3251SOL     ow13001   5.870   0.157   1.569  0.0960 -0.1624 -0.4030
 3251SOL     hw13002   5.956   0.160   1.611  0.9439  1.3442 -2.1173
 3251SOL     hw13003   5.884   0.197   1.483 -1.7483 -2.2711 -1.7915
 3251SOL     vw13004   5.883   0.163   1.563 -0.0355 -0.2418 -0.8124
 3252SOL     ow13005   7.158   1.931   4.529 -0.2544  0.2822 -0.1456
 3252SOL     hw13006   7.140   2.020   4.499 -0.8871  0.3240  0.3309
 3252SOL     hw13007   7.236   1.940   4.583 -1.1761  0.8407  1.1663
 3252SOL     vw13008   7.166   1.944   4.532 -0.4597  0.3614  0.0904
 3253SOL     ow13009   6.027   1.323   2.500  1.0916 -0.2650 -0.1580
 3253SOL     hw13010   6.070   1.247   2.462  1.0334  0.0897 -0.9394
 3253SOL     hw13011   5.946   1.289   2.538  0.5607 -0.4284 -1.4147
 3253SOL     vw13012   6.022   1.309   2.500  1.0138 -0.2398 -0.4269
 3254SOL     ow13013   3.351   1.888   6.704  0.7131  0.1305 -1.0762
 3254SOL     hw13014   3.278   1.932   6.661 -0.7647 -1.1475  0.0155
 3254SOL     hw13015   3.338   1.906   6.798  1.6610 -0.3321 -0.8481
 3254SOL     vw13016   3.340   1.896   6.711  0.6431 -0.0991 -0.9019
 3255SOL     ow13017   3.092   4.956   1.628  0.5335  0.1965  0.5260
 3255SOL     hw13018   3.126   4.899   1.558 -0.8612  0.2630 -0.2406
 3255SOL     hw13019   3.119   5.044   1.603 -2.4062  0.6532 -1.6240
 3255SOL     vw13020   3.100   4.960   1.616 -0.0384  0.2656  0.1412
 3256SOL     ow13021   6.993   2.357   5.674  0.4701  0.0328  0.2765
 3256SOL     hw13022   6.907   2.322   5.650 -1.1831  1.0571  3.8775
 3256SOL     hw13023   7.055   2.289   5.650 -1.8598 -2.5713  1.1159
 3256SOL     vw13024   6.990   2.344   5.668 -0.0553 -0.1756  0.8624
 3257SOL     ow13025   5.854   4.078   6.650  1.0100  0.1461 -0.5568
 3257SOL     hw13026   5.906   4.148   6.690 -0.4474  0.3762  1.0618
 3257SOL     hw13027   5.915   4.005   6.642  1.9775  0.8820 -0.1346
 3257SOL     vw13028   5.869   4.077   6.654  0.9453  0.2737 -0.2875
 3258SOL     ow13029   2.698   5.173   4.174  0.4238 -0.0353 -0.2572
 3258SOL     hw13030   2.651   5.246   4.135 -0.6981 -0.5334  0.1383
 3258SOL     hw13031   2.662   5.096   4.131  1.8077 -0.3680 -0.8930
 3258SOL     vw13032   2.687   5.173   4.163  0.4584 -0.1450 -0.2890
 3259SOL     ow13033   0.493   5.898   1.947  0.4235  0.1811 -0.1688
 3259SOL     hw13034   0.527   5.983   1.973  0.1069  0.8263 -1.7644
 3259SOL     hw13035   0.568   5.839   1.952  1.2820  1.1171 -1.5364
 3259SOL     vw13036   0.507   5.901   1.951  0.4950  0.3898 -0.5597
 3260SOL     ow13037   6.461   5.411   2.303  0.0909  0.1245 -0.1586
 3260SOL     hw13038   6.411   5.493   2.309 -3.2325 -1.8277  1.6996
 3260SOL     hw13039   6.427   5.367   2.226 -0.5648 -0.8944  0.6862
 3260SOL     vw13040   6.450   5.416   2.294 -0.4339 -0.2673  0.1981
 3261SOL     ow13041   3.729   1.316   1.434 -0.4152  0.0769 -0.2258
 3261SOL     hw13042   3.680   1.396   1.417 -0.6480  0.3726  1.6492
 3261SOL     hw13043   3.808   1.324   1.379 -1.7504  0.2318 -2.2137
 3261SOL     vw13044   3.733   1.327   1.424 -0.6219  0.1363 -0.2407
 3262SOL     ow13045   6.042   5.661   5.757  0.0552 -0.5800 -0.6500
 3262SOL     hw13046   6.103   5.728   5.788  0.6975 -1.6930  0.6033
 3262SOL     hw13047   6.083   5.625   5.679  0.7631 -0.9575 -0.1133
 3262SOL     vw13048   6.055   5.666   5.751  0.2332 -0.7765 -0.4139
 3263SOL     ow13049   5.219   7.472   5.979  0.0735  0.5638  0.4210
 3263SOL     hw13050   5.206   7.405   5.912  2.5873  1.9080 -1.5754
 3263SOL     hw13051   5.136   7.520   5.980 -0.5622 -0.4512 -0.6031
 3263SOL     vw13052   5.206   7.470   5.970  0.3211  0.6073  0.0224
 3264SOL     ow13053   3.129   7.368   0.390  0.1612  0.2857 -0.1410
 3264SOL     hw13054   3.117   7.428   0.316  2.8619  0.7420 -0.2880
 3264SOL     hw13055   3.046   7.373   0.438 -1.0282  1.3007 -2.1632
 3264SOL     vw13056   3.116   7.377   0.387  0.3606  0.4797 -0.4272
 3265SOL     ow13057   5.195   5.190   0.137  0.7566  0.2409  0.6471
 3265SOL     hw13058   5.217   5.207   0.046  1.2276  1.1141  0.9112
 3265SOL     hw13059   5.263   5.130   0.168  1.0748  0.6019  0.6496
 3265SOL     vw13060   5.207   5.184   0.129  0.8607  0.4034  0.6823
 3266SOL     ow13061   3.595   0.758   1.620 -0.5883  0.1418 -0.0522
 3266SOL     hw13062   3.634   0.710   1.548  0.3950  0.6236  0.1469
 3266SOL     hw13063   3.625   0.712   1.699 -0.2037  0.6659  0.1112
 3266SOL     vw13064   3.604   0.745   1.621 -0.4078  0.2745 -0.0044
 3267SOL     ow13065   2.460   0.971   2.750 -0.0482 -0.7153 -0.1417
 3267SOL     hw13066   2.417   0.917   2.683 -0.8311 -0.2885  0.0013
 3267SOL     hw13067   2.401   0.966   2.825 -0.1189  0.3090 -0.1164
 3267SOL     vw13068   2.446   0.963   2.751 -0.1608 -0.5238 -0.1194
 3268SOL     ow13069   5.904   4.254   2.768  0.2412  0.2724  0.1244
 3268SOL     hw13070   5.925   4.234   2.859  2.0208 -0.3864 -0.3859
 3268SOL     hw13071   5.874   4.171   2.731  2.1094 -0.1568 -0.5358
 3268SOL     vw13072   5.903   4.240   2.775  0.7224  0.1285 -0.0300
 3269SOL     ow13073   1.666   2.547   5.340  0.5682 -0.4741  0.0366
 3269SOL     hw13074   1.607   2.510   5.406  1.9051 -0.5772  1.2502
 3269SOL     hw13075   1.646   2.499   5.260  0.1673 -1.7157  0.8430
 3269SOL     vw13076   1.656   2.536   5.338  0.6917 -0.6516  0.3030
 3270SOL     ow13077   5.192   4.092   0.120 -0.3684  0.9888 -0.2472
 3270SOL     hw13078   5.113   4.100   0.174  0.1061 -1.0224  0.8156
 3270SOL     hw13079   5.190   4.002   0.087  0.8067  1.3209 -1.3048
 3270SOL     vw13080   5.181   4.081   0.122 -0.1509  0.7672 -0.2465
 3271SOL     ow13081   1.684   3.022   3.994  0.3491 -0.4087 -0.6865
 3271SOL     hw13082   1.737   3.094   3.961 -0.5950  0.6314 -0.0254
 3271SOL     hw13083   1.686   3.033   4.089  0.8288 -1.7306 -0.5311
 3271SOL     vw13084   1.691   3.033   4.002  0.2878 -0.4460 -0.5786
 3272SOL     ow13085   2.000   0.705   2.960  0.1688 -0.6745 -0.7923
 3272SOL     hw13086   1.985   0.637   3.026  0.2721 -2.1912 -2.2716
 3272SOL     hw13087   2.004   0.786   3.011 -2.4499 -1.4067  0.8008
 3272SOL     vw13088   1.999   0.707   2.976 -0.1631 -0.9712 -0.7771
 3273SOL     ow13089   4.149   2.291   3.731  0.4426 -0.2256 -1.1664
 3273SOL     hw13090   4.233   2.249   3.748  0.5479 -0.2159 -1.6580
 3273SOL     hw13091   4.106   2.233   3.668 -1.3098 -2.0359  1.4670
 3273SOL     vw13092   4.154   2.278   3.725  0.2255 -0.4630 -0.8839
 3274SOL     ow13093   5.993   7.410   5.149 -0.8060 -0.6055  0.7259
 3274SOL     hw13094   6.004   7.504   5.140 -0.8273 -0.5388  1.3585
 3274SOL     hw13095   6.041   7.387   5.229 -0.9792 -1.0957  0.6965
 3274SOL     vw13096   6.001   7.419   5.158 -0.8316 -0.6614  0.8056
 3275SOL     ow13097   6.699   5.000   5.798  0.1411 -0.3885 -0.4567
 3275SOL     hw13098   6.641   4.953   5.738 -4.2308 -0.5181  3.2378
 3275SOL     hw13099   6.753   4.932   5.838 -0.1449 -0.9865 -1.0715
 3275SOL     vw13100   6.698   4.985   5.796 -0.4735 -0.4845 -0.0503
 3276SOL     ow13101   6.966   2.449   0.898 -0.7531  0.4330 -0.3794
 3276SOL     hw13102   6.932   2.361   0.909 -0.5014  0.5435  1.6112
 3276SOL     hw13103   6.902   2.493   0.841  0.2797 -1.6169 -3.3744
 3276SOL     vw13104   6.953   2.443   0.892 -0.5834  0.1770 -0.5119
 3277SOL     ow13105   6.229   5.667   5.527  0.3748  0.3502 -0.2058
 3277SOL     hw13106   6.218   5.741   5.467  0.8246  0.3875 -0.2498
 3277SOL     hw13107   6.282   5.605   5.478 -0.4533 -0.2423 -0.3654
 3277SOL     vw13108   6.235   5.669   5.513  0.3252  0.2770 -0.2325
 3278SOL     ow13109   2.910   3.217   5.127 -0.3059  0.5503 -0.2847
 3278SOL     hw13110   2.892   3.147   5.191  2.0949  1.3199  1.3754
 3278SOL     hw13111   2.997   3.248   5.150 -1.5845  4.7605 -0.3459
 3278SOL     vw13112   2.919   3.212   5.138 -0.1578  1.2072 -0.0734
 3279SOL     ow13113   7.348   0.927   5.079 -0.4464  0.7705 -0.2712
 3279SOL     hw13114   7.294   0.958   5.007  1.3613  0.2830 -1.9250
 3279SOL     hw13115   7.431   0.900   5.038  0.1376 -0.9060  1.7846
 3279SOL     vw13116   7.352   0.927   5.064 -0.1309  0.4850 -0.2182
 3280SOL     ow13117   3.720   0.120   2.773 -0.2535  0.0604  0.5275
 3280SOL     hw13118   3.716   0.096   2.866  0.1648 -0.6822  0.3603
 3280SOL     hw13119   3.642   0.081   2.734  0.3398 -0.9313  0.2888
 3280SOL     vw13120   3.709   0.112   2.780 -0.1202 -0.1684  0.4741
 3281SOL     ow13121   3.127   4.727   7.510 -0.1029  0.0177 -1.7712
 3281SOL     hw13122   3.050   4.697   7.462 -0.6621 -1.0440 -0.2713
 3281SOL     hw13123   3.195   4.664   7.489 -0.3038 -0.3612 -1.2752
 3281SOL     vw13124   3.126   4.715   7.500 -0.2031 -0.1726 -1.5080
 3282SOL     ow13125   5.628   1.069   4.005  0.0672  0.3234 -0.5837
 3282SOL     hw13126   5.539   1.098   4.025 -1.3168 -1.6427 -3.2415
 3282SOL     hw13127   5.636   0.985   4.051  0.9267  0.9160  0.3761
 3282SOL     vw13128   5.617   1.062   4.014 -0.0021  0.1422 -0.8080
 3283SOL     ow13129   3.931   7.127   1.730 -0.0217  0.3919  0.2097
 3283SOL     hw13130   4.002   7.151   1.670  0.7505 -1.5599  0.2583
 3283SOL     hw13131   3.870   7.078   1.675  0.1811 -0.5182  0.7720
 3283SOL     vw13132   3.932   7.124   1.715  0.1069  0.0143  0.2903
 3284SOL     ow13133   2.793   0.608   1.258  0.4323 -0.6336  0.3628
 3284SOL     hw13134   2.725   0.562   1.307  0.6199 -2.6181 -1.0908
 3284SOL     hw13135   2.865   0.545   1.253  1.2721  0.3556 -0.5473
 3284SOL     vw13136   2.794   0.594   1.264  0.5679 -0.7649  0.0510
 3285SOL     ow13137   3.805   4.114   2.140  0.2689  0.6618  0.1948
 3285SOL     hw13138   3.721   4.097   2.182 -0.1139 -0.4810 -0.9766
 3285SOL     hw13139   3.832   4.029   2.106  2.1541  0.9075  0.9543
 3285SOL     vw13140   3.797   4.101   2.141  0.4672  0.5436  0.1405
 3286SOL     ow13141   6.205   3.443   4.029 -0.2538 -0.1598  0.5155
 3286SOL     hw13142   6.177   3.443   3.938 -0.9995  0.3994  0.7364
 3286SOL     hw13143   6.268   3.515   4.036 -0.8007  0.3100  0.6197
 3286SOL     vw13144   6.210   3.452   4.018 -0.4246 -0.0241  0.5584
 3287SOL     ow13145   2.559   2.707   7.443  0.6473 -0.1161 -0.1389
 3287SOL     hw13146   2.610   2.770   7.391  0.7088 -1.5969 -1.9810
 3287SOL     hw13147   2.614   2.629   7.448 -0.6783 -1.1285 -0.6485
 3287SOL     vw13148   2.573   2.705   7.436  0.4804 -0.4451 -0.4494
 3288SOL     ow13149   1.847   5.797   2.956 -0.2803  0.2249 -0.2931
 3288SOL     hw13150   1.930   5.770   2.994 -0.0131  1.9006  0.4336
 3288SOL     hw13151   1.857   5.782   2.862  2.1832  3.3878 -0.7093
 3288SOL     vw13152   1.859   5.792   2.948  0.0800  0.8633 -0.2521
 3289SOL     ow13153   0.938   2.922   2.037 -0.0229 -0.3298  0.0713
 3289SOL     hw13154   0.990   2.891   1.963 -0.6123  1.4012 -1.1389
 3289SOL     hw13155   0.990   2.901   2.114  0.2813 -2.8456 -0.7411
 3289SOL     vw13156   0.952   2.915   2.037 -0.0606 -0.4333 -0.1955
 3290SOL     ow13157   6.205   0.374   2.184  0.1203  0.5262  0.3455
 3290SOL     hw13158   6.168   0.462   2.195 -1.3767 -0.0638  0.2335
 3290SOL     hw13159   6.145   0.330   2.124  1.1114 -0.4386  0.0271
 3290SOL     vw13160   6.193   0.380   2.178  0.0536  0.3210  0.2887
 3291SOL     ow13161   1.273   0.812   4.714 -0.8442  0.0895  0.2115
 3291SOL     hw13162   1.330   0.860   4.654  0.1996  1.4290  2.1177
 3291SOL     hw13163   1.276   0.722   4.684 -0.7719  0.7628 -1.9814
 3291SOL     vw13164   1.281   0.807   4.702 -0.6970  0.3551  0.1736
 3292SOL     ow13165   4.429   6.563   4.772 -0.1244  0.4753 -0.1523
 3292SOL     hw13166   4.428   6.650   4.812 -0.6275  0.4891 -0.1825
 3292SOL     hw13167   4.387   6.507   4.837  1.1015  0.0493  0.2990
 3292SOL     vw13168   4.423   6.567   4.786 -0.0291  0.4210 -0.0968
 3293SOL     ow13169   6.282   2.424   6.026 -0.2327 -0.8059 -0.5022
 3293SOL     hw13170   6.372   2.457   6.031  0.3374 -2.0823 -1.6841
 3293SOL     hw13171   6.235   2.490   5.974  0.5436 -1.1072 -1.6266
 3293SOL     vw13172   6.288   2.437   6.020 -0.0551 -1.0141 -0.8066
 3294SOL     ow13173   2.983   6.076   5.484  0.1603 -0.0407  0.6082
 3294SOL     hw13174   3.001   6.133   5.559  1.3647 -0.2904  0.5279
 3294SOL     hw13175   3.061   6.022   5.476 -0.0106 -0.1198 -0.7483
 3294SOL     vw13176   2.996   6.076   5.493  0.2967 -0.0839  0.4187
 3295SOL     ow13177   3.825   0.891   4.680  0.2666 -0.5310 -0.2252
 3295SOL     hw13178   3.765   0.963   4.699 -0.4667 -0.5918 -2.0980
 3295SOL     hw13179   3.841   0.897   4.586  4.2032  0.1727  0.3457
 3295SOL     vw13180   3.819   0.901   4.670  0.6891 -0.4462 -0.3970
 3296SOL     ow13181   6.915   3.645   5.976 -0.3479  0.0521 -0.2754
 3296SOL     hw13182   6.983   3.667   5.912 -1.3555  0.9163 -1.0808
 3296SOL     hw13183   6.864   3.725   5.985 -4.1635 -1.7161 -3.2904
 3296SOL     vw13184   6.917   3.659   5.969 -0.9847 -0.0671 -0.7794
 3297SOL     ow13185   0.594   4.565   3.143 -0.1985 -0.4013  0.2436
 3297SOL     hw13186   0.499   4.557   3.138 -0.2305  0.1036 -0.0342
 3297SOL     hw13187   0.618   4.613   3.064  0.4071 -1.4616 -0.2428
 3297SOL     vw13188   0.585   4.570   3.132 -0.1228 -0.4745  0.1428
 3298SOL     ow13189   0.939   5.975   3.487 -0.4901 -0.5077 -0.5116
 3298SOL     hw13190   0.997   5.969   3.411 -2.9506 -1.5808 -2.4717
 3298SOL     hw13191   0.997   5.993   3.561  2.0152  0.9521 -2.6631
 3298SOL     vw13192   0.954   5.977   3.486 -0.4842 -0.4566 -1.0539
 3299SOL     ow13193   3.883   0.912   1.494  0.4404 -0.3409  1.0492
 3299SOL     hw13194   3.839   0.905   1.409 -0.5999  3.8584  1.0223
 3299SOL     hw13195   3.867   0.828   1.537  1.7132 -2.9935 -3.0772
 3299SOL     vw13196   3.875   0.900   1.489  0.4712 -0.1369  0.5012
 3300SOL     ow13197   2.463   6.837   6.563 -0.2349  0.1951  0.0621
 3300SOL     hw13198   2.497   6.757   6.522  0.4045  0.0349  0.8617
 3300SOL     hw13199   2.445   6.896   6.490 -0.0786 -0.4395 -0.5016
 3300SOL     vw13200   2.465   6.834   6.548 -0.1299  0.0901  0.0932
 3301SOL     ow13201   3.343   6.934   1.735 -0.5866  0.3493 -0.4196
 3301SOL     hw13202   3.358   7.015   1.686  0.6643  0.8360  0.6943
 3301SOL     hw13203   3.305   6.963   1.818 -2.0185 -0.4004 -0.7820
 3301SOL     vw13204   3.340   6.949   1.740 -0.6105  0.3145 -0.3205
 3302SOL     ow13205   6.848   1.140   0.673 -0.0131 -0.0894 -0.1867
 3302SOL     hw13206   6.880   1.056   0.640  2.2236  0.7486 -0.3001
 3302SOL     hw13207   6.857   1.134   0.768 -0.0351 -0.0580 -0.1828
 3302SOL     vw13208   6.853   1.128   0.681  0.2792  0.0253 -0.2012
 3303SOL     ow13209   3.005   5.468   3.121 -1.1114 -0.5902 -0.1953
 3303SOL     hw13210   3.036   5.559   3.116 -0.5072 -0.7095  0.9654
 3303SOL     hw13211   3.077   5.420   3.161 -1.8026 -1.3886  0.1265
 3303SOL     vw13212   3.019   5.474   3.126 -1.1228 -0.7112  0.0002
 3304SOL     ow13213   6.576   4.411   1.197 -0.1068  0.1931  0.3067
 3304SOL     hw13214   6.551   4.427   1.288 -0.5301 -1.1367  0.4432
 3304SOL     hw13215   6.494   4.388   1.153  0.0551  1.0712 -0.4827
 3304SOL     vw13216   6.562   4.410   1.204 -0.1414  0.1335  0.2205
 3305SOL     ow13217   7.313   3.674   0.166 -0.6027  0.0303  0.7455
 3305SOL     hw13218   7.323   3.768   0.178 -2.6332  0.3859  0.0403
 3305SOL     hw13219   7.256   3.665   0.090 -0.6027 -1.7748  0.8995
 3305SOL     vw13220   7.307   3.685   0.158 -0.8707 -0.1609  0.6728
 3306SOL     ow13221   7.617   0.823   2.006 -0.0454  0.1285  0.2455
 3306SOL     hw13222   7.627   0.793   2.096  0.1492  1.6273  0.7579
 3306SOL     hw13223   7.696   0.793   1.961  0.2776  0.1320  0.8019
 3306SOL     vw13224   7.629   0.815   2.012  0.0229  0.3268  0.3866
 3307SOL     ow13225   2.983   0.450   7.242 -0.5130  0.5472  0.4483
 3307SOL     hw13226   3.012   0.519   7.303 -2.7607  0.9981  1.0785
 3307SOL     hw13227   2.928   0.495   7.178  3.3378  0.4883 -3.3695
 3307SOL     vw13228   2.980   0.465   7.242 -0.3016  0.5989  0.0274
 3308SOL     ow13229   2.369   2.636   2.913  0.1725 -0.1129  0.0858
 3308SOL     hw13230   2.368   2.582   2.834  0.5331 -1.0413  0.6995
 3308SOL     hw13231   2.282   2.623   2.952 -0.4715  1.3343 -0.7863
 3308SOL     vw13232   2.357   2.628   2.908  0.1352 -0.0445  0.0516
 3309SOL     ow13233   3.672   1.838   0.372 -0.1731  0.0507 -0.1275
 3309SOL     hw13234   3.706   1.751   0.392 -1.0051 -1.0858 -3.2193
 3309SOL     hw13235   3.617   1.861   0.447  0.4147 -1.8761  0.9357
 3309SOL     vw13236   3.669   1.830   0.385 -0.2054 -0.3535 -0.3951
 3310SOL     ow13237   2.703   3.790   5.058 -0.4815  0.3178 -0.4284
 3310SOL     hw13238   2.619   3.747   5.038  0.6943 -2.9212  0.8507
 3310SOL     hw13239   2.762   3.758   4.989  0.2048  0.8111 -0.0765
 3310SOL     vw13240   2.700   3.780   5.046 -0.2358 -0.0445 -0.2131
 3311SOL     ow13241   6.636   3.294   6.168  0.0926 -0.1952 -0.0643
 3311SOL     hw13242   6.551   3.269   6.131  0.8000 -1.4504 -0.9172
 3311SOL     hw13243   6.623   3.292   6.263 -0.3593 -2.2955 -0.1222
 3311SOL     vw13244   6.623   3.291   6.175  0.1264 -0.6379 -0.1845
 3312SOL     ow13245   2.479   0.062   5.960  0.4346  0.0309  0.4310
 3312SOL     hw13246   2.436   0.071   6.045  0.1887 -1.6981  0.5377
 3312SOL     hw13247   2.484   0.151   5.925  0.6470  0.7863  2.2908
 3312SOL     vw13248   2.474   0.075   5.967  0.4302 -0.0975  0.6907
 3313SOL     ow13249   0.578   0.209   0.226 -0.2080  0.6507 -0.3145
 3313SOL     hw13250   0.658   0.164   0.252  0.2286 -0.0369 -2.6226
 3313SOL     hw13251   0.515   0.139   0.212 -1.3814  1.2107  1.8440
 3313SOL     vw13252   0.580   0.194   0.227 -0.3052  0.6339 -0.3342
 3314SOL     ow13253   3.266   7.190   5.162  0.8031 -0.3245  0.1093
 3314SOL     hw13254   3.197   7.220   5.102  0.6193  1.3425  1.0950
 3314SOL     hw13255   3.347   7.229   5.127  0.4922  1.9235  1.6814
 3314SOL     vw13256   3.268   7.199   5.149  0.7377  0.1919  0.4466
 3315SOL     ow13257   5.934   0.859   3.128 -0.3308 -0.1490 -0.3368
 3315SOL     hw13258   5.941   0.843   3.034  0.0853  0.3318 -0.3920
 3315SOL     hw13259   6.011   0.912   3.150 -0.4668 -0.1857  0.2588
 3315SOL     vw13260   5.945   0.864   3.119 -0.2940 -0.0905 -0.2655
 3316SOL     ow13261   1.199   5.282   2.551 -0.4621  0.7084  0.4101
 3316SOL     hw13262   1.219   5.214   2.615  0.6477  1.4282  0.8509
 3316SOL     hw13263   1.117   5.252   2.510  0.0142 -0.9079  0.5507
 3316SOL     vw13264   1.191   5.269   2.554 -0.2528  0.5901  0.4867
 3317SOL     ow13265   7.198   2.941   6.676 -0.0010  0.1036 -0.9348
 3317SOL     hw13266   7.104   2.955   6.666 -0.6901  0.6886  4.0284
 3317SOL     hw13267   7.237   3.027   6.660 -0.6582  0.5163 -0.3831
 3317SOL     vw13268   7.191   2.954   6.672 -0.1786  0.2353 -0.2069
 3318SOL     ow13269   3.641   0.165   1.958  0.5087  0.2444 -0.1485
 3318SOL     hw13270   3.598   0.080   1.946 -2.4796  1.6872 -0.4151
 3318SOL     hw13271   3.728   0.142   1.991  0.5195 -2.9716 -1.9266
 3318SOL     vw13272   3.647   0.151   1.961  0.1159  0.0104 -0.4183
 3319SOL     ow13273   6.739   3.137   6.007  0.9452 -0.1009 -0.5401
 3319SOL     hw13274   6.676   3.125   5.936  0.8759 -0.3709 -0.4314
 3319SOL     hw13275   6.697   3.202   6.064  0.5678 -0.6113 -0.2358
 3319SOL     vw13276   6.725   3.144   6.005  0.8864 -0.2038 -0.4857
 3320SOL     ow13277   4.507   3.564   0.713  0.4333  0.2418  0.2836
 3320SOL     hw13278   4.460   3.485   0.738  0.4411  0.0133 -0.4024
 3320SOL     hw13279   4.442   3.617   0.666  0.7117  0.1540 -0.2129
 3320SOL     vw13280   4.492   3.561   0.710  0.4711  0.2002  0.1276
 3321SOL     ow13281   6.984   0.913   3.241 -0.0271 -0.0459  0.0334
 3321SOL     hw13282   7.002   0.937   3.150 -0.0595  0.8995  0.2590
 3321SOL     hw13283   6.924   0.981   3.272 -0.5532 -0.7439  0.5609
 3321SOL     vw13284   6.979   0.925   3.233 -0.1009 -0.0132  0.1327
 3322SOL     ow13285   5.160   5.269   2.843  0.3469  0.4841  0.2462
 3322SOL     hw13286   5.252   5.280   2.865  0.6475 -1.0889 -0.0921
 3322SOL     hw13287   5.132   5.354   2.810  0.9494  1.7936  2.8090
 3322SOL     vw13288   5.168   5.282   2.842  0.4659  0.4494  0.5397
 3323SOL     ow13289   0.536   6.362   4.518 -0.6320  0.0505 -0.7759
 3323SOL     hw13290   0.571   6.276   4.539 -2.0832  0.0773  2.2567
 3323SOL     hw13291   0.499   6.353   4.430 -1.2231 -2.5967 -0.3180
 3323SOL     vw13292   0.536   6.350   4.509 -0.9015 -0.2954 -0.3154
 3324SOL     ow13293   5.120   3.148   1.744 -0.5709  0.2513  0.4093
 3324SOL     hw13294   5.114   3.171   1.837 -2.2208  2.4902 -0.1612
 3324SOL     hw13295   5.033   3.166   1.709 -0.1353 -1.0562 -1.4875
 3324SOL     vw13296   5.108   3.153   1.752 -0.7310  0.3743  0.0837
 3325SOL     ow13297   1.025   2.151   0.484  0.5280 -0.0009  0.6273
 3325SOL     hw13298   0.939   2.150   0.526  0.5115 -1.4209  0.5932
 3325SOL     hw13299   1.070   2.074   0.519  1.1529 -0.2407 -0.6463
 3325SOL     vw13300   1.020   2.141   0.494  0.6083 -0.2199  0.4548
 3326SOL     ow13301   4.578   5.486   6.488  0.0044  0.3567  0.4725
 3326SOL     hw13302   4.664   5.503   6.527 -0.1155  0.3061  0.7678
 3326SOL     hw13303   4.517   5.535   6.543 -0.3000 -0.6776  1.1002
 3326SOL     vw13304   4.581   5.495   6.501 -0.0517  0.2136  0.5944
 3327SOL     ow13305   7.322   2.421   0.209 -0.5163 -0.1416 -0.4407
 3327SOL     hw13306   7.303   2.514   0.216 -0.6640 -0.2922  1.9202
 3327SOL     hw13307   7.236   2.380   0.197 -0.5759 -0.0491 -0.3360
 3327SOL     vw13308   7.308   2.428   0.209 -0.5438 -0.1493 -0.1154
 3328SOL     ow13309   6.150   3.867   1.847  0.6364 -0.2676  0.3307
 3328SOL     hw13310   6.222   3.877   1.785  0.2228 -1.9654 -0.4952
 3328SOL     hw13311   6.107   3.786   1.820 -1.4083  0.5470  0.9853
 3328SOL     vw13312   6.154   3.858   1.836  0.3123 -0.3841  0.3082
 3329SOL     ow13313   0.726   3.197   2.136 -0.3608 -0.2922 -0.2703
 3329SOL     hw13314   0.680   3.119   2.108  3.0053 -2.6787  0.2550
 3329SOL     hw13315   0.706   3.205   2.229 -1.2307 -0.1079 -0.4681
 3329SOL     vw13316   0.717   3.188   2.145 -0.0315 -0.5827 -0.2271
 3330SOL     ow13317   4.485   1.419   7.342  0.6385  0.3737 -0.2098
 3330SOL     hw13318   4.539   1.419   7.421  1.5057 -0.4825 -0.7788
 3330SOL     hw13319   4.420   1.488   7.357  1.6825  1.2063  0.6327
 3330SOL     vw13320   4.483   1.428   7.354  0.8907  0.3706 -0.1736
 3331SOL     ow13321   1.799   4.267   2.737 -0.1295 -0.4301 -0.0531
 3331SOL     hw13322   1.725   4.265   2.676 -0.2679  0.1016  0.0937
 3331SOL     hw13323   1.804   4.178   2.770 -0.4794 -0.5603 -0.3361
 3331SOL     vw13324   1.790   4.255   2.733 -0.1939 -0.3769 -0.0709
 3332SOL     ow13325   6.992   6.294   1.723 -0.3648  0.2964 -0.6302
 3332SOL     hw13326   7.072   6.260   1.684 -0.3000  0.2025 -0.4209
 3332SOL     hw13327   6.942   6.330   1.650  0.6994  2.0621 -0.5436
 3332SOL     vw13328   6.996   6.294   1.708 -0.2160  0.5169 -0.5912
 3333SOL     ow13329   6.821   6.222   1.905 -0.6380 -0.0172 -0.0737
 3333SOL     hw13330   6.860   6.257   1.824  0.7674  0.3622  0.7294
 3333SOL     hw13331   6.776   6.296   1.944  0.1784  0.2598  0.3573
 3333SOL     vw13332   6.820   6.236   1.899 -0.3448  0.0696  0.0892
 3334SOL     ow13333   3.085   7.255   4.986  0.1411  1.2240 -0.1955
 3334SOL     hw13334   3.003   7.278   5.028 -0.2755  1.7340 -1.2489
 3334SOL     hw13335   3.133   7.337   4.977 -0.0841  1.2568 -1.3176
 3334SOL     vw13336   3.081   7.269   4.990  0.0565  1.2956 -0.4826
 3335SOL     ow13337   2.618   1.755   0.197  0.5796  0.1693  0.4600
 3335SOL     hw13338   2.595   1.717   0.282  2.2794 -2.3814 -0.1370
 3335SOL     hw13339   2.704   1.794   0.212  0.2104  1.1017  0.2461
 3335SOL     vw13340   2.626   1.755   0.210  0.7552 -0.0443  0.3530
 3336SOL     ow13341   7.011   1.777   2.859  0.0910 -0.6512 -0.0058
 3336SOL     hw13342   7.080   1.780   2.793  0.8790  0.0788  0.8225
 3336SOL     hw13343   6.958   1.856   2.841 -1.0279 -1.6112 -1.1257
 3336SOL     vw13344   7.013   1.788   2.847  0.0474 -0.6816 -0.0442
 3337SOL     ow13345   1.718   3.572   6.714 -0.8486 -0.2302 -0.5845
 3337SOL     hw13346   1.704   3.522   6.634  2.0908 -0.5743 -1.0023
 3337SOL     hw13347   1.800   3.537   6.750  0.5370  3.1655 -0.0743
 3337SOL     vw13348   1.727   3.561   6.708 -0.2779  0.1724 -0.5722
 3338SOL     ow13349   4.713   3.339   7.356  0.5957  0.1850 -0.3111
 3338SOL     hw13350   4.678   3.410   7.409  0.1963  1.7599 -2.5474
 3338SOL     hw13351   4.637   3.307   7.306  1.1156 -0.6966 -0.5573
 3338SOL     vw13352   4.698   3.344   7.357  0.6115  0.2763 -0.6387
 3339SOL     ow13353   1.771   4.490   4.129 -0.2456 -0.1262 -0.4399
 3339SOL     hw13354   1.745   4.571   4.172  0.7529  0.2956 -0.6044
 3339SOL     hw13355   1.805   4.435   4.199  0.4989  0.1960 -0.5388
 3339SOL     vw13356   1.772   4.493   4.144 -0.0156 -0.0279 -0.4747
 3340SOL     ow13357   2.478   2.120   4.227  0.7704 -0.2268  0.2915
 3340SOL     hw13358   2.418   2.118   4.301 -1.0906  1.0134 -1.0751
 3340SOL     hw13359   2.460   2.204   4.183  1.3927 -1.1330 -1.8532
 3340SOL     vw13360   2.468   2.131   4.231  0.6071 -0.1827 -0.1719
 3341SOL     ow13361   1.953   2.479   4.092 -0.1434 -0.6894  0.4559
 3341SOL     hw13362   1.892   2.433   4.150 -0.0754 -1.3907 -0.0160
 3341SOL     hw13363   1.967   2.418   4.019 -0.1058  0.1053 -0.2182
 3341SOL     vw13364   1.947   2.465   4.090 -0.1295 -0.6771  0.3047
 3342SOL     ow13365   6.610   4.827   3.720 -0.0907 -0.6220 -0.4136
 3342SOL     hw13366   6.689   4.859   3.764  0.2692 -0.7536 -0.9540
 3342SOL     hw13367   6.630   4.833   3.627 -0.1815 -1.9754 -0.5428
 3342SOL     vw13368   6.623   4.832   3.714 -0.0553 -0.8180 -0.5020
 3343SOL     ow13369   0.828   1.362   5.597  0.3097 -0.1490  0.6006
 3343SOL     hw13370   0.829   1.401   5.510 -2.1977 -1.0288  0.0878
 3343SOL     hw13371   0.868   1.428   5.654 -0.4264  1.5785 -0.7986
 3343SOL     vw13372   0.834   1.376   5.593 -0.1182 -0.0371  0.3483
 3344SOL     ow13373   5.073   5.102   4.627 -0.0560  0.0746  0.2753
 3344SOL     hw13374   5.077   5.120   4.721 -1.1671 -0.3922  0.4271
 3344SOL     hw13375   5.097   5.185   4.586  3.5245 -0.5008  0.9236
 3344SOL     vw13376   5.077   5.115   4.634  0.2699 -0.0627  0.3808
 3345SOL     ow13377   3.837   5.621   2.422 -0.3604  0.2936 -0.3131
 3345SOL     hw13378   3.908   5.681   2.400  0.8791 -0.7813  0.5883
 3345SOL     hw13379   3.815   5.642   2.513  2.0169 -2.3338  1.0176
 3345SOL     vw13380   3.843   5.631   2.431  0.1168 -0.1948 -0.0187
 3346SOL     ow13381   2.443   3.239   4.804 -0.6331  0.1627  0.1515
 3346SOL     hw13382   2.363   3.202   4.767 -0.2164 -0.9357  0.3285
 3346SOL     hw13383   2.415   3.282   4.885 -0.9443 -0.8053  0.5639
 3346SOL     vw13384   2.429   3.240   4.810 -0.6193 -0.1098  0.2294
 3347SOL     ow13385   0.346   1.083   0.490 -0.8369  0.1823  0.4868
 3347SOL     hw13386   0.347   1.177   0.511  0.5807  0.3648 -0.2103
 3347SOL     hw13387   0.422   1.048   0.537  0.7111  0.0766 -1.8947
 3347SOL     vw13388   0.356   1.091   0.499 -0.4456  0.1925  0.0806
 3348SOL     ow13389   5.593   6.985   1.731 -0.5424  0.1351 -0.3798
 3348SOL     hw13390   5.503   6.965   1.708 -0.3812 -2.6355  0.9667
 3348SOL     hw13391   5.644   6.957   1.655 -0.7044  0.4497 -0.6072
 3348SOL     vw13392   5.588   6.979   1.718 -0.5424 -0.1891 -0.2321
 3349SOL     ow13393   0.769   1.531   2.243  0.9094  0.1121 -0.6073
 3349SOL     hw13394   0.796   1.579   2.321 -0.3707 -0.2978  0.1228
 3349SOL     hw13395   0.781   1.594   2.171  2.1373  0.4804 -0.1106
 3349SOL     vw13396   0.774   1.546   2.244  0.9025  0.1067 -0.4454
 3350SOL     ow13397   6.642   3.607   1.369 -0.0244 -0.0125 -0.7005
 3350SOL     hw13398   6.615   3.684   1.318 -4.1428 -1.9066 -1.8230
 3350SOL     hw13399   6.655   3.538   1.304  1.2301 -0.9088  0.4407
 3350SOL     vw13400   6.640   3.608   1.354 -0.4022 -0.3806 -0.6981
 3351SOL     ow13401   6.674   0.546   1.592  0.2363 -1.0052  0.1544
 3351SOL     hw13402   6.596   0.568   1.643 -0.0479 -1.8803  0.1104
 3351SOL     hw13403   6.659   0.456   1.562 -0.0787 -0.2344 -2.2959
 3351SOL     vw13404   6.662   0.537   1.595  0.1571 -1.0190 -0.1748
 3352SOL     ow13405   3.054   1.763   1.377 -0.1922 -0.1684  0.4013
 3352SOL     hw13406   3.013   1.677   1.371 -3.5770  1.3301 -0.0187
 3352SOL     hw13407   3.136   1.754   1.329 -1.2098 -2.7151 -1.0434
 3352SOL     vw13408   3.060   1.751   1.370 -0.7731 -0.3067  0.1553
 3353SOL     ow13409   0.407   1.161   2.199 -0.5703 -0.7159  0.1826
 3353SOL     hw13410   0.464   1.237   2.186 -2.6929  0.8937 -0.3771
 3353SOL     hw13411   0.400   1.152   2.294 -0.2675 -0.2367  0.2515
 3353SOL     vw13412   0.413   1.170   2.210 -0.8104 -0.4404  0.1179
 3354SOL     ow13413   5.382   2.862   2.795 -0.3985  0.0529 -0.3919
 3354SOL     hw13414   5.413   2.949   2.770  1.7687  1.3633  5.2103
 3354SOL     hw13415   5.297   2.878   2.836  0.2561 -0.2844  1.1614
 3354SOL     vw13416   5.375   2.876   2.797 -0.0262  0.1813  0.5522
 3355SOL     ow13417   3.080   4.758   1.831  0.7792  0.6267  0.1462
 3355SOL     hw13418   3.074   4.814   1.754  0.5257  0.2678 -0.0957
 3355SOL     hw13419   3.056   4.671   1.800 -0.1591  0.6392  0.8151
 3355SOL     vw13420   3.076   4.754   1.817  0.6220  0.5810  0.2025
 3356SOL     ow13421   3.342   0.347   3.824 -0.3508  0.3013  0.2690
 3356SOL     hw13422   3.349   0.438   3.852  0.9195  0.0483  0.8736
 3356SOL     hw13423   3.388   0.344   3.740 -0.7192  0.2866  0.0661
 3356SOL     vw13424   3.349   0.359   3.816 -0.2317  0.2660  0.3220
 3357SOL     ow13425   0.185   1.793   0.114  0.2431 -0.2777  0.5391
 3357SOL     hw13426   0.277   1.787   0.139  0.4087  3.4810  1.3935
 3357SOL     hw13427   0.142   1.722   0.162  2.4811 -1.3838  1.0232
 3357SOL     vw13428   0.191   1.783   0.123  0.5603  0.0722  0.7157
 3358SOL     ow13429   7.020   2.159   6.290  0.7793  0.3016  0.1879
 3358SOL     hw13430   7.090   2.132   6.350  0.9615  0.5796  0.1028
 3358SOL     hw13431   7.053   2.135   6.203  0.0572 -1.1062  0.2638
 3358SOL     vw13432   7.034   2.152   6.286  0.7081  0.1525  0.1867
 3359SOL     ow13433   1.745   3.602   4.822 -0.7632 -0.3373 -0.7156
 3359SOL     hw13434   1.790   3.682   4.795  0.4442  0.8194  3.9133
 3359SOL     hw13435   1.807   3.531   4.802  0.0428  0.4066 -0.8881
 3359SOL     vw13436   1.759   3.603   4.816 -0.4975 -0.0867 -0.1273
 3360SOL     ow13437   5.161   0.610   2.456 -0.0713  0.3959 -0.0897
 3360SOL     hw13438   5.141   0.525   2.415 -0.9387  1.8404 -2.9715
 3360SOL     hw13439   5.079   0.637   2.496  0.4727 -0.5092  1.7197
 3360SOL     vw13440   5.148   0.602   2.456 -0.1140  0.4671 -0.2313
 3361SOL     ow13441   3.562   7.287   0.555 -0.1218 -0.4325 -0.3209
 3361SOL     hw13442   3.534   7.304   0.465 -1.1370  0.4640  0.1418
 3361SOL     hw13443   3.645   7.240   0.546 -0.6219 -1.0939 -1.7227
 3361SOL     vw13444   3.569   7.283   0.542 -0.3219 -0.4013 -0.4448
 3362SOL     ow13445   5.604   1.091   2.486 -0.1176 -0.0924  0.1554
 3362SOL     hw13446   5.607   1.098   2.390  0.3227 -0.9418  0.1001
 3362SOL     hw13447   5.510   1.096   2.507 -0.1097  3.0428 -0.0554
 3362SOL     vw13448   5.592   1.093   2.476 -0.0584  0.2093  0.1203
 3363SOL     ow13449   3.591   3.051   1.500 -0.2639  0.6657 -0.2824
 3363SOL     hw13450   3.598   2.968   1.547  1.8639  1.2397  0.5436
 3363SOL     hw13451   3.626   3.032   1.413 -1.5563  0.2828 -0.7435
 3363SOL     vw13452   3.596   3.038   1.494 -0.1535  0.6909 -0.2343
 3364SOL     ow13453   6.351   3.273   6.658 -0.5888  0.0215  0.7845
 3364SOL     hw13454   6.395   3.193   6.628  0.6224  0.7131  0.6334
 3364SOL     hw13455   6.267   3.273   6.612 -0.3074 -0.8078  0.2414
 3364SOL     vw13456   6.346   3.263   6.648 -0.3920  0.0033  0.6931
 3365SOL     ow13457   0.428   7.601   4.531 -0.2876 -0.0671  0.4956
 3365SOL     hw13458   0.371   7.577   4.458 -0.5197 -0.7909  0.9094
 3365SOL     hw13459   0.396   7.686   4.559 -0.5257 -0.0192  0.0876
 3365SOL     vw13460   0.416   7.609   4.525 -0.3496 -0.1564  0.4961
 3366SOL     ow13461   3.993   6.891   1.858 -0.2569 -0.2480 -0.3500
 3366SOL     hw13462   4.042   6.868   1.779  0.2450 -0.2830 -0.0293
 3366SOL     hw13463   4.037   6.843   1.928 -1.1298 -0.7823 -0.1474
 3366SOL     vw13464   4.005   6.882   1.857 -0.3059 -0.3231 -0.2809
 3367SOL     ow13465   2.876   4.403   2.512  0.6162  0.5781  0.0173
 3367SOL     hw13466   2.783   4.420   2.526  0.4301  0.2608 -0.7796
 3367SOL     hw13467   2.892   4.321   2.559  0.7843  1.2407  1.1642
 3367SOL     vw13468   2.866   4.394   2.520  0.6138  0.6239  0.0635
 3368SOL     ow13469   1.195   3.646   7.326  0.1215  0.5012  0.1285
 3368SOL     hw13470   1.288   3.626   7.315  0.3105  1.1861  0.4190
 3368SOL     hw13471   1.173   3.697   7.248 -0.0224  0.3076  0.0418
 3368SOL     vw13472   1.204   3.650   7.314  0.1274  0.5660  0.1554
 3369SOL     ow13473   4.935   6.652   1.077  0.0184  0.0521 -0.3747
 3369SOL     hw13474   4.886   6.731   1.100  0.9967  0.1371  1.5825
 3369SOL     hw13475   4.911   6.588   1.145  1.4718 -0.3819 -0.2430
 3369SOL     vw13476   4.925   6.654   1.089  0.3393  0.0060 -0.0990
 3370SOL     ow13477   4.238   4.090   7.137 -0.1033 -0.0347  0.7491
 3370SOL     hw13478   4.203   4.174   7.167  1.5966  1.0126 -0.0101
 3370SOL     hw13479   4.324   4.084   7.180 -1.2963 -2.7601  3.0179
 3370SOL     vw13480   4.245   4.101   7.147 -0.0362 -0.2561  0.9484
 3371SOL     ow13481   0.651   1.258   5.834 -0.9057  0.2376  0.2977
 3371SOL     hw13482   0.590   1.205   5.885 -0.9636  1.6824  1.7744
 3371SOL     hw13483   0.596   1.319   5.785 -0.6906  1.3707  1.4318
 3371SOL     vw13484   0.636   1.259   5.834 -0.8850  0.5777  0.6421
 3372SOL     ow13485   1.000   6.442   3.745  0.0119  0.1273 -0.7061
 3372SOL     hw13486   1.007   6.464   3.652 -0.8991  0.4617 -0.7094
 3372SOL     hw13487   1.056   6.506   3.789 -1.1964  1.3582 -0.8687
 3372SOL     vw13488   1.008   6.453   3.738 -0.2677  0.3340 -0.7279
 3373SOL     ow13489   6.802   0.758   5.915 -0.0238  0.1236 -0.6858
 3373SOL     hw13490   6.868   0.797   5.859  2.5914 -2.6389  0.2380
 3373SOL     hw13491   6.790   0.669   5.881  0.2743 -1.0097  1.9008
 3373SOL     vw13492   6.809   0.751   5.903  0.3607 -0.3904 -0.2229
 3374SOL     ow13493   5.384   5.790   5.734  1.2384  0.1096  0.6332
 3374SOL     hw13494   5.389   5.714   5.676 -0.3490  1.8599 -1.9896
 3374SOL     hw13495   5.328   5.761   5.806 -1.0191 -0.7265 -1.3146
 3374SOL     vw13496   5.377   5.776   5.736  0.7312  0.2301  0.0303
 3375SOL     ow13497   6.828   1.549   2.861  0.2382  0.1575 -0.1828
 3375SOL     hw13498   6.765   1.517   2.925 -0.5827 -0.3744 -1.2197
 3375SOL     hw13499   6.792   1.631   2.829  2.3057  2.2740  2.4103
 3375SOL     vw13500   6.815   1.555   2.865  0.4027  0.3665  0.0224
 3376SOL     ow13501   5.571   2.200   4.247 -0.1676 -0.7670 -0.3679
 3376SOL     hw13502   5.573   2.127   4.185 -1.8056 -1.7983  0.6910
 3376SOL     hw13503   5.619   2.167   4.323 -2.4015 -1.5044  0.8059
 3376SOL     vw13504   5.578   2.186   4.249 -0.6785 -1.0004 -0.0734
 3377SOL     ow13505   4.296   5.157   7.434  0.0540  0.5642  0.4677
 3377SOL     hw13506   4.330   5.089   7.375 -2.1296 -1.4478  1.3815
 3377SOL     hw13507   4.245   5.215   7.378 -1.4285 -0.9339  0.2042
 3377SOL     vw13508   4.294   5.156   7.419 -0.4296  0.1013  0.5536
 3378SOL     ow13509   5.913   5.033   2.725  0.1779 -0.3995 -0.3278
 3378SOL     hw13510   5.839   5.016   2.666  0.0715 -0.0798 -0.2883
 3378SOL     hw13511   5.980   4.972   2.696 -0.1138 -0.7194 -0.3416
 3378SOL     vw13512   5.912   5.023   2.713  0.1254 -0.3996 -0.3244
 3379SOL     ow13513   1.482   4.857   1.613  0.5938  0.6406 -0.7231
 3379SOL     hw13514   1.396   4.868   1.653  0.5858 -0.0403 -0.5487
 3379SOL     hw13515   1.501   4.942   1.573 -0.7875  0.4069 -1.9863
 3379SOL     vw13516   1.473   4.870   1.613  0.4106  0.5198 -0.8668
 3380SOL     ow13517   2.160   0.589   3.692 -0.1960  0.1934 -0.1552
 3380SOL     hw13518   2.077   0.588   3.739  0.2533 -0.8456  0.6544
 3380SOL     hw13519   2.185   0.496   3.687  0.4764  0.4153 -1.1757
 3380SOL     vw13520   2.153   0.576   3.697 -0.0480  0.0856 -0.1830
 3381SOL     ow13521   6.203   3.757   5.875 -0.5223 -0.4912  0.1630
 3381SOL     hw13522   6.209   3.685   5.938  0.2204  0.6169  1.4250
 3381SOL     hw13523   6.213   3.836   5.929 -1.1540  0.5466 -1.2002
 3381SOL     vw13524   6.205   3.758   5.891 -0.5076 -0.2081  0.1495
 3382SOL     ow13525   2.165   2.146   3.843  0.6586  0.6056 -0.4075
 3382SOL     hw13526   2.199   2.175   3.759  1.6259 -1.2920 -0.7091
 3382SOL     hw13527   2.176   2.051   3.843  1.5235  0.6265  2.2005
 3382SOL     vw13528   2.171   2.138   3.832  0.9004  0.3580 -0.1031
 3383SOL     ow13529   0.693   2.820   3.751  0.0874 -0.1090  0.9395
 3383SOL     hw13530   0.772   2.842   3.701 -0.2174 -2.6570 -0.8911
 3383SOL     hw13531   0.724   2.805   3.840  1.5181 -0.1376  0.4604
 3383SOL     vw13532   0.708   2.821   3.756  0.2359 -0.4491  0.6348
 3384SOL     ow13533   3.242   4.254   1.421  0.5697  0.0453  0.3485
 3384SOL     hw13534   3.274   4.169   1.392  1.2415  0.9326 -1.6656
 3384SOL     hw13535   3.318   4.311   1.420 -0.5947  1.7990 -2.9774
 3384SOL     vw13536   3.256   4.250   1.417  0.5047  0.3936 -0.3560
 3385SOL     ow13537   6.797   5.482   3.360 -0.2151  1.1949 -0.7393
 3385SOL     hw13538   6.827   5.541   3.429  0.6344  2.0583 -1.8114
 3385SOL     hw13539   6.832   5.396   3.384  0.2449  1.5236 -0.2070
 3385SOL     vw13540   6.805   5.479   3.372 -0.0422  1.3521 -0.8104
 3386SOL     ow13541   4.870   0.634   0.081 -0.3776 -0.7011 -0.2280
 3386SOL     hw13542   4.939   0.593   0.029  2.0536  1.3239  1.1711
 3386SOL     hw13543   4.789   0.606   0.039  1.0863 -4.9676 -0.7114
 3386SOL     vw13544   4.868   0.625   0.069  0.1364 -0.9969 -0.1073
 3387SOL     ow13545   7.114   4.038   2.749 -0.0081  0.2314 -0.7872
 3387SOL     hw13546   7.172   4.111   2.768 -0.1733  0.0416  0.5705
 3387SOL     hw13547   7.055   4.071   2.681  0.6681  0.9523 -1.0364
 3387SOL     vw13548   7.114   4.052   2.743  0.0594  0.3014 -0.6410
 3388SOL     ow13549   2.217   1.794   0.024 -0.2655  0.0506 -0.2440
 3388SOL     hw13550   2.304   1.823   0.050 -0.6761  1.4287 -0.3407
 3388SOL     hw13551   2.222   1.787  -0.071 -1.1659  3.5671 -0.6893
 3388SOL     vw13552   2.229   1.797   0.015 -0.4386  0.6963 -0.3155
 3389SOL     ow13553   2.859   4.951   6.411 -0.2933 -0.4963 -0.3556
 3389SOL     hw13554   2.887   5.005   6.485 -1.5465  0.5852 -0.6234
 3389SOL     hw13555   2.912   4.872   6.417  0.8505  0.3124  0.6843
 3389SOL     vw13556   2.869   4.948   6.422 -0.3077 -0.2470 -0.2539
 3390SOL     ow13557   4.142   3.283   5.571  0.1861  0.2211 -0.2405
 3390SOL     hw13558   4.127   3.308   5.662 -1.0347 -0.6838 -0.1828
 3390SOL     hw13559   4.197   3.354   5.536 -1.9514  2.2762  0.3080
 3390SOL     vw13560   4.148   3.296   5.579 -0.2570  0.3729 -0.1607
 3391SOL     ow13561   0.249   5.071   5.652 -0.5251  0.2572 -0.0269
 3391SOL     hw13562   0.232   5.165   5.653 -0.4482  0.2886 -0.8184
 3391SOL     hw13563   0.344   5.064   5.642 -0.3216  0.0843  1.7194
 3391SOL     vw13564   0.259   5.083   5.651 -0.4881  0.2384  0.0989
 3392SOL     ow13565   2.428   6.822   3.047 -0.3622  1.0203 -0.5523
 3392SOL     hw13566   2.432   6.915   3.023  1.4083  1.2074  0.3189
 3392SOL     hw13567   2.510   6.785   3.012 -0.2212  0.1790  0.6194
 3392SOL     vw13568   2.440   6.830   3.039 -0.1099  0.9341 -0.2828
 3393SOL     ow13569   5.957   7.340   3.065 -0.2377 -0.2318 -0.4293
 3393SOL     hw13570   5.930   7.354   3.156 -1.5603 -1.0245 -0.6780
 3393SOL     hw13571   6.016   7.265   3.069  1.7218  1.2381  0.0567
 3393SOL     vw13572   5.961   7.332   3.077 -0.1535 -0.1423 -0.3980
 3394SOL     ow13573   5.443   5.534   5.604  0.6211  0.0175  0.2303
 3394SOL     hw13574   5.538   5.542   5.597  0.6131 -0.0376  0.0545
 3394SOL     hw13575   5.410   5.573   5.523  0.4908  0.1029  0.3253
 3394SOL     vw13576   5.451   5.540   5.592  0.6032  0.0217  0.2198
 3395SOL     ow13577   5.299   4.167   7.394  0.4219 -0.4877  0.4426
 3395SOL     hw13578   5.236   4.095   7.397  0.5413 -0.6600 -0.6679
 3395SOL     hw13579   5.250   4.240   7.357  1.0952 -0.9075 -1.3831
 3395SOL     vw13580   5.284   4.167   7.389  0.5264 -0.5660  0.0553
 3396SOL     ow13581   1.979   4.163   4.754 -0.1283  0.0704  0.4878
 3396SOL     hw13582   2.002   4.205   4.837  0.4476  2.4111 -0.7651
 3396SOL     hw13583   1.884   4.177   4.746  0.3097  3.3436 -0.8913
 3396SOL     vw13584   1.969   4.171   4.764  0.0054  0.8111  0.1404
 3397SOL     ow13585   7.479   0.192   2.671  0.2158 -0.7840 -0.2815
 3397SOL     hw13586   7.563   0.207   2.628  0.3174 -1.0546 -0.1782
 3397SOL     hw13587   7.497   0.126   2.738 -0.1391 -1.0648 -0.4574
 3397SOL     vw13588   7.492   0.185   2.674  0.1822 -0.8568 -0.2910
 3398SOL     ow13589   1.260   1.799   1.702  0.0495 -0.0646 -0.1840
 3398SOL     hw13590   1.296   1.822   1.617 -0.2903 -0.9676 -0.5819
 3398SOL     hw13591   1.168   1.825   1.698  0.1340  0.2735  0.0572
 3398SOL     vw13592   1.252   1.805   1.691  0.0159 -0.1391 -0.2047
 3399SOL     ow13593   3.069   1.229   7.288 -0.0387 -0.0607 -0.2000
 3399SOL     hw13594   3.146   1.266   7.246 -0.7359  1.2615 -0.3925
 3399SOL     hw13595   3.088   1.233   7.382  1.4212 -2.7963 -0.2925
 3399SOL     vw13596   3.081   1.234   7.295  0.0619 -0.2472 -0.2375
 3400SOL     ow13597   1.951   2.725   3.336 -0.2263  0.8458 -0.0968
 3400SOL     hw13598   1.943   2.630   3.323 -0.1721  0.5430  1.7062
 3400SOL     hw13599   2.043   2.739   3.356 -0.3779  1.1519  0.4125
 3400SOL     vw13600   1.962   2.714   3.337 -0.2392  0.8464  0.2083
 3401SOL     ow13601   0.583   5.208   2.281  0.6937  0.3500  0.2661
 3401SOL     hw13602   0.622   5.242   2.361 -2.1327  1.8509  1.1662
 3401SOL     hw13603   0.515   5.148   2.312 -0.3379  0.8364 -0.9925
 3401SOL     vw13604   0.579   5.204   2.296  0.1847  0.6120  0.2187
 3402SOL     ow13605   6.459   4.521   3.745  0.0623  0.2973 -0.2187
 3402SOL     hw13606   6.504   4.437   3.735 -1.8296 -0.6600 -1.3429
 3402SOL     hw13607   6.377   4.510   3.697 -2.3047  1.2575  3.2053
 3402SOL     vw13608   6.454   4.509   3.737 -0.4997  0.2975  0.0846
 3403SOL     ow13609   3.338   0.720   6.002 -0.4261 -0.2720 -0.8629
 3403SOL     hw13610   3.381   0.728   5.917 -1.0672 -0.1424 -1.1769
 3403SOL     hw13611   3.409   0.697   6.063  0.4456  1.8755 -1.0046
 3403SOL     vw13612   3.353   0.718   5.999 -0.3958  0.0284 -0.9232
 3404SOL     ow13613   6.573   5.590   3.266  0.9280 -1.1457  1.0762
 3404SOL     hw13614   6.638   5.556   3.328  0.8083 -1.5588  0.9758
 3404SOL     hw13615   6.506   5.631   3.321  1.0565 -1.0980  1.1972
 3404SOL     vw13616   6.573   5.591   3.281  0.9294 -1.1940  1.0790
 3405SOL     ow13617   6.724   2.252   0.890  0.6618  0.0710 -0.0367
 3405SOL     hw13618   6.631   2.235   0.875  1.2424 -0.8698 -3.2360
 3405SOL     hw13619   6.767   2.170   0.867  2.3099  0.0871  2.5430
 3405SOL     vw13620   6.717   2.239   0.885  0.9561 -0.0510 -0.1184
 3406SOL     ow13621   0.103   3.808   1.670  0.2494  0.2757  0.4480
 3406SOL     hw13622   0.181   3.859   1.651  0.6119 -0.0962  0.9012
 3406SOL     hw13623   0.041   3.830   1.600  1.4954 -0.9718 -1.1170
 3406SOL     vw13624   0.105   3.817   1.658  0.4616  0.0620  0.3014
 3407SOL     ow13625   6.894   4.152   3.302  0.4102 -0.0289  0.0427
 3407SOL     hw13626   6.817   4.097   3.287  0.8060  0.0407 -2.9036
 3407SOL     hw13627   6.952   4.132   3.228  2.8582  0.5686  1.7171
 3407SOL     vw13628   6.891   4.142   3.290  0.7856  0.0594 -0.1251
 3408SOL     ow13629   7.174   5.744   3.186  0.2959 -0.1684  0.0682
 3408SOL     hw13630   7.171   5.709   3.097  0.7717 -1.0843  0.4059
 3408SOL     hw13631   7.267   5.759   3.204  0.0711  3.4045 -0.8489
 3408SOL     vw13632   7.186   5.742   3.177  0.3290  0.1819 -0.0083
 3409SOL     ow13633   2.466   1.979   0.173  0.5484  0.5471 -0.3241
 3409SOL     hw13634   2.405   1.978   0.246  0.3642 -0.7464 -0.4752
 3409SOL     hw13635   2.529   1.910   0.193  0.8684  0.6110 -1.0742
 3409SOL     vw13636   2.466   1.970   0.185  0.5662  0.3849 -0.4430
 3410SOL     ow13637   1.076   1.717   4.606  0.4836 -0.0593 -0.6885
 3410SOL     hw13638   1.123   1.721   4.689 -0.3406  0.3528 -0.2264
 3410SOL     hw13639   0.985   1.737   4.629 -0.4062 -2.9752 -1.1898
 3410SOL     vw13640   1.070   1.720   4.620  0.2574 -0.3897 -0.6938
 3411SOL     ow13641   3.189   1.828   2.895  0.1811 -0.4205  0.5078
 3411SOL     hw13642   3.128   1.863   2.830  1.5497  0.3768 -0.4004
 3411SOL     hw13643   3.133   1.785   2.960 -1.3073 -0.0590 -0.4834
 3411SOL     vw13644   3.174   1.827   2.895  0.1653 -0.2677  0.2573
 3412SOL     ow13645   3.713   0.313   4.467  0.4034  0.4780  0.0104
 3412SOL     hw13646   3.779   0.349   4.526  1.5726  0.7353 -1.3868
 3412SOL     hw13647   3.678   0.390   4.421  0.7349  0.1315 -0.8389
 3412SOL     vw13648   3.717   0.328   4.469  0.6015  0.4662 -0.2861
 3413SOL     ow13649   0.423   0.151   3.933 -0.2530 -0.1770 -0.0890
 3413SOL     hw13650   0.366   0.213   3.886 -1.2116 -0.7989  0.2206
 3413SOL     hw13651   0.414   0.175   4.025  0.3036 -0.0329 -0.0679
 3413SOL     vw13652   0.414   0.163   3.939 -0.3060 -0.2400 -0.0454
 3414SOL     ow13653   2.213   5.545   5.986 -0.5894  0.3464  0.2544
 3414SOL     hw13654   2.206   5.640   6.001  0.0426  0.1032  2.4116
 3414SOL     hw13655   2.307   5.527   5.987 -0.6556 -0.2032 -1.1406
 3414SOL     vw13656   2.224   5.555   5.988 -0.5149  0.2418  0.3548
 3415SOL     ow13657   5.754   0.956   3.311 -0.4835 -0.3685  0.6779
 3415SOL     hw13658   5.823   0.914   3.260  0.4490  0.4274  1.2553
 3415SOL     hw13659   5.675   0.906   3.290  0.1591 -0.9694 -0.3961
 3415SOL     vw13660   5.753   0.944   3.302 -0.2756 -0.3427  0.6123
 3416SOL     ow13661   1.386   4.319   5.566  0.1954 -0.1750  0.5749
 3416SOL     hw13662   1.441   4.381   5.517 -2.0845  0.4943 -1.3338
 3416SOL     hw13663   1.367   4.365   5.648 -2.0993  2.1656 -1.1188
 3416SOL     vw13664   1.391   4.333   5.571 -0.4082  0.2222  0.0997
 3417SOL     ow13665   7.489   3.724   6.762  0.5891  0.2724 -0.9457
 3417SOL     hw13666   7.446   3.807   6.738  0.3411  0.1607 -0.8911
 3417SOL     hw13667   7.560   3.750   6.820  1.3484  0.5776 -1.9669
 3417SOL     vw13668   7.493   3.739   6.766  0.6566  0.2980 -1.0731
 3418SOL     ow13669   7.208   2.811   5.559  0.3160 -0.3513 -0.6185
 3418SOL     hw13670   7.138   2.773   5.613  0.5367  0.1719  0.0464
 3418SOL     hw13671   7.260   2.735   5.531  1.1670 -0.5311  1.2862
 3418SOL     vw13672   7.206   2.796   5.562  0.4573 -0.3059 -0.2794
 3419SOL     ow13673   0.576   3.777   4.246 -0.3109 -0.4409 -0.6943
 3419SOL     hw13674   0.648   3.795   4.186  1.3047  1.6560  1.6717
 3419SOL     hw13675   0.536   3.862   4.262 -1.4858 -1.1451  0.2338
 3419SOL     vw13676   0.580   3.790   4.240 -0.2528 -0.2573 -0.2596
 3420SOL     ow13677   0.833   0.106   0.268  0.2210  0.0266 -0.5381
 3420SOL     hw13678   0.913   0.096   0.215  0.2885 -1.0355 -0.2564
 3420SOL     hw13679   0.863   0.095   0.358 -0.3092 -0.7994 -0.4562
 3420SOL     vw13680   0.848   0.103   0.273  0.1599 -0.2225 -0.4901
 3421SOL     ow13681   0.137   3.589   6.834 -1.0745 -0.2732 -0.5625
 3421SOL     hw13682   0.128   3.540   6.916  2.5444  1.4751  1.0977
 3421SOL     hw13683   0.111   3.678   6.856  0.3298  0.3118 -1.1519
 3421SOL     vw13684   0.133   3.594   6.848 -0.4117  0.0348 -0.4213
 3422SOL     ow13685   4.089   5.443   2.735  0.2520  0.0759 -0.3228
 3422SOL     hw13686   4.101   5.532   2.767  1.6704 -0.5901  1.1500
 3422SOL     hw13687   4.099   5.388   2.813  0.5846 -1.4446 -1.3912
 3422SOL     vw13688   4.092   5.448   2.750  0.4830 -0.2129 -0.2693
 3423SOL     ow13689   4.410   3.084   7.462  0.3651  0.3486  0.6139
 3423SOL     hw13690   4.426   2.989   7.461  0.2845  0.3342 -1.2598
 3423SOL     hw13691   4.464   3.118   7.391 -0.1215  1.6330  0.8467
 3423SOL     vw13692   4.420   3.076   7.453  0.2902  0.5162  0.3974
 3424SOL     ow13693   0.948   4.162   5.284  0.3851 -0.0691 -0.1683
 3424SOL     hw13694   1.024   4.155   5.341  1.1557  0.4603 -1.0891
 3424SOL     hw13695   0.985   4.159   5.195 -0.8205 -1.4686 -0.6683
 3424SOL     vw13696   0.963   4.160   5.280  0.3277 -0.1841 -0.3560
 3425SOL     ow13697   5.790   1.770   2.479  0.3190 -0.1649  0.2837
 3425SOL     hw13698   5.727   1.813   2.421  2.2919  0.2209 -1.7036
 3425SOL     hw13699   5.836   1.707   2.422  1.2985 -0.8856  1.8061
 3425SOL     vw13700   5.788   1.767   2.464  0.7086 -0.2092  0.2226
 3426SOL     ow13701   3.429   1.285   2.714  0.3887  0.2544 -0.0533
 3426SOL     hw13702   3.339   1.312   2.694  0.7966  0.7787 -1.3002
 3426SOL     hw13703   3.446   1.320   2.801 -0.9183 -0.6588  0.6085
 3426SOL     vw13704   3.419   1.293   2.723  0.2702  0.2031 -0.1307
 3427SOL     ow13705   4.184   2.975   1.034 -0.3310 -0.0719 -0.0501
 3427SOL     hw13706   4.108   3.019   0.995  0.8246  2.1137 -0.0157
 3427SOL     hw13707   4.225   3.043   1.087 -1.3282 -2.6164  4.4400
 3427SOL     vw13708   4.179   2.990   1.036 -0.3102 -0.1192  0.5468
 3428SOL     ow13709   5.041   2.693   2.792  0.2521  0.0264 -0.2971
 3428SOL     hw13710   5.038   2.730   2.704 -0.0692  0.0088 -0.2964
 3428SOL     hw13711   4.963   2.637   2.797  1.5337 -1.9134 -0.8498
 3428SOL     vw13712   5.030   2.690   2.781  0.3788 -0.2319 -0.3700
 3429SOL     ow13713   7.165   4.937   2.453  0.1823  0.3304 -0.1542
 3429SOL     hw13714   7.077   4.963   2.479  0.6226  4.3339 -1.8993
 3429SOL     hw13715   7.216   4.939   2.535 -0.9631 -0.2521  0.5917
 3429SOL     vw13716   7.160   4.941   2.467  0.0892  0.7815 -0.2860
 3430SOL     ow13717   6.220   4.406   3.999  0.1604  0.5719  0.4761
 3430SOL     hw13718   6.125   4.406   3.986 -0.0706 -3.3720  0.9400
 3430SOL     hw13719   6.257   4.409   3.911 -0.6131 -2.0176 -0.0011
 3430SOL     vw13720   6.213   4.407   3.986  0.0279 -0.2902  0.4743
 3431SOL     ow13721   3.608   5.018   2.347 -0.7228 -1.1769 -0.7616
 3431SOL     hw13722   3.612   5.029   2.252  0.7465  0.1230 -0.5953
 3431SOL     hw13723   3.691   5.053   2.378 -2.6563  2.1590  1.2930
 3431SOL     vw13724   3.619   5.024   2.338 -0.7840 -0.5653 -0.4686
 3432SOL     ow13725   4.319   1.896   4.648  0.4487  0.3970  0.6767
 3432SOL     hw13726   4.241   1.841   4.650  1.6389 -1.3597  0.6831
 3432SOL     hw13727   4.347   1.895   4.557 -1.8095  4.5387 -0.3291
 3432SOL     vw13728   4.312   1.889   4.637  0.3080  0.7117  0.5450
 3433SOL     ow13729   3.602   0.714   7.255  0.3058 -0.1490  0.0621
 3433SOL     hw13730   3.690   0.725   7.291  0.1382 -0.6619  0.6473
 3433SOL     hw13731   3.597   0.622   7.231  0.5665  0.2630 -1.7248
 3433SOL     vw13732   3.613   0.704   7.257  0.3179 -0.1623 -0.0966
 3434SOL     ow13733   4.829   6.700   6.063  0.4329  0.5300  0.7722
 3434SOL     hw13734   4.902   6.681   6.123  0.9012  3.4409  1.2982
 3434SOL     hw13735   4.854   6.783   6.022 -2.7909  1.9363  1.3645
 3434SOL     vw13736   4.842   6.709   6.066  0.0691  1.0996  0.9198
 3435SOL     ow13737   6.515   3.335   5.923 -0.1880 -0.8577  0.6514
 3435SOL     hw13738   6.495   3.261   5.867 -1.0419 -0.8581  0.9402
 3435SOL     hw13739   6.550   3.402   5.864 -0.7949 -0.9652  0.1576
 3435SOL     vw13740   6.517   3.334   5.908 -0.3805 -0.8720  0.6244
 3436SOL     ow13741   0.888   3.624   4.582  1.3669 -0.0775  0.1009
 3436SOL     hw13742   0.858   3.706   4.544 -2.0219 -1.4105 -0.4920
 3436SOL     hw13743   0.908   3.645   4.673 -1.5652  1.0673  0.5753
 3436SOL     vw13744   0.887   3.637   4.589  0.5330 -0.1023  0.0854
 3437SOL     ow13745   4.516   7.496   1.496 -0.2342  0.7123  0.2000
 3437SOL     hw13746   4.425   7.467   1.496  0.0951 -0.3813  0.3253
 3437SOL     hw13747   4.559   7.439   1.559  1.1832 -0.9532 -2.1245
 3437SOL     vw13748   4.510   7.485   1.504 -0.0036  0.3481 -0.0902
 3438SOL     ow13749   1.900   0.572   4.108  0.1671  0.1457 -0.0402
 3438SOL     hw13750   1.819   0.526   4.131 -1.8503  2.1419 -2.4828
 3438SOL     hw13751   1.937   0.599   4.192 -1.2497 -1.5154  1.1869
 3438SOL     vw13752   1.894   0.569   4.122 -0.2860  0.1899 -0.2007
 3439SOL     ow13753   6.044   3.968   5.777  0.2419  0.4767  0.2491
 3439SOL     hw13754   5.953   3.976   5.806  0.4798 -1.4062  1.7016
 3439SOL     hw13755   6.095   4.010   5.848  0.5500  1.4165 -0.4980
 3439SOL     vw13756   6.039   3.975   5.790  0.3138  0.3521  0.3421
 3440SOL     ow13757   7.281   3.065   1.982  0.1668 -0.1534  0.2007
 3440SOL     hw13758   7.278   3.144   2.037 -0.8814 -0.4667  0.6261
 3440SOL     hw13759   7.326   3.093   1.903 -1.5956  1.3300 -0.3460
 3440SOL     vw13760   7.286   3.079   1.979 -0.2041  0.0008  0.1847
 3441SOL     ow13761   1.216   2.754   1.796 -0.4679  0.0380 -0.2494
 3441SOL     hw13762   1.224   2.846   1.822 -0.8571 -0.0402  0.1616
 3441SOL     hw13763   1.225   2.755   1.701 -2.7795  0.7947 -0.5190
 3441SOL     vw13764   1.218   2.766   1.787 -0.8242  0.1276 -0.2307
 3442SOL     ow13765   4.603   0.040   1.236  0.4080  0.8168 -0.3774
 3442SOL     hw13766   4.525   0.019   1.185  0.6679  0.2319 -0.5465
 3442SOL     hw13767   4.675   0.028   1.174  0.9217 -1.8770  0.6042
 3442SOL     vw13768   4.603   0.035   1.221  0.5100  0.3843 -0.2701
 3443SOL     ow13769   4.260   2.366   5.295 -0.0165 -0.8161  0.2668
 3443SOL     hw13770   4.166   2.355   5.281  0.3247 -2.4075 -1.0871
 3443SOL     hw13771   4.282   2.446   5.248 -0.1511 -2.2888 -2.4618
 3443SOL     vw13772   4.250   2.375   5.287  0.0107 -1.2203 -0.2718
 3444SOL     ow13773   6.723   4.081   6.364  0.7476 -0.0605  0.2361
 3444SOL     hw13774   6.772   4.140   6.421  0.7183  1.3990 -1.1668
 3444SOL     hw13775   6.725   4.124   6.278 -0.2974 -1.5335 -0.5658
 3444SOL     vw13776   6.729   4.095   6.360  0.6058 -0.0625 -0.0548
 3445SOL     ow13777   0.180   5.197   6.559  0.6493  0.4308 -0.0115
 3445SOL     hw13778   0.185   5.102   6.572  0.0850  0.3241 -0.5355
 3445SOL     hw13779   0.095   5.221   6.597  0.0798  0.4842 -1.2808
 3445SOL     vw13780   0.169   5.188   6.566  0.4997  0.4239 -0.2482
 3446SOL     ow13781   4.390   6.121   3.691 -0.1324 -0.2775 -0.3211
 3446SOL     hw13782   4.482   6.108   3.712 -0.1808  0.6264  0.5094
 3446SOL     hw13783   4.357   6.181   3.758 -0.3310  2.6239 -2.7546
 3446SOL     vw13784   4.398   6.127   3.702 -0.1650  0.2246 -0.5325
 3447SOL     ow13785   3.670   6.451   1.556 -0.2847  0.2845  0.2608
 3447SOL     hw13786   3.749   6.502   1.543 -0.4328  1.1666  2.4368
 3447SOL     hw13787   3.701   6.367   1.591 -0.2345  0.0645 -0.3036
 3447SOL     vw13788   3.684   6.447   1.559 -0.2975  0.3719  0.4734
 3448SOL     ow13789   0.790   0.364   0.969 -0.3296  0.2148 -0.0699
 3448SOL     hw13790   0.797   0.287   1.026  0.0512 -0.8488 -1.4842
 3448SOL     hw13791   0.769   0.436   1.028  0.0141 -0.8389  1.4011
 3448SOL     vw13792   0.788   0.363   0.984 -0.2340 -0.0645 -0.0624
 3449SOL     ow13793   3.296   3.774   3.099  0.6024 -0.4141  0.6329
 3449SOL     hw13794   3.247   3.807   3.174  2.6132  0.3318  1.7070
 3449SOL     hw13795   3.336   3.852   3.060  0.8470 -0.9664 -0.2566
 3449SOL     vw13796   3.295   3.789   3.103  0.8999 -0.3885  0.6573
 3450SOL     ow13797   5.359   1.124   2.566 -0.2204  0.2865 -0.1590
 3450SOL     hw13798   5.299   1.111   2.639  2.5490 -1.3514  2.0563
 3450SOL     hw13799   5.345   1.214   2.538 -1.8967  0.7228  1.9136
 3450SOL     vw13800   5.350   1.134   2.572 -0.0763  0.1280  0.4067
 3451SOL     ow13801   3.508   0.576   4.150  0.2597 -0.1401 -0.3120
 3451SOL     hw13802   3.455   0.517   4.203 -2.1618  3.2667  1.3707
 3451SOL     hw13803   3.599   0.551   4.169 -0.6181 -2.3120  1.3791
 3451SOL     vw13804   3.513   0.565   4.159 -0.1756  0.0228  0.1333
 3452SOL     ow13805   2.852   7.013   5.162  0.0728  0.4094 -0.1300
 3452SOL     hw13806   2.782   6.952   5.137 -0.2162  0.5954  0.2145
 3452SOL     hw13807   2.820   7.098   5.133 -0.2539  0.6244  0.8312
 3452SOL     vw13808   2.838   7.016   5.155 -0.0083  0.4623  0.0424
 3453SOL     ow13809   0.044   4.592   4.872  0.1924  0.2055  0.4820
 3453SOL     hw13810   0.033   4.536   4.949  2.4976 -0.9081  0.0870
 3453SOL     hw13811   0.111   4.655   4.899  1.3257 -0.4573 -0.7056
 3453SOL     vw13812   0.051   4.593   4.886  0.6461 -0.0288  0.2732
 3454SOL     ow13813   6.818   3.916   5.287  0.2288 -0.5745  0.1855
 3454SOL     hw13814   6.823   4.003   5.248 -1.8475 -0.5746 -0.1810
 3454SOL     hw13815   6.831   3.856   5.214 -1.8851 -0.5570 -0.2652
 3454SOL     vw13816   6.820   3.919   5.272 -0.3240 -0.5722  0.0777
 3455SOL     ow13817   5.295   4.353   0.237 -0.2021  0.0840 -0.6684
 3455SOL     hw13818   5.214   4.400   0.255 -1.0765 -1.7396  0.3350
 3455SOL     hw13819   5.361   4.423   0.228 -1.6864  1.5531 -0.6640
 3455SOL     vw13820   5.293   4.369   0.238 -0.5133  0.0372 -0.5355
 3456SOL     ow13821   3.747   5.320   7.255  0.2823  0.0213  1.0380
 3456SOL     hw13822   3.752   5.396   7.314 -0.3725 -0.0800  1.2262
 3456SOL     hw13823   3.745   5.244   7.314 -0.5545 -0.0726  0.8937
 3456SOL     vw13824   3.748   5.320   7.271  0.0855 -0.0043  1.0436
 3457SOL     ow13825   5.572   5.889   2.339  0.0193 -0.3316  0.5122
 3457SOL     hw13826   5.555   5.918   2.429  0.7457 -0.7726  0.7988
 3457SOL     hw13827   5.616   5.963   2.298  1.4296 -0.8171  1.0976
 3457SOL     vw13828   5.576   5.903   2.345  0.3014 -0.4537  0.6272
 3458SOL     ow13829   4.643   1.850   5.443 -0.1168  0.0470 -0.2578
 3458SOL     hw13830   4.659   1.838   5.350 -0.5309 -1.7936 -0.1380
 3458SOL     hw13831   4.547   1.844   5.452 -0.0251 -0.7041  0.3722
 3458SOL     vw13832   4.632   1.847   5.432 -0.1595 -0.2949 -0.1590
 3459SOL     ow13833   4.355   4.737   4.165  0.3335  0.6941 -0.0260
 3459SOL     hw13834   4.384   4.701   4.248  1.6689  2.5815  0.3837
 3459SOL     hw13835   4.321   4.823   4.186 -1.0791  0.4658 -1.2056
 3459SOL     vw13836   4.355   4.743   4.178  0.3235  0.9131 -0.1273
 3460SOL     ow13837   3.924   5.815   4.365 -0.3789  0.1611 -0.1289
 3460SOL     hw13838   3.961   5.824   4.277 -0.1146  1.4172  0.0914
 3460SOL     hw13839   3.992   5.849   4.423 -0.1776 -1.4789  0.6760
 3460SOL     vw13840   3.938   5.820   4.361 -0.3175  0.1104  0.0064
 3461SOL     ow13841   4.378   1.931   5.089  0.4980 -0.1567  0.5036
 3461SOL     hw13842   4.403   1.839   5.097  0.4471 -0.0145  3.6177
 3461SOL     hw13843   4.344   1.954   5.175  1.1026  2.9687  0.0280
 3461SOL     vw13844   4.377   1.922   5.101  0.5710  0.2745  0.8516
 3462SOL     ow13845   0.729   1.730   3.059 -1.0691 -0.4975 -0.8775
 3462SOL     hw13846   0.700   1.676   2.985  0.7680 -2.2021 -0.4267
 3462SOL     hw13847   0.687   1.691   3.135 -1.4200  0.0792 -0.7612
 3462SOL     vw13848   0.719   1.718   3.059 -0.8730 -0.6462 -0.8028
 3463SOL     ow13849   7.357   1.254   1.737  0.1383  0.7677 -0.0918
 3463SOL     hw13850   7.402   1.247   1.653 -0.2845 -2.2789 -0.1863
 3463SOL     hw13851   7.269   1.286   1.714  0.3389  0.8929 -0.6948
 3463SOL     vw13852   7.351   1.257   1.722  0.1087  0.3823 -0.1838
 3464SOL     ow13853   5.322   5.078   3.274  0.8226  0.1297 -0.3242
 3464SOL     hw13854   5.366   5.068   3.359 -0.4803 -0.9039  0.2579
 3464SOL     hw13855   5.233   5.046   3.288  0.5337  0.0488 -2.0575
 3464SOL     vw13856   5.316   5.072   3.287  0.6125 -0.0174 -0.4761
 3465SOL     ow13857   5.908   2.539   4.763 -0.5778 -1.0904  0.7414
 3465SOL     hw13858   5.981   2.492   4.803 -2.2261 -2.9607  1.7215
 3465SOL     hw13859   5.859   2.472   4.715 -1.7299  0.0896  0.1885
 3465SOL     vw13860   5.911   2.524   4.762 -0.9472 -1.1814  0.7980
 3466SOL     ow13861   3.278   1.897   2.272  0.0106 -0.0020  0.2246
 3466SOL     hw13862   3.226   1.974   2.249  0.8529 -0.2379 -2.8011
 3466SOL     hw13863   3.218   1.823   2.262 -0.5648  0.0923  2.3429
 3466SOL     vw13864   3.263   1.897   2.268  0.0459 -0.0207  0.1050
 3467SOL     ow13865   0.395   1.122   2.510 -0.5457 -0.4332 -0.3715
 3467SOL     hw13866   0.478   1.134   2.557 -1.4657  0.2862  1.1736
 3467SOL     hw13867   0.379   1.028   2.513  0.7382 -0.7279 -1.6926
 3467SOL     vw13868   0.404   1.111   2.517 -0.4977 -0.3772 -0.3420
 3468SOL     ow13869   5.011   1.232   6.241  0.5485 -0.0659 -0.5978
 3468SOL     hw13870   5.044   1.164   6.182  1.4594  1.9570 -2.5606
 3468SOL     hw13871   5.057   1.312   6.214 -1.0980  1.5352  1.0381
 3468SOL     vw13872   5.022   1.234   6.230  0.4513  0.4122 -0.6411
 3469SOL     ow13873   2.070   1.101   6.398  0.4341 -0.6353 -0.4249
 3469SOL     hw13874   2.024   1.017   6.399 -0.2361 -0.3233  2.2820
 3469SOL     hw13875   2.001   1.166   6.380  0.6329 -0.5337 -0.8161
 3469SOL     vw13876   2.054   1.099   6.396  0.3719 -0.5807 -0.1194
 3470SOL     ow13877   0.981   1.293   1.626  0.5411  0.2861 -0.0444
 3470SOL     hw13878   0.894   1.281   1.589  0.2748  1.6528  0.0791
 3470SOL     hw13879   1.040   1.284   1.551  0.4091 -1.7499  0.0603
 3470SOL     vw13880   0.977   1.290   1.611  0.4886  0.1978 -0.0144
 3471SOL     ow13881   6.687   7.233   0.206  0.2260 -0.0065  0.4097
 3471SOL     hw13882   6.740   7.157   0.228 -0.2558  0.0659  1.9865
 3471SOL     hw13883   6.722   7.303   0.261  0.5956  0.9051 -0.9458
 3471SOL     vw13884   6.698   7.232   0.217  0.2108  0.1233  0.4389
 3472SOL     ow13885   7.204   1.255   0.630 -0.4442  0.1822 -0.2762
 3472SOL     hw13886   7.171   1.168   0.609  0.0347 -0.1089  0.1601
 3472SOL     hw13887   7.254   1.282   0.552 -0.5521  0.0470 -0.3912
 3472SOL     vw13888   7.206   1.247   0.617 -0.3953  0.1260 -0.2338
 3473SOL     ow13889   4.991   3.364   2.915 -0.0028 -0.1500 -0.5237
 3473SOL     hw13890   4.972   3.432   2.980 -0.7049 -2.7896  2.3229
 3473SOL     hw13891   4.913   3.359   2.861 -0.5273  0.3654  0.1691
 3473SOL     vw13892   4.978   3.372   2.917 -0.1645 -0.4302 -0.0567
 3474SOL     ow13893   4.035   5.915   3.232  0.4111  0.0659 -0.2902
 3474SOL     hw13894   4.009   5.971   3.158  1.7047 -1.3684 -1.9300
 3474SOL     hw13895   4.020   5.826   3.200  0.7799 -0.5902  1.3003
 3474SOL     vw13896   4.029   5.911   3.218  0.6304 -0.2098 -0.2967
 3475SOL     ow13897   7.474   7.404   1.268 -0.1124 -0.8255 -0.8510
 3475SOL     hw13898   7.488   7.421   1.361  1.3092 -2.4486 -0.7076
 3475SOL     hw13899   7.424   7.322   1.266 -0.0707 -0.8411 -1.5000
 3475SOL     vw13900   7.469   7.395   1.280  0.0806 -1.0417 -0.9177
 3476SOL     ow13901   0.351   6.041   2.189 -0.4365  0.3671  0.5680
 3476SOL     hw13902   0.411   6.012   2.257  1.1358  0.4742 -0.6992
 3476SOL     hw13903   0.328   6.130   2.214  0.7989  0.7144  0.5713
 3476SOL     vw13904   0.356   6.049   2.201 -0.0660  0.4270  0.4014
 3477SOL     ow13905   0.055   3.679   3.896  0.3331  0.0918  0.0059
 3477SOL     hw13906   0.068   3.591   3.861 -1.0901 -0.1967  0.1054
 3477SOL     hw13907   0.121   3.732   3.853 -0.0239 -0.6631 -1.5522
 3477SOL     vw13908   0.065   3.674   3.886  0.0982 -0.0459 -0.1866
 3478SOL     ow13909   1.296   3.084   4.647 -0.9749  0.3103  0.4499
 3478SOL     hw13910   1.381   3.047   4.623 -1.3422 -0.6851  0.6295
 3478SOL     hw13911   1.263   3.124   4.566  0.2814  1.9988  0.7187
 3478SOL     vw13912   1.303   3.085   4.633 -0.8576  0.4016  0.5093
 3479SOL     ow13913   1.489   1.139   2.569  0.4693  0.1852 -0.5508
 3479SOL     hw13914   1.466   1.048   2.587  1.7299 -0.3587 -1.5133
 3479SOL     hw13915   1.411   1.176   2.528  0.0890 -0.5817 -0.5475
 3479SOL     vw13916   1.476   1.132   2.566  0.5854  0.0123 -0.6775
 3480SOL     ow13917   5.823   7.022   6.011  0.5094  0.6624 -0.0280
 3480SOL     hw13918   5.878   6.990   5.940 -0.2336 -0.4187 -0.1368
 3480SOL     hw13919   5.838   7.117   6.012  0.2261  0.7615 -1.8893
 3480SOL     vw13920   5.832   7.031   6.002  0.3741  0.5331 -0.2880
 3481SOL     ow13921   5.721   6.111   2.224 -0.4117 -0.1049  0.9136
 3481SOL     hw13922   5.788   6.139   2.161  0.7724 -4.1809  0.0176
 3481SOL     hw13923   5.745   6.153   2.306  2.2847 -0.0764  0.2022
 3481SOL     vw13924   5.733   6.120   2.226  0.1004 -0.6387  0.7015
 3482SOL     ow13925   5.808   7.359   2.779 -0.8786  0.9290  0.5932
 3482SOL     hw13926   5.869   7.287   2.763  2.0767  3.6056 -1.1749
 3482SOL     hw13927   5.789   7.354   2.873  1.2501 -0.6464  1.0017
 3482SOL     vw13928   5.813   7.349   2.790 -0.2081  1.0743  0.4139
 3483SOL     ow13929   3.229   4.713   2.362 -0.5186  0.0666 -0.9869
 3483SOL     hw13930   3.264   4.685   2.277  5.5931  2.0387  0.3913
 3483SOL     hw13931   3.239   4.808   2.362 -1.4335  0.2287  1.5499
 3483SOL     vw13932   3.235   4.722   2.351  0.1670  0.3483 -0.4704
 3484SOL     ow13933   5.197   4.642   2.155 -0.7802  0.6366  0.4164
 3484SOL     hw13934   5.264   4.580   2.183 -1.5768 -0.6563 -0.4285
 3484SOL     hw13935   5.234   4.683   2.077 -0.2578  1.2467  0.9691
 3484SOL     vw13936   5.211   4.639   2.148 -0.8163  0.5465  0.3779
 3485SOL     ow13937   7.094   1.550   0.105  0.5802  0.1109 -0.9087
 3485SOL     hw13938   7.130   1.498   0.033  2.5941  0.4720 -0.2380
 3485SOL     hw13939   7.015   1.503   0.132  0.7408 -0.9670 -2.2033
 3485SOL     vw13940   7.088   1.537   0.099  0.8674  0.0163 -0.9910
 3486SOL     ow13941   5.350   6.857   2.546 -0.0823  0.2821  0.5013
 3486SOL     hw13942   5.362   6.950   2.563 -1.4406  0.1894  2.1833
 3486SOL     hw13943   5.426   6.833   2.492 -1.3281  3.0027 -2.8719
 3486SOL     vw13944   5.362   6.866   2.541 -0.4256  0.6285  0.2781
 3487SOL     ow13945   3.370   7.217   7.551 -0.6965 -0.1367 -0.2322
 3487SOL     hw13946   3.372   7.218   7.455 -0.4843  0.6717 -0.2328
 3487SOL     hw13947   3.453   7.257   7.576 -1.1465  0.4884  0.2758
 3487SOL     vw13948   3.381   7.223   7.541 -0.7278  0.0522 -0.1652
 3488SOL     ow13949   0.965   2.992   6.327 -0.1778 -0.2428 -0.4114
 3488SOL     hw13950   1.024   2.981   6.402 -0.0968 -1.3551 -0.6260
 3488SOL     hw13951   1.014   3.049   6.267 -0.2074  0.5811  0.3215
 3488SOL     vw13952   0.979   2.998   6.329 -0.1710 -0.2809 -0.3431
 3489SOL     ow13953   5.948   3.645   5.749 -0.2004 -0.2001  0.2386
 3489SOL     hw13954   5.888   3.612   5.683 -0.3177  1.8987 -0.7933
 3489SOL     hw13955   5.900   3.637   5.832 -0.6610 -1.3898 -0.1177
 3489SOL     vw13956   5.934   3.639   5.752 -0.2768 -0.0801  0.0556
 3490SOL     ow13957   3.736   3.015   0.281  0.1396  1.0902  0.4448
 3490SOL     hw13958   3.824   2.978   0.287 -0.2488  0.3634  2.2692
 3490SOL     hw13959   3.698   2.972   0.204  2.1773  3.3693 -2.0199
 3490SOL     vw13960   3.743   3.004   0.271  0.3574  1.2950  0.3603
 3491SOL     ow13961   3.224   3.034   0.984  0.3447 -0.7185 -0.3204
 3491SOL     hw13962   3.317   3.015   0.999  1.3415  2.7303 -1.2609
 3491SOL     hw13963   3.204   3.107   1.043 -0.3460  1.7152 -3.2844
 3491SOL     vw13964   3.234   3.041   0.993  0.3852  0.0576 -0.8355
 3492SOL     ow13965   0.508   6.635   2.199  0.0094  0.4573 -0.0213
 3492SOL     hw13966   0.557   6.627   2.117  0.8993 -1.0464  0.6085
 3492SOL     hw13967   0.418   6.650   2.172  0.1554 -0.7557 -1.3051
 3492SOL     vw13968   0.503   6.636   2.185  0.1461  0.0989 -0.1076
 3493SOL     ow13969   3.116   0.839   4.494 -0.1360 -0.0883 -0.0082
 3493SOL     hw13970   3.148   0.779   4.427  2.8923  0.0931  1.0965
 3493SOL     hw13971   3.089   0.783   4.566  1.2727 -0.2536  0.4373
 3493SOL     vw13972   3.117   0.824   4.495  0.4494 -0.0862  0.1965
 3494SOL     ow13973   5.953   4.446   4.344 -0.0197  0.3340 -0.1428
 3494SOL     hw13974   5.882   4.476   4.287 -1.7742 -1.5875  0.8960
 3494SOL     hw13975   5.958   4.352   4.327  0.4394 -0.0133  1.7742
 3494SOL     vw13976   5.945   4.437   4.334 -0.1905  0.0343  0.2475
 3495SOL     ow13977   4.109   3.562   6.268  0.2538  0.4316  0.4364
 3495SOL     hw13978   4.026   3.551   6.314  1.3138  3.5626  3.5503
 3495SOL     hw13979   4.159   3.483   6.291 -2.0717 -2.2098 -2.6360
 3495SOL     vw13980   4.105   3.550   6.277  0.0870  0.4960  0.4420
 3496SOL     ow13981   6.338   5.332   2.720  0.5850 -0.7441 -0.2467
 3496SOL     hw13982   6.319   5.269   2.650  2.1508 -1.1316 -0.3561
 3496SOL     hw13983   6.388   5.401   2.677  0.8650 -0.5830  0.3308
 3496SOL     vw13984   6.342   5.333   2.705  0.8285 -0.7739 -0.1850
 3497SOL     ow13985   6.517   5.072   2.342 -0.0630 -0.2564  0.3796
 3497SOL     hw13986   6.450   5.123   2.297 -1.0788 -1.6318  0.2703
 3497SOL     hw13987   6.580   5.050   2.274  0.7239  1.3354  0.5527
 3497SOL     vw13988   6.516   5.076   2.327 -0.0930 -0.2279  0.3881
 3498SOL     ow13989   4.067   0.678   5.437  0.7951 -0.4314 -0.2187
 3498SOL     hw13990   4.044   0.607   5.377  0.8204 -2.2399  1.7749
 3498SOL     hw13991   4.161   0.666   5.453  0.9352  0.4539 -0.3369
 3498SOL     vw13992   4.077   0.667   5.431  0.8171 -0.5532  0.0291
 3499SOL     ow13993   3.064   0.242   4.716  0.8948  0.3887  0.1839
 3499SOL     hw13994   3.116   0.244   4.635 -0.0253 -1.9765 -0.5381
 3499SOL     hw13995   3.120   0.196   4.779  1.5102  2.0128  0.8774
 3499SOL     vw13996   3.078   0.236   4.713  0.8547  0.2910  0.1805
 3500SOL     ow13997   5.756   7.312   6.342 -0.2402  0.3160  0.1390
 3500SOL     hw13998   5.834   7.269   6.377 -0.0216 -0.6445 -1.4605
 3500SOL     hw13999   5.704   7.334   6.420  0.0251 -2.1024  1.0785
 3500SOL     vw14000   5.759   7.309   6.357 -0.1767 -0.1299  0.0520
 3501SOL     ow14001   5.381   1.604   3.010 -0.3818 -0.2454 -0.0044
 3501SOL     hw14002   5.310   1.574   2.953  1.6099 -1.1366 -2.2020
 3501SOL     hw14003   5.456   1.551   2.983  1.4565  1.5882  1.2715
 3501SOL     vw14004   5.381   1.593   2.999  0.1235 -0.1211 -0.1260
 3502SOL     ow14005   2.096   5.135   4.747 -0.0418 -0.8939 -0.1124
 3502SOL     hw14006   2.184   5.100   4.757 -0.3041 -1.6855 -0.5124
 3502SOL     hw14007   2.082   5.186   4.827  1.6528  1.2794 -1.0928
 3502SOL     vw14008   2.106   5.137   4.759  0.1472 -0.7114 -0.2944
 3503SOL     ow14009   0.361   5.358   0.544 -0.5351 -0.0638  0.1237
 3503SOL     hw14010   0.283   5.314   0.577 -1.0214  0.5555 -0.1793
 3503SOL     hw14011   0.433   5.322   0.595 -1.1551  0.1711  1.1849
 3503SOL     vw14012   0.361   5.348   0.555 -0.6811  0.0491  0.2238
 3504SOL     ow14013   6.875   1.830   6.710  0.0319  0.6445 -0.2956
 3504SOL     hw14014   6.944   1.843   6.644  1.0722  0.4614  0.7239
 3504SOL     hw14015   6.868   1.734   6.717 -0.3421  0.6642 -0.4064
 3504SOL     vw14016   6.883   1.819   6.702  0.1199  0.6229 -0.1755
 3505SOL     ow14017   6.862   2.511   3.819  0.3173 -0.3190 -0.2395
 3505SOL     hw14018   6.928   2.578   3.800 -0.2143  0.7506  1.4919
 3505SOL     hw14019   6.779   2.552   3.794  0.1899 -1.3149 -1.5449
 3505SOL     vw14020   6.860   2.525   3.813  0.2303 -0.3096 -0.1832
 3506SOL     ow14021   6.694   5.266   1.604  0.6166  0.2043  0.1188
 3506SOL     hw14022   6.694   5.175   1.573 -2.9933  0.2914 -0.5157
 3506SOL     hw14023   6.660   5.261   1.693  0.0860  0.9553 -0.0315
 3506SOL     vw14024   6.689   5.253   1.611  0.0701  0.3152  0.0152
 3507SOL     ow14025   4.154   3.818   7.112 -0.3041  0.2457  0.0160
 3507SOL     hw14026   4.199   3.738   7.140 -1.2729 -0.7180 -1.0413
 3507SOL     hw14027   4.069   3.814   7.156  0.5306  2.0238  1.9592
 3507SOL     vw14028   4.148   3.807   7.121 -0.3219  0.3531  0.1330
 3508SOL     ow14029   5.134   0.846   4.589  0.1395 -0.5093 -0.1232
 3508SOL     hw14030   5.208   0.854   4.649 -0.6894  1.6378  0.7179
 3508SOL     hw14031   5.103   0.936   4.576 -2.9591 -1.3639  0.4135
 3508SOL     vw14032   5.140   0.859   4.595 -0.3786 -0.3387  0.0587
 3509SOL     ow14033   2.882   7.054   2.414  0.1117 -0.2268  0.5837
 3509SOL     hw14034   2.888   7.099   2.499  2.5748  1.2016 -0.2362
 3509SOL     hw14035   2.963   7.002   2.410 -2.0705 -4.0224  0.9713
 3509SOL     vw14036   2.894   7.053   2.425  0.1488 -0.5393  0.5265
 3510SOL     ow14037   5.257   1.156   7.094 -0.5247  0.4457  0.5383
 3510SOL     hw14038   5.267   1.218   7.167 -0.3489 -0.0353  0.9272
 3510SOL     hw14039   5.221   1.077   7.134  0.4800 -0.1650  0.2860
 3510SOL     vw14040   5.254   1.154   7.109 -0.3691  0.3017  0.5565
 3511SOL     ow14041   3.239   6.286   0.069  0.1564  0.3221  0.2220
 3511SOL     hw14042   3.311   6.319   0.015  1.1539  0.3281  1.4987
 3511SOL     hw14043   3.282   6.231   0.134 -1.0067  0.3427  1.0292
 3511SOL     vw14044   3.254   6.283   0.070  0.1345  0.3257  0.4970
 3512SOL     ow14045   1.207   6.356   5.197 -0.0860 -0.4821  0.0827
 3512SOL     hw14046   1.150   6.421   5.238 -0.5488 -0.0614 -1.1781
 3512SOL     hw14047   1.284   6.405   5.171 -0.8913 -0.1656 -1.8439
 3512SOL     vw14048   1.209   6.371   5.199 -0.2534 -0.3846 -0.3378
 3513SOL     ow14049   0.529   2.882   0.465 -0.3584 -0.1496  0.0571
 3513SOL     hw14050   0.621   2.859   0.478 -0.1609 -0.4320 -1.5833
 3513SOL     hw14051   0.525   2.914   0.375 -1.3431  2.6823  1.0120
 3513SOL     vw14052   0.541   2.883   0.455 -0.4623  0.1869 -0.0334
 3514SOL     ow14053   7.364   4.907   0.644 -0.1529 -0.3774 -0.3219
 3514SOL     hw14054   7.344   4.818   0.616  1.0954 -2.0237  3.3727
 3514SOL     hw14055   7.279   4.950   0.648 -0.9769 -1.8867 -0.7471
 3514SOL     vw14056   7.350   4.901   0.641 -0.0968 -0.7935  0.1094
 3515SOL     ow14057   2.541   2.444   1.915 -0.1072  0.0212  0.2380
 3515SOL     hw14058   2.511   2.480   1.832  0.4047 -0.9901 -0.4127
 3515SOL     hw14059   2.604   2.508   1.948  0.6314 -0.1379 -0.7906
 3515SOL     vw14060   2.545   2.457   1.908  0.0578 -0.1332  0.0165
 3516SOL     ow14061   7.196   1.388   5.916  0.5965  0.1690 -0.1404
 3516SOL     hw14062   7.292   1.388   5.911  0.5527 -0.5716 -1.3195
 3516SOL     hw14063   7.170   1.466   5.868  0.6142  0.6952  0.6866
 3516SOL     vw14064   7.205   1.398   5.909  0.5932  0.1406 -0.1869
 3517SOL     ow14065   6.004   1.116   1.149  0.2861 -0.3267 -0.2425
 3517SOL     hw14066   5.992   1.113   1.244  0.2720 -0.6326 -0.2540
 3517SOL     hw14067   5.948   1.188   1.120  0.5222 -0.0362  0.0173
 3517SOL     vw14068   5.995   1.125   1.157  0.3154 -0.3287 -0.2097
 3518SOL     ow14069   0.693   4.834   1.545 -0.3574  0.2245 -0.3815
 3518SOL     hw14070   0.675   4.801   1.633  0.1399  0.5416 -0.1608
 3518SOL     hw14071   0.789   4.842   1.541 -0.4881  3.0459  0.0855
 3518SOL     vw14072   0.704   4.830   1.556 -0.3090  0.6385 -0.2908
 3519SOL     ow14073   7.264   7.375   4.498 -0.4022  0.5224  0.1828
 3519SOL     hw14074   7.180   7.411   4.470 -0.7138 -0.7556 -0.5600
 3519SOL     hw14075   7.313   7.361   4.417 -0.2905 -0.7398  0.4581
 3519SOL     vw14076   7.260   7.378   4.484 -0.4287  0.1872  0.1214
 3520SOL     ow14077   3.831   0.380   6.872 -0.1327 -0.0503  0.1747
 3520SOL     hw14078   3.778   0.300   6.879 -0.1552 -0.1130 -0.6185
 3520SOL     hw14079   3.796   0.425   6.795 -2.0548  2.1879  2.1790
 3520SOL     vw14080   3.819   0.375   6.863 -0.3891  0.2367  0.3343
 3521SOL     ow14081   5.476   4.437   3.628 -0.5667 -0.1918  0.4598
 3521SOL     hw14082   5.442   4.389   3.703 -3.2543  0.8307  0.0399
 3521SOL     hw14083   5.470   4.529   3.654  1.8920  0.0992  0.2500
 3521SOL     vw14084   5.471   4.443   3.641 -0.5968 -0.0184  0.3768
 3522SOL     ow14085   2.136   1.110   6.692 -1.0261  0.1149  0.4131
 3522SOL     hw14086   2.044   1.132   6.705 -0.8204  0.2180  1.8068
 3522SOL     hw14087   2.173   1.109   6.780 -0.0068 -1.3212 -0.0047
 3522SOL     vw14088   2.128   1.113   6.705 -0.8646 -0.0610  0.5417
 3523SOL     ow14089   3.160   6.721   0.165  0.2897 -0.3138  0.0404
 3523SOL     hw14090   3.138   6.693   0.076 -0.3342 -1.9060  0.6426
 3523SOL     hw14091   3.096   6.675   0.220  2.0334 -1.1140  1.4823
 3523SOL     vw14092   3.148   6.711   0.161  0.4375 -0.6294  0.3101
 3524SOL     ow14093   4.837   1.644   0.291  0.6624  0.3369 -0.1488
 3524SOL     hw14094   4.794   1.730   0.296  1.4904  0.9382 -2.1971
 3524SOL     hw14095   4.924   1.664   0.256  0.5507 -1.4305 -1.5300
 3524SOL     vw14096   4.843   1.658   0.287  0.7572  0.1832 -0.6012
 3525SOL     ow14097   1.954   2.298   3.900 -0.5532 -1.1642 -0.6416
 3525SOL     hw14098   2.023   2.242   3.864  0.2448 -0.6030 -0.0196
 3525SOL     hw14099   1.912   2.337   3.824 -0.2189 -1.5458 -1.0286
 3525SOL     vw14100   1.957   2.296   3.885 -0.4038 -1.1405 -0.6106
 3526SOL     ow14101   0.546   2.610   7.017 -0.1244  0.3949  0.1018
 3526SOL     hw14102   0.533   2.644   6.929 -2.0722  1.2648  0.6639
 3526SOL     hw14103   0.568   2.687   7.070  0.8241 -0.0890  0.4347
 3526SOL     vw14104   0.547   2.625   7.012 -0.2562  0.4458  0.2196
 3527SOL     ow14105   5.708   6.339   3.002  0.1758  0.4402  0.7547
 3527SOL     hw14106   5.734   6.354   2.912 -2.6667 -0.7076 -0.3819
 3527SOL     hw14107   5.779   6.375   3.055  1.7674  1.4311 -1.9121
 3527SOL     vw14108   5.721   6.345   2.997  0.0110  0.4194  0.2527
 3528SOL     ow14109   1.262   3.677   4.647  0.6155  0.5380 -0.2676
 3528SOL     hw14110   1.307   3.740   4.704 -1.3719  0.0477  2.0155
 3528SOL     hw14111   1.184   3.722   4.617  2.0177  1.0973 -3.5462
 3528SOL     vw14112   1.258   3.691   4.651  0.5383  0.5472 -0.3989
 3529SOL     ow14113   3.121   1.049   2.673  0.6211 -0.1192  0.2921
 3529SOL     hw14114   3.107   1.124   2.615  0.6350 -1.5930 -1.7316
 3529SOL     hw14115   3.039   1.000   2.669  0.8877 -0.6358  0.9512
 3529SOL     vw14116   3.108   1.052   2.665  0.6582 -0.3817  0.1121
 3530SOL     ow14117   1.398   0.551   7.548 -0.1163 -0.5263  0.2075
 3530SOL     hw14118   1.379   0.628   7.602 -1.2751 -1.3253  1.0124
 3530SOL     hw14119   1.399   0.584   7.458  0.4263  0.5923  0.6056
 3530SOL     vw14120   1.396   0.565   7.543 -0.1976 -0.4842  0.3662
 3531SOL     ow14121   7.180   2.844   1.271  0.2385  0.5255 -0.0604
 3531SOL     hw14122   7.177   2.751   1.295  0.0374  0.1716 -1.3620
 3531SOL     hw14123   7.262   2.854   1.224  1.2377  1.4907  1.7776
 3531SOL     vw14124   7.190   2.833   1.268  0.3438  0.6063  0.0104
 3532SOL     ow14125   4.224   0.656   3.645 -0.2230  0.5327 -0.3068
 3532SOL     hw14126   4.239   0.650   3.551  0.1732 -0.9292 -0.1731
 3532SOL     hw14127   4.312   0.666   3.682 -0.0814 -1.7292  0.0692
 3532SOL     vw14128   4.238   0.657   3.637 -0.1523  0.0414 -0.2395
 3533SOL     ow14129   6.750   3.138   4.111  0.1449 -0.2550  0.0761
 3533SOL     hw14130   6.790   3.122   4.026 -1.8139  1.0077 -1.1529
 3533SOL     hw14131   6.662   3.169   4.091  0.3461  2.2316  2.4705
 3533SOL     vw14132   6.744   3.140   4.097 -0.0870  0.2396  0.2298
 3534SOL     ow14133   1.052   7.352   4.401 -0.3619  0.0946  0.1606
 3534SOL     hw14134   0.971   7.401   4.414 -0.3997 -0.3415  1.7398
 3534SOL     hw14135   1.025   7.260   4.403  0.4172 -0.1645  3.1870
 3534SOL     vw14136   1.038   7.346   4.403 -0.2641  0.0029  0.7682
 3535SOL     ow14137   3.632   6.897   5.582  0.1391 -0.3848  0.7328
 3535SOL     hw14138   3.601   6.810   5.560  0.5416 -0.1882 -0.7372
 3535SOL     hw14139   3.725   6.886   5.603 -0.0226 -0.4313  1.4505
 3535SOL     vw14140   3.641   6.884   5.582  0.1709 -0.3650  0.6335
 3536SOL     ow14141   0.125   0.532   4.145 -0.4586  0.5637  0.0715
 3536SOL     hw14142   0.218   0.553   4.144 -0.6846  1.7053  1.0037
 3536SOL     hw14143   0.081   0.617   4.144 -1.4802  0.0514  0.0781
 3536SOL     vw14144   0.131   0.546   4.145 -0.6232  0.6467  0.1953
 3537SOL     ow14145   5.325   7.368   7.569  0.1711  0.1791 -0.1988
 3537SOL     hw14146   5.363   7.310   7.503  2.3643  0.0527  1.0630
 3537SOL     hw14147   5.242   7.325   7.593  0.6853 -1.2756 -0.8700
 3537SOL     vw14148   5.319   7.354   7.564  0.5279 -0.0296 -0.1209
 3538SOL     ow14149   2.708   3.746   5.321 -0.8222  0.1936 -0.2287
 3538SOL     hw14150   2.693   3.776   5.231 -3.9245  1.8000  0.6718
 3538SOL     hw14151   2.656   3.666   5.328 -0.0285 -0.3101 -0.0260
 3538SOL     vw14152   2.699   3.740   5.310 -1.1268  0.3390 -0.0832
 3539SOL     ow14153   5.100   6.243   2.294  0.3853 -0.0782  0.1463
 3539SOL     hw14154   5.111   6.220   2.202  1.3814  0.2232  0.1849
 3539SOL     hw14155   5.089   6.159   2.339  0.9627 -0.2896 -0.1036
 3539SOL     vw14156   5.100   6.229   2.288  0.5927 -0.0663  0.1185
 3540SOL     ow14157   3.564   0.440   5.358  0.1703  0.4226  0.0360
 3540SOL     hw14158   3.471   0.433   5.336 -0.0611  0.2640  1.0012
 3540SOL     hw14159   3.565   0.486   5.442  0.9628  0.3865  0.0538
 3540SOL     vw14160   3.552   0.445   5.366  0.2444  0.3969  0.1657
 3541SOL     ow14161   1.179   0.096   3.620  0.5022  0.6368  0.5893
 3541SOL     hw14162   1.132   0.106   3.537  0.6739 -0.2996  0.3646
 3541SOL     hw14163   1.271   0.100   3.595  0.5571  0.1055  0.6879
 3541SOL     vw14164   1.185   0.097   3.606  0.5321  0.4432  0.5727
 3542SOL     ow14165   5.177   4.904   5.677 -0.6734 -0.2262 -0.1200
 3542SOL     hw14166   5.265   4.874   5.698 -0.6313 -0.5898 -0.7897
 3542SOL     hw14167   5.126   4.886   5.756 -0.3116 -0.6838  0.0118
 3542SOL     vw14168   5.182   4.898   5.690 -0.6204 -0.3343 -0.1907
 3543SOL     ow14169   6.371   1.901   0.189 -0.0078 -0.9005  0.6520
 3543SOL     hw14170   6.352   1.844   0.114 -2.2190 -2.1117  2.0340
 3543SOL     hw14171   6.351   1.989   0.157 -2.4293 -1.5367  0.1916
 3543SOL     vw14172   6.366   1.905   0.175 -0.6192 -1.1442  0.7736
 3544SOL     ow14173   2.640   1.889   4.256 -0.4644 -0.4143  0.4691
 3544SOL     hw14174   2.722   1.849   4.287 -0.5307 -0.5717  0.4398
 3544SOL     hw14175   2.581   1.883   4.331 -0.3913 -0.1296  0.5532
 3544SOL     vw14176   2.643   1.883   4.270 -0.4636 -0.3974  0.4761
 3545SOL     ow14177   4.691   0.904   1.436 -0.7620 -0.2067  0.8113
 3545SOL     hw14178   4.703   0.945   1.522  0.5749  1.8852 -0.2959
 3545SOL     hw14179   4.728   0.817   1.446  3.4135  1.3963  1.3388
 3545SOL     vw14180   4.697   0.898   1.449 -0.0346  0.2808  0.7349
 3546SOL     ow14181   1.552   3.979   4.160 -0.0842 -0.5388  0.7774
 3546SOL     hw14182   1.486   4.040   4.192 -0.6507 -1.7094  1.9358
 3546SOL     hw14183   1.613   3.969   4.233  1.1398  0.1814 -0.1200
 3546SOL     vw14184   1.551   3.985   4.174  0.0025 -0.5982  0.8121
 3547SOL     ow14185   2.524   3.122   1.021  0.1691 -0.2180  0.2491
 3547SOL     hw14186   2.537   3.162   0.935  0.0469 -0.6028  0.0454
 3547SOL     hw14187   2.578   3.173   1.081  0.6074 -0.2239 -0.1376
 3547SOL     vw14188   2.533   3.134   1.018  0.2108 -0.2695  0.1712
 3548SOL     ow14189   0.822   2.999   2.410 -0.1867  0.4244  0.4115
 3548SOL     hw14190   0.751   2.979   2.349 -0.1692 -1.3784  0.9406
 3548SOL     hw14191   0.901   2.998   2.356 -0.0914 -1.8179  0.5113
 3548SOL     vw14192   0.823   2.996   2.395 -0.1718 -0.1093  0.4944
 3549SOL     ow14193   4.803   5.226   4.821  0.2509  0.4351 -0.1328
 3549SOL     hw14194   4.791   5.151   4.879  1.5557  0.8121  0.6691
 3549SOL     hw14195   4.719   5.272   4.823  0.3910  0.7072  1.8727
 3549SOL     vw14196   4.790   5.222   4.829  0.4418  0.5207  0.2377
 3550SOL     ow14197   3.651   3.105   6.352 -0.4444 -0.2111  0.2338
 3550SOL     hw14198   3.582   3.062   6.403  0.0546 -1.5217 -0.1558
 3550SOL     hw14199   3.609   3.182   6.315 -1.5009 -0.5901  0.6051
 3550SOL     vw14200   3.636   3.109   6.354 -0.5180 -0.4340  0.2315
 3551SOL     ow14201   4.608   3.764   3.579 -0.1654 -0.1002  0.5505
 3551SOL     hw14202   4.603   3.747   3.674 -0.4244  1.0090  0.7464
 3551SOL     hw14203   4.681   3.824   3.569  0.0805 -0.4877 -0.0057
 3551SOL     vw14204   4.617   3.770   3.590 -0.1676 -0.0049  0.5027
 3552SOL     ow14205   0.887   6.367   3.503 -0.5692 -0.2008  0.2260
 3552SOL     hw14206   0.805   6.373   3.454 -0.9228  1.5257  0.9409
 3552SOL     hw14207   0.953   6.346   3.437 -1.6905 -2.8326 -0.1908
 3552SOL     vw14208   0.885   6.365   3.487 -0.7638 -0.3200  0.2654
 3553SOL     ow14209   2.490   2.037   6.445  0.4754  0.3477  0.1182
 3553SOL     hw14210   2.565   2.081   6.486  3.4321 -1.4381 -2.8454
 3553SOL     hw14211   2.511   1.944   6.450 -0.6357 -0.1182 -2.3635
 3553SOL     vw14212   2.503   2.031   6.451  0.7188  0.0509 -0.6001
 3554SOL     ow14213   5.295   1.238   5.240 -0.3401  0.3528 -0.1659
 3554SOL     hw14214   5.253   1.173   5.296  1.7670 -2.4553 -1.5758
 3554SOL     hw14215   5.366   1.274   5.294  1.2176 -1.8122 -0.5980
 3554SOL     vw14216   5.299   1.234   5.255  0.1433 -0.3033 -0.4089
 3555SOL     ow14217   7.344   3.935   2.569 -0.5976  0.1535  0.3144
 3555SOL     hw14218   7.319   3.967   2.482 -0.8977 -1.8292 -0.4040
 3555SOL     hw14219   7.433   3.901   2.557  0.1115  1.5721  1.2981
 3555SOL     vw14220   7.353   3.934   2.556 -0.5434  0.0790  0.3494
 3556SOL     ow14221   1.674   4.737   4.226 -0.1429 -0.1140  0.7073
 3556SOL     hw14222   1.676   4.806   4.293 -3.4421  0.0539  0.7973
 3556SOL     hw14223   1.584   4.739   4.192  0.9505 -1.2602 -2.6561
 3556SOL     vw14224   1.662   4.746   4.231 -0.4339 -0.2429  0.2754
 3557SOL     ow14225   5.459   0.275   5.280 -0.5121 -0.4701 -0.2133
 3557SOL     hw14226   5.420   0.197   5.242  2.2197 -1.4210 -1.3137
 3557SOL     hw14227   5.433   0.346   5.221 -1.4043 -0.8436 -0.2931
 3557SOL     vw14228   5.450   0.274   5.267 -0.2697 -0.6448 -0.3691
 3558SOL     ow14229   1.963   5.791   5.067  0.4535  0.0079  0.0340
 3558SOL     hw14230   1.960   5.748   4.981  2.0988  1.3780 -0.7851
 3558SOL     hw14231   2.027   5.739   5.117 -0.6279 -0.8891  0.5273
 3558SOL     vw14232   1.971   5.778   5.062  0.5280  0.0703 -0.0091
 3559SOL     ow14233   3.433   2.029   2.864 -0.0930  0.1583 -0.0987
 3559SOL     hw14234   3.362   1.964   2.865 -0.6712  0.7504 -1.0038
 3559SOL     hw14235   3.422   2.075   2.780 -0.0621  1.8164  0.7765
 3559SOL     vw14236   3.422   2.027   2.853 -0.1652  0.4551 -0.1025
 3560SOL     ow14237   3.271   0.978   2.894  0.2983 -0.1290  0.1353
 3560SOL     hw14238   3.220   1.027   2.830  2.0174  1.5400 -0.0636
 3560SOL     hw14239   3.293   1.043   2.962 -0.3861 -1.5372  1.7869
 3560SOL     vw14240   3.268   0.993   2.895  0.4348 -0.0946  0.3270
 3561SOL     ow14241   1.182   4.675   1.937 -0.0976 -0.6428  0.3385
 3561SOL     hw14242   1.273   4.671   1.964 -0.5161 -0.6695  1.7899
 3561SOL     hw14243   1.173   4.760   1.895  1.0497 -1.4187 -1.6618
 3561SOL     vw14244   1.193   4.685   1.935 -0.0015 -0.7486  0.2661
 3562SOL     ow14245   2.874   7.451   5.382  0.3705  0.3074  0.1714
 3562SOL     hw14246   2.791   7.498   5.378  0.2131 -0.0548 -1.5465
 3562SOL     hw14247   2.862   7.387   5.453 -1.2016 -0.4137 -0.6964
 3562SOL     vw14248   2.861   7.449   5.391  0.1423  0.1645 -0.1698
 3563SOL     ow14249   6.241   2.714   0.441  0.3303 -0.0162 -0.2302
 3563SOL     hw14250   6.278   2.629   0.463 -1.2089 -0.7435 -0.3311
 3563SOL     hw14251   6.154   2.715   0.482 -0.0570  1.1259 -0.9975
 3563SOL     vw14252   6.234   2.703   0.449  0.0761  0.0384 -0.3447
 3564SOL     ow14253   0.529   2.226   4.693 -0.7929  0.0421  0.3178
 3564SOL     hw14254   0.571   2.141   4.709 -1.8094 -0.5825 -0.2026
 3564SOL     hw14255   0.597   2.279   4.652  0.3304  0.0207  2.0191
 3564SOL     vw14256   0.543   2.221   4.690 -0.7788 -0.0432  0.4737
 3565SOL     ow14257   2.001   5.383   6.090  0.5537 -0.5262 -0.4608
 3565SOL     hw14258   1.962   5.416   6.171  1.2748 -2.2691  0.6817
 3565SOL     hw14259   2.078   5.439   6.076 -1.4173  2.0356 -1.9710
 3565SOL     vw14260   2.006   5.395   6.099  0.3889 -0.4179 -0.5093
 3566SOL     ow14261   1.188   3.921   3.074  0.4611 -0.4228  0.4613
 3566SOL     hw14262   1.193   3.842   3.020 -0.3695 -0.1837  0.0220
 3566SOL     hw14263   1.249   3.982   3.034  1.8120 -1.1522  1.3506
 3566SOL     vw14264   1.197   3.918   3.062  0.5297 -0.4876  0.5206
 3567SOL     ow14265   0.612   0.027   4.326 -0.1353  0.4590 -0.0876
 3567SOL     hw14266   0.633   0.119   4.337 -2.9415  1.1007  0.8791
 3567SOL     hw14267   0.547   0.009   4.395 -1.0921 -1.7219 -1.4409
 3567SOL     vw14268   0.606   0.037   4.337 -0.6318  0.2559 -0.1385
 3568SOL     ow14269   4.065   5.309   0.586 -0.3346  0.1189  0.0001
 3568SOL     hw14270   4.011   5.250   0.638  0.1685 -1.3358 -1.0484
 3568SOL     hw14271   4.152   5.303   0.624 -0.5606  1.2944  0.7500
 3568SOL     vw14272   4.069   5.301   0.598 -0.2980  0.0818 -0.0393
 3569SOL     ow14273   2.978   2.794   6.132  0.6436  0.8158 -0.4516
 3569SOL     hw14274   2.988   2.863   6.067  1.3225 -1.2316 -2.6613
 3569SOL     hw14275   3.065   2.755   6.139  1.3901  2.6827  3.9337
 3569SOL     vw14276   2.991   2.798   6.125  0.8318  0.7920 -0.1645
 3570SOL     ow14277   0.683   0.204   7.212  0.7969 -0.0181  0.3541
 3570SOL     hw14278   0.605   0.148   7.221 -0.1448  1.4165  1.4859
 3570SOL     hw14279   0.724   0.174   7.131 -1.8667  0.2797 -1.2255
 3570SOL     vw14280   0.678   0.193   7.202  0.3213  0.2105  0.2949
 3571SOL     ow14281   0.764   3.138   4.645 -0.0237  1.0799 -0.1171
 3571SOL     hw14282   0.811   3.059   4.671  3.3814  1.2803 -4.4571
 3571SOL     hw14283   0.699   3.107   4.582  0.8188  1.6070 -1.2711
 3571SOL     vw14284   0.762   3.124   4.640  0.5367  1.1756 -0.8421
 3572SOL     ow14285   7.081   0.658   1.310  0.6894  0.7574  0.0514
 3572SOL     hw14286   7.014   0.688   1.248 -0.3416  1.0211  1.2393
 3572SOL     hw14287   7.151   0.723   1.303  0.9595  0.3605 -1.3754
 3572SOL     vw14288   7.081   0.670   1.301  0.5891  0.7398  0.0200
 3573SOL     ow14289   7.540   5.195   6.667  0.2040 -0.3496 -0.2311
 3573SOL     hw14290   7.512   5.127   6.729  1.3229 -1.4294 -0.8527
 3573SOL     hw14291   7.467   5.202   6.605 -0.5746  0.1550  0.7196
 3573SOL     vw14292   7.527   5.187   6.667  0.2489 -0.4253 -0.1879
 3574SOL     ow14293   4.593   6.239   0.314 -0.0886  0.7068 -0.2897
 3574SOL     hw14294   4.519   6.236   0.254  1.5230  1.9866 -2.4705
 3574SOL     hw14295   4.608   6.332   0.331  2.2688  0.6618 -1.6503
 3574SOL     vw14296   4.585   6.251   0.308  0.4349  0.8698 -0.7570
 3575SOL     ow14297   2.806   1.364   7.233 -0.5049 -0.6260  0.0316
 3575SOL     hw14298   2.715   1.340   7.250 -0.1891 -1.1640  1.0494
 3575SOL     hw14299   2.801   1.454   7.199 -1.5031 -1.1731 -1.3792
 3575SOL     vw14300   2.793   1.373   7.231 -0.5950 -0.7691 -0.0203
 3576SOL     ow14301   2.577   4.698   2.281 -0.2762  0.3786  0.5114
 3576SOL     hw14302   2.658   4.729   2.322 -1.3988  2.4229  1.3854
 3576SOL     hw14303   2.600   4.685   2.189  1.3713 -0.5097  1.0091
 3576SOL     vw14304   2.591   4.701   2.274 -0.2068  0.5312  0.6922
 3577SOL     ow14305   5.389   0.822   2.526  0.5579  0.3999 -0.2242
 3577SOL     hw14306   5.435   0.864   2.453  3.0322  1.5998  1.8400
 3577SOL     hw14307   5.354   0.895   2.578  1.6047 -0.2066  1.4156
 3577SOL     vw14308   5.391   0.838   2.523  1.0223  0.4782  0.2643
 3578SOL     ow14309   1.445   3.788   2.097 -0.6733 -0.1617 -0.7899
 3578SOL     hw14310   1.399   3.715   2.138 -3.3798  1.9615  0.2952
 3578SOL     hw14311   1.514   3.811   2.159  0.5872 -2.0714 -1.4147
 3578SOL     vw14312   1.448   3.782   2.111 -0.8641 -0.1335 -0.7291
 3579SOL     ow14313   3.830   5.677   2.689 -0.3046 -0.1332 -0.0195
 3579SOL     hw14314   3.775   5.754   2.704  1.8642  1.3105  1.1612
 3579SOL     hw14315   3.772   5.602   2.704 -1.8514  1.2848  1.5039
 3579SOL     vw14316   3.816   5.677   2.693 -0.2226  0.2444  0.3374
 3580SOL     ow14317   3.444   7.177   1.625  0.5384  0.6380 -0.3413
 3580SOL     hw14318   3.398   7.180   1.542 -0.7247  1.1124  0.3480
 3580SOL     hw14319   3.431   7.264   1.663  2.1080  0.8348 -0.1615
 3580SOL     vw14320   3.436   7.189   1.619  0.5789  0.7265 -0.2267
 3581SOL     ow14321   2.825   5.936   0.386  0.2853 -0.2029 -0.2365
 3581SOL     hw14322   2.736   5.902   0.386 -0.0492  0.6677  0.1060
 3581SOL     hw14323   2.848   5.943   0.294 -0.3462  0.4685 -0.3456
 3581SOL     vw14324   2.816   5.932   0.374  0.1578  0.0002 -0.2057
 3582SOL     ow14325   3.717   3.432   7.429  0.8516  0.2748  0.0754
 3582SOL     hw14326   3.740   3.520   7.400 -1.6312  0.4980 -1.5471
 3582SOL     hw14327   3.671   3.446   7.512 -0.3497  0.6722 -0.6223
 3582SOL     vw14328   3.714   3.446   7.436  0.3656  0.3567 -0.2308
 3583SOL     ow14329   2.154   5.243   1.209  0.0028  0.2976  0.4279
 3583SOL     hw14330   2.065   5.270   1.185 -0.2496  0.0108  1.0074
 3583SOL     hw14331   2.142   5.193   1.290  0.7380  0.5958  0.7283
 3583SOL     vw14332   2.141   5.240   1.217  0.0665  0.2990  0.5440
 3584SOL     ow14333   6.952   1.722   7.537  0.0145  0.3883 -0.1282
 3584SOL     hw14334   6.983   1.669   7.610  1.0840 -0.0500 -0.8879
 3584SOL     hw14335   6.856   1.719   7.545  0.0465 -1.3811  0.0517
 3584SOL     vw14336   6.943   1.715   7.548  0.1600  0.0970 -0.2048
 3585SOL     ow14337   6.955   5.420   2.361 -0.8126 -0.2046 -0.2850
 3585SOL     hw14338   6.873   5.378   2.389  0.7381 -3.2895  0.0486
 3585SOL     hw14339   6.987   5.364   2.291 -0.4148  2.6775 -2.5640
 3585SOL     vw14340   6.948   5.407   2.356 -0.5555 -0.2315 -0.5417
 3586SOL     ow14341   2.248   4.507   4.245 -0.1683 -0.0421 -0.0101
 3586SOL     hw14342   2.292   4.479   4.165 -2.8476  1.1088 -2.0352
 3586SOL     hw14343   2.155   4.498   4.226 -0.9299  0.7347  2.8391
 3586SOL     vw14344   2.242   4.502   4.232 -0.6224  0.2122  0.0987
 3587SOL     ow14345   6.468   3.184   4.356  0.9175 -0.1631 -0.4331
 3587SOL     hw14346   6.420   3.204   4.275  2.3351  0.4917 -1.1358
 3587SOL     hw14347   6.519   3.106   4.334  2.4103  0.8441 -0.6718
 3587SOL     vw14348   6.468   3.176   4.342  1.3013  0.0561 -0.5572
 3588SOL     ow14349   2.757   5.292   2.972 -0.1540  0.5853 -0.0812
 3588SOL     hw14350   2.733   5.266   2.884 -2.9292  3.2846 -0.2876
 3588SOL     hw14351   2.678   5.276   3.024  1.2510 -0.4538  1.8484
 3588SOL     vw14352   2.744   5.287   2.968 -0.3347  0.8044  0.1464
 3589SOL     ow14353   6.205   2.436   1.887  0.5215 -0.3735 -0.1530
 3589SOL     hw14354   6.214   2.450   1.792 -2.5074 -1.1649 -0.6459
 3589SOL     hw14355   6.153   2.510   1.917  1.7452  0.0575  1.0349
 3589SOL     vw14356   6.200   2.448   1.878  0.2832 -0.4210 -0.0613
 3590SOL     ow14357   3.605   4.162   1.334  0.5805 -0.1814  0.2677
 3590SOL     hw14358   3.546   4.089   1.320  1.1931 -0.2708 -2.3724
 3590SOL     hw14359   3.676   4.149   1.271  0.7560  2.6285 -0.2707
 3590SOL     vw14360   3.607   4.151   1.324  0.6845  0.1776 -0.1516
 3591SOL     ow14361   1.278   5.062   4.079  0.5268 -0.0499 -0.7123
 3591SOL     hw14362   1.338   5.108   4.020 -0.2181  0.5460 -1.0247
 3591SOL     hw14363   1.209   5.125   4.097 -0.6598 -1.1243 -1.3406
 3591SOL     vw14364   1.277   5.076   4.074  0.2719 -0.1128 -0.8364
 3592SOL     ow14365   1.789   6.667   7.009  0.3793  0.5758  0.3387
 3592SOL     hw14366   1.730   6.734   6.973  1.2273  2.0203  1.4873
 3592SOL     hw14367   1.815   6.614   6.933  0.4231  2.1609 -0.8092
 3592SOL     vw14368   1.785   6.669   6.994  0.4970  0.9758  0.3390
 3593SOL     ow14369   6.970   0.835   6.101 -0.3285  1.2049 -0.4536
 3593SOL     hw14370   7.048   0.858   6.050 -1.0397  0.9663 -1.7148
 3593SOL     hw14371   6.912   0.792   6.037 -0.8686  0.0032  0.8032
 3593SOL     vw14372   6.973   0.833   6.086 -0.4933  1.0149 -0.4542
 3594SOL     ow14373   7.422   3.030   5.590  0.1801 -0.4033  0.2167
 3594SOL     hw14374   7.443   3.106   5.643 -0.6530 -1.1484  1.6840
 3594SOL     hw14375   7.505   2.984   5.578  0.2564 -0.6409  1.5845
 3594SOL     vw14376   7.436   3.034   5.595  0.0803 -0.5330  0.5908
 3595SOL     ow14377   2.810   4.187   1.893  0.2565  0.3079 -0.7625
 3595SOL     hw14378   2.812   4.160   1.985 -0.7760 -0.6338 -0.9961
 3595SOL     hw14379   2.762   4.270   1.893  1.3954  0.9833 -0.3117
 3595SOL     vw14380   2.804   4.195   1.905  0.2704  0.2730 -0.7339
 3596SOL     ow14381   4.361   4.667   7.282 -0.6171  0.5671  0.7556
 3596SOL     hw14382   4.301   4.629   7.345 -1.9064 -0.6428 -1.1184
 3596SOL     hw14383   4.306   4.723   7.227  0.5418  1.8937  0.8894
 3596SOL     vw14384   4.346   4.670   7.283 -0.6342  0.5825  0.5260
 3597SOL     ow14385   0.516   5.185   2.598 -0.7830 -0.1381 -1.0937
 3597SOL     hw14386   0.523   5.280   2.590 -1.4223  0.0327  0.0630
 3597SOL     hw14387   0.552   5.166   2.685  0.3186 -1.0916 -1.7277
 3597SOL     vw14388   0.522   5.195   2.609 -0.7220 -0.2413 -1.0247
 3598SOL     ow14389   0.260   1.719   3.163 -0.2176 -0.5122 -0.2446
 3598SOL     hw14390   0.275   1.625   3.165  0.5796 -0.4126 -0.9977
 3598SOL     hw14391   0.345   1.758   3.184 -0.0480  0.0441 -1.8448
 3598SOL     vw14392   0.273   1.712   3.166 -0.0901 -0.4257 -0.5552
 3599SOL     ow14393   1.846   3.694   3.179 -0.3385 -0.0159 -0.0499
 3599SOL     hw14394   1.837   3.771   3.235 -0.8385  0.4736 -0.7964
 3599SOL     hw14395   1.894   3.631   3.234  0.9192  1.1413  0.2427
 3599SOL     vw14396   1.851   3.696   3.194 -0.2385  0.2013 -0.1099
 3600SOL     ow14397   1.843   6.750   2.517 -0.4094  0.8479 -0.1497
 3600SOL     hw14398   1.751   6.736   2.538 -0.2943 -0.3389 -0.3639
 3600SOL     hw14399   1.848   6.736   2.422 -0.1561  1.7831 -0.2857
 3600SOL     vw14400   1.832   6.747   2.507 -0.3608  0.8147 -0.1959
 3601SOL     ow14401   3.533   3.738   7.453 -0.0711  0.7412  0.6980
 3601SOL     hw14402   3.460   3.697   7.407  0.9172  0.1423 -0.4002
 3601SOL     hw14403   3.518   3.832   7.443  0.1511  0.6409 -1.0012
 3601SOL     vw14404   3.522   3.745   7.446  0.0886  0.6490  0.3290
 3602SOL     ow14405   7.498   1.661   1.396 -0.0513  0.0616  0.0475
 3602SOL     hw14406   7.513   1.597   1.327  1.2675  0.4248 -0.0258
 3602SOL     hw14407   7.499   1.609   1.477  1.3638  0.0008  0.0181
 3602SOL     vw14408   7.500   1.646   1.398  0.3095  0.1015  0.0340
 3603SOL     ow14409   6.160   2.037   2.381  0.4374 -0.2046  1.1092
 3603SOL     hw14410   6.080   2.090   2.391 -0.3464 -1.0787 -0.2183
 3603SOL     hw14411   6.221   2.074   2.445 -0.5016  1.4781  1.0947
 3603SOL     vw14412   6.157   2.049   2.391  0.2103 -0.0981  0.9321
 3604SOL     ow14413   0.813   3.439   1.981  0.0492 -0.1559  0.2759
 3604SOL     hw14414   0.740   3.491   2.013 -1.1346 -1.7425  0.2792
 3604SOL     hw14415   0.807   3.445   1.885 -0.4234 -0.6906  0.2639
 3604SOL     vw14416   0.803   3.446   1.972 -0.1694 -0.4357  0.2747
 3605SOL     ow14417   7.344   1.204   5.171  0.1479 -0.5846 -0.6020
 3605SOL     hw14418   7.255   1.239   5.164  0.0891 -0.6359 -0.1584
 3605SOL     hw14419   7.348   1.135   5.104  0.2953  0.3069 -1.5339
 3605SOL     vw14420   7.333   1.199   5.161  0.1595 -0.4737 -0.6664
 3606SOL     ow14421   0.665   1.277   5.082 -0.4575  0.4470 -0.4682
 3606SOL     hw14422   0.697   1.290   4.993  1.6139 -0.3014  0.1094
 3606SOL     hw14423   0.589   1.219   5.072 -1.2692  1.6602 -1.8335
 3606SOL     vw14424   0.659   1.271   5.069 -0.2913  0.5083 -0.5720
 3607SOL     ow14425   4.184   4.534   4.277 -0.7123 -0.2085 -0.5300
 3607SOL     hw14426   4.263   4.483   4.262 -0.1145  0.2462  0.8859
 3607SOL     hw14427   4.170   4.581   4.195 -0.0829 -1.0360 -1.1298
 3607SOL     vw14428   4.192   4.534   4.264 -0.5505 -0.2577 -0.4227
 3608SOL     ow14429   5.033   5.915   1.808 -0.5117 -0.1065 -0.4943
 3608SOL     hw14430   4.951   5.876   1.778 -0.6730 -1.0530  1.0367
 3608SOL     hw14431   5.075   5.948   1.729 -2.2254  0.1309 -1.3473
 3608SOL     vw14432   5.028   5.914   1.794 -0.7591 -0.2003 -0.4048
 3609SOL     ow14433   1.036   5.744   1.428  0.5337  0.0628 -0.5149
 3609SOL     hw14434   1.122   5.704   1.439  0.4108  0.1706  1.2507
 3609SOL     hw14435   0.993   5.732   1.513 -0.6692  1.2273 -0.9168
 3609SOL     vw14436   1.041   5.737   1.441  0.3588  0.2308 -0.3350
 3610SOL     ow14437   3.641   4.328   5.803 -0.1448 -0.0722  0.2051
 3610SOL     hw14438   3.546   4.329   5.817 -0.2302 -2.1036 -0.0346
 3610SOL     hw14439   3.655   4.390   5.731 -1.4595 -0.7038 -0.6233
 3610SOL     vw14440   3.630   4.337   5.795 -0.3295 -0.4237  0.0641
 3611SOL     ow14441   1.169   7.224   3.898 -0.1490 -0.0306 -0.1640
 3611SOL     hw14442   1.081   7.196   3.874 -0.9462 -0.6435  3.0177
 3611SOL     hw14443   1.226   7.177   3.837 -1.9197 -1.6136 -0.6927
 3611SOL     vw14444   1.165   7.214   3.887 -0.4878 -0.3204  0.1862
 3612SOL     ow14445   5.999   5.067   1.784 -0.0920  0.4796  0.2368
 3612SOL     hw14446   6.003   5.053   1.879 -1.8912 -1.3532  0.1108
 3612SOL     hw14447   5.913   5.034   1.759  0.1815  1.3143 -1.9992
 3612SOL     vw14448   5.988   5.061   1.793 -0.2933  0.3479 -0.0749
 3613SOL     ow14449   1.172   7.046   6.012  0.0856  0.0577  0.5137
 3613SOL     hw14450   1.174   7.133   5.973  1.2415 -0.8412 -1.5798
 3613SOL     hw14451   1.084   7.013   5.992 -0.3618  0.7183  1.3310
 3613SOL     vw14452   1.160   7.053   6.004  0.1791  0.0260  0.3450
 3614SOL     ow14453   2.671   0.212   6.645  0.6822 -0.1716 -0.1940
 3614SOL     hw14454   2.668   0.195   6.739  0.6714 -3.3091 -0.6878
 3614SOL     hw14455   2.586   0.252   6.626 -2.5596 -5.9290  0.1783
 3614SOL     vw14456   2.659   0.215   6.655  0.2531 -1.3452 -0.2098
 3615SOL     ow14457   3.778   6.764   6.017 -0.1783 -0.0010  0.6982
 3615SOL     hw14458   3.864   6.770   6.059 -0.4701 -4.6212  2.5536
 3615SOL     hw14459   3.797   6.768   5.923  1.8366  0.5103  1.0776
 3615SOL     vw14460   3.792   6.765   6.010  0.0491 -0.5434  0.9930
 3616SOL     ow14461   7.317   5.124   0.322 -0.4490  0.0472 -0.4422
 3616SOL     hw14462   7.304   5.117   0.228 -0.1048 -2.7544 -0.3877
 3616SOL     hw14463   7.254   5.061   0.359 -1.1477  1.6637  1.2743
 3616SOL     vw14464   7.307   5.115   0.315 -0.4957 -0.1094 -0.2085
 3617SOL     ow14465   3.474   0.319   3.552 -0.2806  1.0827 -0.5711
 3617SOL     hw14466   3.404   0.289   3.494 -1.9355  2.6131  0.5315
 3617SOL     hw14467   3.537   0.362   3.494 -0.8379  0.7285 -1.4538
 3617SOL     vw14468   3.473   0.321   3.536 -0.5726  1.2379 -0.5420
 3618SOL     ow14469   2.164   3.839   1.107  0.0905  0.1982  0.1847
 3618SOL     hw14470   2.142   3.746   1.114 -0.6818  0.4593  1.9325
 3618SOL     hw14471   2.082   3.884   1.128  0.1037  1.3119 -1.9169
 3618SOL     vw14472   2.150   3.832   1.111 -0.0097  0.3796  0.1380
 3619SOL     ow14473   4.951   6.462   2.434  0.2070  0.4427 -0.8744
 3619SOL     hw14474   4.882   6.458   2.368 -0.2620 -3.9738 -0.3982
 3619SOL     hw14475   5.010   6.390   2.410  1.7485  0.7289  1.7475
 3619SOL     vw14476   4.950   6.452   2.422  0.3488 -0.1023 -0.4658
 3620SOL     ow14477   2.746   7.582   5.803 -0.4328 -0.2318  0.4700
 3620SOL     hw14478   2.706   7.566   5.718 -0.8240  2.7704 -0.0433
 3620SOL     hw14479   2.835   7.549   5.795 -0.6670 -0.5853 -0.8921
 3620SOL     vw14480   2.752   7.576   5.791 -0.5152  0.1175  0.2224
 3621SOL     ow14481   0.866   7.566   4.351  0.4403 -0.0555 -0.1448
 3621SOL     hw14482   0.866   7.608   4.437 -0.9666  0.9944 -0.6310
 3621SOL     hw14483   0.777   7.578   4.318  0.8468 -0.7882 -1.5938
 3621SOL     vw14484   0.854   7.573   4.358  0.3083 -0.0136 -0.4001
 3622SOL     ow14485   0.190   2.972   0.449  0.5733 -1.4346 -0.3958
 3622SOL     hw14486   0.149   2.909   0.389  1.4544  0.7304 -3.5531
 3622SOL     hw14487   0.166   3.058   0.413  3.1950 -0.0296  0.9482
 3622SOL     vw14488   0.181   2.975   0.436  1.0355 -0.9636 -0.6350
 3623SOL     ow14489   6.730   6.305   2.367  1.0842 -0.3179  0.3489
 3623SOL     hw14490   6.737   6.377   2.429  1.0395 -0.3828  0.4287
 3623SOL     hw14491   6.816   6.263   2.370  0.8741 -0.7178  0.8484
 3623SOL     vw14492   6.742   6.309   2.376  1.0505 -0.3791  0.4253
 3624SOL     ow14493   5.546   1.211   7.121 -0.2773 -0.2706 -0.0247
 3624SOL     hw14494   5.535   1.306   7.123 -1.2733 -0.3861  1.5466
 3624SOL     hw14495   5.457   1.177   7.110  0.0783 -1.0302 -0.6434
 3624SOL     vw14496   5.533   1.219   7.119 -0.3617 -0.3861  0.1009
 3625SOL     ow14497   4.293   1.441   0.444  0.7473 -0.2484  0.5648
 3625SOL     hw14498   4.298   1.534   0.422  1.0809 -0.6880 -1.4129
 3625SOL     hw14499   4.199   1.422   0.444  0.6044  0.3184  2.1914
 3625SOL     vw14500   4.281   1.451   0.441  0.7727 -0.2316  0.5185
 3626SOL     ow14501   4.384   5.468   6.043  0.6527 -0.3662 -0.0725
 3626SOL     hw14502   4.354   5.429   5.961  0.0687 -0.3723  0.1411
 3626SOL     hw14503   4.343   5.415   6.111  0.3469  0.2310  0.2225
 3626SOL     vw14504   4.374   5.456   6.041  0.5352 -0.2880 -0.0055
 3627SOL     ow14505   3.819   4.330   1.951  0.1792  0.1521 -0.1934
 3627SOL     hw14506   3.737   4.332   1.900  1.0490 -1.1664 -1.7609
 3627SOL     hw14507   3.815   4.247   1.999 -0.7706  1.5220  2.2815
 3627SOL     vw14508   3.807   4.319   1.950  0.1686  0.1588 -0.0737
 3628SOL     ow14509   5.787   2.823   2.550 -0.7605 -0.3233  0.9330
 3628SOL     hw14510   5.704   2.801   2.591 -1.0189 -0.5562  0.2899
 3628SOL     hw14511   5.763   2.874   2.473 -0.2373  0.9213  1.5680
 3628SOL     vw14512   5.773   2.827   2.546 -0.7255 -0.1898  0.9319
 3629SOL     ow14513   2.962   3.322   5.898 -0.0158 -0.6038  0.0669
 3629SOL     hw14514   3.040   3.372   5.873  0.1447 -1.8598 -2.2591
 3629SOL     hw14515   2.997   3.247   5.946 -0.1356  0.5683  2.1099
 3629SOL     vw14516   2.977   3.319   5.901 -0.0103 -0.6149  0.0296
 3630SOL     ow14517   5.726   2.701   4.632 -0.2161 -0.6990  0.6416
 3630SOL     hw14518   5.814   2.668   4.647  0.2842  1.2731  2.4075
 3630SOL     hw14519   5.739   2.788   4.594 -1.4679 -1.3946 -1.5491
 3630SOL     vw14520   5.739   2.708   4.629 -0.3152 -0.5305  0.5853
 3631SOL     ow14521   7.020   1.955   7.318  0.3067  0.5803  0.3899
 3631SOL     hw14522   7.011   2.049   7.302  0.9538  0.1806 -3.1277
 3631SOL     hw14523   6.981   1.914   7.241  0.2671 -2.0686  1.7117
 3631SOL     vw14524   7.014   1.962   7.306  0.3867  0.1782  0.1004
 3632SOL     ow14525   4.121   2.975   0.113  0.1438 -0.0893  0.1948
 3632SOL     hw14526   4.052   2.948   0.174  0.1422  1.1915  0.7885
 3632SOL     hw14527   4.192   2.912   0.128 -0.2977 -0.4795  0.6829
 3632SOL     vw14528   4.121   2.963   0.123  0.0854  0.0283  0.3376
 3633SOL     ow14529   6.454   1.610   6.301 -0.2811 -0.1403  0.0412
 3633SOL     hw14530   6.469   1.532   6.355 -1.1457 -1.5471 -1.6467
 3633SOL     hw14531   6.359   1.618   6.298 -0.2206  0.3614 -0.6478
 3633SOL     vw14532   6.443   1.600   6.308 -0.3872 -0.2598 -0.2723
 3634SOL     ow14533   7.143   0.013   2.653 -0.5384 -0.3683 -0.5008
 3634SOL     hw14534   7.053  -0.019   2.664 -0.5625 -0.3863 -0.7443
 3634SOL     hw14535   7.197  -0.066   2.657 -0.4900 -0.3111  0.1000
 3634SOL     vw14536   7.138  -0.002   2.655 -0.5350 -0.3629 -0.4536
 3635SOL     ow14537   0.244   3.387   4.425  0.1442 -0.6617 -1.1562
 3635SOL     hw14538   0.312   3.397   4.357 -0.0349 -0.9304 -1.3784
 3635SOL     hw14539   0.204   3.302   4.406 -0.3627 -0.4318 -1.1228
 3635SOL     vw14540   0.248   3.377   4.413  0.0537 -0.6666 -1.1809
 3636SOL     ow14541   4.584   4.938   3.501  0.2484  0.0026 -0.0654
 3636SOL     hw14542   4.517   4.978   3.446  0.4873 -1.1846 -1.2636
 3636SOL     hw14543   4.640   5.012   3.527  0.8937  0.4786 -2.5103
 3636SOL     vw14544   4.583   4.953   3.497  0.3648 -0.0911 -0.5461
 3637SOL     ow14545   3.477   5.884   6.122  0.1146  0.0058  0.9275
 3637SOL     hw14546   3.414   5.812   6.118 -1.3383  1.2602  0.1965
 3637SOL     hw14547   3.443   5.949   6.060  0.5912  1.9128  2.5607
 3637SOL     vw14548   3.464   5.883   6.114 -0.0142  0.4232  1.0469
 3638SOL     ow14549   0.897   7.098   3.469 -0.3151 -0.4304  0.1940
 3638SOL     hw14550   0.924   7.185   3.501  3.3394 -1.2963 -0.0504
 3638SOL     hw14551   0.855   7.057   3.545 -3.8382  2.0166 -0.1856
 3638SOL     vw14552   0.895   7.104   3.484 -0.2978 -0.2217  0.1116
 3639SOL     ow14553   7.113   1.497   2.877  0.2469  0.2613 -0.0338
 3639SOL     hw14554   7.082   1.413   2.843  0.6896  0.1559 -0.1830
 3639SOL     hw14555   7.203   1.479   2.904  0.7572  0.9913 -1.1844
 3639SOL     vw14556   7.121   1.483   2.876  0.3726  0.3437 -0.2054
 3640SOL     ow14557   7.184   0.758   4.800 -0.7294  0.1730  0.2786
 3640SOL     hw14558   7.266   0.708   4.805 -0.8501  0.0495  1.1932
 3640SOL     hw14559   7.115   0.691   4.803 -0.8768  0.3373  0.6467
 3640SOL     vw14560   7.186   0.742   4.801 -0.7648  0.1784  0.4480
 3641SOL     ow14561   3.625   5.731   2.304  0.3068  0.3198  0.3751
 3641SOL     hw14562   3.630   5.691   2.218  1.8364  1.3825 -0.0584
 3641SOL     hw14563   3.706   5.705   2.348  0.4623  1.4142  0.7545
 3641SOL     vw14564   3.636   5.722   2.299  0.5291  0.6044  0.3679
 3642SOL     ow14565   5.785   7.515   4.553  0.1154 -0.0875  0.5451
 3642SOL     hw14566   5.762   7.556   4.637 -0.7134 -0.0944  0.3364
 3642SOL     hw14567   5.877   7.535   4.540  0.0389  0.6360  1.0591
 3642SOL     vw14568   5.794   7.523   4.562 -0.0043  0.0072  0.5853
 3643SOL     ow14569   6.413   2.515   0.159 -0.1792  0.8657 -0.2673
 3643SOL     hw14570   6.372   2.444   0.208 -0.8635  1.3490 -0.1297
 3643SOL     hw14571   6.345   2.582   0.151  0.3534  1.3727 -0.6768
 3643SOL     vw14572   6.399   2.515   0.164 -0.1991  0.9964 -0.3032
 3644SOL     ow14573   5.732   6.820   1.531 -0.1461  0.6399 -0.2862
 3644SOL     hw14574   5.771   6.902   1.499 -0.5070  0.6138 -0.8140
 3644SOL     hw14575   5.656   6.807   1.475 -0.7863  0.5641  0.5896
 3644SOL     vw14576   5.727   6.829   1.519 -0.2782  0.6263 -0.2403
 3645SOL     ow14577   1.406   5.787   0.627  0.0856 -0.3200  0.3480
 3645SOL     hw14578   1.371   5.794   0.716 -1.4441  1.3124 -0.3304
 3645SOL     hw14579   1.494   5.751   0.639 -0.8577 -2.1672  2.3289
 3645SOL     vw14580   1.413   5.783   0.640 -0.2407 -0.3483  0.5199
 3646SOL     ow14581   7.285   1.328   4.819 -1.2414 -0.0217 -0.7767
 3646SOL     hw14582   7.265   1.244   4.860 -0.1354  0.3803  0.6829
 3646SOL     hw14583   7.322   1.306   4.734  1.9815 -1.2597  0.7618
 3646SOL     vw14584   7.287   1.314   4.813 -0.6704 -0.1320 -0.3810
 3647SOL     ow14585   3.538   3.324   1.909 -0.2732  0.4694  0.2555
 3647SOL     hw14586   3.473   3.287   1.969 -0.8985  0.2000 -0.5677
 3647SOL     hw14587   3.600   3.369   1.966  1.1398 -2.6739  1.4460
 3647SOL     vw14588   3.538   3.325   1.924 -0.1693  0.0192  0.3040
 3648SOL     ow14589   6.001   0.581   1.973 -0.1595  0.5445 -0.0868
 3648SOL     hw14590   6.034   0.618   2.055 -0.8175 -0.8421  0.8478
 3648SOL     hw14591   6.019   0.648   1.908 -1.1343  2.4486  1.4812
 3648SOL     vw14592   6.008   0.595   1.976 -0.3750  0.6128  0.2435
 3649SOL     ow14593   0.525   3.521   4.573 -0.1076 -0.1944 -0.4217
 3649SOL     hw14594   0.593   3.517   4.506 -1.4673  1.3445 -2.0236
 3649SOL     hw14595   0.485   3.434   4.572 -0.8211  0.0927 -2.4954
 3649SOL     vw14596   0.528   3.509   4.564 -0.3811  0.0466 -0.9065
 3650SOL     ow14597   4.781   2.288   3.063  0.1804  1.0871 -0.0387
 3650SOL     hw14598   4.778   2.250   3.150 -1.9699 -4.4190 -2.0761
 3650SOL     hw14599   4.701   2.340   3.057 -0.2496  0.5660  0.9433
 3650SOL     vw14600   4.770   2.290   3.074 -0.1602  0.2918 -0.1780
 3651SOL     ow14601   7.175   1.413   7.106 -0.2551 -0.4250  0.3329
 3651SOL     hw14602   7.226   1.343   7.146 -0.3912  0.1995  1.6748
 3651SOL     hw14603   7.092   1.372   7.083  0.2610 -1.0762 -0.4042
 3651SOL     vw14604   7.171   1.399   7.108 -0.2048 -0.4286  0.4129
 3652SOL     ow14605   2.213   4.238   5.918 -0.1502  0.0850 -0.2290
 3652SOL     hw14606   2.173   4.282   5.993  0.6870 -1.0216  0.9051
 3652SOL     hw14607   2.189   4.146   5.928 -0.2496 -0.0522 -1.4921
 3652SOL     vw14608   2.204   4.232   5.929 -0.0529 -0.0792 -0.2458
 3653SOL     ow14609   7.419   5.446   3.509 -0.0640 -0.5584 -0.2807
 3653SOL     hw14610   7.478   5.477   3.440  0.3938  1.3749  0.9034
 3653SOL     hw14611   7.474   5.394   3.566 -0.4148 -2.0528 -1.2519
 3653SOL     vw14612   7.434   5.444   3.507 -0.0498 -0.5007 -0.2527
 3654SOL     ow14613   6.699   3.119   6.857 -0.5880 -0.2113 -0.5792
 3654SOL     hw14614   6.687   3.053   6.789 -2.4728  0.1332 -0.6125
 3654SOL     hw14615   6.726   3.069   6.934  1.5243 -0.6060 -1.4977
 3654SOL     vw14616   6.701   3.104   6.858 -0.5577 -0.2179 -0.7048
 3655SOL     ow14617   1.195   3.347   1.540  0.4477  0.1466 -0.5486
 3655SOL     hw14618   1.266   3.322   1.599 -0.9595 -0.3712  0.9981
 3655SOL     hw14619   1.144   3.411   1.590  0.6984  1.7666 -2.2506
 3655SOL     vw14620   1.198   3.352   1.555  0.2951  0.2919 -0.5691
 3656SOL     ow14621   0.458   1.600   2.188  0.6733  0.3936  0.7043
 3656SOL     hw14622   0.515   1.524   2.179 -0.4421 -0.5430  1.3541
 3656SOL     hw14623   0.420   1.612   2.101 -2.2629 -2.3584  1.4406
 3656SOL     vw14624   0.460   1.592   2.175  0.1387 -0.0930  0.8872
 3657SOL     ow14625   2.759   2.846   6.706  0.7696  0.0352  0.0417
 3657SOL     hw14626   2.769   2.860   6.612  0.0944  0.9735  0.1011
 3657SOL     hw14627   2.706   2.766   6.712 -0.9515  1.1070 -0.4233
 3657SOL     vw14628   2.753   2.837   6.694  0.4532  0.3004 -0.0119
 3658SOL     ow14629   2.879   0.908   2.639  0.1226  0.1022  0.0188
 3658SOL     hw14630   2.820   0.977   2.608  0.1024 -0.0559 -0.2972
 3658SOL     hw14631   2.848   0.828   2.596 -1.0149 -0.4733  1.7969
 3658SOL     vw14632   2.867   0.907   2.629 -0.0302  0.0054  0.2117
 3659SOL     ow14633   0.189   5.644   3.182  0.7519 -0.2668  0.1490
 3659SOL     hw14634   0.114   5.685   3.225  1.3256 -1.0811  1.9855
 3659SOL     hw14635   0.152   5.569   3.136  0.7203 -2.4829  3.5007
 3659SOL     vw14636   0.174   5.640   3.181  0.8234 -0.6666  0.8335
 3660SOL     ow14637   3.822   5.285   5.131 -0.4707  0.1135 -0.2281
 3660SOL     hw14638   3.784   5.216   5.186  0.3111  0.7859  1.2021
 3660SOL     hw14639   3.849   5.353   5.193 -0.6546  1.4413 -1.5569
 3660SOL     vw14640   3.820   5.285   5.146 -0.3917  0.3774 -0.2146
 3661SOL     ow14641   0.829   1.347   2.558  0.3889  0.3606 -0.4630
 3661SOL     hw14642   0.785   1.391   2.485  0.0833 -0.3347 -0.7032
 3661SOL     hw14643   0.881   1.416   2.599  2.3092  0.3213 -2.6405
 3661SOL     vw14644   0.830   1.362   2.554  0.6019  0.2636 -0.7820
 3662SOL     ow14645   1.434   0.052   4.300  0.0464 -0.0768  0.2705
 3662SOL     hw14646   1.526   0.047   4.275  0.0565  1.5784 -0.1509
 3662SOL     hw14647   1.431   0.117   4.370 -0.8310  0.1536  0.0393
 3662SOL     vw14648   1.446   0.060   4.306 -0.0680  0.1720  0.1843
 3663SOL     ow14649   0.771   1.013   0.555 -0.2122  0.0408  0.4020
 3663SOL     hw14650   0.813   0.982   0.474 -0.0175  1.7794 -0.1854
 3663SOL     hw14651   0.679   0.991   0.544 -0.2506  0.6103 -0.4681
 3663SOL     vw14652   0.765   1.006   0.543 -0.1916  0.3453  0.2097
 3664SOL     ow14653   0.711   5.645   3.574 -0.1093  0.7283  0.4297
 3664SOL     hw14654   0.749   5.719   3.526 -1.6651 -0.9257 -3.7871
 3664SOL     hw14655   0.783   5.582   3.582  0.1699  1.0219  0.2668
 3664SOL     vw14656   0.726   5.647   3.569 -0.2777  0.5488 -0.1481
 3665SOL     ow14657   7.543   2.936   2.027  0.2836 -0.1509  0.8000
 3665SOL     hw14658   7.548   2.897   1.940  0.5178  0.5706  0.4827
 3665SOL     hw14659   7.619   2.994   2.032  0.3856 -0.3499  1.5662
 3665SOL     vw14660   7.553   2.938   2.016  0.3281 -0.0819  0.8593
 3666SOL     ow14661   3.024   2.005   1.063 -0.3352 -0.1356 -0.4120
 3666SOL     hw14662   3.067   1.921   1.080  1.4061  0.4444 -1.5798
 3666SOL     hw14663   3.095   2.062   1.033 -2.0407  0.6371 -3.3780
 3666SOL     vw14664   3.039   2.002   1.061 -0.3306  0.0428 -0.9573
 3667SOL     ow14665   3.291   7.241   6.740  0.0479 -0.0190  0.2113
 3667SOL     hw14666   3.340   7.220   6.819 -1.0240 -2.1225  0.3641
 3667SOL     hw14667   3.343   7.310   6.698  2.3179 -1.0777  1.1268
 3667SOL     vw14668   3.305   7.247   6.745  0.2060 -0.4361  0.3524
 3668SOL     ow14669   0.679   6.063   3.473 -0.5322 -0.0170  0.1836
 3668SOL     hw14670   0.770   6.040   3.457 -1.0138 -1.9337 -0.0556
 3668SOL     hw14671   0.660   6.132   3.409  0.0454 -1.4121 -1.5609
 3668SOL     vw14672   0.688   6.069   3.463 -0.5195 -0.4539 -0.0782
 3669SOL     ow14673   5.730   4.321   7.535  0.0886 -0.6743  0.3164
 3669SOL     hw14674   5.765   4.361   7.615  2.2094  0.7106 -1.1888
 3669SOL     hw14675   5.752   4.383   7.466 -0.4248 -2.4774 -1.5636
 3669SOL     vw14676   5.737   4.335   7.537  0.3009 -0.7296 -0.1302
 3670SOL     ow14677   2.512   2.206   0.029 -0.5450 -0.5176 -0.5696
 3670SOL     hw14678   2.501   2.136   0.094  0.5851  0.6274  0.9588
 3670SOL     hw14679   2.563   2.167  -0.041 -0.8210 -1.4974 -0.2316
 3670SOL     vw14680   2.517   2.192   0.029 -0.4323 -0.4958 -0.3234
 3671SOL     ow14681   5.754   4.949   4.360 -0.8991 -0.1697 -0.1085
 3671SOL     hw14682   5.707   4.884   4.308 -0.2754 -2.4743  1.9786
 3671SOL     hw14683   5.728   4.930   4.451 -0.3541  2.2844  0.6432
 3671SOL     vw14684   5.744   4.938   4.365 -0.7448 -0.1502  0.2658
 3672SOL     ow14685   6.091   1.751   0.627  0.3828 -0.6007  0.6813
 3672SOL     hw14686   6.125   1.798   0.550 -1.4706  0.4203  0.4185
 3672SOL     hw14687   6.023   1.694   0.592 -2.3180  1.7240  1.7085
 3672SOL     vw14688   6.086   1.750   0.612 -0.2182 -0.1593  0.7821
 3673SOL     ow14689   4.009   6.428   4.537  0.0724  0.8966  0.8302
 3673SOL     hw14690   3.986   6.383   4.619 -0.4032 -2.0079 -0.7815
 3673SOL     hw14691   3.932   6.416   4.481  1.6387 -0.2554 -1.2129
 3673SOL     vw14692   3.996   6.421   4.541  0.2164  0.3617  0.3479
 3674SOL     ow14693   6.387   0.767   6.177 -0.1183 -0.5381 -0.4656
 3674SOL     hw14694   6.298   0.750   6.143 -0.1180  0.4870 -1.0184
 3674SOL     hw14695   6.444   0.756   6.101  0.1700 -0.6483 -0.2345
 3674SOL     vw14696   6.382   0.763   6.163 -0.0799 -0.4174 -0.5081
 3675SOL     ow14697   0.898   6.005   3.988  0.5646  0.5122  0.0081
 3675SOL     hw14698   0.822   5.977   4.040 -0.2135  3.1472  0.4466
 3675SOL     hw14699   0.964   5.939   4.005 -1.5659 -1.8304 -0.2897
 3675SOL     vw14700   0.897   5.993   3.997  0.1808  0.5505  0.0266
 3676SOL     ow14701   2.827   3.577   7.489  0.4619  0.3734 -0.9443
 3676SOL     hw14702   2.771   3.628   7.431 -0.0208  1.4881  0.4195
 3676SOL     hw14703   2.904   3.557   7.437 -0.5237  0.1449 -2.3757
 3676SOL     vw14704   2.830   3.581   7.475  0.2682  0.4903 -0.9532
 3677SOL     ow14705   6.699   2.143   2.028 -0.0056  0.5296  0.3742
 3677SOL     hw14706   6.662   2.226   2.058 -0.4664  0.7417 -0.7357
 3677SOL     hw14707   6.787   2.166   1.996 -0.9910  1.1033 -2.1941
 3677SOL     vw14708   6.706   2.157   2.027 -0.1962  0.6332 -0.1110
 3678SOL     ow14709   6.708   4.206   5.628 -0.0757 -0.1278 -0.0717
 3678SOL     hw14710   6.666   4.290   5.647 -1.0914 -0.6935  0.2426
 3678SOL     hw14711   6.673   4.182   5.542  2.0812  0.9110 -1.3209
 3678SOL     vw14712   6.698   4.214   5.619  0.0749 -0.0656 -0.1948
 3679SOL     ow14713   1.505   6.400   2.212  0.2244  0.6146 -0.5215
 3679SOL     hw14714   1.570   6.362   2.271 -0.5845  1.6454  1.1461
 3679SOL     hw14715   1.533   6.491   2.201 -0.4140  0.8185 -0.5223
 3679SOL     vw14716   1.517   6.407   2.219  0.0334  0.7777 -0.3016
 3680SOL     ow14717   0.216   0.380   4.391 -0.1894  0.7840  0.1569
 3680SOL     hw14718   0.304   0.410   4.368  0.2271 -0.7084 -0.2967
 3680SOL     hw14719   0.228   0.322   4.466 -0.3080 -1.9232 -1.7616
 3680SOL     vw14720   0.229   0.376   4.398 -0.1501  0.2299 -0.1559
 3681SOL     ow14721   6.515   7.241   0.573  0.1339  0.2033  0.9791
 3681SOL     hw14722   6.529   7.149   0.550 -0.0842  1.0340 -3.0973
 3681SOL     hw14723   6.595   7.286   0.546 -0.7658  1.5732  0.4833
 3681SOL     vw14724   6.528   7.235   0.567 -0.0134  0.4938  0.3758
 3682SOL     ow14725   1.291   0.417   3.738  0.3626 -0.5879 -0.0564
 3682SOL     hw14726   1.218   0.402   3.677 -1.0754  4.0026  0.1841
 3682SOL     hw14727   1.254   0.398   3.824  0.8866 -2.3840 -0.1904
 3682SOL     vw14728   1.277   0.412   3.741  0.2420 -0.2192 -0.0424
 3683SOL     ow14729   5.759   4.225   4.118 -0.8122  0.1358 -0.1838
 3683SOL     hw14730   5.809   4.216   4.199 -0.9280  1.0351  0.0029
 3683SOL     hw14731   5.671   4.248   4.146 -0.3975  2.4805 -0.5571
 3683SOL     vw14732   5.754   4.227   4.132 -0.7730  0.5639 -0.2081
 3684SOL     ow14733   6.514   3.073   6.559  0.2990 -0.3269 -0.2835
 3684SOL     hw14734   6.536   3.072   6.466 -1.3687  2.6168 -0.8117
 3684SOL     hw14735   6.540   2.986   6.590  3.4306 -0.5047 -2.8380
 3684SOL     vw14736   6.520   3.061   6.551  0.4921  0.0379 -0.6902
 3685SOL     ow14737   6.830   6.996   1.884 -0.1390 -0.6385 -0.4672
 3685SOL     hw14738   6.847   7.062   1.951  0.9271  0.8857 -2.1539
 3685SOL     hw14739   6.743   7.018   1.850 -1.0996 -1.9898  0.9857
 3685SOL     vw14740   6.821   7.008   1.888 -0.1249 -0.6154 -0.4980
 3686SOL     ow14741   5.693   4.300   6.473 -0.4522  0.6749 -0.4727
 3686SOL     hw14742   5.747   4.275   6.398 -1.5765  1.3114 -1.5039
 3686SOL     hw14743   5.706   4.394   6.482 -2.0622  1.0044 -1.3014
 3686SOL     vw14744   5.702   4.309   6.464 -0.8130  0.8023 -0.7184
 3687SOL     ow14745   2.312   6.389   6.583 -0.1255  0.0673  0.2407
 3687SOL     hw14746   2.364   6.345   6.650  0.5465  2.9171  1.7176
 3687SOL     hw14747   2.371   6.398   6.508  0.3070  0.0286  0.5756
 3687SOL     vw14748   2.327   6.384   6.582  0.0204  0.4385  0.4799
 3688SOL     ow14749   6.635   4.139   5.378 -0.2766  0.1848  0.0495
 3688SOL     hw14750   6.573   4.197   5.333  0.1543  1.1329  0.6666
 3688SOL     hw14751   6.718   4.153   5.334 -0.3076 -0.4986 -0.2520
 3688SOL     vw14752   6.638   4.148   5.366 -0.2239  0.2198  0.0913
 3689SOL     ow14753   0.624   1.514   5.205 -0.2571 -0.2787  0.4855
 3689SOL     hw14754   0.654   1.439   5.153 -0.4722  1.0072 -1.5805
 3689SOL     hw14755   0.539   1.537   5.167 -0.2165  1.0078  1.1193
 3689SOL     vw14756   0.616   1.507   5.193 -0.2801  0.0607  0.2968
 3690SOL     ow14757   3.379   0.470   1.629 -0.2180 -0.3343 -0.3683
 3690SOL     hw14758   3.366   0.408   1.557  0.7151 -0.3643 -0.5281
 3690SOL     hw14759   3.352   0.555   1.593  1.0914 -0.1833 -1.0944
 3690SOL     vw14760   3.374   0.473   1.615  0.0778 -0.3183 -0.4852
 3691SOL     ow14761   6.220   7.013   6.665  0.2589 -1.0834 -0.2283
 3691SOL     hw14762   6.308   6.997   6.632  0.2554 -0.4449 -0.5620
 3691SOL     hw14763   6.163   7.001   6.589  0.3266  1.1946 -0.7076
 3691SOL     vw14764   6.224   7.009   6.651  0.2673 -0.6986 -0.3359
 3692SOL     ow14765   2.952   2.534   1.023  0.1671 -0.6340  0.3464
 3692SOL     hw14766   2.892   2.464   1.048 -2.2564  0.8934 -0.7944
 3692SOL     hw14767   2.953   2.531   0.927 -0.6797  1.3819  0.2359
 3692SOL     vw14768   2.944   2.524   1.013 -0.2644 -0.1665  0.1814
 3693SOL     ow14769   2.978   4.673   2.526  0.7348  0.3183 -0.4575
 3693SOL     hw14770   3.055   4.671   2.471  0.5635 -0.1127 -0.6862
 3693SOL     hw14771   2.951   4.581   2.533  0.8820  0.3385  0.5200
 3693SOL     vw14772   2.984   4.660   2.520  0.7317  0.2644 -0.3587
 3694SOL     ow14773   6.387   2.184   2.034  0.3713  0.7445 -0.5896
 3694SOL     hw14774   6.433   2.203   2.116  1.7037  0.0998 -1.1412
 3694SOL     hw14775   6.323   2.117   2.057  0.4253  0.8997  0.0118
 3694SOL     vw14776   6.385   2.177   2.048  0.5541  0.6800 -0.5832
 3695SOL     ow14777   1.398   4.036   5.584 -0.6027 -0.3242  0.6775
 3695SOL     hw14778   1.386   3.942   5.578 -1.5516 -0.1305 -2.4728
 3695SOL     hw14779   1.477   4.053   5.531 -0.2370  0.6440  1.4945
 3695SOL     vw14780   1.407   4.026   5.576 -0.6797 -0.1707  0.3698
 3696SOL     ow14781   5.794   6.914   6.257  0.5805  0.6231 -0.6209
 3696SOL     hw14782   5.716   6.951   6.297  0.7097  0.8259 -0.5546
 3696SOL     hw14783   5.803   6.961   6.174 -1.5629 -2.0005 -2.5536
 3696SOL     vw14784   5.785   6.925   6.251  0.3150  0.3037 -0.8671
 3697SOL     ow14785   0.210   0.738   1.847 -0.0990 -0.5804  0.3902
 3697SOL     hw14786   0.178   0.648   1.857  0.0042 -0.8702 -1.5417
 3697SOL     hw14787   0.152   0.777   1.782 -0.3663  0.8987  1.4672
 3697SOL     vw14788   0.198   0.731   1.840 -0.1206 -0.4235  0.2774
 3698SOL     ow14789   5.412   2.529   3.240 -0.5264  0.1739 -0.3379
 3698SOL     hw14790   5.378   2.440   3.243 -1.0201  0.3785  0.5073
 3698SOL     hw14791   5.358   2.577   3.303  2.3766  0.1282  2.4585
 3698SOL     vw14792   5.400   2.524   3.249 -0.2086  0.1948  0.1426
 3699SOL     ow14793   0.308   3.696   4.420 -0.1713  0.0942 -0.0551
 3699SOL     hw14794   0.392   3.674   4.461  0.7822 -0.7962 -2.3624
 3699SOL     hw14795   0.330   3.720   4.330 -2.2742  1.1483 -0.3471
 3699SOL     vw14796   0.322   3.696   4.414 -0.3230  0.1158 -0.3982
 3700SOL     ow14797   3.496   0.471   5.673 -0.5027 -0.0094  0.3876
 3700SOL     hw14798   3.533   0.465   5.761  2.3453 -0.8435 -0.7437
 3700SOL     hw14799   3.429   0.403   5.671 -0.4761 -0.1130  1.8467
 3700SOL     vw14800   3.492   0.461   5.685 -0.1234 -0.1332  0.4308
 3701SOL     ow14801   0.624   6.856   4.802  0.4567  0.1807  0.4901
 3701SOL     hw14802   0.591   6.787   4.860  1.2733 -1.5814 -1.0417
 3701SOL     hw14803   0.689   6.903   4.855 -1.9547  1.5783  2.4337
 3701SOL     vw14804   0.628   6.853   4.817  0.2463  0.1326  0.5443
 3702SOL     ow14805   0.657   2.689   6.294 -0.8485 -0.4075 -0.1410
 3702SOL     hw14806   0.645   2.750   6.366 -0.1515 -0.6081  0.1479
 3702SOL     hw14807   0.617   2.607   6.325  0.3345 -0.7835  0.4224
 3702SOL     vw14808   0.650   2.686   6.307 -0.6005 -0.4835 -0.0286
 3703SOL     ow14809   1.036   0.394   0.097  0.2729 -0.4107  0.4500
 3703SOL     hw14810   1.085   0.323   0.140 -0.6162  0.3157  2.8408
 3703SOL     hw14811   1.064   0.473   0.142  1.3813  0.8655 -2.3065
 3703SOL     vw14812   1.046   0.395   0.109  0.3018 -0.1465  0.4018
 3704SOL     ow14813   3.715   2.226   4.153  0.3189  0.2764  0.2896
 3704SOL     hw14814   3.683   2.303   4.199 -1.1568  0.6420 -1.2320
 3704SOL     hw14815   3.649   2.159   4.169  0.0008  0.2859 -0.9086
 3704SOL     vw14816   3.702   2.227   4.161  0.0821  0.3260 -0.0694
 3705SOL     ow14817   0.842   1.902   7.243  0.1187 -0.6778 -0.0208
 3705SOL     hw14818   0.780   1.873   7.310  1.4648  0.6941  1.9035
 3705SOL     hw14819   0.852   1.996   7.258 -0.7972  0.0958 -3.2783
 3705SOL     vw14820   0.835   1.911   7.254  0.1755 -0.3948 -0.1967
 3706SOL     ow14821   4.219   3.305   0.368 -0.5433  0.4819 -0.0429
 3706SOL     hw14822   4.180   3.241   0.427 -0.6125  3.2501  3.2792
 3706SOL     hw14823   4.301   3.330   0.412 -1.8723  4.6161  0.5249
 3706SOL     vw14824   4.225   3.300   0.382 -0.7277  1.3926  0.4703
 3707SOL     ow14825   0.508   3.402   7.353  0.1397 -0.0779  0.7717
 3707SOL     hw14826   0.596   3.393   7.317  0.0338 -1.9357  0.8765
 3707SOL     hw14827   0.510   3.484   7.401  1.5672  0.3107  0.0875
 3707SOL     vw14828   0.520   3.411   7.355  0.3141 -0.2718  0.6952
 3708SOL     ow14829   5.699   4.591   3.826  0.2500 -0.3298 -0.7317
 3708SOL     hw14830   5.636   4.661   3.845  2.6743  1.4925  1.3497
 3708SOL     hw14831   5.735   4.614   3.741 -1.1841 -0.9027 -1.5344
 3708SOL     vw14832   5.695   4.603   3.817  0.3805 -0.1647 -0.5630
 3709SOL     ow14833   1.602   3.712   4.618 -0.3775  0.5513 -0.2144
 3709SOL     hw14834   1.632   3.648   4.682 -0.3583  0.2678 -0.5038
 3709SOL     hw14835   1.681   3.756   4.588 -0.6116  2.6048  1.9480
 3709SOL     vw14836   1.616   3.709   4.622 -0.4058  0.7849  0.0329
 3710SOL     ow14837   6.825   4.304   6.517 -0.1884  0.0650  0.9261
 3710SOL     hw14838   6.803   4.392   6.548 -0.4936  0.4454 -0.3112
 3710SOL     hw14839   6.917   4.309   6.493 -0.2366  0.0807  0.7439
 3710SOL     vw14840   6.834   4.316   6.518 -0.2351  0.1173  0.7389
 3711SOL     ow14841   5.067   7.393   4.105 -0.6527 -0.0781  0.1561
 3711SOL     hw14842   5.050   7.301   4.128  4.0477 -0.9573  1.2516
 3711SOL     hw14843   5.076   7.392   4.010 -2.3596 -0.3133 -0.0301
 3711SOL     vw14844   5.066   7.381   4.095 -0.2575 -0.2253  0.2761
 3712SOL     ow14845   2.818   0.740   4.111  0.4637 -0.5577  0.9301
 3712SOL     hw14846   2.748   0.697   4.159  1.0113 -0.8119  1.5190
 3712SOL     hw14847   2.851   0.672   4.051 -0.6594 -0.0470 -0.3199
 3712SOL     vw14848   2.813   0.725   4.109  0.3878 -0.5238  0.8433
 3713SOL     ow14849   3.859   6.123   2.755 -0.5648 -0.5121 -0.1578
 3713SOL     hw14850   3.951   6.100   2.742 -0.3252  0.5164 -0.3766
 3713SOL     hw14851   3.856   6.217   2.740 -1.2085 -0.0954  2.1034
 3713SOL     vw14852   3.871   6.132   2.752 -0.6181 -0.3216  0.1116
 3714SOL     ow14853   5.581   5.926   1.851  0.0801  0.4461 -0.6211
 3714SOL     hw14854   5.556   5.902   1.762  2.2787 -1.1435 -0.8873
 3714SOL     hw14855   5.643   5.998   1.841  1.2946 -0.5554 -0.4970
 3714SOL     vw14856   5.586   5.932   1.838  0.5302  0.1042 -0.6399
 3715SOL     ow14857   7.479   1.047   2.102  0.2884  0.3169  0.6397
 3715SOL     hw14858   7.438   1.124   2.063 -1.7415 -1.7268 -1.5861
 3715SOL     hw14859   7.513   0.997   2.028  1.6013 -0.9514  2.0139
 3715SOL     vw14860   7.478   1.051   2.087  0.1941 -0.1202  0.5273
 3716SOL     ow14861   2.935   6.903   7.627 -0.7907 -0.2117 -0.4550
 3716SOL     hw14862   2.932   6.947   7.712  0.4471 -1.4988  0.2972
 3716SOL     hw14863   2.868   6.834   7.634  0.2519 -1.2054  0.0311
 3716SOL     vw14864   2.926   6.900   7.639 -0.4897 -0.5126 -0.2916
 3717SOL     ow14865   1.352   4.126   1.995  0.7167  0.1097  0.3207
 3717SOL     hw14866   1.330   4.173   2.076  2.2168 -2.2760  2.2570
 3717SOL     hw14867   1.447   4.131   1.990  0.6092  1.1032 -1.9754
 3717SOL     vw14868   1.361   4.133   2.005  0.9004 -0.0741  0.2732
 3718SOL     ow14869   1.082   2.482   1.520 -0.2191 -0.1162 -0.2174
 3718SOL     hw14870   1.036   2.508   1.600  0.5031 -0.4774  0.3227
 3718SOL     hw14871   1.013   2.446   1.464 -0.9228  1.1846 -0.2259
 3718SOL     vw14872   1.067   2.480   1.523 -0.2166  0.0076 -0.1473
 3719SOL     ow14873   4.573   6.487   0.444 -0.7430 -0.5206  0.3706
 3719SOL     hw14874   4.479   6.500   0.456 -1.0520 -2.9513  1.2759
 3719SOL     hw14875   4.609   6.575   0.438 -2.8204  0.5503  2.1286
 3719SOL     vw14876   4.565   6.500   0.445 -1.0579 -0.7002  0.7220
 3720SOL     ow14877   3.464   1.592   0.676  0.1925  0.4844 -0.1800
 3720SOL     hw14878   3.475   1.600   0.771  0.9167  1.1077 -0.3018
 3720SOL     hw14879   3.372   1.613   0.661 -0.0369 -0.0409  0.4214
 3720SOL     vw14880   3.453   1.596   0.687  0.2577  0.4973 -0.1167
 3721SOL     ow14881   0.216   1.887   2.817  0.3740  0.6759 -0.0500
 3721SOL     hw14882   0.296   1.923   2.856  0.6754  0.5461 -0.5445
 3721SOL     hw14883   0.246   1.840   2.739 -0.4092  2.4006 -1.4555
 3721SOL     vw14884   0.230   1.885   2.812  0.3104  0.8863 -0.3005
 3722SOL     ow14885   2.869   1.962   1.317 -0.3384  0.8822  0.2234
 3722SOL     hw14886   2.940   1.927   1.372 -0.5789  1.9911  1.2929
 3722SOL     hw14887   2.912   1.987   1.236  0.5584  1.7460  0.9380
 3722SOL     vw14888   2.884   1.961   1.314 -0.2518  1.1424  0.4588
 3723SOL     ow14889   4.467   1.635   5.786 -0.1883 -0.2659 -0.1670
 3723SOL     hw14890   4.437   1.574   5.718  1.7800 -2.0425  0.4627
 3723SOL     hw14891   4.488   1.579   5.860  3.4313  0.8897 -0.1480
 3723SOL     vw14892   4.466   1.620   5.787  0.5488 -0.3478 -0.0813
 3724SOL     ow14893   2.420   3.976   3.393 -0.2224 -0.8302 -0.9954
 3724SOL     hw14894   2.399   3.964   3.300  1.2169  3.1341 -2.0321
 3724SOL     hw14895   2.399   4.068   3.410  2.6204 -0.5392  1.6857
 3724SOL     vw14896   2.414   3.987   3.383  0.3425 -0.2689 -0.7786
 3725SOL     ow14897   3.217   2.936   0.699 -0.3450 -0.6462  0.0806
 3725SOL     hw14898   3.214   2.969   0.788 -1.0718 -0.9217  0.1642
 3725SOL     hw14899   3.253   3.008   0.647 -0.8183 -0.1444  0.4421
 3725SOL     vw14900   3.221   2.950   0.704 -0.5033 -0.6162  0.1393
 3726SOL     ow14901   1.680   0.714   3.279 -0.2655 -0.0612 -0.0930
 3726SOL     hw14902   1.647   0.626   3.296  0.1117 -0.4839 -1.4119
 3726SOL     hw14903   1.603   0.761   3.245 -0.0646 -0.4183 -1.0886
 3726SOL     vw14904   1.665   0.709   3.276 -0.1892 -0.1641 -0.3983
 3727SOL     ow14905   1.117   1.867   2.128 -0.8867 -0.5950  0.3229
 3727SOL     hw14906   1.042   1.849   2.185 -1.5420 -1.6341 -0.8249
 3727SOL     hw14907   1.163   1.784   2.122  0.1451 -0.0598  0.6932
 3727SOL     vw14908   1.113   1.854   2.134 -0.8370 -0.6615  0.2204
 3728SOL     ow14909   2.264   2.405   7.074  0.5708 -0.0372  0.9772
 3728SOL     hw14910   2.181   2.433   7.112  0.0155  0.9271 -0.8450
 3728SOL     hw14911   2.289   2.476   7.016  0.1117 -2.3717 -2.3411
 3728SOL     vw14912   2.257   2.418   7.071  0.4370 -0.2180  0.2990
 3729SOL     ow14913   7.602   0.795   7.222 -0.1627  0.4019  0.2946
 3729SOL     hw14914   7.551   0.715   7.208 -0.5091  0.8684 -1.4251
 3729SOL     hw14915   7.536   0.864   7.231  0.1358  0.5315  1.6209
 3729SOL     vw14916   7.587   0.794   7.221 -0.1691  0.4805  0.2427
 3730SOL     ow14917   3.035   7.555   5.810  0.6048  0.0093  0.2874
 3730SOL     hw14918   3.081   7.563   5.726 -0.3780 -0.9390 -0.3724
 3730SOL     hw14919   3.070   7.627   5.863  2.3101 -0.2478 -0.4158
 3730SOL     vw14920   3.046   7.566   5.806  0.7002 -0.1495  0.1075
 3731SOL     ow14921   0.554   4.545   1.966  0.5997 -0.3708 -0.1787
 3731SOL     hw14922   0.612   4.546   1.889 -1.1982 -1.6884 -1.6279
 3731SOL     hw14923   0.609   4.510   2.036  1.3548 -2.5710 -1.7385
 3731SOL     vw14924   0.569   4.541   1.965  0.4621 -0.8347 -0.5757
 3732SOL     ow14925   1.425   5.208   3.387 -0.3053  0.0937 -0.1565
 3732SOL     hw14926   1.358   5.141   3.394  1.8235 -1.9996  2.4491
 3732SOL     hw14927   1.492   5.169   3.330  0.2427  0.6689  0.0824
 3732SOL     vw14928   1.425   5.194   3.380  0.0479 -0.1068  0.2187
 3733SOL     ow14929   2.977   5.335   6.469 -0.3977  0.2416  0.6503
 3733SOL     hw14930   2.928   5.253   6.464  0.2912 -0.1813  0.6981
 3733SOL     hw14931   3.055   5.320   6.415 -1.4076  1.7052 -1.3278
 3733SOL     vw14932   2.981   5.322   6.461 -0.4400  0.3791  0.3953
 3734SOL     ow14933   4.949   4.867   6.160 -0.6740  0.8441 -0.5829
 3734SOL     hw14934   5.033   4.828   6.136 -1.0422  0.0032 -0.5124
 3734SOL     hw14935   4.884   4.800   6.139 -1.1687  0.7951  1.0138
 3734SOL     vw14936   4.952   4.853   6.154 -0.7877  0.7267 -0.3629
 3735SOL     ow14937   2.192   0.676   2.410 -0.5937 -0.0017 -0.4113
 3735SOL     hw14938   2.256   0.606   2.416 -1.4449 -0.6836  1.4714
 3735SOL     hw14939   2.116   0.636   2.366 -1.1463 -0.3548  0.8218
 3735SOL     vw14940   2.190   0.662   2.405 -0.7789 -0.1383 -0.0001
 3736SOL     ow14941   5.003   2.149   2.584  0.0476 -0.1310  0.4772
 3736SOL     hw14942   5.096   2.126   2.592  0.4678  1.2755  0.0370
 3736SOL     hw14943   4.959   2.066   2.571  1.5283 -0.6775 -1.6834
 3736SOL     vw14944   5.010   2.135   2.584  0.2983 -0.0173  0.1339
 3737SOL     ow14945   4.571   5.342   4.789 -0.4067 -0.8012 -0.2433
 3737SOL     hw14946   4.504   5.381   4.732  1.8758  0.3305 -2.3622
 3737SOL     hw14947   4.563   5.390   4.871 -1.7664 -0.2711 -0.6509
 3737SOL     vw14948   4.561   5.354   4.792 -0.2851 -0.5822 -0.5767
 3738SOL     ow14949   1.874   6.245   0.301 -0.0541  0.0311  0.4530
 3738SOL     hw14950   1.778   6.234   0.303  0.1140 -1.4903  1.0067
 3738SOL     hw14951   1.907   6.183   0.366  1.5074 -1.8108 -1.9140
 3738SOL     vw14952   1.865   6.236   0.310  0.1740 -0.4125  0.2138
 3739SOL     ow14953   4.577   7.481   0.112 -0.1712 -0.6716  0.4381
 3739SOL     hw14954   4.628   7.560   0.092  0.1947 -0.0228  3.4582
 3739SOL     hw14955   4.614   7.414   0.055  0.2457  1.0487 -1.4385
 3739SOL     vw14956   4.589   7.483   0.102 -0.0677 -0.3588  0.5890
 3740SOL     ow14957   0.277   5.265   2.159 -0.1010  0.2520 -0.4918
 3740SOL     hw14958   0.188   5.250   2.128  0.3531  0.6979 -2.1072
 3740SOL     hw14959   0.324   5.185   2.135  0.1416  0.3962 -0.5028
 3740SOL     vw14960   0.272   5.252   2.152 -0.0091  0.3297 -0.7064
 3741SOL     ow14961   1.904   4.783   5.048  0.5919 -0.0451 -0.5952
 3741SOL     hw14962   1.899   4.841   4.972  1.8416  2.2713  0.9768
 3741SOL     hw14963   1.854   4.828   5.116  2.7379 -0.0202  1.0899
 3741SOL     vw14964   1.897   4.796   5.047  1.0399  0.2637 -0.1652
 3742SOL     ow14965   0.354   0.454   6.862  0.4335  0.3434 -0.1002
 3742SOL     hw14966   0.282   0.450   6.799  0.5753  1.4032 -0.3453
 3742SOL     hw14967   0.359   0.546   6.887  2.4414  0.5113 -0.9565
 3742SOL     vw14968   0.345   0.466   6.857  0.7172  0.5054 -0.2456
 3743SOL     ow14969   7.129   7.546   1.268  0.0482 -0.3510 -0.0192
 3743SOL     hw14970   7.069   7.510   1.333 -0.2729  1.6807  0.8973
 3743SOL     hw14971   7.137   7.478   1.202 -0.3510 -2.1284  1.6738
 3743SOL     vw14972   7.122   7.532   1.268 -0.0470 -0.3176  0.3251
 3744SOL     ow14973   7.089   6.062   5.434 -0.6110  0.3627  0.5578
 3744SOL     hw14974   7.072   6.097   5.346 -1.2060  2.0738  1.3072
 3744SOL     hw14975   7.168   6.009   5.424 -1.5564 -0.7880 -1.3136
 3744SOL     vw14976   7.097   6.060   5.421 -0.8144  0.4365  0.4096
 3745SOL     ow14977   4.604   6.481   3.330  0.5063  0.0127 -0.5007
 3745SOL     hw14978   4.642   6.393   3.323 -0.2272 -0.2238 -1.9246
 3745SOL     hw14979   4.557   6.480   3.413  0.1373 -1.0954 -0.7045
 3745SOL     vw14980   4.603   6.469   3.340  0.3607 -0.1645 -0.7155
 3746SOL     ow14981   2.545   5.884   6.255 -0.4514  0.0595 -0.0026
 3746SOL     hw14982   2.608   5.812   6.252  0.0335  0.2758  2.6141
 3746SOL     hw14983   2.560   5.932   6.174  3.9087  0.9789  1.1073
 3746SOL     vw14984   2.555   5.881   6.244  0.1878  0.2096  0.4890
 3747SOL     ow14985   5.857   5.431   0.894  0.0409  0.5099 -0.2237
 3747SOL     hw14986   5.848   5.339   0.870 -0.5873  0.6722 -0.6495
 3747SOL     hw14987   5.771   5.469   0.874 -0.2022  0.8677  1.4045
 3747SOL     vw14988   5.845   5.424   0.888 -0.0739  0.5786 -0.0650
 3748SOL     ow14989   2.151   6.774   6.221 -0.4276 -0.0743  0.7237
 3748SOL     hw14990   2.099   6.828   6.160 -0.2954 -1.4729 -0.7120
 3748SOL     hw14991   2.134   6.684   6.192 -0.2087 -0.7905  2.6916
 3748SOL     vw14992   2.142   6.769   6.209 -0.3812 -0.3533  0.7939
 3749SOL     ow14993   6.238   6.264   0.751  0.2118  0.1514 -0.1926
 3749SOL     hw14994   6.219   6.188   0.806  0.3662 -0.8410 -1.4550
 3749SOL     hw14995   6.178   6.255   0.677 -0.0648  1.5101 -0.1571
 3749SOL     vw14996   6.228   6.253   0.748  0.1957  0.1996 -0.3545
 3750SOL     ow14997   4.409   2.823   7.238 -0.1400  0.3283 -0.3929
 3750SOL     hw14998   4.359   2.813   7.319  2.2713 -3.7313  0.9115
 3750SOL     hw14999   4.349   2.866   7.177 -3.4951 -0.0310  2.3532
 3750SOL     vw15000   4.395   2.827   7.240 -0.2646 -0.2548  0.1416
 3751SOL     ow15001   6.653   3.280   6.486 -0.4769  0.5732 -0.5201
 3751SOL     hw15002   6.601   3.214   6.530 -0.6713 -0.6696 -2.4822
 3751SOL     hw15003   6.612   3.363   6.509 -0.9006 -0.0562  1.0982
 3751SOL     vw15004   6.641   3.283   6.495 -0.5584  0.3262 -0.5653
 3752SOL     ow15005   3.935   5.192   3.157  0.1398  0.4589  0.1444
 3752SOL     hw15006   3.922   5.200   3.251 -1.2134  1.2332 -0.0803
 3752SOL     hw15007   3.870   5.251   3.119  0.9603  0.5008 -1.2683
 3752SOL     vw15008   3.925   5.201   3.164  0.0696  0.5665 -0.0716
 3753SOL     ow15009   2.512   0.330   6.362 -0.3166 -1.0090  0.0043
 3753SOL     hw15010   2.459   0.251   6.353  0.0537 -1.1335 -1.2047
 3753SOL     hw15011   2.602   0.300   6.348 -0.3479 -0.0606 -2.6870
 3753SOL     vw15012   2.517   0.315   6.359 -0.2718 -0.9003 -0.5102
 3754SOL     ow15013   4.383   6.609   6.875 -0.3204  0.2855 -0.0605
 3754SOL     hw15014   4.316   6.652   6.821 -0.8445 -0.5633 -0.1085
 3754SOL     hw15015   4.348   6.521   6.890  1.7855 -1.0132 -2.0245
 3754SOL     vw15016   4.370   6.603   6.870 -0.1118  0.0021 -0.3262
 3755SOL     ow15017   2.060   5.112   5.615  0.1598 -0.1523  1.0090
 3755SOL     hw15018   2.034   5.040   5.557  2.2321  0.7223 -1.1358
 3755SOL     hw15019   1.979   5.161   5.629 -0.7318 -1.3549  0.2924
 3755SOL     vw15020   2.046   5.109   5.609  0.3154 -0.1955  0.6316
 3756SOL     ow15021   5.902   7.126   6.461 -0.6301  0.4554 -0.6057
 3756SOL     hw15022   5.844   7.094   6.530  2.9469  0.3745  2.7115
 3756SOL     hw15023   5.918   7.049   6.406  0.4304 -1.0853  1.6704
 3756SOL     vw15024   5.897   7.112   6.463 -0.0181  0.2413  0.1321
 3757SOL     ow15025   1.362   3.802   4.073 -0.2056  0.1977 -0.3779
 3757SOL     hw15026   1.440   3.854   4.096  0.0876 -0.1868 -0.4965
 3757SOL     hw15027   1.291   3.842   4.123 -0.3598  1.8544 -1.8399
 3757SOL     vw15028   1.363   3.814   4.083 -0.1872  0.3657 -0.5865
 3758SOL     ow15029   1.693   2.367   1.127 -0.2200 -0.4801  0.2597
 3758SOL     hw15030   1.616   2.325   1.165 -1.5796 -0.3188 -2.1513
 3758SOL     hw15031   1.724   2.306   1.061  0.9043  0.0747  0.2534
 3758SOL     vw15032   1.687   2.354   1.123 -0.2511 -0.3856 -0.0593
 3759SOL     ow15033   4.809   5.933   5.232 -0.4230 -0.1033  0.5568
 3759SOL     hw15034   4.863   5.998   5.276  0.4238  0.5990 -1.3772
 3759SOL     hw15035   4.736   5.917   5.292  0.7917  0.5543  2.2855
 3759SOL     vw15036   4.806   5.939   5.245 -0.1507  0.0763  0.5295
 3760SOL     ow15037   7.610   1.933   0.031  0.2719 -1.4103 -0.6170
 3760SOL     hw15038   7.616   1.949  -0.063  1.5683 -2.2782 -0.7029
 3760SOL     hw15039   7.695   1.896   0.055  0.6616  0.5232  1.2629
 3760SOL     vw15040   7.622   1.930   0.022  0.4943 -1.2697 -0.3803
 3761SOL     ow15041   6.167   3.780   5.561 -0.3095  0.3846 -0.3365
 3761SOL     hw15042   6.099   3.795   5.496 -1.0617  0.3821  0.4333
 3761SOL     hw15043   6.216   3.862   5.566 -0.7539  0.6498 -0.3326
 3761SOL     vw15044   6.165   3.793   5.553 -0.4675  0.4194 -0.2344
 3762SOL     ow15045   5.325   6.449   2.591 -0.2055  0.8503  0.5457
 3762SOL     hw15046   5.403   6.490   2.629  2.0491 -4.4210  2.6297
 3762SOL     hw15047   5.279   6.410   2.666 -2.8225  0.6016 -1.0605
 3762SOL     vw15048   5.329   6.449   2.606 -0.2534  0.1218  0.6087
 3763SOL     ow15049   6.833   1.570   6.743 -0.1820 -0.1285 -0.4696
 3763SOL     hw15050   6.767   1.567   6.674 -1.2040 -1.5599  0.5217
 3763SOL     hw15051   6.914   1.546   6.699 -1.0525 -2.4057 -0.9691
 3763SOL     vw15052   6.835   1.567   6.728 -0.4315 -0.6177 -0.4048
 3764SOL     ow15053   3.809   5.980   3.334 -0.2270  0.2429 -0.0574
 3764SOL     hw15054   3.830   6.073   3.340  0.9956 -0.0161 -0.0615
 3764SOL     hw15055   3.893   5.937   3.321 -0.8562 -0.8013 -0.8780
 3764SOL     vw15056   3.823   5.986   3.333 -0.1485  0.0708 -0.1663
 3765SOL     ow15057   3.740   4.988   6.054 -0.3540 -0.3128  0.1360
 3765SOL     hw15058   3.706   5.048   6.121 -0.1179  0.1159 -0.1260
 3765SOL     hw15059   3.689   4.907   6.067 -0.9328  0.0621  0.2547
 3765SOL     vw15060   3.729   4.985   6.065 -0.3992 -0.2069  0.1171
 3766SOL     ow15061   4.169   7.415   6.914  0.3805  0.6835 -0.3003
 3766SOL     hw15062   4.102   7.373   6.966 -0.3374 -0.4955 -2.0849
 3766SOL     hw15063   4.250   7.401   6.963 -0.1994 -0.7244  0.3097
 3766SOL     vw15064   4.171   7.408   6.927  0.2093  0.3424 -0.4554
 3767SOL     ow15065   3.874   0.561   0.272 -0.2252 -0.0221  0.2941
 3767SOL     hw15066   3.962   0.563   0.235  0.1861 -0.5905  1.2093
 3767SOL     hw15067   3.851   0.468   0.277 -0.8487  0.1159  0.1401
 3767SOL     vw15068   3.882   0.549   0.268 -0.2532 -0.0789  0.3945
 3768SOL     ow15069   0.182   6.427   3.835 -0.3454 -1.2634  0.1090
 3768SOL     hw15070   0.126   6.504   3.845 -0.6895 -1.3331 -1.1202
 3768SOL     hw15071   0.127   6.354   3.865  0.5464 -0.9005  2.8774
 3768SOL     vw15072   0.167   6.427   3.840 -0.2732 -1.2248  0.3120
 3769SOL     ow15073   2.837   0.946   3.203  0.0917  0.4013 -0.4757
 3769SOL     hw15074   2.862   0.934   3.294  0.4354 -2.5164 -0.8543
 3769SOL     hw15075   2.814   1.039   3.196  0.2707  0.7582  2.4921
 3769SOL     vw15076   2.837   0.957   3.214  0.1607  0.0634 -0.1340
 3770SOL     ow15077   7.552   3.992   3.818  0.7976 -0.0877 -0.1414
 3770SOL     hw15078   7.566   3.943   3.737 -1.1199 -0.4104 -0.3272
 3770SOL     hw15079   7.628   3.971   3.872  0.3016 -2.9150 -0.3996
 3770SOL     vw15080   7.564   3.983   3.814  0.4790 -0.5032 -0.1999
 3771SOL     ow15081   5.121   1.121   4.522 -0.2539 -0.2483  0.2675
 3771SOL     hw15082   5.189   1.166   4.574  0.4263 -2.2990  1.2580
 3771SOL     hw15083   5.149   1.133   4.432 -0.9952  2.6769  0.3359
 3771SOL     vw15084   5.134   1.129   4.517 -0.2620 -0.1329  0.4072
 3772SOL     ow15085   2.473   4.909   5.988 -0.1824 -0.5257  0.1517
 3772SOL     hw15086   2.488   4.818   6.017 -2.4159 -1.4774 -1.3553
 3772SOL     hw15087   2.425   4.949   6.061 -1.5613 -1.4250 -0.2280
 3772SOL     vw15088   2.469   4.902   6.002 -0.6590 -0.7701 -0.0970
 3773SOL     ow15089   4.704   0.101   0.099 -0.1719  0.3786  0.0621
 3773SOL     hw15090   4.747   0.122   0.016  0.4241  0.7006  0.4457
 3773SOL     hw15091   4.775   0.070   0.155 -0.7503 -1.0144  0.0831
 3773SOL     vw15092   4.719   0.099   0.095 -0.1695  0.2373  0.1155
 3774SOL     ow15093   1.632   4.064   2.010 -0.2374 -0.0527  0.3647
 3774SOL     hw15094   1.659   4.153   2.033 -0.3184  0.3535 -1.0683
 3774SOL     hw15095   1.591   4.030   2.090 -0.3422  1.2417  0.8793
 3774SOL     vw15096   1.630   4.071   2.024 -0.2619  0.1717  0.2433
 3775SOL     ow15097   3.688   1.561   0.532 -0.2765 -0.2324 -0.0492
 3775SOL     hw15098   3.603   1.596   0.559 -1.1159 -0.0653 -2.6680
 3775SOL     hw15099   3.668   1.478   0.490  0.3871  1.1848 -3.4463
 3775SOL     vw15100   3.674   1.555   0.530 -0.2998 -0.0234 -0.8429
 3776SOL     ow15101   0.700   3.528   4.347 -0.1481  0.4853  0.3745
 3776SOL     hw15102   0.793   3.540   4.325  0.0224  1.9969  1.7441
 3776SOL     hw15103   0.659   3.611   4.322 -1.4201 -0.5900 -1.3447
 3776SOL     vw15104   0.707   3.540   4.341 -0.2934  0.5429  0.3285
 3777SOL     ow15105   4.216   3.800   6.655  0.0085  0.3317  0.1070
 3777SOL     hw15106   4.145   3.860   6.681 -1.2086 -0.1830 -1.8146
 3777SOL     hw15107   4.185   3.713   6.679 -0.7250 -0.0523 -2.0201
 3777SOL     vw15108   4.203   3.797   6.661 -0.2489  0.2131 -0.4270
 3778SOL     ow15109   1.170   2.384   2.696 -0.1898  0.1868 -0.2403
 3778SOL     hw15110   1.154   2.347   2.783 -3.8361  1.4317 -0.1666
 3778SOL     hw15111   1.138   2.317   2.635 -3.0823  1.3926 -0.2444
 3778SOL     vw15112   1.163   2.370   2.699 -1.0526  0.5101 -0.2310
 3779SOL     ow15113   2.733   0.415   4.351  0.2347 -0.8758  0.6235
 3779SOL     hw15114   2.660   0.459   4.307  0.4369  0.9648  2.0417
 3779SOL     hw15115   2.795   0.395   4.281 -0.6739 -0.5266 -0.3061
 3779SOL     vw15116   2.731   0.418   4.336  0.1414 -0.5869  0.6878
 3780SOL     ow15117   1.701   4.918   4.429 -0.3853 -0.0286 -1.0214
 3780SOL     hw15118   1.729   4.858   4.498 -0.8868 -0.7219 -1.4134
 3780SOL     hw15119   1.767   4.988   4.431 -0.2097 -0.2048 -0.0669
 3780SOL     vw15120   1.714   4.919   4.439 -0.4283 -0.1433 -0.9475
 3781SOL     ow15121   5.692   5.213   5.013  0.1237  0.4716 -0.1620
 3781SOL     hw15122   5.704   5.281   5.079 -1.3506 -0.2556  0.9213
 3781SOL     hw15123   5.623   5.157   5.048  1.6475 -1.9399 -0.7327
 3781SOL     vw15124   5.685   5.215   5.026  0.1302  0.0575 -0.0944
 3782SOL     ow15125   7.125   4.960   0.428  0.5095  0.1706  0.7720
 3782SOL     hw15126   7.077   5.026   0.478  1.9628  2.6034 -0.8384
 3782SOL     hw15127   7.070   4.942   0.353  0.8992  0.9607  0.2842
 3782SOL     vw15128   7.112   4.967   0.425  0.7527  0.5958  0.4952
 3783SOL     ow15129   6.795   2.667   6.736  0.6660  1.0517 -0.5014
 3783SOL     hw15130   6.843   2.715   6.804  2.0657 -2.2896  1.0959
 3783SOL     hw15131   6.722   2.627   6.784  1.6669 -1.3501 -0.8774
 3783SOL     vw15132   6.792   2.668   6.751  0.9828  0.2940 -0.3402
 3784SOL     ow15133   1.629   3.940   2.257  0.3403 -0.0900 -0.0266
 3784SOL     hw15134   1.635   3.976   2.345  1.7379  0.7849 -0.4452
 3784SOL     hw15135   1.701   3.876   2.253  0.6552  0.3023 -0.7121
 3784SOL     vw15136   1.639   3.936   2.268  0.5662  0.0772 -0.1724
 3785SOL     ow15137   0.037   3.571   1.861 -1.2708  0.8597 -0.1144
 3785SOL     hw15138   0.060   3.522   1.940 -0.4685 -0.8888 -1.3765
 3785SOL     hw15139  -0.049   3.536   1.836 -0.0872 -1.0084 -1.7922
 3785SOL     vw15140   0.028   3.560   1.868 -1.0088  0.3825 -0.5022
 3786SOL     ow15141   3.216   0.025   0.735 -0.7050 -0.1285  0.3232
 3786SOL     hw15142   3.230   0.094   0.799  0.2090 -0.6949  0.7520
 3786SOL     hw15143   3.221   0.069   0.650  3.9252 -0.1271  0.3208
 3786SOL     vw15144   3.219   0.040   0.732  0.0265 -0.2031  0.3795
 3787SOL     ow15145   2.256   2.033   5.071  0.1299  0.5094 -0.1439
 3787SOL     hw15146   2.324   1.965   5.070  0.0872  0.4400  0.8875
 3787SOL     hw15147   2.175   1.986   5.051  0.3438  0.5742 -1.2686
 3787SOL     vw15148   2.254   2.018   5.068  0.1523  0.5087 -0.1564
 3788SOL     ow15149   0.419   1.108   3.352 -0.6218 -0.3150 -0.0322
 3788SOL     hw15150   0.325   1.101   3.365 -0.7179 -1.8710 -1.2945
 3788SOL     hw15151   0.457   1.043   3.412 -0.2090  1.3395  1.5776
 3788SOL     vw15152   0.412   1.098   3.361 -0.5800 -0.3020  0.0137
 3789SOL     ow15153   1.546   2.731   0.341 -0.0760  0.7020 -0.0987
 3789SOL     hw15154   1.518   2.768   0.257  0.3574  1.7020  0.1848
 3789SOL     hw15155   1.527   2.637   0.333  1.6901  0.4158 -2.0555
 3789SOL     vw15156   1.540   2.723   0.329  0.2142  0.7963 -0.3195
 3790SOL     ow15157   4.398   6.491   5.227  0.2627  0.2828 -0.1505
 3790SOL     hw15158   4.384   6.559   5.161 -0.4534  0.1048 -0.1930
 3790SOL     hw15159   4.311   6.453   5.241  0.1518  1.1581  1.8266
 3790SOL     vw15160   4.384   6.495   5.220  0.1538  0.3748  0.1049
 3791SOL     ow15161   1.890   6.761   7.528  0.0310 -0.4265 -0.4527
 3791SOL     hw15162   1.890   6.852   7.558 -1.5557 -0.9260  1.3502
 3791SOL     hw15163   1.915   6.711   7.606  0.5855 -1.5619 -1.3367
 3791SOL     vw15164   1.893   6.766   7.543 -0.1053 -0.6423 -0.3314
 3792SOL     ow15165   1.531   0.418   3.547  0.4315  0.1792  0.1332
 3792SOL     hw15166   1.542   0.322   3.542 -0.5521  0.0943 -0.6708
 3792SOL     hw15167   1.526   0.445   3.455 -1.4594  0.7330  0.3698
 3792SOL     vw15168   1.532   0.409   3.534  0.0522  0.2411  0.0584
 3793SOL     ow15169   2.799   7.059   5.944 -0.6222 -0.5395 -0.2302
 3793SOL     hw15170   2.855   7.064   6.022 -1.3022  1.8839  0.1982
 3793SOL     hw15171   2.727   7.001   5.970  1.0594 -2.8645 -0.4461
 3793SOL     vw15172   2.797   7.052   5.958 -0.4900 -0.5267 -0.2022
 3794SOL     ow15173   3.951   6.100   3.047 -0.6304 -0.0960  0.1771
 3794SOL     hw15174   3.953   6.196   3.054  1.2636  0.0123 -1.2460
 3794SOL     hw15175   3.996   6.081   2.965 -2.0005 -2.1836 -0.1473
 3794SOL     vw15176   3.957   6.110   3.037 -0.5614 -0.3576 -0.0535
 3795SOL     ow15177   2.326   4.988   4.791 -0.4212 -0.0303 -0.1695
 3795SOL     hw15178   2.303   4.945   4.709 -1.7385 -0.7818  0.5687
 3795SOL     hw15179   2.421   4.999   4.786  0.1692 -3.8903 -0.0411
 3795SOL     vw15180   2.336   4.984   4.780 -0.5170 -0.6385 -0.0551
 3796SOL     ow15181   5.883   7.340   3.332 -1.0206 -0.1908 -0.3726
 3796SOL     hw15182   5.892   7.432   3.357 -0.7578  0.2486 -1.9692
 3796SOL     hw15183   5.930   7.292   3.400 -2.2970  0.7183  1.2392
 3796SOL     vw15184   5.891   7.346   3.344 -1.1542 -0.0129 -0.3706
 3797SOL     ow15185   0.896   3.654   4.191 -0.8190  0.2314  0.0937
 3797SOL     hw15186   0.915   3.592   4.121  1.7918  0.9463  0.0297
 3797SOL     hw15187   0.865   3.732   4.145  0.5393  0.5742 -0.3134
 3797SOL     vw15188   0.895   3.656   4.175 -0.2953  0.3710  0.0315
 3798SOL     ow15189   7.418   1.718   7.621 -0.3221 -0.5516 -0.4352
 3798SOL     hw15190   7.459   1.648   7.570  1.0177 -2.0901  2.4812
 3798SOL     hw15191   7.488   1.779   7.639 -0.3658 -0.8314  0.7774
 3798SOL     vw15192   7.432   1.717   7.617 -0.1512 -0.7915  0.1097
 3799SOL     ow15193   0.618   5.645   3.928  0.2905  0.2486  0.3214
 3799SOL     hw15194   0.666   5.608   4.002  0.4294 -2.4512 -0.9786
 3799SOL     hw15195   0.686   5.680   3.871  0.5686 -1.1051 -0.2337
 3799SOL     vw15196   0.634   5.645   3.930  0.3455 -0.2863  0.0767
 3800SOL     ow15197   5.184   7.224   5.905 -0.2904  0.5662  0.0442
 3800SOL     hw15198   5.099   7.193   5.872 -0.3695 -3.0877  2.9853
 3800SOL     hw15199   5.247   7.193   5.841 -0.7260 -3.4090  1.2098
 3800SOL     vw15200   5.181   7.216   5.892 -0.3586 -0.4404  0.5863
 3801SOL     ow15201   3.687   4.689   6.083 -0.3508  0.4105 -0.0927
 3801SOL     hw15202   3.711   4.613   6.137  1.0172  1.6007  1.0494
 3801SOL     hw15203   3.642   4.651   6.007 -0.7342 -1.4506  0.9947
 3801SOL     vw15204   3.684   4.674   6.080 -0.2209  0.3223  0.2015
 3802SOL     ow15205   2.517   0.395   5.166  0.6429  0.0583 -0.0892
 3802SOL     hw15206   2.532   0.359   5.254 -1.3586 -1.7378 -0.4109
 3802SOL     hw15207   2.475   0.480   5.182 -1.6312 -1.1405  0.7936
 3802SOL     vw15208   2.513   0.402   5.180  0.0788 -0.3368 -0.0153
 3803SOL     ow15209   0.776   5.279   3.337 -0.0154  0.0903 -0.3822
 3803SOL     hw15210   0.806   5.368   3.319 -0.1249  0.1411 -0.3159
 3803SOL     hw15211   0.795   5.230   3.257  0.9690 -0.0712 -0.0734
 3803SOL     vw15212   0.783   5.284   3.324  0.1000  0.0756 -0.3328
 3804SOL     ow15213   2.221   5.953   5.496 -0.2457  0.1942  0.2255
 3804SOL     hw15214   2.297   5.953   5.439 -0.5907  0.6891 -0.2426
 3804SOL     hw15215   2.148   5.979   5.439 -1.1705 -2.3131  0.1273
 3804SOL     vw15216   2.221   5.956   5.481 -0.4132 -0.0713  0.1509
 3805SOL     ow15217   0.824   7.511   2.960 -0.6665  0.2791 -0.4516
 3805SOL     hw15218   0.745   7.565   2.950 -0.9213  0.1099  0.5571
 3805SOL     hw15219   0.822   7.452   2.884  0.2944  2.4607 -2.3154
 3805SOL     vw15220   0.813   7.510   2.948 -0.5733  0.5448 -0.5645
 3806SOL     ow15221   3.376   4.386   6.213  0.1428  0.3457 -0.0314
 3806SOL     hw15222   3.466   4.356   6.218 -0.5185 -1.7811  0.0731
 3806SOL     hw15223   3.331   4.339   6.283 -1.4873 -0.4051 -1.4999
 3806SOL     vw15224   3.382   4.376   6.223 -0.1594 -0.0341 -0.2112
 3807SOL     ow15225   4.825   5.493   1.041 -0.5766 -0.4005  0.0330
 3807SOL     hw15226   4.788   5.447   0.966 -0.8105  1.5505 -1.1200
 3807SOL     hw15227   4.890   5.433   1.077  0.2413 -1.0272 -2.3357
 3807SOL     vw15228   4.829   5.479   1.036 -0.4995 -0.2260 -0.4317
 3808SOL     ow15229   4.485   2.519   3.345 -0.5677  0.4612 -0.4428
 3808SOL     hw15230   4.437   2.601   3.347 -0.5774  0.4515 -0.2942
 3808SOL     hw15231   4.549   2.530   3.274 -0.5139  0.6275 -0.3693
 3808SOL     vw15232   4.487   2.531   3.336 -0.5620  0.4820 -0.4134
 3809SOL     ow15233   4.736   6.239   3.117 -0.0302 -0.6217  0.3284
 3809SOL     hw15234   4.797   6.204   3.182  0.9984 -2.3202 -1.4600
 3809SOL     hw15235   4.759   6.195   3.035 -1.9027  0.7137 -1.0159
 3809SOL     vw15236   4.747   6.229   3.115 -0.1414 -0.6697 -0.0850
 3810SOL     ow15237   0.479   0.624   7.131 -0.3873 -0.0913  0.5919
 3810SOL     hw15238   0.564   0.635   7.089 -0.0943  1.5957  1.5602
 3810SOL     hw15239   0.495   0.644   7.223 -1.6826 -0.5110  0.9234
 3810SOL     vw15240   0.492   0.628   7.138 -0.5195  0.0759  0.7632
 3811SOL     ow15241   0.930   3.123   0.396 -0.0504  0.3637 -0.2991
 3811SOL     hw15242   0.986   3.198   0.418  2.2718 -1.3245  0.0069
 3811SOL     hw15243   0.953   3.102   0.306 -0.4470 -0.1622 -0.2790
 3811SOL     vw15244   0.941   3.130   0.387  0.2037  0.0716 -0.2561
 3812SOL     ow15245   5.699   2.932   0.146 -0.4015 -0.3101 -1.2002
 3812SOL     hw15246   5.642   2.887   0.208 -0.3566  1.2450  0.0369
 3812SOL     hw15247   5.679   2.892   0.061 -3.5661  0.3462 -0.8917
 3812SOL     vw15248   5.689   2.921   0.143 -0.8130 -0.0184 -0.9962
 3813SOL     ow15249   1.787   6.240   7.622  0.2154 -0.0011 -0.2356
 3813SOL     hw15250   1.835   6.245   7.705 -0.8213  0.6668  0.3596
 3813SOL     hw15251   1.830   6.171   7.573  1.7921  0.5956  0.2444
 3813SOL     vw15252   1.799   6.232   7.627  0.2867  0.1655 -0.0937
 3814SOL     ow15253   0.599   7.338   1.384 -0.0297 -0.0815 -0.2911
 3814SOL     hw15254   0.657   7.330   1.308  2.3455 -0.1317  1.4057
 3814SOL     hw15255   0.533   7.401   1.357  0.5551 -0.2962 -2.4758
 3814SOL     vw15256   0.598   7.345   1.370  0.3609 -0.1163 -0.3555
 3815SOL     ow15257   6.165   6.713   1.735  0.1211  0.1413  0.5630
 3815SOL     hw15258   6.070   6.703   1.727 -0.1476  1.7536  1.2457
 3815SOL     hw15259   6.200   6.625   1.720 -1.5165 -0.6289  1.0225
 3815SOL     vw15260   6.157   6.700   1.732 -0.1302  0.2522  0.7136
 3816SOL     ow15261   5.124   6.810   6.509 -0.0067  0.6213  0.0966
 3816SOL     hw15262   5.116   6.761   6.427  0.3537  0.8453 -0.0740
 3816SOL     hw15263   5.205   6.778   6.548 -0.0570  0.6877  0.2568
 3816SOL     vw15264   5.133   6.799   6.503  0.0343  0.6597  0.0951
 3817SOL     ow15265   1.090   5.812   4.002 -0.0380  0.0532  0.1552
 3817SOL     hw15266   1.165   5.826   3.944  0.0419 -0.0660  0.2312
 3817SOL     hw15267   1.103   5.725   4.038 -1.5344 -1.1050 -1.8457
 3817SOL     vw15268   1.102   5.803   3.999 -0.2249 -0.1154 -0.0987
 3818SOL     ow15269   6.489   7.615   6.004  0.1690  0.6226 -0.1801
 3818SOL     hw15270   6.410   7.569   6.031 -0.0428  1.0419 -0.0761
 3818SOL     hw15271   6.502   7.682   6.071  0.9360  0.1847  0.1158
 3818SOL     vw15272   6.481   7.618   6.016  0.2420  0.6199 -0.1278
 3819SOL     ow15273   4.931   5.128   4.370 -0.2545 -0.1635  0.6240
 3819SOL     hw15274   4.956   5.102   4.282  0.9577 -0.8226  1.1361
 3819SOL     hw15275   4.847   5.172   4.359 -1.0702 -1.8946 -0.6211
 3819SOL     vw15276   4.924   5.130   4.357 -0.2019 -0.4790  0.5274
 3820SOL     ow15277   6.806   6.046   3.123  0.4796  0.5710 -0.1218
 3820SOL     hw15278   6.753   6.014   3.050  1.0964 -0.2621 -0.2118
 3820SOL     hw15279   6.781   6.138   3.132 -1.0262  0.1916 -0.1289
 3820SOL     vw15280   6.796   6.054   3.114  0.3622  0.4113 -0.1347
 3821SOL     ow15281   1.733   3.487   7.108 -0.3573  0.0126 -0.0857
 3821SOL     hw15282   1.695   3.410   7.064 -0.0862  1.1588 -2.4869
 3821SOL     hw15283   1.827   3.470   7.109 -0.3325  0.1388 -0.2558
 3821SOL     vw15284   1.740   3.474   7.102 -0.3182  0.1805 -0.4246
 3822SOL     ow15285   2.121   0.526   0.928 -0.4320 -0.6090 -0.4794
 3822SOL     hw15286   2.116   0.431   0.935 -2.3794 -0.4895  0.5478
 3822SOL     hw15287   2.062   0.558   0.997  0.7938  1.3636 -0.2786
 3822SOL     vw15288   2.113   0.518   0.938 -0.5271 -0.3330 -0.3173
 3823SOL     ow15289   1.026   2.541   1.760  0.0605 -0.0428 -0.2015
 3823SOL     hw15290   1.096   2.596   1.794 -0.5832 -1.5790  4.2323
 3823SOL     hw15291   0.945   2.581   1.794 -0.8582 -0.8484 -1.3387
 3823SOL     vw15292   1.024   2.553   1.769 -0.1457 -0.3519  0.2335
 3824SOL     ow15293   3.182   1.343   2.593  0.0773  0.9102  0.4918
 3824SOL     hw15294   3.188   1.314   2.502  1.2286  0.8327  0.5848
 3824SOL     hw15295   3.209   1.435   2.592  0.2614  0.8628  0.7735
 3824SOL     vw15296   3.186   1.351   2.581  0.2534  0.8937  0.5412
 3825SOL     ow15297   4.422   2.532   2.917  0.1449  0.4169  0.5124
 3825SOL     hw15298   4.329   2.537   2.894  0.0546 -0.4939  0.6182
 3825SOL     hw15299   4.456   2.461   2.862  0.4845 -0.1008  1.3711
 3825SOL     vw15300   4.414   2.523   2.907  0.1781  0.2284  0.6396
 3826SOL     ow15301   3.597   5.885   7.051  0.2004 -0.2058 -0.0976
 3826SOL     hw15302   3.594   5.893   6.955 -1.5210 -1.7274 -0.2251
 3826SOL     hw15303   3.648   5.806   7.067 -2.4385 -2.0068  0.0108
 3826SOL     vw15304   3.603   5.876   7.040 -0.3749 -0.6442 -0.1001
 3827SOL     ow15305   2.346   5.907   6.495 -0.4781 -0.2326  0.3249
 3827SOL     hw15306   2.370   5.840   6.559 -1.2482 -0.4804  0.3645
 3827SOL     hw15307   2.289   5.862   6.433  0.6221 -0.1156 -0.8134
 3827SOL     vw15308   2.342   5.892   6.496 -0.4345 -0.2499  0.1800
 3828SOL     ow15309   5.014   0.996   5.071 -0.6930  0.3848 -0.1337
 3828SOL     hw15310   5.062   0.926   5.026 -1.2486  0.2280 -0.4804
 3828SOL     hw15311   5.028   1.073   5.017 -2.2705 -0.0390 -1.1960
 3828SOL     vw15312   5.022   0.997   5.058 -0.9744  0.3082 -0.3197
 3829SOL     ow15313   6.313   2.867   4.878  0.1204  0.3825 -0.4328
 3829SOL     hw15314   6.381   2.884   4.813 -0.3838  1.2581 -0.7557
 3829SOL     hw15315   6.230   2.874   4.830 -0.2091 -3.8261 -0.7702
 3829SOL     vw15316   6.311   2.870   4.863  0.0107 -0.0573 -0.5202
 3830SOL     ow15317   0.183   0.740   7.395 -0.2028 -0.6520  0.1384
 3830SOL     hw15318   0.159   0.795   7.469 -0.0261  0.6772 -0.7459
 3830SOL     hw15319   0.117   0.759   7.328  0.6803 -0.4058 -0.6931
 3830SOL     vw15320   0.171   0.750   7.396 -0.0630 -0.4441 -0.0880
 3831SOL     ow15321   4.559   5.345   3.197 -0.4549  0.4267  0.0045
 3831SOL     hw15322   4.614   5.302   3.263  0.5775 -0.8729 -1.6080
 3831SOL     hw15323   4.559   5.284   3.123  0.5801  2.9061 -2.1938
 3831SOL     vw15324   4.566   5.331   3.196 -0.1822  0.5822 -0.4983
 3832SOL     ow15325   4.084   4.842   5.623 -0.3577 -0.7053  0.4129
 3832SOL     hw15326   4.163   4.866   5.672 -0.2910 -2.3696  1.1891
 3832SOL     hw15327   4.012   4.865   5.681 -0.4261 -0.0368  0.0790
 3832SOL     vw15328   4.085   4.848   5.637 -0.3579 -0.8366  0.4711
 3833SOL     ow15329   2.988   1.002   0.565 -0.2475 -0.1637  0.0206
 3833SOL     hw15330   2.993   0.931   0.502  4.6697  0.3313 -0.5146
 3833SOL     hw15331   2.935   1.069   0.521 -1.7689 -1.9418 -1.0219
 3833SOL     vw15332   2.981   1.002   0.551  0.2004 -0.3329 -0.1876
 3834SOL     ow15333   0.237   1.537   3.914  0.2362 -0.4320  0.1616
 3834SOL     hw15334   0.156   1.519   3.868  0.4334 -0.9992  0.0292
 3834SOL     hw15335   0.217   1.517   4.006  0.1888 -0.4478  0.1478
 3834SOL     vw15336   0.224   1.532   3.920  0.2559 -0.5090  0.1423
 3835SOL     ow15337   3.008   4.973   0.028 -0.5992  0.4915  0.4701
 3835SOL     hw15338   2.991   5.021  -0.053  0.7746 -1.2266 -0.9233
 3835SOL     hw15339   2.936   4.998   0.086 -0.3782  3.5677 -0.4084
 3835SOL     vw15340   2.996   4.983   0.025 -0.3887  0.6704  0.1704
 3836SOL     ow15341   5.489   6.039   7.219 -0.1985 -0.1875 -0.5414
 3836SOL     hw15342   5.431   6.039   7.296  0.5384 -0.2696  0.0266
 3836SOL     hw15343   5.429   6.045   7.144 -0.9147  0.1946  0.0459
 3836SOL     vw15344   5.473   6.040   7.219 -0.1960 -0.1481 -0.3891
 3837SOL     ow15345   5.410   5.623   6.646 -0.1167  0.4177  0.5097
 3837SOL     hw15346   5.442   5.705   6.608 -1.2393 -0.0597 -1.6051
 3837SOL     hw15347   5.343   5.592   6.585  0.4557 -2.2380  1.0915
 3837SOL     vw15348   5.405   5.630   6.633 -0.1891  0.0043  0.3073
 3838SOL     ow15349   1.956   1.894   1.540 -0.1793 -0.2953 -0.2800
 3838SOL     hw15350   1.890   1.855   1.598 -2.1073  1.1895 -1.3531
 3838SOL     hw15351   2.040   1.869   1.579 -1.3697 -0.1849  2.6003
 3838SOL     vw15352   1.958   1.886   1.553 -0.5907 -0.0848 -0.0415
 3839SOL     ow15353   2.327   0.052   4.835 -0.1549 -0.2431 -0.6918
 3839SOL     hw15354   2.388  -0.022   4.837  1.1655  0.7687 -1.5535
 3839SOL     hw15355   2.240   0.013   4.844  0.6233 -1.6794  1.4140
 3839SOL     vw15356   2.324   0.037   4.837  0.1220 -0.2992 -0.5276
 3840SOL     ow15357   5.586   3.361   2.580  0.1797  0.7605  0.0343
 3840SOL     hw15358   5.647   3.334   2.511 -1.2978  0.9989 -1.4150
 3840SOL     hw15359   5.642   3.377   2.656  2.0314  1.6944 -1.4379
 3840SOL     vw15360   5.602   3.360   2.581  0.2291  0.9152 -0.3512
 3841SOL     ow15361   1.284   5.596   0.406 -0.8329 -0.0195  0.2119
 3841SOL     hw15362   1.222   5.529   0.433  0.3803 -1.5861 -0.7305
 3841SOL     hw15363   1.369   5.552   0.406  0.5444  2.3088  2.5266
 3841SOL     vw15364   1.287   5.581   0.410 -0.4911  0.0808  0.3930
 3842SOL     ow15365   5.655   1.656   3.183 -0.3909 -0.1793 -0.0874
 3842SOL     hw15366   5.707   1.584   3.148 -2.1536 -0.3483 -2.6275
 3842SOL     hw15367   5.605   1.617   3.254  1.7284 -0.3586  1.4035
 3842SOL     vw15368   5.655   1.641   3.188 -0.3438 -0.2252 -0.2258
 3843SOL     ow15369   4.792   0.727   6.276  0.4221 -0.1819  0.1478
 3843SOL     hw15370   4.799   0.822   6.285 -0.0883  0.0326 -1.3455
 3843SOL     hw15371   4.846   0.706   6.200  0.0720 -1.0044  0.1119
 3843SOL     vw15372   4.800   0.737   6.267  0.3085 -0.2621 -0.0541
 3844SOL     ow15373   1.573   5.952   2.947  0.2537  1.0542 -0.3590
 3844SOL     hw15374   1.554   5.954   2.853 -0.1271 -1.1757 -0.3747
 3844SOL     hw15375   1.565   6.044   2.974 -3.3307  1.3286 -1.7882
 3844SOL     vw15376   1.569   5.965   2.938 -0.2695  0.7963 -0.5497
 3845SOL     ow15377   2.661   3.362   5.786  0.2844 -0.0594 -0.3612
 3845SOL     hw15378   2.590   3.368   5.722 -0.1070 -1.0568 -0.0506
 3845SOL     hw15379   2.619   3.383   5.870 -0.0892 -2.3047  0.0789
 3845SOL     vw15380   2.646   3.366   5.789  0.1833 -0.4872 -0.2618
 3846SOL     ow15381   1.924   6.147   2.967  0.0895 -0.4520  0.3592
 3846SOL     hw15382   1.830   6.138   2.979 -0.2842  2.0730 -0.0066
 3846SOL     hw15383   1.952   6.205   3.039  0.8029  1.1238 -1.1099
 3846SOL     vw15384   1.916   6.154   2.978  0.1343  0.0892  0.1172
 3847SOL     ow15385   6.858   3.138   6.423 -0.1520 -0.8721 -0.2298
 3847SOL     hw15386   6.785   3.201   6.422 -0.1027 -0.8080 -0.0272
 3847SOL     hw15387   6.905   3.155   6.342  0.3472 -0.0604  0.2126
 3847SOL     vw15388   6.854   3.149   6.412 -0.0796 -0.7566 -0.1445
 3848SOL     ow15389   5.205   6.760   0.858 -0.2269  0.3286 -0.1608
 3848SOL     hw15390   5.264   6.712   0.801 -1.1024 -0.1104 -0.7257
 3848SOL     hw15391   5.247   6.845   0.871  1.3181 -0.5297  0.7991
 3848SOL     vw15392   5.218   6.765   0.852 -0.1385  0.1576 -0.1087
 3849SOL     ow15393   6.309   1.709   0.024 -0.5837  0.2775  0.5116
 3849SOL     hw15394   6.283   1.632   0.075  0.9708 -0.6598 -0.0183
 3849SOL     hw15395   6.384   1.678  -0.029 -1.3407  1.5290 -1.4148
 3849SOL     vw15396   6.316   1.695   0.023 -0.4783  0.3190  0.1876
 3850SOL     ow15397   4.420   4.249   6.783 -0.5845 -0.2186 -0.1224
 3850SOL     hw15398   4.327   4.255   6.761 -0.5580 -1.8888 -0.8108
 3850SOL     hw15399   4.433   4.316   6.850 -2.4065 -0.3323  0.3946
 3850SOL     vw15400   4.410   4.259   6.789 -0.8216 -0.4539 -0.1452
 3851SOL     ow15401   2.730   2.609   2.694  0.5554  0.6444 -0.3400
 3851SOL     hw15402   2.682   2.644   2.769 -1.1471 -0.2722 -0.9309
 3851SOL     hw15403   2.721   2.676   2.627 -1.1129 -0.0267 -0.8654
 3851SOL     vw15404   2.722   2.622   2.695  0.1105  0.4349 -0.4874
 3852SOL     ow15405   5.584   4.745   4.188 -0.3138 -0.4789 -0.0539
 3852SOL     hw15406   5.498   4.717   4.221 -1.8532  1.7893 -1.8214
 3852SOL     hw15407   5.574   4.747   4.093  1.9576 -0.8081 -0.3616
 3852SOL     vw15408   5.571   4.742   4.180 -0.2172 -0.2232 -0.3276
 3853SOL     ow15409   2.024   2.787   3.883 -0.8377  0.0094 -0.4686
 3853SOL     hw15410   1.991   2.716   3.939 -1.5613  1.1132  0.5793
 3853SOL     hw15411   1.979   2.775   3.800  0.6970 -2.0174 -1.0571
 3853SOL     vw15412   2.013   2.776   3.880 -0.7306 -0.1125 -0.4081
 3854SOL     ow15413   7.522   7.319   4.849 -0.3533  0.0541  0.8072
 3854SOL     hw15414   7.603   7.270   4.834 -1.1893 -0.5260 -2.5365
 3854SOL     hw15415   7.502   7.306   4.941  2.9803 -0.3183  1.5859
 3854SOL     vw15416   7.530   7.311   4.859 -0.0236 -0.0718  0.4687
 3855SOL     ow15417   6.724   3.229   1.822  0.4430 -0.2122  0.0018
 3855SOL     hw15418   6.658   3.234   1.891 -1.6290  0.5978 -1.9328
 3855SOL     hw15419   6.677   3.194   1.746  2.8852 -2.0532 -0.7778
 3855SOL     vw15420   6.709   3.225   1.821  0.4921 -0.3482 -0.3563
 3856SOL     ow15421   6.482   0.343   7.037  0.1216  0.5672  0.2164
 3856SOL     hw15422   6.413   0.372   7.096  0.1653 -0.7583  0.9706
 3856SOL     hw15423   6.480   0.247   7.044 -0.0250  0.3357 -2.0974
 3856SOL     vw15424   6.473   0.334   7.045  0.1080  0.3618  0.0105
 3857SOL     ow15425   2.420   6.080   2.016  0.6980 -0.6040 -0.2289
 3857SOL     hw15426   2.497   6.024   2.024 -0.1362 -2.1327 -2.2562
 3857SOL     hw15427   2.357   6.044   2.078  0.9517 -0.4887  0.0998
 3857SOL     vw15428   2.422   6.068   2.025  0.6213 -0.7904 -0.4530
 3858SOL     ow15429   2.301   2.276   4.052  0.3541 -0.0907  0.2880
 3858SOL     hw15430   2.258   2.243   4.130  0.0124 -1.0874 -0.2966
 3858SOL     hw15431   2.246   2.246   3.980 -1.0035  3.3072 -0.2526
 3858SOL     vw15432   2.288   2.267   4.053  0.1297  0.2261  0.1395
 3859SOL     ow15433   7.298   7.616   0.004 -0.3350 -0.1258  0.1253
 3859SOL     hw15434   7.273   7.683  -0.060 -0.8159 -1.4303 -1.0852
 3859SOL     hw15435   7.359   7.661   0.063 -1.6455  1.7364  0.1305
 3859SOL     vw15436   7.303   7.631   0.003 -0.5715 -0.0522 -0.0336
 3860SOL     ow15437   0.403   5.005   4.577  0.8155 -0.2337 -0.7913
 3860SOL     hw15438   0.337   4.989   4.510  2.6994  0.2197 -2.8728
 3860SOL     hw15439   0.394   5.098   4.597  0.4202 -0.3120 -0.5884
 3860SOL     vw15440   0.393   5.015   4.571  1.0119 -0.1841 -1.0390
 3861SOL     ow15441   6.243   7.154   0.703 -0.4506 -0.0744  1.3171
 3861SOL     hw15442   6.183   7.228   0.702 -0.6283 -0.2003 -0.3251
 3861SOL     hw15443   6.290   7.160   0.620  2.7548  0.7328  3.0212
 3861SOL     vw15444   6.241   7.165   0.692 -0.0510  0.0155  1.3253
 3862SOL     ow15445   6.605   6.279   3.920 -0.6082 -0.2119 -0.1008
 3862SOL     hw15446   6.624   6.340   3.849 -0.7279  0.6406  0.5855
 3862SOL     hw15447   6.598   6.334   3.998  0.8549 -1.2610  0.8193
 3862SOL     vw15448   6.606   6.294   3.921 -0.4308 -0.2379  0.1109
 3863SOL     ow15449   6.121   4.121   1.764  0.3066 -0.3703  0.0999
 3863SOL     hw15450   6.189   4.175   1.806  0.9687 -0.7932 -0.4117
 3863SOL     hw15451   6.134   4.034   1.803  1.8734 -1.1383 -1.9667
 3863SOL     vw15452   6.132   4.117   1.775  0.6006 -0.5274 -0.2402
 3864SOL     ow15453   2.018   4.582   5.205 -0.0735  0.1300 -0.1591
 3864SOL     hw15454   1.972   4.651   5.155  0.9143  0.6337 -0.3923
 3864SOL     hw15455   2.014   4.612   5.296 -0.6631 -0.0940 -0.1077
 3864SOL     vw15456   2.011   4.595   5.210 -0.0210  0.1669 -0.1831
 3865SOL     ow15457   6.032   3.576   6.130 -0.2892  0.3672  0.1482
 3865SOL     hw15458   6.011   3.483   6.144  3.7344 -0.6048  0.9644
 3865SOL     hw15459   6.054   3.609   6.217 -0.0284  1.6480 -0.3830
 3865SOL     vw15460   6.032   3.568   6.143  0.2759  0.4081  0.1860
 3866SOL     ow15461   2.636   0.335   1.860 -0.2920 -0.1635 -0.5603
 3866SOL     hw15462   2.631   0.254   1.811 -2.9403 -0.8283  0.6466
 3866SOL     hw15463   2.547   0.370   1.859  0.3331  1.6319  0.7092
 3866SOL     vw15464   2.624   0.329   1.853 -0.5590 -0.0143 -0.2335
 3867SOL     ow15465   5.981   5.719   6.453 -0.9366  0.6464 -0.6572
 3867SOL     hw15466   6.018   5.755   6.534 -1.1377 -2.3363  0.8803
 3867SOL     hw15467   6.055   5.679   6.408 -1.5186 -2.1010  0.6234
 3867SOL     vw15468   5.995   5.719   6.458 -1.0397 -0.1097 -0.2856
 3868SOL     ow15469   4.959   5.458   0.762 -0.0062  0.0502 -0.7060
 3868SOL     hw15470   5.043   5.434   0.801  0.6655 -0.1131 -2.2051
 3868SOL     hw15471   4.958   5.554   0.764 -0.7393  0.0455  1.2206
 3868SOL     vw15472   4.970   5.467   0.768 -0.0143  0.0281 -0.6496
 3869SOL     ow15473   5.410   7.197   6.268  0.1771  0.2268  0.1238
 3869SOL     hw15474   5.379   7.141   6.197  2.2730 -0.8027 -0.0489
 3869SOL     hw15475   5.350   7.178   6.341 -1.4449  0.6264 -1.0639
 3869SOL     vw15476   5.398   7.187   6.268  0.2396  0.1438 -0.0556
 3870SOL     ow15477   6.670   1.151   1.500 -0.0305 -0.1990 -0.6410
 3870SOL     hw15478   6.684   1.234   1.545  0.9094 -0.6722 -0.0330
 3870SOL     hw15479   6.739   1.093   1.533 -2.2355 -2.1067  1.0781
 3870SOL     vw15480   6.681   1.154   1.511 -0.1976 -0.5131 -0.3340
 3871SOL     ow15481   6.772   0.171   6.591  0.3466  0.0035 -0.3929
 3871SOL     hw15482   6.689   0.177   6.545 -0.4236 -0.4515  0.9059
 3871SOL     hw15483   6.812   0.258   6.580 -0.7877  0.5778 -0.1059
 3871SOL     vw15484   6.767   0.183   6.584  0.0954  0.0193 -0.1833
 3872SOL     ow15485   2.082   5.994   3.674 -0.2081 -0.0488 -0.1377
 3872SOL     hw15486   2.087   6.088   3.692 -1.9406 -0.0609  0.6698
 3872SOL     hw15487   2.024   5.986   3.599 -0.2734 -0.4785 -0.0496
 3872SOL     vw15488   2.075   6.005   3.667 -0.4455 -0.1073 -0.0193
 3873SOL     ow15489   1.874   2.933   1.526 -0.1125  0.2627  0.1367
 3873SOL     hw15490   1.830   2.939   1.611  1.2131 -4.1815  1.3898
 3873SOL     hw15491   1.966   2.918   1.548  0.3467 -0.5219 -2.1191
 3873SOL     vw15492   1.881   2.932   1.540  0.1230 -0.4270  0.0044
 3874SOL     ow15493   5.739   1.305   6.671  0.3463  0.8090 -0.2510
 3874SOL     hw15494   5.655   1.306   6.625  0.2087  2.8851 -0.0315
 3874SOL     hw15495   5.753   1.396   6.698  2.0172  0.2548  0.9131
 3874SOL     vw15496   5.730   1.317   6.669  0.5488  1.0098 -0.0684
 3875SOL     ow15497   5.397   3.871   4.169 -0.0327 -0.6292 -0.1218
 3875SOL     hw15498   5.397   3.777   4.149 -1.8437 -0.8778  0.8265
 3875SOL     hw15499   5.319   3.884   4.224 -1.7926  2.0041 -2.9445
 3875SOL     vw15500   5.386   3.860   4.174 -0.5038 -0.3146 -0.3688
 3876SOL     ow15501   2.154   3.475   3.096 -0.4923  0.1011 -0.1388
 3876SOL     hw15502   2.135   3.383   3.116 -0.5882  0.4900  1.7437
 3876SOL     hw15503   2.214   3.503   3.165 -0.0106  1.3152 -1.0083
 3876SOL     vw15504   2.159   3.466   3.108 -0.4414  0.3127 -0.0052
 3877SOL     ow15505   4.382   7.537   1.129 -0.1594 -0.0229 -0.6672
 3877SOL     hw15506   4.396   7.449   1.162  1.1676  0.3311 -0.2406
 3877SOL     hw15507   4.433   7.541   1.049  2.3083  1.2426  0.8414
 3877SOL     vw15508   4.391   7.526   1.123  0.3409  0.1907 -0.4119
 3878SOL     ow15509   5.083   0.441   6.140 -0.4781  0.0154  0.3434
 3878SOL     hw15510   5.097   0.433   6.046 -0.5688  0.0131  0.3298
 3878SOL     hw15511   5.058   0.533   6.152  1.9793  0.7148  0.6743
 3878SOL     vw15512   5.081   0.452   6.129 -0.1659  0.1073  0.3853
 3879SOL     ow15513   6.290   2.193   5.836 -0.4622 -0.4475  0.0268
 3879SOL     hw15514   6.343   2.261   5.794 -1.8568  0.2901 -0.6045
 3879SOL     hw15515   6.340   2.113   5.823  0.9519  0.3607  0.3059
 3879SOL     vw15516   6.303   2.191   5.829 -0.4599 -0.2435 -0.0196
 3880SOL     ow15517   2.985   1.198   4.146 -0.8143 -0.4823 -0.7480
 3880SOL     hw15518   2.957   1.111   4.177 -1.7626 -0.5667 -1.7586
 3880SOL     hw15519   2.950   1.203   4.057 -0.8357  0.9755 -0.6675
 3880SOL     vw15520   2.976   1.187   4.138 -0.9421 -0.3011 -0.8705
 3881SOL     ow15521   4.697   5.479   3.959  0.0678 -0.0480  0.8362
 3881SOL     hw15522   4.626   5.416   3.944 -0.6638  1.1749 -1.1661
 3881SOL     hw15523   4.772   5.424   3.981 -1.3315 -1.4022  2.6231
 3881SOL     vw15524   4.697   5.463   3.960 -0.2131 -0.0651  0.8078
 3882SOL     ow15525   3.865   0.657   6.994  0.3684  0.5792 -0.2891
 3882SOL     hw15526   3.814   0.715   7.051 -0.7608  0.4524 -1.1391
 3882SOL     hw15527   3.936   0.713   6.963  1.8456  0.2768  2.2804
 3882SOL     vw15528   3.867   0.672   6.997  0.4144  0.5226 -0.0622
 3883SOL     ow15529   0.521   5.395   3.599  0.9721  0.4507 -0.5262
 3883SOL     hw15530   0.598   5.345   3.572 -1.0287 -2.9460 -0.5191
 3883SOL     hw15531   0.447   5.345   3.565 -1.3085  2.5031  1.0849
 3883SOL     vw15532   0.521   5.382   3.591  0.4072  0.2735 -0.3127
 3884SOL     ow15533   7.563   7.602   4.862  0.2580  0.0082 -0.2011
 3884SOL     hw15534   7.545   7.524   4.809 -1.8982  1.0889 -1.1776
 3884SOL     hw15535   7.656   7.596   4.882  1.0841 -0.7679 -3.6458
 3884SOL     vw15536   7.573   7.591   4.858  0.0825  0.0486 -0.7846
 3885SOL     ow15537   1.324   3.574   2.210 -0.1069 -0.6998 -0.6059
 3885SOL     hw15538   1.312   3.491   2.164 -0.0534 -0.2681 -1.4011
 3885SOL     hw15539   1.343   3.548   2.300  2.2711 -1.6246 -1.3118
 3885SOL     vw15540   1.325   3.560   2.216  0.2140 -0.7650 -0.8041
 3886SOL     ow15541   5.029   6.367   6.185 -0.4869 -0.4001 -0.5442
 3886SOL     hw15542   5.090   6.421   6.134  1.7521 -0.5988  1.6611
 3886SOL     hw15543   5.086   6.310   6.237 -2.6500 -1.7000  0.5576
 3886SOL     vw15544   5.045   6.367   6.185 -0.4771 -0.5977 -0.1080
 3887SOL     ow15545   1.861   5.245   2.916  0.1300  0.1570 -0.4359
 3887SOL     hw15546   1.778   5.289   2.932 -1.6667 -2.9338 -0.4093
 3887SOL     hw15547   1.923   5.315   2.898 -2.3360  2.6305  0.1163
 3887SOL     vw15548   1.859   5.260   2.915 -0.4324  0.0753 -0.3594
 3888SOL     ow15549   5.979   1.069   1.427  0.6127  0.8311 -0.2080
 3888SOL     hw15550   5.914   1.030   1.485  1.0934  0.7591  0.2873
 3888SOL     hw15551   5.972   1.163   1.441 -0.9405  1.0168 -1.8159
 3888SOL     vw15552   5.970   1.076   1.436  0.4714  0.8462 -0.3548
 3889SOL     ow15553   4.632   5.508   0.408 -0.5768 -0.5937 -0.0554
 3889SOL     hw15554   4.713   5.461   0.429  0.2992  0.5886 -0.6246
 3889SOL     hw15555   4.613   5.560   0.486 -0.6685 -0.7134  0.0020
 3889SOL     vw15556   4.640   5.509   0.421 -0.4735 -0.4535 -0.1229
 3890SOL     ow15557   3.622   7.294   0.030 -0.0471 -0.0279 -0.0831
 3890SOL     hw15558   3.672   7.213   0.016 -0.5448 -0.0263 -2.1698
 3890SOL     hw15559   3.688   7.360   0.052  0.6180 -0.5146 -0.5857
 3890SOL     vw15560   3.638   7.292   0.031 -0.0250 -0.0920 -0.4247
 3891SOL     ow15561   0.146   2.678   7.090  0.2982  0.3640 -0.2770
 3891SOL     hw15562   0.148   2.706   7.182  1.2704  0.7726 -0.4120
 3891SOL     hw15563   0.178   2.755   7.042 -0.9970  0.4468 -1.0362
 3891SOL     vw15564   0.150   2.692   7.096  0.2556  0.4289 -0.3951
 3892SOL     ow15565   3.068   5.468   6.716  0.1524  0.6162 -0.3001
 3892SOL     hw15566   3.070   5.408   6.791 -1.0623  0.1341 -0.6284
 3892SOL     hw15567   3.024   5.418   6.648 -0.6494  1.8098 -0.6687
 3892SOL     vw15568   3.063   5.453   6.717 -0.1138  0.7100 -0.3920
 3893SOL     ow15569   6.584   2.966   4.257  0.6608 -0.1223 -0.1675
 3893SOL     hw15570   6.629   2.947   4.339 -1.1018  0.4049  0.9787
 3893SOL     hw15571   6.652   3.001   4.200  2.0081 -0.8729  0.9202
 3893SOL     vw15572   6.598   2.968   4.260  0.6063 -0.1519  0.1273
 3894SOL     ow15573   4.428   5.898   0.411  0.0524 -0.2947  0.2548
 3894SOL     hw15574   4.373   5.964   0.368 -0.1787 -0.8346 -0.2972
 3894SOL     hw15575   4.380   5.816   0.400 -0.1447 -0.4270  1.7784
 3894SOL     vw15576   4.414   5.896   0.404 -0.0043 -0.3831  0.3830
 3895SOL     ow15577   1.833   1.350   6.058  0.2618 -0.4136  0.2697
 3895SOL     hw15578   1.745   1.312   6.049  0.0969 -0.7803  2.6834
 3895SOL     hw15579   1.892   1.281   6.028 -0.2124 -0.1151 -1.5068
 3895SOL     vw15580   1.829   1.336   6.053  0.1774 -0.4226  0.3541
 3896SOL     ow15581   4.584   0.616   2.511  0.3991 -0.1886 -0.2919
 3896SOL     hw15582   4.514   0.681   2.515 -0.1749 -0.8426  0.8702
 3896SOL     hw15583   4.589   0.592   2.419 -1.3005 -0.5041 -0.3416
 3896SOL     vw15584   4.575   0.621   2.499  0.0989 -0.3165 -0.1451
 3897SOL     ow15585   0.950   1.184   1.893 -0.3807 -0.8275 -0.4416
 3897SOL     hw15586   0.884   1.251   1.877 -1.2817 -1.6303 -0.2020
 3897SOL     hw15587   0.904   1.117   1.945  0.9196 -0.9036  0.6768
 3897SOL     vw15588   0.935   1.184   1.898 -0.3280 -0.9434 -0.2624
 3898SOL     ow15589   3.658   4.428   5.129  0.0776 -0.3516 -0.6638
 3898SOL     hw15590   3.597   4.471   5.069  0.3555  0.3178 -0.4693
 3898SOL     hw15591   3.663   4.486   5.205 -0.9354 -1.5969  0.4122
 3898SOL     vw15592   3.650   4.441   5.131 -0.0193 -0.4275 -0.4964
 3899SOL     ow15593   4.380   0.597   1.925 -1.1461 -0.0765 -0.3199
 3899SOL     hw15594   4.300   0.546   1.911 -0.8223 -0.7990  0.3609
 3899SOL     hw15595   4.375   0.625   2.016 -1.3958  1.2755 -0.7347
 3899SOL     vw15596   4.369   0.594   1.935 -1.1363  0.0066 -0.2848
 3900SOL     ow15597   4.491   5.877   0.925  0.1786 -0.2292  0.4121
 3900SOL     hw15598   4.401   5.894   0.898  0.2521  0.7467  0.7291
 3900SOL     hw15599   4.541   5.948   0.884  0.3978  0.8715  2.4725
 3900SOL     vw15600   4.486   5.889   0.916  0.2174  0.0451  0.7257
 3901SOL     ow15601   5.698   5.580   5.593 -0.0783 -0.0449 -0.5257
 3901SOL     hw15602   5.715   5.675   5.596  1.4918 -0.2250 -2.1406
 3901SOL     hw15603   5.740   5.546   5.672 -1.2084  0.6513  0.4085
 3901SOL     vw15604   5.706   5.588   5.604 -0.0205  0.0231 -0.6158
 3902SOL     ow15605   3.080   4.144   2.098  0.1748  0.0930  0.0310
 3902SOL     hw15606   3.010   4.085   2.128 -0.5573  0.9837  0.1161
 3902SOL     hw15607   3.131   4.162   2.177 -0.6870  1.0145  0.3900
 3902SOL     vw15608   3.077   4.138   2.113 -0.0355  0.3321  0.0894
 3903SOL     ow15609   2.716   1.425   4.931 -0.0775  0.7024  0.4701
 3903SOL     hw15610   2.699   1.503   4.878 -1.4957 -0.5920 -1.1125
 3903SOL     hw15611   2.710   1.352   4.868 -1.0469 -0.8432  2.2554
 3903SOL     vw15612   2.713   1.425   4.915 -0.3924  0.3277  0.4969
 3904SOL     ow15613   6.853   3.219   1.267 -0.0079  0.0660  1.1789
 3904SOL     hw15614   6.934   3.261   1.240 -0.7625  0.0472 -1.3645
 3904SOL     hw15615   6.784   3.281   1.243 -1.0768 -2.0423 -1.8317
 3904SOL     vw15616   6.855   3.232   1.260 -0.2484 -0.2147  0.4461
 3905SOL     ow15617   0.600   0.297   1.335 -0.4945  0.5854 -0.5391
 3905SOL     hw15618   0.681   0.345   1.315  0.1350  0.7649  2.1187
 3905SOL     hw15619   0.619   0.206   1.311  0.2315  0.7636 -0.6511
 3905SOL     vw15620   0.613   0.291   1.329 -0.3156  0.6326 -0.2032
 3906SOL     ow15621   5.517   4.324   4.249  0.2530 -0.2760  0.0267
 3906SOL     hw15622   5.498   4.231   4.254  1.3426 -0.4555  2.1149
 3906SOL     hw15623   5.437   4.363   4.214 -1.1530 -1.7421  1.4275
 3906SOL     vw15624   5.504   4.317   4.245  0.2112 -0.4930  0.4869
 3907SOL     ow15625   7.073   5.590   2.963 -0.5519 -1.0388 -0.0818
 3907SOL     hw15626   7.020   5.652   2.913 -0.0867  2.1704  3.0506
 3907SOL     hw15627   7.011   5.548   3.023 -0.3198 -0.9309  0.2356
 3907SOL     vw15628   7.058   5.593   2.964 -0.4601 -0.6011  0.3734
 3908SOL     ow15629   1.938   3.163   4.951  0.6242  0.0198 -0.2906
 3908SOL     hw15630   1.879   3.197   5.017  1.1340  0.1543  0.1015
 3908SOL     hw15631   1.882   3.147   4.874  0.3036  1.3534 -0.3541
 3908SOL     vw15632   1.923   3.165   4.949  0.6492  0.2135 -0.2472
 3909SOL     ow15633   4.827   0.430   2.470 -0.1108  0.0732 -0.3308
 3909SOL     hw15634   4.832   0.435   2.375 -2.4856  1.0129 -0.4550
 3909SOL     hw15635   4.887   0.359   2.493  0.1573 -0.4870 -2.5394
 3909SOL     vw15636   4.836   0.421   2.461 -0.3889  0.1233 -0.6385
 3910SOL     ow15637   7.137   2.303   4.003  0.5507  0.8734  0.6021
 3910SOL     hw15638   7.213   2.317   4.061 -0.9565  2.6040  2.3272
 3910SOL     hw15639   7.067   2.354   4.044 -0.7907  1.7267 -2.5093
 3910SOL     vw15640   7.138   2.312   4.016  0.1748  1.2143  0.4189
 3911SOL     ow15641   6.780   5.678   2.087  0.6108 -0.0466 -0.2449
 3911SOL     hw15642   6.813   5.768   2.096 -0.5450  0.4306 -0.5091
 3911SOL     hw15643   6.850   5.631   2.043  1.0237  0.8765 -0.5982
 3911SOL     vw15644   6.794   5.684   2.082  0.5128  0.1383 -0.3265
 3912SOL     ow15645   4.577   5.464   5.314  0.0027  0.1699  0.3857
 3912SOL     hw15646   4.498   5.516   5.326 -0.1609 -0.2378  1.1710
 3912SOL     hw15647   4.619   5.466   5.400  0.5742 -0.0523  0.1105
 3912SOL     vw15648   4.572   5.471   5.327  0.0565  0.0865  0.4530
 3913SOL     ow15649   4.369   0.158   1.635  0.8734 -0.8066  0.5657
 3913SOL     hw15650   4.351   0.139   1.727  0.6721 -1.0839  0.4711
 3913SOL     hw15651   4.362   0.253   1.628 -1.9204 -0.9542  0.2537
 3913SOL     vw15652   4.366   0.168   1.646  0.4783 -0.8627  0.5120
 3914SOL     ow15653   1.717   3.868   6.714 -0.0534  0.0622 -0.8635
 3914SOL     hw15654   1.804   3.885   6.678  1.0652  0.5021  1.7960
 3914SOL     hw15655   1.680   3.956   6.727  0.0922 -0.0197  0.1727
 3914SOL     vw15656   1.724   3.882   6.711  0.1134  0.1094 -0.3760
 3915SOL     ow15657   4.023   4.147   3.535  0.2510  0.3943 -0.1373
 3915SOL     hw15658   4.011   4.192   3.619  1.2533  3.7095 -1.6056
 3915SOL     hw15659   4.114   4.165   3.511 -0.7882  2.2792 -3.2931
 3915SOL     vw15660   4.034   4.156   3.543  0.2460  1.0803 -0.7473
 3916SOL     ow15661   2.841   3.365   0.261 -0.1135 -0.3164 -0.0095
 3916SOL     hw15662   2.910   3.360   0.327  1.2546  1.2847 -1.2185
 3916SOL     hw15663   2.886   3.345   0.179 -1.0163  0.9661 -0.8575
 3916SOL     vw15664   2.856   3.362   0.259 -0.0522  0.0641 -0.2809
 3917SOL     ow15665   0.414   5.556   4.173  0.1140 -0.1139 -0.8943
 3917SOL     hw15666   0.385   5.614   4.102 -3.4986 -2.1124 -1.3225
 3917SOL     hw15667   0.432   5.473   4.130  2.4496 -0.1763  0.0621
 3917SOL     vw15668   0.412   5.553   4.157 -0.0545 -0.3858 -0.8245
 3918SOL     ow15669   0.424   4.728   7.088 -0.1250  0.3404 -0.1579
 3918SOL     hw15670   0.497   4.788   7.105 -0.3630  0.4900  0.3601
 3918SOL     hw15671   0.346   4.778   7.112 -0.6929  1.2793 -3.5046
 3918SOL     vw15672   0.423   4.743   7.093 -0.2313  0.4842 -0.5312
 3919SOL     ow15673   5.811   5.790   2.007  0.2036 -0.2056 -0.5708
 3919SOL     hw15674   5.902   5.798   1.977  0.4385  0.7935  0.3496
 3919SOL     hw15675   5.818   5.786   2.102 -0.6665 -1.1407 -0.5305
 3919SOL     vw15676   5.824   5.790   2.015  0.1199 -0.1972 -0.4439
 3920SOL     ow15677   2.974   6.379   0.279 -0.0757  0.0018  0.0906
 3920SOL     hw15678   2.990   6.472   0.296 -1.0343  0.2073 -0.0838
 3920SOL     hw15679   3.027   6.360   0.202 -0.8062  0.7272 -0.6198
 3920SOL     vw15680   2.983   6.389   0.271 -0.2985  0.1245 -0.0261
 3921SOL     ow15681   4.164   7.316   1.688 -0.3263 -0.2360 -0.5057
 3921SOL     hw15682   4.198   7.366   1.614  1.6768 -2.1270 -0.9621
 3921SOL     hw15683   4.218   7.343   1.762  1.3158 -2.1696 -0.9203
 3921SOL     vw15684   4.175   7.326   1.688  0.1547 -0.7405 -0.6206
 3922SOL     ow15685   3.782   5.382   3.023  0.1409  0.4850 -1.1704
 3922SOL     hw15686   3.802   5.380   2.929  1.2157 -2.0392 -0.9672
 3922SOL     hw15687   3.694   5.344   3.029  0.2818  0.1500 -1.1514
 3922SOL     vw15688   3.773   5.376   3.011  0.3012  0.1075 -1.1412
 3923SOL     ow15689   1.088   7.527   4.175  0.2653  0.2313 -0.4310
 3923SOL     hw15690   1.101   7.578   4.095  0.2113  0.7674 -0.0980
 3923SOL     hw15691   1.005   7.558   4.211  1.2408  1.4589  0.8984
 3923SOL     vw15692   1.079   7.538   4.169  0.3869  0.4640 -0.2115
 3924SOL     ow15693   2.211   2.022   1.049 -0.2118 -0.1994 -0.0152
 3924SOL     hw15694   2.122   2.014   1.083  0.1421  1.0503  1.2822
 3924SOL     hw15695   2.220   2.115   1.027  0.3333 -0.5628 -1.4318
 3924SOL     vw15696   2.201   2.033   1.050 -0.0933 -0.0826 -0.0309
 3925SOL     ow15697   6.405   3.681   1.527  0.4071 -0.1154 -0.2142
 3925SOL     hw15698   6.368   3.593   1.523  1.1120 -0.4071 -0.4953
 3925SOL     hw15699   6.491   3.673   1.485  1.0336  0.4170  0.9262
 3925SOL     vw15700   6.411   3.668   1.521  0.5827 -0.0838 -0.1009
 3926SOL     ow15701   6.085   2.672   1.989  0.3169  0.3109 -0.2324
 3926SOL     hw15702   6.090   2.648   2.082  0.1748  0.0886 -0.2790
 3926SOL     hw15703   6.046   2.759   1.989 -2.9775 -1.0141 -0.2025
 3926SOL     vw15704   6.080   2.680   2.001 -0.1366  0.1067 -0.2345
 3927SOL     ow15705   0.672   2.800   7.152  0.3885  0.7750 -0.3340
 3927SOL     hw15706   0.740   2.866   7.138  1.9757 -1.1978 -2.8149
 3927SOL     hw15707   0.590   2.849   7.144  1.4710  2.6386 -0.8211
 3927SOL     vw15708   0.670   2.815   7.149  0.7407  0.7607 -0.7257
 3928SOL     ow15709   2.468   0.853   1.590 -0.1630  0.3537 -0.2246
 3928SOL     hw15710   2.430   0.784   1.644  0.9335  1.6170  2.3124
 3928SOL     hw15711   2.406   0.925   1.595  0.9179  1.2363  1.2063
 3928SOL     vw15712   2.455   0.853   1.597  0.1243  0.6368  0.2989
 3929SOL     ow15713   4.394   5.398   0.469  0.3885 -0.0637  0.0326
 3929SOL     hw15714   4.410   5.398   0.564 -0.7580  2.2623  0.3025
 3929SOL     hw15715   4.480   5.416   0.430  0.4234  1.6705  0.8235
 3929SOL     vw15716   4.408   5.400   0.477  0.2422  0.4721  0.1725
 3930SOL     ow15717   5.318   7.535   0.240 -0.3190  0.5462 -0.2115
 3930SOL     hw15718   5.383   7.466   0.230  0.7180  1.3173  1.0359
 3930SOL     hw15719   5.368   7.613   0.263 -1.6455  1.2489  0.4301
 3930SOL     vw15720   5.333   7.536   0.241 -0.3572  0.7405  0.0377
 3931SOL     ow15721   0.634   2.429   4.550 -0.8443 -0.5015  0.2359
 3931SOL     hw15722   0.711   2.484   4.566 -0.9222 -1.1615  3.5676
 3931SOL     hw15723   0.602   2.457   4.464  1.2638  2.0021  0.1435
 3931SOL     vw15724   0.640   2.440   4.540 -0.5764 -0.2582  0.6633
 3932SOL     ow15725   1.405   3.887   3.395  0.0857  0.9421  0.3151
 3932SOL     hw15726   1.459   3.939   3.335  0.9829 -0.3103  0.0049
 3932SOL     hw15727   1.387   3.806   3.348  0.2748  0.1885  1.4866
 3932SOL     vw15728   1.409   3.884   3.381  0.2290  0.6775  0.4287
 3933SOL     ow15729   5.897   0.658   2.476  0.3033  0.6565 -0.1809
 3933SOL     hw15730   5.835   0.636   2.406 -0.0389 -1.1107  0.6181
 3933SOL     hw15731   5.853   0.632   2.557  1.6467  0.4029  0.4987
 3933SOL     vw15732   5.883   0.652   2.477  0.4351  0.3898  0.0142
 3934SOL     ow15733   5.307   5.343   3.160 -0.5163 -0.7307 -0.3667
 3934SOL     hw15734   5.325   5.266   3.214  0.8408 -2.4046 -3.0051
 3934SOL     hw15735   5.356   5.414   3.201  1.6756 -2.2765 -0.1479
 3934SOL     vw15736   5.316   5.342   3.172 -0.0479 -1.1554 -0.6859
 3935SOL     ow15737   5.091   6.776   2.744 -0.1825  0.1483  0.3449
 3935SOL     hw15738   5.035   6.699   2.730 -0.9796  0.6532  0.7060
 3935SOL     hw15739   5.079   6.798   2.836 -0.2801  0.9531  0.1428
 3935SOL     vw15740   5.082   6.769   2.754 -0.3006  0.3209  0.3659
 3936SOL     ow15741   7.376   2.952   2.248  0.1286  0.1625 -0.7670
 3936SOL     hw15742   7.309   2.943   2.316  1.2119  0.6737  0.4104
 3936SOL     hw15743   7.459   2.950   2.295  1.1233 -2.7975 -2.3892
 3936SOL     vw15744   7.378   2.951   2.263  0.4025 -0.1605 -0.8256
 3937SOL     ow15745   1.324   7.181   6.264 -0.0582  0.1269  0.1045
 3937SOL     hw15746   1.316   7.272   6.294  0.8635  1.3818 -3.0323
 3937SOL     hw15747   1.414   7.173   6.234 -0.2854 -1.6739 -0.2230
 3937SOL     vw15748   1.335   7.192   6.264  0.0334  0.0546 -0.3526
 3938SOL     ow15749   3.750   4.035   0.850  0.4162  0.3685 -0.4292
 3938SOL     hw15750   3.748   3.992   0.935 -1.2009  1.4792  0.1625
 3938SOL     hw15751   3.783   4.123   0.869  0.2953  0.5373 -0.9831
 3938SOL     vw15752   3.754   4.041   0.864  0.1868  0.5376 -0.4242
 3939SOL     ow15753   3.606   0.252   1.711 -0.4335  0.0392 -0.3724
 3939SOL     hw15754   3.669   0.236   1.641 -1.6347 -1.1527 -1.2308
 3939SOL     hw15755   3.642   0.204   1.786  0.3315  0.4677 -0.4541
 3939SOL     vw15756   3.619   0.243   1.712 -0.4910 -0.0615 -0.4964
 3940SOL     ow15757   5.771   4.206   1.739  0.7465  0.7441  1.1239
 3940SOL     hw15758   5.685   4.187   1.775  0.7009 -0.2316  0.5233
 3940SOL     hw15759   5.761   4.290   1.695 -0.1306  0.2155  0.2938
 3940SOL     vw15760   5.759   4.215   1.738  0.6249  0.5455  0.9352
 3941SOL     ow15761   5.397   6.634   0.703  0.3827  0.4660 -0.2205
 3941SOL     hw15762   5.423   6.663   0.616 -0.4928  1.4840 -0.1584
 3941SOL     hw15763   5.393   6.539   0.696 -0.7672  0.5924 -1.6144
 3941SOL     vw15764   5.400   6.625   0.690  0.1152  0.6168 -0.3962
 3942SOL     ow15765   5.113   1.363   6.512  0.1540 -0.3140  0.0293
 3942SOL     hw15766   5.206   1.370   6.493  0.9022 -1.4093  2.8075
 3942SOL     hw15767   5.103   1.275   6.550 -1.2483  1.0776  3.2192
 3942SOL     vw15768   5.124   1.352   6.515  0.0677 -0.2749  0.8171
 3943SOL     ow15769   5.326   7.217   5.619 -0.0966 -0.6144 -0.8556
 3943SOL     hw15770   5.331   7.126   5.590  1.8116 -0.2325 -1.8893
 3943SOL     hw15771   5.413   7.235   5.656 -0.5780  0.6807 -0.2925
 3943SOL     vw15772   5.339   7.207   5.620  0.0913 -0.3932 -0.9179
 3944SOL     ow15773   2.054   6.253   3.182  0.2759  0.1422 -0.6131
 3944SOL     hw15774   2.141   6.215   3.195  0.0859  0.0449  0.4455
 3944SOL     hw15775   2.061   6.341   3.220 -0.0801  0.1417 -0.5478
 3944SOL     vw15776   2.066   6.260   3.189  0.2037  0.1292 -0.4648
 3945SOL     ow15777   6.042   6.638   6.506  0.2140 -0.1122  0.4867
 3945SOL     hw15778   6.020   6.708   6.445 -0.5717 -1.8895 -1.3890
 3945SOL     hw15779   6.131   6.658   6.534 -0.4935  2.3940  1.2144
 3945SOL     vw15780   6.051   6.650   6.502  0.0169 -0.0160  0.3355
 3946SOL     ow15781   2.824   5.589   1.160  0.1556 -0.1503 -0.0777
 3946SOL     hw15782   2.896   5.593   1.222 -0.9914 -4.8975  2.0769
 3946SOL     hw15783   2.853   5.529   1.092  0.1490  2.3846 -2.4973
 3946SOL     vw15784   2.837   5.582   1.160  0.0035 -0.4423 -0.1127
 3947SOL     ow15785   2.641   4.386   1.982 -0.2682 -0.3722  0.4613
 3947SOL     hw15786   2.688   4.464   2.010  0.0924  0.0291 -1.1707
 3947SOL     hw15787   2.604   4.350   2.063 -1.1981  1.9597  1.1556
 3947SOL     vw15788   2.642   4.391   1.996 -0.3434 -0.0112  0.3376
 3948SOL     ow15789   0.798   4.308   5.755 -0.6372 -0.2836 -0.3212
 3948SOL     hw15790   0.789   4.237   5.820 -1.6033  0.6346  0.5828
 3948SOL     hw15791   0.708   4.330   5.730 -0.4081  1.1811  0.0452
 3948SOL     vw15792   0.785   4.301   5.760 -0.7345  0.0310 -0.1535
 3949SOL     ow15793   5.467   0.024   0.024  0.4117 -0.8671  0.1995
 3949SOL     hw15794   5.553  -0.015   0.010  0.8616 -0.5986  2.0233
 3949SOL     hw15795   5.484   0.119   0.027  0.0322 -0.8058  0.4577
 3949SOL     vw15796   5.481   0.032   0.022  0.4210 -0.8236  0.4742
 3950SOL     ow15797   6.794   1.659   0.326 -0.4545  0.5117  0.3698
 3950SOL     hw15798   6.882   1.693   0.314 -0.5011  0.9038  1.0783
 3950SOL     hw15799   6.790   1.634   0.419 -0.8565 -0.1731  0.1787
 3950SOL     vw15800   6.805   1.660   0.337 -0.5138  0.4731  0.4380
 3951SOL     ow15801   2.117   0.353   3.439 -0.6137  0.3407  0.6817
 3951SOL     hw15802   2.029   0.322   3.458 -0.8338 -1.2435 -2.2492
 3951SOL     hw15803   2.175   0.287   3.476 -0.9031 -0.9976 -1.1157
 3951SOL     vw15804   2.113   0.340   3.446 -0.6810 -0.0449  0.0578
 3952SOL     ow15805   6.540   4.353   0.141 -0.2387 -0.2798 -1.0162
 3952SOL     hw15806   6.475   4.380   0.206  2.2796 -1.2208  2.0937
 3952SOL     hw15807   6.539   4.258   0.144  2.6146 -0.3562  0.6826
 3952SOL     vw15808   6.531   4.344   0.150  0.4702 -0.4141 -0.3818
 3953SOL     ow15809   1.819   3.016   2.720  0.1962 -0.3297 -0.8275
 3953SOL     hw15810   1.803   3.064   2.639 -4.3309 -1.9020 -1.1364
 3953SOL     hw15811   1.796   2.925   2.700 -0.1293 -0.9543  1.9315
 3953SOL     vw15812   1.814   3.010   2.707 -0.4441 -0.6196 -0.5043
 3954SOL     ow15813   1.892   2.655   1.091  0.6590 -0.5095  0.0900
 3954SOL     hw15814   1.847   2.579   1.127 -0.9920 -0.1160 -1.0375
 3954SOL     hw15815   1.829   2.694   1.031  2.3410  0.3658 -1.2052
 3954SOL     vw15816   1.878   2.650   1.088  0.6631 -0.3420 -0.2296
 3955SOL     ow15817   5.522   1.709   5.305  0.8591  0.2434  0.2620
 3955SOL     hw15818   5.593   1.649   5.331  0.0273 -0.8817  0.0255
 3955SOL     hw15819   5.504   1.686   5.214 -2.3337 -2.2178  1.3181
 3955SOL     vw15820   5.529   1.698   5.297  0.3283 -0.2298  0.3700
 3956SOL     ow15821   5.796   6.238   4.250  0.4701 -0.2006  0.3122
 3956SOL     hw15822   5.793   6.324   4.209 -1.6693 -1.2994 -2.2267
 3956SOL     hw15823   5.704   6.218   4.270  1.1626 -0.9278  3.2526
 3956SOL     vw15824   5.783   6.246   4.247  0.2792 -0.4416  0.3653
 3957SOL     ow15825   5.572   1.397   3.241  0.2246  0.8042 -0.9856
 3957SOL     hw15826   5.558   1.307   3.269 -0.9808  1.7242  1.8087
 3957SOL     hw15827   5.665   1.403   3.220  0.7384 -0.6533  0.6945
 3957SOL     vw15828   5.582   1.386   3.242  0.1330  0.7333 -0.3953
 3958SOL     ow15829   3.777   0.063   4.639 -0.7247  0.7481  0.5687
 3958SOL     hw15830   3.854   0.118   4.630 -0.5219  0.2745 -0.8718
 3958SOL     hw15831   3.813  -0.025   4.653 -0.9376  0.3473 -1.1589
 3958SOL     vw15832   3.792   0.058   4.640 -0.7262  0.6327  0.1507
 3959SOL     ow15833   2.532   4.029   1.818  0.0912  0.3250  0.7762
 3959SOL     hw15834   2.492   4.116   1.810  0.3297  0.5401  1.7811
 3959SOL     hw15835   2.623   4.042   1.790  0.0842  0.3641  0.7713
 3959SOL     vw15836   2.539   4.042   1.813  0.1218  0.3586  0.9081
 3960SOL     ow15837   6.598   2.328   4.282  0.0397  0.3188  0.1787
 3960SOL     hw15838   6.564   2.244   4.249 -0.8320 -0.2394  2.3145
 3960SOL     hw15839   6.602   2.384   4.205 -0.6365 -1.2690 -1.0796
 3960SOL     vw15840   6.594   2.324   4.267 -0.1647  0.0356  0.2944
 3961SOL     ow15841   6.928   3.100   1.496 -0.4324  0.1667  0.4031
 3961SOL     hw15842   6.923   3.163   1.424 -1.1021  1.5680  1.6180
 3961SOL     hw15843   6.848   3.049   1.489 -0.4628  0.2504  0.1163
 3961SOL     vw15844   6.917   3.102   1.485 -0.5250  0.3625  0.5255
 3962SOL     ow15845   4.436   6.718   1.521  0.6533  0.5331 -0.3390
 3962SOL     hw15846   4.511   6.776   1.512  0.9620  0.0419 -1.0234
 3962SOL     hw15847   4.382   6.737   1.445  2.4787 -2.5124 -2.6247
 3962SOL     vw15848   4.439   6.728   1.510  0.9351  0.0663 -0.7309
 3963SOL     ow15849   1.805   6.074   1.047  0.3785 -0.1432 -0.1837
 3963SOL     hw15850   1.802   5.984   1.015  1.5757 -0.4270  0.4658
 3963SOL     hw15851   1.867   6.072   1.120 -0.9763  0.8451  1.0392
 3963SOL     vw15852   1.813   6.062   1.052  0.3577 -0.0503  0.0633
 3964SOL     ow15853   7.218   0.351   6.707  0.8106 -0.4667  0.5464
 3964SOL     hw15854   7.227   0.379   6.799 -1.1004  0.0560  0.6151
 3964SOL     hw15855   7.303   0.372   6.668  0.1353  4.2211  0.9651
 3964SOL     vw15856   7.230   0.357   6.714  0.4694  0.2208  0.6108
 3965SOL     ow15857   6.730   2.910   0.768  0.0099  0.8356 -0.1432
 3965SOL     hw15858   6.688   2.944   0.689  0.9313 -1.0266 -1.5038
 3965SOL     hw15859   6.810   2.868   0.736  0.0991 -0.5014  1.7136
 3965SOL     vw15860   6.735   2.909   0.753  0.1433  0.4135 -0.0778
 3966SOL     ow15861   1.339   2.865   6.953 -0.3606 -0.7031 -0.1496
 3966SOL     hw15862   1.299   2.934   7.006  0.8770  1.0959 -1.4182
 3966SOL     hw15863   1.321   2.891   6.863  0.3896 -1.9022 -0.6672
 3966SOL     vw15864   1.331   2.878   6.948 -0.0983 -0.6239 -0.3853
 3967SOL     ow15865   1.657   4.027   3.237  0.3016  0.1808 -0.3669
 3967SOL     hw15866   1.680   4.120   3.231  2.1149 -0.3120 -2.5118
 3967SOL     hw15867   1.728   3.987   3.286  0.0148 -0.2251 -0.2725
 3967SOL     vw15868   1.669   4.034   3.242  0.5030  0.0625 -0.6375
 3968SOL     ow15869   1.584   3.818   6.470  0.0304  0.1481 -0.2291
 3968SOL     hw15870   1.677   3.800   6.476 -0.4787 -2.4739  1.3670
 3968SOL     hw15871   1.556   3.830   6.561 -1.3011  0.1719 -0.6204
 3968SOL     vw15872   1.592   3.817   6.483 -0.2125 -0.1947 -0.0701
 3969SOL     ow15873   2.449   3.835   7.004 -0.1751  0.2529  0.1659
 3969SOL     hw15874   2.522   3.774   7.015 -0.9420 -0.5843  0.7685
 3969SOL     hw15875   2.442   3.880   7.088 -1.1852 -0.6391  0.5823
 3969SOL     vw15876   2.457   3.833   7.017 -0.4096  0.0248  0.3002
 3970SOL     ow15877   4.723   0.609   1.523 -0.3020  0.2808  0.2246
 3970SOL     hw15878   4.806   0.577   1.557 -0.2547 -0.9806 -0.9633
 3970SOL     hw15879   4.671   0.633   1.600 -0.7356 -3.7119  1.3652
 3970SOL     vw15880   4.727   0.608   1.537 -0.3529 -0.4124  0.2184
 3971SOL     ow15881   2.630   6.063   6.474  0.2070  0.0322 -0.1412
 3971SOL     hw15882   2.629   6.097   6.564  0.0208 -1.2622  0.3777
 3971SOL     hw15883   2.696   6.115   6.429  0.4872  0.5286  0.8183
 3971SOL     vw15884   2.638   6.074   6.480  0.2192 -0.0732  0.0536
 3972SOL     ow15885   4.502   3.247   4.070  0.1389  0.7575 -0.2245
 3972SOL     hw15886   4.462   3.247   4.157  0.2832  2.1559 -0.1285
 3972SOL     hw15887   4.554   3.328   4.068  1.3272 -0.0031 -1.0854
 3972SOL     vw15888   4.503   3.258   4.081  0.3145  0.8419 -0.3254
 3973SOL     ow15889   5.492   5.922   0.134  0.4411 -0.4315  0.0187
 3973SOL     hw15890   5.541   5.848   0.169  2.0918 -0.0804 -1.4166
 3973SOL     hw15891   5.481   5.901   0.041 -1.0314  0.1194  0.0311
 3973SOL     vw15892   5.497   5.909   0.126  0.4644 -0.3126 -0.1690
 3974SOL     ow15893   3.365   6.795   4.759 -0.0438  0.2802 -0.6476
 3974SOL     hw15894   3.431   6.790   4.828 -0.0106 -0.3912 -0.7219
 3974SOL     hw15895   3.415   6.790   4.678 -0.2480 -1.3693 -0.7035
 3974SOL     vw15896   3.380   6.794   4.757 -0.0664 -0.0260 -0.6649
 3975SOL     ow15897   3.145   5.236   1.402  0.6800 -0.2855 -0.2115
 3975SOL     hw15898   3.205   5.165   1.427 -0.4342 -1.3880 -0.6127
 3975SOL     hw15899   3.094   5.253   1.481  0.8095 -0.0599 -0.1752
 3975SOL     vw15900   3.147   5.229   1.416  0.5500 -0.4010 -0.2596
 3976SOL     ow15901   3.159   4.371   1.199 -0.0337 -0.0189 -0.2989
 3976SOL     hw15902   3.187   4.348   1.287 -0.6970 -0.3463 -0.1644
 3976SOL     hw15903   3.192   4.299   1.144  0.1339  0.0400 -0.2756
 3976SOL     vw15904   3.167   4.358   1.203 -0.0992 -0.0544 -0.2781
 3977SOL     ow15905   1.039   0.059   1.011  0.2025 -0.8138 -0.0735
 3977SOL     hw15906   0.994  -0.025   1.011 -1.2538 -0.0729 -0.2377
 3977SOL     hw15907   1.125   0.041   1.049 -0.5261 -2.1497  1.0390
 3977SOL     vw15908   1.045   0.046   1.016 -0.0858 -0.8922  0.0517
 3978SOL     ow15909   2.893   5.525   2.816 -0.0007 -0.2157 -0.0634
 3978SOL     hw15910   2.843   5.501   2.738  0.6581 -0.4547 -0.4214
 3978SOL     hw15911   2.974   5.473   2.809  0.0696 -0.2255  0.7670
 3978SOL     vw15912   2.897   5.515   2.805  0.0956 -0.2484 -0.0010
 3979SOL     ow15913   1.090   2.850   2.248 -0.3988  0.3483 -0.0301
 3979SOL     hw15914   1.098   2.941   2.278 -0.3928  1.4386 -3.0467
 3979SOL     hw15915   1.175   2.830   2.210 -0.3961 -0.9631  0.6372
 3979SOL     vw15916   1.102   2.860   2.247 -0.3976  0.3190 -0.3400
 3980SOL     ow15917   1.588   4.489   5.411 -0.1757 -0.2178  0.4350
 3980SOL     hw15918   1.653   4.542   5.457 -0.3328  0.1523  0.2380
 3980SOL     hw15919   1.529   4.554   5.371  1.8914 -0.3066 -3.2690
 3980SOL     vw15920   1.589   4.505   5.412  0.0763 -0.1807 -0.0796
 3981SOL     ow15921   6.043   6.210   4.055 -0.0050  0.1531 -0.3093
 3981SOL     hw15922   6.064   6.204   3.962 -0.1607  0.7143 -0.3850
 3981SOL     hw15923   6.120   6.173   4.100  1.0632  1.9305 -0.5853
 3981SOL     vw15924   6.056   6.204   4.049  0.1154  0.4616 -0.3557
 3982SOL     ow15925   5.792   4.003   5.030 -0.3265  0.4837  0.1492
 3982SOL     hw15926   5.827   3.917   5.008  0.1761  1.1096 -1.6907
 3982SOL     hw15927   5.744   3.990   5.111 -1.3118 -1.7956 -0.7419
 3982SOL     vw15928   5.791   3.990   5.038 -0.3905  0.2655 -0.2110
 3983SOL     ow15929   6.490   0.393   2.321 -0.2142  0.1723 -0.0068
 3983SOL     hw15930   6.552   0.429   2.258  2.7210 -0.9625  2.0132
 3983SOL     hw15931   6.471   0.466   2.381 -0.0849  0.2778 -0.0948
 3983SOL     vw15932   6.496   0.407   2.321  0.1900  0.0365  0.2483
 3984SOL     ow15933   0.415   0.544   4.314  0.3178  0.2629  0.1499
 3984SOL     hw15934   0.450   0.581   4.395 -0.2325  3.6339 -0.9767
 3984SOL     hw15935   0.475   0.573   4.246  0.4711 -2.0448 -0.7889
 3984SOL     vw15936   0.427   0.553   4.316  0.2654  0.4032 -0.1230
 3985SOL     ow15937   4.884   6.558   2.694  0.0829 -0.1970 -0.2001
 3985SOL     hw15938   4.826   6.634   2.682  0.9984  0.2965 -1.9085
 3985SOL     hw15939   4.897   6.525   2.605  1.5444 -0.9471  0.2781
 3985SOL     vw15940   4.878   6.564   2.681  0.3965 -0.2308 -0.3625
 3986SOL     ow15941   1.143   0.026   3.907 -0.0836  0.0800 -0.0247
 3986SOL     hw15942   1.187   0.067   3.832 -1.4225  0.4243 -0.6433
 3986SOL     hw15943   1.070   0.084   3.927  0.4529  0.1857  1.8058
 3986SOL     vw15944   1.139   0.039   3.900 -0.1895  0.1394  0.1352
 3987SOL     ow15945   6.666   3.999   4.832  0.4303  0.5194 -0.0930
 3987SOL     hw15946   6.592   4.054   4.804 -0.5539 -0.8537 -0.2771
 3987SOL     hw15947   6.743   4.055   4.822 -0.6385  2.2376  0.7684
 3987SOL     vw15948   6.666   4.014   4.827  0.1595  0.5651 -0.0038
 3988SOL     ow15949   3.735   6.080   7.216 -0.2465  0.0640  0.0497
 3988SOL     hw15950   3.790   6.123   7.151  1.9685 -1.8139  0.5648
 3988SOL     hw15951   3.669   6.034   7.165 -2.0747  3.0660 -0.5503
 3988SOL     vw15952   3.733   6.080   7.201 -0.1954  0.2122  0.0386
 3989SOL     ow15953   1.074   2.826   4.936 -0.4671 -0.1959  0.2402
 3989SOL     hw15954   1.013   2.760   4.967 -0.8733  0.7200  1.5153
 3989SOL     hw15955   1.157   2.803   4.979 -0.4705 -0.2030  0.2430
 3989SOL     vw15956   1.077   2.814   4.946 -0.5212 -0.0761  0.4089
 3990SOL     ow15957   4.917   5.034   5.286 -0.0528  0.1430  0.4177
 3990SOL     hw15958   4.888   5.058   5.197 -1.3469 -0.2791  0.7076
 3990SOL     hw15959   4.862   5.087   5.344 -0.4425 -0.8688  0.9934
 3990SOL     vw15960   4.906   5.044   5.282 -0.2751 -0.0460  0.5322
 3991SOL     ow15961   4.165   5.208   6.462  0.3870 -0.2724  0.2085
 3991SOL     hw15962   4.205   5.128   6.495  0.1312  0.0277  1.2750
 3991SOL     hw15963   4.208   5.279   6.511 -1.0233  0.0898  0.9821
 3991SOL     vw15964   4.176   5.207   6.473  0.1669 -0.1850  0.4513
 3992SOL     ow15965   1.868   6.727   2.255 -0.5607  0.1455 -0.3291
 3992SOL     hw15966   1.854   6.821   2.245 -1.4277  0.3450  2.1237
 3992SOL     hw15967   1.961   6.715   2.236 -0.7735  1.1904 -2.2958
 3992SOL     vw15968   1.879   6.738   2.252 -0.7032  0.3097 -0.2650
 3993SOL     ow15969   7.122   4.428   2.516  0.1107  0.7959 -1.0746
 3993SOL     hw15970   7.042   4.421   2.567 -0.7961  1.5555 -2.3479
 3993SOL     hw15971   7.190   4.450   2.580 -0.2113 -1.9549  0.3847
 3993SOL     vw15972   7.121   4.430   2.531 -0.0513  0.5331 -1.0501
 3994SOL     ow15973   5.953   1.620   4.854  0.0978 -0.3347 -0.7923
 3994SOL     hw15974   5.907   1.704   4.854 -0.2589 -0.5163 -0.1263
 3994SOL     hw15975   6.026   1.633   4.914  0.1409 -0.4454 -0.8213
 3994SOL     vw15976   5.957   1.633   4.862  0.0565 -0.3732 -0.7081
 3995SOL     ow15977   6.091   1.785   2.278 -0.4659  0.0119  0.3259
 3995SOL     hw15978   6.151   1.725   2.232 -1.0107 -0.7189  0.5521
 3995SOL     hw15979   6.145   1.862   2.297  0.3305 -0.5133  0.2643
 3995SOL     vw15980   6.106   1.787   2.274 -0.4330 -0.1538  0.3475
 3996SOL     ow15981   2.550   4.070   4.278  0.0197 -0.0778  0.3663
 3996SOL     hw15982   2.530   3.990   4.327 -0.4374  0.2634  0.7418
 3996SOL     hw15983   2.615   4.042   4.213 -1.8004 -1.2721 -1.0293
 3996SOL     vw15984   2.556   4.056   4.276 -0.2807 -0.1905  0.2317
 3997SOL     ow15985   2.658   4.504   4.127  0.3186  0.0306 -0.3126
 3997SOL     hw15986   2.669   4.567   4.055  0.7085  0.8812  0.4667
 3997SOL     hw15987   2.726   4.438   4.111  0.7518  0.4995 -0.4255
 3997SOL     vw15988   2.669   4.504   4.115  0.4271  0.2048 -0.2248
 3998SOL     ow15989   0.443   1.320   7.072  0.2655  0.8324  0.4871
 3998SOL     hw15990   0.361   1.284   7.105 -0.0038  0.9539 -0.0545
 3998SOL     hw15991   0.498   1.243   7.055  0.1716  0.7407  0.5966
 3998SOL     vw15992   0.440   1.305   7.074  0.2176  0.8364  0.4296
 3999SOL     ow15993   4.276   3.961   4.928 -0.0099 -0.1222  0.4825
 3999SOL     hw15994   4.356   3.951   4.877 -0.4989 -1.4343 -0.0530
 3999SOL     hw15995   4.290   4.042   4.978  0.8649  0.6942 -1.0080
 3999SOL     vw15996   4.288   3.971   4.928  0.0408 -0.1876  0.2153
 4000SOL     ow15997   7.344   2.855   6.018  0.5078  0.1406  0.4691
 4000SOL     hw15998   7.440   2.854   6.010  0.6786 -0.6957  2.2509
 4000SOL     hw15999   7.327   2.886   6.106 -0.8012 -1.1731  0.7269
 4000SOL     vw16000   7.355   2.859   6.029  0.3576 -0.1431  0.7384
 4001SOL     ow16001   6.359   4.775   3.844  0.3955 -0.4864 -0.0812
 4001SOL     hw16002   6.330   4.866   3.842  1.5954 -0.0951 -0.1623
 4001SOL     hw16003   6.338   4.744   3.932 -1.9203 -0.7955 -0.6811
 4001SOL     vw16004   6.352   4.783   3.855  0.2484 -0.4756 -0.1709
 4002SOL     ow16005   3.384   5.041   4.244 -0.1452 -0.2690 -0.4479
 4002SOL     hw16006   3.358   4.949   4.244 -1.6869  0.1332 -0.5253
 4002SOL     hw16007   3.314   5.085   4.294 -1.7855  1.4419 -3.9082
 4002SOL     vw16008   3.371   5.035   4.251 -0.5651  0.0100 -0.9146
 4003SOL     ow16009   1.858   0.490   7.400 -0.0150 -0.4116 -0.6179
 4003SOL     hw16010   1.941   0.537   7.393  1.0252 -1.9425  0.8693
 4003SOL     hw16011   1.819   0.497   7.313  1.5646  0.5074 -1.2877
 4003SOL     vw16012   1.864   0.497   7.388  0.3307 -0.4923 -0.5102
 4004SOL     ow16013   7.278   3.654   3.655 -0.3997  0.2370  0.0347
 4004SOL     hw16014   7.255   3.561   3.652  0.1379  0.0934 -2.7059
 4004SOL     hw16015   7.194   3.699   3.660 -0.7208 -0.3806  0.3591
 4004SOL     vw16016   7.264   3.647   3.655 -0.3710  0.1365 -0.2842
 4005SOL     ow16017   6.909   3.981   6.900 -0.6461  0.2214  0.0947
 4005SOL     hw16018   6.866   3.896   6.902  1.2391 -0.7790  1.2100
 4005SOL     hw16019   6.888   4.021   6.984 -1.8888  1.0995 -0.5973
 4005SOL     vw16020   6.901   3.975   6.911 -0.5615  0.2054  0.1507
 4006SOL     ow16021   0.237   6.799   4.119 -0.2624 -0.2240  0.2622
 4006SOL     hw16022   0.224   6.891   4.095  0.9048  0.4011  1.8732
 4006SOL     hw16023   0.178   6.751   4.061 -1.0649  1.5459 -0.4660
 4006SOL     vw16024   0.227   6.805   4.108 -0.2143  0.0920  0.3788
 4007SOL     ow16025   7.290   6.071   6.010  0.0818 -0.2014 -0.1234
 4007SOL     hw16026   7.383   6.063   6.029 -0.5321 -2.4473  2.5250
 4007SOL     hw16027   7.275   6.165   6.002  1.9737  0.5198  3.1680
 4007SOL     vw16028   7.300   6.082   6.011  0.2503 -0.4027  0.6602
 4008SOL     ow16029   3.635   5.431   0.848  0.0960 -0.9877  0.2226
 4008SOL     hw16030   3.559   5.432   0.789 -0.4032  0.5226  0.8396
 4008SOL     hw16031   3.601   5.464   0.931  1.5712  0.4338  0.2953
 4008SOL     vw16032   3.620   5.435   0.851  0.2246 -0.6008  0.3136
 4009SOL     ow16033   3.342   2.684   0.769 -0.1092  0.1326 -0.1645
 4009SOL     hw16034   3.313   2.663   0.858  1.7738  2.6084  1.1741
 4009SOL     hw16035   3.296   2.765   0.747 -0.7316 -0.5769 -1.5698
 4009SOL     vw16036   3.332   2.692   0.778  0.0571  0.3656 -0.1734
 4010SOL     ow16037   1.872   2.172   3.272 -0.8611 -0.1901 -0.3257
 4010SOL     hw16038   1.782   2.145   3.255 -1.0035  0.1343 -0.1141
 4010SOL     hw16039   1.891   2.137   3.359  0.2591 -2.8309 -1.5422
 4010SOL     vw16040   1.862   2.164   3.282 -0.7321 -0.4957 -0.4584
 4011SOL     ow16041   7.337   7.612   5.045 -0.2862 -0.4797 -0.3990
 4011SOL     hw16042   7.297   7.526   5.047 -3.5430  0.8518  2.6995
 4011SOL     hw16043   7.417   7.600   4.993 -0.4901 -5.2906 -0.0665
 4011SOL     vw16044   7.343   7.599   5.038 -0.7427 -0.9387  0.0539
 4012SOL     ow16045   5.945   6.139   2.010  0.3636  0.2194 -0.0819
 4012SOL     hw16046   5.919   6.104   1.925 -0.4134 -1.8458  0.9310
 4012SOL     hw16047   6.002   6.213   1.990 -0.4439  0.2775 -2.3777
 4012SOL     vw16048   5.949   6.144   1.996  0.1545 -0.0453 -0.2512
 4013SOL     ow16049   6.678   3.454   4.683 -0.2040 -0.0554  0.5109
 4013SOL     hw16050   6.668   3.368   4.724  0.0626  1.8177  5.1747
 4013SOL     hw16051   6.592   3.494   4.692  0.4081  1.1490  1.2190
 4013SOL     vw16052   6.666   3.448   4.690 -0.0880  0.3506  1.2197
 4014SOL     ow16053   5.431   6.903   5.559  0.0628 -0.1612 -0.2713
 4014SOL     hw16054   5.412   6.895   5.466 -0.5737  0.9738 -0.2490
 4014SOL     hw16055   5.524   6.926   5.563  0.0335  0.0237 -0.6350
 4014SOL     vw16056   5.441   6.905   5.547 -0.0248  0.0131 -0.3164
 4015SOL     ow16057   6.928   5.034   2.538 -0.5048  0.3873  0.2323
 4015SOL     hw16058   6.929   4.982   2.618 -0.9826 -0.9799 -0.6021
 4015SOL     hw16059   6.850   5.089   2.545 -0.4479  0.4039  0.7706
 4015SOL     vw16060   6.918   5.034   2.549 -0.5605  0.2091  0.1932
 4016SOL     ow16061   1.411   1.589   4.980 -0.6303  0.2496 -0.4819
 4016SOL     hw16062   1.387   1.551   5.064 -0.7343  0.6673 -0.3219
 4016SOL     hw16063   1.498   1.626   4.995 -1.0682  1.2184 -0.2682
 4016SOL     vw16064   1.419   1.589   4.993 -0.7018  0.4325 -0.4325
 4017SOL     ow16065   2.460   0.444   6.971 -0.4010  0.0619 -0.7598
 4017SOL     hw16066   2.414   0.461   7.053  1.4340 -0.6272  0.4754
 4017SOL     hw16067   2.391   0.441   6.905 -2.0126 -0.0140  0.8479
 4017SOL     vw16068   2.445   0.446   6.973 -0.3715 -0.0390 -0.3848
 4018SOL     ow16069   4.628   0.285   3.911  0.2839  0.7126 -0.3732
 4018SOL     hw16070   4.614   0.247   3.998  0.3343  0.6109 -0.4095
 4018SOL     hw16071   4.703   0.238   3.875  0.0704  0.5396 -0.5961
 4018SOL     vw16072   4.636   0.274   3.918  0.2623  0.6763 -0.4073
 4019SOL     ow16073   2.817   0.684   6.123 -0.0192  0.6587  0.0985
 4019SOL     hw16074   2.819   0.609   6.181 -2.3284  0.3424 -0.1702
 4019SOL     hw16075   2.727   0.689   6.092  0.4732  2.5355 -1.2136
 4019SOL     vw16076   2.806   0.675   6.126 -0.2588  0.8647 -0.1101
 4020SOL     ow16077   2.011   1.786   2.556  0.5675 -0.4392  0.1399
 4020SOL     hw16078   2.102   1.807   2.532  0.5943  0.5034  1.0256
 4020SOL     hw16079   2.015   1.696   2.588  1.2809 -0.2321  0.6527
 4020SOL     vw16080   2.024   1.777   2.557  0.6652 -0.2875  0.3244
 4021SOL     ow16081   7.298   0.636   0.447  0.5822 -0.6545 -0.3335
 4021SOL     hw16082   7.333   0.559   0.492 -0.6147  0.1244  2.1157
 4021SOL     hw16083   7.208   0.612   0.426 -0.1938  0.4036  1.5348
 4021SOL     vw16084   7.291   0.623   0.450  0.3221 -0.4121  0.2362
 4022SOL     ow16085   1.747   2.115   4.331 -0.4378  0.2652  0.1350
 4022SOL     hw16086   1.771   2.204   4.358 -1.8594  0.4502  0.8439
 4022SOL     hw16087   1.825   2.063   4.350  0.5395  1.3926 -0.5851
 4022SOL     vw16088   1.761   2.120   4.337 -0.4964  0.4386  0.1338
 4023SOL     ow16089   6.445   4.928   0.318  0.0872  0.5680 -0.3857
 4023SOL     hw16090   6.511   4.917   0.386 -1.0546  2.9430  1.2085
 4023SOL     hw16091   6.364   4.894   0.356 -0.0254 -0.8334 -1.7332
 4023SOL     vw16092   6.443   4.922   0.332 -0.0784  0.6967 -0.3531
 4024SOL     ow16093   5.370   3.654   2.513  0.1992 -0.1196  0.4141
 4024SOL     hw16094   5.320   3.585   2.556  1.1487 -0.4759  0.9974
 4024SOL     hw16095   5.373   3.628   2.421 -1.9082  0.6778  0.0710
 4024SOL     vw16096   5.364   3.641   2.507  0.0467 -0.0614  0.4457
 4025SOL     ow16097   4.267   3.539   2.659  1.3459 -0.3716  0.3301
 4025SOL     hw16098   4.301   3.607   2.601  0.6057 -1.2349 -1.1669
 4025SOL     hw16099   4.177   3.526   2.631  1.0409 -1.0057  1.5204
 4025SOL     vw16100   4.260   3.546   2.648  1.2081 -0.5692  0.2897
 4026SOL     ow16101   2.394   1.794   5.183 -1.2407 -0.6805 -0.1061
 4026SOL     hw16102   2.455   1.805   5.255  0.0402 -1.0668 -1.0914
 4026SOL     hw16103   2.310   1.773   5.224 -0.2231 -2.3255  1.2081
 4026SOL     vw16104   2.391   1.793   5.198 -0.9373 -0.9485 -0.0627
 4027SOL     ow16105   3.300   1.032   4.574  0.6342  0.5339  0.1222
 4027SOL     hw16106   3.257   1.087   4.639  3.8658 -1.4703  4.4892
 4027SOL     hw16107   3.238   0.961   4.558 -0.2069  1.0049  1.1841
 4027SOL     vw16108   3.286   1.030   4.581  0.9496  0.3316  0.8383
 4028SOL     ow16109   4.307   2.417   4.694  0.7384 -0.2526 -0.2534
 4028SOL     hw16110   4.251   2.397   4.619 -2.0657  3.1824  0.6819
 4028SOL     hw16111   4.346   2.501   4.674  0.6885  0.2930  1.6966
 4028SOL     vw16112   4.305   2.425   4.682  0.3619  0.2726  0.1271
 4029SOL     ow16113   4.450   4.628   1.440  0.4691 -0.7517  0.5692
 4029SOL     hw16114   4.510   4.691   1.479  0.6176  1.4630 -2.7789
 4029SOL     hw16115   4.499   4.591   1.366 -1.5677 -0.2626 -1.1210
 4029SOL     vw16116   4.464   4.631   1.435  0.2201 -0.3946 -0.0955
 4030SOL     ow16117   2.947   3.783   1.817 -0.4989  0.0812  0.4342
 4030SOL     hw16118   2.996   3.859   1.849  0.0187 -0.4128  0.8225
 4030SOL     hw16119   2.913   3.741   1.895  4.2138 -3.5442  1.0167
 4030SOL     vw16120   2.949   3.788   1.831  0.1912 -0.4623  0.5623
 4031SOL     ow16121   2.507   0.234   4.919  0.0139  0.1852  0.7411
 4031SOL     hw16122   2.503   0.269   5.008  2.8148  0.1531  0.9675
 4031SOL     hw16123   2.421   0.195   4.905 -0.7169  0.7339  3.1963
 4031SOL     vw16124   2.495   0.233   4.929  0.2871  0.2534  1.0948
 4032SOL     ow16125   0.268   4.702   5.440  0.1349  0.2307  0.2310
 4032SOL     hw16126   0.182   4.667   5.463  0.3674 -0.3785  0.1904
 4032SOL     hw16127   0.252   4.794   5.420  0.0021  1.0024  3.4040
 4032SOL     vw16128   0.255   4.710   5.440  0.1481  0.2522  0.6442
 4033SOL     ow16129   5.339   2.394   1.280 -0.5472 -0.7443  0.2904
 4033SOL     hw16130   5.357   2.487   1.264 -1.3144 -0.1747  2.4429
 4033SOL     hw16131   5.394   2.348   1.216  1.9616  1.1057  0.9599
 4033SOL     vw16132   5.349   2.400   1.269 -0.3173 -0.4250  0.6627
 4034SOL     ow16133   1.808   6.984   2.225 -0.3402  0.6131  0.0196
 4034SOL     hw16134   1.870   7.034   2.170 -1.4112 -1.7927 -3.7499
 4034SOL     hw16135   1.723   7.025   2.208 -0.8403 -0.8049 -1.1151
 4034SOL     vw16136   1.805   6.996   2.215 -0.5476  0.1087 -0.6274
 4035SOL     ow16137   7.026   4.093   3.073 -0.0708 -0.8080 -0.2049
 4035SOL     hw16138   6.947   4.140   3.047 -0.2223  0.6438  2.4927
 4035SOL     hw16139   7.098   4.144   3.037 -0.2700  1.1295  1.8943
 4035SOL     vw16140   7.025   4.106   3.065 -0.1171 -0.3607  0.4280
 4036SOL     ow16141   3.720   1.803   1.772  0.1058  0.4972  0.4895
 4036SOL     hw16142   3.770   1.752   1.709 -1.4929  1.2069 -1.4620
 4036SOL     hw16143   3.758   1.781   1.857  0.9947 -2.0848 -0.4963
 4036SOL     vw16144   3.731   1.794   1.775  0.0123  0.2502  0.1019
 4037SOL     ow16145   2.342   4.747   4.333  0.2841  0.2882 -0.0831
 4037SOL     hw16146   2.334   4.803   4.255 -1.8907  0.2206  0.0488
 4037SOL     hw16147   2.306   4.663   4.306  0.6403 -0.1123  0.6571
 4037SOL     vw16148   2.337   4.743   4.319  0.0442  0.2265  0.0319
 4038SOL     ow16149   3.513   6.381   1.350 -0.5075  0.1506  0.1499
 4038SOL     hw16150   3.573   6.373   1.424 -2.6457  1.1929  2.1238
 4038SOL     hw16151   3.568   6.367   1.273  2.1278  0.4721  1.8360
 4038SOL     vw16152   3.528   6.378   1.350 -0.4419  0.3307  0.6329
 4039SOL     ow16153   2.693   2.720   1.144  0.3099 -0.0851 -0.5648
 4039SOL     hw16154   2.784   2.727   1.174 -0.0885 -0.0998  0.7159
 4039SOL     hw16155   2.689   2.633   1.104  0.6083 -0.5313  0.3342
 4039SOL     vw16156   2.705   2.709   1.143  0.2967 -0.1459 -0.2773
 4040SOL     ow16157   3.113   5.188   6.979  0.0491 -0.4842  0.1463
 4040SOL     hw16158   3.036   5.244   6.980  0.3818 -0.0100  1.6969
 4040SOL     hw16159   3.079   5.102   6.954 -0.5016  0.2999 -2.0264
 4040SOL     vw16160   3.098   5.184   6.976  0.0205 -0.3183  0.0641
 4041SOL     ow16161   0.365   0.709   6.214 -0.5780 -0.2483  0.3612
 4041SOL     hw16162   0.318   0.703   6.298  1.0572 -0.5066  1.3011
 4041SOL     hw16163   0.413   0.792   6.219 -0.3292 -0.3484 -0.2440
 4041SOL     vw16164   0.365   0.719   6.226 -0.3294 -0.2956  0.4053
 4042SOL     ow16165   7.272   3.410   0.059 -0.6347  0.1776  0.8392
 4042SOL     hw16166   7.301   3.444  -0.026 -1.4862  1.0344  0.8757
 4042SOL     hw16167   7.283   3.315   0.051 -1.0267  0.2057 -0.3618
 4042SOL     vw16168   7.278   3.402   0.046 -0.7989  0.2944  0.6855
 4043SOL     ow16169   1.235   3.370   3.961  0.1110  0.3892  0.3926
 4043SOL     hw16170   1.272   3.305   3.900  0.5056  0.1297  0.9009
 4043SOL     hw16171   1.299   3.375   4.032 -0.6081  0.2929  1.0544
 4043SOL     vw16172   1.248   3.362   3.962  0.0681  0.3422  0.5471
 4044SOL     ow16173   6.446   3.279   6.970 -0.2367 -0.0819  0.3408
 4044SOL     hw16174   6.517   3.224   6.935  0.9374  0.9412  1.0230
 4044SOL     hw16175   6.426   3.240   7.055  1.2456  1.0204  1.2481
 4044SOL     vw16176   6.453   3.266   6.976  0.1142  0.1985  0.5503
 4045SOL     ow16177   4.089   3.273   4.333 -0.3517 -0.3392  0.0350
 4045SOL     hw16178   4.107   3.251   4.425  0.6718  1.0293  0.1946
 4045SOL     hw16179   4.013   3.332   4.337 -0.2063 -0.1516  0.0126
 4045SOL     vw16180   4.081   3.278   4.346 -0.1976 -0.1340  0.0532
 4046SOL     ow16181   1.287   4.635   4.576 -0.0947  0.2474 -0.3297
 4046SOL     hw16182   1.298   4.541   4.589 -0.3248  0.3214  0.4582
 4046SOL     hw16183   1.334   4.675   4.649  0.0143  0.7508 -0.6661
 4046SOL     vw16184   1.295   4.628   4.587 -0.1107  0.3235 -0.2701
 4047SOL     ow16185   0.416   0.511   4.033  0.0752 -0.0928  0.3116
 4047SOL     hw16186   0.510   0.501   4.020  0.0746  0.0418  0.2003
 4047SOL     hw16187   0.376   0.478   3.953  0.0274 -0.1585  0.3623
 4047SOL     vw16188   0.423   0.506   4.021  0.0688 -0.0837  0.3035
 4048SOL     ow16189   1.608   6.833   6.887 -0.0327 -0.1719 -0.2218
 4048SOL     hw16190   1.601   6.740   6.863 -1.3932 -0.2425  0.3656
 4048SOL     hw16191   1.518   6.860   6.906  0.6010  0.5924  2.0667
 4048SOL     vw16192   1.596   6.824   6.887 -0.1286 -0.0803  0.1576
 4049SOL     ow16193   1.650   5.759   3.183 -0.2652 -0.3173  0.9624
 4049SOL     hw16194   1.586   5.789   3.248 -1.7005 -2.0088  0.4191
 4049SOL     hw16195   1.664   5.667   3.204 -1.6548 -1.2505 -1.7256
 4049SOL     vw16196   1.643   5.751   3.195 -0.6379 -0.6638  0.5360
 4050SOL     ow16197   1.821   4.178   3.738 -0.0071  0.0546 -0.2900
 4050SOL     hw16198   1.896   4.126   3.711 -1.2795 -0.5267 -2.9893
 4050SOL     hw16199   1.809   4.156   3.831  2.8997 -0.0485  0.1636
 4050SOL     vw16200   1.829   4.168   3.747  0.2085 -0.0360 -0.5863
 4051SOL     ow16201   0.662   3.418   2.815  0.0452  0.9160  0.0137
 4051SOL     hw16202   0.590   3.460   2.768 -0.3027 -0.9435 -1.2006
 4051SOL     hw16203   0.741   3.444   2.767  0.1932  2.4100  0.9580
 4051SOL     vw16204   0.663   3.427   2.803  0.0188  0.8680 -0.0218
 4052SOL     ow16205   2.433   5.667   1.760 -0.4892  0.1496  0.0398
 4052SOL     hw16206   2.524   5.666   1.787 -0.3382  0.5436 -0.4329
 4052SOL     hw16207   2.435   5.702   1.671 -1.0478 -0.3334 -0.1700
 4052SOL     vw16208   2.445   5.672   1.752 -0.5431  0.1378 -0.0503
 4053SOL     ow16209   3.565   5.059   2.851  0.2385 -0.6305  0.6382
 4053SOL     hw16210   3.566   5.127   2.918  0.5577 -0.0384  0.0479
 4053SOL     hw16211   3.656   5.030   2.845  1.0562  2.0337 -2.1950
 4053SOL     vw16212   3.577   5.064   2.859  0.3885 -0.2010  0.1866
 4054SOL     ow16213   3.936   0.484   0.618  0.7804  0.2879 -0.0415
 4054SOL     hw16214   3.902   0.490   0.707 -2.1658 -1.3703 -0.9161
 4054SOL     hw16215   3.951   0.391   0.604 -0.7660  0.2458 -1.8343
 4054SOL     vw16216   3.933   0.473   0.628  0.1875  0.0636 -0.3935
 4055SOL     ow16217   4.009   7.305   6.711  0.0204  0.5011  0.9363
 4055SOL     hw16218   4.081   7.337   6.765 -1.1085 -0.3575  3.0852
 4055SOL     hw16219   4.038   7.220   6.680  1.2610  1.5955 -1.1494
 4055SOL     vw16220   4.022   7.298   6.714  0.0355  0.5319  0.9449
 4056SOL     ow16221   0.627   7.190   2.192 -0.5981  0.4529  0.1022
 4056SOL     hw16222   0.646   7.243   2.115  1.2709 -0.3357 -0.0259
 4056SOL     hw16223   0.534   7.169   2.184 -0.3488  0.0054 -2.2054
 4056SOL     vw16224   0.617   7.194   2.181 -0.3186  0.2899 -0.2192
 4057SOL     ow16225   0.678   0.047   1.261 -0.4864 -0.0111  0.2791
 4057SOL     hw16226   0.632  -0.002   1.193 -0.2892  1.9570 -1.3713
 4057SOL     hw16227   0.711  -0.020   1.321 -2.3739 -1.7069 -0.4356
 4057SOL     vw16228   0.676   0.032   1.260 -0.7094  0.0248 -0.0329
 4058SOL     ow16229   0.400   5.408   3.194 -1.0063  0.1963  0.3198
 4058SOL     hw16230   0.316   5.372   3.222 -1.1211 -0.8160 -1.2033
 4058SOL     hw16231   0.381   5.453   3.112  0.1011 -1.0887 -0.6961
 4058SOL     vw16232   0.386   5.409   3.187 -0.8753 -0.1068 -0.0153
 4059SOL     ow16233   2.749   2.960   5.202 -0.1577  0.0863  0.7097
 4059SOL     hw16234   2.704   2.930   5.123  0.9708 -1.2111  0.5319
 4059SOL     hw16235   2.761   2.881   5.255  1.4327  0.4777  0.9888
 4059SOL     vw16236   2.744   2.946   5.199  0.2010 -0.0333  0.7231
 4060SOL     ow16237   1.440   7.253   1.566  0.2045  0.6384 -0.0368
 4060SOL     hw16238   1.402   7.278   1.651 -0.7728 -0.7895 -0.0130
 4060SOL     hw16239   1.501   7.183   1.587 -0.7088 -0.3575 -0.5635
 4060SOL     vw16240   1.443   7.247   1.580 -0.0449  0.3188 -0.1031
 4061SOL     ow16241   2.035   6.509   6.691  0.4958 -0.2443  0.1724
 4061SOL     hw16242   2.014   6.469   6.606 -0.3453  1.5695 -0.5146
 4061SOL     hw16243   1.958   6.490   6.745 -0.6520  1.6775 -0.6515
 4061SOL     vw16244   2.022   6.501   6.687  0.2334  0.2484 -0.0269
 4062SOL     ow16245   4.847   6.240   1.915  1.1482 -0.0363  0.3206
 4062SOL     hw16246   4.768   6.190   1.895  1.3059 -0.4111  0.6380
 4062SOL     hw16247   4.850   6.308   1.847  0.2799  0.2927  0.5950
 4062SOL     vw16248   4.837   6.243   1.904  1.0545 -0.0424  0.3988
 4063SOL     ow16249   1.657   2.497   2.955 -0.2306  0.5626  0.0319
 4063SOL     hw16250   1.680   2.570   3.012  3.3860  0.1212 -0.5914
 4063SOL     hw16251   1.671   2.419   3.010 -0.4136  0.2436 -0.3661
 4063SOL     vw16252   1.662   2.496   2.970  0.2224  0.4622 -0.1029
 4064SOL     ow16253   4.901   2.391   2.583  0.0313  0.3372 -0.4796
 4064SOL     hw16254   4.820   2.395   2.533 -0.8565  1.9473  0.9785
 4064SOL     hw16255   4.923   2.297   2.586 -2.2216 -0.2301 -0.2463
 4064SOL     vw16256   4.893   2.379   2.577 -0.3829  0.4748 -0.2563
 4065SOL     ow16257   3.858   0.301   4.977  0.3613 -0.4827  0.8316
 4065SOL     hw16258   3.904   0.281   5.058  2.9904  0.4137 -0.3226
 4065SOL     hw16259   3.825   0.390   4.989  1.2270 -0.1424  0.7447
 4065SOL     vw16260   3.860   0.310   4.989  0.8225 -0.3196  0.6678
 4066SOL     ow16261   3.612   0.544   1.801 -0.4105  0.2608  0.2899
 4066SOL     hw16262   3.602   0.585   1.887 -0.1314  2.4625 -0.6439
 4066SOL     hw16263   3.704   0.518   1.797 -1.0227 -2.3747  1.6319
 4066SOL     vw16264   3.623   0.546   1.812 -0.4544  0.2035  0.3438
 4067SOL     ow16265   6.416   4.951   6.419  0.6710  0.1204  0.4817
 4067SOL     hw16266   6.342   4.948   6.358  1.1423  1.5400 -0.2002
 4067SOL     hw16267   6.440   4.860   6.433 -0.2726 -0.2829 -0.4405
 4067SOL     vw16268   6.409   4.939   6.413  0.6089  0.2546  0.2701
 4068SOL     ow16269   2.531   2.470   4.987  0.3898 -0.1482 -0.0580
 4068SOL     hw16270   2.456   2.414   5.007 -0.4343  0.8012 -0.3791
 4068SOL     hw16271   2.596   2.411   4.951 -0.3148 -0.9625 -0.0338
 4068SOL     vw16272   2.529   2.455   4.984  0.1880 -0.1303 -0.0970
 4069SOL     ow16273   2.037   2.103   2.423 -0.2279  0.4557  0.3222
 4069SOL     hw16274   2.072   2.029   2.373  1.9307  0.1420  2.1113
 4069SOL     hw16275   2.112   2.161   2.435 -1.3508  1.8503  0.8345
 4069SOL     vw16276   2.052   2.101   2.418 -0.0912  0.5984  0.6258
 4070SOL     ow16277   6.459   6.451   0.737 -0.6673 -0.7423  0.8404
 4070SOL     hw16278   6.409   6.533   0.737  1.6414  0.7467  1.1099
 4070SOL     hw16279   6.393   6.383   0.750 -2.4356  1.2206  2.9730
 4070SOL     vw16280   6.444   6.453   0.738 -0.5960 -0.2871  1.1573
 4071SOL     ow16281   3.743   5.157   4.446  0.6860  0.5214  0.3268
 4071SOL     hw16282   3.700   5.210   4.514 -2.1369  1.6974 -2.1693
 4071SOL     hw16283   3.725   5.066   4.471  1.7153  0.7959  2.2851
 4071SOL     vw16284   3.735   5.152   4.459  0.4494  0.7131  0.2556
 4072SOL     ow16285   7.270   4.201   2.063 -0.1381  0.0596 -0.3345
 4072SOL     hw16286   7.200   4.267   2.061 -1.3795 -1.2051 -0.6204
 4072SOL     hw16287   7.266   4.160   1.976  1.0108  0.0103 -0.3703
 4072SOL     vw16288   7.260   4.204   2.051 -0.1504 -0.1140 -0.3769
 4073SOL     ow16289   0.163   3.193   4.988  0.2736  0.3565  0.2628
 4073SOL     hw16290   0.108   3.252   5.039  0.1025  1.1628 -0.8208
 4073SOL     hw16291   0.114   3.110   4.986 -0.0885  0.5567  0.7213
 4073SOL     vw16292   0.149   3.190   4.995  0.2032  0.4894  0.1800
 4074SOL     ow16293   4.317   1.257   5.990 -0.7761 -0.2061 -0.1037
 4074SOL     hw16294   4.226   1.288   5.992 -0.6649  0.2345  2.5867
 4074SOL     hw16295   4.318   1.182   6.049  0.3859 -0.9716 -1.0639
 4074SOL     vw16296   4.305   1.251   5.998 -0.6080 -0.2489  0.1247
 4075SOL     ow16297   2.797   6.060   2.783  0.3084 -0.6460 -0.5114
 4075SOL     hw16298   2.712   6.059   2.826  0.3790  0.4420 -0.3149
 4075SOL     hw16299   2.777   6.063   2.690  0.1373 -0.8456 -0.4804
 4075SOL     vw16300   2.783   6.060   2.776  0.2950 -0.5288 -0.4815
 4076SOL     ow16301   5.158   4.907   2.186 -0.4758  0.0899 -0.3229
 4076SOL     hw16302   5.167   4.815   2.210  0.3746  0.4817  0.9514
 4076SOL     hw16303   5.208   4.955   2.253 -0.9536  1.4814 -0.9174
 4076SOL     vw16304   5.166   4.902   2.198 -0.4265  0.3250 -0.2332
 4077SOL     ow16305   3.852   6.735   0.304 -0.3130  0.6397  0.1740
 4077SOL     hw16306   3.911   6.668   0.340 -0.0262  0.2446 -0.9844
 4077SOL     hw16307   3.872   6.814   0.355 -2.3985 -0.6634  3.3108
 4077SOL     vw16308   3.863   6.736   0.315 -0.5504  0.4156  0.4350
 4078SOL     ow16309   0.261   0.122   0.466  0.3935 -0.3061 -0.3867
 4078SOL     hw16310   0.297   0.080   0.388  0.5141 -0.8737 -0.0264
 4078SOL     hw16311   0.287   0.066   0.539 -1.9698 -1.2916 -0.1861
 4078SOL     vw16312   0.269   0.109   0.465  0.0976 -0.5110 -0.3127
 4079SOL     ow16313   5.375   7.496   6.241 -0.0421 -0.0157  0.2912
 4079SOL     hw16314   5.395   7.405   6.260 -0.1738  0.0581  0.8054
 4079SOL     hw16315   5.337   7.530   6.322 -0.4793  0.3565 -0.0610
 4079SOL     vw16316   5.373   7.489   6.254 -0.1173  0.0429  0.3123
 4080SOL     ow16317   0.574   6.666   4.952 -0.1016 -0.2157 -0.6396
 4080SOL     hw16318   0.593   6.681   5.045  0.0054  1.1952 -0.8772
 4080SOL     hw16319   0.478   6.658   4.949 -0.2123  0.8678 -0.5392
 4080SOL     vw16320   0.564   6.667   4.964 -0.1021  0.1135 -0.6578
 4081SOL     ow16321   1.416   4.820   3.848 -0.0358  0.7378 -0.5678
 4081SOL     hw16322   1.323   4.812   3.828 -0.3371  4.2885 -1.2862
 4081SOL     hw16323   1.421   4.814   3.944 -0.4678 -2.6193 -0.6620
 4081SOL     vw16324   1.405   4.818   3.858 -0.1325  0.7634 -0.6751
 4082SOL     ow16325   5.623   5.776   6.928 -0.1687  0.5452 -0.4111
 4082SOL     hw16326   5.563   5.785   7.002 -0.0210 -0.1804 -0.1889
 4082SOL     hw16327   5.634   5.681   6.918  0.6020  0.6550 -0.7156
 4082SOL     vw16328   5.617   5.765   6.937 -0.0472  0.4642 -0.4220
 4083SOL     ow16329   4.583   2.832   4.074  0.4814  0.1377  0.0177
 4083SOL     hw16330   4.560   2.804   3.985 -1.6047 -0.6698  0.7460
 4083SOL     hw16331   4.659   2.778   4.097 -0.5500 -1.5663 -0.3665
 4083SOL     vw16332   4.590   2.821   4.065  0.0699 -0.1937  0.0632
 4084SOL     ow16333   1.918   4.430   2.553 -0.3762  0.1152  0.2992
 4084SOL     hw16334   1.895   4.416   2.461  2.3431  0.7031 -0.5761
 4084SOL     hw16335   1.856   4.376   2.602 -1.8287 -0.3048 -1.8767
 4084SOL     vw16336   1.907   4.421   2.547 -0.2091  0.1373 -0.1032
 4085SOL     ow16337   0.674   1.641   2.800  0.1214  0.1153 -0.6599
 4085SOL     hw16338   0.631   1.688   2.728  1.4312  0.9494 -0.9200
 4085SOL     hw16339   0.603   1.594   2.843 -1.7530  3.9907  0.9708
 4085SOL     vw16340   0.659   1.641   2.796  0.0469  0.7367 -0.4790
 4086SOL     ow16341   6.418   3.254   4.611  0.2694 -0.3552 -0.1873
 4086SOL     hw16342   6.459   3.234   4.527 -0.2850  1.1978 -0.8658
 4086SOL     hw16343   6.330   3.217   4.604  0.9791 -2.3574  0.6890
 4086SOL     vw16344   6.412   3.246   4.599  0.2902 -0.4145 -0.1609
 4087SOL     ow16345   7.472   5.797   1.675 -0.6789  0.3091 -0.3938
 4087SOL     hw16346   7.413   5.868   1.701 -2.5090  0.0283 -3.2600
 4087SOL     hw16347   7.491   5.815   1.583  2.7845 -0.3591  0.0825
 4087SOL     vw16348   7.467   5.808   1.666 -0.4633  0.1841 -0.7091
 4088SOL     ow16349   4.941   1.809   1.333 -0.5367 -0.0311  0.0946
 4088SOL     hw16350   5.030   1.843   1.334 -0.5978  0.2002  1.8665
 4088SOL     hw16351   4.908   1.827   1.421 -1.9226 -1.1820 -0.1487
 4088SOL     vw16352   4.948   1.816   1.345 -0.7274 -0.1524  0.2962
 4089SOL     ow16353   5.047   2.089   5.756 -0.2001  0.0079  0.8155
 4089SOL     hw16354   5.001   2.024   5.703 -0.0691  0.8692 -0.3709
 4089SOL     hw16355   4.987   2.163   5.762  0.1074  0.2294  1.2161
 4089SOL     vw16356   5.033   2.090   5.750 -0.1423  0.1507  0.7119
 4090SOL     ow16357   6.686   2.908   6.691 -0.2394 -0.3170  0.1921
 4090SOL     hw16358   6.693   2.815   6.711 -1.7872 -0.7891 -1.1851
 4090SOL     hw16359   6.773   2.933   6.662  1.0944 -0.4728  3.6574
 4090SOL     vw16360   6.698   2.899   6.690 -0.2675 -0.3999  0.4675
 4091SOL     ow16361   0.869   6.269   3.944  0.6395  0.4032 -0.5651
 4091SOL     hw16362   0.884   6.336   4.011  1.1638 -0.1604 -0.1075
 4091SOL     hw16363   0.895   6.187   3.986 -1.1552 -0.2632 -0.6892
 4091SOL     vw16364   0.874   6.267   3.958  0.4719  0.2406 -0.5212
 4092SOL     ow16365   6.046   7.278   7.613  0.1395 -0.6752  0.7704
 4092SOL     hw16366   5.968   7.224   7.599  0.3096 -0.3542 -2.2404
 4092SOL     hw16367   6.031   7.356   7.559  2.6854 -0.8133 -0.2823
 4092SOL     vw16368   6.034   7.281   7.604  0.4978 -0.6511  0.2341
 4093SOL     ow16369   6.519   3.197   2.399  0.0550 -0.2250  0.0942
 4093SOL     hw16370   6.451   3.255   2.433 -0.7882 -0.1166 -1.6966
 4093SOL     hw16371   6.575   3.253   2.346  1.2635 -0.4260  1.0928
 4093SOL     vw16372   6.517   3.212   2.397  0.1028 -0.2372 -0.0103
 4094SOL     ow16373   4.819   7.327   0.120  0.6540 -0.7655  0.2713
 4094SOL     hw16374   4.750   7.260   0.119  0.1077 -0.2583  1.6370
 4094SOL     hw16375   4.808   7.374   0.037  1.0574 -2.3395 -0.7149
 4094SOL     vw16376   4.808   7.325   0.109  0.6351 -0.9062  0.3214
 4095SOL     ow16377   1.836   5.645   3.362  0.6191 -0.2951 -0.3649
 4095SOL     hw16378   1.884   5.571   3.398  0.5124 -0.5941 -0.8241
 4095SOL     hw16379   1.896   5.683   3.298  0.8591  0.3101  0.2116
 4095SOL     vw16380   1.850   5.640   3.358  0.6366 -0.2546 -0.3494
 4096SOL     ow16381   1.787   5.926   4.464 -0.4370 -0.1638  0.7660
 4096SOL     hw16382   1.844   5.967   4.399  0.2834  0.8238  1.9548
 4096SOL     hw16383   1.751   5.849   4.420  0.2790  0.2809 -0.6681
 4096SOL     vw16384   1.790   5.921   4.450 -0.2475  0.0255  0.7336
 4097SOL     ow16385   2.250   2.559   3.967  0.0965 -0.0094 -0.3686
 4097SOL     hw16386   2.268   2.476   4.009  0.2173 -0.6219 -1.5899
 4097SOL     hw16387   2.200   2.609   4.032 -0.7413 -1.3594  0.0655
 4097SOL     vw16388   2.246   2.555   3.981  0.0018 -0.2683 -0.4725
 4098SOL     ow16389   0.658   5.865   4.444  0.2569  0.2145  0.0749
 4098SOL     hw16390   0.723   5.817   4.496  0.5965  1.4341  0.8053
 4098SOL     hw16391   0.581   5.871   4.501 -0.4974 -1.1391 -0.7505
 4098SOL     vw16392   0.657   5.859   4.458  0.2022  0.1967  0.0625
 4099SOL     ow16393   1.945   6.752   3.101  0.0678 -1.0475 -0.2291
 4099SOL     hw16394   1.892   6.805   3.160 -1.8938  0.8420 -3.3799
 4099SOL     hw16395   1.902   6.667   3.100 -0.5809 -0.7332  0.1953
 4099SOL     vw16396   1.932   6.748   3.109 -0.2766 -0.7567 -0.5888
 4100SOL     ow16397   5.644   4.016   7.013 -0.0979 -0.3616  0.0147
 4100SOL     hw16398   5.600   3.946   7.061  1.5475 -0.5751  1.3140
 4100SOL     hw16399   5.606   4.097   7.048 -0.4486 -0.5625  0.1001
 4100SOL     vw16400   5.633   4.018   7.024  0.0727 -0.4165  0.1974
 4101SOL     ow16401   6.352   4.328   3.088  0.0531 -0.7075 -0.8053
 4101SOL     hw16402   6.284   4.396   3.092  0.7743 -0.0083  0.0118
 4101SOL     hw16403   6.344   4.292   3.000 -0.9844 -0.2308 -0.9280
 4101SOL     vw16404   6.342   4.333   3.077  0.0112 -0.5524 -0.7136
 4102SOL     ow16405   5.700   4.112   4.524  0.8357  0.2785 -0.2202
 4102SOL     hw16406   5.644   4.189   4.515  1.3261  0.5951 -0.6541
 4102SOL     hw16407   5.640   4.040   4.539  0.4224  0.8855  1.1406
 4102SOL     vw16408   5.685   4.113   4.525  0.8459  0.4003 -0.0978
 4103SOL     ow16409   5.453   4.202   3.481 -0.1425  0.3190  0.0705
 4103SOL     hw16410   5.447   4.168   3.570  2.0522 -1.4805 -0.3987
 4103SOL     hw16411   5.444   4.125   3.425  1.0446  1.0481 -1.1828
 4103SOL     vw16412   5.451   4.187   3.485  0.3033  0.1781 -0.1568
 4104SOL     ow16413   0.681   5.893   4.138 -0.3135  0.5934 -1.2680
 4104SOL     hw16414   0.736   5.820   4.110 -2.3806  0.2432 -5.0704
 4104SOL     hw16415   0.650   5.867   4.225  1.3987 -1.5633 -1.1962
 4104SOL     vw16416   0.684   5.880   4.145 -0.3604  0.2627 -1.7602
 4105SOL     ow16417   7.178   2.504   6.742  0.4230  0.6578 -0.3365
 4105SOL     hw16418   7.240   2.562   6.698  0.4512  0.5288 -0.4688
 4105SOL     hw16419   7.232   2.433   6.777  0.3723  0.6419 -0.2908
 4105SOL     vw16420   7.193   2.502   6.741  0.4201  0.6388 -0.3479
 4106SOL     ow16421   6.651   2.252   6.057 -0.4885 -0.2083  0.4274
 4106SOL     hw16422   6.692   2.243   5.971  1.2202  0.8626  1.0797
 4106SOL     hw16423   6.609   2.338   6.054  2.3504  1.3547  1.6689
 4106SOL     vw16424   6.651   2.262   6.045  0.1116  0.1391  0.6773
 4107SOL     ow16425   5.307   5.826   0.336 -0.4867  0.0188 -0.0207
 4107SOL     hw16426   5.359   5.789   0.407 -2.3766 -1.8752  0.4834
 4107SOL     hw16427   5.283   5.751   0.281 -1.6537  0.9784 -0.9015
 4107SOL     vw16428   5.311   5.811   0.338 -0.8900 -0.1047 -0.0704
 4108SOL     ow16429   4.446   1.245   0.621 -0.3095 -0.1038  0.6529
 4108SOL     hw16430   4.396   1.232   0.702 -2.0237  2.3035  0.1071
 4108SOL     hw16431   4.399   1.315   0.576  1.5472 -0.2498 -1.6704
 4108SOL     vw16432   4.433   1.252   0.626 -0.2904  0.1945  0.2743
 4109SOL     ow16433   1.658   3.363   5.893 -0.2800  0.2182 -0.8292
 4109SOL     hw16434   1.642   3.324   5.807  0.8058  0.7421 -1.2916
 4109SOL     hw16435   1.708   3.442   5.874 -1.6180  1.3495  0.1520
 4109SOL     vw16436   1.662   3.368   5.879 -0.3133  0.4365 -0.7608
 4110SOL     ow16437   0.528   0.609   4.589 -0.2044  0.1079  0.1634
 4110SOL     hw16438   0.607   0.660   4.574  0.5134 -0.9356  0.3312
 4110SOL     hw16439   0.522   0.602   4.685 -1.0318  0.9704  0.1975
 4110SOL     vw16440   0.537   0.615   4.600 -0.2189  0.0840  0.1900
 4111SOL     ow16441   6.062   5.840   0.643 -0.5252  0.4767 -0.5144
 4111SOL     hw16442   6.090   5.922   0.603  0.1394  0.3441 -0.3312
 4111SOL     hw16443   5.978   5.861   0.684 -0.2362  1.1402 -0.2349
 4111SOL     vw16444   6.055   5.854   0.643 -0.3994  0.5467 -0.4534
 4112SOL     ow16445   4.345   3.714   3.678 -0.1116 -0.3576  0.3349
 4112SOL     hw16446   4.363   3.715   3.772 -2.3861 -1.3505  0.8539
 4112SOL     hw16447   4.282   3.642   3.666 -1.0046  0.6725 -1.7072
 4112SOL     vw16448   4.339   3.704   3.689 -0.5293 -0.3527  0.1340
 4113SOL     ow16449   0.153   1.406   7.597  0.6017  0.3435  0.3260
 4113SOL     hw16450   0.238   1.384   7.559  1.4600 -0.2955  2.4253
 4113SOL     hw16451   0.154   1.502   7.605 -0.7119  0.8315 -3.4794
 4113SOL     vw16452   0.164   1.416   7.593  0.5416  0.3236  0.1009
 4114SOL     ow16453   1.407   0.697   3.653 -0.0332 -0.2179  0.3224
 4114SOL     hw16454   1.338   0.751   3.616 -0.9981  0.0099  2.3162
 4114SOL     hw16455   1.434   0.744   3.732  0.0651 -1.9604  1.3721
 4114SOL     vw16456   1.402   0.710   3.659 -0.1475 -0.4177  0.7240
 4115SOL     ow16457   3.756   0.780   0.436  0.7640 -1.1461 -0.7013
 4115SOL     hw16458   3.723   0.801   0.348 -0.2853  3.1674  0.4700
 4115SOL     hw16459   3.715   0.845   0.493  2.1867 -3.1114  2.8978
 4115SOL     vw16460   3.746   0.792   0.432  0.8132 -0.8363 -0.0719
 4116SOL     ow16461   4.308   6.330   4.581  0.2623  0.6541  0.7939
 4116SOL     hw16462   4.314   6.252   4.526  2.5858 -0.1781  2.1008
 4116SOL     hw16463   4.214   6.342   4.597 -0.3786  0.1298 -2.1283
 4116SOL     vw16464   4.296   6.322   4.576  0.4842  0.4754  0.5808
 4117SOL     ow16465   2.903   7.308   5.897 -0.2724 -0.0044 -0.1694
 4117SOL     hw16466   2.992   7.306   5.931  0.0722  1.3026 -0.9435
 4117SOL     hw16467   2.870   7.219   5.910  1.2101 -0.5568 -0.0738
 4117SOL     vw16468   2.910   7.296   5.903 -0.0314  0.0951 -0.2587
 4118SOL     ow16469   1.531   5.084   1.488  0.0469 -0.0388 -0.2968
 4118SOL     hw16470   1.566   5.158   1.537  1.0530 -1.3748  1.0929
 4118SOL     hw16471   1.601   5.062   1.426  0.4129 -0.7444  0.3414
 4118SOL     vw16472   1.545   5.090   1.486  0.2280 -0.3083 -0.0291
 4119SOL     ow16473   1.382   2.776   0.150 -0.1187 -0.8505 -0.0443
 4119SOL     hw16474   1.297   2.789   0.191  0.2475 -0.4660  0.6149
 4119SOL     hw16475   1.373   2.816   0.063  0.5685  2.9780  1.4536
 4119SOL     vw16476   1.370   2.783   0.144  0.0204 -0.2947  0.2403
 4120SOL     ow16477   0.969   2.662   6.174 -0.3171  0.0022 -0.7121
 4120SOL     hw16478   1.016   2.627   6.098  0.5615 -0.7622  0.1565
 4120SOL     hw16479   1.028   2.728   6.211 -1.2902  1.3066 -1.4096
 4120SOL     vw16480   0.983   2.666   6.169 -0.3296  0.0736 -0.6895
 4121SOL     ow16481   1.994   2.638   3.003  0.3412  0.0547  0.1169
 4121SOL     hw16482   1.928   2.708   3.001 -0.9026 -1.0443  0.6566
 4121SOL     hw16483   2.041   2.651   3.086  0.6774  0.7340 -0.1782
 4121SOL     vw16484   1.991   2.649   3.014  0.2214 -0.0007  0.1491
 4122SOL     ow16485   5.730   3.264   2.366 -0.1904 -0.2516  0.0440
 4122SOL     hw16486   5.680   3.186   2.390  2.1065 -1.4150  1.4140
 4122SOL     hw16487   5.822   3.234   2.364  0.8288  2.5150  1.1595
 4122SOL     vw16488   5.736   3.250   2.369  0.2470 -0.0401  0.3721
 4123SOL     ow16489   5.292   4.984   6.350  0.0672 -0.5068 -0.2019
 4123SOL     hw16490   5.301   4.933   6.431  0.1085 -0.5400 -0.2268
 4123SOL     hw16491   5.316   5.073   6.375  0.9053 -0.6784 -0.3624
 4123SOL     vw16492   5.297   4.989   6.364  0.1833 -0.5341 -0.2265
 4124SOL     ow16493   4.335   3.017   2.429  0.3116 -0.2832 -0.3604
 4124SOL     hw16494   4.263   3.023   2.492  1.3837 -0.3505  0.9260
 4124SOL     hw16495   4.377   3.103   2.432 -1.0564  0.5574 -2.8418
 4124SOL     vw16496   4.331   3.029   2.438  0.2725 -0.1812 -0.5180
 4125SOL     ow16497   5.916   3.626   0.557  0.3906 -0.2296 -0.5343
 4125SOL     hw16498   5.935   3.680   0.633  0.1325 -1.0482  0.1351
 4125SOL     hw16499   5.847   3.566   0.586  0.5712 -0.8306 -1.2792
 4125SOL     vw16500   5.910   3.625   0.570  0.3805 -0.4169 -0.5442
 4126SOL     ow16501   1.236   3.557   1.291  0.5128 -0.0427  0.0737
 4126SOL     hw16502   1.166   3.595   1.239  1.9998  0.1320 -1.9543
 4126SOL     hw16503   1.307   3.621   1.285  1.7698 -1.3964 -0.2877
 4126SOL     vw16504   1.236   3.571   1.283  0.8748 -0.1984 -0.2415
 4127SOL     ow16505   0.789   0.466   1.293 -0.4857  0.3234  0.0549
 4127SOL     hw16506   0.794   0.542   1.235  3.5840  1.5429  1.6826
 4127SOL     hw16507   0.857   0.407   1.262 -2.0708 -1.7062  0.2208
 4127SOL     vw16508   0.798   0.468   1.282 -0.1578  0.2165  0.2915
 4128SOL     ow16509   3.569   6.122   7.441 -1.4854 -0.5556 -0.3065
 4128SOL     hw16510   3.617   6.139   7.360 -0.8571  3.4292  0.6964
 4128SOL     hw16511   3.482   6.097   7.412 -1.9461  2.8232 -2.4171
 4128SOL     vw16512   3.564   6.121   7.427 -1.4632  0.4163 -0.4525
 4129SOL     ow16513   6.613   3.397   5.669  0.3658  0.3496 -0.0183
 4129SOL     hw16514   6.536   3.418   5.617 -1.2760 -0.2116  2.0107
 4129SOL     hw16515   6.612   3.301   5.676  1.0699  0.3571  0.2773
 4129SOL     vw16516   6.603   3.387   5.663  0.2420  0.2764  0.2885
 4130SOL     ow16517   4.617   3.207   4.527  0.3349  0.3955  0.4356
 4130SOL     hw16518   4.682   3.151   4.570 -1.3361 -0.5880  1.8017
 4130SOL     hw16519   4.534   3.162   4.540 -0.6531  1.6390 -1.2232
 4130SOL     vw16520   4.614   3.194   4.534 -0.0160  0.4297  0.3970
 4131SOL     ow16521   5.441   4.295   4.727  0.3735  0.0522 -0.4749
 4131SOL     hw16522   5.370   4.232   4.722 -0.3078  0.6900  0.7436
 4131SOL     hw16523   5.398   4.379   4.740  1.2710  0.7784 -1.9010
 4131SOL     vw16524   5.426   4.298   4.728  0.4017  0.2322 -0.5026
 4132SOL     ow16525   7.325   6.720   6.588  0.3514  0.2401  0.3511
 4132SOL     hw16526   7.257   6.671   6.542 -0.0283  1.3280 -0.2778
 4132SOL     hw16527   7.406   6.675   6.564 -0.1223 -1.1368  1.1957
 4132SOL     vw16528   7.327   6.707   6.579  0.2387  0.2019  0.3798
 4133SOL     ow16529   0.643   4.606   5.876  0.4082 -0.4273 -0.0414
 4133SOL     hw16530   0.609   4.552   5.804  1.6709  0.7414 -1.5789
 4133SOL     hw16531   0.733   4.577   5.888  0.3842 -0.2163  0.6869
 4133SOL     vw16532   0.650   4.595   5.868  0.5717 -0.2453 -0.1481
 4134SOL     ow16533   1.901   0.302   3.573  0.3189  0.5998  0.1837
 4134SOL     hw16534   1.840   0.237   3.539  0.7336  0.8203 -1.0753
 4134SOL     hw16535   1.857   0.341   3.648  0.4671 -1.7932  1.5853
 4134SOL     vw16536   1.887   0.299   3.578  0.3932  0.3132  0.2025
 4135SOL     ow16537   4.692   3.372   4.752  0.3266 -0.0626  0.5344
 4135SOL     hw16538   4.668   3.464   4.737 -0.6482 -0.0120  2.1206
 4135SOL     hw16539   4.665   3.326   4.673  0.9568  1.0195 -0.3437
 4135SOL     vw16540   4.686   3.378   4.740  0.2813  0.0868  0.6278
 4136SOL     ow16541   0.851   0.789   1.893 -0.7190 -0.1231  0.3315
 4136SOL     hw16542   0.874   0.715   1.948 -1.1982 -1.2782 -0.9560
 4136SOL     hw16543   0.832   0.860   1.954  0.0598 -0.9589  1.5859
 4136SOL     vw16544   0.852   0.789   1.908 -0.6795 -0.3857  0.3272
 4137SOL     ow16545   5.362   6.055   5.508 -0.2531  0.0097  0.5151
 4137SOL     hw16546   5.323   6.117   5.447  0.5633  0.9793  0.9555
 4137SOL     hw16547   5.293   6.039   5.573 -0.7516 -0.2060 -0.0600
 4137SOL     vw16548   5.348   6.061   5.509 -0.2110  0.1090  0.4971
 4138SOL     ow16549   5.185   5.410   0.939 -0.1763  0.3434  0.5824
 4138SOL     hw16550   5.215   5.320   0.951 -0.8158 -0.0320 -0.4880
 4138SOL     hw16551   5.266   5.462   0.938  0.4568 -0.5707 -1.5860
 4138SOL     vw16552   5.200   5.405   0.940 -0.1769  0.1733  0.1551
 4139SOL     ow16553   7.376   1.951   1.328 -0.0848 -0.4274  0.7295
 4139SOL     hw16554   7.282   1.962   1.336  0.0716  1.6767  0.0369
 4139SOL     hw16555   7.405   2.020   1.269  1.7215 -1.9522 -0.3076
 4139SOL     vw16556   7.368   1.961   1.322  0.1740 -0.3510  0.5012
 4140SOL     ow16557   3.075   1.341   4.358  0.0341  0.6431  0.3477
 4140SOL     hw16558   3.074   1.436   4.344  0.3113  0.8581  1.6446
 4140SOL     hw16559   3.103   1.331   4.449 -0.1718 -0.6808  0.2790
 4140SOL     vw16560   3.079   1.352   4.368  0.0435  0.4969  0.5097
 4141SOL     ow16561   7.141   3.255   1.710  0.2772 -0.3701 -0.0755
 4141SOL     hw16562   7.194   3.323   1.670  1.4744 -0.3345  1.4704
 4141SOL     hw16563   7.094   3.299   1.781  1.3418 -1.1723  1.1721
 4141SOL     vw16564   7.142   3.270   1.714  0.5755 -0.4712  0.2931
 4142SOL     ow16565   3.324   5.518   6.567  1.3738 -0.0415  0.1320
 4142SOL     hw16566   3.420   5.515   6.566  1.3775  0.2252 -0.5105
 4142SOL     hw16567   3.297   5.450   6.505  1.0659 -2.4492  2.7228
 4142SOL     vw16568   3.333   5.509   6.559  1.3337 -0.3240  0.3891
 4143SOL     ow16569   6.441   3.196   4.890 -0.2518  0.0597  0.8407
 4143SOL     hw16570   6.453   3.224   4.799  1.9215  1.6705  1.5328
 4143SOL     hw16571   6.484   3.110   4.895 -0.8212 -0.2633  0.2411
 4143SOL     vw16572   6.448   3.188   4.879 -0.0401  0.2295  0.8533
 4144SOL     ow16573   5.208   5.613   3.291  0.0666 -0.3863 -0.0250
 4144SOL     hw16574   5.294   5.602   3.333 -0.9264  2.0642  3.1281
 4144SOL     hw16575   5.227   5.654   3.207  2.0489 -1.9841 -0.4184
 4144SOL     vw16576   5.222   5.617   3.286  0.1969 -0.2737  0.3392
 4145SOL     ow16577   1.895   2.307   5.752 -0.6293 -0.4907 -0.2701
 4145SOL     hw16578   1.986   2.335   5.748  0.3370 -3.4841 -3.2521
 4145SOL     hw16579   1.845   2.389   5.759  2.1517  1.3236 -0.0924
 4145SOL     vw16580   1.900   2.321   5.753 -0.1349 -0.6464 -0.6397
 4146SOL     ow16581   4.707   6.002   0.195 -0.9813 -0.2548  0.1220
 4146SOL     hw16582   4.647   5.935   0.162 -3.3220  0.9388  1.6172
 4146SOL     hw16583   4.721   6.061   0.121  2.7090 -3.1821 -1.8579
 4146SOL     vw16584   4.701   6.001   0.181 -0.8032 -0.4833  0.0581
 4147SOL     ow16585   2.435   5.504   2.345  0.0339 -0.5879 -0.2722
 4147SOL     hw16586   2.424   5.568   2.275  0.5285 -0.9493 -0.6911
 4147SOL     hw16587   2.483   5.432   2.304 -0.6369 -1.2954  0.1520
 4147SOL     vw16588   2.440   5.503   2.330  0.0106 -0.7288 -0.2716
 4148SOL     ow16589   6.034   5.069   4.698 -0.1635  0.0592 -0.6245
 4148SOL     hw16590   5.991   5.027   4.774  0.5463  0.6187  0.0991
 4148SOL     hw16591   6.092   5.001   4.663  3.1107  1.1206  2.2155
 4148SOL     vw16592   6.036   5.054   4.704  0.3622  0.2732 -0.1543
 4149SOL     ow16593   6.478   4.453   3.310 -0.1236  0.5420  0.3656
 4149SOL     hw16594   6.571   4.432   3.315  0.0700  0.8951 -1.2944
 4149SOL     hw16595   6.444   4.401   3.238 -0.7865  1.8367 -0.3028
 4149SOL     vw16596   6.485   4.444   3.301 -0.1855  0.7594  0.0584
 4150SOL     ow16597   3.369   5.731   3.468 -0.8533 -0.3245 -0.6391
 4150SOL     hw16598   3.392   5.816   3.504 -0.9755 -1.4064  2.2773
 4150SOL     hw16599   3.438   5.672   3.500 -2.0166 -1.7142 -0.5949
 4150SOL     vw16600   3.381   5.734   3.477 -1.0228 -0.6509 -0.2486
 4151SOL     ow16601   3.088   4.632   2.769  0.1397 -0.3418  0.2196
 4151SOL     hw16602   3.046   4.681   2.699 -0.5063 -0.4117  0.5458
 4151SOL     hw16603   3.129   4.558   2.726 -1.7497 -1.3783  0.0767
 4151SOL     vw16604   3.088   4.629   2.754 -0.1948 -0.4878  0.2437
 4152SOL     ow16605   6.140   3.686   7.006 -0.0314  0.0181  0.1516
 4152SOL     hw16606   6.064   3.730   7.044 -0.2624 -0.1788 -0.0747
 4152SOL     hw16607   6.209   3.698   7.070 -0.1556  0.5047  0.2022
 4152SOL     vw16608   6.139   3.694   7.019 -0.0784  0.0565  0.1285
 4153SOL     ow16609   2.792   0.109   4.880  0.3613  0.5857  0.3212
 4153SOL     hw16610   2.833   0.045   4.938  1.7365  1.0978 -0.0435
 4153SOL     hw16611   2.863   0.141   4.825 -0.4828  1.7359 -0.1525
 4153SOL     vw16612   2.807   0.105   4.880  0.4314  0.8050  0.2108
 4154SOL     ow16613   6.454   2.451   2.050  0.3831  0.0975 -0.1381
 4154SOL     hw16614   6.437   2.532   2.001 -0.5834 -0.4779 -0.7988
 4154SOL     hw16615   6.471   2.480   2.140  0.9770  1.0916 -0.5620
 4154SOL     vw16616   6.454   2.466   2.055  0.3340  0.1528 -0.2813
 4155SOL     ow16617   0.427   0.461   0.932 -0.2834 -0.5780 -0.0594
 4155SOL     hw16618   0.415   0.550   0.900 -1.6090 -0.5053  0.5629
 4155SOL     hw16619   0.443   0.471   1.026  1.2751 -0.9147 -0.2662
 4155SOL     vw16620   0.428   0.474   0.940 -0.2526 -0.6128 -0.0046
 4156SOL     ow16621   2.006   5.789   3.938  0.2491  0.5420  0.9053
 4156SOL     hw16622   1.914   5.766   3.923  1.5273 -3.8500 -1.7999
 4156SOL     hw16623   2.017   5.780   4.033 -2.1251  1.5426  1.3432
 4156SOL     vw16624   1.995   5.785   3.949  0.1046  0.0944  0.6061
 4157SOL     ow16625   0.487   7.095   5.838  0.3639  0.5374 -0.6174
 4157SOL     hw16626   0.535   7.165   5.882  1.8694  0.6646 -2.3741
 4157SOL     hw16627   0.554   7.044   5.793 -0.7730 -1.5968 -0.0662
 4157SOL     vw16628   0.502   7.098   5.838  0.4126  0.2725 -0.7763
 4158SOL     ow16629   4.721   5.055   0.175  0.4188 -0.4886  0.1184
 4158SOL     hw16630   4.667   4.993   0.224  0.2705  1.3439  2.4887
 4158SOL     hw16631   4.666   5.133   0.167  1.7328  0.4785  0.1989
 4158SOL     vw16632   4.706   5.057   0.181  0.5722 -0.1190  0.4418
 4159SOL     ow16633   2.310   6.765   0.051 -0.0677  0.2678  0.8972
 4159SOL     hw16634   2.369   6.743   0.123  1.0161 -0.4700 -0.1702
 4159SOL     hw16635   2.344   6.849   0.018 -0.7258  0.7391  1.3968
 4159SOL     vw16636   2.323   6.773   0.056 -0.0116  0.2327  0.8223
 4160SOL     ow16637   1.254   0.047   0.782 -0.2870  0.0178 -0.0406
 4160SOL     hw16638   1.162   0.054   0.806 -0.1847 -0.6767  0.5994
 4160SOL     hw16639   1.253   0.008   0.695 -0.5830 -0.5613  0.2195
 4160SOL     vw16640   1.242   0.043   0.774 -0.3126 -0.1502  0.0781
 4161SOL     ow16641   2.503   0.795   4.914  0.0645 -0.9304  0.0779
 4161SOL     hw16642   2.442   0.724   4.896 -0.0157 -0.5425 -1.2660
 4161SOL     hw16643   2.530   0.827   4.828 -0.8927  1.4991  0.5996
 4161SOL     vw16644   2.499   0.790   4.901 -0.0722 -0.5586 -0.0305
 4162SOL     ow16645   2.768   3.454   4.434 -0.4476  0.4370 -0.1752
 4162SOL     hw16646   2.690   3.415   4.475 -0.1816  1.0047  0.9028
 4162SOL     hw16647   2.818   3.379   4.402 -1.5008  0.0681 -1.0181
 4162SOL     vw16648   2.764   3.439   4.435 -0.5515  0.4632 -0.1442
 4163SOL     ow16649   1.297   6.992   1.847  0.1559 -0.3962 -0.0502
 4163SOL     hw16650   1.284   6.931   1.919 -2.8792 -1.2308 -1.1616
 4163SOL     hw16651   1.377   6.962   1.804 -0.5706 -2.8566  0.1879
 4163SOL     vw16652   1.306   6.980   1.850 -0.3404 -0.8309 -0.1653
 4164SOL     ow16653   2.112   6.394   0.188  0.0108 -0.1326 -0.4314
 4164SOL     hw16654   2.173   6.325   0.164  0.3194  0.9380 -2.9950
 4164SOL     hw16655   2.033   6.348   0.216  0.7147 -1.5003 -0.6304
 4164SOL     vw16656   2.110   6.379   0.189  0.1445 -0.1719 -0.7959
 4165SOL     ow16657   1.168   3.444   4.478 -0.1390 -0.0572 -1.2760
 4165SOL     hw16658   1.087   3.492   4.459  0.2681  1.5096  0.6217
 4165SOL     hw16659   1.139   3.353   4.490 -2.0435  0.7851  1.4348
 4165SOL     vw16660   1.153   3.438   4.477 -0.3365  0.2608 -0.6680
 4166SOL     ow16661   4.214   2.744   2.230  0.1906 -0.0020 -0.1614
 4166SOL     hw16662   4.288   2.792   2.267 -0.9698  0.3560  1.8614
 4166SOL     hw16663   4.227   2.654   2.260 -0.5132  0.1973  0.7931
 4166SOL     vw16664   4.225   2.738   2.239 -0.0556  0.0715  0.2314
 4167SOL     ow16665   3.310   2.725   1.205 -0.5709  0.6950  0.6609
 4167SOL     hw16666   3.351   2.792   1.150 -0.3690 -0.5133 -0.7255
 4167SOL     hw16667   3.323   2.755   1.295 -0.4068  2.4471  0.0770
 4167SOL     vw16668   3.317   2.738   1.210 -0.5226  0.7665  0.4009
 4168SOL     ow16669   6.572   5.101   1.362 -1.1296 -0.3278 -0.6328
 4168SOL     hw16670   6.626   5.025   1.340 -0.5109 -0.6440  1.6149
 4168SOL     hw16671   6.482   5.072   1.351 -0.9277 -0.1219 -3.4480
 4168SOL     vw16672   6.567   5.088   1.358 -1.0214 -0.3421 -0.7077
 4169SOL     ow16673   7.315   1.209   4.118  0.3693  0.1782  0.3343
 4169SOL     hw16674   7.341   1.294   4.152  2.3255 -0.3259  0.1858
 4169SOL     hw16675   7.353   1.145   4.178 -1.1048 -0.6361  0.4768
 4169SOL     vw16676   7.323   1.212   4.131  0.4332  0.0043  0.3331
 4170SOL     ow16677   7.571   5.376   4.125 -0.4210 -0.4348  0.1040
 4170SOL     hw16678   7.483   5.340   4.138  0.0596 -1.8442 -0.3666
 4170SOL     hw16679   7.605   5.330   4.049  0.7273  0.1003  0.2752
 4170SOL     vw16680   7.563   5.365   4.117 -0.2062 -0.5503  0.0646
 4171SOL     ow16681   1.780   0.391   3.250  0.4603 -0.2611 -0.2337
 4171SOL     hw16682   1.832   0.390   3.331  0.3253 -0.1849 -0.1464
 4171SOL     hw16683   1.772   0.298   3.226 -0.3982 -0.3765  0.4173
 4171SOL     vw16684   1.786   0.378   3.258  0.3292 -0.2663 -0.1363
 4172SOL     ow16685   0.562   4.297   0.825 -0.1136 -1.0910 -0.5123
 4172SOL     hw16686   0.593   4.212   0.794  0.3057 -1.7045  1.4936
 4172SOL     hw16687   0.586   4.300   0.917 -1.4819  0.5954 -0.1599
 4172SOL     vw16688   0.570   4.286   0.833 -0.2388 -0.9496 -0.2012
 4173SOL     ow16689   0.857   5.735   4.623  0.4296 -0.9110  0.3401
 4173SOL     hw16690   0.908   5.757   4.701  0.0888 -1.5295  0.7398
 4173SOL     hw16691   0.922   5.730   4.553  0.7730 -0.6188  0.6322
 4173SOL     vw16692   0.872   5.737   4.624  0.4300 -0.9542  0.4313
 4174SOL     ow16693   4.529   2.214   3.354  0.5595  0.1106  0.4257
 4174SOL     hw16694   4.518   2.124   3.325  0.1797  0.7303 -1.5569
 4174SOL     hw16695   4.624   2.227   3.358  0.6186 -0.2329  0.1883
 4174SOL     vw16696   4.540   2.204   3.350  0.5171  0.1470  0.1327
 4175SOL     ow16697   5.003   6.658   6.284  0.8003 -0.2373 -0.5979
 4175SOL     hw16698   5.038   6.581   6.240 -0.3379 -1.1378  0.0303
 4175SOL     hw16699   4.955   6.624   6.359  2.1450  1.2349  1.0084
 4175SOL     vw16700   5.001   6.643   6.288  0.8276 -0.1619 -0.3028
 4176SOL     ow16701   3.909   0.779   3.440 -0.4051 -0.3614 -0.4161
 4176SOL     hw16702   3.845   0.844   3.470  1.7465  0.3690  3.1450
 4176SOL     hw16703   3.876   0.696   3.476 -0.6228 -0.4122 -0.7304
 4176SOL     vw16704   3.896   0.777   3.449 -0.1498 -0.2717  0.0123
 4177SOL     ow16705   3.128   7.018   5.471  0.5648  0.4854 -0.4131
 4177SOL     hw16706   3.179   7.099   5.472  1.4566 -0.0530 -0.9465
 4177SOL     hw16707   3.134   6.987   5.381 -0.7915  0.4471 -0.5078
 4177SOL     vw16708   3.136   7.024   5.459  0.5035  0.4094 -0.4959
 4178SOL     ow16709   5.643   1.352   2.396  0.2599  0.2470 -0.2723
 4178SOL     hw16710   5.584   1.420   2.427  1.3972  1.1247  0.0397
 4178SOL     hw16711   5.615   1.273   2.443 -1.7146  0.2116 -1.3916
 4178SOL     vw16712   5.632   1.351   2.407  0.1493  0.3581 -0.3788
 4179SOL     ow16713   4.574   0.094   0.935  0.2864 -0.1378  0.2265
 4179SOL     hw16714   4.648   0.141   0.975  1.3963 -0.0953 -1.7245
 4179SOL     hw16715   4.498   0.148   0.954  1.0263  0.6897  0.9049
 4179SOL     vw16716   4.574   0.108   0.943  0.5305 -0.0230  0.0586
 4180SOL     ow16717   2.246   6.247   1.856 -0.2800 -0.7927  0.1454
 4180SOL     hw16718   2.202   6.281   1.778  1.1419 -0.5108 -0.5655
 4180SOL     hw16719   2.193   6.172   1.883  0.0372 -1.8628 -2.0000
 4180SOL     vw16720   2.233   6.242   1.849 -0.0505 -0.8965 -0.2314
 4181SOL     ow16721   5.200   5.738   4.880 -0.0827 -0.0344 -0.0195
 4181SOL     hw16722   5.211   5.770   4.790  1.1043 -1.9864 -0.6335
 4181SOL     hw16723   5.285   5.753   4.921 -0.3080 -0.0802  0.4622
 4181SOL     vw16724   5.213   5.744   4.873  0.0441 -0.2980 -0.0370
 4182SOL     ow16725   1.500   6.730   0.482 -0.7291  0.1798  0.1685
 4182SOL     hw16726   1.537   6.812   0.515 -1.2491 -0.1983  1.7882
 4182SOL     hw16727   1.407   6.736   0.501 -0.7475 -0.8561  0.4802
 4182SOL     vw16728   1.493   6.741   0.489 -0.8001 -0.0072  0.4233
 4183SOL     ow16729   3.102   2.050   4.018 -0.6068 -0.5629 -0.1085
 4183SOL     hw16730   3.089   2.144   4.010  0.4663 -0.2875  0.9951
 4183SOL     hw16731   3.022   2.011   3.984 -1.5723  0.7874  0.5249
 4183SOL     vw16732   3.090   2.057   4.013 -0.5927 -0.3483  0.1204
 4184SOL     ow16733   1.458   3.088   1.784 -0.1617  0.2316 -0.3803
 4184SOL     hw16734   1.459   3.133   1.700  0.2059 -1.6414 -1.4235
 4184SOL     hw16735   1.547   3.053   1.793 -0.5699 -0.6979  0.1477
 4184SOL     vw16736   1.470   3.089   1.774 -0.1670 -0.1382 -0.4482
 4185SOL     ow16737   5.357   6.992   5.823  0.3123 -0.1798 -0.3685
 4185SOL     hw16738   5.369   6.951   5.737  0.8716  0.0388 -0.3965
 4185SOL     hw16739   5.297   6.932   5.869 -0.3914 -0.0422 -1.0738
 4185SOL     vw16740   5.350   6.978   5.818  0.2933 -0.1328 -0.4652
 4186SOL     ow16741   2.631   1.878   1.409  0.2321 -0.2142  0.3521
 4186SOL     hw16742   2.706   1.933   1.388  0.3809  0.4227  2.3328
 4186SOL     hw16743   2.661   1.825   1.484 -1.2473 -0.0223  1.1066
 4186SOL     vw16744   2.645   1.878   1.416  0.0564 -0.1048  0.7130
 4187SOL     ow16745   1.205   3.439   4.827  0.4959 -0.2586  0.2296
 4187SOL     hw16746   1.234   3.503   4.761  0.1522 -2.4102 -2.1544
 4187SOL     hw16747   1.286   3.414   4.872  0.7916  0.9788  0.4469
 4187SOL     vw16748   1.220   3.444   4.824  0.4895 -0.3793 -0.0563
 4188SOL     ow16749   1.788   0.114   5.187  0.3698 -0.4844  1.2970
 4188SOL     hw16750   1.772   0.020   5.190  1.1229 -0.6352  0.7928
 4188SOL     hw16751   1.772   0.138   5.095 -0.0388 -0.0757  1.4710
 4188SOL     vw16752   1.784   0.105   5.175  0.4152 -0.4504  1.2534
 4189SOL     ow16753   3.298   5.574   6.877  0.6676  0.7760  0.4024
 4189SOL     hw16754   3.348   5.495   6.895  1.2164  0.8122 -0.8807
 4189SOL     hw16755   3.299   5.623   6.960 -1.1071 -1.2822  1.7649
 4189SOL     vw16756   3.304   5.570   6.891  0.5058  0.5093  0.4127
 4190SOL     ow16757   7.300   0.497   5.115 -0.0551 -0.8993  0.1299
 4190SOL     hw16758   7.343   0.541   5.188  1.0215 -3.0051  0.8631
 4190SOL     hw16759   7.357   0.513   5.040  0.4296 -1.1703  0.4338
 4190SOL     vw16760   7.313   0.505   5.115  0.1509 -1.2128  0.2668
 4191SOL     ow16761   3.220   6.706   5.053 -0.2613  0.4345 -0.0872
 4191SOL     hw16762   3.275   6.759   5.111  1.3317  0.9254 -1.9735
 4191SOL     hw16763   3.152   6.671   5.111  1.3664  0.7087  2.1237
 4191SOL     vw16764   3.218   6.708   5.068  0.1636  0.5352 -0.0443
 4192SOL     ow16765   4.632   6.468   6.701 -0.4105  0.1133 -0.2539
 4192SOL     hw16766   4.687   6.497   6.628 -0.7583  0.6371 -0.3100
 4192SOL     hw16767   4.665   6.380   6.722 -0.2288  0.0073 -0.9598
 4192SOL     vw16768   4.644   6.460   6.694 -0.4320  0.1681 -0.3545
 4193SOL     ow16769   7.281   5.896   1.991  0.1071  0.6047 -0.7422
 4193SOL     hw16770   7.280   5.800   1.999  1.4989  0.5592 -0.8360
 4193SOL     hw16771   7.244   5.927   2.074 -0.1344 -0.0140 -0.6084
 4193SOL     vw16772   7.276   5.887   2.003  0.2592  0.5171 -0.7368
 4194SOL     ow16773   6.577   3.553   6.490 -0.0868 -0.3990  0.4751
 4194SOL     hw16774   6.651   3.611   6.509  0.2213 -0.4691 -0.4632
 4194SOL     hw16775   6.556   3.570   6.398 -1.5833 -0.0013  0.8746
 4194SOL     vw16776   6.584   3.563   6.480 -0.2437 -0.3556  0.4041
 4195SOL     ow16777   4.712   0.227   6.398  0.2025  0.3032 -0.6212
 4195SOL     hw16778   4.722   0.204   6.305 -1.7389 -1.2134 -0.5059
 4195SOL     hw16779   4.621   0.256   6.406  0.8779  2.3906  0.4796
 4195SOL     vw16780   4.701   0.228   6.386  0.0355  0.3785 -0.4606
 4196SOL     ow16781   7.332   2.037   4.060  0.5561  0.2947 -0.5733
 4196SOL     hw16782   7.328   2.131   4.080 -0.1772 -0.1082  1.4798
 4196SOL     hw16783   7.363   1.997   4.142 -1.5582 -1.4690 -0.5420
 4196SOL     vw16784   7.335   2.044   4.074  0.1805  0.0088 -0.2983
 4197SOL     ow16785   0.318   0.023   4.263  0.1862  0.1599  0.4507
 4197SOL     hw16786   0.240   0.076   4.282  0.3808  0.2959  0.8867
 4197SOL     hw16787   0.390   0.086   4.261  0.3763 -0.0457  0.6857
 4197SOL     vw16788   0.317   0.038   4.265  0.2370  0.1507  0.5391
 4198SOL     ow16789   0.102   7.162   4.776  1.0012  0.1352 -1.0215
 4198SOL     hw16790   0.072   7.096   4.839  0.0112  0.0071 -1.6097
 4198SOL     hw16791   0.186   7.192   4.812  0.7592 -0.3749  0.0310
 4198SOL     vw16792   0.109   7.157   4.789  0.8386  0.0508 -0.9601
 4199SOL     ow16793   0.534   5.447   0.973  0.2982  0.3158  0.6967
 4199SOL     hw16794   0.552   5.505   0.899  0.1912  0.5328  0.8390
 4199SOL     hw16795   0.455   5.484   1.013  0.3875  0.2297  0.9501
 4199SOL     vw16796   0.526   5.459   0.968  0.2959  0.3333  0.7490
 4200SOL     ow16797   5.907   5.199   4.464 -0.0415  0.1215 -0.0108
 4200SOL     hw16798   5.952   5.178   4.546  0.0839  3.5301  0.9492
 4200SOL     hw16799   5.914   5.294   4.456 -1.8369  0.1486 -2.9805
 4200SOL     vw16800   5.914   5.209   4.473 -0.2615  0.5748 -0.2761
 4201SOL     ow16801   7.261   6.669   0.222  0.0270 -0.0473 -0.0932
 4201SOL     hw16802   7.204   6.715   0.283  0.5309 -0.8303  1.0009
 4201SOL     hw16803   7.263   6.725   0.144 -0.4567  1.0847  0.6825
 4201SOL     vw16804   7.254   6.682   0.220  0.0298 -0.0012  0.1535
 4202SOL     ow16805   0.954   2.866   2.979 -0.8441 -0.2043  0.7047
 4202SOL     hw16806   0.965   2.917   3.058  0.9041  1.0478 -0.2822
 4202SOL     hw16807   0.859   2.854   2.971 -1.0645 -0.2829  2.8791
 4202SOL     vw16808   0.943   2.871   2.988 -0.6426 -0.0495  0.8614
 4203SOL     ow16809   2.665   6.815   5.986 -0.6160 -0.3248  1.0799
 4203SOL     hw16810   2.752   6.776   5.975  0.0487  1.5425 -1.1741
 4203SOL     hw16811   2.605   6.741   5.990  0.6109 -1.6811 -2.4007
 4203SOL     vw16812   2.669   6.800   5.985 -0.3663 -0.2573  0.3228
 4204SOL     ow16813   6.588   1.121   6.231  0.8874  0.9295 -0.8127
 4204SOL     hw16814   6.502   1.083   6.252  0.8823  0.1324 -2.1159
 4204SOL     hw16815   6.612   1.171   6.309 -0.0550 -0.1044  0.1903
 4204SOL     vw16816   6.579   1.123   6.244  0.7622  0.6878 -0.8523
 4205SOL     ow16817   0.606   4.939   0.810 -0.5947  0.0153  0.5218
 4205SOL     hw16818   0.654   4.856   0.800  1.5926  1.1154  1.2621
 4205SOL     hw16819   0.564   4.953   0.725  0.9446 -0.7120 -0.3960
 4205SOL     vw16820   0.607   4.930   0.798 -0.1030  0.0644  0.4984
 4206SOL     ow16821   0.426   5.693   3.681  0.4376  0.0228  0.3904
 4206SOL     hw16822   0.403   5.770   3.629  0.5245  1.3707  2.2366
 4206SOL     hw16823   0.418   5.723   3.772  4.1715 -0.9652  1.2209
 4206SOL     vw16824   0.422   5.707   3.686  0.9417  0.0703  0.7435
 4207SOL     ow16825   6.695   6.838   2.062 -0.3403 -0.1637 -0.2282
 4207SOL     hw16826   6.720   6.860   2.152 -2.2024 -0.4091  0.3973
 4207SOL     hw16827   6.744   6.899   2.008  1.3488 -0.4492  0.8848
 4207SOL     vw16828   6.704   6.849   2.067 -0.3629 -0.2337  0.0012
 4208SOL     ow16829   2.198   6.441   2.941  0.0384 -0.0910  0.2191
 4208SOL     hw16830   2.113   6.447   2.896  1.6710  1.4837 -2.9519
 4208SOL     hw16831   2.205   6.349   2.966 -1.1301 -1.0908 -2.6904
 4208SOL     vw16832   2.187   6.430   2.939  0.0997 -0.0148 -0.5833
 4209SOL     ow16833   1.956   3.586   0.886  0.4657 -0.0956  0.0655
 4209SOL     hw16834   2.003   3.606   0.805  0.6510  1.8380  0.5938
 4209SOL     hw16835   1.875   3.544   0.858  0.0583  1.4640 -1.1968
 4209SOL     vw16836   1.952   3.583   0.872  0.4364  0.3654 -0.0313
 4210SOL     ow16837   7.544   7.270   2.243  0.2289 -0.3012  0.9437
 4210SOL     hw16838   7.544   7.359   2.278  0.9310 -0.5276  1.5459
 4210SOL     hw16839   7.636   7.248   2.233  0.0478 -0.5237 -0.3670
 4210SOL     vw16840   7.556   7.279   2.246  0.2975 -0.3605  0.8502
 4211SOL     ow16841   5.471   4.842   5.636 -0.2278  0.2768  0.6473
 4211SOL     hw16842   5.527   4.777   5.593 -0.6162 -0.7428  1.6289
 4211SOL     hw16843   5.527   4.882   5.703 -0.5407 -0.4609  1.3627
 4211SOL     vw16844   5.486   4.839   5.639 -0.3202  0.0451  0.8717
 4212SOL     ow16845   6.568   3.033   7.594  0.5615  0.3055 -0.5123
 4212SOL     hw16846   6.591   3.050   7.503 -0.7067  1.8241 -0.5933
 4212SOL     hw16847   6.582   3.117   7.638  0.0261 -0.0984  0.4510
 4212SOL     vw16848   6.573   3.047   7.588  0.3235  0.4525 -0.3958
 4213SOL     ow16849   5.675   4.386   6.769  0.1566  0.6701 -0.0665
 4213SOL     hw16850   5.612   4.409   6.838  0.3514  0.7542  0.0864
 4213SOL     hw16851   5.760   4.392   6.812  0.2522  0.2911 -0.1988
 4213SOL     vw16852   5.678   4.390   6.784  0.1950  0.6316 -0.0639
 4214SOL     ow16853   0.886   6.217   7.472 -0.3059  0.1113 -0.2613
 4214SOL     hw16854   0.843   6.289   7.518 -2.8099 -1.6325  0.3616
 4214SOL     hw16855   0.867   6.140   7.527  2.6038 -1.0115 -0.6724
 4214SOL     vw16856   0.878   6.216   7.486 -0.2524 -0.2668 -0.2337
 4215SOL     ow16857   3.255   1.338   4.076  0.3512 -0.1495 -0.0773
 4215SOL     hw16858   3.286   1.283   4.004  0.5781  1.0254 -0.9140
 4215SOL     hw16859   3.333   1.355   4.128  0.3942 -0.1432 -0.1440
 4215SOL     vw16860   3.269   1.333   4.073  0.3870  0.0064 -0.1965
 4216SOL     ow16861   2.302   4.292   5.090 -0.2603  0.0341  0.3770
 4216SOL     hw16862   2.319   4.198   5.085 -0.3987 -0.1187  2.1417
 4216SOL     hw16863   2.326   4.316   5.179  0.9990  1.9509 -0.4096
 4216SOL     vw16864   2.307   4.283   5.101 -0.1124  0.2668  0.5062
 4217SOL     ow16865   5.811   6.069   1.784 -0.1586 -0.1870 -0.5287
 4217SOL     hw16866   5.867   6.038   1.713  2.6076 -0.5889  1.6326
 4217SOL     hw16867   5.818   6.164   1.780 -0.2621 -0.1958 -0.9741
 4217SOL     vw16868   5.819   6.077   1.774  0.1924 -0.2413 -0.3024
 4218SOL     ow16869   1.839   4.024   4.549 -0.7390 -0.2201  0.1618
 4218SOL     hw16870   1.761   4.057   4.593 -0.2028 -2.3677  3.0072
 4218SOL     hw16871   1.822   3.931   4.535 -0.4550  0.0980 -3.5416
 4218SOL     vw16872   1.827   4.016   4.553 -0.6307 -0.4613  0.0484
 4219SOL     ow16873   0.153   3.607   4.131 -0.9563 -0.6554  0.0408
 4219SOL     hw16874   0.248   3.599   4.124 -0.7065  1.2150  0.6262
 4219SOL     hw16875   0.124   3.631   4.043 -0.9080 -1.2894 -0.1524
 4219SOL     vw16876   0.162   3.609   4.119 -0.9170 -0.4922  0.0925
 4220SOL     ow16877   7.469   3.812   7.179 -0.0295 -0.3458  0.5970
 4220SOL     hw16878   7.385   3.779   7.148  0.3471 -0.1115 -0.7446
 4220SOL     hw16879   7.448   3.892   7.227 -0.5267  0.0634 -0.2838
 4220SOL     vw16880   7.455   3.818   7.181 -0.0455 -0.2609  0.3037
 4221SOL     ow16881   5.109   2.401   1.024 -0.0924 -0.0624  0.7443
 4221SOL     hw16882   5.129   2.362   0.939  1.3367  0.3622  0.8655
 4221SOL     hw16883   5.105   2.496   1.007 -2.2207 -0.1104  0.7083
 4221SOL     vw16884   5.111   2.409   1.011 -0.1845 -0.0128  0.7555
 4222SOL     ow16885   2.854   3.156   0.043 -0.1323 -0.2611  0.1104
 4222SOL     hw16886   2.901   3.108   0.112  2.3217  1.5239 -0.1895
 4222SOL     hw16887   2.887   3.118  -0.039  0.8222  0.9485 -0.0995
 4222SOL     vw16888   2.865   3.144   0.042  0.3175  0.1340  0.0431
 4223SOL     ow16889   6.445   5.182   3.003 -0.5539  0.0605  0.9167
 4223SOL     hw16890   6.487   5.154   2.921 -0.3939 -0.8543  1.2992
 4223SOL     hw16891   6.491   5.261   3.028 -0.7919  0.5137 -0.0293
 4223SOL     vw16892   6.456   5.188   2.995 -0.5643 -0.0007  0.8425
 4224SOL     ow16893   2.649   0.775   5.887  1.1548  0.3095 -0.1775
 4224SOL     hw16894   2.627   0.768   5.794  4.2526 -0.2214 -0.9938
 4224SOL     hw16895   2.625   0.864   5.911  2.5358  1.3104 -2.2220
 4224SOL     vw16896   2.643   0.785   5.878  1.7458  0.3715 -0.5548
 4225SOL     ow16897   3.992   5.874   4.108  0.2083  0.5008 -0.1319
 4225SOL     hw16898   3.927   5.905   4.045  0.7227  0.2082 -0.8117
 4225SOL     hw16899   4.074   5.916   4.082  1.3175 -2.5775 -2.1027
 4225SOL     vw16900   3.994   5.884   4.096  0.4226  0.0560 -0.4816
 4226SOL     ow16901   7.052   1.022   6.371 -0.4023  0.2617  0.1601
 4226SOL     hw16902   7.049   1.037   6.466  0.3242  1.1084  0.0616
 4226SOL     hw16903   7.128   1.072   6.341  0.1977 -1.1024 -0.6816
 4226SOL     vw16904   7.062   1.031   6.380 -0.2275  0.1935  0.0360
 4227SOL     ow16905   6.401   5.337   1.638 -0.3113  0.0644 -0.0570
 4227SOL     hw16906   6.390   5.264   1.699  1.0703 -1.6291 -1.6675
 4227SOL     hw16907   6.313   5.354   1.604 -0.8010 -0.1828  1.0617
 4227SOL     vw16908   6.388   5.329   1.641 -0.1938 -0.1915 -0.1218
 4228SOL     ow16909   7.374   0.009   1.134 -0.2180 -0.3839  0.0599
 4228SOL     hw16910   7.392   0.059   1.054 -0.4453 -0.1678  0.1412
 4228SOL     hw16911   7.454  -0.042   1.149 -0.6929 -1.5262 -1.0973
 4228SOL     vw16912   7.387   0.009   1.126 -0.3104 -0.5061 -0.0821
 4229SOL     ow16913   5.257   2.580   2.944 -0.6124 -0.0997  0.3219
 4229SOL     hw16914   5.277   2.501   2.894  1.1582  0.8115 -0.4936
 4229SOL     hw16915   5.180   2.618   2.901 -0.1200 -0.2149 -0.6786
 4229SOL     vw16916   5.249   2.575   2.932 -0.3138  0.0052  0.0821
 4230SOL     ow16917   3.460   2.860   2.309  0.1871  0.3538 -0.4463
 4230SOL     hw16918   3.480   2.786   2.367 -3.3110 -1.0429 -0.8058
 4230SOL     hw16919   3.422   2.926   2.366 -0.3123  0.2563 -0.6573
 4230SOL     vw16920   3.458   2.859   2.324 -0.3402  0.1566 -0.5215
 4231SOL     ow16921   6.311   5.120   3.809 -0.7038  0.4668 -1.0564
 4231SOL     hw16922   6.267   5.202   3.827 -2.1111 -0.4409 -0.2024
 4231SOL     hw16923   6.380   5.114   3.876 -1.7565  0.1352  0.0207
 4231SOL     vw16924   6.315   5.130   3.820 -1.0283  0.3035 -0.8017
 4232SOL     ow16925   5.241   3.658   2.000 -0.2856 -0.0619  0.1548
 4232SOL     hw16926   5.289   3.655   2.083  1.3462 -0.0273 -0.7331
 4232SOL     hw16927   5.281   3.731   1.953  0.5846 -1.6208 -1.6476
 4232SOL     vw16928   5.253   3.667   2.005  0.0443 -0.2632 -0.2002
 4233SOL     ow16929   6.302   6.660   0.749 -0.2695  0.5325 -0.0271
 4233SOL     hw16930   6.208   6.658   0.768 -0.4309  0.2746 -0.8050
 4233SOL     hw16931   6.318   6.750   0.718 -0.9439 -0.2669 -3.0273
 4233SOL     vw16932   6.292   6.672   0.748 -0.3798  0.3929 -0.5256
 4234SOL     ow16933   2.814   2.810   3.173  0.1940 -0.1308  0.1678
 4234SOL     hw16934   2.853   2.738   3.222  0.4649 -1.5283 -1.9694
 4234SOL     hw16935   2.759   2.767   3.107 -1.9336  1.7011  0.6151
 4234SOL     vw16936   2.812   2.795   3.171 -0.0509 -0.0736 -0.0553
 4235SOL     ow16937   7.353   1.286   1.074  0.5291  0.1884 -0.5996
 4235SOL     hw16938   7.399   1.257   0.995 -1.7774 -0.1807 -1.8969
 4235SOL     hw16939   7.348   1.207   1.128  2.0780  0.4314 -0.0461
 4235SOL     vw16940   7.358   1.272   1.071  0.4292  0.1718 -0.6978
 4236SOL     ow16941   3.938   7.388   2.140 -0.1257 -0.5931 -0.2139
 4236SOL     hw16942   3.940   7.381   2.235 -2.1942  1.5750  0.0962
 4236SOL     hw16943   3.966   7.303   2.108 -1.0706 -1.9543  2.3544
 4236SOL     vw16944   3.942   7.376   2.148 -0.5232 -0.4864  0.1659
 4237SOL     ow16945   2.473   6.163   1.703 -0.1152  0.0640  0.2062
 4237SOL     hw16946   2.423   6.230   1.656 -0.5561 -0.7948 -0.5895
 4237SOL     hw16947   2.431   6.081   1.678  1.0387 -0.5909  0.3717
 4237SOL     vw16948   2.461   6.161   1.693 -0.0212 -0.1359  0.1231
 4238SOL     ow16949   4.243   4.840   7.090  0.8182  0.5497  0.0787
 4238SOL     hw16950   4.236   4.756   7.043  1.7306  1.0545 -1.0134
 4238SOL     hw16951   4.169   4.839   7.151 -0.2681 -0.2674 -1.1846
 4238SOL     vw16952   4.232   4.828   7.092  0.7954  0.5085 -0.2317
 4239SOL     ow16953   5.300   0.165   1.364  0.0972 -0.0328  0.2807
 4239SOL     hw16954   5.243   0.226   1.410 -0.3231 -1.9145  2.4496
 4239SOL     hw16955   5.283   0.080   1.405  1.1994 -1.5053 -2.0659
 4239SOL     vw16956   5.290   0.162   1.375  0.1872 -0.4754  0.2573
 4240SOL     ow16957   3.477   6.627   4.425 -0.8432 -0.2595 -0.5950
 4240SOL     hw16958   3.562   6.621   4.381 -1.2089 -0.2701 -1.2987
 4240SOL     hw16959   3.471   6.545   4.475  1.3217  1.3950  2.7240
 4240SOL     vw16960   3.487   6.615   4.426 -0.6058 -0.0429 -0.2499
 4241SOL     ow16961   1.215   2.498   0.844 -0.4043 -0.0076  0.7189
 4241SOL     hw16962   1.127   2.463   0.830 -0.2994  0.2587 -0.7584
 4241SOL     hw16963   1.263   2.426   0.885 -0.5283 -1.2328 -1.1567
 4241SOL     vw16964   1.209   2.484   0.847 -0.4068 -0.1342  0.2765
 4242SOL     ow16965   3.969   4.838   5.947 -0.2929 -0.2032 -0.2304
 4242SOL     hw16966   3.911   4.821   5.872  0.1921  0.5038 -0.7803
 4242SOL     hw16967   4.048   4.788   5.928  0.9363  2.1160 -1.6011
 4242SOL     vw16968   3.972   4.829   5.935 -0.0670  0.1962 -0.4838
 4243SOL     ow16969   4.823   0.772   4.697  0.3373 -0.2090  0.4157
 4243SOL     hw16970   4.870   0.846   4.735  1.1889 -0.2776 -0.4870
 4243SOL     hw16971   4.736   0.806   4.676  0.7003  0.5082  0.0802
 4243SOL     vw16972   4.818   0.786   4.699  0.4973 -0.1234  0.2522
 4244SOL     ow16973   3.771   3.654   7.291 -0.5009  0.1944  0.2135
 4244SOL     hw16974   3.691   3.697   7.323 -1.8190 -0.0655 -2.4794
 4244SOL     hw16975   3.837   3.724   7.291 -1.7035  1.3977 -0.8719
 4244SOL     vw16976   3.769   3.669   7.295 -0.8335  0.3189 -0.2849
 4245SOL     ow16977   4.763   6.415   5.990 -0.1888  0.4469 -0.6631
 4245SOL     hw16978   4.668   6.402   5.999  0.2405 -2.3596  0.7151
 4245SOL     hw16979   4.772   6.510   5.981 -2.9419  1.2108  2.3139
 4245SOL     vw16980   4.751   6.426   5.990 -0.4954  0.1774 -0.0885
 4246SOL     ow16981   6.864   0.838   4.138  0.3029 -0.5325 -0.2369
 4246SOL     hw16982   6.782   0.884   4.158  0.2990 -0.1684 -1.0695
 4246SOL     hw16983   6.896   0.809   4.224 -0.5658 -0.4590  0.1197
 4246SOL     vw16984   6.858   0.840   4.152  0.1881 -0.4748 -0.2997
 4247SOL     ow16985   0.709   5.035   1.252 -0.8914  0.1928  0.9065
 4247SOL     hw16986   0.726   5.021   1.345 -1.5887  2.6462  1.4611
 4247SOL     hw16987   0.722   5.129   1.239  0.7105 -0.2963 -1.8262
 4247SOL     vw16988   0.713   5.046   1.262 -0.7720  0.4520  0.6191
 4248SOL     ow16989   3.451   2.478   6.974  0.1872  0.2419  0.3705
 4248SOL     hw16990   3.472   2.438   7.059 -0.6028 -1.3288 -0.1483
 4248SOL     hw16991   3.358   2.496   6.978  0.2743  0.7775  0.0755
 4248SOL     vw16992   3.442   2.475   6.986  0.0944  0.1054  0.2630
 4249SOL     ow16993   7.519   7.253   4.051  0.2973 -0.6342 -0.6729
 4249SOL     hw16994   7.546   7.292   3.968 -0.1446 -1.5062 -1.2398
 4249SOL     hw16995   7.462   7.180   4.026 -1.4571  0.2689  0.4255
 4249SOL     vw16996   7.515   7.248   4.037  0.0074 -0.6299 -0.6027
 4250SOL     ow16997   1.069   0.714   7.338 -0.1965  0.3840 -0.1049
 4250SOL     hw16998   1.107   0.646   7.394 -0.7963  0.6383  0.6230
 4250SOL     hw16999   1.139   0.779   7.330  0.5659 -0.5328 -1.2198
 4250SOL     vw17000   1.084   0.713   7.345 -0.1750  0.2966 -0.1559
 4251SOL     ow17001   3.652   6.087   2.077 -0.2735 -0.4728 -0.8610
 4251SOL     hw17002   3.678   6.076   1.985  0.2002 -0.5058 -0.7233
 4251SOL     hw17003   3.690   6.171   2.103 -2.6085  0.8795 -1.4569
 4251SOL     vw17004   3.660   6.097   2.068 -0.5190 -0.2990 -0.9215
 4252SOL     ow17005   1.485   2.931   5.418  0.0191 -0.3044  0.0332
 4252SOL     hw17006   1.389   2.939   5.418  0.1198  1.4344  0.7649
 4252SOL     hw17007   1.513   2.984   5.343  0.5403  3.1699  2.4029
 4252SOL     vw17008   1.476   2.939   5.408  0.1011  0.3834  0.4423
 4253SOL     ow17009   6.785   6.968   4.848  0.4623  0.7157  0.2219
 4253SOL     hw17010   6.745   6.882   4.833 -1.2190  1.5383 -0.1654
 4253SOL     hw17011   6.838   6.956   4.927 -0.9547 -0.2878  1.0654
 4253SOL     vw17012   6.787   6.955   4.856  0.0536  0.6919  0.2820
 4254SOL     ow17013   5.382   3.628   2.243 -0.1407 -0.0938  0.2003
 4254SOL     hw17014   5.433   3.701   2.210  1.0557 -1.0723 -0.1957
 4254SOL     hw17015   5.439   3.552   2.232 -1.8485 -1.3125 -0.6991
 4254SOL     vw17016   5.396   3.627   2.237 -0.2084 -0.3837  0.0294
 4255SOL     ow17017   7.326   6.592   6.826 -0.0852  0.0414 -0.3303
 4255SOL     hw17018   7.385   6.518   6.808  0.3516  0.2983  0.0260
 4255SOL     hw17019   7.329   6.645   6.747 -0.4778 -0.3733 -0.6261
 4255SOL     vw17020   7.334   6.589   6.813 -0.0794  0.0207 -0.3221
 4256SOL     ow17021   5.619   0.701   6.128  0.7263  0.1153  0.1989
 4256SOL     hw17022   5.713   0.695   6.142  0.3955 -2.1260  2.0201
 4256SOL     hw17023   5.586   0.614   6.149 -1.8647  1.0922  0.5514
 4256SOL     vw17024   5.627   0.689   6.133  0.3407 -0.0515  0.4857
 4257SOL     ow17025   3.164   0.497   5.132  1.0886  0.1632  0.0552
 4257SOL     hw17026   3.184   0.404   5.136 -0.0456 -0.1915 -1.5612
 4257SOL     hw17027   3.153   0.523   5.223 -0.7379 -1.7975  0.4754
 4257SOL     vw17028   3.165   0.488   5.144  0.6979 -0.1423 -0.1025
 4258SOL     ow17029   3.857   2.839   6.041 -0.2582  0.2364  0.0383
 4258SOL     hw17030   3.915   2.786   5.987  0.9387  0.9763  0.5626
 4258SOL     hw17031   3.815   2.777   6.101 -1.0505 -0.4858 -1.2315
 4258SOL     vw17032   3.859   2.824   6.042 -0.2049  0.2388 -0.0598
 4259SOL     ow17033   2.446   0.631   3.128 -1.1671 -0.1597 -0.4683
 4259SOL     hw17034   2.402   0.668   3.051  0.0495 -1.0297 -1.6491
 4259SOL     hw17035   2.397   0.551   3.148 -0.8508 -0.5044 -1.0386
 4259SOL     vw17036   2.434   0.625   3.120 -0.9649 -0.3200 -0.6994
 4260SOL     ow17037   5.413   7.119   2.573 -0.6239  0.2830 -0.8568
 4260SOL     hw17038   5.394   7.122   2.667  0.8473 -1.8365 -0.4165
 4260SOL     hw17039   5.499   7.161   2.565  0.2337 -1.3985 -0.8909
 4260SOL     vw17040   5.422   7.125   2.584 -0.3169 -0.2189 -0.8031
 4261SOL     ow17041   3.637   1.640   5.019 -0.0749  0.4669 -0.2147
 4261SOL     hw17042   3.694   1.639   4.942  1.9644 -0.5471  1.2414
 4261SOL     hw17043   3.676   1.704   5.078 -0.5999 -0.0280  0.6942
 4261SOL     vw17044   3.649   1.648   5.016  0.1249  0.2679  0.0973
 4262SOL     ow17045   6.661   4.579   0.022 -0.2929  0.2929  0.0601
 4262SOL     hw17046   6.671   4.653  -0.038 -1.4111  1.0483  0.7652
 4262SOL     hw17047   6.660   4.619   0.109  0.3960 -0.6937  0.5382
 4262SOL     vw17048   6.662   4.594   0.025 -0.3495  0.2625  0.2162
 4263SOL     ow17049   2.160   3.181   4.717  0.0786  0.1010  0.1568
 4263SOL     hw17050   2.169   3.161   4.811 -0.6114 -0.8778  0.0267
 4263SOL     hw17051   2.103   3.258   4.714 -3.2199 -2.1491  0.4459
 4263SOL     vw17052   2.154   3.189   4.729 -0.4476 -0.3248  0.1776
 4264SOL     ow17053   3.047   5.715   7.018 -0.1422 -0.1413 -0.0465
 4264SOL     hw17054   3.063   5.750   6.930  0.4003 -0.2513  0.0005
 4264SOL     hw17055   3.081   5.782   7.077 -0.3555 -0.1408  0.0756
 4264SOL     vw17056   3.054   5.728   7.014 -0.0987 -0.1557 -0.0241
 4265SOL     ow17057   1.410   1.211   4.555 -0.6214  0.5900  0.6608
 4265SOL     hw17058   1.366   1.213   4.470 -1.3151 -1.4307  0.9363
 4265SOL     hw17059   1.480   1.276   4.546 -1.1529  0.9867 -1.1762
 4265SOL     vw17060   1.414   1.220   4.542 -0.7831  0.3757  0.4547
 4266SOL     ow17061   0.378   3.543   7.136  0.5363 -0.0881 -0.2403
 4266SOL     hw17062   0.420   3.540   7.050  1.3823 -2.2552  0.1916
 4266SOL     hw17063   0.429   3.482   7.190 -1.1357 -0.2213  1.2699
 4266SOL     vw17064   0.391   3.534   7.132  0.4273 -0.3917  0.0157
 4267SOL     ow17065   0.655   6.103   4.815  0.8731 -0.3473 -0.0281
 4267SOL     hw17066   0.697   6.108   4.729  0.4990  1.4099 -0.1609
 4267SOL     hw17067   0.663   6.012   4.841  3.5737 -0.3532 -0.6236
 4267SOL     vw17068   0.661   6.092   4.807  1.1801 -0.1161 -0.1240
 4268SOL     ow17069   3.264   5.287   6.459  0.6978 -0.2955 -0.3293
 4268SOL     hw17070   3.329   5.219   6.442  0.9628 -0.6995  1.9407
 4268SOL     hw17071   3.245   5.278   6.553 -0.9521  1.2935 -0.4699
 4268SOL     vw17072   3.270   5.277   6.469  0.5151 -0.1388 -0.0484
 4269SOL     ow17073   5.797   5.716   5.366  0.0588  0.0678  0.0838
 4269SOL     hw17074   5.761   5.642   5.415  0.3704  0.0458  0.2810
 4269SOL     hw17075   5.846   5.766   5.431 -0.0670  0.3960 -0.0694
 4269SOL     vw17076   5.799   5.713   5.381  0.0834  0.1082  0.0899
 4270SOL     ow17077   6.400   0.214   3.073  0.1352 -0.1799 -0.0474
 4270SOL     hw17078   6.417   0.175   3.158 -0.5811 -2.3956 -0.8542
 4270SOL     hw17079   6.486   0.221   3.032  0.4740  0.8327  0.7795
 4270SOL     vw17080   6.413   0.210   3.079  0.0854 -0.3386 -0.0447
 4271SOL     ow17081   2.005   5.436   4.727  0.1170 -0.1615 -0.1552
 4271SOL     hw17082   1.990   5.530   4.742 -2.9132 -0.4526 -0.7623
 4271SOL     hw17083   1.985   5.395   4.811  0.0009 -0.4005 -0.3008
 4271SOL     vw17084   2.001   5.443   4.741 -0.2981 -0.2313 -0.2544
 4272SOL     ow17085   1.307   3.908   5.204 -0.2007  0.7423 -0.6088
 4272SOL     hw17086   1.391   3.935   5.167 -0.5424  1.3332 -0.9656
 4272SOL     hw17087   1.331   3.856   5.281  0.5168 -0.4827 -1.6217
 4272SOL     vw17088   1.321   3.905   5.209 -0.1512  0.6586 -0.7896
 4273SOL     ow17089   2.231   2.308   1.360  0.3918  0.0339 -0.4508
 4273SOL     hw17090   2.239   2.401   1.382 -0.3767 -0.1213  0.5893
 4273SOL     hw17091   2.197   2.307   1.271 -0.0174  0.7624 -0.3123
 4273SOL     vw17092   2.227   2.320   1.351  0.2363  0.1096 -0.2954
 4274SOL     ow17093   2.776   4.050   5.128  0.4993  0.3418  0.3795
 4274SOL     hw17094   2.738   3.969   5.093 -0.9236  0.8317  0.7131
 4274SOL     hw17095   2.728   4.120   5.083  3.1616  1.0901 -1.5140
 4274SOL     vw17096   2.764   4.048   5.118  0.6629  0.5052  0.1736
 4275SOL     ow17097   3.684   1.796   0.071 -0.0823  0.1644  0.3734
 4275SOL     hw17098   3.602   1.794   0.021 -0.1068  1.0989  0.3574
 4275SOL     hw17099   3.725   1.712   0.052 -0.6295  0.0372 -0.3114
 4275SOL     vw17100   3.678   1.785   0.062 -0.1577  0.2708  0.2809
 4276SOL     ow17101   2.132   4.521   0.691  0.5338 -0.4036 -0.8502
 4276SOL     hw17102   2.102   4.594   0.745  0.5394 -1.2956  0.4089
 4276SOL     hw17103   2.052   4.482   0.657  0.4619 -0.6048 -0.4486
 4276SOL     vw17104   2.117   4.525   0.694  0.5250 -0.5476 -0.6311
 4277SOL     ow17105   0.882   7.496   0.940  0.4154  0.8430  0.5153
 4277SOL     hw17106   0.909   7.432   0.874 -0.4266  1.8824 -0.8993
 4277SOL     hw17107   0.812   7.546   0.897 -0.4444  1.2900  2.3615
 4277SOL     vw17108   0.876   7.494   0.925  0.1909  1.0390  0.5722
 4278SOL     ow17109   7.478   2.197   0.383 -0.2062 -0.3197 -0.1925
 4278SOL     hw17110   7.552   2.196   0.443 -0.1041  0.8289 -0.2750
 4278SOL     hw17111   7.401   2.211   0.439 -0.4126 -1.8586 -0.0704
 4278SOL     vw17112   7.477   2.199   0.398 -0.2201 -0.3713 -0.1872
 4279SOL     ow17113   1.532   0.197   0.850  0.5080 -0.5841 -0.0920
 4279SOL     hw17114   1.607   0.212   0.793  1.2548  1.2940  1.2774
 4279SOL     hw17115   1.501   0.285   0.873 -1.2284 -1.2962  0.5268
 4279SOL     vw17116   1.538   0.211   0.846  0.3775 -0.4303  0.1704
 4280SOL     ow17117   3.693   7.352   6.563 -0.5328  0.3087  0.3139
 4280SOL     hw17118   3.602   7.367   6.539 -0.3130  0.6170 -0.3488
 4280SOL     hw17119   3.744   7.387   6.490  0.0586 -3.3358 -1.2135
 4280SOL     vw17120   3.688   7.358   6.551 -0.4258 -0.1316  0.0250
 4281SOL     ow17121   2.284   5.307   2.595  0.1396  0.0060  0.2676
 4281SOL     hw17122   2.340   5.379   2.623 -0.1533 -0.0249  0.9614
 4281SOL     hw17123   2.197   5.346   2.586  0.3769  0.2014 -1.4593
 4281SOL     vw17124   2.280   5.321   2.597  0.1324  0.0277  0.1314
 4282SOL     ow17125   5.385   2.242   4.596  0.0928  0.3111  0.9998
 4282SOL     hw17126   5.427   2.201   4.672 -0.4173 -1.3272  0.4490
 4282SOL     hw17127   5.349   2.168   4.547  2.3462  1.0853 -2.0738
 4282SOL     vw17128   5.386   2.227   4.600  0.3231  0.1971  0.5214
 4283SOL     ow17129   6.067   7.491   4.656 -0.3308  0.3380  0.3424
 4283SOL     hw17130   6.054   7.416   4.715 -3.4324 -0.5463 -1.2083
 4283SOL     hw17131   6.068   7.567   4.714  0.7278 -0.7341  1.8082
 4283SOL     vw17132   6.065   7.491   4.671 -0.6003  0.0799  0.3312
 4284SOL     ow17133   0.780   0.026   4.595  0.2185  0.5087  0.2076
 4284SOL     hw17134   0.771  -0.049   4.655  0.6196  0.1915 -0.1270
 4284SOL     hw17135   0.859   0.070   4.623  0.5038  0.2598 -0.1922
 4284SOL     vw17136   0.789   0.022   4.607  0.3091  0.4340  0.1106
 4285SOL     ow17137   2.914   4.977   1.414 -0.1537  0.3374 -0.2933
 4285SOL     hw17138   2.959   4.957   1.496  0.3891 -0.3626 -0.7529
 4285SOL     hw17139   2.864   5.057   1.433  0.8124  0.8000  0.4032
 4285SOL     vw17140   2.913   4.985   1.427  0.0454  0.3061 -0.2620
 4286SOL     ow17141   1.546   1.143   4.274 -0.1114  0.2711 -0.5145
 4286SOL     hw17142   1.615   1.205   4.248  0.4382 -0.2689 -0.3738
 4286SOL     hw17143   1.580   1.058   4.247 -1.0627  0.0711 -1.1112
 4286SOL     vw17144   1.560   1.140   4.267 -0.1644  0.1734 -0.5746
 4287SOL     ow17145   6.233   4.009   3.545  0.1769 -0.8233  0.7787
 4287SOL     hw17146   6.181   4.090   3.544  2.8459  1.1633 -3.0535
 4287SOL     hw17147   6.200   3.958   3.472  1.2183 -1.1916  0.5430
 4287SOL     vw17148   6.222   4.013   3.536  0.6664 -0.6099  0.2420
 4288SOL     ow17149   1.451   2.079   4.320 -0.2836 -0.0311  0.1614
 4288SOL     hw17150   1.374   2.034   4.357  0.5095 -0.7785  0.9582
 4288SOL     hw17151   1.414   2.146   4.263 -1.5385 -0.2284  0.6981
 4288SOL     vw17152   1.436   2.082   4.318 -0.3445 -0.1557  0.3371
 4289SOL     ow17153   0.722   5.423   5.099 -0.2645 -0.0466 -0.2931
 4289SOL     hw17154   0.751   5.350   5.153  1.3422  0.3278 -0.6086
 4289SOL     hw17155   0.656   5.385   5.041 -0.7163 -0.8407  0.7157
 4289SOL     vw17156   0.717   5.408   5.098 -0.1121 -0.1018 -0.2017
 4290SOL     ow17157   1.542   4.631   3.639 -1.2167 -0.6086  0.6361
 4290SOL     hw17158   1.622   4.616   3.588 -0.4062  0.1725  1.6478
 4290SOL     hw17159   1.505   4.543   3.651  0.3916 -1.2002  1.5652
 4290SOL     vw17160   1.547   4.617   3.634 -0.8975 -0.5836  0.8922
 4291SOL     ow17161   3.582   0.023   4.388 -0.6143  0.0186  0.2294
 4291SOL     hw17162   3.608   0.004   4.298 -0.0858 -0.5570  0.4950
 4291SOL     hw17163   3.518  -0.045   4.409  0.5398 -0.9252  0.8480
 4291SOL     vw17164   3.577   0.011   4.379 -0.3924 -0.1819  0.3459
 4292SOL     ow17165   4.198   3.270   4.575 -0.4973 -0.8206 -0.9248
 4292SOL     hw17166   4.247   3.351   4.558  0.4032 -0.4881  2.5899
 4292SOL     hw17167   4.118   3.299   4.619 -0.3540 -1.7793  0.0022
 4292SOL     vw17168   4.194   3.285   4.578 -0.3598 -0.9032 -0.3388
 4293SOL     ow17169   1.293   5.799   6.377  0.0460 -0.6848  0.1954
 4293SOL     hw17170   1.384   5.770   6.377  0.2326 -0.1645  1.6878
 4293SOL     hw17171   1.275   5.824   6.468 -0.7987  1.6943 -0.5498
 4293SOL     vw17172   1.303   5.798   6.389 -0.0408 -0.3023  0.2942
 4294SOL     ow17173   6.460   1.513   7.505  0.5582  0.6380  0.6700
 4294SOL     hw17174   6.546   1.479   7.532  0.5732  0.3125  0.2204
 4294SOL     hw17175   6.471   1.535   7.412  0.4305  1.4981  0.8443
 4294SOL     vw17176   6.473   1.512   7.496  0.5431  0.7086  0.6337
 4295SOL     ow17177   2.721   4.433   3.719 -0.6295 -0.2878  0.5303
 4295SOL     hw17178   2.753   4.347   3.692 -0.4236 -0.0214 -0.0945
 4295SOL     hw17179   2.680   4.469   3.641 -0.1264  0.4496  0.5953
 4295SOL     vw17180   2.720   4.426   3.705 -0.5360 -0.1557  0.4563
 4296SOL     ow17181   4.383   7.481   0.336  0.3031 -0.4959  0.3460
 4296SOL     hw17182   4.426   7.485   0.251 -0.4683  1.0248 -0.0016
 4296SOL     hw17183   4.320   7.410   0.329  0.1422 -0.2800 -0.4085
 4296SOL     vw17184   4.381   7.472   0.324  0.1800 -0.2666  0.2006
 4297SOL     ow17185   0.635   1.170   2.638 -0.1799 -0.3501 -0.0196
 4297SOL     hw17186   0.614   1.152   2.729 -2.1273 -0.7155 -0.5022
 4297SOL     hw17187   0.707   1.234   2.642 -0.1302 -0.4843  1.7482
 4297SOL     vw17188   0.642   1.176   2.651 -0.4303 -0.4160  0.1501
 4298SOL     ow17189   4.778   1.395   6.690  0.0399  0.2351  0.0228
 4298SOL     hw17190   4.808   1.485   6.707 -2.1903  1.6138 -2.4750
 4298SOL     hw17191   4.697   1.387   6.741  0.1565 -0.3009  0.1286
 4298SOL     vw17192   4.771   1.406   6.699 -0.2391  0.3463 -0.2928
 4299SOL     ow17193   6.268   1.900   0.432 -0.0619 -0.3431 -0.5924
 4299SOL     hw17194   6.323   1.940   0.365  1.0374  1.1582  1.1083
 4299SOL     hw17195   6.219   1.973   0.470 -3.6911 -1.6556 -2.2930
 4299SOL     vw17196   6.268   1.915   0.428 -0.3958 -0.3182 -0.5924
 4300SOL     ow17197   0.231   5.485   4.461  0.5767 -0.2117 -0.1211
 4300SOL     hw17198   0.296   5.426   4.500  1.3588 -1.3182 -2.8652
 4300SOL     hw17199   0.155   5.429   4.445  0.4580  0.0929 -0.6409
 4300SOL     vw17200   0.230   5.470   4.464  0.6642 -0.3176 -0.5517
 4301SOL     ow17201   7.608   1.475   0.912  0.0316 -0.1915 -0.1559
 4301SOL     hw17202   7.675   1.443   0.973 -2.3844  1.3064  3.7211
 4301SOL     hw17203   7.638   1.562   0.887 -1.5355  1.9328  4.2228
 4301SOL     vw17204   7.621   1.482   0.917 -0.4940  0.2864  0.9333
 4302SOL     ow17205   3.566   3.134   1.235  0.0930  0.0352 -0.0300
 4302SOL     hw17206   3.583   3.195   1.163  0.1252  1.1069  0.8705
 4302SOL     hw17207   3.536   3.189   1.307 -1.2149 -1.1631  0.3815
 4302SOL     vw17208   3.564   3.149   1.235 -0.0752  0.0184  0.1431
 4303SOL     ow17209   0.445   6.410   2.380 -0.3620  0.5991  0.0546
 4303SOL     hw17210   0.531   6.376   2.404  0.5219  0.3549 -3.0319
 4303SOL     hw17211   0.464   6.487   2.326 -1.8780 -0.7119 -2.5714
 4303SOL     vw17212   0.459   6.415   2.376 -0.4454  0.3939 -0.6990
 4304SOL     ow17213   0.178   0.417   6.644 -0.0714 -0.2961 -0.4566
 4304SOL     hw17214   0.206   0.325   6.643  2.5485  0.3305  1.8891
 4304SOL     hw17215   0.083   0.413   6.633 -0.1423 -3.3597  0.2781
 4304SOL     vw17216   0.169   0.404   6.643  0.2649 -0.6177 -0.0503
 4305SOL     ow17217   3.691   6.367   2.140 -0.4813  0.4341  0.4317
 4305SOL     hw17218   3.783   6.364   2.116 -0.8399 -1.1880 -1.0476
 4305SOL     hw17219   3.689   6.410   2.225  2.0082 -2.3182  2.0806
 4305SOL     vw17220   3.703   6.372   2.148 -0.2002 -0.1431  0.4542
 4306SOL     ow17221   1.951   4.311   3.393 -0.3301  0.1081  0.3386
 4306SOL     hw17222   1.984   4.390   3.351 -1.1452 -0.3248 -1.1957
 4306SOL     hw17223   2.009   4.241   3.362  0.0136  0.0042  1.1924
 4306SOL     vw17224   1.963   4.312   3.384 -0.3922  0.0370  0.2488
 4307SOL     ow17225   0.241   3.745   1.952  0.6145 -0.0710  0.0949
 4307SOL     hw17226   0.283   3.669   1.992  2.8955 -0.0396 -2.0245
 4307SOL     hw17227   0.314   3.803   1.929 -0.8723  1.5396 -0.7502
 4307SOL     vw17228   0.256   3.743   1.955  0.7193  0.1457 -0.2962
 4308SOL     ow17229   1.897   6.715   0.272  0.7239  0.0529  0.2186
 4308SOL     hw17230   1.890   6.670   0.355 -2.0875 -1.7638 -0.8588
 4308SOL     hw17231   1.823   6.775   0.270  0.8030  0.1447 -0.9386
 4308SOL     vw17232   1.887   6.717   0.282  0.3634 -0.1748 -0.0762
 4309SOL     ow17233   1.561   3.567   5.029  0.0489  0.4162  0.4147
 4309SOL     hw17234   1.629   3.583   4.964  2.4071 -1.5483  2.2277
 4309SOL     hw17235   1.549   3.651   5.073 -0.1342  1.2560 -1.1604
 4309SOL     vw17236   1.568   3.580   5.026  0.3360  0.2676  0.4461
 4310SOL     ow17237   7.432   3.601   6.424 -0.7755  0.0740 -0.2015
 4310SOL     hw17238   7.388   3.516   6.424  0.1158 -0.4541 -2.2328
 4310SOL     hw17239   7.506   3.590   6.483 -0.6997 -0.5420 -0.4081
 4310SOL     vw17240   7.436   3.589   6.431 -0.6478 -0.0770 -0.4966
 4311SOL     ow17241   1.772   6.535   3.076 -0.1419 -0.3739  0.4802
 4311SOL     hw17242   1.724   6.617   3.071 -0.6852 -0.4351  3.1849
 4311SOL     hw17243   1.730   6.487   3.147  0.6653 -2.6882 -0.4994
 4311SOL     vw17244   1.760   6.539   3.084 -0.1072 -0.6874  0.7077
 4312SOL     ow17245   6.922   2.806   6.938 -0.2677  0.4060  0.5492
 4312SOL     hw17246   7.016   2.792   6.944  0.0046  0.5182 -2.3706
 4312SOL     hw17247   6.902   2.867   7.010  2.2308  1.9391  0.0468
 4312SOL     vw17248   6.932   2.813   6.948  0.0978  0.6230  0.0975
 4313SOL     ow17249   6.898   5.045   4.014 -0.6128 -0.1612 -0.1304
 4313SOL     hw17250   6.923   5.125   4.060 -0.8076 -0.7505  1.0525
 4313SOL     hw17251   6.927   5.058   3.924 -1.3666  1.5689 -0.1599
 4313SOL     vw17252   6.905   5.057   4.008 -0.7381 -0.0107  0.0217
 4314SOL     ow17253   4.185   5.950   3.587 -0.3814  0.3125  0.2114
 4314SOL     hw17254   4.264   5.997   3.615  0.2511 -0.7560  0.2864
 4314SOL     hw17255   4.194   5.943   3.492 -0.8591  1.0247  0.1167
 4314SOL     vw17256   4.197   5.955   3.578 -0.3610  0.2654  0.2087
 4315SOL     ow17257   1.629   1.406   4.218  0.0550 -0.5686 -0.2265
 4315SOL     hw17258   1.662   1.434   4.132 -1.7457 -1.7158 -1.3425
 4315SOL     hw17259   1.558   1.467   4.236 -0.1071 -0.8522  0.0721
 4315SOL     vw17260   1.624   1.418   4.209 -0.2040 -0.7573 -0.3345
 4316SOL     ow17261   7.612   1.896   1.535  0.0845 -0.0338 -0.4812
 4316SOL     hw17262   7.618   1.991   1.519 -0.5083  0.3829  1.5462
 4316SOL     hw17263   7.703   1.868   1.542  0.2862  0.2457 -1.7476
 4316SOL     vw17264   7.625   1.905   1.534  0.0329  0.0581 -0.3808
 4317SOL     ow17265   7.361   7.579   0.694 -0.4346 -0.0536 -0.2154
 4317SOL     hw17266   7.361   7.629   0.775 -0.6212 -3.8619  2.4027
 4317SOL     hw17267   7.270   7.580   0.665 -0.1239  2.5724 -1.3815
 4317SOL     vw17268   7.349   7.586   0.701 -0.4182 -0.2098 -0.0238
 4318SOL     ow17269   3.591   7.181   2.603 -0.0680 -0.6468  1.0243
 4318SOL     hw17270   3.670   7.214   2.646 -0.1208 -2.8321  2.9711
 4318SOL     hw17271   3.610   7.189   2.510  1.4689  1.0503  1.4066
 4318SOL     vw17272   3.604   7.187   2.596  0.1279 -0.7110  1.3317
 4319SOL     ow17273   6.120   1.298   0.192  0.4552 -0.8874 -0.2007
 4319SOL     hw17274   6.182   1.297   0.119  0.9711 -1.5197  0.2313
 4319SOL     hw17275   6.046   1.246   0.161  1.0423 -1.8783  0.0273
 4319SOL     vw17276   6.119   1.291   0.178  0.6008 -1.1016 -0.1136
 4320SOL     ow17277   4.384   0.228   1.045  0.3394  0.5050  0.0114
 4320SOL     hw17278   4.428   0.307   1.076 -0.7785  1.7839 -1.5166
 4320SOL     hw17279   4.292   0.243   1.064 -0.0778  0.3074 -1.7061
 4320SOL     vw17280   4.378   0.241   1.052  0.1369  0.6476 -0.4168
 4321poe    c3117281   0.648   1.780   0.874 -0.2895  0.6825  0.6016
 4321poe     o217282   0.781   1.732   0.880 -0.4470  0.0832 -0.4059
 4321poe    c2317283   0.824   1.718   1.014  0.2005  0.1569 -0.6067
 4321poe    c2317284   0.977   1.702   1.017  0.1734 -0.0810 -0.5060
 4321poe     o217285   1.038   1.606   0.934 -0.0282 -0.4480 -0.2303
 4321poe    c2317286   1.178   1.606   0.923 -0.0078 -0.4499  0.0317
 4321poe    c2317287   1.217   1.480   0.844 -0.3510 -0.2146 -0.5206
 4321poe     o217288   1.170   1.484   0.711 -0.7000 -0.4856 -0.4042
 4321poe    c2317289   1.229   1.380   0.636  0.1369 -0.1456 -0.2216
 4321poe    c2317290   1.221   1.408   0.485 -0.3533  0.1294 -0.1488
 4321poe     o217291   1.089   1.383   0.442 -0.3138  0.1233 -0.2666
 4321poe    c3117292   1.078   1.364   0.303  0.0695  0.4655 -0.3448
 4322poe    c3117293   0.899   6.866   1.016 -0.1094 -0.3073 -0.0182
 4322poe     o217294   0.826   6.877   1.136  0.7635 -0.4958  0.5375
 4322poe    c2317295   0.688   6.853   1.118  0.6767 -0.0886  0.6602
 4322poe    c2317296   0.579   6.959   1.138  0.6318 -0.0603  0.2594
 4322poe     o217297   0.545   6.966   1.275 -0.0440 -0.0862  0.1002
 4322poe    c2317298   0.427   7.028   1.320 -0.0828 -0.1676  0.1091
 4322poe    c2317299   0.312   6.928   1.340  0.6484 -1.0823 -0.1957
 4322poe     o217300   0.346   6.832   1.437  0.5411 -0.6248  0.2923
 4322poe    c2317301   0.243   6.748   1.484 -0.4825  0.3040 -0.2467
 4322poe    c2317302   0.190   6.644   1.383  0.0460  0.3024 -0.5272
 4322poe     o217303   0.242   6.516   1.356  0.1499  0.2205  0.0478
 4322poe    c3117304   0.195   6.469   1.232 -0.0795 -0.1377  0.2705
 4323poe    c3117305   5.599   0.685   4.094  0.4540 -0.3640  0.1202
 4323poe     o217306   5.685   0.785   4.145 -0.1905  0.4648 -0.3934
 4323poe    c2317307   5.821   0.749   4.144 -0.0780  0.8789 -0.1741
 4323poe    c2317308   5.913   0.834   4.234 -0.0519 -0.0054  0.6457
 4323poe     o217309   5.943   0.959   4.178 -0.6346 -0.1062  0.0943
 4323poe    c2317310   6.063   1.025   4.214 -0.7317  0.1097  0.0262
 4323poe    c2317311   6.136   1.110   4.108 -0.5562 -0.5642 -0.4035
 4323poe     o217312   6.069   1.226   4.066  0.2551  0.1678  0.2874
 4323poe    c2317313   6.148   1.343   4.067 -0.4496  0.6614 -0.0890
 4323poe    c2317314   6.177   1.425   4.194  0.0152 -0.0094  0.2462
 4323poe     o217315   6.082   1.522   4.232  0.0566  0.0559  0.1817
 4323poe    c3117316   6.142   1.649   4.218  0.3073 -0.0356  0.4253
 4324poe    c3117317   7.017   5.538   6.724  0.1237 -0.0510 -1.0772
 4324poe     o217318   6.952   5.657   6.686 -0.3261  0.0133 -0.1433
 4324poe    c2317319   6.944   5.691   6.549 -0.5815  0.7745  0.0599
 4324poe    c2317320   7.070   5.769   6.506 -0.2179  0.1848  0.0469
 4324poe     o217321   7.040   5.907   6.509 -0.0151  0.2630 -1.0094
 4324poe    c2317322   7.157   5.969   6.461  0.5733 -0.0269  0.0008
 4324poe    c2317323   7.121   6.119   6.454  0.1258 -0.1313  0.0307
 4324poe     o217324   7.010   6.160   6.377  0.1119  0.1902  0.2247
 4324poe    c2317325   7.036   6.162   6.239 -0.1131 -0.4910  0.1713
 4324poe    c2317326   6.925   6.240   6.166 -0.1206 -0.5782  0.0893
 4324poe     o217327   6.805   6.201   6.229  0.1336 -0.2770  0.7745
 4324poe    c3117328   6.697   6.283   6.190  0.4060 -0.2765 -0.0069
 4325poe    c3117329   7.001   4.582   0.226 -0.2334 -0.3155  0.0776
 4325poe     o217330   6.940   4.705   0.194 -0.0458 -0.2617 -0.0745
 4325poe    c2317331   7.011   4.792   0.109  0.1023  0.0899  0.4055
 4325poe    c2317332   6.925   4.920   0.114  0.0266  0.0591 -0.1099
 4325poe     o217333   6.920   4.972   0.245  0.4957 -0.0257 -0.0553
 4325poe    c2317334   6.820   5.071   0.254 -0.4044 -0.9464  0.2541
 4325poe    c2317335   6.777   5.098   0.400 -0.1314 -0.0299  0.1657
 4325poe     o217336   6.695   4.999   0.456 -0.0622 -0.1239  0.1020
 4325poe    c2317337   6.621   5.036   0.571  0.8617  0.3272  0.5590
 4325poe    c2317338   6.585   4.924   0.670  1.2818 -0.2891  0.0269
 4325poe     o217339   6.498   4.833   0.607  0.0220  0.6375  0.3901
 4325poe    c3117340   6.368   4.844   0.662 -0.2984  0.3952 -0.2997
 4326poe    c3117341   5.039   0.633   5.740  0.2706  0.1733  0.1652
 4326poe     o217342   4.927   0.628   5.825 -0.0720 -0.0686 -0.2946
 4326poe    c2317343   4.797   0.601   5.778  0.0697 -0.4762 -0.4596
 4326poe    c2317344   4.748   0.705   5.675 -0.9728 -0.4082  0.0862
 4326poe     o217345   4.717   0.840   5.699  0.4856 -0.1210  0.4107
 4326poe    c2317346   4.709   0.934   5.594 -0.7105 -0.0783  0.5263
 4326poe    c2317347   4.719   1.084   5.630  0.2435  0.0456 -0.2052
 4326poe     o217348   4.673   1.165   5.524  0.0130 -0.0738 -0.1980
 4326poe    c2317349   4.627   1.292   5.565 -0.0522 -0.3721  0.6825
 4326poe    c2317350   4.738   1.396   5.586 -0.6779  0.4157  0.1599
 4326poe     o217351   4.815   1.427   5.472 -0.0573  0.3497  0.5572
 4326poe    c3117352   4.928   1.503   5.510  0.4249 -0.3178  0.4669
 4327poe    c3117353   6.798   5.794   4.859  0.9335 -0.0410  0.1912
 4327poe     o217354   6.760   5.930   4.853  0.2598 -0.2291  0.0354
 4327poe    c2317355   6.777   5.988   4.981 -0.3411  0.3745 -0.1536
 4327poe    c2317356   6.764   6.141   4.982  0.2727  0.4323 -0.4046
 4327poe     o217357   6.892   6.199   4.994  0.2508  0.2384  0.9648
 4327poe    c2317358   6.881   6.333   4.954  0.2402 -0.0375  0.0172
 4327poe    c2317359   7.022   6.393   4.935  0.4117 -0.2959  0.4855
 4327poe     o217360   7.084   6.411   5.061  0.1532  0.1948  0.5414
 4327poe    c2317361   7.203   6.487   5.058  0.0625  0.3268  0.1553
 4327poe    c2317362   7.257   6.527   5.197 -0.0206  0.2440  0.2120
 4327poe     o217363   7.277   6.420   5.286  0.2357  0.1318  0.0198
 4327poe    c3117364   7.309   6.473   5.412 -0.3376 -0.1873  0.3034
 4328poe    c3117365   4.878   1.007   7.270  0.1977 -0.4782  0.1141
 4328poe     o217366   4.885   1.098   7.162  0.0470  0.0289  0.5257
 4328poe    c2317367   4.851   1.231   7.191 -0.0328  0.2318 -0.4747
 4328poe    c2317368   4.854   1.322   7.066 -0.2940 -0.2241 -0.8127
 4328poe     o217369   4.986   1.354   7.028 -0.1764  0.1009 -0.1376
 4328poe    c2317370   4.997   1.424   6.906  0.3918 -0.0387 -0.1697
 4328poe    c2317371   5.144   1.452   6.872  0.5616 -0.2623  0.3776
 4328poe     o217372   5.219   1.333   6.866  0.0474 -0.5794  0.1843
 4328poe    c2317373   5.316   1.342   6.763 -0.4608  0.1651 -0.2372
 4328poe    c2317374   5.393   1.211   6.783 -0.0939  0.3306 -0.5635
 4328poe     o217375   5.308   1.106   6.823  0.1382  0.4011  0.1241
 4328poe    c3117376   5.363   0.978   6.804 -0.3561  0.2869 -0.5479
 4329poe    c3117377   5.216   7.604   1.652  0.3112  0.2447  0.6296
 4329poe     o217378   5.330   7.603   1.568 -0.0667 -0.6922  0.1210
 4329poe    c2317379   5.348   7.472   1.519 -0.1511 -0.6253 -0.0910
 4329poe    c2317380   5.450   7.444   1.408  0.0257  0.4259 -0.1991
 4329poe     o217381   5.387   7.494   1.292 -0.1536 -0.1128 -0.3397
 4329poe    c2317382   5.464   7.481   1.176 -0.4430  0.0673 -0.5536
 4329poe    c2317383   5.419   7.582   1.068 -0.8928  0.2323 -0.2103
 4329poe     o217384   5.438   7.716   1.110  0.0375  0.1406 -0.3276
 4329poe    c2317385   5.400   7.794   0.999  0.5938  0.1243 -0.5362
 4329poe    c2317386   5.475   7.927   1.018 -0.1640  0.4464  0.2841
 4329poe     o217387   5.425   7.973   1.142 -0.2857  0.1450  0.3471
 4329poe    c3117388   5.448   8.108   1.175  0.0860  0.1468  0.0810
 4330poe    c3117389   6.138   4.319   6.580 -0.3770  0.3041 -0.6673
 4330poe     o217390   6.047   4.276   6.678  0.2930  0.2287 -0.0704
 4330poe    c2317391   6.105   4.277   6.807 -0.1658 -0.3461  0.1440
 4330poe    c2317392   6.006   4.289   6.925 -0.1280  0.0586  0.1360
 4330poe     o217393   5.914   4.395   6.922  0.1035  0.2510 -0.2503
 4330poe    c2317394   5.964   4.526   6.910  0.0183  0.2936 -0.1420
 4330poe    c2317395   5.887   4.627   6.999  0.0338 -0.0081  0.2156
 4330poe     o217396   5.887   4.606   7.138 -0.1423 -0.4228  0.1553
 4330poe    c2317397   5.866   4.722   7.216  0.1075 -0.3512  0.1176
 4330poe    c2317398   5.882   4.672   7.360  0.3405  0.3664  0.3446
 4330poe     o217399   5.776   4.603   7.423 -0.1975  0.4601 -0.4456
 4330poe    c3117400   5.779   4.649   7.556 -0.0690  0.1258 -0.3307
 4331poe    c3117401   4.208   7.337   5.092  0.1120  0.3343  0.3006
 4331poe     o217402   4.251   7.472   5.081 -0.0857  0.4481  0.9057
 4331poe    c2317403   4.383   7.471   5.034 -0.4210  0.0510 -0.0515
 4331poe    c2317404   4.456   7.606   5.024 -0.1841 -0.0891 -0.2343
 4331poe     o217405   4.467   7.668   5.150  0.3838 -0.5503 -0.0509
 4331poe    c2317406   4.517   7.800   5.150  0.1594 -0.4623  0.3730
 4331poe    c2317407   4.513   7.866   5.289  0.4361 -0.8230  0.5527
 4331poe     o217408   4.601   7.812   5.385  1.0791  0.2654  0.6014
 4331poe    c2317409   4.561   7.872   5.506  0.1365  0.1277  0.3684
 4331poe    c2317410   4.649   7.818   5.621 -0.3403 -0.0168  0.6671
 4331poe     o217411   4.778   7.872   5.630 -0.3423  0.0651  0.2599
 4331poe    c3117412   4.861   7.823   5.734 -0.3936 -1.2431 -0.2945
 4332poe    c3117413   2.731   1.591   3.574  0.7559  0.4299  0.9122
 4332poe     o217414   2.725   1.451   3.558 -0.1640  0.5535  0.0288
 4332poe    c2317415   2.604   1.401   3.508  0.0804 -0.1854  0.1677
 4332poe    c2317416   2.625   1.263   3.442 -0.4995 -0.1840 -0.0268
 4332poe     o217417   2.687   1.171   3.528  0.1520  0.3331  0.0683
 4332poe    c2317418   2.649   1.038   3.501 -0.4799  0.4328  0.4436
 4332poe    c2317419   2.765   0.951   3.554  0.3766  1.3722  0.1415
 4332poe     o217420   2.879   0.934   3.473 -0.1448 -0.1557 -0.2932
 4332poe    c2317421   2.995   0.894   3.541 -0.5335 -0.1880  0.3597
 4332poe    c2317422   3.099   0.831   3.446 -0.9014 -0.0877 -0.1112
 4332poe     o217423   3.157   0.921   3.353  0.7004 -0.5703  0.3862
 4332poe    c3117424   3.211   0.844   3.248  0.0095 -0.0947 -0.3263
 4333poe    c3117425   5.446   3.725   6.392 -0.6605  0.1210 -0.5906
 4333poe     o217426   5.435   3.864   6.414 -0.0687  0.0423  0.2339
 4333poe    c2317427   5.547   3.925   6.353 -0.3316  0.1622 -0.1257
 4333poe    c2317428   5.504   4.067   6.313 -0.1191  0.2188 -0.1536
 4333poe     o217429   5.392   4.061   6.228 -0.0536 -0.0304 -0.2221
 4333poe    c2317430   5.332   4.186   6.201  0.1859  0.2542  0.5212
 4333poe    c2317431   5.351   4.217   6.051 -0.9637  0.6008  0.4348
 4333poe     o217432   5.287   4.126   5.964  0.0741  0.4050 -0.1397
 4333poe    c2317433   5.308   4.169   5.831  0.1315  0.1300 -0.2213
 4333poe    c2317434   5.268   4.066   5.724  0.0319 -0.0565 -0.0054
 4333poe     o217435   5.133   4.059   5.682  0.0128 -0.1647  0.0742
 4333poe    c3117436   5.036   4.052   5.784 -0.4170  0.3765 -0.2969
 4334poe    c3117437   7.144   2.833   3.061 -0.4724  0.1738  0.2233
 4334poe     o217438   7.025   2.764   3.093 -0.2606 -0.3795 -0.1835
 4334poe    c2317439   7.004   2.776   3.231 -0.4462  0.5516 -0.2867
 4334poe    c2317440   6.856   2.791   3.274 -0.5234 -0.1558 -0.2981
 4334poe     o217441   6.805   2.912   3.223  0.5461  0.6565  0.5053
 4334poe    c2317442   6.674   2.927   3.274  0.2505  0.0050 -0.0414
 4334poe    c2317443   6.593   3.044   3.214  0.4584 -0.1160 -0.5677
 4334poe     o217444   6.567   3.019   3.078 -0.2281  0.1410 -0.4865
 4334poe    c2317445   6.556   3.144   3.014 -0.1572  0.4366  0.0681
 4334poe    c2317446   6.441   3.140   2.911 -0.3669  0.2549  0.3087
 4334poe     o217447   6.308   3.104   2.942 -0.1360 -0.5253  0.4041
 4334poe    c3117448   6.231   3.209   2.996 -0.0279 -0.3459  0.2108
 4335poe    c3117449   2.961   3.872   5.519  0.0386  0.4628 -0.1203
 4335poe     o217450   2.992   3.819   5.646  0.2643  0.3555 -0.2200
 4335poe    c2317451   3.027   3.911   5.747 -0.6754  0.2385  0.2239
 4335poe    c2317452   2.925   3.929   5.860  0.2344  0.6095  1.0043
 4335poe     o217453   2.914   3.815   5.943  0.0270  0.2293  0.4592
 4335poe    c2317454   2.794   3.830   6.016 -0.4104  0.5359 -0.3076
 4335poe    c2317455   2.767   3.709   6.107  0.3258  0.0552 -0.7148
 4335poe     o217456   2.729   3.591   6.038  0.6153 -0.4873  0.0371
 4335poe    c2317457   2.678   3.484   6.114 -0.0132  0.0999  0.4564
 4335poe    c2317458   2.524   3.481   6.105  0.0261  0.1540 -0.2502
 4335poe     o217459   2.488   3.469   5.969  0.0675 -0.0738 -0.2428
 4335poe    c3117460   2.358   3.513   5.937 -0.0354 -0.5527 -0.4855
 4336poe    c3117461   4.691   0.280   4.266  0.2392  0.0216  0.4730
 4336poe     o217462   4.642   0.194   4.166  0.5767  0.1108  0.2298
 4336poe    c2317463   4.700   0.069   4.193  0.2016 -0.1229 -0.0342
 4336poe    c2317464   4.715  -0.029   4.075 -0.3024 -0.0783 -0.1360
 4336poe     o217465   4.793   0.048   3.985 -0.0081 -0.1498  0.0566
 4336poe    c2317466   4.798  -0.016   3.860 -0.7079 -0.0880 -0.0065
 4336poe    c2317467   4.854   0.069   3.744 -0.2960 -0.6154 -0.1987
 4336poe     o217468   4.819   0.205   3.761  0.7005 -0.3988  0.1876
 4336poe    c2317469   4.894   0.285   3.673  0.3383  0.5242  0.7029
 4336poe    c2317470   4.826   0.421   3.647 -0.4250 -0.1004 -0.6954
 4336poe     o217471   4.887   0.481   3.536 -0.3912  0.6324 -0.2831
 4336poe    c3117472   5.000   0.561   3.563  0.3252 -0.5236  0.2384
 4337poe    c3117473   6.125   4.762   6.507 -0.1668 -0.3860  0.0243
 4337poe     o217474   6.087   4.776   6.642 -0.9576  0.4771 -0.2801
 4337poe    c2317475   6.065   4.909   6.684  0.0812  0.4934  0.2264
 4337poe    c2317476   6.180   4.989   6.749  0.2015  0.3696  0.1665
 4337poe     o217477   6.221   4.942   6.875 -0.1900  0.3319  0.2805
 4337poe    c2317478   6.130   4.985   6.973 -0.0775  0.6363  0.2505
 4337poe    c2317479   6.183   4.935   7.109 -0.0887  0.0220  0.0316
 4337poe     o217480   6.212   4.799   7.087  0.0803 -0.0424  0.6256
 4337poe    c2317481   6.234   4.732   7.209  0.4610  0.0383  0.6047
 4337poe    c2317482   6.304   4.601   7.171 -0.2308 -0.1714  0.0243
 4337poe     o217483   6.420   4.626   7.094 -0.2813 -0.6514 -0.2148
 4337poe    c3117484   6.490   4.505   7.077  0.2519 -0.4432  0.4504
 4338poe    c3117485   0.199   2.896   5.258 -0.1135 -0.0786 -0.0265
 4338poe     o217486   0.103   2.954   5.344  0.3945  0.2555  0.3176
 4338poe    c2317487   0.140   3.089   5.364  0.6958  0.2805 -0.3520
 4338poe    c2317488   0.154   3.149   5.505 -0.2035  0.8961 -0.5133
 4338poe     o217489   0.275   3.099   5.557 -0.6561  0.1336 -0.1778
 4338poe    c2317490   0.287   3.169   5.679  0.0392 -0.6594  0.2213
 4338poe    c2317491   0.418   3.106   5.730  0.5133  0.3457  0.2659
 4338poe     o217492   0.527   3.138   5.646  0.3387  0.7848  0.2010
 4338poe    c2317493   0.647   3.110   5.714  0.4911 -0.3402 -0.5016
 4338poe    c2317494   0.752   3.213   5.670  0.5088 -0.2208 -0.1816
 4338poe     o217495   0.748   3.206   5.529  0.3309  0.3751 -0.2095
 4338poe    c3117496   0.838   3.300   5.475  0.8011  0.2159  0.2830
 4339poe    c3117497   5.162   0.055   3.982  0.5173  0.5792  0.2026
 4339poe     o217498   5.114   0.055   4.115 -0.1995  0.1796 -0.0522
 4339poe    c2317499   5.130   0.181   4.175  0.1255 -0.2759  0.8311
 4339poe    c2317500   5.064   0.160   4.312 -0.0449 -0.1374  0.7698
 4339poe     o217501   5.100   0.030   4.353  0.4447 -0.3737 -0.3835
 4339poe    c2317502   5.054  -0.006   4.481  0.0247 -0.4843 -0.5648
 4339poe    c2317503   5.071  -0.157   4.502  0.6473 -0.4009 -0.4573
 4339poe     o217504   5.023  -0.217   4.384 -0.4231 -0.1170 -0.1785
 4339poe    c2317505   5.003  -0.350   4.428  0.1902 -0.0522  0.3083
 4339poe    c2317506   4.950  -0.450   4.324 -0.1117  0.0325  0.3780
 4339poe     o217507   5.020  -0.481   4.205 -0.9911 -1.0498  0.1312
 4339poe    c3117508   5.124  -0.574   4.221 -0.3115 -0.1430  1.1544
 4340poe    c3117509   1.415   7.551   6.095  0.6950  0.0372 -0.0704
 4340poe     o217510   1.404   7.691   6.092  0.2387  0.0335  0.8682
 4340poe    c2317511   1.377   7.754   6.215 -0.2680  0.0013  0.7735
 4340poe    c2317512   1.335   7.902   6.223 -0.5866 -0.0524  0.1631
 4340poe     o217513   1.402   7.983   6.129  0.2720 -0.1889  0.6453
 4340poe    c2317514   1.376   8.119   6.155 -0.2137 -0.1936  0.1954
 4340poe    c2317515   1.411   8.204   6.031  0.0733  0.1586  0.5134
 4340poe     o217516   1.539   8.175   5.980 -0.3509 -0.5348 -0.1724
 4340poe    c2317517   1.598   8.277   5.902  0.0164 -0.3718  0.3107
 4340poe    c2317518   1.738   8.235   5.853  0.0164 -0.1346  0.1038
 4340poe     o217519   1.729   8.099   5.815 -0.0659 -0.1197  0.0693
 4340poe    c3117520   1.789   8.078   5.689  0.5431 -0.0869  0.3536
 4341poe    c3117521   5.371   5.677   7.149  0.3828 -0.1187 -0.4677
 4341poe     o217522   5.393   5.797   7.079  0.4105  0.0417 -0.1873
 4341poe    c2317523   5.285   5.845   7.002  0.6637 -0.1064 -0.6412
 4341poe    c2317524   5.325   5.962   6.911 -0.1332  0.6058 -0.0907
 4341poe     o217525   5.354   6.068   7.000 -0.4768 -0.0303  0.7964
 4341poe    c2317526   5.339   6.202   6.958  0.2171 -0.0609  0.4319
 4341poe    c2317527   5.196   6.258   6.945  0.4405  0.4252  0.0149
 4341poe     o217528   5.105   6.247   7.053  0.0932  0.3987 -0.2812
 4341poe    c2317529   4.979   6.301   7.023 -0.0651  0.3207  0.2321
 4341poe    c2317530   4.875   6.211   6.954  0.0394  0.2312  0.1922
 4341poe     o217531   4.873   6.224   6.813  0.4126  0.2559  0.1871
 4341poe    c3117532   4.898   6.108   6.737  0.0974  0.3660 -0.0853
 4342poe    c3117533   1.842   1.614   1.411 -0.5918 -0.4535 -0.3731
 4342poe     o217534   1.956   1.606   1.328 -0.0723  0.5299  0.2149
 4342poe    c2317535   2.020   1.482   1.352  0.5348  0.7804 -0.0845
 4342poe    c2317536   2.157   1.468   1.284  0.0897  0.4551 -0.9278
 4342poe     o217537   2.262   1.509   1.369 -0.5396 -0.0206  0.0995
 4342poe    c2317538   2.316   1.401   1.442 -0.1948  0.1886  0.1582
 4342poe    c2317539   2.384   1.448   1.572 -0.4250  0.3176  0.2328
 4342poe     o217540   2.496   1.527   1.540  0.1293 -0.5756 -0.0967
 4342poe    c2317541   2.575   1.522   1.657 -0.3477  0.5699  0.2922
 4342poe    c2317542   2.556   1.656   1.730  0.2118  0.5839  0.4143
 4342poe     o217543   2.617   1.760   1.656  0.0481  0.4277  0.0589
 4342poe    c3117544   2.675   1.858   1.739  0.0196  0.6818 -0.2198
 4343poe    c3117545   3.852   1.654   0.885 -0.1955  0.1481 -0.3740
 4343poe     o217546   3.879   1.668   0.748 -0.1824 -0.2009 -0.4080
 4343poe    c2317547   3.952   1.784   0.716 -0.2012  0.0100  0.3111
 4343poe    c2317548   4.022   1.749   0.584 -0.5255  0.0978  0.1164
 4343poe     o217549   3.953   1.645   0.518 -0.2750  0.0619 -0.0932
 4343poe    c2317550   4.017   1.612   0.397  0.1623 -0.3038  0.2358
 4343poe    c2317551   3.977   1.481   0.327  0.0971  0.0013 -0.2988
 4343poe     o217552   4.041   1.374   0.393  0.1130  0.4200  0.3641
 4343poe    c2317553   3.998   1.251   0.341 -0.7637  0.6671  0.4917
 4343poe    c2317554   4.037   1.136   0.436 -0.3712  0.1287 -0.3111
 4343poe     o217555   3.989   1.174   0.563 -0.6759 -0.8130 -0.1349
 4343poe    c3117556   4.022   1.077   0.659 -0.4937 -1.0244 -0.4103
 4344poe    c3117557   1.096   0.187   2.751  0.0558 -0.1863 -0.0103
 4344poe     o217558   1.012   0.293   2.710 -0.1424 -0.3168  0.0593
 4344poe    c2317559   1.035   0.326   2.575 -0.1356 -0.1366  0.1042
 4344poe    c2317560   0.941   0.424   2.503  0.0370  0.0850  0.1817
 4344poe     o217561   0.905   0.539   2.577 -0.1215 -0.2507  0.6307
 4344poe    c2317562   0.821   0.620   2.499  0.0024 -0.7706 -0.0559
 4344poe    c2317563   0.768   0.731   2.591 -0.0366 -0.3672 -0.5549
 4344poe     o217564   0.675   0.686   2.687  0.0640  0.4215 -0.0752
 4344poe    c2317565   0.642   0.779   2.788 -0.3769  0.0303  0.1488
 4344poe    c2317566   0.554   0.698   2.885  0.1496 -0.6325  0.0847
 4344poe     o217567   0.613   0.582   2.938  0.5925 -0.2078  0.5309
 4344poe    c3117568   0.509   0.497   2.982 -0.3264  0.2796 -0.6487
 4345poe    c3117569   7.246   0.782   3.190 -0.2757  0.7268 -0.1471
 4345poe     o217570   7.245   0.653   3.134  0.1951  0.6389  0.0421
 4345poe    c2317571   7.295   0.657   3.002 -0.0686 -0.3274 -0.0929
 4345poe    c2317572   7.448   0.648   2.993 -0.0843 -0.4230 -0.2761
 4345poe     o217573   7.489   0.525   3.049  0.1275 -0.2590 -0.0650
 4345poe    c2317574   7.626   0.517   3.018  0.2216  0.3537  0.1883
 4345poe    c2317575   7.702   0.407   3.096  0.6079  0.2948 -0.2675
 4345poe     o217576   7.689   0.410   3.236  0.0025 -0.1724 -0.3103
 4345poe    c2317577   7.763   0.309   3.301  0.0960 -0.1596 -0.3958
 4345poe    c2317578   7.684   0.179   3.329  0.0119  0.0065  0.1598
 4345poe     o217579   7.672   0.091   3.219 -0.2264  0.5712 -0.2763
 4345poe    c3117580   7.616  -0.036   3.246  0.0510  0.5747  0.3410
 4346poe    c3117581   7.276   5.710   1.439  0.1078  0.4831 -0.0975
 4346poe     o217582   7.349   5.706   1.318  0.3722 -0.3881  0.0850
 4346poe    c2317583   7.422   5.586   1.323  0.4352 -0.3422  0.3012
 4346poe    c2317584   7.547   5.593   1.233  0.2320 -0.6672 -0.0122
 4346poe     o217585   7.500   5.669   1.123  0.1824 -0.2973  0.2619
 4346poe    c2317586   7.597   5.736   1.046 -0.2678  0.9166  0.7361
 4346poe    c2317587   7.538   5.790   0.914  0.3564  0.6382  0.3394
 4346poe     o217588   7.412   5.846   0.942  0.0901  0.1423  0.1381
 4346poe    c2317589   7.347   5.854   0.817 -0.6113 -0.3527  0.4627
 4346poe    c2317590   7.225   5.948   0.817 -0.1375  0.2684  0.5359
 4346poe     o217591   7.118   5.911   0.901 -0.2155  0.1928  0.4032
 4346poe    c3117592   6.996   5.981   0.907 -0.2163  0.2112  0.1641
 4347poe    c3117593   2.143   2.267   6.339  0.8450 -0.1557 -0.1291
 4347poe     o217594   2.213   2.156   6.287 -0.0432 -0.5957 -0.3884
 4347poe    c2317595   2.154   2.109   6.167  0.0846 -0.0676 -0.6580
 4347poe    c2317596   2.201   1.963   6.150 -0.2231 -0.1288 -0.9921
 4347poe     o217597   2.341   1.956   6.168 -0.3262 -0.3252 -0.1981
 4347poe    c2317598   2.386   1.824   6.149  0.2085 -0.2243  0.3528
 4347poe    c2317599   2.533   1.799   6.112  0.2083 -0.1292  0.2882
 4347poe     o217600   2.609   1.897   6.180 -0.2240  0.2299  0.2577
 4347poe    c2317601   2.747   1.896   6.154 -0.2370  0.4154  0.1801
 4347poe    c2317602   2.817   2.010   6.231 -0.5799  0.1917  0.8372
 4347poe     o217603   2.768   2.133   6.181 -0.1094 -0.0100 -0.1452
 4347poe    c3117604   2.827   2.246   6.241 -0.2443 -0.0134 -0.0045
 4348poe    c3117605   7.505   3.402   4.580 -0.5761 -0.3142  0.0500
 4348poe     o217606   7.381   3.337   4.599 -0.6602 -0.4719 -0.9768
 4348poe    c2317607   7.393   3.217   4.671 -0.7869  0.1123  0.0354
 4348poe    c2317608   7.265   3.133   4.686  0.0386 -1.1021  0.4859
 4348poe     o217609   7.234   3.087   4.556 -0.0376 -0.4978  0.2850
 4348poe    c2317610   7.108   3.023   4.560  0.2515 -1.0692  0.4381
 4348poe    c2317611   7.089   2.948   4.427  0.1746  0.0407 -0.1892
 4348poe     o217612   7.116   3.028   4.314 -0.5060  0.5831  0.0257
 4348poe    c2317613   7.101   2.951   4.197 -0.7400  0.9383 -0.1790
 4348poe    c2317614   7.131   3.067   4.101  0.1031  0.2599 -0.7451
 4348poe     o217615   7.247   3.140   4.133  0.3005 -0.2028 -0.4013
 4348poe    c3117616   7.289   3.198   4.012  0.7451  0.6373  0.1443
 4349poe    c3117617   3.033   2.084   5.927 -0.0049  0.4116  0.4634
 4349poe     o217618   3.089   2.213   5.927  0.4737  0.2124 -0.2872
 4349poe    c2317619   3.009   2.289   5.840 -0.5664  0.1416  0.5855
 4349poe    c2317620   3.058   2.428   5.793  0.0951 -0.1458  0.4191
 4349poe     o217621   3.196   2.408   5.774  0.0306 -0.0244 -0.1764
 4349poe    c2317622   3.238   2.497   5.673 -0.3341  0.1185 -0.2033
 4349poe    c2317623   3.389   2.501   5.639 -0.1927 -0.4750  0.3415
 4349poe     o217624   3.424   2.380   5.574 -0.0603 -0.1215 -0.2532
 4349poe    c2317625   3.564   2.380   5.568 -0.0053 -0.3188  0.7989
 4349poe    c2317626   3.627   2.241   5.540  0.6182  0.0644  0.2648
 4349poe     o217627   3.619   2.150   5.647 -0.5707  0.0592  0.1846
 4349poe    c3117628   3.668   2.027   5.600 -0.1653  0.3927 -0.2664
 4350poe    c3117629   5.355   5.583   3.840 -0.1284  0.3124  0.2637
 4350poe     o217630   5.225   5.630   3.812 -0.1995 -0.1714 -0.2360
 4350poe    c2317631   5.158   5.695   3.918  0.4412  0.2312 -0.0710
 4350poe    c2317632   5.029   5.770   3.878  0.3103  0.1581  0.2151
 4350poe     o217633   4.919   5.695   3.830  0.4344  0.2159 -0.1675
 4350poe    c2317634   4.838   5.776   3.748 -0.1001  0.1289  0.2630
 4350poe    c2317635   4.703   5.711   3.713 -0.2598  0.6365 -0.0877
 4350poe     o217636   4.610   5.711   3.818  0.2633 -0.4925  0.3931
 4350poe    c2317637   4.478   5.687   3.774  0.0218  0.6072  0.4888
 4350poe    c2317638   4.401   5.716   3.904 -0.9547  0.4700 -0.0503
 4350poe     o217639   4.465   5.654   4.014 -0.2331 -0.1567 -0.8081
 4350poe    c3117640   4.370   5.622   4.113  0.5765  0.1845  0.1028
 4351poe    c3117641   6.128   0.879   1.967  0.7438 -0.5016 -0.4151
 4351poe     o217642   6.065   0.806   1.864  0.0959  0.2812 -0.5799
 4351poe    c2317643   6.011   0.900   1.773  0.1627  0.4656 -0.4294
 4351poe    c2317644   5.918   0.837   1.668 -0.0415  0.0967 -0.0322
 4351poe     o217645   5.839   0.921   1.587 -0.1435  0.1412  0.1144
 4351poe    c2317646   5.703   0.902   1.621 -0.0222 -0.2058  0.4053
 4351poe    c2317647   5.618   0.991   1.529 -0.1563  0.0119  0.7423
 4351poe     o217648   5.650   1.128   1.543 -0.0522  0.0689 -0.0595
 4351poe    c2317649   5.555   1.216   1.488  0.1743  0.1664 -0.3006
 4351poe    c2317650   5.570   1.364   1.529 -0.0762  0.0956  0.0517
 4351poe     o217651   5.678   1.412   1.453  0.4000  0.1690  0.7610
 4351poe    c3117652   5.714   1.545   1.483  0.4637  0.2802  0.2184
 4352poe    c3117653   0.635   5.340   2.882 -0.7765  0.5334  0.5795
 4352poe     o217654   0.541   5.235   2.878 -0.4480  0.2485  0.2742
 4352poe    c2317655   0.570   5.144   2.982 -0.0284 -0.4078 -0.3952
 4352poe    c2317656   0.488   5.014   2.974 -0.4889 -0.1880  0.5362
 4352poe     o217657   0.361   5.031   3.034 -0.1203 -0.1613  1.3149
 4352poe    c2317658   0.252   4.956   2.984  0.1396  0.6467 -0.5554
 4352poe    c2317659   0.113   4.972   3.049  0.0601  0.2128 -0.6184
 4352poe     o217660   0.100   4.894   3.166 -0.9042 -0.0568 -0.9011
 4352poe    c2317661  -0.033   4.879   3.211 -0.4785 -0.7432  0.1797
 4352poe    c2317662  -0.026   4.894   3.364  0.7618  0.1085  0.0511
 4352poe     o217663   0.007   4.778   3.437 -0.3237  0.1402  0.6080
 4352poe    c3117664   0.068   4.810   3.560  0.2473 -0.4253  0.4740
 4353poe    c3117665   5.674   5.984   3.268  0.5680 -0.3830 -0.0969
 4353poe     o217666   5.736   6.095   3.207 -0.0205 -0.0805 -0.1512
 4353poe    c2317667   5.867   6.105   3.257 -0.2006  0.1316  0.2867
 4353poe    c2317668   5.951   6.210   3.181 -0.0545 -0.1214  0.0974
 4353poe     o217669   5.898   6.340   3.187 -0.1861 -0.1721  0.0495
 4353poe    c2317670   5.987   6.428   3.252 -0.4577 -0.1836  0.4390
 4353poe    c2317671   5.958   6.577   3.224  0.2135 -0.1444 -0.0908
 4353poe     o217672   5.998   6.629   3.099  0.1264  0.2327  0.0360
 4353poe    c2317673   6.134   6.615   3.062  0.0497  0.2060 -0.2361
 4353poe    c2317674   6.243   6.695   3.136  0.7133 -0.1866 -0.7885
 4353poe     o217675   6.292   6.618   3.244  1.2726  0.2277 -0.7421
 4353poe    c3117676   6.325   6.699   3.354  0.1928 -0.6557  0.2559
 4354poe    c3117677   1.116   1.177   6.756 -0.5136  0.1695  0.0575
 4354poe     o217678   0.982   1.186   6.714 -0.3138  0.5299 -0.5167
 4354poe    c2317679   0.930   1.077   6.640  0.3431 -0.2076  0.0830
 4354poe    c2317680   0.778   1.098   6.642  0.2691 -0.7612  0.2926
 4354poe     o217681   0.703   1.044   6.749 -0.7115 -0.1805 -0.0831
 4354poe    c2317682   0.586   1.122   6.757 -0.1764  0.5985  0.3324
 4354poe    c2317683   0.487   1.065   6.860 -0.3025  0.0150 -0.1027
 4354poe     o217684   0.521   1.094   6.994 -1.1073  0.0352  0.0995
 4354poe    c2317685   0.496   0.980   7.074 -0.2768 -0.4785 -0.3647
 4354poe    c2317686   0.585   0.980   7.199 -1.0048  0.6658  0.1672
 4354poe     o217687   0.714   0.929   7.173 -1.0323  0.5001  0.3565
 4354poe    c3117688   0.806   0.998   7.254 -0.4153 -0.0018  0.1000
 4355poe    c3117689   3.267   2.198   5.038 -0.3230 -0.1185  0.0722
 4355poe     o217690   3.333   2.153   5.154  0.4342  0.7725 -0.0016
 4355poe    c2317691   3.473   2.167   5.150  0.4764  0.3861  0.0587
 4355poe    c2317692   3.552   2.045   5.201 -0.1184 -0.2249 -0.4564
 4355poe     o217693   3.520   2.002   5.332 -0.1608  0.4287 -0.2461
 4355poe    c2317694   3.399   1.931   5.346 -0.1161  0.3326 -0.3417
 4355poe    c2317695   3.343   1.920   5.489  0.6719  0.8391  0.0146
 4355poe     o217696   3.408   1.837   5.582  0.0149 -0.1427 -0.3842
 4355poe    c2317697   3.306   1.781   5.661  0.2841 -0.4436 -0.2456
 4355poe    c2317698   3.342   1.691   5.780 -0.1221 -0.1235  0.1265
 4355poe     o217699   3.423   1.749   5.880  0.2937  0.3132 -0.4546
 4355poe    c3117700   3.501   1.647   5.937  0.1176  0.0070 -0.7624
 4356poe    c3117701   1.921   6.561   5.476  0.5235  0.2514  0.0933
 4356poe     o217702   1.866   6.494   5.586 -0.3165  0.3578 -0.2525
 4356poe    c2317703   1.855   6.571   5.704  0.1106 -0.0373  0.0511
 4356poe    c2317704   1.735   6.667   5.709  0.0974 -0.0525  0.0197
 4356poe     o217705   1.757   6.791   5.646 -0.2195 -0.2564 -0.5026
 4356poe    c2317706   1.643   6.868   5.615 -0.1996  0.0577  0.1823
 4356poe    c2317707   1.572   6.937   5.733 -0.2058  0.0482  0.1842
 4356poe     o217708   1.463   6.858   5.776 -0.2218 -0.0219  0.0136
 4356poe    c2317709   1.342   6.930   5.786 -0.0680  0.2925 -0.3436
 4356poe    c2317710   1.231   6.912   5.681 -0.5237 -0.1349  0.2054
 4356poe     o217711   1.202   6.774   5.675 -0.2090 -0.1698 -0.5096
 4356poe    c3117712   1.091   6.747   5.592  0.2487 -1.2291 -0.8049
 4357poe    c3117713   7.074   5.613   7.100 -0.1189  0.4135 -0.7721
 4357poe     o217714   6.974   5.703   7.146 -0.0885 -0.1560  0.4535
 4357poe    c2317715   6.871   5.711   7.051  0.0253 -0.5590  0.2905
 4357poe    c2317716   6.761   5.808   7.098  0.5596  0.0299  0.3287
 4357poe     o217717   6.711   5.774   7.225  0.6192  0.5979  0.5080
 4357poe    c2317718   6.583   5.832   7.233  0.2929 -0.0588  0.0389
 4357poe    c2317719   6.491   5.749   7.325 -0.0008  0.2051 -0.0169
 4357poe     o217720   6.524   5.746   7.462  0.1571  0.0767 -0.0578
 4357poe    c2317721   6.416   5.806   7.530 -0.2010 -0.1858 -0.3917
 4357poe    c2317722   6.457   5.927   7.616 -0.5073 -0.1979 -0.2254
 4357poe     o217723   6.508   6.038   7.546  0.3897 -0.0894  0.5817
 4357poe    c3117724   6.527   6.154   7.624  0.0626  0.6174 -0.3756
 4358poe    c3117725   0.605   6.864   3.014 -0.3234  0.0482  0.3691
 4358poe     o217726   0.708   6.957   2.991 -0.1087 -0.4223 -0.6172
 4358poe    c2317727   0.834   6.902   2.959 -0.1141 -0.4198 -0.6435
 4358poe    c2317728   0.939   7.007   2.918 -0.1654 -0.0953  0.0457
 4358poe     o217729   1.011   7.083   3.012 -0.1346 -0.3612  0.2364
 4358poe    c2317730   1.147   7.044   3.019  0.0416  0.2481  0.2288
 4358poe    c2317731   1.211   7.121   3.136 -0.1016  0.1822  0.3512
 4358poe     o217732   1.245   7.249   3.088 -0.2313  0.2920  0.5521
 4358poe    c2317733   1.305   7.312   3.199 -0.4211  0.9571  0.2816
 4358poe    c2317734   1.386   7.438   3.164  1.2641 -0.1968 -0.0885
 4358poe     o217735   1.313   7.553   3.129  0.5297 -0.5488  0.2701
 4358poe    c3117736   1.391   7.670   3.138 -0.3331  0.0764 -0.1575
 4359poe    c3117737   1.674   3.318   7.413  0.1725  0.1953  0.6796
 4359poe     o217738   1.793   3.292   7.485  0.3825 -0.3408  0.1513
 4359poe    c2317739   1.895   3.328   7.395  0.0951 -0.3987 -0.1971
 4359poe    c2317740   2.034   3.336   7.460 -0.0359  0.7801 -0.0292
 4359poe     o217741   2.089   3.217   7.514 -0.1617  0.6090 -0.2737
 4359poe    c2317742   2.227   3.202   7.490  0.0003 -0.0055  0.9893
 4359poe    c2317743   2.273   3.062   7.532  0.4743 -0.1452  0.0315
 4359poe     o217744   2.181   3.025   7.633 -0.2165  0.3644 -0.4044
 4359poe    c2317745   2.236   2.926   7.718 -0.4984  0.4218 -0.1566
 4359poe    c2317746   2.103   2.855   7.751 -0.1385 -0.2212 -0.0818
 4359poe     o217747   2.000   2.948   7.774  0.2468  0.1881  0.0186
 4359poe    c3117748   1.886   2.876   7.817  0.6575 -0.5920 -0.1911
 4360poe    c3117749   6.426   3.687   3.909  0.4141  0.1218  0.3821
 4360poe     o217750   6.377   3.631   4.029 -0.2015  0.3864  0.2613
 4360poe    c2317751   6.485   3.570   4.097  0.2345  0.6019 -0.2300
 4360poe    c2317752   6.449   3.538   4.244 -0.0550  0.9498 -0.2231
 4360poe     o217753   6.472   3.653   4.322 -0.7779  0.7125  0.3442
 4360poe    c2317754   6.494   3.642   4.461  0.0459 -0.1368  0.1523
 4360poe    c2317755   6.384   3.621   4.566 -0.1768 -0.0733 -0.0688
 4360poe     o217756   6.443   3.606   4.693  0.1939  1.4201 -0.0457
 4360poe    c2317757   6.336   3.603   4.786  0.1633 -0.8546 -0.1120
 4360poe    c2317758   6.382   3.544   4.920 -0.4286 -0.0564  0.4498
 4360poe     o217759   6.279   3.542   5.017 -0.4084  0.2217  0.4760
 4360poe    c3117760   6.227   3.412   5.007 -0.1339  0.1467 -0.0073
 4361poe    c3117761   5.223   3.952   1.344 -0.3400 -0.0338  0.5562
 4361poe     o217762   5.228   4.074   1.274 -0.0608 -0.0918  0.4742
 4361poe    c2317763   5.178   4.174   1.359  0.4515  0.3404  0.2785
 4361poe    c2317764   5.141   4.308   1.291  0.0603 -0.0805 -0.3428
 4361poe     o217765   5.255   4.381   1.255  0.1774  0.0565  0.2950
 4361poe    c2317766   5.212   4.508   1.211  0.2431  0.1797  0.5832
 4361poe    c2317767   5.327   4.608   1.185  0.2556  0.0944  0.3136
 4361poe     o217768   5.430   4.558   1.103  0.1540  0.2402  0.0972
 4361poe    c2317769   5.533   4.654   1.105 -0.0425  0.4750 -0.5580
 4361poe    c2317770   5.670   4.587   1.078 -0.6182 -0.7012 -0.6183
 4361poe     o217771   5.703   4.488   1.173  0.2308  0.0939 -0.0713
 4361poe    c3117772   5.843   4.491   1.181  0.2247 -0.6222  0.2936
 4362poe    c3117773   5.797   3.662   3.746 -0.3534  0.6725 -0.0657
 4362poe     o217774   5.877   3.658   3.862 -0.7393 -0.2209  0.1706
 4362poe    c2317775   5.872   3.546   3.948 -0.3358 -0.0589  0.4093
 4362poe    c2317776   5.905   3.409   3.886 -0.0830  0.3760 -0.4372
 4362poe     o217777   6.036   3.400   3.835 -0.0676  0.0888 -0.3490
 4362poe    c2317778   6.047   3.278   3.765 -0.4451 -0.2288  0.1380
 4362poe    c2317779   6.179   3.247   3.692 -0.2551 -0.5844  0.6216
 4362poe     o217780   6.293   3.234   3.774  0.2326  0.4122  0.1280
 4362poe    c2317781   6.402   3.229   3.686  0.2766 -0.4216  0.2248
 4362poe    c2317782   6.524   3.321   3.706  0.1940 -0.2734  0.0436
 4362poe     o217783   6.622   3.273   3.794  0.5922  0.3122 -0.0721
 4362poe    c3117784   6.744   3.345   3.793  0.5298  0.4103 -0.4915
 4363poe    c3117785   0.161   0.142   2.847  0.3694  0.2187  0.0841
 4363poe     o217786   0.245   0.073   2.758  0.2869  0.3993 -0.1329
 4363poe    c2317787   0.299  -0.041   2.821  0.1144  0.2276 -0.2930
 4363poe    c2317788   0.222  -0.165   2.774 -0.2077  0.2976  0.0427
 4363poe     o217789   0.090  -0.187   2.820 -0.1490  0.1285  0.1336
 4363poe    c2317790   0.067  -0.309   2.888 -0.1765  0.2334  0.3140
 4363poe    c2317791  -0.078  -0.361   2.887 -0.1019  0.0270  0.0570
 4363poe     o217792  -0.157  -0.291   2.980 -0.2080 -0.0772  0.0445
 4363poe    c2317793  -0.293  -0.327   2.965 -0.1335 -0.5043  0.3968
 4363poe    c2317794  -0.382  -0.239   3.054  0.0203  0.0573 -0.0027
 4363poe     o217795  -0.397  -0.114   2.990  0.0075 -0.0336 -0.1793
 4363poe    c3117796  -0.477  -0.023   3.062 -0.1707 -0.0435 -0.3663
 4364poe    c3117797   5.470   3.810   0.306  0.7709 -0.1593  0.3792
 4364poe     o217798   5.539   3.819   0.182  0.6287  0.2899  0.3306
 4364poe    c2317799   5.450   3.852   0.078  0.1021  0.0336  0.6911
 4364poe    c2317800   5.508   3.943  -0.032 -0.0972 -0.7255 -0.0527
 4364poe     o217801   5.598   3.876  -0.118 -0.0180 -0.0553 -0.4938
 4364poe    c2317802   5.598   3.915  -0.254 -0.0760 -0.7374 -0.6927
 4364poe    c2317803   5.473   3.861  -0.325 -0.7960 -0.2800  0.2025
 4364poe     o217804   5.475   3.861  -0.466 -0.1766 -0.1932  0.2072
 4364poe    c2317805   5.370   3.786  -0.523  0.0469 -0.5922  0.3191
 4364poe    c2317806   5.388   3.792  -0.675  0.1197  0.0807  0.3541
 4364poe     o217807   5.477   3.690  -0.714  0.2022  0.4124 -0.3430
 4364poe    c3117808   5.526   3.697  -0.846  0.3529  0.0644 -0.3057
 4365poe    c3117809   1.380   5.664   1.350 -0.5354  0.0648 -0.2583
 4365poe     o217810   1.269   5.627   1.428 -0.0891  0.3274  0.5089
 4365poe    c2317811   1.295   5.532   1.529 -0.7932 -0.1284  0.2723
 4365poe    c2317812   1.174   5.498   1.618 -0.5147 -0.3230  0.5789
 4365poe     o217813   1.114   5.612   1.675  0.3865  0.3093  0.2988
 4365poe    c2317814   1.009   5.582   1.764  0.1180 -0.7909 -0.3631
 4365poe    c2317815   0.903   5.693   1.777  1.7455  0.7185  0.5045
 4365poe     o217816   0.871   5.721   1.642  0.0109 -0.0148  0.7378
 4365poe    c2317817   0.732   5.743   1.636 -0.0975 -0.7887  0.3028
 4365poe    c2317818   0.698   5.826   1.510 -0.2705 -0.4424  0.5756
 4365poe     o217819   0.747   5.771   1.390 -0.4527 -0.0924  0.3406
 4365poe    c3117820   0.744   5.882   1.304  0.2439  0.0030  0.4354
 4366poe    c3117821   6.674   6.463   2.706  0.4976  0.1814  0.5106
 4366poe     o217822   6.644   6.585   2.643  0.2835  0.1175  0.4866
 4366poe    c2317823   6.676   6.698   2.722 -0.4073  0.5416  0.1709
 4366poe    c2317824   6.609   6.825   2.665 -0.2634  0.3289 -0.4892
 4366poe     o217825   6.647   6.869   2.537  0.6495  0.3697 -0.2157
 4366poe    c2317826   6.612   7.000   2.498  0.5318  0.3699 -0.1130
 4366poe    c2317827   6.595   7.014   2.346  0.1301  0.3381 -0.0708
 4366poe     o217828   6.719   6.972   2.293 -0.2001 -0.0237 -0.5638
 4366poe    c2317829   6.825   7.065   2.290 -0.1385 -0.0527  0.4961
 4366poe    c2317830   6.827   7.184   2.193 -0.1094 -0.3959  0.0720
 4366poe     o217831   6.844   7.171   2.054 -0.0907  0.2608  0.0102
 4366poe    c3117832   6.872   7.299   2.000  0.3244  0.1981  0.0757
 4367poe    c3117833   4.541   2.147   0.857  0.5653 -0.0444 -0.5540
 4367poe     o217834   4.538   2.287   0.873 -0.2451 -0.1091 -0.0510
 4367poe    c2317835   4.403   2.308   0.906 -0.3368 -0.6891 -0.0443
 4367poe    c2317836   4.366   2.457   0.921 -0.1328 -0.6341 -0.0801
 4367poe     o217837   4.400   2.534   0.809  0.1050  0.1184  0.5057
 4367poe    c2317838   4.343   2.502   0.684  0.2416  0.5227  0.3378
 4367poe    c2317839   4.345   2.610   0.574  0.2009 -0.3369 -0.5168
 4367poe     o217840   4.253   2.717   0.569  0.5804  0.0045 -0.1846
 4367poe    c2317841   4.249   2.798   0.453 -0.2354 -0.1670 -0.2777
 4367poe    c2317842   4.372   2.882   0.416 -0.1383 -0.1049  0.1732
 4367poe     o217843   4.402   3.002   0.484 -0.2169  0.1952 -0.3167
 4367poe    c3117844   4.487   3.073   0.397 -0.1299  0.3390 -0.1142
 4368poe    c3117845   1.187   3.599   6.220 -0.2215 -0.2003 -0.1524
 4368poe     o217846   1.273   3.653   6.123  0.0590 -0.1530  0.1211
 4368poe    c2317847   1.334   3.551   6.046 -0.0158 -0.5612  0.5970
 4368poe    c2317848   1.402   3.605   5.919 -0.3401  0.5824  0.8948
 4368poe     o217849   1.532   3.653   5.943  0.1988 -0.1361 -0.4333
 4368poe    c2317850   1.586   3.693   5.820 -0.0462  0.4031 -0.3708
 4368poe    c2317851   1.740   3.698   5.835 -0.0811 -0.2849  0.3066
 4368poe     o217852   1.803   3.572   5.831  0.0864 -0.1851 -0.3155
 4368poe    c2317853   1.941   3.583   5.803  0.0427  0.4592 -0.2916
 4368poe    c2317854   2.015   3.449   5.794  0.1920  0.5055  0.1947
 4368poe     o217855   1.990   3.363   5.903 -0.0534  0.4130  0.0667
 4368poe    c3117856   2.086   3.260   5.913 -0.0438  0.4538  0.4094
 4369poe    c3117857   5.695   6.608   6.363 -0.2159  0.0002 -0.3671
 4369poe     o217858   5.678   6.561   6.231 -0.3428 -0.3875 -0.2140
 4369poe    c2317859   5.789   6.484   6.192 -0.2454 -0.4278  0.1410
 4369poe    c2317860   5.805   6.485   6.039  0.5504 -0.2134  0.2210
 4369poe     o217861   5.700   6.419   5.971  0.7031 -0.1458 -0.0834
 4369poe    c2317862   5.720   6.434   5.832 -0.2540  0.4837 -0.1640
 4369poe    c2317863   5.610   6.369   5.746 -0.0303  0.2165 -0.2517
 4369poe     o217864   5.486   6.437   5.754 -0.2890 -0.2615 -0.1820
 4369poe    c2317865   5.393   6.379   5.666 -0.4926 -0.1840 -0.0171
 4369poe    c2317866   5.254   6.446   5.661 -0.5291 -0.2913 -0.4725
 4369poe     o217867   5.175   6.415   5.773  0.1698 -0.7829 -0.1124
 4369poe    c3117868   5.106   6.295   5.747 -0.8621 -0.4202  0.8694
 4370poe    c3117869   4.237   2.692   3.794  0.9122  0.2066 -0.2624
 4370poe     o217870   4.366   2.668   3.847  0.6683 -0.3116  0.1075
 4370poe    c2317871   4.446   2.614   3.744  0.0100  0.4000 -0.7992
 4370poe    c2317872   4.562   2.544   3.817 -0.7718  0.1601  0.2504
 4370poe     o217873   4.657   2.635   3.869  0.2562 -0.7469  0.0088
 4370poe    c2317874   4.770   2.574   3.926 -0.0757 -0.7718  0.6505
 4370poe    c2317875   4.878   2.653   4.001 -0.3298 -0.3535  0.5741
 4370poe     o217876   4.832   2.717   4.118 -0.2074  0.1528  0.3530
 4370poe    c2317877   4.858   2.661   4.245 -0.4749 -0.0719  0.3115
 4370poe    c2317878   5.000   2.681   4.302 -0.3886  0.4222 -0.0722
 4370poe     o217879   5.006   2.814   4.347 -0.0057  0.5087 -0.3734
 4370poe    c3117880   5.129   2.834   4.413 -0.1488 -0.3494  0.1635
 4371poe    c3117881   2.482   2.849   0.701 -0.1404  0.1503  0.0892
 4371poe     o217882   2.547   2.973   0.707 -0.4743  0.2991  0.5880
 4371poe    c2317883   2.474   3.073   0.639 -0.0582  0.0308 -0.2582
 4371poe    c2317884   2.548   3.207   0.658 -0.0304  0.0127 -0.2356
 4371poe     o217885   2.546   3.253   0.792  0.8165 -0.8246  0.0706
 4371poe    c2317886   2.605   3.380   0.807  0.2827 -0.5113 -0.4496
 4371poe    c2317887   2.729   3.383   0.898  0.0636  0.7489 -0.1761
 4371poe     o217888   2.692   3.378   1.034  0.6468 -0.5129 -0.0553
 4371poe    c2317889   2.797   3.343   1.123  0.2290 -1.2082  0.1723
 4371poe    c2317890   2.741   3.280   1.252 -0.1744  0.3023  0.7570
 4371poe     o217891   2.650   3.175   1.230  0.7154 -0.3655  0.2168
 4371poe    c3117892   2.647   3.108   1.354  0.2808 -0.0137  0.3964
 4372poe    c3117893   7.218   1.649   1.547  0.5018 -0.4283  0.7633
 4372poe     o217894   7.120   1.549   1.529  0.0641  0.1983 -0.4874
 4372poe    c2317895   7.127   1.474   1.409  0.3562 -0.1861 -0.2337
 4372poe    c2317896   7.000   1.394   1.378  0.1602  0.3050 -0.7089
 4372poe     o217897   6.882   1.471   1.378 -0.1650 -0.1879 -0.3313
 4372poe    c2317898   6.866   1.544   1.259 -0.0650  0.5221  0.0826
 4372poe    c2317899   6.767   1.661   1.258 -0.5133  0.1435 -0.2394
 4372poe     o217900   6.639   1.623   1.304 -0.2833 -0.1826  0.1389
 4372poe    c2317901   6.560   1.740   1.305 -0.4777 -0.3169  0.6470
 4372poe    c2317902   6.426   1.728   1.380 -0.6503  0.1104  0.4114
 4372poe     o217903   6.340   1.629   1.329 -0.0505 -0.0189 -0.3616
 4372poe    c3117904   6.209   1.642   1.381 -0.0285  0.4279 -0.4153
 4373poe    c3117905   1.961   7.189   0.978 -0.0399  0.3189  0.0478
 4373poe     o217906   2.048   7.237   1.078  0.6208 -0.4439 -0.1568
 4373poe    c2317907   2.112   7.123   1.131  0.0062 -0.3167  0.8824
 4373poe    c2317908   2.255   7.168   1.169  0.2151 -0.5278  0.3480
 4373poe     o217909   2.254   7.271   1.265 -0.1855 -0.4322  0.2449
 4373poe    c2317910   2.274   7.237   1.400  0.4829  0.0307  0.2662
 4373poe    c2317911   2.277   7.363   1.489  0.4305  0.1827  0.0541
 4373poe     o217912   2.152   7.421   1.462  0.7222  0.6110 -0.3804
 4373poe    c2317913   2.125   7.523   1.556 -0.3244  0.3206 -0.3500
 4373poe    c2317914   1.988   7.494   1.619 -0.1193 -0.2550 -0.1536
 4373poe     o217915   1.883   7.471   1.527 -0.1278 -0.3420 -0.1220
 4373poe    c3117916   1.760   7.459   1.594 -0.4332  0.1638 -0.5883
 4374poe    c3117917   5.242   7.416   4.915 -0.0960  0.3244  0.6555
 4374poe     o217918   5.282   7.528   4.840  0.1850 -0.4610 -0.3865
 4374poe    c2317919   5.387   7.497   4.750  0.2972  0.3168 -0.5279
 4374poe    c2317920   5.419   7.602   4.642  0.3166  0.1505 -0.6828
 4374poe     o217921   5.491   7.556   4.530  0.4302 -0.9770 -0.1586
 4374poe    c2317922   5.512   7.668   4.446 -0.1828 -0.3129  0.5589
 4374poe    c2317923   5.599   7.642   4.322 -0.8784  1.1515 -0.2468
 4374poe     o217924   5.551   7.545   4.232  0.3143  0.0652  0.2532
 4374poe    c2317925   5.648   7.511   4.135  0.3834  0.2052  0.2717
 4374poe    c2317926   5.582   7.410   4.039  0.5799  0.2281  0.1125
 4374poe     o217927   5.551   7.321   4.144  0.7775  0.2179  0.1614
 4374poe    c3117928   5.523   7.196   4.087  0.2150  0.3262  0.1997
 4375poe    c3117929   4.627   4.492   2.213 -0.2904  0.3307  0.1505
 4375poe     o217930   4.733   4.583   2.236  0.4022 -0.6182  0.7605
 4375poe    c2317931   4.713   4.671   2.344 -0.1207  0.7087 -0.3905
 4375poe    c2317932   4.827   4.750   2.410  0.1207  0.1343 -0.1116
 4375poe     o217933   4.923   4.674   2.481 -0.5057  0.0160  0.6229
 4375poe    c2317934   5.045   4.740   2.504 -0.3749 -0.0223  0.0630
 4375poe    c2317935   5.144   4.648   2.578 -0.2378  0.1623  0.1097
 4375poe     o217936   5.177   4.547   2.486 -0.0292 -0.2916  0.6769
 4375poe    c2317937   5.279   4.457   2.525  0.3439 -0.1957 -0.0553
 4375poe    c2317938   5.248   4.326   2.451  0.0734 -0.0151 -0.2648
 4375poe     o217939   5.111   4.293   2.450  0.0651  0.0198 -0.6876
 4375poe    c3117940   5.112   4.153   2.466 -0.4043  0.0921  0.0619
 4376poe    c3117941   7.156   7.229   4.154  0.1889  0.5019  0.6410
 4376poe     o217942   7.083   7.154   4.249 -0.2347  0.2689  0.1325
 4376poe    c2317943   7.175   7.087   4.333 -0.7396 -0.3608  0.1865
 4376poe    c2317944   7.098   7.021   4.449 -0.2487  0.1677  0.8145
 4376poe     o217945   6.983   6.944   4.422  0.0529 -0.0506  0.1413
 4376poe    c2317946   6.921   6.916   4.545 -0.1139  0.0603  0.0833
 4376poe    c2317947   6.781   6.854   4.529 -0.1093  0.2569 -0.7675
 4376poe     o217948   6.692   6.946   4.470 -0.4024  0.4134 -0.0917
 4376poe    c2317949   6.558   6.904   4.484 -0.2243 -0.0855  0.1417
 4376poe    c2317950   6.456   7.019   4.475 -0.0911  0.0117 -0.1456
 4376poe     o217951   6.433   7.110   4.581  0.4210  0.1398 -0.1379
 4376poe    c3117952   6.313   7.179   4.553  0.0245 -0.4275  0.1355
 4377poe    c3117953   5.175   3.587   4.168 -0.2151  0.3252 -0.5756
 4377poe     o217954   5.312   3.609   4.141 -0.0434 -0.0872 -0.0540
 4377poe    c2317955   5.356   3.565   4.014 -0.1559  0.0414 -0.1377
 4377poe    c2317956   5.372   3.413   3.990 -0.1962 -0.0368  0.3170
 4377poe     o217957   5.252   3.340   3.993 -0.1504 -0.1363 -0.2548
 4377poe    c2317958   5.287   3.204   4.008 -0.1225 -0.1519 -0.4509
 4377poe    c2317959   5.238   3.113   3.894 -0.6667 -0.0753 -0.2812
 4377poe     o217960   5.256   2.976   3.924 -0.3614  0.0026 -0.1046
 4377poe    c2317961   5.225   2.916   3.800  0.7890  0.0281 -0.4170
 4377poe    c2317962   5.259   2.766   3.810  0.5722  0.0283  0.4196
 4377poe     o217963   5.191   2.690   3.907  0.0717 -0.5482 -0.3666
 4377poe    c3117964   5.247   2.562   3.927 -0.1575 -0.5287  0.4329
 4378poe    c3117965   3.236   3.544   2.820  0.1713 -0.4285 -0.4813
 4378poe     o217966   3.358   3.582   2.879 -0.2565  0.3297 -0.0702
 4378poe    c2317967   3.439   3.643   2.781  0.0183 -0.0125 -0.0597
 4378poe    c2317968   3.574   3.670   2.849  0.1892 -0.6642 -0.1323
 4378poe     o217969   3.567   3.731   2.976  0.2959 -0.1860 -0.3520
 4378poe    c2317970   3.689   3.766   3.038  0.3020 -0.6861 -0.0808
 4378poe    c2317971   3.674   3.813   3.184  0.2274 -0.0690 -0.2840
 4378poe     o217972   3.597   3.713   3.247  0.3358 -0.2032 -0.3618
 4378poe    c2317973   3.622   3.694   3.384  0.1884 -0.1416 -0.3254
 4378poe    c2317974   3.528   3.589   3.447  0.6865 -0.2493  0.2482
 4378poe     o217975   3.535   3.467   3.377 -0.3299 -0.2775  0.1812
 4378poe    c3117976   3.508   3.357   3.461  0.2920 -0.1990  0.4950
 4379poe    c3117977   3.710   3.645   0.797 -0.3188 -0.1299  0.6480
 4379poe     o217978   3.644   3.767   0.772  0.1168 -0.0897 -0.3519
 4379poe    c2317979   3.509   3.748   0.736  0.1646 -0.3544 -0.3946
 4379poe    c2317980   3.458   3.883   0.683 -0.1898 -0.5275 -0.5011
 4379poe     o217981   3.571   3.939   0.620 -0.3057  0.1723 -0.1042
 4379poe    c2317982   3.540   4.034   0.520 -0.0081  0.6716  0.2718
 4379poe    c2317983   3.648   4.078   0.420 -0.2626  0.0685 -0.2762
 4379poe     o217984   3.737   4.158   0.495 -0.1641 -0.4890  0.2030
 4379poe    c2317985   3.836   4.196   0.403  0.1049 -1.3455  0.1261
 4379poe    c2317986   3.971   4.226   0.473 -0.3247 -0.5358  0.6301
 4379poe     o217987   4.049   4.116   0.513 -0.4376 -0.6140  0.6370
 4379poe    c3117988   4.185   4.154   0.524 -0.4842 -0.1385 -0.3378
 4380poe    c3117989   1.489   7.133   4.543 -0.0978 -0.1615  0.4036
 4380poe     o217990   1.485   6.994   4.563 -0.2952 -0.2715 -0.3788
 4380poe    c2317991   1.607   6.945   4.615 -0.1998  0.1565 -0.1896
 4380poe    c2317992   1.609   6.791   4.607 -0.1481  0.1439  0.0669
 4380poe     o217993   1.502   6.733   4.678 -0.0848  0.5049  0.4556
 4380poe    c2317994   1.486   6.595   4.653  0.2771  0.5572 -0.0808
 4380poe    c2317995   1.397   6.578   4.529  0.0735  0.5080  0.0729
 4380poe     o217996   1.427   6.622   4.399 -0.5622  0.0209 -0.2437
 4380poe    c2317997   1.427   6.523   4.298 -0.2665 -0.1042 -0.1202
 4380poe    c2317998   1.560   6.447   4.275 -0.0194  0.1903  0.3132
 4380poe     o217999   1.613   6.391   4.393 -0.4989 -0.2693  0.3121
 4380poe    c3118000   1.684   6.272   4.366 -0.0298 -0.2213  1.3130
 4381poe    c3118001   3.450   5.696   1.012  0.0984  0.1995 -0.3893
 4381poe     o218002   3.424   5.596   0.916 -0.5653  0.1140 -0.1245
 4381poe    c2318003   3.418   5.670   0.796 -0.7602  0.2032 -0.0591
 4381poe    c2318004   3.358   5.595   0.675 -0.1328 -0.4252  0.0127
 4381poe     o218005   3.429   5.482   0.630  0.1437 -0.1815 -0.1676
 4381poe    c2318006   3.403   5.453   0.494 -0.2074  0.1855 -0.1809
 4381poe    c2318007   3.476   5.323   0.455  0.0850  0.1396  0.4974
 4381poe     o218008   3.616   5.335   0.457  0.0680  0.4205  0.1066
 4381poe    c2318009   3.676   5.260   0.560 -0.1390  0.0754 -0.0209
 4381poe    c2318010   3.758   5.138   0.515 -0.2073  0.2363 -0.5853
 4381poe     o218011   3.743   5.041   0.616  0.4687  0.0421 -0.6676
 4381poe    c3118012   3.816   4.921   0.602 -0.0372 -0.3696  0.1527
 4382poe    c3118013   1.443   1.435   6.139  0.1278 -0.6873  0.6038
 4382poe     o218014   1.487   1.351   6.035 -0.0284  0.1676 -0.1606
 4382poe    c2318015   1.469   1.216   6.070  0.6392  0.2717  0.6301
 4382poe    c2318016   1.537   1.123   5.968 -0.0475  0.3253  0.1131
 4382poe     o218017   1.675   1.119   5.993 -0.1242 -0.4641  0.4459
 4382poe    c2318018   1.747   1.048   5.895  0.1832  0.5321 -0.0604
 4382poe    c2318019   1.891   1.030   5.946  0.2706  0.2502 -0.4045
 4382poe     o218020   1.962   1.152   5.947  0.0536  0.3753 -0.1778
 4382poe    c2318021   2.099   1.127   5.968  0.0940  0.0460 -0.8110
 4382poe    c2318022   2.167   1.238   6.050  0.5683 -0.7489 -0.1200
 4382poe     o218023   2.269   1.304   5.978 -0.0750 -0.0886 -0.4374
 4382poe    c3118024   2.365   1.353   6.069 -0.2607 -1.8652  0.7587
 4383poe    c3118025   6.003   3.776   2.125  0.1446 -0.0041 -0.2260
 4383poe     o218026   6.006   3.670   2.032  0.3518 -0.1455 -0.0595
 4383poe    c2318027   5.877   3.616   2.012  0.2130 -0.1017  0.6834
 4383poe    c2318028   5.886   3.466   1.979  0.3461  0.0599 -0.0385
 4383poe     o218029   5.918   3.425   1.848 -0.4333 -0.9225  0.0665
 4383poe    c2318030   5.820   3.454   1.751  0.3357  0.4391 -0.3278
 4383poe    c2318031   5.868   3.407   1.612 -0.2827 -0.2137 -0.3293
 4383poe     o218032   5.988   3.473   1.577 -0.0019 -0.5430  0.0029
 4383poe    c2318033   6.048   3.415   1.463 -0.6015 -0.3364 -0.4212
 4383poe    c2318034   6.029   3.468   1.320  0.1300 -0.1217 -0.4422
 4383poe     o218035   6.072   3.600   1.293 -0.2245  0.0070 -0.3918
 4383poe    c3118036   6.091   3.627   1.156 -0.0485  0.0801 -0.3533
 4384poe    c3118037   3.100   6.683   3.507 -0.2112 -0.1927 -0.1566
 4384poe     o218038   3.142   6.808   3.556  0.0123 -0.1139 -0.5479
 4384poe    c2318039   3.082   6.830   3.681 -0.2593  0.2870 -0.7459
 4384poe    c2318040   3.147   6.949   3.753  0.4049  0.0407 -0.9372
 4384poe     o218041   3.119   7.079   3.706  0.0984  0.5922  0.6821
 4384poe    c2318042   2.990   7.135   3.709 -0.3321 -0.3087 -0.3070
 4384poe    c2318043   2.988   7.288   3.692 -1.4563 -0.3637 -0.8307
 4384poe     o218044   2.971   7.326   3.557 -0.4337  0.0417 -0.8621
 4384poe    c2318045   2.967   7.467   3.554  0.1151  0.0762 -0.2145
 4384poe    c2318046   2.936   7.528   3.416  0.1041  1.0874  0.2268
 4384poe     o218047   3.049   7.506   3.335  0.0739  0.5027  0.3333
 4384poe    c3118048   3.033   7.594   3.225  0.5518  0.3336  0.1245
 4385poe    c3118049   1.618   2.758   1.593  0.0449  0.2494 -0.0715
 4385poe     o218050   1.635   2.633   1.530  0.0253  0.1038  0.2097
 4385poe    c2318051   1.773   2.609   1.513  0.0498  0.4131 -0.0356
 4385poe    c2318052   1.855   2.568   1.636 -0.8534 -0.0148  0.4337
 4385poe     o218053   1.861   2.664   1.739 -0.7306 -0.0274  0.4384
 4385poe    c2318054   1.988   2.667   1.799 -0.2990  0.2838 -0.4664
 4385poe    c2318055   1.974   2.751   1.927 -0.4838  0.2202 -0.4454
 4385poe     o218056   1.925   2.882   1.909 -0.3428  0.3311 -0.0350
 4385poe    c2318057   1.975   2.961   2.015  0.4802 -0.0720 -0.1157
 4385poe    c2318058   2.122   3.006   2.015  0.4686 -0.0299  0.2258
 4385poe     o218059   2.185   3.055   2.131  0.0432  0.1237  0.3936
 4385poe    c3118060   2.298   3.129   2.091 -0.3036  0.2825 -0.3076
 4386poe    c3118061   4.588   5.676   2.309 -0.1320  0.0706 -0.5120
 4386poe     o218062   4.475   5.593   2.324 -0.3986  0.3814 -0.7926
 4386poe    c2318063   4.384   5.654   2.413  0.1810  0.0371  0.0398
 4386poe    c2318064   4.268   5.560   2.449  0.2342 -0.1117 -0.1812
 4386poe     o218065   4.178   5.535   2.343  0.2799 -0.0490 -0.2357
 4386poe    c2318066   4.096   5.421   2.359  0.1285  0.1649  0.5344
 4386poe    c2318067   3.997   5.396   2.244  0.1933  0.3074  0.4478
 4386poe     o218068   4.078   5.379   2.130 -0.5807  0.1521 -0.0905
 4386poe    c2318069   3.992   5.351   2.022 -0.5406 -0.5207  0.0487
 4386poe    c2318070   4.077   5.322   1.897 -0.4851 -0.0199 -0.0334
 4386poe     o218071   4.209   5.366   1.919 -0.1576 -0.7418 -0.5319
 4386poe    c3118072   4.292   5.355   1.805 -0.3341 -0.9152 -0.6447
 4387poe    c3118073   0.856   6.947   5.833 -0.8927  0.4632  0.8165
 4387poe     o218074   0.942   6.897   5.933 -0.8249 -0.6251  0.2291
 4387poe    c2318075   0.970   6.759   5.918 -0.0359 -0.4470 -0.0160
 4387poe    c2318076   1.080   6.701   6.009  0.1306 -0.5768 -0.3005
 4387poe     o218077   1.082   6.561   6.026 -0.3625 -0.5231  0.2301
 4387poe    c2318078   0.958   6.517   6.075 -0.7337  0.5861  0.3275
 4387poe    c2318079   0.958   6.370   6.122 -0.1662  0.4877  0.0303
 4387poe     o218080   1.053   6.338   6.221 -0.2648 -0.4435 -0.1674
 4387poe    c2318081   1.106   6.207   6.223 -0.2044 -0.4153  0.0356
 4387poe    c2318082   1.242   6.204   6.294 -0.0252  0.5952 -0.2459
 4387poe     o218083   1.353   6.265   6.232  0.5131  0.4615  0.5535
 4387poe    c3118084   1.469   6.188   6.253  0.1116 -0.4444 -0.4435
 4388poe    c3118085   0.388   6.964   2.220 -0.1450  0.5716 -0.2191
 4388poe     o218086   0.397   7.088   2.154 -0.5702  0.6766 -0.0850
 4388poe    c2318087   0.286   7.107   2.069 -0.8251 -0.0113  0.0840
 4388poe    c2318088   0.266   7.258   2.042  0.3474  0.0077 -0.7363
 4388poe     o218089   0.227   7.328   2.158  0.3286 -0.3637 -0.5163
 4388poe    c2318090   0.208   7.461   2.116  0.4121 -0.1810  0.0139
 4388poe    c2318091   0.153   7.544   2.234  0.0274 -0.0953 -0.2230
 4388poe     o218092   0.016   7.526   2.259 -0.1164  0.1757 -0.7970
 4388poe    c2318093  -0.051   7.645   2.293  0.1456  0.0602  0.1432
 4388poe    c2318094  -0.203   7.625   2.275  0.1366  0.3436 -0.0964
 4388poe     o218095  -0.264   7.512   2.332 -0.4252  0.4383 -0.5057
 4388poe    c3118096  -0.361   7.450   2.250 -0.7072  0.2354 -0.0254
 4389poe    c3118097   0.528   6.609   6.653  0.6650  0.0430 -0.9074
 4389poe     o218098   0.520   6.471   6.622  0.7653 -0.2819  0.4392
 4389poe    c2318099   0.513   6.399   6.743 -0.1513 -0.3020  0.3863
 4389poe    c2318100   0.443   6.264   6.720 -0.4140 -0.0109 -0.5633
 4389poe     o218101   0.476   6.220   6.591  0.5617 -0.2145 -0.2478
 4389poe    c2318102   0.392   6.112   6.558  0.7262 -0.2610 -0.5226
 4389poe    c2318103   0.406   6.095   6.405  0.0851  0.3425 -0.6526
 4389poe     o218104   0.430   6.225   6.355  0.5790  0.4183 -0.2299
 4389poe    c2318105   0.510   6.233   6.239  0.3415  0.3826 -0.3986
 4389poe    c2318106   0.654   6.276   6.274  0.4006 -0.2661  0.1824
 4389poe     o218107   0.638   6.379   6.368 -0.4350 -0.8312  0.6657
 4389poe    c3118108   0.756   6.424   6.430 -0.2703 -0.1775 -0.0984
 4390poe    c3118109   2.224   7.052   0.532  0.9633  0.5806  0.1313
 4390poe     o218110   2.285   7.139   0.625  0.8778  0.5536  0.2133
 4390poe    c2318111   2.198   7.249   0.638 -0.1849 -0.2846  0.3963
 4390poe    c2318112   2.250   7.331   0.757  0.0207 -0.2334  0.2715
 4390poe     o218113   2.361   7.415   0.730 -0.1666 -0.0825 -0.0268
 4390poe    c2318114   2.369   7.534   0.804 -0.0364 -0.4055  0.4824
 4390poe    c2318115   2.507   7.603   0.795 -0.2218 -0.0851  0.0625
 4390poe     o218116   2.611   7.511   0.823 -0.1846 -0.0031  0.1930
 4390poe    c2318117   2.742   7.561   0.814 -0.0882 -0.4118 -0.8189
 4390poe    c2318118   2.840   7.457   0.873  0.3615  0.4880  0.0401
 4390poe     o218119   2.797   7.331   0.828 -0.0701  0.6315  0.0449
 4390poe    c3118120   2.880   7.229   0.880 -0.1427  0.4289 -0.2315
 4391poe    c3118121   3.730   0.646   6.668  0.0645  0.5602  0.4007
 4391poe     o218122   3.761   0.509   6.656 -0.1520  0.5672 -0.3008
 4391poe    c2318123   3.814   0.472   6.531 -0.4364 -0.1430 -0.2171
 4391poe    c2318124   3.967   0.462   6.524 -0.4031  0.0514  0.2048
 4391poe     o218125   4.035   0.352   6.580  0.4653  0.8661  0.7910
 4391poe    c2318126   4.173   0.380   6.579  0.5710  0.3609 -0.2640
 4391poe    c2318127   4.247   0.266   6.651  0.0545  0.0105 -0.2795
 4391poe     o218128   4.246   0.296   6.789 -0.2229 -0.3960 -0.1919
 4391poe    c2318129   4.343   0.217   6.855  0.4270 -0.1552 -0.8440
 4391poe    c2318130   4.367   0.251   7.003  0.4819 -0.4482 -0.7857
 4391poe     o218131   4.443   0.370   6.998  0.0081 -0.1489 -0.8739
 4391poe    c3118132   4.457   0.414   7.131 -0.7862 -0.8048 -0.5641
 4392poe    c3118133   3.143   6.609   1.076  0.5727 -0.1480  0.5893
 4392poe     o218134   3.087   6.688   1.178 -0.1954 -0.0154  0.0754
 4392poe    c2318135   3.041   6.807   1.116  0.0042 -0.2257 -0.4842
 4392poe    c2318136   2.894   6.841   1.148 -0.0018 -0.6822 -0.0090
 4392poe     o218137   2.879   6.911   1.269  0.3139 -0.2347 -0.2297
 4392poe    c2318138   2.743   6.929   1.302  0.3978  0.2117 -0.1095
 4392poe    c2318139   2.747   6.989   1.444  0.0403  0.0396 -0.0240
 4392poe     o218140   2.822   6.902   1.526 -0.1014 -0.2642 -0.2160
 4392poe    c2318141   2.787   6.927   1.661  0.6514  0.6563 -0.1891
 4392poe    c2318142   2.851   6.812   1.740  0.1686  0.4328 -0.1207
 4392poe     o218143   2.847   6.694   1.664 -0.3801 -0.2193  0.9022
 4392poe    c3118144   2.904   6.586   1.735  0.7021 -0.5556 -0.4382
 4393poe    c3118145   5.604   4.090   3.187 -0.9865  0.5114  0.2999
 4393poe     o218146   5.528   4.014   3.278 -0.4880  0.0025  0.2950
 4393poe    c2318147   5.508   3.883   3.228 -0.1321  0.1362 -0.2060
 4393poe    c2318148   5.498   3.777   3.340  0.4128  0.0084 -0.2737
 4393poe     o218149   5.386   3.799   3.423  0.8933 -0.1033  0.4105
 4393poe    c2318150   5.382   3.716   3.537  0.5377 -0.2932  0.2604
 4393poe    c2318151   5.291   3.782   3.642 -0.3026  0.1006 -0.7006
 4393poe     o218152   5.372   3.881   3.701 -0.5873  0.0990 -0.3024
 4393poe    c2318153   5.300   3.972   3.781 -0.3474  0.3461 -0.3657
 4393poe    c2318154   5.406   4.069   3.836  0.1398 -0.0565 -0.5920
 4393poe     o218155   5.476   4.146   3.742  0.6250 -0.2760 -0.4171
 4393poe    c3118156   5.605   4.176   3.790  0.7020  0.3437 -1.0006
 4394poe    c3118157   6.557   4.884   4.217  0.3017  0.8412  0.2717
 4394poe     o218158   6.573   4.775   4.304 -0.1565  0.1509 -0.4901
 4394poe    c2318159   6.710   4.742   4.305 -0.1162  0.3100  0.3493
 4394poe    c2318160   6.752   4.627   4.398 -0.4439  0.1503  0.2984
 4394poe     o218161   6.753   4.652   4.537 -0.9179 -0.1851  0.3693
 4394poe    c2318162   6.803   4.546   4.615 -0.4643 -0.1199  0.1707
 4394poe    c2318163   6.838   4.584   4.760  0.5571  0.2363 -0.1587
 4394poe     o218164   6.923   4.492   4.827  0.0108 -0.3029 -0.1998
 4394poe    c2318165   6.955   4.543   4.955 -0.1802 -0.4856 -0.0793
 4394poe    c2318166   7.092   4.498   5.010  0.2065 -0.1685 -0.7700
 4394poe     o218167   7.106   4.359   5.031 -0.6085 -0.0839  0.4144
 4394poe    c3118168   7.236   4.332   5.078 -0.4913  0.2338  0.2730
 4395poe    c3118169   1.625   2.474   3.851  0.5981  0.0070 -0.5599
 4395poe     o218170   1.635   2.504   3.988 -0.2532 -0.1131 -0.4659
 4395poe    c2318171   1.606   2.390   4.067  0.0438  0.1070 -0.0342
 4395poe    c2318172   1.627   2.423   4.216 -0.3665 -0.4054  0.1388
 4395poe     o218173   1.763   2.427   4.251 -0.4234 -0.0570  0.3239
 4395poe    c2318174   1.772   2.424   4.392 -0.3496 -0.4653  0.3130
 4395poe    c2318175   1.915   2.443   4.447 -0.4235  0.0757  0.3285
 4395poe     o218176   1.984   2.326   4.408 -0.6758 -0.1252  0.4865
 4395poe    c2318177   2.118   2.331   4.449 -0.4864 -0.2437 -0.1145
 4395poe    c2318178   2.206   2.208   4.419  0.3763  0.2976  0.1261
 4395poe     o218179   2.208   2.173   4.283  0.3848 -0.2402  0.2622
 4395poe    c3118180   2.147   2.047   4.263 -0.0086 -0.0404  0.1974
 4396poe    c3118181   1.151   4.096   3.471  0.0583 -0.3552 -0.2460
 4396poe     o218182   1.117   4.123   3.338 -0.6114 -0.2272 -0.0517
 4396poe    c2318183   1.059   4.251   3.325  0.5200  0.2641 -0.3876
 4396poe    c2318184   1.026   4.314   3.188  0.3814 -0.3891 -0.6552
 4396poe     o218185   0.912   4.397   3.186  0.6150 -0.0628 -0.4316
 4396poe    c2318186   0.916   4.457   3.059 -0.3499 -0.1939 -0.5336
 4396poe    c2318187   0.969   4.600   3.038 -0.1276 -0.1606  0.2149
 4396poe     o218188   0.860   4.682   3.073 -0.2332 -0.0866 -0.2794
 4396poe    c2318189   0.909   4.808   3.115  0.2274 -0.2921 -0.1924
 4396poe    c2318190   0.798   4.889   3.184  0.6535 -0.4733  0.7168
 4396poe     o218191   0.769   4.831   3.309  0.1638 -0.3821  0.6470
 4396poe    c3118192   0.832   4.894   3.418  0.4773  0.4073  0.0145
 4397poe    c3118193   2.677   6.736   2.236  0.6607  0.2190  0.1322
 4397poe     o218194   2.667   6.709   2.374  0.1867  0.4152  0.1410
 4397poe    c2318195   2.536   6.734   2.420 -0.2697 -0.4960 -0.6196
 4397poe    c2318196   2.532   6.639   2.541  0.7171  0.6020  0.2990
 4397poe     o218197   2.644   6.553   2.549  0.5040  0.3404  0.5079
 4397poe    c2318198   2.624   6.450   2.643 -0.1459 -0.0097 -0.0016
 4397poe    c2318199   2.760   6.385   2.675  0.2301  0.3994 -0.7350
 4397poe     o218200   2.857   6.477   2.718  0.3189 -0.0278  0.0005
 4397poe    c2318201   2.983   6.414   2.716  0.4415  0.2183 -0.1036
 4397poe    c2318202   3.097   6.505   2.766  0.5195  0.0053  0.1056
 4397poe     o218203   3.112   6.618   2.683  0.1832 -0.1473 -0.1669
 4397poe    c3118204   3.225   6.686   2.734  0.1524  0.5643 -1.0311
 4398poe    c3118205   4.631   1.360   1.406  0.6376 -0.2132 -0.5093
 4398poe     o218206   4.735   1.436   1.464 -0.1086  0.0144  0.5531
 4398poe    c2318207   4.731   1.411   1.603 -0.2851  0.3571  0.6121
 4398poe    c2318208   4.853   1.494   1.649  0.1173  0.2817 -0.2994
 4398poe     o218209   4.968   1.454   1.578  0.0425  0.1686 -0.3577
 4398poe    c2318210   5.070   1.548   1.602  0.2759  0.0568 -0.8967
 4398poe    c2318211   5.181   1.510   1.502  0.5787 -0.3597 -0.4062
 4398poe     o218212   5.120   1.524   1.375 -0.0185 -0.2961 -0.1174
 4398poe    c2318213   5.211   1.512   1.268  0.3760 -0.4969  0.2356
 4398poe    c2318214   5.171   1.548   1.123  0.1448 -0.0117  0.4167
 4398poe     o218215   5.098   1.449   1.055  0.4086 -0.0165  0.1399
 4398poe    c3118216   5.022   1.503   0.949  1.2983  0.1158 -0.4439
 4399poe    c3118217   1.656   4.973   6.213  0.3205 -0.3327  0.0456
 4399poe     o218218   1.713   4.985   6.341  0.2137  0.6983 -0.0000
 4399poe    c2318219   1.653   5.093   6.410 -0.3391  0.4982 -0.1636
 4399poe    c2318220   1.750   5.130   6.524 -0.2071 -0.0506 -0.0932
 4399poe     o218221   1.781   5.023   6.610 -0.3324  0.2697  0.3511
 4399poe    c2318222   1.686   4.999   6.712 -0.5179  0.2742  0.1802
 4399poe    c2318223   1.765   4.952   6.836  0.1112  0.7463 -0.0390
 4399poe     o218224   1.876   4.896   6.768 -0.2519 -0.0407  0.0133
 4399poe    c2318225   1.954   4.828   6.864 -0.0831 -0.1734 -0.2185
 4399poe    c2318226   1.997   4.684   6.831  0.2358 -0.1543  0.1185
 4399poe     o218227   2.031   4.681   6.694 -0.5734  0.2658 -0.0907
 4399poe    c3118228   2.099   4.563   6.661  0.4838  0.7430  0.3580
 4400poe    c3118229   3.711   4.151   7.433  0.1542 -0.2108 -0.1579
 4400poe     o218230   3.767   4.278   7.407 -0.3095  0.0652  0.1649
 4400poe    c2318231   3.876   4.294   7.495  0.7043  0.3127 -1.1102
 4400poe    c2318232   3.889   4.437   7.550  0.2932 -0.1648  0.2637
 4400poe     o218233   3.918   4.541   7.460 -0.0949  0.2247  0.5868
 4400poe    c2318234   3.807   4.582   7.383  0.2333 -0.4817 -0.2782
 4400poe    c2318235   3.837   4.647   7.247  0.2706  0.1357  0.0235
 4400poe     o218236   3.895   4.561   7.151  0.1717 -0.1191  0.1949
 4400poe    c2318237   3.898   4.625   7.026 -0.1770  0.1223  0.3084
 4400poe    c2318238   3.927   4.557   6.891  0.3436  0.0154  0.4713
 4400poe     o218239   4.057   4.516   6.855  0.1553 -0.1946  0.0256
 4400poe    c3118240   4.067   4.415   6.757 -0.9449 -0.1501 -0.1403
 4401poe    c3118241   1.453   1.372   6.819  0.6486  1.5946  0.0192
 4401poe     o218242   1.515   1.268   6.891 -0.9513  0.3082 -0.4088
 4401poe    c2318243   1.494   1.138   6.840  0.0325  0.0297 -0.1350
 4401poe    c2318244   1.500   1.020   6.939  0.6748  0.3662  0.2352
 4401poe     o218245   1.617   1.025   7.018  0.6884 -0.1152  0.2477
 4401poe    c2318246   1.609   0.934   7.125  0.5642 -0.0809  0.2683
 4401poe    c2318247   1.747   0.930   7.194  0.4159 -0.1343  0.5645
 4401poe     o218248   1.853   0.860   7.133  0.0967  0.2384 -0.4380
 4401poe    c2318249   1.967   0.926   7.185 -0.1016  0.0199  0.2888
 4401poe    c2318250   2.091   0.884   7.104  0.4039  0.2254  0.9522
 4401poe     o218251   2.102   0.743   7.093  0.1409  0.3149 -0.6247
 4401poe    c3118252   2.210   0.721   7.005  0.1386 -0.2423 -0.4873
 4402poe    c3118253   0.811   2.421   0.435 -0.3826  0.5592 -0.0853
 4402poe     o218254   0.817   2.404   0.575 -0.7814  0.2682 -0.1011
 4402poe    c2318255   0.711   2.316   0.606 -0.1943 -0.3813  0.1030
 4402poe    c2318256   0.730   2.196   0.699 -0.0277 -0.6209 -0.2384
 4402poe     o218257   0.822   2.101   0.649  0.2437 -0.2968 -0.3512
 4402poe    c2318258   0.892   2.036   0.753  0.5674 -0.1311 -0.4621
 4402poe    c2318259   0.977   1.911   0.723  0.0621 -0.6359  0.1672
 4402poe     o218260   1.064   1.947   0.618 -0.2532 -0.2453  0.0362
 4402poe    c2318261   1.141   1.833   0.589 -0.4799 -0.3384 -0.2026
 4402poe    c2318262   1.262   1.853   0.496 -0.3597  0.8197  0.1849
 4402poe     o218263   1.227   1.866   0.360  0.3893 -0.6722 -0.1717
 4402poe    c3118264   1.342   1.877   0.279  0.5678  0.4788  0.2142
 4403poe    c3118265   5.649   0.920   7.319 -0.6572 -0.5398 -0.0567
 4403poe     o218266   5.612   0.799   7.257 -0.4154 -0.7262  0.1613
 4403poe    c2318267   5.503   0.823   7.170 -0.4227  0.6437  0.5244
 4403poe    c2318268   5.456   0.693   7.102 -0.0588  0.5775  0.3962
 4403poe     o218269   5.523   0.656   6.984 -0.4904 -0.1387  0.3688
 4403poe    c2318270   5.466   0.541   6.926 -0.2870  0.1215 -0.3638
 4403poe    c2318271   5.549   0.506   6.801 -0.0232 -0.5968  0.0040
 4403poe     o218272   5.688   0.526   6.817 -0.1464  0.3020  0.0092
 4403poe    c2318273   5.755   0.447   6.721 -0.3650 -0.0511  0.1413
 4403poe    c2318274   5.901   0.415   6.757 -0.3489  0.1303  0.2431
 4403poe     o218275   5.971   0.533   6.786  0.0683  0.0582 -0.4351
 4403poe    c3118276   6.103   0.494   6.820 -0.1293 -0.2849 -0.0478
 4404poe    c3118277   3.706   2.075   7.456  0.4244 -0.3107 -0.0070
 4404poe     o218278   3.601   1.993   7.502  0.1728 -0.1771 -0.3417
 4404poe    c2318279   3.536   1.914   7.405 -0.7099  0.2432 -0.1133
 4404poe    c2318280   3.413   1.846   7.468 -0.4251  0.4245  0.6391
 4404poe     o218281   3.444   1.774   7.586  0.0166  0.2780  0.4366
 4404poe    c2318282   3.325   1.739   7.653 -0.2464 -0.3303 -0.3209
 4404poe    c2318283   3.357   1.711   7.801  0.5558  0.1137 -0.4026
 4404poe     o218284   3.394   1.821   7.881 -0.1077 -0.1646  0.2988
 4404poe    c2318285   3.337   1.800   8.009 -0.2154  0.6170  0.3861
 4404poe    c2318286   3.348   1.920   8.105 -0.2891  0.1419  0.9892
 4404poe     o218287   3.482   1.935   8.144 -0.2291  0.0949  0.8010
 4404poe    c3118288   3.483   2.050   8.225 -0.2668  0.7607 -0.1332
 4405poe    c3118289   2.279   1.967   3.099 -0.1243 -0.1261  0.1731
 4405poe     o218290   2.203   1.890   3.189 -0.1453  1.0386  1.1826
 4405poe    c2318291   2.290   1.832   3.284  0.4057  0.3921  0.3007
 4405poe    c2318292   2.216   1.714   3.351  0.2707  0.2840 -0.0350
 4405poe     o218293   2.094   1.773   3.389  0.0677 -0.0025 -0.2486
 4405poe    c2318294   2.003   1.669   3.420 -0.1689  0.2857  0.0315
 4405poe    c2318295   1.868   1.733   3.453  0.3256  1.1372  0.4294
 4405poe     o218296   1.817   1.790   3.334 -0.2222 -0.0903  0.0591
 4405poe    c2318297   1.686   1.840   3.345 -0.0887  0.2310  0.2193
 4405poe    c2318298   1.599   1.789   3.228  0.0597  0.5699 -0.0402
 4405poe     o218299   1.654   1.817   3.101  0.0597  0.0218 -0.1652
 4405poe    c3118300   1.585   1.749   2.999  0.0274 -0.3497  0.1019
 4406poe    c3118301   3.325   7.357   4.721 -0.0368  0.4184  0.0055
 4406poe     o218302   3.398   7.262   4.646 -0.2199  0.1166  0.2052
 4406poe    c2318303   3.496   7.185   4.711 -0.1638  0.0383  0.0269
 4406poe    c2318304   3.605   7.128   4.617 -0.1089  0.1630  0.0144
 4406poe     o218305   3.580   7.000   4.565  0.0360 -0.0808  0.5338
 4406poe    c2318306   3.697   6.921   4.575  0.1351 -0.0545 -0.3298
 4406poe    c2318307   3.684   6.795   4.662  1.0480  0.2405  0.2424
 4406poe     o218308   3.656   6.828   4.796  0.0312 -0.0230  0.1021
 4406poe    c2318309   3.676   6.719   4.882 -0.0583 -0.2731 -0.1926
 4406poe    c2318310   3.639   6.762   5.026  0.3493 -0.8648  0.0961
 4406poe     o218311   3.508   6.811   5.039  0.5270 -0.2260 -0.4139
 4406poe    c3118312   3.483   6.882   5.158 -0.4449 -0.9931 -0.1400
 4407poe    c3118313   6.946   2.489   4.641 -0.5291  0.0686  0.3642
 4407poe     o218314   7.044   2.451   4.547 -0.7591 -0.3498  0.2920
 4407poe    c2318315   7.141   2.376   4.617 -0.2220  0.2215  0.1723
 4407poe    c2318316   7.214   2.283   4.519 -0.4085  0.1599  0.0923
 4407poe     o218317   7.144   2.168   4.475 -0.2566  0.1350 -0.0886
 4407poe    c2318318   7.093   2.182   4.345  0.2553  0.3000 -0.2723
 4407poe    c2318319   6.952   2.124   4.328  0.2092  0.3971 -0.2182
 4407poe     o218320   6.838   2.181   4.390  0.1739  0.2994 -0.1930
 4407poe    c2318321   6.813   2.110   4.509 -0.7408  0.1501 -0.4708
 4407poe    c2318322   6.675   2.142   4.568 -0.6652 -0.1618 -0.1211
 4407poe     o218323   6.667   2.283   4.560 -0.7347 -0.2095 -0.9476
 4407poe    c3118324   6.560   2.329   4.638 -0.3706 -0.6044 -0.2087
 4408poe    c3118325   7.050   4.162   7.601  0.0806 -0.1050  0.2202
 4408poe     o218326   7.039   4.300   7.622 -0.0476  0.1288 -1.2716
 4408poe    c2318327   7.163   4.366   7.625 -0.2021  0.3987  0.4450
 4408poe    c2318328   7.149   4.475   7.517  0.0000  0.2837  0.3010
 4408poe     o218329   7.258   4.563   7.501 -0.0224  0.3436  0.4654
 4408poe    c2318330   7.235   4.663   7.404 -0.1622  0.2881  0.4403
 4408poe    c2318331   7.351   4.763   7.386  0.0051  0.0411  0.1300
 4408poe     o218332   7.392   4.807   7.514 -0.1049  0.1118  0.1422
 4408poe    c2318333   7.520   4.756   7.546 -0.0887 -0.1020 -0.2512
 4408poe    c2318334   7.645   4.827   7.491  0.2035 -0.2301  0.2436
 4408poe     o218335   7.766   4.768   7.532  0.1861 -0.6300 -0.2640
 4408poe    c3118336   7.879   4.842   7.491  0.2266 -0.0573  0.8446
 4409poe    c3118337   4.932   3.357   6.821  0.0310 -0.5878  0.1094
 4409poe     o218338   5.043   3.296   6.883  0.3814  0.0962  0.1649
 4409poe    c2318339   5.125   3.401   6.929  0.1802  0.3484 -0.0482
 4409poe    c2318340   5.260   3.350   6.984  0.1742  0.6123  0.2136
 4409poe     o218341   5.256   3.287   7.110 -0.4563  0.0770 -0.0676
 4409poe    c2318342   5.383   3.261   7.164 -0.6586 -0.2016  0.2711
 4409poe    c2318343   5.380   3.257   7.318  0.2399  0.4204  0.3138
 4409poe     o218344   5.303   3.151   7.371 -0.0450  0.0440 -0.8234
 4409poe    c2318345   5.337   3.128   7.506 -0.2663 -0.1136 -0.7933
 4409poe    c2318346   5.275   3.010   7.582 -0.0344  0.0549 -0.3340
 4409poe     o218347   5.139   3.022   7.618 -0.0224 -0.5493 -0.0764
 4409poe    c3118348   5.090   2.897   7.662 -0.4354 -0.5625 -0.5570
 4410poe    c3118349   2.750   2.437   7.513 -0.1562  0.2724  0.1421
 4410poe     o218350   2.624   2.474   7.461 -0.1131  0.1399 -0.0583
 4410poe    c2318351   2.581   2.374   7.372  0.4317 -0.3436  0.2151
 4410poe    c2318352   2.428   2.381   7.357  0.4328 -0.3386  0.2062
 4410poe     o218353   2.370   2.402   7.484  0.4840  0.2378  0.1347
 4410poe    c2318354   2.229   2.395   7.484  0.4785  0.3287 -0.3840
 4410poe    c2318355   2.172   2.420   7.625  0.1578 -0.4103 -0.3811
 4410poe     o218356   2.264   2.372   7.721  0.1666 -0.4832 -0.4252
 4410poe    c2318357   2.217   2.383   7.854  0.5313  0.5399 -0.3689
 4410poe    c2318358   2.320   2.381   7.968 -0.2048  0.1274  0.2946
 4410poe     o218359   2.416   2.278   7.969 -0.2320  0.0992 -0.0443
 4410poe    c3118360   2.506   2.298   8.076  0.1103 -0.2416 -0.2639
 4411poe    c3118361   7.106   1.642   5.641 -0.3974 -0.0142 -0.3952
 4411poe     o218362   7.188   1.570   5.731  0.2338  0.0912 -0.8748
 4411poe    c2318363   7.324   1.597   5.705  0.2875  0.2325 -0.4561
 4411poe    c2318364   7.435   1.571   5.809  0.4492  0.7192 -0.5048
 4411poe     o218365   7.447   1.438   5.853  0.5467  0.7233 -0.5185
 4411poe    c2318366   7.574   1.410   5.906  0.1416 -0.3582 -0.0785
 4411poe    c2318367   7.620   1.265   5.930  0.5286 -0.1639  0.3697
 4411poe     o218368   7.548   1.202   6.033 -0.2815 -0.0542 -0.1226
 4411poe    c2318369   7.518   1.067   6.004 -0.2282  0.0004 -0.4307
 4411poe    c2318370   7.513   0.972   6.125  0.1994  0.5695  0.0427
 4411poe     o218371   7.397   1.014   6.195 -0.1147  0.0187 -0.1383
 4411poe    c3118372   7.354   0.908   6.277 -0.1080 -0.2509 -0.4810
 4412poe    c3118373   2.328   1.905   2.607  0.7296 -0.3430  0.5488
 4412poe     o218374   2.250   1.840   2.510  0.1943  0.4788  0.4188
 4412poe    c2318375   2.297   1.889   2.386 -0.4235  0.0773  0.0162
 4412poe    c2318376   2.225   1.826   2.266 -0.3811 -0.0330  0.0485
 4412poe     o218377   2.087   1.849   2.279 -0.3363  0.3026 -0.0726
 4412poe    c2318378   2.019   1.816   2.160 -0.2626  0.4044 -0.1437
 4412poe    c2318379   1.871   1.861   2.163 -0.4887 -0.3184 -0.2143
 4412poe     o218380   1.870   2.002   2.161  0.0783 -0.2949  0.7915
 4412poe    c2318381   1.741   2.055   2.178 -0.1304 -0.4365 -0.3194
 4412poe    c2318382   1.764   2.207   2.175 -0.4364 -0.3765  0.2043
 4412poe     o218383   1.816   2.273   2.061 -0.3844  0.0377  0.4641
 4412poe    c3118384   1.877   2.395   2.096  0.2996 -0.0088 -0.5327
 4413poe    c3118385   1.790   4.901   1.532 -0.7463 -0.1283 -0.0533
 4413poe     o218386   1.772   4.761   1.546  0.1425 -0.2866 -0.3914
 4413poe    c2318387   1.857   4.720   1.650 -0.4249 -0.3327  0.0635
 4413poe    c2318388   1.786   4.602   1.720 -0.1329 -0.4587  0.1521
 4413poe     o218389   1.670   4.564   1.650 -0.0677 -0.1961 -0.1042
 4413poe    c2318390   1.594   4.466   1.718 -0.3319  0.3454  0.3861
 4413poe    c2318391   1.467   4.432   1.638 -0.3370 -0.0199  0.5485
 4413poe     o218392   1.402   4.550   1.595  0.0104  0.0045  0.0772
 4413poe    c2318393   1.278   4.519   1.535 -0.2983  0.6760  0.3618
 4413poe    c2318394   1.226   4.623   1.434 -0.5106 -0.1756 -0.4182
 4413poe     o218395   1.309   4.643   1.322  0.2331  0.3102  0.2101
 4413poe    c3118396   1.248   4.693   1.206 -0.5016 -0.3624  0.2980
 4414poe    c3118397   0.861   2.393   6.321  0.6370 -0.1939 -0.2513
 4414poe     o218398   0.876   2.273   6.249  0.6337 -0.4299  0.1400
 4414poe    c2318399   0.840   2.291   6.114 -0.2274 -0.1025  0.4051
 4414poe    c2318400   0.754   2.182   6.047  0.0328 -0.2231  0.2638
 4414poe     o218401   0.626   2.171   6.105 -0.1138  0.1431  0.0156
 4414poe    c2318402   0.609   2.130   6.239 -0.6410 -0.2013 -0.1516
 4414poe    c2318403   0.459   2.158   6.257 -0.4933  0.2713  0.3550
 4414poe     o218404   0.380   2.071   6.180  0.0246 -0.1750  0.3244
 4414poe    c2318405   0.249   2.122   6.174  0.1082 -0.0144 -0.1811
 4414poe    c2318406   0.157   2.028   6.094 -0.3697  0.0797  0.2445
 4414poe     o218407   0.204   2.050   5.962 -0.6291 -0.2419  0.0988
 4414poe    c3118408   0.098   2.033   5.871 -0.1201  0.1480 -0.5748
 4415poe    c3118409   3.725   4.881   3.929  0.6862 -0.4535 -0.0534
 4415poe     o218410   3.627   4.887   4.030 -0.0318 -0.3274 -0.7446
 4415poe    c2318411   3.526   4.790   4.012 -0.2612 -0.1584 -0.3903
 4415poe    c2318412   3.481   4.717   4.140  0.6414  0.6346  0.3916
 4415poe     o218413   3.396   4.791   4.224  0.1012  0.2355  0.1979
 4415poe    c2318414   3.321   4.700   4.301 -0.1456  0.2138 -0.0668
 4415poe    c2318415   3.207   4.763   4.384 -0.3413 -0.3947  0.1349
 4415poe     o218416   3.101   4.832   4.322 -0.0886  0.0430  0.1883
 4415poe    c2318417   2.980   4.761   4.310 -0.1079  0.0965  0.0595
 4415poe    c2318418   2.863   4.828   4.236 -0.3560 -0.1223  0.2484
 4415poe     o218419   2.806   4.943   4.294 -0.1745 -0.0166  0.2199
 4415poe    c3118420   2.734   4.915   4.411  0.5185  0.6021  0.8043
 4416poe    c3118421   3.618   7.132   1.929 -1.0380 -0.3868  0.5507
 4416poe     o218422   3.658   7.071   2.050  0.3768 -0.5415  0.0256
 4416poe    c2318423   3.596   6.952   2.093 -0.2576 -0.2418 -0.0477
 4416poe    c2318424   3.657   6.817   2.051  0.1268  0.0933 -0.5742
 4416poe     o218425   3.787   6.794   2.102 -0.1753 -0.2865  0.0250
 4416poe    c2318426   3.844   6.676   2.050 -0.0151 -0.0953 -0.2343
 4416poe    c2318427   3.980   6.634   2.109 -0.0896  0.5488  0.4220
 4416poe     o218428   4.067   6.743   2.089  0.0328  0.3957  0.0993
 4416poe    c2318429   4.192   6.725   2.151 -0.2736 -0.1296  0.5744
 4416poe    c2318430   4.285   6.848   2.146 -0.0256 -0.3330  0.0550
 4416poe     o218431   4.251   6.956   2.230 -0.6185 -0.4446 -0.0343
 4416poe    c3118432   4.338   7.065   2.212 -0.8454 -0.3322 -0.4630
 4417poe    c3118433   6.233   3.434   5.604 -0.4303  0.4226 -0.1819
 4417poe     o218434   6.345   3.420   5.519 -0.2225 -0.3392  0.2160
 4417poe    c2318435   6.351   3.509   5.410  0.6870 -0.5100  0.1161
 4417poe    c2318436   6.436   3.430   5.309  0.7648 -0.1079 -0.1337
 4417poe     o218437   6.574   3.439   5.338  0.6261  0.1948  0.4593
 4417poe    c2318438   6.649   3.329   5.290 -0.2125 -0.2285  0.0937
 4417poe    c2318439   6.795   3.348   5.335 -0.0497 -0.1374 -0.4707
 4417poe     o218440   6.856   3.460   5.274 -0.2047  0.1560 -0.0901
 4417poe    c2318441   6.971   3.485   5.353  0.0915 -0.2131 -0.3985
 4417poe    c2318442   7.102   3.510   5.277  0.2190 -0.3442 -0.2215
 4417poe     o218443   7.105   3.630   5.202  0.1415 -0.1581  0.0715
 4417poe    c3118444   7.239   3.651   5.165  0.0200  0.5999  0.0566
 4418poe    c3118445   1.769   0.947   2.021  0.0335 -0.2884 -0.0256
 4418poe     o218446   1.729   1.004   2.143  0.4001 -0.3340  0.1182
 4418poe    c2318447   1.765   0.922   2.252 -0.1046 -0.0211  0.5274
 4418poe    c2318448   1.916   0.903   2.275 -0.0843 -0.4475  0.0719
 4418poe     o218449   1.969   0.980   2.381 -0.1959 -0.5024  0.1678
 4418poe    c2318450   2.075   1.070   2.358  0.0026 -0.7778  0.0097
 4418poe    c2318451   2.194   1.044   2.452  0.2257  0.0912 -0.0299
 4418poe     o218452   2.325   1.083   2.419 -0.0879  0.3533 -0.9842
 4418poe    c2318453   2.393   1.004   2.324 -0.2779 -0.3237 -0.5595
 4418poe    c2318454   2.363   0.999   2.173  0.0060 -0.5176 -0.6105
 4418poe     o218455   2.439   0.899   2.108  0.4025 -0.7992  0.2740
 4418poe    c3118456   2.425   0.915   1.969 -0.3751 -0.0638  0.4304
 4419poe    c3118457   5.734   2.415   1.274  0.0776  0.3376  0.1821
 4419poe     o218458   5.619   2.466   1.209  0.1201  0.1378 -0.0501
 4419poe    c2318459   5.609   2.603   1.239  0.4268  0.0709  0.3846
 4419poe    c2318460   5.505   2.676   1.151  0.1884 -0.4304  0.2479
 4419poe     o218461   5.378   2.621   1.178 -0.1202  0.1595  0.0025
 4419poe    c2318462   5.272   2.710   1.151 -0.1573  0.1037 -0.0364
 4419poe    c2318463   5.167   2.697   1.262 -0.1006  0.1833  0.0272
 4419poe     o218464   5.100   2.574   1.278  0.0817  0.0896  0.0661
 4419poe    c2318465   5.057   2.530   1.405  0.1919 -0.2171 -0.0029
 4419poe    c2318466   4.952   2.417   1.397  0.5356 -0.5075 -0.5182
 4419poe     o218467   5.008   2.315   1.317  0.3524 -0.3311 -0.8747
 4419poe    c3118468   4.907   2.217   1.331 -0.0783  0.1666 -0.4337
 4420poe    c3118469   6.786   2.711   1.711 -0.2872  0.4571 -0.5260
 4420poe     o218470   6.859   2.805   1.786  0.3275  0.1838 -0.7737
 4420poe    c2318471   6.762   2.890   1.845 -0.1360 -0.6225 -0.3643
 4420poe    c2318472   6.788   2.925   1.993 -0.2620 -0.3470 -0.4076
 4420poe     o218473   6.906   2.995   2.024 -0.4792  0.0569 -0.4836
 4420poe    c2318474   6.900   3.015   2.164  0.2512 -0.3250 -0.3919
 4420poe    c2318475   7.016   3.105   2.209 -0.1327 -0.2267  0.4076
 4420poe     o218476   7.003   3.227   2.139  0.0317 -0.2509  0.3372
 4420poe    c2318477   7.078   3.334   2.192  0.2588  0.0219 -0.5188
 4420poe    c2318478   7.032   3.395   2.326  0.2739  0.2279 -0.6062
 4420poe     o218479   6.903   3.450   2.319  0.2858  0.3205 -0.1163
 4420poe    c3118480   6.922   3.580   2.369  0.1628  0.4052 -0.2874
 4421poe    c3118481   2.135   7.100   4.210 -0.0924 -0.0119  0.2943
 4421poe     o218482   2.010   7.042   4.182 -0.0951  0.0697  0.1368
 4421poe    c2318483   2.019   6.944   4.081 -0.4745  0.0546  0.1145
 4421poe    c2318484   1.876   6.888   4.066  0.0663 -1.1312 -0.7515
 4421poe     o218485   1.786   6.957   3.983  0.0167  0.2056  0.3781
 4421poe    c2318486   1.743   7.080   4.036 -0.0239  0.6947 -0.7609
 4421poe    c2318487   1.635   7.158   3.959 -0.4176  0.4171 -0.4911
 4421poe     o218488   1.507   7.102   3.980 -0.1666  0.0761  0.1536
 4421poe    c2318489   1.466   7.000   3.892 -0.1957  0.1417  0.0915
 4421poe    c2318490   1.425   7.034   3.747  0.3560  0.2658 -0.0359
 4421poe     o218491   1.299   7.097   3.738  0.1316 -0.1410  0.2285
 4421poe    c3118492   1.281   7.158   3.612 -0.1850  0.1808  0.4321
 4422poe    c3118493   1.354   7.284   1.023 -0.0084 -0.1549 -0.8111
 4422poe     o218494   1.455   7.376   1.054 -0.4712 -0.0279  0.3580
 4422poe    c2318495   1.539   7.337   1.161 -0.1444 -0.1011  0.0757
 4422poe    c2318496   1.658   7.434   1.176 -0.1685 -0.0372 -0.1363
 4422poe     o218497   1.624   7.570   1.167  0.0141  0.0796  0.8173
 4422poe    c2318498   1.732   7.651   1.208  0.3078  0.6980 -1.0592
 4422poe    c2318499   1.700   7.798   1.238 -0.1955  0.3505  0.2141
 4422poe     o218500   1.618   7.816   1.351 -0.5051  0.5001 -0.0304
 4422poe    c2318501   1.646   7.947   1.394  0.3531  0.2807  0.1042
 4422poe    c2318502   1.622   7.956   1.546  0.3403 -0.3522  0.1410
 4422poe     o218503   1.714   7.880   1.621  0.6246  0.0416  0.1942
 4422poe    c3118504   1.702   7.901   1.760 -0.8193 -0.2215  0.1279
 4423poe    c3118505   0.143   2.787   0.005  0.5451 -0.5337  0.2255
 4423poe     o218506   0.153   2.891   0.099 -0.1371 -0.2017 -0.0648
 4423poe    c2318507   0.067   3.002   0.080 -0.0210 -0.0122  0.4918
 4423poe    c2318508   0.137   3.129   0.131  0.0327  0.1414  0.0364
 4423poe     o218509   0.133   3.144   0.271 -0.6629  0.2251  0.0112
 4423poe    c2318510   0.143   3.282   0.301  0.4546  0.0524  0.4695
 4423poe    c2318511   0.214   3.313   0.434 -0.1974 -0.2682  0.8961
 4423poe     o218512   0.351   3.286   0.421 -0.3054 -0.4327  0.0648
 4423poe    c2318513   0.426   3.361   0.514 -0.3010 -0.0417 -0.2506
 4423poe    c2318514   0.563   3.314   0.567 -0.2471 -0.0566 -0.4028
 4423poe     o218515   0.561   3.183   0.620  0.2332  0.0584 -0.0977
 4423poe    c3118516   0.684   3.128   0.664  0.1788 -0.0165 -0.0385
 4424poe    c3118517   1.027   5.044   2.484 -0.1712 -0.1335 -1.0260
 4424poe     o218518   1.001   5.180   2.456 -0.1510  0.0051 -0.4017
 4424poe    c2318519   0.861   5.197   2.450 -0.1936 -0.2605 -0.1611
 4424poe    c2318520   0.834   5.348   2.438 -0.6004 -0.3095  0.1552
 4424poe     o218521   0.695   5.369   2.448 -0.5931 -0.0390 -0.3111
 4424poe    c2318522   0.649   5.502   2.436  0.1835  0.2314 -0.3301
 4424poe    c2318523   0.500   5.523   2.469  0.1567 -1.0175  0.4153
 4424poe     o218524   0.471   5.535   2.607 -0.5674  0.3241  0.1632
 4424poe    c2318525   0.503   5.660   2.663  0.3001 -0.1340  0.6973
 4424poe    c2318526   0.379   5.751   2.661  0.0767 -0.4508 -0.0256
 4424poe     o218527   0.300   5.729   2.776 -0.0180  0.3459  0.0676
 4424poe    c3118528   0.200   5.828   2.786 -0.2095  0.1392  0.2102
 4425poe    c3118529   1.708   5.228   0.665 -0.5008 -0.7169 -0.0167
 4425poe     o218530   1.747   5.314   0.560 -0.1550 -0.5826  0.2214
 4425poe    c2318531   1.857   5.266   0.486 -0.3125  0.0215 -0.4119
 4425poe    c2318532   1.881   5.338   0.352 -0.1824  0.2408 -0.2703
 4425poe     o218533   1.762   5.334   0.275 -0.2894 -0.6429 -0.0637
 4425poe    c2318534   1.787   5.384   0.146 -0.0002 -0.3446  0.1044
 4425poe    c2318535   1.658   5.440   0.083  0.0918 -0.2186  0.0283
 4425poe     o218536   1.608   5.566   0.123  0.1291 -0.1328 -0.1958
 4425poe    c2318537   1.683   5.679   0.084  0.2384 -0.2179 -0.2308
 4425poe    c2318538   1.598   5.792   0.025  0.4891  0.2065  0.2097
 4425poe     o218539   1.495   5.843   0.106  0.5903 -0.0416  0.4935
 4425poe    c3118540   1.372   5.833   0.039  0.5734 -0.0693  0.5283
 4426poe    c3118541   2.197   6.691   2.655  0.5422  0.2595  0.1354
 4426poe     o218542   2.110   6.802   2.654  0.0440 -0.1222 -0.1438
 4426poe    c2318543   2.162   6.909   2.731  0.1424  0.1547 -0.5920
 4426poe    c2318544   2.085   7.030   2.675 -0.2584  0.2271  0.0994
 4426poe     o218545   1.949   6.994   2.682 -0.1157 -0.3279 -0.0124
 4426poe    c2318546   1.862   7.096   2.640 -0.0015 -0.5020 -0.6930
 4426poe    c2318547   1.714   7.072   2.676  0.0484  0.2473  0.0437
 4426poe     o218548   1.683   6.938   2.644 -0.0178  0.2850 -0.0497
 4426poe    c2318549   1.552   6.898   2.674  0.3206 -0.2209  0.8021
 4426poe    c2318550   1.520   6.748   2.653  0.1146 -0.0423 -0.2623
 4426poe     o218551   1.562   6.702   2.527  0.0176  0.1262 -0.3569
 4426poe    c3118552   1.489   6.594   2.473  0.1849 -0.4486  0.5354
 4427poe    c3118553   6.342   1.072   5.950  0.3801  0.0389  0.2567
 4427poe     o218554   6.432   1.018   5.856  0.5729  0.3024  0.2885
 4427poe    c2318555   6.462   1.129   5.774  0.2943  0.4244  0.3527
 4427poe    c2318556   6.530   1.071   5.649 -0.0004  0.7224  0.0511
 4427poe     o218557   6.445   0.991   5.570  0.5850 -0.1692  0.3017
 4427poe    c2318558   6.472   0.999   5.431  0.7258  0.3709  0.3585
 4427poe    c2318559   6.409   0.884   5.351 -0.1302  1.2282 -0.2232
 4427poe     o218560   6.275   0.847   5.376  0.3048 -0.2939 -0.0414
 4427poe    c2318561   6.219   0.776   5.268 -0.2538  0.1845 -0.0716
 4427poe    c2318562   6.067   0.777   5.293 -0.1797  0.4807  0.3875
 4427poe     o218563   6.029   0.675   5.382 -0.1851 -0.0502 -0.2153
 4427poe    c3118564   5.891   0.651   5.370 -0.1928 -0.1153 -0.0049
 4428poe    c3118565   4.414   0.542   4.453  0.5784  0.2398  0.0325
 4428poe     o218566   4.376   0.439   4.364  0.7260 -0.1161  0.3771
 4428poe    c2318567   4.350   0.328   4.447  0.2672 -0.1796  0.1526
 4428poe    c2318568   4.351   0.185   4.389  0.1389 -0.0444 -0.1861
 4428poe     o218569   4.235   0.113   4.422 -0.3318  0.5519 -0.5278
 4428poe    c2318570   4.229   0.005   4.331 -0.3120  0.5091 -0.4784
 4428poe    c2318571   4.098  -0.074   4.348 -0.0347  0.2035  0.2773
 4428poe     o218572   4.095  -0.156   4.462 -0.2460  0.4987  0.4847
 4428poe    c2318573   3.988  -0.248   4.449  0.1244  0.1139  0.1490
 4428poe    c2318574   3.961  -0.301   4.591 -0.0092 -0.8967 -0.2475
 4428poe     o218575   3.928  -0.193   4.675  0.4869 -0.2914 -0.8233
 4428poe    c3118576   3.942  -0.232   4.810  0.9819  0.4589 -0.6541
 4429poe    c3118577   1.260   0.694   6.896 -0.3363 -0.8692  0.3364
 4429poe     o218578   1.258   0.784   7.005  0.5874  0.4205 -0.6782
 4429poe    c2318579   1.140   0.860   7.018  0.5844  0.2472  0.3600
 4429poe    c2318580   1.162   0.967   7.126 -0.2721  0.5003  0.2901
 4429poe     o218581   1.176   0.931   7.261  0.8056  0.0607  0.0686
 4429poe    c2318582   1.150   1.040   7.347 -0.3449  0.3742 -0.6547
 4429poe    c2318583   1.272   1.131   7.372 -0.1822 -0.2598  0.9583
 4429poe     o218584   1.375   1.065   7.441  0.1869 -0.3925  0.2867
 4429poe    c2318585   1.473   1.166   7.451 -0.5558  0.2942  0.7310
 4429poe    c2318586   1.567   1.177   7.572  0.6169  0.3702 -0.1701
 4429poe     o218587   1.580   1.308   7.623 -0.0429  0.2077  0.4338
 4429poe    c3118588   1.657   1.296   7.740  0.2722  0.0163  0.2113
 4430poe    c3118589   1.398   3.441   6.848  0.3262 -0.9064 -0.3675
 4430poe     o218590   1.392   3.510   6.725 -0.0603 -0.2365  0.0237
 4430poe    c2318591   1.261   3.536   6.681 -0.0356 -0.1093  0.0241
 4430poe    c2318592   1.245   3.653   6.581 -0.4851  0.0319  0.2597
 4430poe     o218593   1.294   3.770   6.642  0.6054 -0.1050 -0.3401
 4430poe    c2318594   1.288   3.883   6.557  0.4156  0.4799  0.4359
 4430poe    c2318595   1.285   4.017   6.632  0.2889  0.4724  0.4433
 4430poe     o218596   1.405   4.030   6.704  0.8041 -0.3615 -0.2451
 4430poe    c2318597   1.435   4.161   6.747 -0.4817 -0.1347 -0.0043
 4430poe    c2318598   1.563   4.183   6.830 -0.6489  0.0299  0.2138
 4430poe     o218599   1.661   4.143   6.736 -0.5067  0.1780  0.2993
 4430poe    c3118600   1.788   4.161   6.795 -0.3265  0.4323 -0.1565
 4431poe    c3118601   3.981   0.700   1.821  0.3567 -0.2463  0.0393
 4431poe     o218602   3.906   0.682   1.703 -0.0278  0.5109  0.1602
 4431poe    c2318603   3.955   0.577   1.622 -0.1763  0.6102 -0.0591
 4431poe    c2318604   3.916   0.576   1.473 -0.3605  0.5069 -0.0101
 4431poe     o218605   3.779   0.611   1.461 -0.6082 -0.3793  0.1623
 4431poe    c2318606   3.709   0.501   1.407  0.0656 -0.6717 -0.1326
 4431poe    c2318607   3.592   0.552   1.321  0.4786 -0.8140 -0.7875
 4431poe     o218608   3.506   0.639   1.390  0.9400 -0.7229 -0.3218
 4431poe    c2318609   3.400   0.684   1.307  0.3300 -0.1645  0.7325
 4431poe    c2318610   3.284   0.743   1.389 -0.1218  0.0555 -0.0590
 4431poe     o218611   3.255   0.646   1.488  0.2897  0.1527  0.1597
 4431poe    c3118612   3.119   0.642   1.524  0.1345  0.5406 -0.3645
 4432poe    c3118613   6.435   3.494   2.800  0.2430 -0.3111  0.2070
 4432poe     o218614   6.527   3.588   2.749 -0.4063  0.1522 -0.1288
 4432poe    c2318615   6.587   3.553   2.627  0.3282 -0.1594  0.3106
 4432poe    c2318616   6.708   3.458   2.638  0.3753 -0.1021  0.2867
 4432poe     o218617   6.680   3.322   2.658 -0.2378 -0.0344 -0.0888
 4432poe    c2318618   6.797   3.245   2.676 -0.2599  0.0246  0.3157
 4432poe    c2318619   6.766   3.097   2.708 -0.3644 -0.0442 -0.0997
 4432poe     o218620   6.701   3.037   2.598 -0.2170  0.0022 -0.2137
 4432poe    c2318621   6.729   2.900   2.617  0.9343  0.1765 -0.6009
 4432poe    c2318622   6.700   2.846   2.476  0.1012  0.0403 -0.3846
 4432poe     o218623   6.573   2.891   2.436  0.1907  0.3954 -0.2682
 4432poe    c3118624   6.540   2.822   2.318 -0.5907 -0.1006  0.2260
 4433poe    c3118625   5.780   6.948   6.958 -0.4868  0.2172  0.5039
 4433poe     o218626   5.724   7.039   6.866 -0.4400 -0.0926  0.1661
 4433poe    c2318627   5.622   7.125   6.912 -0.3953 -0.3290  0.7127
 4433poe    c2318628   5.634   7.267   6.853  0.0209 -0.4828  0.4223
 4433poe     o218629   5.755   7.325   6.896 -0.0355  0.0494 -0.1181
 4433poe    c2318630   5.735   7.440   6.975 -0.0020  0.1546 -0.2634
 4433poe    c2318631   5.827   7.543   6.907  0.1866  0.0235 -0.2062
 4433poe     o218632   5.952   7.485   6.876  0.1376 -0.0989 -0.1749
 4433poe    c2318633   6.051   7.575   6.832  0.2568 -0.3316 -0.3864
 4433poe    c2318634   6.054   7.583   6.678 -0.2817 -0.1125 -0.3864
 4433poe     o218635   6.032   7.468   6.599  1.1052 -0.4796 -0.2561
 4433poe    c3118636   6.063   7.493   6.464 -0.0551  0.1687 -0.4177
 4434poe    c3118637   1.078   5.278   1.245  0.1259  0.3905  0.2215
 4434poe     o218638   1.077   5.160   1.167  0.0965  0.4287  0.1645
 4434poe    c2318639   1.203   5.099   1.180  0.1913  0.7015  0.5416
 4434poe    c2318640   1.254   5.057   1.041 -0.2473 -0.7289  0.7980
 4434poe     o218641   1.143   4.989   0.985 -0.5387  0.0392  0.4276
 4434poe    c2318642   1.167   4.955   0.850 -0.3405  0.3590  0.3798
 4434poe    c2318643   1.058   4.874   0.778 -0.0250  0.0195  0.2811
 4434poe     o218644   1.020   4.774   0.870 -0.1171 -0.1174  0.0954
 4434poe    c2318645   0.963   4.680   0.782 -0.0755  0.3165 -0.4023
 4434poe    c2318646   0.829   4.612   0.816  0.2350 -0.0882  0.0260
 4434poe     o218647   0.724   4.703   0.788  0.4247  0.0575 -0.2146
 4434poe    c3118648   0.629   4.624   0.721  0.7807 -0.6048  0.0496
 4435poe    c3118649   3.146   5.158   3.035 -0.2880  0.3069  0.3085
 4435poe     o218650   3.125   5.041   3.110  0.1816 -0.0390 -0.0962
 4435poe    c2318651   3.048   4.941   3.048 -0.2238  0.5788 -0.6033
 4435poe    c2318652   2.898   4.949   3.082 -0.0911  0.0031  0.1509
 4435poe     o218653   2.882   4.935   3.222  0.4261 -0.7365  0.1423
 4435poe    c2318654   2.742   4.927   3.242  0.3356 -0.6421 -0.4267
 4435poe    c2318655   2.674   4.924   3.380  0.7921 -0.3328 -0.1925
 4435poe     o218656   2.692   5.042   3.455 -0.3019 -0.4343  0.2421
 4435poe    c2318657   2.673   5.010   3.591 -0.1943 -0.4203  0.2599
 4435poe    c2318658   2.774   5.095   3.672 -0.2115 -0.2197  0.0735
 4435poe     o218659   2.914   5.100   3.658 -0.2353 -0.4882 -0.2836
 4435poe    c3118660   2.956   5.132   3.528 -0.2996  0.3272 -0.1074
 4436poe    c3118661   6.037   5.751   7.336 -0.2288  0.1197  0.4630
 4436poe     o218662   6.109   5.870   7.307  0.3874 -0.3630 -0.0212
 4436poe    c2318663   6.100   5.960   7.415  0.7428 -0.4278  0.0624
 4436poe    c2318664   6.155   6.099   7.379 -0.2731 -0.0702 -0.1355
 4436poe     o218665   6.075   6.172   7.288  0.0581  0.2040 -0.2081
 4436poe    c2318666   6.152   6.266   7.217  0.2273 -0.0766 -0.3986
 4436poe    c2318667   6.054   6.342   7.125 -0.5851 -0.3073  0.2598
 4436poe     o218668   5.960   6.430   7.180 -0.3839 -0.0298  0.1604
 4436poe    c2318669   5.884   6.497   7.082 -0.1570  0.1220  0.0864
 4436poe    c2318670   5.797   6.611   7.139  0.3969  0.2196  0.7445
 4436poe     o218671   5.700   6.554   7.224 -0.3404 -0.1850 -0.3490
 4436poe    c3118672   5.644   6.643   7.318 -0.1764 -0.4264 -0.0191
 4437poe    c3118673   5.069   4.540   1.844  0.0069 -0.4248  0.0782
 4437poe     o218674   5.153   4.441   1.899 -0.0763 -0.1945  0.6171
 4437poe    c2318675   5.284   4.460   1.851 -0.2016 -0.5414  0.1410
 4437poe    c2318676   5.394   4.414   1.948  0.1933 -0.3518 -0.2119
 4437poe     o218677   5.427   4.510   2.046  0.4907  0.1505 -0.8023
 4437poe    c2318678   5.541   4.593   2.037  0.2576  0.5101 -0.4787
 4437poe    c2318679   5.561   4.684   2.159 -0.5736 -0.1768  0.1891
 4437poe     o218680   5.476   4.796   2.157  0.2286  0.4440  0.1343
 4437poe    c2318681   5.538   4.882   2.250  0.2162  0.3472  0.2317
 4437poe    c2318682   5.449   4.919   2.370  0.2243  0.3681  0.2311
 4437poe     o218683   5.343   5.011   2.353  0.2374  0.4812  0.7297
 4437poe    c3118684   5.378   5.133   2.293 -0.3540  0.4508  0.3102
 4438poe    c3118685   6.542   2.651   5.054  0.4433  0.1571  0.2461
 4438poe     o218686   6.413   2.699   5.086  0.2128 -0.0565 -0.3624
 4438poe    c2318687   6.345   2.586   5.136 -0.2419 -0.0953 -1.0397
 4438poe    c2318688   6.209   2.636   5.188 -0.1054 -0.4144 -0.3640
 4438poe     o218689   6.162   2.720   5.085  0.2016  0.0608 -0.1192
 4438poe    c2318690   6.046   2.679   5.017  0.0653 -0.0028  0.1484
 4438poe    c2318691   5.918   2.651   5.099  0.1956 -0.4604  0.1959
 4438poe     o218692   5.907   2.529   5.170 -0.1530 -0.3574  0.3193
 4438poe    c2318693   5.853   2.420   5.100 -0.0879 -0.2190  0.0492
 4438poe    c2318694   5.721   2.444   5.024  0.2379  0.7126 -0.2243
 4438poe     o218695   5.616   2.496   5.104  0.1738  0.1401  0.0686
 4438poe    c3118696   5.490   2.483   5.043 -0.0365  0.2174  0.4892
 4439poe    c3118697   0.267   2.042   0.879  0.2124 -0.3670 -0.1176
 4439poe     o218698   0.268   1.984   1.008 -0.2664  0.0475  0.0786
 4439poe    c2318699   0.371   2.028   1.094 -0.0491  0.2625 -0.2870
 4439poe    c2318700   0.324   2.011   1.240 -0.0273 -0.1680 -0.3283
 4439poe     o218701   0.223   2.102   1.276  0.2163  0.1762 -0.5106
 4439poe    c2318702   0.236   2.130   1.414  0.7548  0.4418 -0.6120
 4439poe    c2318703   0.124   2.222   1.465  0.1798 -0.0786 -0.9119
 4439poe     o218704   0.003   2.153   1.483  0.0799  0.2233 -0.3977
 4439poe    c2318705  -0.093   2.223   1.559  0.3784  0.0162  0.1753
 4439poe    c2318706  -0.155   2.137   1.671 -0.4317  0.1583 -0.1566
 4439poe     o218707  -0.256   2.044   1.640  0.4653 -0.5987 -0.8672
 4439poe    c3118708  -0.270   1.952   1.746  0.2591  0.4314  0.0102
 4440poe    c3118709   1.780   0.968   4.136 -0.5417 -0.3026  0.4555
 4440poe     o218710   1.647   0.920   4.135 -0.4410 -0.5888  0.5857
 4440poe    c2318711   1.649   0.808   4.049  0.3778  0.0228 -0.2088
 4440poe    c2318712   1.505   0.800   3.996  0.1461  1.1755  0.2158
 4440poe     o218713   1.489   0.856   3.868  0.1091 -0.0311 -0.3166
 4440poe    c2318714   1.480   0.996   3.865  0.4438 -0.0031 -0.0312
 4440poe    c2318715   1.466   1.042   3.719  0.6503 -0.2288 -0.1209
 4440poe     o218716   1.352   0.986   3.659  0.5082  0.1136 -0.1702
 4440poe    c2318717   1.322   1.032   3.529 -0.1111 -0.3682 -0.2050
 4440poe    c2318718   1.201   0.952   3.477 -0.4469  0.3108 -0.4794
 4440poe     o218719   1.221   0.813   3.492 -0.4517  0.3985  0.3993
 4440poe    c3118720   1.138   0.727   3.418 -0.1338  0.1621  0.3165
 4441poe    c3118721   1.630   4.588   0.562  0.3176 -0.2030  1.2528
 4441poe     o218722   1.742   4.562   0.481 -0.4529 -0.4935  0.2535
 4441poe    c2318723   1.728   4.595   0.344 -0.0950 -0.4065  0.2376
 4441poe    c2318724   1.826   4.511   0.259  0.2412  0.0104  0.2077
 4441poe     o218725   1.811   4.371   0.266  0.2179  0.0164  0.2681
 4441poe    c2318726   1.700   4.333   0.189  0.2117  0.3470  0.1153
 4441poe    c2318727   1.712   4.187   0.144 -0.6112  0.2951  0.0355
 4441poe     o218728   1.719   4.108   0.261 -0.3672  0.2394 -0.0158
 4441poe    c2318729   1.675   3.975   0.244  0.4042 -0.0627  0.3102
 4441poe    c2318730   1.750   3.879   0.150 -0.3463 -0.2741 -0.0781
 4441poe     o218731   1.887   3.878   0.183 -0.3177 -0.0189 -0.1880
 4441poe    c3118732   1.964   3.776   0.123 -0.1396 -0.3466  0.5948
 4442poe    c3118733   0.739   3.211   6.269 -0.0464 -0.7729 -0.4597
 4442poe     o218734   0.604   3.248   6.292  0.2316  0.2007 -0.3505
 4442poe    c2318735   0.598   3.382   6.336 -0.0768  0.0397  0.1010
 4442poe    c2318736   0.450   3.424   6.335  0.0595  0.5130  0.0042
 4442poe     o218737   0.375   3.319   6.389  0.8238  0.1791  0.4266
 4442poe    c2318738   0.249   3.360   6.437  0.5993  0.2850 -0.2506
 4442poe    c2318739   0.168   3.238   6.486  0.7328  0.1882 -0.2699
 4442poe     o218740   0.155   3.142   6.384 -0.8899  0.4273 -0.3177
 4442poe    c2318741   0.096   3.028   6.441 -0.1365  0.1848 -0.0025
 4442poe    c2318742   0.095   2.918   6.333  0.3116 -0.0745  0.2569
 4442poe     o218743   0.226   2.872   6.310  0.2143 -0.4338  0.4142
 4442poe    c3118744   0.197   2.750   6.246 -0.1539  0.2102 -0.6693
 4443poe    c3118745   1.987   3.941   0.848  0.0673  0.4804  0.0338
 4443poe     o218746   1.864   3.967   0.912  0.2636 -0.5402  0.8553
 4443poe    c2318747   1.787   3.851   0.931 -0.0623 -0.5425 -0.4078
 4443poe    c2318748   1.794   3.783   1.069  0.3966  0.1908 -0.0627
 4443poe     o218749   1.762   3.875   1.171  0.5181  0.1574  0.0047
 4443poe    c2318750   1.785   3.802   1.290  0.7018  0.3343  0.0782
 4443poe    c2318751   1.757   3.883   1.418  0.4087 -0.0397  0.2508
 4443poe     o218752   1.803   4.016   1.421  0.1147  0.0721 -0.1125
 4443poe    c2318753   1.721   4.101   1.497  0.1844 -0.3543  0.4387
 4443poe    c2318754   1.748   4.249   1.466 -0.5014 -0.1783  0.6656
 4443poe     o218755   1.696   4.273   1.337  0.4318 -0.1198  0.2941
 4443poe    c3118756   1.714   4.412   1.330 -0.4256  0.0253  0.7933
 4444poe    c3118757   7.595   4.157   0.813  0.5003 -0.5306  0.2921
 4444poe     o218758   7.681   4.178   0.923  0.1005 -0.2636  0.5575
 4444poe    c2318759   7.626   4.117   1.038 -0.0426 -0.5130  0.3603
 4444poe    c2318760   7.728   4.107   1.153  0.0701 -0.0168  0.3079
 4444poe     o218761   7.838   4.026   1.121  0.2425  0.3144  0.0544
 4444poe    c2318762   7.917   4.006   1.237  0.3203 -0.1621 -0.0787
 4444poe    c2318763   7.985   3.868   1.230  0.7218  0.0387 -0.1984
 4444poe     o218764   8.009   3.810   1.357  0.2988 -0.2733 -0.2567
 4444poe    c2318765   8.106   3.871   1.439 -0.3510  0.0744  0.2671
 4444poe    c2318766   8.067   3.862   1.587  0.5670  0.2539  0.5230
 4444poe     o218767   7.971   3.953   1.636  0.3457  0.3041 -0.0067
 4444poe    c3118768   8.019   4.073   1.692  0.4445  0.2408  0.0441
 4445poe    c3118769   3.394   2.486   4.635  0.3193  0.1766  0.0501
 4445poe     o218770   3.338   2.601   4.694  0.0746 -0.1061  0.3697
 4445poe    c2318771   3.261   2.655   4.589 -0.1324 -0.1476  0.4992
 4445poe    c2318772   3.203   2.788   4.641 -0.3979 -0.2741  0.5313
 4445poe     o218773   3.127   2.761   4.757 -0.1977 -0.3851  0.6381
 4445poe    c2318774   3.082   2.875   4.827 -0.4030  0.0585 -0.1947
 4445poe    c2318775   3.033   2.830   4.966 -0.1431 -0.0491 -0.1366
 4445poe     o218776   3.125   2.746   5.033 -0.5641 -0.6684 -0.3207
 4445poe    c2318777   3.108   2.750   5.173 -0.5166  0.4809 -0.3321
 4445poe    c2318778   3.238   2.693   5.233 -0.9124  0.1942  0.2668
 4445poe     o218779   3.258   2.559   5.191 -0.3110  0.2969  0.2133
 4445poe    c3118780   3.295   2.468   5.292  0.2740 -0.1798 -0.4221
 4446poe    c3118781   5.023   2.145   6.758  0.3292  0.7219 -0.5371
 4446poe     o218782   5.019   2.185   6.893  0.0237  0.1620 -0.3789
 4446poe    c2318783   5.060   2.075   6.973 -0.1249  0.3314 -0.0688
 4446poe    c2318784   5.034   2.110   7.120  0.0660 -0.2095  0.0927
 4446poe     o218785   4.909   2.153   7.170 -0.0220 -0.2847 -0.0633
 4446poe    c2318786   4.814   2.057   7.210  0.2252 -0.3648  0.3351
 4446poe    c2318787   4.712   2.105   7.314  0.3942  0.4453  0.1312
 4446poe     o218788   4.782   2.125   7.435  0.5373  0.2023  0.0898
 4446poe    c2318789   4.689   2.188   7.520 -0.2821 -0.3395 -0.3879
 4446poe    c2318790   4.740   2.250   7.652 -0.1209 -0.9001 -0.1839
 4446poe     o218791   4.831   2.177   7.732 -0.1953 -0.1999  0.5485
 4446poe    c3118792   4.765   2.086   7.816 -0.7578  0.1810  0.5294
 4447poe    c3118793   5.015   7.048   0.309  0.0286  0.1777  0.2668
 4447poe     o218794   5.042   7.171   0.372  0.4654  0.3373 -0.2235
 4447poe    c2318795   5.091   7.145   0.502  0.1720 -0.1607 -0.2112
 4447poe    c2318796   5.210   7.231   0.549  0.0527 -0.1806  0.1338
 4447poe     o218797   5.173   7.349   0.617  0.1622 -0.0260 -0.0718
 4447poe    c2318798   5.191   7.346   0.757  0.4925 -0.0491 -0.1138
 4447poe    c2318799   5.099   7.452   0.823  0.5424 -0.1414  0.1029
 4447poe     o218800   5.119   7.584   0.778 -0.4337  0.0227  0.1411
 4447poe    c2318801   5.038   7.678   0.844 -0.0972  0.2528  0.2242
 4447poe    c2318802   5.039   7.807   0.760  0.0639  0.0371 -0.1077
 4447poe     o218803   4.995   7.796   0.627  0.5037  0.5558 -0.2997
 4447poe    c3118804   4.861   7.837   0.615  0.0718 -0.4695  0.8379
 4448poe    c3118805   4.935   1.224   7.564  0.1796  0.3895 -0.3937
 4448poe     o218806   4.911   1.322   7.465  0.0395  0.5715 -0.1822
 4448poe    c2318807   4.937   1.453   7.510  0.3081  0.3126  0.4140
 4448poe    c2318808   4.845   1.557   7.445  0.0753 -0.3007 -0.2527
 4448poe     o218809   4.733   1.603   7.516  0.1174 -0.1781 -0.2654
 4448poe    c2318810   4.678   1.718   7.454 -0.2178 -0.4983 -0.5675
 4448poe    c2318811   4.542   1.755   7.517  0.4207 -0.1747  0.6709
 4448poe     o218812   4.460   1.641   7.532 -0.4936  0.1835 -1.2393
 4448poe    c2318813   4.351   1.688   7.609  0.0372 -0.4236 -0.0848
 4448poe    c2318814   4.245   1.581   7.576 -0.1151 -0.2854 -0.0468
 4448poe     o218815   4.288   1.450   7.609  0.3841 -0.0731  0.1587
 4448poe    c3118816   4.184   1.379   7.673  0.0518 -0.0080 -0.2991
 4449poe    c3118817   4.874   2.365   6.501 -0.3656 -0.4723  0.5838
 4449poe     o218818   4.739   2.403   6.488 -0.2691 -0.1483  0.5022
 4449poe    c2318819   4.689   2.365   6.362  0.5793  0.0929  0.0862
 4449poe    c2318820   4.560   2.440   6.324  0.3642 -0.1320  0.3703
 4449poe     o218821   4.475   2.457   6.436 -0.4952 -0.0714 -0.2767
 4449poe    c2318822   4.444   2.593   6.458 -0.0683 -0.0312  0.0794
 4449poe    c2318823   4.305   2.596   6.524 -0.4271  0.2671 -0.6853
 4449poe     o218824   4.313   2.544   6.655 -0.1351  0.5130 -0.6038
 4449poe    c2318825   4.190   2.551   6.724  0.4889  0.7020  0.5176
 4449poe    c2318826   4.203   2.546   6.877  0.6382  0.0521  0.4887
 4449poe     o218827   4.087   2.522   6.952  0.1809  0.1664 -0.1712
 4449poe    c3118828   4.113   2.565   7.084  0.1040  0.4228 -0.2397
 4450poe    c3118829   3.023   1.217   7.627 -0.2125  0.0801 -0.4533
 4450poe     o218830   3.128   1.239   7.536 -0.0266  0.2295 -0.2025
 4450poe    c2318831   3.185   1.367   7.551  0.0216  0.1863 -0.0172
 4450poe    c2318832   3.324   1.384   7.488  0.0245 -0.1610 -0.1099
 4450poe     o218833   3.331   1.344   7.353  0.0010 -0.3776 -0.0463
 4450poe    c2318834   3.460   1.354   7.297  0.0142 -0.7266 -0.0814
 4450poe    c2318835   3.445   1.346   7.144 -0.2271 -0.4187 -0.0768
 4450poe     o218836   3.400   1.220   7.099  0.2397 -0.6594  0.1294
 4450poe    c2318837   3.329   1.221   6.977  0.6703 -0.3249 -0.1232
 4450poe    c2318838   3.399   1.162   6.854  0.3388 -0.5595 -0.1994
 4450poe     o218839   3.496   1.259   6.821 -0.1247 -0.1248 -0.2940
 4450poe    c3118840   3.592   1.214   6.728  0.3695  0.2086  0.0477
 4451poe    c3118841   3.934   2.138   1.488  0.1523 -0.0543  0.2114
 4451poe     o218842   3.807   2.195   1.509  0.3705  0.4418  0.1957
 4451poe    c2318843   3.769   2.257   1.388  0.1880  0.2209  0.1391
 4451poe    c2318844   3.678   2.380   1.400 -0.4195 -0.1728 -0.3919
 4451poe     o218845   3.741   2.504   1.421  0.0518 -0.3747 -0.6078
 4451poe    c2318846   3.758   2.561   1.293 -0.3447  0.2642 -0.3837
 4451poe    c2318847   3.772   2.714   1.291 -0.1915  0.2556  0.0363
 4451poe     o218848   3.872   2.754   1.383 -0.1533  0.0815  0.0704
 4451poe    c2318849   3.939   2.873   1.349  0.0795 -0.0520  0.0647
 4451poe    c2318850   4.085   2.866   1.398  0.0979  0.3836  0.0760
 4451poe     o218851   4.147   2.746   1.355  0.4910  0.5372  0.2048
 4451poe    c3118852   4.279   2.744   1.403  0.5115 -1.1252  0.1331
 4452poe    c3118853   6.745   3.660   2.987  0.4498 -0.3362 -0.4452
 4452poe     o218854   6.799   3.545   3.048  0.5424  0.1700  0.4437
 4452poe    c2318855   6.926   3.508   3.000 -0.0837 -0.6943 -0.6009
 4452poe    c2318856   6.953   3.357   3.018  0.9194 -0.5135 -0.5135
 4452poe     o218857   6.981   3.317   3.151 -0.3672 -0.1810 -0.1282
 4452poe    c2318858   7.035   3.187   3.158 -0.3383 -0.1816 -0.3425
 4452poe    c2318859   7.066   3.158   3.306  0.6455  0.1478 -0.4757
 4452poe     o218860   7.169   3.239   3.359 -0.1339  0.5455  0.4748
 4452poe    c2318861   7.202   3.186   3.485 -0.5533  0.0140  0.3690
 4452poe    c2318862   7.291   3.288   3.558  0.7322 -0.1822 -0.8921
 4452poe     o218863   7.232   3.402   3.617 -0.1444 -0.7547 -0.6538
 4452poe    c3118864   7.129   3.385   3.712  0.7191  0.4265  0.5298
 4453poe    c3118865   7.522   6.883   5.657 -0.2012 -0.1684  0.3784
 4453poe     o218866   7.460   6.984   5.733 -0.5165 -0.3187  0.3250
 4453poe    c2318867   7.351   7.040   5.664  0.3708  0.8971 -0.1369
 4453poe    c2318868   7.286   7.144   5.757  0.1664  0.2508  0.4547
 4453poe     o218869   7.339   7.274   5.745 -0.0243  0.2734 -0.2389
 4453poe    c2318870   7.239   7.368   5.776 -0.0995  0.0292  0.2733
 4453poe    c2318871   7.274   7.514   5.741 -0.3894  0.3068  1.0935
 4453poe     o218872   7.326   7.573   5.857  0.2065  0.4029  0.7820
 4453poe    c2318873   7.394   7.694   5.830  0.1025  0.1635 -0.6254
 4453poe    c2318874   7.546   7.674   5.813  0.1261 -0.2238  0.0135
 4453poe     o218875   7.592   7.585   5.714  0.2076 -0.4313  0.2367
 4453poe    c3118876   7.654   7.658   5.610 -0.6176 -0.1728 -0.0778
 4454poe    c3118877   4.205   4.671   2.840  0.4208 -1.0537  0.7591
 4454poe     o218878   4.101   4.634   2.927 -0.7630  0.2678 -0.0631
 4454poe    c2318879   4.143   4.614   3.060 -0.0918  0.2189 -0.2786
 4454poe    c2318880   4.024   4.586   3.154  0.3482 -0.0574  0.1979
 4454poe     o218881   3.922   4.683   3.152  0.1241 -0.2989 -0.1004
 4454poe    c2318882   3.818   4.659   3.245 -0.3424  0.4733 -0.4105
 4454poe    c2318883   3.850   4.724   3.381  0.3966  0.2461 -0.4696
 4454poe     o218884   3.845   4.865   3.388  0.5007  0.2183  0.2112
 4454poe    c2318885   3.839   4.914   3.520 -0.7859  0.2696  0.1430
 4454poe    c2318886   3.805   5.064   3.530 -0.2910  0.3767  0.2594
 4454poe     o218887   3.870   5.147   3.437 -0.4409 -0.1127 -0.2892
 4454poe    c3118888   3.874   5.280   3.486  0.1376 -0.1605 -0.1999
 4455poe    c3118889   2.318   0.002   6.672 -0.1259  0.3527 -0.3382
 4455poe     o218890   2.275   0.105   6.585 -0.5113  0.5595  0.0882
 4455poe    c2318891   2.164   0.051   6.515  0.0655 -0.5124 -0.0334
 4455poe    c2318892   2.088   0.155   6.430 -0.1982 -0.9330 -0.3112
 4455poe     o218893   2.137   0.168   6.298  0.3994  0.0000 -0.0028
 4455poe    c2318894   2.071   0.274   6.233 -0.0713 -0.1595  0.2149
 4455poe    c2318895   2.051   0.271   6.080  0.0902 -0.2411  0.1947
 4455poe     o218896   2.176   0.315   6.032  0.1953 -0.3732  0.3477
 4455poe    c2318897   2.184   0.317   5.892  0.0936  0.7996  0.3484
 4455poe    c2318898   2.317   0.370   5.834  0.3518 -0.4884 -0.2696
 4455poe     o218899   2.423   0.283   5.864  0.1095 -0.4502  0.7132
 4455poe    c3118900   2.539   0.320   5.794 -0.3039 -0.0769  0.2223
 4456poe    c3118901   1.915   6.885   5.986 -0.3544  0.1649  0.2530
 4456poe     o218902   2.035   6.926   6.048  0.6099 -1.0700 -0.7392
 4456poe    c2318903   2.084   7.044   5.989  0.2710 -0.2306  0.6230
 4456poe    c2318904   2.188   7.022   5.878 -0.4367  0.1846 -0.1334
 4456poe     o218905   2.271   6.916   5.921 -1.0681 -0.2991 -0.0910
 4456poe    c2318906   2.368   6.873   5.828 -0.8517 -0.0844  0.0357
 4456poe    c2318907   2.338   6.807   5.692  0.4232 -0.0119 -0.2961
 4456poe     o218908   2.252   6.886   5.614  0.3282  0.1818  0.0014
 4456poe    c2318909   2.196   6.829   5.497  0.3346  0.5327 -0.1742
 4456poe    c2318910   2.304   6.802   5.391  0.0659  0.4564 -0.4276
 4456poe     o218911   2.377   6.684   5.414 -0.4221  0.1782 -0.2910
 4456poe    c3118912   2.514   6.701   5.384 -0.1172 -0.4978  0.6877
 4457poe    c3118913   2.257   4.055   0.053  0.0380 -0.3114 -0.2728
 4457poe     o218914   2.394   4.045   0.082  0.0037 -0.3210 -0.1101
 4457poe    c2318915   2.430   4.066   0.217  0.4173  0.2777 -0.3101
 4457poe    c2318916   2.579   4.035   0.238  0.3323  0.5918  0.7939
 4457poe     o218917   2.614   3.900   0.256  0.3316  0.4031 -0.5250
 4457poe    c2318918   2.734   3.895   0.330 -0.1632  0.1837  0.2838
 4457poe    c2318919   2.788   3.756   0.369  0.9903  0.4819 -0.1932
 4457poe     o218920   2.854   3.674   0.275  0.0847 -0.0214 -0.4108
 4457poe    c2318921   2.995   3.676   0.285  0.0729 -0.6479 -0.0783
 4457poe    c2318922   3.072   3.567   0.208  0.2544 -0.6412  0.0938
 4457poe     o218923   3.035   3.560   0.072  0.4195  0.0792  0.0071
 4457poe    c3118924   3.133   3.484   0.006 -0.0216 -0.1693 -0.3689
 4458poe    c3118925   0.097   0.463   7.374  0.2179  0.2598 -0.1856
 4458poe     o218926   0.177   0.404   7.473 -0.5228 -0.1713  0.1607
 4458poe    c2318927   0.120   0.352   7.591  0.4524 -0.1821  0.6380
 4458poe    c2318928   0.046   0.218   7.573 -0.0233  0.0838  0.5792
 4458poe     o218929   0.135   0.110   7.555  0.2021  0.3143  0.2944
 4458poe    c2318930   0.052  -0.003   7.535 -0.2720  0.6722  0.2265
 4458poe    c2318931   0.114  -0.141   7.566 -0.6845  0.4899  0.2448
 4458poe     o218932   0.139  -0.161   7.703  0.5787  0.4143  0.0145
 4458poe    c2318933   0.195  -0.289   7.723 -0.4058 -0.1372 -0.6689
 4458poe    c2318934   0.132  -0.345   7.852  1.0446 -0.2684  0.0040
 4458poe     o218935   0.126  -0.270   7.972  0.3579  0.1039 -0.2536
 4458poe    c3118936   0.235  -0.287   8.059  0.0444  0.2070  0.1599
 4459poe    c3118937   7.068   4.891   1.058 -0.2486 -0.3164  0.2024
 4459poe     o218938   6.965   4.916   0.965 -0.1828 -0.2692  0.1421
 4459poe    c2318939   6.997   4.882   0.832  0.2678  0.0728  0.1620
 4459poe    c2318940   6.998   4.730   0.803 -1.0140 -0.0060  0.4757
 4459poe     o218941   6.882   4.651   0.804 -0.6488 -0.5542 -0.0269
 4459poe    c2318942   6.912   4.554   0.706  0.3425 -0.0774 -0.2083
 4459poe    c2318943   6.799   4.449   0.700 -0.2088  0.4705  0.4316
 4459poe     o218944   6.792   4.358   0.807  0.1550 -0.0117  0.0474
 4459poe    c2318945   6.738   4.241   0.750 -0.7202  0.3172  0.1929
 4459poe    c2318946   6.763   4.122   0.844 -0.0841  0.5566  0.3333
 4459poe     o218947   6.900   4.095   0.867  0.0106  0.4471 -0.3535
 4459poe    c3118948   6.966   4.043   0.753 -0.4848 -0.4817 -0.2325
 4460poe    c3118949   5.387   3.567   5.339  0.4096  0.0104  0.0922
 4460poe     o218950   5.352   3.564   5.202 -0.4417 -0.0410  0.3058
 4460poe    c2318951   5.464   3.527   5.125 -0.2245  0.3715  0.4198
 4460poe    c2318952   5.451   3.506   4.973 -0.5699 -0.0330  0.5025
 4460poe     o218953   5.386   3.384   4.946 -0.1099 -0.2216  0.2463
 4460poe    c2318954   5.423   3.327   4.823 -0.5350  0.3313 -0.1378
 4460poe    c2318955   5.401   3.384   4.681  0.0582 -0.3832 -0.5247
 4460poe     o218956   5.268   3.365   4.638 -0.2498  0.1939  0.1491
 4460poe    c2318957   5.244   3.422   4.511 -0.2559  0.6331  0.3446
 4460poe    c2318958   5.121   3.342   4.464  0.3978 -0.2939  0.1674
 4460poe     o218959   5.003   3.345   4.542  0.3476  0.6106  0.0689
 4460poe    c3118960   4.896   3.428   4.505 -0.2935 -0.1771  0.1298
 4461poe    c3118961   2.427   6.436   2.047 -0.3613 -0.6007 -0.1478
 4461poe     o218962   2.453   6.415   1.910  0.1197  0.1533 -0.1733
 4461poe    c2318963   2.491   6.539   1.854  0.3704  0.3099  0.3301
 4461poe    c2318964   2.507   6.497   1.706 -0.2968 -0.0261  0.3511
 4461poe     o218965   2.392   6.442   1.645  0.0341  0.1086 -0.4008
 4461poe    c2318966   2.282   6.528   1.622  0.0402  0.3277  0.3559
 4461poe    c2318967   2.159   6.444   1.582  0.5643 -0.2289 -0.0933
 4461poe     o218968   2.134   6.334   1.667  0.6582 -0.3349 -0.2004
 4461poe    c2318969   2.010   6.272   1.641  0.1303  0.5634  0.1051
 4461poe    c2318970   1.892   6.302   1.736 -0.6622  0.1036 -0.7141
 4461poe     o218971   1.815   6.415   1.699 -0.2025  0.4676 -0.5718
 4461poe    c3118972   1.720   6.450   1.796  0.4844  0.2753  0.1817
 4462poe    c3118973   5.464   3.053   5.933 -0.0281 -0.2027 -0.5526
 4462poe     o218974   5.377   3.156   5.973  0.0598 -0.0960 -0.6345
 4462poe    c2318975   5.257   3.146   5.898 -0.4461 -0.1042  0.1628
 4462poe    c2318976   5.153   3.252   5.938 -0.0579  0.2284  0.2936
 4462poe     o218977   5.108   3.205   6.063  0.3078  0.0146  0.3483
 4462poe    c2318978   4.987   3.271   6.096  0.0832 -0.4969  0.5591
 4462poe    c2318979   4.951   3.211   6.233 -0.1510 -0.2442  0.6071
 4462poe     o218980   5.035   3.272   6.328  0.3820 -0.0178 -0.0001
 4462poe    c2318981   4.986   3.239   6.456  0.4477 -0.3339 -0.0548
 4462poe    c2318982   5.111   3.202   6.539  0.6588 -0.0699 -0.2571
 4462poe     o218983   5.223   3.283   6.510  0.3780  0.2480 -0.4704
 4462poe    c3118984   5.317   3.267   6.614 -0.4752  0.0241  0.2818
 4463poe    c3118985   7.050   4.838   5.523  0.0643  0.5042 -0.3286
 4463poe     o218986   7.077   4.904   5.644  0.0574 -0.2143  0.0734
 4463poe    c2318987   7.172   4.831   5.718 -0.4185 -0.2805  0.6306
 4463poe    c2318988   7.203   4.903   5.851  0.2181  1.2149 -0.2968
 4463poe     o218989   7.118   4.876   5.961  0.1917  0.0693 -0.5915
 4463poe    c2318990   7.179   4.778   6.042  0.1188  0.3949 -0.1443
 4463poe    c2318991   7.096   4.728   6.162  0.0116  0.9519  0.0145
 4463poe     o218992   6.967   4.681   6.130  0.2559  0.1897  0.1333
 4463poe    c2318993   6.897   4.650   6.248  0.0218  0.0387 -0.0441
 4463poe    c2318994   6.753   4.604   6.216 -0.1527  0.5553 -0.0160
 4463poe     o218995   6.689   4.707   6.144 -0.0694  0.5547 -0.0909
 4463poe    c3118996   6.552   4.683   6.122 -0.1479  0.6877  0.2542
 4464poe    c3118997   2.690   5.637   5.278  0.0927  0.4436  0.3753
 4464poe     o218998   2.629   5.737   5.199  0.4685 -0.0647 -0.5709
 4464poe    c2318999   2.512   5.695   5.134  0.1462  0.0011 -0.0373
 4464poe    c2319000   2.459   5.808   5.044 -0.3153  0.0109  0.2430
 4464poe     o219001   2.414   5.914   5.124 -0.2793  0.0686  0.1881
 4464poe    c2319002   2.430   6.033   5.051  0.4573 -0.2166 -0.1143
 4464poe    c2319003   2.376   6.158   5.124  0.5308 -0.0838 -0.2848
 4464poe     o219004   2.427   6.177   5.254  0.5954  0.3814 -0.3763
 4464poe    c2319005   2.391   6.300   5.312 -0.0002  0.0241  0.0266
 4464poe    c2319006   2.427   6.307   5.461 -0.3802  0.6705  0.0953
 4464poe     o219007   2.565   6.305   5.492 -0.3713 -0.6470  0.0650
 4464poe    c3119008   2.575   6.313   5.632  0.9167  0.7274 -0.0828
 4465poe    c3119009   0.894   1.466   6.770 -0.6517  0.3116  0.0290
 4465poe     o219010   0.819   1.584   6.792 -0.4770  0.3146  0.6258
 4465poe    c2319011   0.696   1.566   6.858 -0.4290 -0.3141  0.5575
 4465poe    c2319012   0.668   1.695   6.938  0.0002  0.1523 -0.0286
 4465poe     o219013   0.750   1.711   7.052  0.0999 -0.1436 -0.0560
 4465poe    c2319014   0.708   1.632   7.161 -0.3781 -0.5146 -0.4985
 4465poe    c2319015   0.583   1.676   7.240 -0.1443 -0.3206 -0.2305
 4465poe     o219016   0.600   1.794   7.314 -0.3165 -0.2657 -0.2779
 4465poe    c2319017   0.492   1.818   7.401  0.1403 -0.1894  0.2780
 4465poe    c2319018   0.496   1.967   7.441  0.0375 -0.1638  0.1947
 4465poe     o219019   0.461   2.066   7.348 -0.3851 -0.3750  0.1288
 4465poe    c3119020   0.321   2.083   7.339 -0.2877  0.1589 -0.5449
 4466poe    c3119021   4.425   4.683   5.538  0.6502  0.0406 -1.0344
 4466poe     o219022   4.387   4.551   5.506 -0.0377 -0.0440  0.1073
 4466poe    c2319023   4.473   4.503   5.406 -0.3077  0.0453 -0.1707
 4466poe    c2319024   4.433   4.531   5.260  0.0825  0.4596 -0.2005
 4466poe     o219025   4.336   4.444   5.205  0.2650  0.1498 -0.0381
 4466poe    c2319026   4.249   4.504   5.111  0.0644  0.8153  0.5666
 4466poe    c2319027   4.129   4.409   5.093 -0.0311  0.9276  0.6066
 4466poe     o219028   4.047   4.408   5.208 -0.5960  0.0693  0.2043
 4466poe    c2319029   3.934   4.326   5.188 -0.4505 -0.1555  0.2960
 4466poe    c2319030   3.869   4.300   5.326 -0.4563  0.5957  0.4392
 4466poe     o219031   3.961   4.247   5.418 -0.2316 -0.3132 -0.2954
 4466poe    c3119032   3.916   4.243   5.552  0.4667  0.0731 -0.0449
 4467poe    c3119033   0.301   2.436   4.749  0.3192  0.1050  0.0075
 4467poe     o219034   0.313   2.404   4.612  0.2673  0.0534  0.0148
 4467poe    c2319035   0.307   2.526   4.541  0.4642  0.0702  0.0275
 4467poe    c2319036   0.295   2.511   4.388 -0.5015 -0.4499  0.1475
 4467poe     o219037   0.420   2.459   4.348 -0.4174  0.1242 -0.3457
 4467poe    c2319038   0.443   2.470   4.209 -0.1051  0.1498 -0.2921
 4467poe    c2319039   0.567   2.387   4.169  0.3290  0.4379  0.4266
 4467poe     o219040   0.520   2.256   4.193 -0.1232  0.4885 -0.1482
 4467poe    c2319041   0.639   2.180   4.192 -0.4308  0.0038 -0.0103
 4467poe    c2319042   0.607   2.031   4.217 -1.0784  0.1039 -0.2286
 4467poe     o219043   0.597   2.001   4.355  0.4147 -0.2091 -0.1725
 4467poe    c3119044   0.473   1.935   4.375  0.2550 -0.0044 -0.4750
 4468poe    c3119045   4.368   4.055   3.787 -0.1264  0.0239  0.3907
 4468poe     o219046   4.496   4.029   3.839 -0.0277  0.4069  0.3415
 4468poe    c2319047   4.586   4.138   3.836  0.5584 -0.0786  0.0960
 4468poe    c2319048   4.564   4.255   3.934  0.4838  0.1674 -0.2166
 4468poe     o219049   4.569   4.225   4.071 -0.0219  0.2951 -0.1657
 4468poe    c2319050   4.695   4.173   4.110 -0.2025 -0.1633 -0.1804
 4468poe    c2319051   4.712   4.179   4.263  0.1083  0.3415 -0.2323
 4468poe     o219052   4.726   4.309   4.315 -0.3596  0.1544  0.3673
 4468poe    c2319053   4.731   4.304   4.456  0.1689 -0.2401  0.3375
 4468poe    c2319054   4.744   4.441   4.525 -0.0063 -0.0060 -0.0935
 4468poe     o219055   4.644   4.529   4.477  0.0426  0.2475  0.2655
 4468poe    c3119056   4.653   4.656   4.537  0.3646  0.1819  0.3592
 4469poe    c3119057   0.181   6.950   4.369  0.6499  0.3105 -0.0929
 4469poe     o219058   0.168   6.914   4.505  0.3810  0.1578 -0.1599
 4469poe    c2319059   0.051   6.845   4.542  0.4662  0.2321  0.2426
 4469poe    c2319060   0.067   6.802   4.690 -0.0684  0.1135  0.2696
 4469poe     o219061  -0.063   6.807   4.743 -0.3919 -0.5442 -0.4388
 4469poe    c2319062  -0.082   6.777   4.880 -0.4294  0.4121 -0.2295
 4469poe    c2319063  -0.079   6.904   4.967 -0.1269 -0.0392  0.4170
 4469poe     o219064   0.035   6.988   4.969 -0.2117  0.0896 -0.1790
 4469poe    c2319065   0.036   7.033   5.102  0.3337  0.0669 -0.1746
 4469poe    c2319066   0.146   7.120   5.165 -0.3805  0.5275  0.4534
 4469poe     o219067   0.267   7.059   5.203 -0.4461  0.1240  0.0198
 4469poe    c3119068   0.283   7.053   5.343  0.3499 -0.3128 -0.0871
 4470poe    c3119069   3.070   6.550   6.904  0.0106  0.4848 -0.1387
 4470poe     o219070   2.930   6.545   6.914  0.0529 -0.6544  0.0630
 4470poe    c2319071   2.886   6.580   7.044 -0.1022  0.6339 -0.3272
 4470poe    c2319072   2.733   6.595   7.035 -0.1734  0.1125  0.0117
 4470poe     o219073   2.652   6.480   7.025  0.5382 -0.3942 -0.0216
 4470poe    c2319074   2.613   6.418   7.145  0.2963 -0.2804 -0.0409
 4470poe    c2319075   2.572   6.271   7.121  0.5332 -0.3202 -0.2029
 4470poe     o219076   2.481   6.235   7.020  0.1015 -0.2400  0.1586
 4470poe    c2319077   2.370   6.169   7.078 -0.2594  0.2265  0.0039
 4470poe    c2319078   2.288   6.087   6.977  0.0754 -0.2421  0.1071
 4470poe     o219079   2.206   6.166   6.893  0.3499  0.4027  0.4373
 4470poe    c3119080   2.113   6.080   6.831 -0.0120  0.7384  0.5101
 4471poe    c3119081   6.181   6.506   4.363  0.8847  0.0104  0.0065
 4471poe     o219082   6.214   6.405   4.270  0.6395  0.2623 -0.3604
 4471poe    c2319083   6.255   6.295   4.350 -0.3476 -0.3576 -0.6912
 4471poe    c2319084   6.308   6.166   4.286  0.4711 -0.1377 -0.4634
 4471poe     o219085   6.220   6.098   4.199  0.0586 -0.1824 -0.0164
 4471poe    c2319086   6.299   5.996   4.141 -0.2454 -0.3332 -0.1689
 4471poe    c2319087   6.240   5.927   4.017 -0.1636  0.2720 -0.5468
 4471poe     o219088   6.118   5.876   4.064  0.2727 -0.0881  0.2093
 4471poe    c2319089   6.057   5.792   3.969 -0.7814  0.1315  0.6722
 4471poe    c2319090   5.916   5.730   3.978 -0.6784 -0.1777  0.2439
 4471poe     o219091   5.813   5.800   3.911  0.6627  0.6754 -0.9824
 4471poe    c3119092   5.758   5.720   3.809  0.1740  0.3590 -0.4778
 4472poe    c3119093   1.577   1.869   4.143 -0.0049 -0.2896 -0.2705
 4472poe     o219094   1.643   1.837   4.263  0.5248  0.1900 -0.4303
 4472poe    c2319095   1.733   1.731   4.234  0.0730 -0.2442 -0.2545
 4472poe    c2319096   1.824   1.701   4.354  0.1241 -0.3701 -0.3254
 4472poe     o219097   1.900   1.816   4.385  0.4579 -0.6490 -0.0960
 4472poe    c2319098   1.964   1.814   4.511 -0.0163 -0.4134  0.1525
 4472poe    c2319099   1.963   1.958   4.566 -0.0990 -0.6726  0.8362
 4472poe     o219100   1.840   2.023   4.587  0.1767  0.3599 -0.6047
 4472poe    c2319101   1.842   2.117   4.692 -0.4035 -0.5502  0.2385
 4472poe    c2319102   1.744   2.234   4.712 -0.1777 -0.4049  0.4957
 4472poe     o219103   1.619   2.196   4.765 -0.6492  0.1877 -0.1615
 4472poe    c3119104   1.527   2.303   4.767 -0.5107  0.3132 -0.4750
 4473poe    c3119105   6.169   7.474   3.403 -0.1507 -0.1519 -0.3903
 4473poe     o219106   6.054   7.556   3.397 -0.5297 -0.6866 -0.5230
 4473poe    c2319107   6.068   7.696   3.404  0.2684 -0.7875 -0.0029
 4473poe    c2319108   5.930   7.762   3.413  0.4717 -0.3778  0.1536
 4473poe     o219109   5.873   7.794   3.288  0.4301 -0.1290  0.2341
 4473poe    c2319110   5.734   7.781   3.272  0.4647 -0.1586 -0.0523
 4473poe    c2319111   5.677   7.640   3.248  0.2061 -0.0886  0.1436
 4473poe     o219112   5.677   7.545   3.352  0.1810  0.0836  0.3013
 4473poe    c2319113   5.584   7.573   3.454 -0.0369 -0.0866  0.1485
 4473poe    c2319114   5.554   7.444   3.531  0.8556  0.0399  0.7193
 4473poe     o219115   5.457   7.368   3.463  0.5300  0.2356  0.9591
 4473poe    c3119116   5.326   7.404   3.502  0.2592  0.1936  0.1172
 4474poe    c3119117   5.083   6.270   2.747 -0.2188 -0.0894  0.4787
 4474poe     o219118   5.200   6.309   2.815  0.0918 -0.3914  0.1234
 4474poe    c2319119   5.161   6.383   2.929 -0.3316  0.0357 -0.2996
 4474poe    c2319120   5.270   6.489   2.948 -0.4389  0.1422 -0.2775
 4474poe     o219121   5.319   6.502   3.080  0.1703 -0.0846 -0.4786
 4474poe    c2319122   5.443   6.569   3.076  0.1359  0.0220  0.1594
 4474poe    c2319123   5.477   6.652   3.201  0.8568  0.0341 -0.0401
 4474poe     o219124   5.528   6.590   3.317  0.0530 -0.2897  0.1473
 4474poe    c2319125   5.478   6.651   3.433  0.7019  0.0993  0.2291
 4474poe    c2319126   5.477   6.559   3.557  0.6135  0.0564  0.1971
 4474poe     o219127   5.403   6.442   3.532  0.3956  0.1218  0.5296
 4474poe    c3119128   5.390   6.355   3.642 -0.1671  0.2284  0.5478
 4475poe    c3119129   1.405   3.248   0.028  0.1105 -0.6399  0.4772
 4475poe     o219130   1.373   3.330   0.138 -0.0149  0.3785 -0.3126
 4475poe    c2319131   1.482   3.404   0.187  0.1474 -0.1901  0.1899
 4475poe    c2319132   1.443   3.521   0.280  0.4197  0.0351  0.0246
 4475poe     o219133   1.382   3.638   0.230 -0.4670 -0.5118 -0.1912
 4475poe    c2319134   1.353   3.728   0.335 -0.2412 -0.2561 -0.3506
 4475poe    c2319135   1.304   3.868   0.291  0.1486  0.1011  0.3415
 4475poe     o219136   1.301   3.961   0.398  0.1304  0.4410  0.0456
 4475poe    c2319137   1.225   4.071   0.355 -0.9082 -0.1733  0.2576
 4475poe    c2319138   1.179   4.162   0.471  0.0779  0.0535  0.4832
 4475poe     o219139   1.075   4.081   0.522 -0.2434  0.1623  0.0128
 4475poe    c3119140   1.031   4.138   0.643  0.9252  0.4242  0.3263
 4476poe    c3119141   0.080   5.182   0.062  0.8260  0.5276 -0.6799
 4476poe     o219142   0.062   5.295   0.145  0.2084 -0.4406  0.5325
 4476poe    c2319143  -0.058   5.284   0.218  0.0218  0.3687  0.3486
 4476poe    c2319144  -0.097   5.402   0.309  0.0052  0.5960  0.0514
 4476poe     o219145   0.008   5.442   0.394  0.3064 -0.0351 -0.0133
 4476poe    c2319146   0.013   5.583   0.402  0.8927 -0.0577  0.0869
 4476poe    c2319147   0.117   5.646   0.307  0.2513  0.5469 -0.2264
 4476poe     o219148   0.249   5.614   0.344  0.1807  0.8782  0.3289
 4476poe    c2319149   0.336   5.701   0.276  0.3072  0.1190 -0.5119
 4476poe    c2319150   0.475   5.694   0.343  0.2244 -0.2385 -0.3748
 4476poe     o219151   0.508   5.560   0.373 -0.2041 -0.0686  0.9194
 4476poe    c3119152   0.640   5.559   0.422  0.4483  0.3158 -0.7609
 4477poe    c3119153   4.460   2.588   5.555 -0.3980 -0.3814 -0.5901
 4477poe     o219154   4.482   2.670   5.442 -0.7889 -0.1492 -0.4986
 4477poe    c2319155   4.553   2.590   5.349  0.3049  0.0626  0.1428
 4477poe    c2319156   4.524   2.625   5.202  0.0306  0.4520  0.2862
 4477poe     o219157   4.391   2.588   5.173  0.1565  0.2133 -0.0036
 4477poe    c2319158   4.335   2.640   5.055  0.6023 -0.6098 -0.5799
 4477poe    c2319159   4.181   2.646   5.060  0.6349 -0.2802  0.1921
 4477poe     o219160   4.132   2.514   5.052  0.0334 -0.0792  0.5124
 4477poe    c2319161   3.991   2.515   5.058  0.0266  0.4371  0.3222
 4477poe    c2319162   3.955   2.367   5.081  0.3785  0.4078  0.7134
 4477poe     o219163   4.011   2.321   5.201  0.9239 -0.7664  0.0271
 4477poe    c3119164   3.980   2.187   5.234  0.1077 -0.4773  0.4450
 4478poe    c3119165   5.517   1.664   5.799 -0.2060  0.1405  0.0340
 4478poe     o219166   5.389   1.676   5.858 -0.0521  0.6143  0.2760
 4478poe    c2319167   5.396   1.644   5.995  0.3091 -0.1944  0.0763
 4478poe    c2319168   5.376   1.768   6.084  0.7346 -0.4917  0.5951
 4478poe     o219169   5.475   1.867   6.069 -0.5773  0.6218 -1.0913
 4478poe    c2319170   5.458   1.983   6.148 -0.4459  0.3377 -0.6428
 4478poe    c2319171   5.568   2.089   6.124 -0.1397  0.2487  0.3112
 4478poe     o219172   5.545   2.181   6.019  1.1615 -0.4133 -0.5771
 4478poe    c2319173   5.636   2.284   6.050  0.0096  0.4252  0.0742
 4478poe    c2319174   5.622   2.396   5.946 -0.0534  0.3151 -0.0363
 4478poe     o219175   5.662   2.366   5.814 -0.2154  0.4453 -0.1171
 4478poe    c3119176   5.800   2.348   5.789 -0.3400 -0.3872 -0.2501
 4479poe    c3119177   6.808   7.624   5.781  0.4339  0.1378  0.7393
 4479poe     o219178   6.702   7.717   5.794  0.4239  0.2831 -0.2740
 4479poe    c2319179   6.724   7.856   5.785 -0.2152  0.4489  0.5356
 4479poe    c2319180   6.588   7.920   5.751 -0.1187  0.5491  0.3351
 4479poe     o219181   6.492   7.858   5.833 -0.3122 -0.1856 -0.4449
 4479poe    c2319182   6.375   7.935   5.814 -0.2667 -0.1143 -0.4340
 4479poe    c2319183   6.261   7.870   5.894  0.0574 -0.4709 -0.2580
 4479poe     o219184   6.249   7.742   5.835  0.2179 -0.1219 -1.0696
 4479poe    c2319185   6.136   7.669   5.876  0.2432  0.2130 -0.3819
 4479poe    c2319186   6.135   7.602   6.015  0.4094  0.6348 -0.1747
 4479poe     o219187   6.232   7.503   6.039 -0.3173 -0.1191 -0.2915
 4479poe    c3119188   6.199   7.413   6.143  0.5408  0.0012  0.0939
 4480poe    c3119189   2.178   7.135   3.109  0.0329 -0.2904 -0.3778
 4480poe     o219190   2.259   7.046   3.182  0.0203 -0.1004 -0.1323
 4480poe    c2319191   2.190   6.971   3.279 -0.1875  0.0660 -0.1508
 4480poe    c2319192   2.291   6.924   3.386  0.4981  0.6137 -0.5439
 4480poe     o219193   2.388   6.829   3.349  0.1462  0.1984 -0.4171
 4480poe    c2319194   2.425   6.750   3.460  0.6998  0.5680 -0.3374
 4480poe    c2319195   2.509   6.631   3.409 -0.4271 -0.3616 -0.0594
 4480poe     o219196   2.468   6.614   3.275 -0.2036  0.1369 -0.1967
 4480poe    c2319197   2.527   6.512   3.197 -0.2348 -0.4779  0.5643
 4480poe    c2319198   2.667   6.551   3.146 -0.7393  0.6945  0.0367
 4480poe     o219199   2.657   6.652   3.048  0.4073  1.0361  0.2554
 4480poe    c3119200   2.780   6.677   2.983  0.2516  0.0656 -0.4231
 4481poe    c3119201   5.464   0.786   3.667  0.0587 -0.2509 -0.3976
 4481poe     o219202   5.499   0.828   3.537  1.0427 -0.2588 -0.1433
 4481poe    c2319203   5.408   0.769   3.447  0.6251 -0.3066  0.3055
 4481poe    c2319204   5.404   0.860   3.323 -0.1764 -0.2311  0.3819
 4481poe     o219205   5.520   0.855   3.244 -0.0423  0.3025  0.5398
 4481poe    c2319206   5.493   0.915   3.119  0.1309 -0.1085  0.3009
 4481poe    c2319207   5.540   0.832   2.999  0.3378  0.3226  0.0805
 4481poe     o219208   5.446   0.734   2.960  0.2205  0.1379  0.8276
 4481poe    c2319209   5.317   0.779   2.926  0.1338 -0.5905  0.1680
 4481poe    c2319210   5.211   0.671   2.953  0.0712 -0.5157  0.2216
 4481poe     o219211   5.242   0.565   2.865  0.1564 -0.3340  0.0317
 4481poe    c3119212   5.134   0.476   2.854 -0.3964  0.3882 -0.4010
 4482poe    c3119213   3.745   5.117   4.799 -0.4675 -0.4422 -0.3246
 4482poe     o219214   3.836   5.217   4.839 -0.1876 -0.8130 -0.0225
 4482poe    c2319215   3.865   5.293   4.723 -0.0049 -0.3324  0.3339
 4482poe    c2319216   3.928   5.422   4.779 -0.0893 -0.2915  0.3339
 4482poe     o219217   4.017   5.390   4.883 -0.5375 -0.0846  0.7867
 4482poe    c2319218   4.095   5.501   4.925 -0.0300 -0.0903 -0.1124
 4482poe    c2319219   4.166   5.488   5.061 -0.4559 -0.1820  0.1063
 4482poe     o219220   4.067   5.469   5.159 -0.2325  0.4557  0.4536
 4482poe    c2319221   4.072   5.552   5.273 -0.3643  0.6141  0.3443
 4482poe    c2319222   4.020   5.456   5.382  0.3854 -0.1417  0.0469
 4482poe     o219223   3.890   5.403   5.370  0.5866 -0.6569  0.1455
 4482poe    c3119224   3.840   5.342   5.487 -0.0607 -0.0511  0.1909
 4483poe    c3119225   3.793   4.978   1.676 -0.1690  0.6276 -0.1751
 4483poe     o219226   3.812   5.061   1.564  0.2188  0.2296 -0.4102
 4483poe    c2319227   3.821   5.199   1.593  0.2290  0.1067  0.1933
 4483poe    c2319228   3.689   5.270   1.559  0.3930  0.2569 -0.1383
 4483poe     o219229   3.649   5.256   1.424 -0.2664 -0.6290  0.1361
 4483poe    c2319230   3.515   5.300   1.411 -0.0819 -0.1081 -0.0151
 4483poe    c2319231   3.468   5.330   1.267  0.1991 -0.0101 -0.0890
 4483poe     o219232   3.468   5.220   1.180 -0.1326 -0.3021  0.2706
 4483poe    c2319233   3.464   5.259   1.044  0.2543 -0.3953  0.2311
 4483poe    c2319234   3.475   5.136   0.952  0.0759 -0.2484  0.0132
 4483poe     o219235   3.371   5.043   0.973 -0.1204 -0.0128  0.0873
 4483poe    c3119236   3.396   4.944   0.877  1.2208  0.2815  0.1188
 4484poe    c3119237   6.505   4.611   1.456  0.8314 -0.2010 -0.1857
 4484poe     o219238   6.440   4.499   1.398  0.4016 -0.2978  0.4679
 4484poe    c2319239   6.316   4.473   1.459 -0.1951  0.3909 -0.4263
 4484poe    c2319240   6.330   4.364   1.566  0.2607 -0.1363 -1.0191
 4484poe     o219241   6.339   4.231   1.520 -0.0690 -0.6043  0.2211
 4484poe    c2319242   6.449   4.204   1.436  0.2896 -0.3686  0.6123
 4484poe    c2319243   6.441   4.079   1.346  0.2127 -0.1322  0.2883
 4484poe     o219244   6.379   4.115   1.225 -0.0642  0.2277  0.5320
 4484poe    c2319245   6.379   4.004   1.137  0.2429  0.8302 -0.2350
 4484poe    c2319246   6.304   4.012   1.002 -0.0315 -0.3689 -0.1634
 4484poe     o219247   6.164   4.013   1.017  0.0336 -0.1980  0.5200
 4484poe    c3119248   6.112   4.139   0.981 -0.1641 -0.4007  0.0814
 4485poe    c3119249   6.792   4.204   5.089 -0.1693  0.6085  0.2877
 4485poe     o219250   6.829   4.161   5.217  0.2388  0.5844  0.1636
 4485poe    c2319251   6.952   4.223   5.248  0.8218 -0.1190 -0.6727
 4485poe    c2319252   6.977   4.213   5.400 -0.9451 -0.4422 -0.3732
 4485poe     o219253   7.039   4.091   5.436  0.1631  0.0821 -0.4507
 4485poe    c2319254   7.179   4.105   5.446  0.1251  0.3377 -0.2540
 4485poe    c2319255   7.255   3.981   5.496 -0.0141  0.3540 -0.0054
 4485poe     o219256   7.243   3.969   5.636 -0.2053 -0.1570 -0.0601
 4485poe    c2319257   7.363   3.937   5.703 -0.0831  0.3033 -0.0508
 4485poe    c2319258   7.363   3.981   5.851  0.1163 -0.6483  0.2396
 4485poe     o219259   7.268   3.906   5.923 -0.5700  0.3702  0.4086
 4485poe    c3119260   7.183   4.000   5.986 -0.7127  0.3216  0.2889
 4486poe    c3119261   4.332   6.386   2.630  0.5440  0.1724  0.0805
 4486poe     o219262   4.443   6.301   2.648 -0.4616 -1.0320  0.7645
 4486poe    c2319263   4.552   6.367   2.708 -0.2566 -0.8385  0.1890
 4486poe    c2319264   4.673   6.272   2.711  0.1752 -0.2974 -0.0662
 4486poe     o219265   4.673   6.173   2.811 -0.6398 -0.7723 -0.5270
 4486poe    c2319266   4.758   6.069   2.769 -0.3018 -0.6344 -0.1868
 4486poe    c2319267   4.792   5.977   2.888 -0.5517 -0.5473 -0.0482
 4486poe     o219268   4.861   6.044   2.991  0.2002 -0.2395 -0.7449
 4486poe    c2319269   4.942   5.949   3.056 -0.0000  0.3416  0.3756
 4486poe    c2319270   5.023   5.995   3.178  0.4346  0.4040  0.0647
 4486poe     o219271   4.932   6.038   3.277  0.1415  0.0572 -0.0535
 4486poe    c3119272   5.012   6.107   3.371  0.3203 -0.5715  0.2638
 4487poe    c3119273   6.027   0.562   3.509  0.1667 -0.8628  0.6114
 4487poe     o219274   5.902   0.577   3.446  0.3928  0.2518  0.4085
 4487poe    c2319275   5.927   0.569   3.307 -0.2329  0.4728  0.2800
 4487poe    c2319276   5.794   0.603   3.236 -0.2143 -0.1088 -0.0317
 4487poe     o219277   5.677   0.537   3.277 -0.2413  0.0022  0.0686
 4487poe    c2319278   5.601   0.506   3.162  0.1178  0.2842 -0.2463
 4487poe    c2319279   5.454   0.468   3.189  0.1599  0.2657 -0.0429
 4487poe     o219280   5.459   0.348   3.263  0.1286  0.3595  0.1112
 4487poe    c2319281   5.325   0.308   3.281  0.2120  0.1504  0.2807
 4487poe    c2319282   5.289   0.202   3.386  0.1501 -0.1201 -0.0119
 4487poe     o219283   5.325   0.068   3.360 -0.4859 -0.3160  0.0997
 4487poe    c3119284   5.244   0.024   3.253  0.0322 -0.1321 -0.3752
 4488poe    c3119285   6.446   1.264   4.464  0.0578  0.6275  0.2777
 4488poe     o219286   6.530   1.344   4.384  1.0189 -0.1285  0.5042
 4488poe    c2319287   6.606   1.284   4.281 -0.6329 -0.3172 -0.6432
 4488poe    c2319288   6.717   1.190   4.332 -0.2179  0.2732 -0.4499
 4488poe     o219289   6.851   1.234   4.337 -0.1927  0.1309  0.1843
 4488poe    c2319290   6.890   1.254   4.471 -0.4242  0.2841  0.2302
 4488poe    c2319291   7.042   1.278   4.476 -0.4552  0.5870 -0.1796
 4488poe     o219292   7.083   1.392   4.405 -0.1974  0.3749 -0.3718
 4488poe    c2319293   7.217   1.433   4.422 -0.2602  0.7415 -0.7365
 4488poe    c2319294   7.287   1.513   4.310 -0.0170  0.3557 -0.8601
 4488poe     o219295   7.354   1.435   4.214 -0.2138 -0.8633 -0.0398
 4488poe    c3119296   7.406   1.519   4.113 -0.2623 -0.7384  0.0390
 4489poe    c3119297   0.035   2.659   2.133  0.9320 -0.1993 -0.4949
 4489poe     o219298   0.107   2.687   2.251 -0.1910 -0.0671  0.1682
 4489poe    c2319299   0.213   2.779   2.234 -0.1216 -0.1573  0.1167
 4489poe    c2319300   0.305   2.811   2.353 -0.1658 -0.7188  0.3064
 4489poe     o219301   0.241   2.884   2.454 -0.0938 -0.8572  0.4520
 4489poe    c2319302   0.326   2.863   2.565  0.3995  0.7094  0.3910
 4489poe    c2319303   0.255   2.926   2.686  0.2213  0.2034  0.5513
 4489poe     o219304   0.131   2.863   2.709  0.3494 -0.1730  0.2276
 4489poe    c2319305   0.078   2.916   2.829 -0.0468  0.1465 -0.0861
 4489poe    c2319306  -0.025   2.816   2.883  0.2635 -0.2474 -0.2206
 4489poe     o219307  -0.111   2.773   2.780 -0.0174  0.0460 -0.1113
 4489poe    c3119308  -0.234   2.728   2.830  0.1720 -0.1926  0.1427
 4490poe    c3119309   4.434   2.114   3.697 -0.1609 -0.1547  0.0379
 4490poe     o219310   4.377   2.191   3.801 -0.0212 -0.1896  0.1417
 4490poe    c2319311   4.382   2.125   3.925  0.3093  0.0846  0.2763
 4490poe    c2319312   4.370   2.229   4.038 -0.0529  0.1828  0.1485
 4490poe     o219313   4.249   2.301   4.051 -0.2326 -0.1307  0.2177
 4490poe    c2319314   4.285   2.429   4.097 -0.0320 -0.2833  0.4911
 4490poe    c2319315   4.149   2.495   4.126 -0.0318 -0.0510 -0.0290
 4490poe     o219316   4.085   2.487   4.000  0.1775  0.3898 -0.1672
 4490poe    c2319317   3.954   2.538   4.005  0.0845  0.1778 -0.4449
 4490poe    c2319318   3.866   2.526   3.878  0.4220  0.4059 -0.7009
 4490poe     o219319   3.881   2.403   3.810  0.4222  0.0374 -0.0462
 4490poe    c3119320   3.773   2.375   3.724  0.3504 -0.1622  0.1104
 4491poe    c3119321   5.477   2.500   7.227 -0.0202  0.1286  0.5451
 4491poe     o219322   5.380   2.603   7.221  0.1266  0.1975 -0.8788
 4491poe    c2319323   5.426   2.734   7.240 -0.1051  0.2280 -0.5258
 4491poe    c2319324   5.421   2.811   7.107  0.2891  0.2493 -0.5289
 4491poe     o219325   5.296   2.854   7.058 -0.0048 -0.2970 -0.2692
 4491poe    c2319326   5.302   2.873   6.918  0.5129 -0.2665 -0.2466
 4491poe    c2319327   5.190   2.963   6.862 -0.0310 -0.3140  0.7257
 4491poe     o219328   5.069   2.897   6.834  0.2390 -0.4399 -0.1873
 4491poe    c2319329   4.969   2.996   6.832  0.3344 -0.3461 -0.3928
 4491poe    c2319330   4.835   2.943   6.777 -0.0220  0.1688 -0.0335
 4491poe     o219331   4.825   2.977   6.641  0.2711  0.2138 -0.0435
 4491poe    c3119332   4.685   2.979   6.623  0.2085  0.1899  0.4262
 4492poe    c3119333   3.341   3.256   6.982 -1.2356 -0.7694  0.3747
 4492poe     o219334   3.404   3.133   7.009 -0.0160 -0.1625  0.3657
 4492poe    c2319335   3.322   3.022   6.980 -0.0191  0.0227 -0.3729
 4492poe    c2319336   3.390   2.900   7.044 -0.2633 -0.0489 -0.2457
 4492poe     o219337   3.511   2.874   6.975 -0.1510 -0.0906 -0.0346
 4492poe    c2319338   3.576   2.778   7.055  0.2580  0.2179  0.0011
 4492poe    c2319339   3.718   2.753   7.002  0.2649  0.1360  0.0581
 4492poe     o219340   3.732   2.717   6.866  0.3331  0.4472 -0.0170
 4492poe    c2319341   3.865   2.723   6.818  0.4399  0.1015  0.2340
 4492poe    c2319342   3.868   2.811   6.692  0.4719 -0.4665 -0.1636
 4492poe     o219343   3.787   2.762   6.587  0.6239 -0.7418 -0.1543
 4492poe    c3119344   3.816   2.835   6.470  0.6472  0.5258  0.6287
 4493poe    c3119345   6.636   7.457   6.335 -0.2696  0.2015  0.3878
 4493poe     o219346   6.772   7.492   6.317 -0.2641  0.0999  0.2235
 4493poe    c2319347   6.802   7.523   6.183 -0.0764  0.2294  0.2954
 4493poe    c2319348   6.951   7.541   6.148 -0.1933 -0.1056 -0.3885
 4493poe     o219349   7.031   7.434   6.194  0.1863  0.5124  0.4134
 4493poe    c2319350   7.165   7.452   6.151 -0.1389  0.2095 -0.7811
 4493poe    c2319351   7.254   7.335   6.197 -0.2750  0.4811  0.2103
 4493poe     o219352   7.254   7.317   6.337 -0.0038 -0.4569  0.0953
 4493poe    c2319353   7.275   7.184   6.380 -0.1834 -0.4454  0.2202
 4493poe    c2319354   7.422   7.141   6.374  0.0119  0.2687 -0.3719
 4493poe     o219355   7.446   7.016   6.313  0.3298 -0.1817  0.6530
 4493poe    c3119356   7.584   6.986   6.306  0.2547 -0.4545  0.3194
 4494poe    c3119357   3.164   1.811   6.986 -0.2000  0.0271  0.0685
 4494poe     o219358   3.290   1.870   6.963  0.0530 -0.5577 -0.0837
 4494poe    c2319359   3.316   1.974   7.055  0.0752 -0.5700 -0.0757
 4494poe    c2319360   3.457   2.029   7.031 -0.2450  0.1111 -0.4249
 4494poe     o219361   3.475   2.057   6.894 -0.1628 -0.1419 -0.4658
 4494poe    c2319362   3.606   2.093   6.858  0.0772 -0.2689  0.2697
 4494poe    c2319363   3.600   2.131   6.709 -0.3818  0.2231  0.4109
 4494poe     o219364   3.594   2.022   6.619 -0.1560  0.4237  0.1494
 4494poe    c2319365   3.580   2.060   6.484 -0.1844 -0.3691 -0.0750
 4494poe    c2319366   3.583   1.939   6.389 -1.2876 -0.0323 -0.5447
 4494poe     o219367   3.514   1.832   6.449 -0.4061 -0.2752  0.0528
 4494poe    c3119368   3.477   1.734   6.355 -0.4603 -0.5848  0.3925
 4495poe    c3119369   3.613   3.238   4.553  0.0650 -0.2807 -0.4423
 4495poe     o219370   3.655   3.361   4.609 -0.5888 -0.4637  0.4811
 4495poe    c2319371   3.560   3.400   4.705 -0.7956  0.2305  0.0055
 4495poe    c2319372   3.580   3.542   4.761 -0.5838  0.2108 -0.0197
 4495poe     o219373   3.573   3.645   4.665 -0.6059  0.6645  0.4616
 4495poe    c2319374   3.573   3.766   4.737 -0.3651  0.6625  0.4664
 4495poe    c2319375   3.543   3.886   4.646 -0.4040  0.2084 -0.1258
 4495poe     o219376   3.403   3.898   4.633 -0.4835  0.3580  0.8430
 4495poe    c2319377   3.369   3.938   4.503 -0.3493 -0.8330  0.4296
 4495poe    c2319378   3.222   3.897   4.481 -0.4466 -0.1613 -0.2129
 4495poe     o219379   3.202   3.760   4.508  0.2981 -0.2949 -0.3287
 4495poe    c3119380   3.077   3.704   4.476  0.0897 -0.2221  0.3513
 4496poe    c3119381   1.681   5.268   1.765 -0.5506 -0.1078  0.1920
 4496poe     o219382   1.655   5.266   1.627  0.1299  0.0231  0.0537
 4496poe    c2319383   1.706   5.371   1.549 -0.1375 -0.1627 -0.3769
 4496poe    c2319384   1.653   5.373   1.404 -0.3137  0.2613 -0.3082
 4496poe     o219385   1.702   5.274   1.317 -0.1330  1.1208 -1.2038
 4496poe    c2319386   1.623   5.267   1.201 -1.1313 -0.0784 -0.4907
 4496poe    c2319387   1.691   5.151   1.126  0.4777  0.1399  0.5798
 4496poe     o219388   1.708   5.036   1.205  0.6684  0.4677  1.0213
 4496poe    c2319389   1.793   4.940   1.147 -0.0577 -0.0558  0.8080
 4496poe    c2319390   1.728   4.848   1.042  0.1744  0.2890  0.3541
 4496poe     o219391   1.610   4.793   1.098  0.3667 -0.5491 -0.0380
 4496poe    c3119392   1.552   4.704   1.006 -0.3405 -0.2170  0.0765
 4497poe    c3119393   4.243   3.903   3.024 -0.4748 -0.0689  0.5832
 4497poe     o219394   4.172   3.789   3.068  0.4010 -0.9984 -0.3601
 4497poe    c2319395   4.085   3.823   3.173  1.0055 -0.0886 -0.1407
 4497poe    c2319396   4.044   3.691   3.240  0.2031 -0.0234 -0.4879
 4497poe     o219397   3.981   3.590   3.164 -0.7125  0.1942 -0.0368
 4497poe    c2319398   3.976   3.461   3.220 -0.2118  0.3808  0.4507
 4497poe    c2319399   3.962   3.359   3.106  0.5896  0.3596  0.3679
 4497poe     o219400   4.083   3.354   3.033  0.0146 -0.0589 -0.5803
 4497poe    c2319401   4.082   3.247   2.941  0.0668 -0.3963 -0.1911
 4497poe    c2319402   4.216   3.194   2.888  0.3437  0.0221  0.0833
 4497poe     o219403   4.289   3.290   2.815  0.1102 -0.0348 -0.2289
 4497poe    c3119404   4.392   3.221   2.749  0.2031 -0.1059 -0.0097
 4498poe    c3119405   4.289   2.936   5.840  0.0427 -0.9419  0.2067
 4498poe     o219406   4.370   2.902   5.730  0.3570  0.3495  0.0244
 4498poe    c2319407   4.374   2.990   5.619  0.0239  0.1464 -0.1511
 4498poe    c2319408   4.496   2.962   5.530  0.1196 -0.0105  0.0270
 4498poe     o219409   4.622   2.996   5.583  0.0026  0.2329  0.1475
 4498poe    c2319410   4.720   2.912   5.526 -0.2185 -0.0569  0.1908
 4498poe    c2319411   4.863   2.937   5.577 -0.3333  0.2044  0.3886
 4498poe     o219412   4.874   2.910   5.715 -0.1075 -0.2323  0.2873
 4498poe    c2319413   5.001   2.865   5.759  0.0718 -0.0825 -0.0735
 4498poe    c2319414   4.962   2.805   5.895  0.0271  0.3520  0.1072
 4498poe     o219415   4.838   2.852   5.944  0.0017 -0.2394  0.6195
 4498poe    c3119416   4.820   2.803   6.075 -0.3432  0.0546  0.6831
 4499poe    c3119417   2.962   3.841   6.429 -0.3855 -0.2551 -0.3089
 4499poe     o219418   2.826   3.874   6.441 -0.2306  0.3486 -0.2110
 4499poe    c2319419   2.809   4.012   6.416  0.3163  0.4373 -0.1066
 4499poe    c2319420   2.661   4.049   6.398  0.0588 -0.6099 -0.2144
 4499poe     o219421   2.613   4.002   6.274 -0.1038  0.1066 -0.4299
 4499poe    c2319422   2.495   4.067   6.234 -0.8397 -0.6289  0.5054
 4499poe    c2319423   2.430   3.986   6.121 -0.7405 -0.7057  0.5043
 4499poe     o219424   2.490   3.998   5.994 -1.3211 -0.1943  0.2734
 4499poe    c2319425   2.451   3.886   5.918  0.2147 -0.7084  0.2133
 4499poe    c2319426   2.337   3.909   5.818 -0.1036 -0.2187  0.6816
 4499poe     o219427   2.208   3.929   5.872 -0.5509 -0.8412 -0.1309
 4499poe    c3119428   2.094   3.945   5.791 -0.3102 -0.2448 -0.3507
 4500poe    c3119429   6.565   2.463   2.919 -0.5513 -0.1360 -0.0351
 4500poe     o219430   6.476   2.497   3.023  0.1307  0.3115  0.4089
 4500poe    c2319431   6.536   2.461   3.145 -0.0786  0.1095  0.4517
 4500poe    c2319432   6.416   2.473   3.241 -0.4609  0.3226 -0.0468
 4500poe     o219433   6.352   2.596   3.217 -0.3271  0.3571 -0.2305
 4500poe    c2319434   6.249   2.634   3.305 -0.0671  0.1740  0.1572
 4500poe    c2319435   6.229   2.786   3.300 -0.0976  0.1807  0.4325
 4500poe     o219436   6.164   2.815   3.178  0.3980  0.3953  0.2120
 4500poe    c2319437   6.067   2.918   3.187 -0.0260  0.0195 -0.0269
 4500poe    c2319438   5.932   2.877   3.127  0.0715 -0.4272  0.0528
 4500poe     o219439   5.943   2.859   2.987 -0.2114  0.7898 -0.1357
 4500poe    c3119440   5.817   2.864   2.923 -0.5732  0.0671  0.5117
 4501poe    c3119441   1.275   2.500   3.726  0.6906 -0.3881  0.0347
 4501poe     o219442   1.149   2.511   3.663  0.8587 -0.1515 -0.2586
 4501poe    c2319443   1.165   2.470   3.529  0.0008  0.2581 -0.4903
 4501poe    c2319444   1.029   2.464   3.456 -0.0007 -0.1671 -0.4540
 4501poe     o219445   0.932   2.389   3.526 -0.3747  0.7435  0.0175
 4501poe    c2319446   0.823   2.371   3.438 -0.3855  0.0643  0.1688
 4501poe    c2319447   0.746   2.242   3.473 -0.7246  0.0241 -0.7130
 4501poe     o219448   0.744   2.201   3.608 -0.0605  0.5906 -0.5234
 4501poe    c2319449   0.647   2.102   3.635  0.3061  0.2799 -0.3397
 4501poe    c2319450   0.506   2.150   3.674  0.2119 -0.1301 -0.1683
 4501poe     o219451   0.514   2.190   3.809 -0.2758 -0.5921 -0.0037
 4501poe    c3119452   0.446   2.104   3.899 -0.0519 -0.8848 -0.1129
 4502poe    c3119453   3.127   4.765   5.109 -0.1237 -0.0297 -0.5790
 4502poe     o219454   3.244   4.840   5.089 -0.1097  0.1007 -0.0370
 4502poe    c2319455   3.355   4.756   5.066 -0.1162  0.1031 -0.0791
 4502poe    c2319456   3.467   4.834   4.995 -0.1842  0.2531 -0.0235
 4502poe     o219457   3.590   4.767   5.010 -0.0025  0.6454  0.2678
 4502poe    c2319458   3.682   4.793   4.907 -0.2063  0.2302 -0.0208
 4502poe    c2319459   3.820   4.755   4.964 -0.0592  0.3976 -0.2612
 4502poe     o219460   3.854   4.835   5.075  0.1391 -0.1952  0.1082
 4502poe    c2319461   3.959   4.772   5.145 -0.1597 -0.7123  0.0994
 4502poe    c2319462   4.020   4.865   5.251 -0.2162  0.0133 -0.4989
 4502poe     o219463   4.089   4.981   5.208 -0.0630  0.0705 -0.1082
 4502poe    c3119464   4.176   5.013   5.314  0.2478  0.2725 -0.4212
 4503poe    c3119465   0.980   6.180   1.264  0.1123  0.2180 -0.0084
 4503poe     o219466   0.920   6.200   1.138 -0.2249  0.2631  0.1597
 4503poe    c2319467   1.013   6.179   1.033  0.0638 -0.1329  0.4901
 4503poe    c2319468   0.954   6.198   0.892 -0.3668 -0.2358  0.6527
 4503poe     o219469   0.878   6.097   0.830  0.0096 -0.0755 -0.0891
 4503poe    c2319470   0.771   6.155   0.759  0.0326  0.5886  0.4053
 4503poe    c2319471   0.639   6.129   0.833  0.1912 -0.2943  0.3806
 4503poe     o219472   0.607   5.992   0.840 -0.3522 -0.2044 -0.2044
 4503poe    c2319473   0.486   5.958   0.904 -0.1099 -0.1804  0.2680
 4503poe    c2319474   0.501   5.915   1.052  0.1661  0.3682  0.4023
 4503poe     o219475   0.399   5.841   1.114  0.5228 -0.1052  0.4273
 4503poe    c3119476   0.308   5.924   1.184  0.0022  0.2121 -0.6078
 4504poe    c3119477   2.119   5.423   3.104  0.2404  0.6324  0.1098
 4504poe     o219478   2.129   5.299   3.038 -0.4247  0.5705  0.1177
 4504poe    c2319479   2.145   5.198   3.134  0.3360 -0.0271 -0.6210
 4504poe    c2319480   2.130   5.054   3.082 -0.2855 -0.1655 -0.0695
 4504poe     o219481   1.996   5.023   3.050 -0.4231  0.6247 -0.2755
 4504poe    c2319482   1.984   4.883   3.034  0.6573  0.3955  0.7397
 4504poe    c2319483   1.842   4.862   2.976  0.9501  0.0181  0.1476
 4504poe     o219484   1.831   4.883   2.837  0.2589  0.5269  0.2744
 4504poe    c2319485   1.823   4.768   2.757  0.5200  0.5775  0.1752
 4504poe    c2319486   1.865   4.797   2.611  0.7696  0.9408  0.3166
 4504poe     o219487   1.788   4.896   2.547  0.1365  0.3547  0.1579
 4504poe    c3119488   1.803   4.884   2.407  0.3746 -0.4937  0.2507
 4505poe    c3119489   2.567   7.277   4.501 -0.5568 -0.3351 -0.1476
 4505poe     o219490   2.564   7.275   4.642  0.5832  0.3149 -0.1004
 4505poe    c2319491   2.618   7.160   4.704  0.2157  0.2149  0.0352
 4505poe    c2319492   2.565   7.020   4.668  0.0882  0.2708  0.0061
 4505poe     o219493   2.432   6.997   4.709 -0.0291  0.1715 -0.4254
 4505poe    c2319494   2.379   6.872   4.673  0.3105 -0.2344  0.4697
 4505poe    c2319495   2.298   6.876   4.542  0.3903  0.6339  0.4421
 4505poe     o219496   2.249   6.759   4.480 -0.0378  0.8669  0.3415
 4505poe    c2319497   2.115   6.722   4.507  0.1014 -0.2363 -0.4295
 4505poe    c2319498   2.059   6.602   4.429 -0.5146 -0.2690  0.0585
 4505poe     o219499   2.142   6.497   4.475 -0.0088  0.0805 -0.0452
 4505poe    c3119500   2.164   6.403   4.373 -0.7538 -0.4648  0.2894
 4506poe    c3119501   0.840   4.433   6.628 -0.0045 -0.6837 -0.0166
 4506poe     o219502   0.908   4.402   6.748  0.1350  0.0007  0.0805
 4506poe    c2319503   1.042   4.385   6.708  0.1677 -0.5147  0.4015
 4506poe    c2319504   1.134   4.446   6.815 -0.1548  0.0317  0.3716
 4506poe     o219505   1.082   4.417   6.943  0.4408 -0.1991  0.5662
 4506poe    c2319506   1.175   4.432   7.048  0.4517 -0.1456  0.5492
 4506poe    c2319507   1.123   4.373   7.181 -0.8871 -0.8076 -0.2422
 4506poe     o219508   0.992   4.414   7.212 -0.3977  0.3413  0.3725
 4506poe    c2319509   0.950   4.368   7.339 -0.2447 -0.3710  0.1723
 4506poe    c2319510   0.796   4.364   7.324 -0.2823  0.0295  0.4366
 4506poe     o219511   0.765   4.498   7.292 -0.0333  0.0861  0.4297
 4506poe    c3119512   0.631   4.528   7.324 -0.4364 -0.2565 -0.8815
 4507poe    c3119513   3.057   6.453   5.442  0.4579  0.0792 -0.5597
 4507poe     o219514   2.973   6.561   5.411  0.1721  0.2404  0.7128
 4507poe    c2319515   2.851   6.562   5.482 -0.4758  0.1590 -0.3614
 4507poe    c2319516   2.823   6.668   5.591 -0.2134 -0.2371  0.0961
 4507poe     o219517   2.895   6.678   5.712 -0.8928  0.0268  0.4859
 4507poe    c2319518   2.884   6.575   5.807 -0.6107 -0.6037 -0.1496
 4507poe    c2319519   2.985   6.611   5.918 -0.5249 -0.0886 -0.3920
 4507poe     o219520   2.976   6.751   5.928  0.2754 -0.0565 -0.0345
 4507poe    c2319521   3.083   6.779   6.015 -0.0605  0.5151  0.1968
 4507poe    c2319522   3.052   6.856   6.145  0.4537 -0.0711  0.6707
 4507poe     o219523   3.031   6.990   6.108 -0.1034 -0.4042 -0.2466
 4507poe    c3119524   3.052   7.059   6.230  1.1085  0.1197 -0.7375
 4508poe    c3119525   3.202   6.508   1.924 -0.0143  0.2783  0.0625
 4508poe     o219526   3.237   6.380   1.875 -0.0509  0.3410 -0.1243
 4508poe    c2319527   3.245   6.279   1.972 -0.2688  0.4228 -0.0196
 4508poe    c2319528   3.261   6.139   1.908  0.1269  0.4522  0.0149
 4508poe     o219529   3.382   6.131   1.836 -0.0069 -0.5867 -0.0990
 4508poe    c2319530   3.415   6.003   1.787 -0.2949 -0.6420 -0.1527
 4508poe    c2319531   3.544   5.985   1.704 -0.0394  0.0744  0.0818
 4508poe     o219532   3.655   6.025   1.782 -0.0783  0.1039  0.1221
 4508poe    c2319533   3.764   5.988   1.701 -0.1455  0.2957 -0.0536
 4508poe    c2319534   3.851   6.104   1.647  0.6406 -0.0595  0.4312
 4508poe     o219535   3.778   6.182   1.555  0.9009 -0.2133  0.0911
 4508poe    c3119536   3.754   6.119   1.432 -0.7958 -0.1557  0.3631
 4509poe    c3119537   6.433   0.402   5.405 -0.2787  0.1308 -0.8175
 4509poe     o219538   6.334   0.355   5.493  0.5705  0.0217  0.0946
 4509poe    c2319539   6.222   0.301   5.426  0.5228 -0.2262  0.3705
 4509poe    c2319540   6.098   0.266   5.509 -0.1881 -0.0073 -0.5833
 4509poe     o219541   6.054   0.391   5.559  0.9479 -0.1076  0.7294
 4509poe    c2319542   5.956   0.354   5.652 -0.0240  0.1980 -0.1522
 4509poe    c2319543   5.939   0.472   5.750  0.2094  0.5782 -0.5724
 4509poe     o219544   5.922   0.595   5.684  0.0316  0.5907 -0.5037
 4509poe    c2319545   5.879   0.694   5.774  0.3497 -0.0357  0.3410
 4509poe    c2319546   5.935   0.817   5.701 -0.1354 -0.0085  0.0060
 4509poe     o219547   6.067   0.795   5.656 -0.0900 -0.3676  0.3092
 4509poe    c3119548   6.146   0.912   5.645 -0.6080 -0.0694 -0.2809
 4510poe    c3119549   0.793   2.713   4.724 -0.0008  0.3480 -0.2854
 4510poe     o219550   0.837   2.616   4.632  0.0519 -0.3631  0.4761
 4510poe    c2319551   0.978   2.614   4.620 -0.0347  0.3281 -0.8161
 4510poe    c2319552   1.019   2.513   4.511 -1.4026 -0.0022 -1.0446
 4510poe     o219553   0.983   2.384   4.554  0.1694 -0.0049  0.3871
 4510poe    c2319554   1.007   2.274   4.468  0.2554 -0.1037  0.5372
 4510poe    c2319555   1.153   2.255   4.422  0.1514 -0.1649  0.2303
 4510poe     o219556   1.203   2.339   4.321 -0.2521  0.4062  0.4961
 4510poe    c2319557   1.154   2.321   4.190  0.3048 -0.1889  0.3606
 4510poe    c2319558   1.264   2.323   4.083 -0.0222  0.5630  0.0344
 4510poe     o219559   1.354   2.216   4.096 -0.3763  0.2425 -0.1327
 4510poe    c3119560   1.326   2.107   4.010 -0.5556  0.4388 -0.3250
 4511poe    c3119561   0.254   4.542   1.649 -0.0059  0.7917  0.4298
 4511poe     o219562   0.180   4.607   1.750 -0.5204  0.2170  0.4297
 4511poe    c2319563   0.071   4.674   1.690 -0.4235  0.2708  0.3127
 4511poe    c2319564  -0.057   4.590   1.708  0.2396 -0.8317  0.0248
 4511poe     o219565  -0.117   4.596   1.835 -0.3105  0.4355 -0.2800
 4511poe    c2319566  -0.251   4.554   1.835 -0.0508 -0.4199  0.2220
 4511poe    c2319567  -0.333   4.598   1.958  0.4900  0.2295  0.3594
 4511poe     o219568  -0.390   4.724   1.932 -0.1211  0.0110  0.6138
 4511poe    c2319569  -0.500   4.736   1.844  0.6220 -0.2105 -0.3588
 4511poe    c2319570  -0.561   4.876   1.826 -0.0314 -0.3920  0.3783
 4511poe     o219571  -0.595   4.940   1.947  0.7327  0.0258  0.3778
 4511poe    c3119572  -0.633   5.074   1.931 -0.3951 -0.3177  0.0857
 4512poe    c3119573   6.191   1.023   0.010 -0.6255  0.1117  0.5197
 4512poe     o219574   6.160   1.114  -0.093  0.2689 -0.0888  0.0530
 4512poe    c2319575   6.047   1.076  -0.168  0.1649 -0.3799  0.3546
 4512poe    c2319576   6.035   0.944  -0.247  0.2109  0.2594 -0.7336
 4512poe     o219577   6.160   0.924  -0.310  0.2708 -0.2268 -0.4612
 4512poe    c2319578   6.175   0.784  -0.313 -0.1324 -0.2804 -0.0119
 4512poe    c2319579   6.287   0.750  -0.413 -0.4281 -0.5662 -0.2468
 4512poe     o219580   6.416   0.766  -0.359 -0.6121 -0.2303  0.1028
 4512poe    c2319581   6.507   0.734  -0.463 -0.0070  0.2479  0.4816
 4512poe    c2319582   6.635   0.819  -0.452  0.3717 -0.2142 -0.2921
 4512poe     o219583   6.728   0.790  -0.349  0.5131  0.4680 -0.2237
 4512poe    c3119584   6.858   0.836  -0.379  0.3037  0.6687 -0.8539
 4513poe    c3119585   3.534   6.089   6.643  0.2846  0.2271 -0.1071
 4513poe     o219586   3.602   6.157   6.746  0.2875  0.4037 -0.2256
 4513poe    c2319587   3.511   6.241   6.814  0.0179  0.0990 -0.2068
 4513poe    c2319588   3.578   6.377   6.845 -0.2204 -0.0412  0.9833
 4513poe     o219589   3.615   6.455   6.733  0.2842 -0.5211  0.8108
 4513poe    c2319590   3.649   6.583   6.779 -0.0320 -0.1115 -0.0792
 4513poe    c2319591   3.677   6.686   6.668  0.3765 -0.1113  0.0244
 4513poe     o219592   3.768   6.667   6.562  0.1518  0.7007 -0.3193
 4513poe    c2319593   3.901   6.700   6.597  0.0873  0.2100  0.3946
 4513poe    c2319594   3.982   6.619   6.495 -0.5884  0.4216 -0.3197
 4513poe     o219595   3.947   6.483   6.478 -0.2017  0.2894 -0.0854
 4513poe    c3119596   4.029   6.397   6.554  0.0142  0.1387 -0.4878
 4514poe    c3119597   3.335   7.416   3.663 -0.7631  0.2946  0.2802
 4514poe     o219598   3.380   7.355   3.544 -0.5598  0.4566  0.2731
 4514poe    c2319599   3.389   7.445   3.436 -0.8566  0.1744  0.0119
 4514poe    c2319600   3.429   7.375   3.305 -0.3158  0.1698  0.1773
 4514poe     o219601   3.329   7.306   3.233  0.2085 -0.5686  0.1442
 4514poe    c2319602   3.376   7.247   3.115  0.3868 -0.2749  0.0668
 4514poe    c2319603   3.272   7.158   3.044  0.5844 -0.5406  0.1055
 4514poe     o219604   3.232   7.058   3.135  0.0832 -0.5206 -0.0891
 4514poe    c2319605   3.159   6.960   3.064 -0.4907 -0.1423 -0.0274
 4514poe    c2319606   3.111   6.861   3.171 -0.3874 -0.1779 -0.0140
 4514poe     o219607   3.040   6.942   3.262  0.2246 -0.2015  0.4888
 4514poe    c3119608   2.914   6.886   3.291 -0.0731  0.4044  0.3702
 4515poe    c3119609   1.064   1.231   3.888  0.5503  0.4721 -0.3445
 4515poe     o219610   1.191   1.197   3.938  0.3979  0.1566 -0.1663
 4515poe    c2319611   1.298   1.283   3.905  0.4137  0.0732 -0.3289
 4515poe    c2319612   1.302   1.424   3.966 -0.4133 -0.0348 -0.0184
 4515poe     o219613   1.300   1.423   4.107  0.3256 -0.0933 -0.0016
 4515poe    c2319614   1.299   1.558   4.150 -0.3017 -0.3352  0.7827
 4515poe    c2319615   1.293   1.584   4.301 -0.5121 -0.2216  0.7546
 4515poe     o219616   1.402   1.528   4.371  0.0440 -0.0520  0.0380
 4515poe    c2319617   1.421   1.578   4.502 -0.1598  0.5155 -0.1465
 4515poe    c2319618   1.554   1.534   4.566 -0.2547  0.2146 -0.1537
 4515poe     o219619   1.576   1.396   4.582  0.7345  0.3931  0.0887
 4515poe    c3119620   1.667   1.351   4.681  0.4123 -0.7119 -0.1065
 4516poe    c3119621   2.248   6.978   5.008 -0.6497 -0.0362  0.7912
 4516poe     o219622   2.153   7.078   4.980  0.1289  0.3492 -0.5498
 4516poe    c2319623   2.025   7.019   4.969 -0.0206  0.5034  0.3101
 4516poe    c2319624   1.917   7.127   4.945 -0.0437  0.4689  0.2578
 4516poe     o219625   1.854   7.181   5.059 -0.5607 -0.0602  0.2256
 4516poe    c2319626   1.744   7.261   5.020 -0.3747  0.0896  0.0020
 4516poe    c2319627   1.772   7.412   5.032  0.4155 -0.0249 -0.3852
 4516poe     o219628   1.763   7.476   5.156 -0.1056 -0.2185 -0.3208
 4516poe    c2319629   1.865   7.440   5.247 -0.0026  0.2091 -0.2611
 4516poe    c2319630   2.014   7.445   5.211 -0.0762 -0.6197 -0.7060
 4516poe     o219631   2.047   7.576   5.171  0.1548 -0.3875  0.2069
 4516poe    c3119632   2.185   7.598   5.188  0.1698 -0.1308 -0.2185
 4517poe    c3119633   4.137   7.166   1.119 -0.1069 -0.0914 -0.1625
 4517poe     o219634   4.266   7.139   1.168 -0.4522  0.2713  0.9856
 4517poe    c2319635   4.277   7.001   1.189 -0.3899  0.1327  0.1077
 4517poe    c2319636   4.419   6.946   1.212 -0.3794  0.2516  0.3299
 4517poe     o219637   4.424   6.812   1.257 -0.0328  0.0059 -0.4262
 4517poe    c2319638   4.453   6.723   1.152 -0.0395  0.4820 -0.8366
 4517poe    c2319639   4.426   6.579   1.199  0.3826  0.6432 -0.0831
 4517poe     o219640   4.289   6.548   1.212  0.3890  0.7046  0.1349
 4517poe    c2319641   4.219   6.525   1.092  0.3269  0.2714  0.2526
 4517poe    c2319642   4.124   6.406   1.119  0.2410  0.3960  0.5035
 4517poe     o219643   4.195   6.288   1.148 -0.0762  0.0772 -0.0156
 4517poe    c3119644   4.134   6.161   1.132  0.3371 -0.1980  0.5556
 4518poe    c3119645   4.795   5.080   5.590 -0.5143 -0.3893 -0.3920
 4518poe     o219646   4.749   5.139   5.470  0.1156  0.9279  0.0002
 4518poe    c2319647   4.622   5.083   5.444  0.6635 -0.0873 -0.5216
 4518poe    c2319648   4.569   5.087   5.300 -0.0952  0.2715 -0.2324
 4518poe     o219649   4.626   4.994   5.212  0.4377  0.2932  0.0903
 4518poe    c2319650   4.597   5.036   5.080 -0.5374 -0.6687 -0.0112
 4518poe    c2319651   4.679   4.962   4.973  0.1544  0.0925 -0.0120
 4518poe     o219652   4.811   5.011   4.979  0.2451 -0.1706  0.1258
 4518poe    c2319653   4.907   4.925   4.922  0.0935 -0.4339  0.2667
 4518poe    c2319654   5.058   4.954   4.930 -0.0153  0.1897  0.1043
 4518poe     o219655   5.095   5.081   4.883  0.0493  0.0567 -0.2100
 4518poe    c3119656   5.219   5.122   4.935  0.4368 -0.8365 -0.4211
 4519poe    c3119657   4.388   0.061   2.675 -0.2130 -0.2722 -0.0368
 4519poe     o219658   4.454   0.131   2.572  0.1664  0.0281  0.4054
 4519poe    c2319659   4.529   0.043   2.491 -0.0609  0.3594 -0.1637
 4519poe    c2319660   4.677   0.081   2.473  0.0832 -0.1364 -0.0111
 4519poe     o219661   4.748   0.015   2.576  0.3371  0.0825 -0.0437
 4519poe    c2319662   4.794   0.090   2.686 -0.1097  0.3170 -0.0162
 4519poe    c2319663   4.941   0.134   2.680  0.0665 -0.2092  0.4255
 4519poe     o219664   4.953   0.206   2.559 -0.0418 -0.2778  0.3745
 4519poe    c2319665   5.089   0.223   2.527 -0.2057  0.0908 -0.1416
 4519poe    c2319666   5.099   0.239   2.374  0.9508  0.1315 -0.0668
 4519poe     o219667   5.103   0.374   2.336 -0.1145  0.2019  0.0650
 4519poe    c3119668   5.088   0.384   2.196  0.0528 -0.2749  0.0137
 4520poe    c3119669   0.155   5.024   5.959  0.0730 -0.0553  0.2163
 4520poe     o219670   0.116   5.159   5.949  0.5202  0.0480 -0.2154
 4520poe    c2319671  -0.013   5.160   5.892  0.5181  0.1948 -0.2080
 4520poe    c2319672  -0.076   5.299   5.911 -0.3198 -0.1779 -0.2108
 4520poe     o219673  -0.048   5.404   5.821  0.5851 -0.2325  0.0023
 4520poe    c2319674  -0.112   5.522   5.862 -0.0354 -0.2179 -0.9802
 4520poe    c2319675  -0.049   5.636   5.779 -0.1959  0.2317 -0.4930
 4520poe     o219676   0.067   5.692   5.837 -0.5370 -0.0487  0.4940
 4520poe    c2319677   0.057   5.794   5.933 -0.3535 -0.0927  0.5614
 4520poe    c2319678   0.188   5.837   6.002 -0.2199 -0.1207  0.3283
 4520poe     o219679   0.229   5.746   6.102  0.6151 -0.5037 -0.3522
 4520poe    c3119680   0.323   5.802   6.190 -0.2718  0.2314  0.1384
 4521poe    c3119681   0.698   0.175   6.460  0.5239  0.1728  0.4337
 4521poe     o219682   0.692   0.044   6.406  0.5535  0.1405  0.5093
 4521poe    c2319683   0.600  -0.042   6.471  0.2057  0.0073 -0.1524
 4521poe    c2319684   0.547  -0.161   6.388 -0.2621 -0.0137  0.1751
 4521poe     o219685   0.477  -0.132   6.270 -0.1474  0.4752  0.2235
 4521poe    c2319686   0.390  -0.239   6.239 -0.4742  0.7773  0.0797
 4521poe    c2319687   0.307  -0.218   6.111 -0.0951  0.4239 -0.2264
 4521poe     o219688   0.393  -0.215   6.000 -0.0346  0.0007 -0.1911
 4521poe    c2319689   0.363  -0.115   5.905 -0.2206 -0.0259 -0.1592
 4521poe    c2319690   0.439  -0.124   5.772  0.1368 -0.2600  0.0588
 4521poe     o219691   0.403  -0.229   5.684  0.2179  0.0515 -0.3461
 4521poe    c3119692   0.493  -0.218   5.575 -0.2391 -0.1813 -0.7520
 4522poe    c3119693   7.260   3.042   0.104  0.1139  0.1955 -0.1461
 4522poe     o219694   7.294   3.155   0.027  0.2845 -0.0052 -0.3658
 4522poe    c2319695   7.363   3.121  -0.091 -0.5064  0.1658 -0.8822
 4522poe    c2319696   7.397   3.230  -0.194 -0.1082  0.5531 -0.3459
 4522poe     o219697   7.491   3.322  -0.143  0.0360  0.0488  0.3161
 4522poe    c2319698   7.517   3.439  -0.218 -0.3381 -0.1886 -0.1897
 4522poe    c2319699   7.400   3.534  -0.246  0.1986  0.5524  0.0603
 4522poe     o219700   7.317   3.563  -0.136 -0.7501 -0.0974 -0.4699
 4522poe    c2319701   7.212   3.647  -0.180 -0.3012  0.4385 -0.5215
 4522poe    c2319702   7.097   3.668  -0.080  0.0334  0.2341 -0.0874
 4522poe     o219703   7.117   3.769   0.016 -0.0708  0.1633  0.0083
 4522poe    c3119704   7.024   3.750   0.121  0.0822 -0.1081  0.0987
 4523poe    c3119705   5.818   0.604   0.814 -0.0300  0.9479 -0.5569
 4523poe     o219706   5.936   0.654   0.872 -0.1800  0.7702 -0.0940
 4523poe    c2319707   6.044   0.610   0.793 -0.1305 -0.0174  0.4093
 4523poe    c2319708   6.179   0.623   0.866 -0.0135  0.0524  0.1812
 4523poe     o219709   6.228   0.755   0.869 -0.0936  0.0900 -0.1228
 4523poe    c2319710   6.319   0.771   0.762 -0.3650  0.4073 -0.3084
 4523poe    c2319711   6.419   0.884   0.789  0.2376 -0.2062  0.0737
 4523poe     o219712   6.364   1.014   0.788 -0.0573 -0.3308 -0.1627
 4523poe    c2319713   6.474   1.103   0.783 -0.1455 -0.2129  0.0086
 4523poe    c2319714   6.434   1.246   0.740  0.1987 -0.0644  0.1821
 4523poe     o219715   6.389   1.338   0.837  0.1936  0.0279  0.0919
 4523poe    c3119716   6.486   1.393   0.923  0.8929 -0.2378 -0.5125
 4524poe    c3119717   7.396   5.653   2.734  0.1662 -0.3112  0.3851
 4524poe     o219718   7.378   5.535   2.660 -0.4579 -0.2961  0.5066
 4524poe    c2319719   7.251   5.481   2.686 -0.5947  0.0984  0.6665
 4524poe    c2319720   7.228   5.389   2.564  0.0845  0.0414  0.5804
 4524poe     o219721   7.347   5.313   2.564 -0.3825 -0.6927  0.1019
 4524poe    c2319722   7.384   5.256   2.440  0.4680  0.7540 -0.3296
 4524poe    c2319723   7.512   5.175   2.467 -0.1045 -0.1887 -0.4058
 4524poe     o219724   7.608   5.253   2.534 -0.5711  0.0791 -0.0426
 4524poe    c2319725   7.723   5.175   2.559 -0.6546 -0.0375 -0.0257
 4524poe    c2319726   7.823   5.279   2.612 -0.5020 -0.2044  0.0117
 4524poe     o219727   7.784   5.346   2.730 -0.0891  0.0526  0.0019
 4524poe    c3119728   7.901   5.390   2.795 -0.2911 -0.0547  0.4389
 4525poe    c3119729   3.794   7.553   0.617  0.3653  0.2036 -0.2869
 4525poe     o219730   3.922   7.610   0.630  0.4884 -0.1505  0.0652
 4525poe    c2319731   4.019   7.521   0.579  0.1554 -0.1278 -0.6289
 4525poe    c2319732   4.130   7.515   0.686  0.0334  0.3888 -0.4739
 4525poe     o219733   4.254   7.454   0.657  0.1468  0.1737  0.4256
 4525poe    c2319734   4.261   7.317   0.623 -0.1748  0.2804 -0.0910
 4525poe    c2319735   4.394   7.255   0.671 -0.2817  0.2383  0.1557
 4525poe     o219736   4.508   7.304   0.604  0.0763 -0.8049 -0.0158
 4525poe    c2319737   4.621   7.220   0.597  0.3574 -0.4484  0.2246
 4525poe    c2319738   4.725   7.297   0.514  0.1008 -0.3073  0.0330
 4525poe     o219739   4.728   7.436   0.539  0.4986 -0.3989  0.5215
 4525poe    c3119740   4.753   7.494   0.413 -0.8314 -0.3497  0.2650
 4526poe    c3119741   5.698   3.561   7.119  0.0235 -0.1166 -0.1574
 4526poe     o219742   5.804   3.468   7.114  0.0839 -0.0605  0.0662
 4526poe    c2319743   5.889   3.507   7.218  0.4844  0.6595 -0.5250
 4526poe    c2319744   6.026   3.445   7.184  0.3393  0.3961 -0.6309
 4526poe     o219745   5.996   3.325   7.118  0.1555  0.0605  0.0538
 4526poe    c2319746   6.103   3.234   7.112 -0.0060 -0.1127 -0.2087
 4526poe    c2319747   6.043   3.106   7.049 -0.0266 -0.5767  0.7357
 4526poe     o219748   5.956   3.130   6.941  0.7597 -0.3491  0.1339
 4526poe    c2319749   5.918   3.004   6.891 -0.0592 -0.2505  0.4833
 4526poe    c2319750   5.820   3.020   6.773  0.2350 -0.2636  0.2348
 4526poe     o219751   5.695   3.061   6.825  0.1900 -0.1352  0.0286
 4526poe    c3119752   5.588   3.035   6.737 -0.2678  0.3227  0.4414
 4527poe    c3119753   4.327   4.100   6.449 -0.1200  0.0817  0.3642
 4527poe     o219754   4.385   3.973   6.474  0.4235  0.0969 -0.7501
 4527poe    c2319755   4.519   3.998   6.509  0.2010  0.1198  0.1219
 4527poe    c2319756   4.598   3.866   6.510  0.0215  0.0117 -0.0601
 4527poe     o219757   4.525   3.775   6.590  0.4936 -0.2254  0.1037
 4527poe    c2319758   4.587   3.650   6.612  0.6730 -0.1549  0.0060
 4527poe    c2319759   4.488   3.551   6.678  0.0023  0.4371 -0.0968
 4527poe     o219760   4.365   3.559   6.610  0.3186 -0.1820 -0.7588
 4527poe    c2319761   4.281   3.450   6.644  0.6668 -0.2242  0.0035
 4527poe    c2319762   4.182   3.467   6.761  0.3264 -0.2368 -0.2783
 4527poe     o219763   4.096   3.577   6.743 -0.0776 -0.5012  0.0237
 4527poe    c3119764   3.987   3.572   6.832  0.2257 -0.3580  0.4121
 4528poe    c3119765   0.021   3.884   7.565 -0.6711  0.2091 -0.3647
 4528poe     o219766  -0.116   3.865   7.590 -0.6591  0.3655 -0.1763
 4528poe    c2319767  -0.191   3.981   7.621 -0.5467  0.4153 -0.0887
 4528poe    c2319768  -0.191   4.038   7.764 -0.0212  0.1690  0.0121
 4528poe     o219769  -0.198   3.930   7.854 -0.2399 -0.2742 -0.5293
 4528poe    c2319770  -0.181   3.960   7.991  0.0773 -0.2548 -0.5725
 4528poe    c2319771  -0.180   3.840   8.088  0.4795  0.4258  0.2712
 4528poe     o219772  -0.309   3.784   8.090  0.7010 -0.1422 -0.6999
 4528poe    c2319773  -0.312   3.660   8.157  0.0253  0.0977 -0.2719
 4528poe    c2319774  -0.253   3.534   8.091  1.0293  0.3873  0.0446
 4528poe     o219775  -0.335   3.470   7.996  0.4310  0.3524  0.5729
 4528poe    c3119776  -0.466   3.422   8.016  0.2755  0.0205 -1.0706
 4529poe    c3119777   0.784   4.547   4.317 -0.1196  0.0219  0.5687
 4529poe     o219778   0.892   4.557   4.407  0.3082  0.3219  0.0266
 4529poe    c2319779   0.896   4.429   4.466 -0.5048  0.0579 -0.4746
 4529poe    c2319780   1.011   4.436   4.569 -0.7252  0.0175 -0.2242
 4529poe     o219781   1.022   4.552   4.648  0.3700 -0.0448 -0.2813
 4529poe    c2319782   0.930   4.573   4.753  0.4254 -0.5991 -0.1209
 4529poe    c2319783   0.967   4.682   4.855  0.6195 -0.8044  0.0300
 4529poe     o219784   1.041   4.771   4.774 -0.7563  0.2231 -0.1273
 4529poe    c2319785   1.092   4.880   4.849 -0.1564  0.0972 -0.3499
 4529poe    c2319786   1.153   4.974   4.743  0.1200 -0.0819 -0.3516
 4529poe     o219787   1.199   4.884   4.645  0.2266 -0.1028 -0.2817
 4529poe    c3119788   1.278   4.954   4.551 -0.3398  0.4525 -0.3498
 4530poe    c3119789   2.373   3.534   2.591  0.4315 -0.0870  0.2392
 4530poe     o219790   2.269   3.460   2.651  0.0266  0.1902 -0.1163
 4530poe    c2319791   2.243   3.360   2.555 -0.2251  0.5230 -0.4035
 4530poe    c2319792   2.141   3.255   2.603  0.0093  0.6453  0.3809
 4530poe     o219793   2.002   3.280   2.613 -0.1228  0.0035  0.1881
 4530poe    c2319794   1.921   3.285   2.498 -0.5640 -0.6616  0.4626
 4530poe    c2319795   1.776   3.324   2.530 -0.5194 -0.0473 -0.0502
 4530poe     o219796   1.722   3.235   2.625  0.2186 -0.3908  0.0559
 4530poe    c2319797   1.596   3.281   2.670  0.1937  0.0006 -0.4081
 4530poe    c2319798   1.532   3.188   2.775  0.1632  0.3923 -0.0766
 4530poe     o219799   1.630   3.168   2.874  0.0611 -0.2759 -0.1009
 4530poe    c3119800   1.550   3.108   2.973  0.0724  0.3206  0.2793
 4531poe    c3119801   4.272   4.653   4.676  0.5057 -0.0138 -0.6158
 4531poe     o219802   4.208   4.528   4.659  0.5863 -0.1165 -0.1609
 4531poe    c2319803   4.295   4.417   4.666 -0.2499 -0.7746 -0.0424
 4531poe    c2319804   4.351   4.377   4.528 -0.3011  0.3171 -0.3886
 4531poe     o219805   4.266   4.314   4.434  0.0530  0.1408 -0.5953
 4531poe    c2319806   4.258   4.176   4.459  0.4382  0.1598 -0.3611
 4531poe    c2319807   4.185   4.125   4.333  0.0101 -0.3894  0.1054
 4531poe     o219808   4.073   4.207   4.310  0.1480 -0.2542 -0.0866
 4531poe    c2319809   4.010   4.178   4.188 -0.6175 -0.4628  0.3512
 4531poe    c2319810   3.892   4.276   4.174 -0.0555  0.1876  0.0513
 4531poe     o219811   3.955   4.397   4.210  0.6148  0.0986 -0.8052
 4531poe    c3119812   3.855   4.496   4.200 -0.1051 -0.5628 -0.3577
 4532poe    c3119813   0.169   1.940   2.384 -0.8150  0.1694 -0.6568
 4532poe     o219814   0.205   2.069   2.342  0.0607  0.2263  0.2170
 4532poe    c2319815   0.079   2.130   2.361 -0.1573 -0.2285  0.2341
 4532poe    c2319816   0.132   2.267   2.407  0.0966 -0.0869 -0.4709
 4532poe     o219817   0.228   2.253   2.510 -0.3999 -0.1698 -0.0168
 4532poe    c2319818   0.267   2.377   2.562 -0.0951 -0.1080 -0.3891
 4532poe    c2319819   0.370   2.370   2.677  0.1497  0.3221 -0.5787
 4532poe     o219820   0.471   2.281   2.633 -0.3318 -0.4584 -0.1127
 4532poe    c2319821   0.604   2.326   2.627 -0.3527 -0.3871 -0.0524
 4532poe    c2319822   0.693   2.207   2.586  0.0640 -0.1039  0.0245
 4532poe     o219823   0.732   2.128   2.696  0.4060 -0.3859 -0.2944
 4532poe    c3119824   0.828   2.029   2.667  0.6822 -0.3536  0.4613
 4533poe    c3119825   4.151   3.145   3.633 -0.0426  1.2667 -0.5780
 4533poe     o219826   4.279   3.148   3.692 -0.2762 -0.5252  0.0900
 4533poe    c2319827   4.368   3.242   3.637 -0.8225  0.2290  0.4788
 4533poe    c2319828   4.458   3.318   3.738  0.4270  0.2199 -0.6004
 4533poe     o219829   4.569   3.356   3.660  0.3622  0.6213 -0.5014
 4533poe    c2319830   4.692   3.305   3.709  0.0463  0.0183 -0.3268
 4533poe    c2319831   4.815   3.397   3.703 -0.0357  0.1410 -0.1016
 4533poe     o219832   4.786   3.516   3.775 -0.7328  0.1876 -0.4442
 4533poe    c2319833   4.913   3.570   3.803 -0.7603  0.1525 -0.2483
 4533poe    c2319834   4.917   3.702   3.883  0.4608 -0.1388  0.2014
 4533poe     o219835   4.810   3.710   3.974  0.1326 -0.3080 -0.1662
 4533poe    c3119836   4.794   3.817   4.064  0.0997  0.0310 -0.5716
 4534poe    c3119837   4.662   6.623   2.979  0.3511  0.5885 -0.5807
 4534poe     o219838   4.718   6.655   3.104 -0.0021  0.6100 -0.4238
 4534poe    c2319839   4.857   6.644   3.080 -0.0064 -0.2636 -0.0700
 4534poe    c2319840   4.932   6.666   3.213  0.2355 -0.3736 -0.1879
 4534poe     o219841   4.873   6.600   3.323  0.6327 -0.3771  0.0235
 4534poe    c2319842   4.933   6.652   3.439 -0.5948  0.0073  0.4911
 4534poe    c2319843   4.861   6.607   3.568  0.1699 -0.1745  0.8628
 4534poe     o219844   4.723   6.636   3.563  0.1763 -0.2184  0.2077
 4534poe    c2319845   4.653   6.575   3.670  0.0554 -0.3453  0.0552
 4534poe    c2319846   4.501   6.590   3.648  0.0874  0.0562  0.0918
 4534poe     o219847   4.471   6.511   3.534  0.2226  0.2488 -0.0776
 4534poe    c3119848   4.331   6.496   3.528  0.2530  0.0553 -0.3168
 4535poe    c3119849   1.181   2.486   0.152 -0.6527 -0.0642  0.7008
 4535poe     o219850   1.065   2.458   0.077 -0.0763  0.1883 -0.3072
 4535poe    c2319851   0.996   2.567   0.021 -0.2196  0.1388 -0.2297
 4535poe    c2319852   0.867   2.528  -0.054 -0.3391  0.8755 -0.4197
 4535poe     o219853   0.754   2.481   0.016 -0.4245  0.5840 -0.7484
 4535poe    c2319854   0.666   2.590   0.034 -0.5322  0.3636  0.0561
 4535poe    c2319855   0.526   2.542   0.077 -0.3966 -0.1327 -0.0484
 4535poe     o219856   0.460   2.493  -0.038  0.1381 -0.0090 -0.4095
 4535poe    c2319857   0.334   2.453   0.010  0.0833  0.3000 -0.2925
 4535poe    c2319858   0.246   2.406  -0.107 -0.1075 -0.3481  0.1070
 4535poe     o219859   0.112   2.384  -0.068 -0.1557 -0.2873 -0.0234
 4535poe    c3119860   0.041   2.354  -0.186 -0.0662  0.1549 -0.1916
 4536poe    c3119861   1.433   1.570   2.730  0.6341 -0.3523  0.2749
 4536poe     o219862   1.323   1.492   2.693  0.0443  0.4091  0.3917
 4536poe    c2319863   1.329   1.501   2.552  0.3878  0.2770  0.3968
 4536poe    c2319864   1.235   1.421   2.460  0.1572  0.6092  0.3427
 4536poe     o219865   1.252   1.284   2.485  0.1727  0.3746 -0.8636
 4536poe    c2319866   1.167   1.218   2.394 -0.5977  0.4163 -0.1930
 4536poe    c2319867   1.134   1.076   2.441  0.5248  0.2792  0.1944
 4536poe     o219868   1.246   0.990   2.445 -0.1444 -0.6689 -0.8387
 4536poe    c2319869   1.228   0.892   2.545  0.1501 -0.1785 -0.2959
 4536poe    c2319870   1.348   0.796   2.546 -0.2410 -0.6730  0.0740
 4536poe     o219871   1.453   0.882   2.584 -0.7956 -0.1331  0.4077
 4536poe    c3119872   1.563   0.803   2.625 -0.4216  0.1367 -0.0709
 4537poe    c3119873   3.443   6.619   7.502 -0.0405 -0.1665  0.7394
 4537poe     o219874   3.556   6.535   7.488 -0.1773 -0.2171 -0.1513
 4537poe    c2319875   3.639   6.569   7.379  0.0901 -0.5672 -0.0569
 4537poe    c2319876   3.781   6.510   7.390  0.3657  0.0136 -0.4619
 4537poe     o219877   3.838   6.568   7.505  0.2738 -0.0836 -0.3669
 4537poe    c2319878   3.972   6.528   7.523  0.2348  0.0469  0.2351
 4537poe    c2319879   4.074   6.610   7.606  0.0150 -0.2036  0.7579
 4537poe     o219880   4.094   6.742   7.560 -0.4113 -0.4294 -0.0964
 4537poe    c2319881   4.140   6.751   7.427 -0.7094  0.2072 -0.1596
 4537poe    c2319882   4.169   6.897   7.389 -0.1363  0.1781  0.1568
 4537poe     o219883   4.283   6.960   7.444 -0.1105  0.2440  0.0287
 4537poe    c3119884   4.334   7.056   7.354  0.3681 -0.0085  0.0268
 4538poe    c3119885   0.107   4.642   5.732  0.4407 -0.0079  0.2097
 4538poe     o219886   0.126   4.555   5.841 -0.0316 -0.3509  0.0208
 4538poe    c2319887   0.025   4.592   5.932  0.2889  0.2231  0.1487
 4538poe    c2319888   0.017   4.501   6.056  0.2319 -0.3660 -0.2787
 4538poe     o219889   0.136   4.523   6.128  0.3727  0.1557 -0.6604
 4538poe    c2319890   0.174   4.398   6.182  0.5719  0.6119  0.2799
 4538poe    c2319891   0.315   4.357   6.138  0.1714 -0.5735  0.0793
 4538poe     o219892   0.413   4.436   6.200 -0.1901 -0.2168  0.1952
 4538poe    c2319893   0.535   4.367   6.182  0.1080  0.2408  0.4237
 4538poe    c2319894   0.671   4.393   6.249  0.0086 -0.1617  0.7886
 4538poe     o219895   0.700   4.531   6.240  0.7048 -0.3693 -0.2295
 4538poe    c3119896   0.834   4.573   6.255  0.4649  0.1644  0.4524
 4539poe    c3119897   3.515   0.807   6.904  0.3596  0.0519 -0.6916
 4539poe     o219898   3.569   0.888   7.006 -0.0673  0.0151 -0.4342
 4539poe    c2319899   3.698   0.939   6.978 -0.1581  0.0604 -0.7696
 4539poe    c2319900   3.772   0.990   7.103 -0.8366  0.0042 -0.3390
 4539poe     o219901   3.812   0.876   7.176 -0.7023  0.0202 -0.3860
 4539poe    c2319902   3.912   0.910   7.268 -0.2117 -0.6428 -0.6631
 4539poe    c2319903   3.953   0.781   7.342 -0.2971 -0.3425 -0.0817
 4539poe     o219904   3.836   0.715   7.386 -0.3406 -0.3065 -0.1419
 4539poe    c2319905   3.839   0.645   7.508 -0.5941  0.1688  0.1355
 4539poe    c2319906   3.940   0.531   7.525 -0.0276  0.6044 -0.2701
 4539poe     o219907   3.904   0.397   7.499  0.0742  0.6314 -0.5595
 4539poe    c3119908   4.027   0.332   7.477 -0.0951  0.3447 -0.6685
 4540poe    c3119909   1.232   5.942   1.745  0.6981 -0.6755 -0.0044
 4540poe     o219910   1.272   6.074   1.777 -0.7384 -0.2324  0.0419
 4540poe    c2319911   1.230   6.158   1.672 -0.5183 -0.2271 -0.0435
 4540poe    c2319912   1.283   6.301   1.698 -0.4157 -0.2826  0.0521
 4540poe     o219913   1.188   6.376   1.770  0.0706 -0.1706  0.5825
 4540poe    c2319914   1.249   6.468   1.858  0.0546  0.4996 -0.0971
 4540poe    c2319915   1.153   6.545   1.950 -0.0933 -0.0896  0.2429
 4540poe     o219916   1.105   6.471   2.061 -0.5825 -0.0827  0.0337
 4540poe    c2319917   1.029   6.556   2.144  0.2834  0.5028  0.2332
 4540poe    c2319918   0.954   6.480   2.255  0.1356 -0.0653 -0.2505
 4540poe     o219919   1.044   6.388   2.312 -0.1979  0.2751  0.8512
 4540poe    c3119920   0.987   6.349   2.435 -0.1992 -0.8006  0.5246
 4541poe    c3119921   6.223   5.403   4.831 -0.2749  0.2090 -0.0623
 4541poe     o219922   6.106   5.479   4.849 -0.0708  0.5092 -0.0092
 4541poe    c2319923   5.985   5.409   4.834 -0.1014  0.5894 -0.1356
 4541poe    c2319924   5.871   5.511   4.847 -0.3071  0.3138  0.2323
 4541poe     o219925   5.898   5.629   4.774  0.2679 -0.2589 -0.4913
 4541poe    c2319926   5.789   5.677   4.698 -0.0326  0.4516  0.3757
 4541poe    c2319927   5.656   5.717   4.763 -0.3324 -0.3226  0.2479
 4541poe     o219928   5.675   5.843   4.823 -0.3217 -0.1026 -0.2118
 4541poe    c2319929   5.561   5.881   4.898 -0.4364  0.0268 -0.4530
 4541poe    c2319930   5.580   6.017   4.967  0.0887 -0.2786  0.0089
 4541poe     o219931   5.679   6.001   5.067 -0.2810  0.2579  0.4642
 4541poe    c3119932   5.718   6.131   5.107  0.3000  0.3659 -0.4191
 4542poe    c3119933   4.125   1.620   2.821 -0.1146 -0.2270 -0.2809
 4542poe     o219934   4.235   1.534   2.835 -0.4546 -0.6311 -0.0787
 4542poe    c2319935   4.229   1.459   2.954 -0.2914 -0.6396 -0.0762
 4542poe    c2319936   4.340   1.356   2.985 -0.3283 -0.4870  0.5806
 4542poe     o219937   4.344   1.326   3.122  0.2407 -0.1954  0.6330
 4542poe    c2319938   4.321   1.191   3.157  0.5465 -0.3649  0.1828
 4542poe    c2319939   4.333   1.175   3.310  0.2245  0.3616  0.2891
 4542poe     o219940   4.441   1.238   3.375  0.2370  0.5579  0.0792
 4542poe    c2319941   4.530   1.131   3.396 -0.3480  0.1444  0.4762
 4542poe    c2319942   4.648   1.204   3.462 -0.3063  0.6323 -0.1433
 4542poe     o219943   4.629   1.244   3.595 -0.0057  0.0678  0.0707
 4542poe    c3119944   4.752   1.284   3.651 -0.0905  0.2085  0.1583
 4543poe    c3119945   5.001   7.164   5.017  0.4668 -0.5564  0.3918
 4543poe     o219946   4.985   7.282   5.093  0.5048 -0.3650  0.1037
 4543poe    c2319947   4.857   7.331   5.063  0.5195 -0.5159 -0.2024
 4543poe    c2319948   4.861   7.484   5.048  0.6630 -0.4979  0.0256
 4543poe     o219949   4.908   7.536   5.171 -0.2667  0.0076  0.1752
 4543poe    c2319950   4.910   7.676   5.154 -0.6040  0.1271  1.0967
 4543poe    c2319951   5.041   7.748   5.196 -0.3816  0.1341  0.3941
 4543poe     o219952   5.068   7.765   5.333 -0.1193 -0.3167  0.4008
 4543poe    c2319953   5.125   7.888   5.372  0.0802 -0.1815 -0.3062
 4543poe    c2319954   5.142   7.893   5.525 -0.3147 -0.5645 -0.2481
 4543poe     o219955   5.216   7.786   5.581  0.4975  0.1581  0.0795
 4543poe    c3119956   5.227   7.800   5.721  0.0657  0.6111  0.0722
 4544poe    c3119957   5.861   2.601   3.481 -0.0961  0.2218  0.2193
 4544poe     o219958   5.750   2.521   3.445 -0.0120  0.1286  0.1680
 4544poe    c2319959   5.622   2.575   3.468  0.1950  0.4020  0.6948
 4544poe    c2319960   5.550   2.529   3.596 -0.7038 -0.2152 -0.0215
 4544poe     o219961   5.530   2.389   3.593 -0.3728 -0.2556 -0.3775
 4544poe    c2319962   5.466   2.341   3.709 -0.3552  0.1669 -0.1912
 4544poe    c2319963   5.452   2.188   3.711 -0.0068  0.1308 -0.5197
 4544poe     o219964   5.385   2.142   3.596 -0.4439 -0.1261 -0.1670
 4544poe    c2319965   5.346   2.009   3.617 -0.0142 -0.2785 -0.3230
 4544poe    c2319966   5.280   1.949   3.491 -0.8286 -0.1935  0.0519
 4544poe     o219967   5.341   2.006   3.377 -0.2065  0.0588  0.5004
 4544poe    c3119968   5.256   1.971   3.270  0.1027  0.4072  0.1387
 4545poe    c3119969   2.191   1.088   0.219  0.0947 -0.1267 -0.3572
 4545poe     o219970   2.155   1.155   0.100  0.3059  0.3876 -0.1366
 4545poe    c2319971   2.190   1.087  -0.019 -0.0254 -0.4515  0.2402
 4545poe    c2319972   2.080   1.025  -0.107  0.1584 -0.3170 -0.0842
 4545poe     o219973   1.992   0.921  -0.071  0.2367 -0.2195  0.3870
 4545poe    c2319974   1.908   0.938   0.041 -0.5028 -0.0789 -0.1811
 4545poe    c2319975   1.824   0.813   0.073 -0.1322 -0.1660  0.4703
 4545poe     o219976   1.708   0.844   0.147 -0.3892  0.4824 -0.1852
 4545poe    c2319977   1.620   0.740   0.112  0.3969 -0.2305 -0.0922
 4545poe    c2319978   1.594   0.642   0.228  0.2916 -0.4457 -0.2937
 4545poe     o219979   1.689   0.546   0.269  0.1947 -0.1986  0.5343
 4545poe    c3119980   1.631   0.445   0.349 -0.1060  0.0578  0.6443
 4546poe    c3119981   3.025   4.749   5.562  0.3049  0.3119 -0.9235
 4546poe     o219982   3.130   4.705   5.647 -0.7005 -0.1713  0.0925
 4546poe    c2319983   3.092   4.590   5.719  0.0226 -0.3050  0.2586
 4546poe    c2319984   3.188   4.558   5.835  0.0409  0.0112  0.3291
 4546poe     o219985   3.176   4.657   5.935  0.1642  0.2789  0.0832
 4546poe    c2319986   3.262   4.629   6.044  0.1762  0.1201  0.0336
 4546poe    c2319987   3.245   4.745   6.143 -0.8424  0.3525 -0.3954
 4546poe     o219988   3.239   4.862   6.065  0.0726  0.4651 -0.2998
 4546poe    c2319989   3.235   4.991   6.123  0.5634  0.4370 -0.1927
 4546poe    c2319990   3.212   5.108   6.026 -0.1317  0.6275  0.1926
 4546poe     o219991   3.103   5.073   5.944  0.0632  0.3472  0.0513
 4546poe    c3119992   3.024   5.187   5.922 -0.4075  0.1008  0.4434
 4547poe    c3119993   3.704   6.497   5.788  0.4276 -0.1008  0.2435
 4547poe     o219994   3.838   6.533   5.762  0.1834  0.1673 -0.6934
 4547poe    c2319995   3.932   6.473   5.848 -0.0188 -0.0917 -0.6509
 4547poe    c2319996   4.069   6.486   5.778  0.0630  0.3918 -0.4095
 4547poe     o219997   4.084   6.624   5.757 -0.3390  0.5334  0.2105
 4547poe    c2319998   4.220   6.661   5.751 -0.0738 -0.4427  0.0452
 4547poe    c2319999   4.250   6.806   5.708 -0.1140 -0.3576  0.3050
 4547poe     o220000   4.242   6.902   5.811  0.5019 -0.2400  0.2470
 4547poe    c2320001   4.284   7.024   5.753  0.0985 -0.0245  0.4030
 4547poe    c2320002   4.287   7.146   5.847  0.0609  0.4160 -0.1593
 4547poe     o220003   4.159   7.191   5.884  0.0057 -0.0076  0.1851
 4547poe    c3120004   4.169   7.306   5.964  0.2993  0.3448 -0.3503
 4548poe    c3120005   0.517   4.549   4.981  0.0688  0.1424 -0.3555
 4548poe     o220006   0.441   4.663   4.948 -0.1961  0.1979  0.4074
 4548poe    c2320007   0.349   4.676   5.054 -0.2860 -0.2242  0.3826
 4548poe    c2320008   0.282   4.812   5.079 -0.2596 -0.2116  0.3846
 4548poe     o220009   0.182   4.806   4.979  0.0869  0.6382 -0.0217
 4548poe    c2320010   0.133   4.935   4.950  0.3247  0.6983 -0.1665
 4548poe    c2320011   0.120   4.938   4.797 -0.2577  0.5925 -0.1232
 4548poe     o220012   0.022   4.859   4.733 -0.1533 -0.2133  0.6794
 4548poe    c2320013   0.069   4.836   4.602 -0.1299 -0.1216  0.6712
 4548poe    c2320014  -0.029   4.753   4.518  0.2174 -0.1375  0.2775
 4548poe     o220015  -0.087   4.639   4.577  0.5056 -0.3776  0.0955
 4548poe    c3120016  -0.143   4.558   4.475 -0.0961  0.0359  0.0936
 4549poe    c3120017   2.646   0.869   1.090  1.0228 -0.1436  0.1221
 4549poe     o220018   2.710   0.808   0.981  0.0969 -0.4460 -0.2588
 4549poe    c2320019   2.732   0.910   0.887  0.1395 -0.2648 -0.0509
 4549poe    c2320020   2.746   0.855   0.744 -0.1167 -0.1175 -0.1339
 4549poe     o220021   2.641   0.763   0.723  0.1193 -0.4732  0.2097
 4549poe    c2320022   2.625   0.723   0.588 -0.1247 -0.5047  0.2478
 4549poe    c2320023   2.481   0.688   0.547 -0.2816  0.6464 -0.2389
 4549poe     o220024   2.459   0.550   0.571  0.1816  0.6063 -0.0352
 4549poe    c2320025   2.366   0.494   0.482  0.2934  0.2011  0.1042
 4549poe    c2320026   2.304   0.367   0.544  0.2930  0.1644  0.0296
 4549poe     o220027   2.391   0.257   0.557  0.5556  0.2960 -0.6073
 4549poe    c3120028   2.341   0.141   0.494  0.2222  0.0048  0.1927
 4550poe    c3120029   4.644   4.400   6.442 -0.4871 -0.6567  0.1768
 4550poe     o220030   4.777   4.361   6.417 -0.3037  0.0262  0.0859
 4550poe    c2320031   4.792   4.315   6.284  0.1314  0.6849 -0.0997
 4550poe    c2320032   4.931   4.265   6.244  0.0592  0.2479  0.1922
 4550poe     o220033   4.977   4.140   6.290  0.0438 -0.0335 -0.5348
 4550poe    c2320034   4.998   4.143   6.430 -0.2851 -0.8506 -0.4581
 4550poe    c2320035   5.095   4.044   6.496 -0.2744 -0.6396 -0.1567
 4550poe     o220036   5.050   3.916   6.536 -0.0338 -0.4750  0.6536
 4550poe    c2320037   5.157   3.852   6.602  0.7296  0.0347 -0.0717
 4550poe    c2320038   5.142   3.715   6.670 -0.6205  0.2183  0.0241
 4550poe     o220039   5.069   3.715   6.791  0.2610 -0.4450  0.5736
 4550poe    c3120040   4.928   3.709   6.799  0.1966  0.1694 -0.0032
 4551poe    c3120041   4.059   0.268   2.559  0.6658 -0.4327  0.5015
 4551poe     o220042   3.940   0.192   2.548  0.3864  0.0421  0.2121
 4551poe    c2320043   3.930   0.144   2.416 -0.7209 -0.1052  0.3458
 4551poe    c2320044   3.855   0.010   2.402 -0.4739 -0.1561 -0.5334
 4551poe     o220045   3.720   0.033   2.436 -0.2186  0.7612 -0.1055
 4551poe    c2320046   3.658  -0.090   2.466  0.2670  0.6422  0.4112
 4551poe    c2320047   3.522  -0.069   2.534  0.0664 -0.1969  0.2722
 4551poe     o220048   3.511  -0.002   2.657  0.0454 -0.0820  0.2076
 4551poe    c2320049   3.389  -0.044   2.715 -0.3158  0.2648 -0.2966
 4551poe    c2320050   3.363  -0.002   2.861  0.1146  0.1653 -0.1911
 4551poe     o220051   3.459  -0.049   2.953 -0.2928 -0.4693 -0.0823
 4551poe    c3120052   3.468   0.032   3.068 -0.5360  0.0591 -0.4322
 4552poe    c3120053   6.560   2.399   5.733 -0.0066  0.0725  0.2421
 4552poe     o220054   6.421   2.412   5.719  0.0418 -0.0058 -0.3150
 4552poe    c2320055   6.396   2.529   5.644 -0.0587  0.4194  0.3759
 4552poe    c2320056   6.245   2.545   5.671 -0.1529 -0.4607  0.4236
 4552poe     o220057   6.207   2.566   5.805  0.0800  0.3955  0.3657
 4552poe    c2320058   6.072   2.604   5.812  0.1329  0.7127 -0.3028
 4552poe    c2320059   6.028   2.626   5.958  0.0946 -0.2739 -0.1598
 4552poe     o220060   6.008   2.503   6.023 -0.3715  0.0202  0.2567
 4552poe    c2320061   5.953   2.532   6.150  0.7132  0.9991  0.5128
 4552poe    c2320062   5.999   2.417   6.241 -0.2112  0.0612 -0.1782
 4552poe     o220063   5.935   2.296   6.211 -0.4935  0.1241  0.1713
 4552poe    c3120064   5.932   2.204   6.318 -0.4314 -0.5998 -0.4416
 4553poe    c3120065   4.809   3.352   0.918 -0.3154 -0.3454 -0.9302
 4553poe     o220066   4.894   3.391   0.813 -0.0505 -0.1497 -0.6446
 4553poe    c2320067   5.028   3.374   0.854 -0.3699 -0.2505  0.3672
 4553poe    c2320068   5.076   3.232   0.818 -0.1154 -0.1969  0.4906
 4553poe     o220069   5.080   3.225   0.677  0.9472  0.0057  0.5033
 4553poe    c2320070   5.093   3.098   0.618 -0.7832  0.2099 -0.4057
 4553poe    c2320071   5.119   3.111   0.467 -0.1983 -0.2838 -0.3516
 4553poe     o220072   5.019   3.192   0.410  0.1856  0.2476 -0.2737
 4553poe    c2320073   5.011   3.199   0.269 -0.0611 -0.3854 -0.2930
 4553poe    c2320074   4.864   3.178   0.228 -0.2943  0.1643  0.2420
 4553poe     o220075   4.840   3.230   0.100 -0.3354 -0.1335  0.1267
 4553poe    c3120076   4.704   3.242   0.065 -0.3054 -0.0287  0.0432
 4554poe    c3120077   5.689   6.010   6.360  0.0783  0.0821  0.3779
 4554poe     o220078   5.645   5.876   6.354 -0.5960  0.3141 -0.0297
 4554poe    c2320079   5.640   5.816   6.227  0.1791 -0.4744  0.2977
 4554poe    c2320080   5.611   5.666   6.245 -0.2260 -0.4025  0.2615
 4554poe     o220081   5.705   5.593   6.322 -0.0489 -0.4822 -0.0291
 4554poe    c2320082   5.659   5.469   6.369  0.0042 -0.5627 -0.1885
 4554poe    c2320083   5.777   5.407   6.447 -0.3633 -0.4869  0.4307
 4554poe     o220084   5.827   5.477   6.559 -0.0779 -0.1086  0.0676
 4554poe    c2320085   5.922   5.397   6.626  0.1153 -0.0540 -0.1377
 4554poe    c2320086   6.028   5.466   6.714 -0.0225 -0.0194  0.0007
 4554poe     o220087   6.108   5.386   6.797 -0.1089  0.0512  0.1527
 4554poe    c3120088   6.202   5.457   6.874 -0.0617  0.2710 -0.1051
 4555poe    c3120089   6.141   6.843   7.367 -0.5956 -0.1776  0.1829
 4555poe     o220090   6.140   6.874   7.504  0.3446 -0.4123  0.2485
 4555poe    c2320091   6.158   6.754   7.576  0.7592 -0.2802  0.3702
 4555poe    c2320092   6.085   6.771   7.710 -0.1093  0.2005 -0.1532
 4555poe     o220093   6.175   6.845   7.790 -0.0001 -0.1616  0.0617
 4555poe    c2320094   6.104   6.878   7.908  0.0692  0.1094  0.0296
 4555poe    c2320095   6.164   6.989   7.996  0.2617  0.0930 -0.0795
 4555poe     o220096   6.284   6.954   8.061  0.1985 -0.2659 -0.1554
 4555poe    c2320097   6.402   6.935   7.985  0.4310  0.0134  0.1310
 4555poe    c2320098   6.532   6.905   8.062  0.7672  0.1456 -0.3808
 4555poe     o220099   6.583   6.993   8.159  0.2199 -0.2643  0.2854
 4555poe    c3120100   6.704   6.946   8.214 -0.0556 -0.1917  0.9702
 4556poe    c3120101   3.635   6.888   0.082  0.3804 -0.0121  0.0279
 4556poe     o220102   3.580   6.809   0.184  0.1841  0.5203  0.3400
 4556poe    c2320103   3.498   6.879   0.274  0.2522  0.1280  0.7098
 4556poe    c2320104   3.472   6.774   0.385 -0.2955 -0.3475  0.1402
 4556poe     o220105   3.589   6.714   0.436 -0.2437 -0.2237  0.1691
 4556poe    c2320106   3.547   6.614   0.526 -0.2431 -0.4614 -0.0916
 4556poe    c2320107   3.654   6.504   0.544  0.1763 -0.0409 -0.0090
 4556poe     o220108   3.653   6.445   0.416 -0.5002 -0.3561  0.1394
 4556poe    c2320109   3.718   6.320   0.417 -0.1088 -0.1506  0.5602
 4556poe    c2320110   3.712   6.248   0.281 -0.4991  0.6952  0.1240
 4556poe     o220111   3.775   6.315   0.174 -0.1909  0.2752  0.0428
 4556poe    c3120112   3.827   6.225   0.079  0.7829  0.1663  0.6563
 4557poe    c3120113   2.079   6.267   5.719 -0.1048  0.1990  0.0533
 4557poe     o220114   2.170   6.166   5.758 -0.3300 -0.0094  0.0443
 4557poe    c2320115   2.136   6.078   5.862  0.3105  0.7412  0.8975
 4557poe    c2320116   2.258   5.988   5.890  0.1127  0.2949  0.3313
 4557poe     o220117   2.274   5.896   5.784 -0.5736 -0.0560  0.5296
 4557poe    c2320118   2.392   5.818   5.789 -0.0462  0.6713 -0.3330
 4557poe    c2320119   2.409   5.709   5.682 -0.1261  0.1920  0.1385
 4557poe     o220120   2.276   5.668   5.657  0.0883 -0.2548 -0.2905
 4557poe    c2320121   2.265   5.556   5.572  0.4916  0.0995 -0.8144
 4557poe    c2320122   2.119   5.513   5.548  0.2293  0.5151 -0.0092
 4557poe     o220123   2.069   5.604   5.453 -0.0922  0.4569  0.1031
 4557poe    c3120124   1.935   5.567   5.430  0.1991 -0.3704 -0.2914
 4558poe    c3120125   5.744   6.618   5.284 -0.2613 -0.5480  0.1851
 4558poe     o220126   5.841   6.598   5.184 -0.6626 -0.2881 -0.2607
 4558poe    c2320127   5.943   6.520   5.242 -0.4929  0.2753  0.2103
 4558poe    c2320128   6.039   6.481   5.127 -0.2436 -0.0200  0.5174
 4558poe     o220129   5.990   6.373   5.050 -0.3846  0.3802  0.0414
 4558poe    c2320130   6.082   6.331   4.952 -0.3585  0.4390  0.0405
 4558poe    c2320131   6.013   6.223   4.868 -0.0671  0.1029  0.2325
 4558poe     o220132   5.900   6.265   4.795  0.4483  0.2537 -0.4973
 4558poe    c2320133   5.835   6.172   4.711 -0.4835  0.3152  0.1333
 4558poe    c2320134   5.704   6.234   4.659 -0.3012  0.0955 -0.6036
 4558poe     o220135   5.581   6.208   4.725  0.0897  0.3149  0.2242
 4558poe    c3120136   5.479   6.300   4.693 -0.0893 -0.1062 -0.4269
 4559poe    c3120137   6.726   4.859   2.979  0.4571 -0.0414  0.4193
 4559poe     o220138   6.665   4.840   3.105 -0.0588  0.2567  0.2182
 4559poe    c2320139   6.729   4.902   3.214  0.0896 -0.3700  0.4970
 4559poe    c2320140   6.674   5.042   3.247 -0.0409 -0.2112 -0.3514
 4559poe     o220141   6.556   5.023   3.322  0.1866 -0.1407  0.0306
 4559poe    c2320142   6.501   5.135   3.388  0.5138 -0.6228  1.1449
 4559poe    c2320143   6.357   5.105   3.433 -0.0687  0.7933  0.2827
 4559poe     o220144   6.275   5.080   3.321  0.4228  0.6658 -0.0523
 4559poe    c2320145   6.139   5.101   3.352  0.1991  0.3038 -0.7622
 4559poe    c2320146   6.037   5.015   3.276  0.1243 -0.0151 -0.3066
 4559poe     o220147   6.027   5.022   3.135 -0.5736  0.2976 -0.2463
 4559poe    c3120148   5.925   4.940   3.083 -0.0023 -0.5066 -0.1136
 4560poe    c3120149   4.580   4.910   6.964  0.4725 -0.2843  1.0161
 4560poe     o220150   4.705   4.901   6.900  0.4690  0.2269  0.9304
 4560poe    c2320151   4.711   4.959   6.772  0.1393  0.2923  0.9432
 4560poe    c2320152   4.801   5.085   6.768  0.3619  0.1154  0.0313
 4560poe     o220153   4.779   5.179   6.871  0.4246  0.2098 -0.0418
 4560poe    c2320154   4.867   5.289   6.861 -0.3671  0.8330 -0.2687
 4560poe    c2320155   4.943   5.313   6.992  0.2310  0.4436 -0.5389
 4560poe     o220156   4.855   5.333   7.101  0.0929 -0.3565 -0.4933
 4560poe    c2320157   4.822   5.468   7.126 -0.6217 -0.5610 -0.2921
 4560poe    c2320158   4.688   5.494   7.195 -0.1690  0.4344  0.2316
 4560poe     o220159   4.682   5.455   7.331 -0.2152 -0.3510  0.0072
 4560poe    c3120160   4.546   5.453   7.369 -0.1777  0.3797  0.1950
 4561poe    c3120161   1.984   6.787   1.319  0.8388 -1.1359 -0.0176
 4561poe     o220162   1.947   6.844   1.442  0.1173 -0.1058 -0.6938
 4561poe    c2320163   1.867   6.753   1.514 -0.1814  0.1489 -0.7031
 4561poe    c2320164   1.847   6.784   1.663 -0.2603 -0.9751 -0.4716
 4561poe     o220165   1.761   6.894   1.683  0.3967 -0.5891  0.2936
 4561poe    c2320166   1.813   6.975   1.786  0.0143  0.3098 -0.2089
 4561poe    c2320167   1.718   7.089   1.829 -0.3146 -0.0765  0.0972
 4561poe     o220168   1.612   7.060   1.918 -0.8111  0.1121 -0.4305
 4561poe    c2320169   1.574   7.179   1.982  0.6080  0.4469 -0.1648
 4561poe    c2320170   1.493   7.156   2.111  0.4349  0.3477 -0.2897
 4561poe     o220171   1.566   7.098   2.217 -0.2901 -0.0105  0.0149
 4561poe    c3120172   1.470   7.075   2.318 -0.1996 -0.5705 -0.0223
 4562poe    c3120173   5.424   5.356   5.215  0.4033 -0.3247 -0.0931
 4562poe     o220174   5.449   5.486   5.167 -0.0274 -0.1767  0.0770
 4562poe    c2320175   5.554   5.495   5.073  0.1195  0.2078  0.2747
 4562poe    c2320176   5.696   5.501   5.134  0.5209  0.1394 -0.6291
 4562poe     o220177   5.749   5.386   5.196 -0.1431  0.3199  0.2962
 4562poe    c2320178   5.868   5.399   5.271  0.0335 -0.3110  0.1264
 4562poe    c2320179   5.996   5.375   5.188 -0.0997 -0.4647 -0.0368
 4562poe     o220180   6.038   5.245   5.225 -0.0427 -0.3080  0.4647
 4562poe    c2320181   6.173   5.223   5.191 -0.0116  0.0613  0.3445
 4562poe    c2320182   6.192   5.075   5.229  0.6024 -0.1264 -0.6466
 4562poe     o220183   6.089   4.995   5.174  0.3131  0.0621 -0.3810
 4562poe    c3120184   6.113   4.859   5.200 -0.5092 -0.0953 -0.4325
 4563poe    c3120185   0.180   6.056   2.483  0.1588 -0.1317 -0.6008
 4563poe     o220186   0.135   6.166   2.407  0.1028  0.1826 -0.1191
 4563poe    c2320187   0.013   6.139   2.342 -0.1745 -0.6560  0.7255
 4563poe    c2320188  -0.062   6.258   2.279  0.6117 -0.6724 -0.2801
 4563poe     o220189  -0.047   6.368   2.365 -0.6159 -0.5098 -0.2594
 4563poe    c2320190  -0.130   6.472   2.318 -0.7071 -0.4062  0.1261
 4563poe    c2320191  -0.185   6.567   2.426  0.1525  0.2001  0.0419
 4563poe     o220192  -0.318   6.531   2.458  0.1946 -0.0194 -0.0329
 4563poe    c2320193  -0.376   6.589   2.573 -0.0657  0.0737 -0.2126
 4563poe    c2320194  -0.427   6.734   2.565  0.2492  0.1336 -1.4273
 4563poe     o220195  -0.545   6.737   2.488 -0.4102 -0.1967 -0.4528
 4563poe    c3120196  -0.589   6.867   2.458 -0.1274 -0.0308 -0.1506
 4564poe    c3120197   5.301   1.254   3.042  0.2428  0.9580  0.1989
 4564poe     o220198   5.295   1.235   3.182 -0.1414  0.0476  0.0582
 4564poe    c2320199   5.201   1.305   3.259 -0.1619 -0.1161  0.1831
 4564poe    c2320200   5.201   1.316   3.413  0.0581  0.0217  0.1734
 4564poe     o220201   5.312   1.391   3.456  0.0417  0.2865 -0.2365
 4564poe    c2320202   5.310   1.438   3.589 -0.3926 -0.7968  0.1479
 4564poe    c2320203   5.429   1.533   3.607 -0.3123 -0.6642 -1.0397
 4564poe     o220204   5.559   1.481   3.591  0.1300 -0.1871  0.7282
 4564poe    c2320205   5.645   1.586   3.554 -0.1448 -0.1224  0.2585
 4564poe    c2320206   5.789   1.546   3.518 -0.0408  0.3561  0.1310
 4564poe     o220207   5.780   1.453   3.413  0.6100  0.2047  0.2052
 4564poe    c3120208   5.909   1.405   3.383  0.4333 -0.5917  0.6923
 4565poe    c3120209   1.143   5.993   7.270 -0.0526  0.2498 -0.0749
 4565poe     o220210   1.025   6.068   7.250 -0.5761 -0.4362  0.3989
 4565poe    c2320211   0.965   6.007   7.138  0.0140  0.5900 -0.4914
 4565poe    c2320212   0.815   6.041   7.129 -0.1040  0.2297  0.0534
 4565poe     o220213   0.791   6.174   7.169 -0.2204  0.1452  0.2674
 4565poe    c2320214   0.656   6.208   7.146 -0.0376  0.5258 -0.2718
 4565poe    c2320215   0.631   6.341   7.221  0.5019  0.3708  0.1857
 4565poe     o220216   0.662   6.321   7.357 -0.0121 -0.2592  0.2147
 4565poe    c2320217   0.655   6.449   7.416  0.8114  0.1494 -0.5610
 4565poe    c2320218   0.647   6.462   7.569 -0.0781 -0.1748 -0.5713
 4565poe     o220219   0.761   6.400   7.624 -0.4133 -0.4717 -0.2096
 4565poe    c3120220   0.761   6.385   7.764  0.2679  0.4022 -0.1070
 4566poe    c3120221   5.243   6.003   4.648 -0.2430 -0.4902  1.3714
 4566poe     o220222   5.304   5.876   4.656  0.8167 -0.0825  0.1711
 4566poe    c2320223   5.348   5.827   4.532 -0.2446  0.0263 -0.2539
 4566poe    c2320224   5.325   5.676   4.511 -0.5013  0.0087  0.1430
 4566poe     o220225   5.193   5.632   4.488 -0.6020  0.1804  0.3855
 4566poe    c2320226   5.135   5.644   4.360  0.3681  0.1091 -0.0716
 4566poe    c2320227   4.982   5.624   4.368  0.4353 -0.2613  0.3576
 4566poe     o220228   4.937   5.494   4.398 -0.4699 -0.0562 -0.0653
 4566poe    c2320229   4.808   5.472   4.448 -0.2883 -0.8853  0.0482
 4566poe    c2320230   4.713   5.413   4.342 -0.9432 -0.5405  0.4330
 4566poe     o220231   4.728   5.274   4.322  0.1611 -0.3949  0.1973
 4566poe    c3120232   4.617   5.207   4.268 -0.0317  0.3720 -0.3768
 4567poe    c3120233   7.044   6.872   6.237 -0.3380  0.2808  0.4488
 4567poe     o220234   7.131   6.761   6.251 -0.5634  0.0849  0.3039
 4567poe    c2320235   7.052   6.648   6.283  0.1440 -0.4356  0.2326
 4567poe    c2320236   7.142   6.523   6.283 -0.3627 -0.8039  0.1244
 4567poe     o220237   7.248   6.544   6.373 -0.4432  0.3032 -0.0190
 4567poe    c2320238   7.313   6.423   6.404 -0.2675  0.3286 -0.2845
 4567poe    c2320239   7.463   6.455   6.419 -0.1671  0.1670 -0.9287
 4567poe     o220240   7.504   6.567   6.495  0.0721 -0.4526 -0.1326
 4567poe    c2320241   7.644   6.570   6.481  0.0693 -0.0943 -0.0813
 4567poe    c2320242   7.696   6.705   6.534  0.3532 -0.1462 -0.2256
 4567poe     o220243   7.642   6.710   6.664  0.5288  0.0521 -0.1599
 4567poe    c3120244   7.689   6.818   6.742 -0.4188  0.0857  0.3821
 4568poe    c3120245   6.447   3.880   5.096  0.2476  0.3470 -0.4154
 4568poe     o220246   6.332   3.885   5.014 -0.0402  0.2064 -0.0204
 4568poe    c2320247   6.219   3.866   5.095 -0.4991 -0.0881 -0.7241
 4568poe    c2320248   6.169   3.983   5.183 -0.4484 -0.1478 -0.6149
 4568poe     o220249   6.259   4.006   5.289 -1.0167 -0.0091 -0.1624
 4568poe    c2320250   6.199   4.101   5.374  0.0261  0.2992  0.2350
 4568poe    c2320251   6.297   4.135   5.489  0.2816  0.1771  0.0546
 4568poe     o220252   6.305   4.012   5.558 -0.6574  0.0756  0.0008
 4568poe    c2320253   6.411   4.041   5.646 -0.4002  0.0642 -0.3044
 4568poe    c2320254   6.455   3.929   5.742  0.3311  0.1429 -0.5396
 4568poe     o220255   6.473   3.816   5.660 -0.1278 -0.2519 -0.1052
 4568poe    c3120256   6.492   3.701   5.739 -0.5639 -0.1328  0.1780
 4569poe    c3120257   5.862   6.242   1.380 -0.1232  0.6374  0.1444
 4569poe     o220258   5.832   6.299   1.254  0.0304 -0.6835 -0.5114
 4569poe    c2320259   5.948   6.279   1.176  0.3525 -0.5546 -0.0745
 4569poe    c2320260   6.045   6.398   1.162 -0.4193  0.2275  0.9928
 4569poe     o220261   5.992   6.504   1.085  0.2234 -0.0011  0.2176
 4569poe    c2320262   6.089   6.605   1.068 -0.0406  0.1692 -0.3048
 4569poe    c2320263   6.012   6.711   0.988 -0.3903  0.4203  0.3568
 4569poe     o220264   5.999   6.672   0.853  0.1301  0.0677  0.4053
 4569poe    c2320265   5.909   6.761   0.790 -0.1009 -0.0632  0.5482
 4569poe    c2320266   5.856   6.720   0.652  0.1422 -0.1930  0.4934
 4569poe     o220267   5.777   6.603   0.654  0.0557 -0.1402  0.2707
 4569poe    c3120268   5.755   6.564   0.521  0.1140  0.1026  0.1887
 4570poe    c3120269   4.170   4.163   2.176 -0.6945 -0.6575  0.4717
 4570poe     o220270   4.112   4.275   2.111 -0.5146 -0.6565  0.3138
 4570poe    c2320271   4.177   4.303   1.989  0.2545  0.1355  0.8886
 4570poe    c2320272   4.175   4.454   1.963  0.7252  0.0450  0.3060
 4570poe     o220273   4.043   4.499   1.983  0.7554  0.1889  0.1873
 4570poe    c2320274   4.037   4.636   1.951 -0.0933  0.1778  0.2763
 4570poe    c2320275   3.891   4.685   1.953 -0.1774 -0.0641 -0.0282
 4570poe     o220276   3.816   4.644   2.065 -0.1906  0.0534  0.0061
 4570poe    c2320277   3.681   4.686   2.057 -0.2466 -0.1998 -0.4313
 4570poe    c2320278   3.585   4.622   2.159 -0.4890  0.5106 -0.2125
 4570poe     o220279   3.583   4.482   2.147 -0.0673  0.5168 -0.3637
 4570poe    c3120280   3.461   4.441   2.205  0.7032 -0.7943  0.3751
 4571poe    c3120281   6.724   7.316   5.594  1.1618 -0.2354  0.4742
 4571poe     o220282   6.695   7.232   5.485  0.0592  0.4044  0.2647
 4571poe    c2320283   6.769   7.263   5.369  0.0918  0.0807  0.1996
 4571poe    c2320284   6.690   7.213   5.245 -0.1123 -0.1053  0.4027
 4571poe     o220285   6.678   7.078   5.283 -0.0068 -0.1884  0.1416
 4571poe    c2320286   6.600   7.017   5.183 -0.0591  0.7400 -0.3929
 4571poe    c2320287   6.585   6.871   5.228  0.4988  0.8954  0.3187
 4571poe     o220288   6.516   6.854   5.349  0.2140 -0.3128  0.0066
 4571poe    c2320289   6.524   6.728   5.413 -0.0920 -0.1489  0.3750
 4571poe    c2320290   6.441   6.713   5.541 -0.1567 -0.2186  0.3255
 4571poe     o220291   6.500   6.788   5.645 -0.3242  0.0985  0.1951
 4571poe    c3120292   6.427   6.789   5.766 -0.5628 -0.1933  0.0548
 4572poe    c3120293   6.706   5.221   6.726  0.0918 -0.1375  0.0162
 4572poe     o220294   6.739   5.198   6.590  0.0338 -0.0050 -0.0201
 4572poe    c2320295   6.792   5.067   6.588  0.1562  0.0476 -0.2074
 4572poe    c2320296   6.827   5.032   6.443 -0.4447  0.3682 -0.4310
 4572poe     o220297   6.713   5.058   6.364 -0.9214  0.8888  0.4247
 4572poe    c2320298   6.719   4.989   6.241  0.3512  0.4383  0.7264
 4572poe    c2320299   6.620   5.044   6.136  0.0935  0.7618  1.1306
 4572poe     o220300   6.647   5.175   6.092  0.0614  0.1675 -0.7555
 4572poe    c2320301   6.547   5.223   6.005 -1.1038  0.4611  0.6951
 4572poe    c2320302   6.611   5.335   5.921 -0.3646 -0.1913  0.3634
 4572poe     o220303   6.721   5.294   5.843 -0.5643 -0.0529  0.0047
 4572poe    c3120304   6.736   5.381   5.734 -0.3052 -0.0217  0.0643
 4573poe    c3120305   3.691   6.174   3.647  0.2694 -0.5237 -0.4786
 4573poe     o220306   3.680   6.040   3.689  0.0078 -0.2462  0.3645
 4573poe    c2320307   3.542   6.012   3.696  0.0432 -0.4638  0.2080
 4573poe    c2320308   3.507   5.870   3.742 -0.1675 -0.5317 -0.1572
 4573poe     o220309   3.573   5.813   3.853 -0.7362  0.2020  0.5662
 4573poe    c2320310   3.558   5.674   3.871 -0.0425  0.1441  0.7308
 4573poe    c2320311   3.700   5.614   3.880 -0.0470 -0.0142 -0.0981
 4573poe     o220312   3.771   5.613   3.759  0.3128 -0.2274  0.1150
 4573poe    c2320313   3.910   5.587   3.761  0.3484 -0.0472  0.0322
 4573poe    c2320314   3.985   5.589   3.626 -0.0247  0.0839 -0.1765
 4573poe     o220315   3.998   5.710   3.555  0.2605  0.4875  0.5436
 4573poe    c3120316   4.097   5.690   3.457  0.0078 -0.4006  0.4608
 4574poe    c3120317   3.185   6.814   6.564 -0.1168  0.2912  0.4837
 4574poe     o220318   3.063   6.880   6.587 -0.0786  0.2946  0.6781
 4574poe    c2320319   2.955   6.791   6.606 -0.1544  0.3546  0.5284
 4574poe    c2320320   2.831   6.882   6.599 -0.3454  0.0895  0.4367
 4574poe     o220321   2.854   6.983   6.695  0.6667 -0.3488  0.6682
 4574poe    c2320322   2.735   7.039   6.743  0.4009  0.6194 -1.0547
 4574poe    c2320323   2.757   7.179   6.805  0.4087  0.0121  0.3369
 4574poe     o220324   2.789   7.269   6.702 -0.0879 -0.1837  0.0075
 4574poe    c2320325   2.679   7.355   6.684 -0.2276 -0.4097 -0.2169
 4574poe    c2320326   2.704   7.477   6.593 -0.2493 -0.3854 -0.1908
 4574poe     o220327   2.737   7.446   6.460 -0.0025 -0.5874 -0.0823
 4574poe    c3120328   2.869   7.493   6.440 -0.2844  0.0836 -0.3883
 4575poe    c3120329   6.346   1.905   4.578  1.2374 -0.6965 -0.3281
 4575poe     o220330   6.303   1.789   4.645 -0.0543  0.2439  0.5010
 4575poe    c2320331   6.341   1.665   4.591 -0.6236  0.1170  0.3854
 4575poe    c2320332   6.313   1.535   4.669 -0.4065 -0.0513  0.1826
 4575poe     o220333   6.369   1.537   4.798  0.0363  1.0175 -0.0187
 4575poe    c2320334   6.303   1.435   4.870  0.3540  0.4161 -0.5750
 4575poe    c2320335   6.365   1.428   5.011  0.1856  0.8104 -0.4802
 4575poe     o220336   6.345   1.545   5.087 -1.0744  0.1579  0.2086
 4575poe    c2320337   6.287   1.515   5.212  0.0498 -0.3988  0.6070
 4575poe    c2320338   6.315   1.638   5.300  0.2962  0.0595 -0.1133
 4575poe     o220339   6.334   1.747   5.212  0.9421  0.4892  0.5472
 4575poe    c3120340   6.292   1.866   5.275  0.2374  0.6247 -0.1585
 4576poe    c3120341   3.606   0.296   6.016  0.1802  0.3905  0.0726
 4576poe     o220342   3.600   0.355   5.888  0.2300 -0.2179 -0.2153
 4576poe    c2320343   3.702   0.296   5.811 -0.1180 -0.0926 -0.7729
 4576poe    c2320344   3.655   0.175   5.729 -0.3113 -0.6066  0.0859
 4576poe     o220345   3.623   0.061   5.805 -0.3706 -0.5388  0.1625
 4576poe    c2320346   3.737  -0.022   5.818  0.2233  0.2168 -0.1740
 4576poe    c2320347   3.709  -0.172   5.799 -0.2257  0.3177 -0.3325
 4576poe     o220348   3.718  -0.209   5.663  0.1383 -0.5942 -0.0666
 4576poe    c2320349   3.721  -0.348   5.641  0.5760 -0.5853 -0.0757
 4576poe    c2320350   3.710  -0.396   5.496 -0.0192 -0.0633 -0.2040
 4576poe     o220351   3.820  -0.343   5.426  0.0484  0.4355  0.2703
 4576poe    c3120352   3.816  -0.394   5.294 -0.5298 -0.1592  0.5127
 4577poe    c3120353   5.062   5.238   6.143  0.0360 -0.0692  0.1906
 4577poe     o220354   4.941   5.185   6.191  0.0814 -0.7487 -0.4275
 4577poe    c2320355   4.836   5.199   6.099 -0.0638 -0.2666 -0.1890
 4577poe    c2320356   4.713   5.173   6.188  0.1629 -0.1115  0.1734
 4577poe     o220357   4.739   5.056   6.262  0.1854 -0.0635  0.2402
 4577poe    c2320358   4.618   5.003   6.311  0.3323 -0.8661 -0.2429
 4577poe    c2320359   4.635   4.856   6.353  0.2206 -0.6019  0.7601
 4577poe     o220360   4.737   4.841   6.449  1.3468  0.1832 -0.2847
 4577poe    c2320361   4.776   4.706   6.465  0.5804 -0.0151 -0.0778
 4577poe    c2320362   4.894   4.695   6.562 -0.0514 -0.4526  0.6514
 4577poe     o220363   5.001   4.778   6.524 -0.3739 -0.2651  0.1571
 4577poe    c3120364   5.123   4.747   6.587 -0.6628 -0.7441  0.4770
 4578poe    c3120365   4.830   2.802   3.076 -0.0020  0.3130 -0.0156
 4578poe     o220366   4.724   2.757   2.995  0.5718 -0.5753 -0.2877
 4578poe    c2320367   4.704   2.844   2.885 -0.2382 -0.6035 -0.1659
 4578poe    c2320368   4.592   2.800   2.790  0.1289  0.1220 -0.9457
 4578poe     o220369   4.642   2.694   2.712  0.5846 -0.0357 -0.4448
 4578poe    c2320370   4.567   2.662   2.596 -0.0347  0.0575 -0.0743
 4578poe    c2320371   4.651   2.581   2.495 -0.4934  0.1332 -0.5168
 4578poe     o220372   4.680   2.443   2.500  0.4518  0.3313 -0.2634
 4578poe    c2320373   4.564   2.363   2.508  0.5034  0.2819 -0.0280
 4578poe    c2320374   4.577   2.210   2.519 -0.8516  0.1067 -0.6067
 4578poe     o220375   4.623   2.178   2.649 -0.9142 -0.1589 -0.6488
 4578poe    c3120376   4.644   2.040   2.667  0.2141  0.1293  0.3859
 4579poe    c3120377   3.821   3.407   1.978 -0.0135  0.4214 -0.9311
 4579poe     o220378   3.696   3.434   2.037  0.4226  0.2795  0.0795
 4579poe    c2320379   3.706   3.447   2.177 -0.2376 -0.1490  0.1724
 4579poe    c2320380   3.573   3.486   2.243  0.1836  0.5974  0.5908
 4579poe     o220381   3.464   3.404   2.209  0.4132  0.3337  0.4914
 4579poe    c2320382   3.354   3.478   2.160  0.1178 -0.0007  0.6437
 4579poe    c2320383   3.224   3.400   2.133  0.2763 -0.0175 -0.0720
 4579poe     o220384   3.263   3.303   2.037  0.3618 -0.0986  0.0439
 4579poe    c2320385   3.161   3.214   1.995 -0.2998  0.7220 -0.1258
 4579poe    c2320386   3.225   3.087   1.936  0.0627  0.6907  0.3181
 4579poe     o220387   3.323   3.041   2.026  0.0997  0.0399 -0.0506
 4579poe    c3120388   3.394   2.940   1.957  1.0988 -0.0664  1.1081
 4580poe    c3120389   6.522   0.290   1.449 -0.3071  0.2596  0.0096
 4580poe     o220390   6.660   0.312   1.462 -0.2860  0.1351 -0.0069
 4580poe    c2320391   6.727   0.289   1.339 -0.0801 -0.4558  0.2099
 4580poe    c2320392   6.833   0.179   1.355 -0.6818 -0.9436  0.9193
 4580poe     o220393   6.920   0.198   1.465  0.0290  0.4434  0.1453
 4580poe    c2320394   6.916   0.082   1.544 -0.6625  0.1424 -0.3237
 4580poe    c2320395   6.981   0.100   1.683 -0.0041 -0.7878 -0.5006
 4580poe     o220396   7.118   0.117   1.657  0.0865 -0.0252  0.4318
 4580poe    c2320397   7.189   0.142   1.776  0.2891 -0.3516  0.3811
 4580poe    c2320398   7.300   0.248   1.764  0.2562 -0.3717 -0.1052
 4580poe     o220399   7.383   0.208   1.657 -0.2907  0.1076 -0.7174
 4580poe    c3120400   7.483   0.308   1.652 -0.0515 -0.0809  0.1577
 4581poe    c3120401   0.280   4.533   3.027  0.9736  0.1219 -0.1151
 4581poe     o220402   0.351   4.478   3.136 -0.3316 -0.5829  0.3977
 4581poe    c2320403   0.267   4.472   3.249 -0.3665  0.1820  0.4216
 4581poe    c2320404   0.307   4.398   3.378 -0.4095  0.4193  0.5703
 4581poe     o220405   0.408   4.459   3.456  0.1076  0.1413  0.1144
 4581poe    c2320406   0.436   4.362   3.554 -0.4570 -0.2192 -0.0740
 4581poe    c2320407   0.539   4.427   3.648 -0.0317  0.3407 -0.9206
 4581poe     o220408   0.478   4.542   3.704 -0.0238  0.0052 -0.2137
 4581poe    c2320409   0.585   4.612   3.763 -0.0368 -0.2156  0.0755
 4581poe    c2320410   0.546   4.759   3.785 -0.9202 -0.5208  0.5818
 4581poe     o220411   0.540   4.813   3.655 -0.2915 -0.0293  0.7526
 4581poe    c3120412   0.553   4.954   3.652 -0.0120 -0.0653 -0.1788
 4582poe    c3120413   0.867   7.195   0.813  0.5548  0.6244  0.5488
 4582poe     o220414   0.980   7.270   0.775  0.4996  0.3623 -0.1460
 4582poe    c2320415   1.051   7.225   0.661  0.1329 -0.2771 -0.1231
 4582poe    c2320416   0.997   7.284   0.529  0.5775 -0.3466 -0.3372
 4582poe     o220417   1.013   7.423   0.519  0.3948 -0.3164 -0.2177
 4582poe    c2320418   0.892   7.481   0.474  0.3821  0.1363  0.3954
 4582poe    c2320419   0.843   7.598   0.562 -0.1632  0.4354 -0.3012
 4582poe     o220420   0.906   7.723   0.543 -0.4981  0.5628 -0.6102
 4582poe    c2320421   0.890   7.803   0.657  0.0901  0.2387 -0.2923
 4582poe    c2320422   0.917   7.954   0.635 -0.5572  0.4293  0.1878
 4582poe     o220423   0.811   8.019   0.569 -0.6117  0.1225 -0.0277
 4582poe    c3120424   0.864   8.121   0.488 -0.8717 -0.0407 -0.4095
 4583poe    c3120425   1.938   4.930   3.671 -0.6211  0.1228  0.8962
 4583poe     o220426   1.850   4.908   3.563  0.5952  0.4104 -0.1861
 4583poe    c2320427   1.915   4.885   3.440  0.2122 -0.2096 -0.2794
 4583poe    c2320428   1.842   4.780   3.355 -0.2197 -0.6900  0.6681
 4583poe     o220429   1.716   4.841   3.337  0.1021 -0.1397  0.2356
 4583poe    c2320430   1.628   4.747   3.280  0.2963  0.0262 -0.3412
 4583poe    c2320431   1.482   4.795   3.281  0.1189 -0.5045  0.0991
 4583poe     o220432   1.435   4.851   3.401 -0.0871 -0.0734 -0.1792
 4583poe    c2320433   1.297   4.832   3.378 -0.2989  1.0621  0.0478
 4583poe    c2320434   1.220   4.908   3.487 -0.2514  0.4931  0.4846
 4583poe     o220435   1.248   5.046   3.487  0.7082  0.3031  0.4552
 4583poe    c3120436   1.173   5.105   3.590  0.0781  0.5905 -0.1577
 4584poe    c3120437   5.375   5.114   0.959  0.2077 -0.0113 -0.3347
 4584poe     o220438   5.250   5.170   0.990 -0.0384 -0.4645 -0.4920
 4584poe    c2320439   5.174   5.095   1.083 -0.4679  0.0275 -0.4382
 4584poe    c2320440   5.056   5.168   1.150  0.2601  0.2876  0.5810
 4584poe     o220441   5.087   5.263   1.250 -0.4312  0.9494  0.1794
 4584poe    c2320442   5.121   5.204   1.374 -0.2013 -0.0471 -0.3436
 4584poe    c2320443   5.158   5.318   1.470  0.2591 -0.6997  0.2577
 4584poe     o220444   5.078   5.434   1.467 -0.4150 -1.1718 -0.3225
 4584poe    c2320445   4.955   5.423   1.535 -0.3820 -0.3976 -0.1302
 4584poe    c2320446   4.851   5.532   1.502 -0.0337 -0.0020  0.0708
 4584poe     o220447   4.896   5.647   1.570 -0.3952  0.1155  0.1121
 4584poe    c3120448   4.847   5.748   1.484 -0.4224 -0.0067 -0.0146
 4585poe    c3120449   7.565   6.983   0.278  0.4525 -0.4169  0.7592
 4585poe     o220450   7.437   6.970   0.221  0.9242 -0.8534 -0.2156
 4585poe    c2320451   7.449   6.962   0.080 -0.3131  0.2288 -0.4002
 4585poe    c2320452   7.318   6.942   0.002 -0.4799 -0.0228 -0.0592
 4585poe     o220453   7.274   6.808   0.009  0.4170 -0.3466 -0.4559
 4585poe    c2320454   7.152   6.803  -0.061 -0.4647 -0.1439  1.0204
 4585poe    c2320455   7.078   6.668  -0.064 -0.2511 -0.2425 -0.5155
 4585poe     o220456   7.157   6.575  -0.134  0.4264 -0.3724  0.4109
 4585poe    c2320457   7.124   6.563  -0.271  0.6177 -0.2061  0.3489
 4585poe    c2320458   7.187   6.433  -0.323 -0.1140 -0.6310  0.5159
 4585poe     o220459   7.324   6.451  -0.350 -0.2775 -0.1148  0.0185
 4585poe    c3120460   7.356   6.332  -0.420 -0.4242  0.1473 -0.4997
 4586poe    c3120461   5.712   4.310   7.143 -0.0515  0.5575  0.8221
 4586poe     o220462   5.599   4.296   7.060  0.3025 -0.1594  0.4579
 4586poe    c2320463   5.492   4.377   7.103  0.2431  0.4591 -0.8204
 4586poe    c2320464   5.397   4.428   6.992 -0.1495 -0.1075 -0.7463
 4586poe     o220465   5.471   4.513   6.908 -0.2544  0.2096 -0.5211
 4586poe    c2320466   5.392   4.624   6.872 -0.4912  0.1807 -0.1003
 4586poe    c2320467   5.443   4.674   6.735 -0.2469  0.0856 -0.0442
 4586poe     o220468   5.440   4.598   6.616 -0.1061  0.4227 -0.2630
 4586poe    c2320469   5.507   4.653   6.505  0.1861 -0.7064 -0.6571
 4586poe    c2320470   5.658   4.683   6.509  0.0162  0.2094 -0.8346
 4586poe     o220471   5.715   4.556   6.485  0.6279  0.3184 -0.0163
 4586poe    c3120472   5.850   4.555   6.524  0.5127 -0.7753  0.3825
 4587poe    c3120473   0.949   3.033   1.039  0.0829  0.4348  0.0929
 4587poe     o220474   0.919   3.046   1.176  0.9344  0.2092  0.3048
 4587poe    c2320475   0.901   2.910   1.208 -0.2634  0.1640 -0.4935
 4587poe    c2320476   0.943   2.875   1.352 -0.6006 -0.1077 -0.4605
 4587poe     o220477   0.869   2.942   1.452  0.2510 -0.1392  0.2012
 4587poe    c2320478   0.748   2.884   1.493  0.3310  0.0729  0.7368
 4587poe    c2320479   0.686   2.966   1.608 -0.4745  0.0761  0.3085
 4587poe     o220480   0.658   3.097   1.567 -0.5732 -0.2428 -0.6723
 4587poe    c2320481   0.533   3.136   1.619 -0.2448  0.8773 -0.6949
 4587poe    c2320482   0.546   3.290   1.612  0.6008  0.8371 -0.0536
 4587poe     o220483   0.649   3.339   1.696  0.6525  0.0507  0.3597
 4587poe    c3120484   0.696   3.448   1.619 -0.7653  0.5601  0.1819
 4588poe    c3120485   5.744   3.717   1.352 -0.1728  0.0066  0.3032
 4588poe     o220486   5.616   3.766   1.320  0.1189  0.4754 -0.1664
 4588poe    c2320487   5.521   3.714   1.410  0.0420  0.2605 -0.3693
 4588poe    c2320488   5.467   3.577   1.365  0.5090  0.1840 -0.7039
 4588poe     o220489   5.562   3.480   1.404  0.0894  0.0865  0.1020
 4588poe    c2320490   5.508   3.356   1.367  0.5351 -0.0358 -0.1394
 4588poe    c2320491   5.612   3.242   1.361  0.5149 -0.0714  0.1841
 4588poe     o220492   5.645   3.170   1.478 -0.3624 -0.1552  0.3922
 4588poe    c2320493   5.732   3.074   1.422 -0.9266 -0.5659  0.2163
 4588poe    c2320494   5.765   2.960   1.520 -0.5532  0.2365  1.0421
 4588poe     o220495   5.660   2.866   1.509 -0.0830 -0.1602 -0.2720
 4588poe    c3120496   5.705   2.747   1.571  0.9675  0.2616 -0.2031
 4589poe    c3120497   0.893   7.101   6.721 -0.1195  0.0967  0.1316
 4589poe     o220498   0.970   7.058   6.611 -0.4589  0.2872 -0.1810
 4589poe    c2320499   0.915   6.953   6.533  0.0842 -0.0253 -0.1463
 4589poe    c2320500   1.007   6.923   6.413 -0.5715 -0.4606 -0.5437
 4589poe     o220501   1.027   7.020   6.312  0.2275 -0.3875 -0.3215
 4589poe    c2320502   0.917   7.072   6.240  0.5534  0.0824 -0.4846
 4589poe    c2320503   0.923   7.225   6.239 -0.1519  0.1156 -0.0364
 4589poe     o220504   1.029   7.262   6.154  0.1176  0.5562  0.4752
 4589poe    c2320505   1.016   7.385   6.086 -0.0039  0.4554  0.3127
 4589poe    c2320506   1.123   7.399   5.976  0.1339 -0.5737  0.3047
 4589poe     o220507   1.142   7.297   5.880 -0.1482 -0.1678 -0.1892
 4589poe    c3120508   1.241   7.345   5.792  0.1384 -0.1310  0.1494
 4590poe    c3120509   2.010   5.172   5.161  0.2539 -0.0718  0.3123
 4590poe     o220510   2.079   5.228   5.051 -0.3976  0.1836  0.0277
 4590poe    c2320511   2.206   5.268   5.096 -0.0401 -0.0840 -0.7271
 4590poe    c2320512   2.263   5.391   5.024  0.6619  0.1710  0.2325
 4590poe     o220513   2.305   5.371   4.890 -0.1470 -0.7377  0.1035
 4590poe    c2320514   2.352   5.486   4.823  0.3598 -0.8217  0.3169
 4590poe    c2320515   2.397   5.461   4.678 -0.1550 -0.3407  0.0694
 4590poe     o220516   2.297   5.426   4.586 -0.0017 -0.0798 -0.1985
 4590poe    c2320517   2.355   5.418   4.458  0.3383  0.0007 -0.0495
 4590poe    c2320518   2.422   5.287   4.414  0.4192  0.2684 -0.7278
 4590poe     o220519   2.324   5.187   4.401  0.0010  0.5265  0.3425
 4590poe    c3120520   2.377   5.092   4.311 -1.0608 -0.0922  0.3474
 4591poe    c3120521   3.934   2.725   5.367 -0.4050  0.1637 -0.3723
 4591poe     o220522   3.845   2.758   5.471 -0.2124  0.1082 -0.1891
 4591poe    c2320523   3.895   2.750   5.602 -0.1734 -0.4671 -0.2337
 4591poe    c2320524   3.792   2.740   5.716 -0.3406 -0.5222 -0.3900
 4591poe     o220525   3.698   2.845   5.710 -0.0784 -0.3225 -1.1280
 4591poe    c2320526   3.574   2.819   5.771  0.3967  0.0793  0.0398
 4591poe    c2320527   3.487   2.945   5.783  0.3299 -0.0003  0.4097
 4591poe     o220528   3.536   3.045   5.870 -0.3427  0.3898  0.3456
 4591poe    c2320529   3.466   3.157   5.820 -0.2325  0.3949  0.2029
 4591poe    c2320530   3.492   3.284   5.903 -0.1717  0.3229  0.2937
 4591poe     o220531   3.629   3.310   5.927 -0.1255  0.0858  0.2906
 4591poe    c3120532   3.671   3.434   5.980 -0.5378  0.0535  0.7002
 4592poe    c3120533   6.564   4.052   3.387  0.2116  0.2498  0.4398
 4592poe     o220534   6.647   4.048   3.273 -0.2831 -0.3044  0.0931
 4592poe    c2320535   6.587   4.111   3.162  0.4434  0.0601 -0.0962
 4592poe    c2320536   6.670   4.086   3.035  0.3539  0.1932 -0.1821
 4592poe     o220537   6.780   4.173   3.033  0.2669  0.3139  0.2216
 4592poe    c2320538   6.798   4.230   2.905 -0.5598  0.3185  0.1039
 4592poe    c2320539   6.869   4.367   2.907  0.1531 -0.0402 -0.1326
 4592poe     o220540   6.987   4.361   2.984  0.2999  0.7428 -0.2901
 4592poe    c2320541   7.075   4.470   3.002 -0.2909  1.1809 -0.0328
 4592poe    c2320542   7.142   4.499   3.138  0.3984  0.0320 -0.1124
 4592poe     o220543   7.249   4.417   3.179 -0.0065 -0.3397  0.2034
 4592poe    c3120544   7.353   4.457   3.265  0.3709  0.1350 -0.4667
 4593poe    c3120545   4.359   4.196   2.855 -0.1950  0.2633  0.0195
 4593poe     o220546   4.395   4.164   2.723 -0.2919  0.4882 -0.0613
 4593poe    c2320547   4.406   4.280   2.643 -0.9047  0.4326 -0.2382
 4593poe    c2320548   4.464   4.248   2.504 -0.1526  0.5439  0.0412
 4593poe     o220549   4.603   4.260   2.523 -0.0579  0.2939 -0.4668
 4593poe    c2320550   4.675   4.169   2.442 -0.0716 -0.3328  0.2163
 4593poe    c2320551   4.718   4.041   2.516 -0.7271 -0.3385  0.5988
 4593poe     o220552   4.821   4.075   2.606 -0.4657  0.0879  0.1485
 4593poe    c2320553   4.828   3.982   2.712  0.2990 -0.0470 -0.0130
 4593poe    c2320554   4.909   4.055   2.821  0.5996 -0.3055 -0.0626
 4593poe     o220555   5.048   4.050   2.798  0.4671 -0.0856 -0.9830
 4593poe    c3120556   5.110   4.124   2.901  0.1804 -0.4727 -0.5260
 4594poe    c3120557   0.331   7.283   1.660  0.0057  0.7300 -0.3032
 4594poe     o220558   0.414   7.194   1.731 -0.5261  0.4161 -0.0738
 4594poe    c2320559   0.428   7.064   1.680 -0.3484  0.4170 -0.0268
 4594poe    c2320560   0.495   6.965   1.777  0.5252  0.2058 -0.8326
 4594poe     o220561   0.636   6.974   1.791  0.3963  0.5598  0.3977
 4594poe    c2320562   0.672   6.931   1.920  0.2595  0.1168  0.2930
 4594poe    c2320563   0.819   6.957   1.962  0.2356 -0.1029  0.5118
 4594poe     o220564   0.839   7.094   1.987 -0.4303  0.1087 -0.0689
 4594poe    c2320565   0.968   7.122   2.038 -0.3801 -0.3993  0.0890
 4594poe    c2320566   1.003   7.266   2.077 -0.1010 -0.2137 -0.8126
 4594poe     o220567   1.075   7.350   1.990 -0.3875  0.8969 -0.0095
 4594poe    c3120568   1.121   7.474   2.039  1.0981  0.2232  0.3625
 4595poe    c3120569   4.828   2.947   3.705 -0.3002 -0.2046 -0.0704
 4595poe     o220570   4.770   3.010   3.593 -0.1491  0.2941  0.1293
 4595poe    c2320571   4.647   2.946   3.567  0.1553 -0.3307  0.2087
 4595poe    c2320572   4.610   2.948   3.417 -0.5211  0.1736  0.3783
 4595poe     o220573   4.518   2.857   3.362 -0.1238 -0.4019  0.6607
 4595poe    c2320574   4.403   2.921   3.313  0.6429  0.5189  0.0447
 4595poe    c2320575   4.350   2.837   3.195 -0.4893  0.5708  0.4991
 4595poe     o220576   4.308   2.717   3.255 -0.0770  0.1619 -0.0167
 4595poe    c2320577   4.192   2.652   3.207 -0.1392  0.4755 -0.2933
 4595poe    c2320578   4.069   2.702   3.285 -0.3639 -0.2602 -0.1617
 4595poe     o220579   4.078   2.639   3.411  0.0516  0.4170  0.1527
 4595poe    c3120580   3.968   2.687   3.484  0.4289  1.1620  0.2447
 4596poe    c3120581   2.698   6.038   6.877 -0.1735  0.4157  0.6719
 4596poe     o220582   2.816   6.050   6.801 -0.3525  0.7042  0.4381
 4596poe    c2320583   2.871   6.179   6.817 -0.2289  0.5174  1.5879
 4596poe    c2320584   2.976   6.235   6.719 -0.6753 -0.4377  0.5442
 4596poe     o220585   3.106   6.184   6.733 -0.7141 -0.6169  0.2583
 4596poe    c2320586   3.189   6.222   6.625  0.0465 -0.6408  0.8222
 4596poe    c2320587   3.232   6.100   6.541  0.3133  0.1277 -0.1650
 4596poe     o220588   3.132   6.039   6.462 -0.2872  0.1287  0.5864
 4596poe    c2320589   3.195   5.977   6.352 -0.3215 -0.5563  0.9482
 4596poe    c2320590   3.122   5.853   6.297 -0.4334 -0.0671 -0.0238
 4596poe     o220591   3.156   5.750   6.387  0.1316  0.1180 -0.0226
 4596poe    c3120592   3.104   5.625   6.347 -0.0308  0.1384  0.1254
 4597poe    c3120593   6.450   4.179   2.776  0.1123  0.4752 -0.3718
 4597poe     o220594   6.314   4.211   2.785 -0.0638 -0.3409  0.0042
 4597poe    c2320595   6.228   4.115   2.727 -0.2029 -0.1397 -0.1260
 4597poe    c2320596   6.192   4.129   2.578  0.0144 -0.3269 -0.1959
 4597poe     o220597   6.136   4.257   2.563  0.1338 -0.3149 -0.5394
 4597poe    c2320598   6.085   4.291   2.436  0.4326  0.1594 -0.5374
 4597poe    c2320599   6.061   4.443   2.426  0.2227  0.1833  0.2938
 4597poe     o220600   6.009   4.472   2.554 -0.3629  0.5704 -0.0266
 4597poe    c2320601   6.013   4.611   2.579  0.4382  0.4384  0.6366
 4597poe    c2320602   5.871   4.657   2.616 -0.0168 -0.2587 -0.2160
 4597poe     o220603   5.849   4.660   2.755 -0.2504 -0.8099 -0.2360
 4597poe    c3120604   5.714   4.691   2.779 -0.0057  0.0729  0.0393
 4598poe    c3120605   6.066   7.115   2.721 -1.0339  0.0119  0.1763
 4598poe     o220606   5.947   7.105   2.795 -0.6979  0.4752  0.7941
 4598poe    c2320607   5.921   6.975   2.845  0.0476  0.0415  0.0822
 4598poe    c2320608   5.931   6.966   2.999  0.2910 -0.3455  0.0437
 4598poe     o220609   6.065   6.970   3.042  0.2422 -0.4562  0.2064
 4598poe    c2320610   6.078   7.040   3.163 -0.0383 -0.0660  0.0125
 4598poe    c2320611   6.217   7.105   3.168 -0.0538 -0.0349  0.0591
 4598poe     o220612   6.220   7.208   3.071  0.3586  0.2195  0.3370
 4598poe    c2320613   6.350   7.261   3.063  0.3289  0.3136  0.4743
 4598poe    c2320614   6.372   7.318   2.922 -0.3452 -0.8027 -0.0934
 4598poe     o220615   6.285   7.423   2.884  0.1280 -0.7728 -1.1159
 4598poe    c3120616   6.318   7.482   2.760  1.4891 -0.4682 -0.6334
 4599poe    c3120617   3.441   5.405   2.785 -0.0254 -0.0598 -0.3303
 4599poe     o220618   3.347   5.487   2.719  0.2030  0.6079  0.1576
 4599poe    c2320619   3.398   5.547   2.602  0.1133 -0.1878 -0.2994
 4599poe    c2320620   3.272   5.585   2.521 -0.0513  0.3994  0.2238
 4599poe     o220621   3.203   5.477   2.463  0.8125  0.0682 -0.2031
 4599poe    c2320622   3.094   5.527   2.390  0.2545 -0.0599  0.5350
 4599poe    c2320623   3.084   5.460   2.252  0.1683 -0.4086  0.7107
 4599poe     o220624   2.999   5.347   2.252 -0.2656 -0.0913  0.1085
 4599poe    c2320625   3.025   5.273   2.135 -0.1580 -0.1481  0.1680
 4599poe    c2320626   2.932   5.157   2.095  0.1655 -0.3099 -0.1237
 4599poe     o220627   2.810   5.201   2.041  0.2262 -0.1930 -0.1660
 4599poe    c3120628   2.720   5.093   2.053  0.2443 -0.2539 -0.5653
 4600poe    c3120629   7.067   0.809   4.482  0.2170 -0.2230  0.0591
 4600poe     o220630   6.948   0.774   4.416  0.3258 -0.3388 -0.0779
 4600poe    c2320631   6.852   0.825   4.506  0.2193 -0.3399 -0.1909
 4600poe    c2320632   6.706   0.776   4.491  0.2589 -0.5878  0.2174
 4600poe     o220633   6.656   0.845   4.379  0.3790 -0.7353  0.0729
 4600poe    c2320634   6.536   0.792   4.327  0.3116 -0.2766 -0.2408
 4600poe    c2320635   6.491   0.851   4.192  0.2314 -0.6333 -0.3722
 4600poe     o220636   6.591   0.838   4.094  0.6082 -0.1671 -0.0536
 4600poe    c2320637   6.557   0.829   3.957 -0.6545 -0.3912  0.2676
 4600poe    c2320638   6.575   0.955   3.870 -0.3161 -0.3122  0.4511
 4600poe     o220639   6.464   1.037   3.897 -0.2955 -0.0690 -0.1873
 4600poe    c3120640   6.477   1.172   3.860 -1.0948  0.3800  1.0875
 4601poe    c3120641   3.034   5.081   7.288 -0.1028 -0.2853 -0.2112
 4601poe     o220642   2.943   5.033   7.385 -0.1787 -0.0244 -0.1501
 4601poe    c2320643   2.810   5.062   7.349  0.1131  0.3578 -0.9315
 4601poe    c2320644   2.704   4.979   7.424  0.3344  0.2720 -0.7135
 4601poe     o220645   2.705   5.006   7.562 -0.1559 -0.1567 -0.6256
 4601poe    c2320646   2.641   4.906   7.638  0.1164  0.1292 -0.0157
 4601poe    c2320647   2.656   4.920   7.791  0.5844 -0.3924 -0.0128
 4601poe     o220648   2.791   4.927   7.831  0.6639 -0.8623 -0.1909
 4601poe    c2320649   2.822   4.930   7.968 -0.1044  0.6960 -0.0343
 4601poe    c2320650   2.963   4.990   7.985  0.3136 -0.4110  0.5470
 4601poe     o220651   3.058   4.887   7.985  0.0395 -0.6657  0.7366
 4601poe    c3120652   3.193   4.930   7.995 -0.3063  0.5453  0.3647
 4602poe    c3120653   4.938   5.193   2.525  0.7542  0.5401  0.0709
 4602poe     o220654   4.848   5.285   2.582 -0.4727 -0.4536 -0.2334
 4602poe    c2320655   4.723   5.287   2.516 -0.5358  0.0419 -0.1019
 4602poe    c2320656   4.608   5.340   2.603  0.1089  0.5411  0.4482
 4602poe     o220657   4.543   5.244   2.683 -0.0246  0.1965 -0.0717
 4602poe    c2320658   4.411   5.207   2.647 -0.0553  0.0181  0.2229
 4602poe    c2320659   4.370   5.080   2.723 -0.7351  0.1262  0.0405
 4602poe     o220660   4.344   5.115   2.857  1.6270  1.1766  0.2745
 4602poe    c2320661   4.362   4.995   2.929 -0.8734  0.5209 -0.0816
 4602poe    c2320662   4.311   4.971   3.072 -0.0771  0.3956  0.1881
 4602poe     o220663   4.175   5.006   3.089 -0.2531 -0.1332 -0.1048
 4602poe    c3120664   4.131   4.957   3.214 -0.2171  0.9294  0.3399
 4603poe    c3120665   2.297   3.031   2.813 -0.0621 -0.2153  0.0655
 4603poe     o220666   2.330   3.118   2.920  0.6105 -0.8908  0.4213
 4603poe    c2320667   2.439   3.202   2.890  0.4013 -0.7745 -0.0258
 4603poe    c2320668   2.466   3.282   3.019  0.1948 -0.2799 -0.2843
 4603poe     o220669   2.573   3.372   3.004  0.1891 -0.1902  0.2001
 4603poe    c2320670   2.623   3.422   3.126 -0.7957  1.1323  0.0830
 4603poe    c2320671   2.736   3.524   3.104  0.4645 -0.3540 -0.5872
 4603poe     o220672   2.846   3.471   3.034  0.6212 -0.1634 -0.4881
 4603poe    c2320673   2.967   3.483   3.105  0.3442 -0.2443  0.0018
 4603poe    c2320674   2.996   3.373   3.208 -0.1828  0.1241  0.5496
 4603poe     o220675   2.892   3.364   3.303 -0.2613  0.0880  0.4614
 4603poe    c3120676   2.884   3.248   3.384  0.0073  0.0502  0.4343
 4604poe    c3120677   0.999   5.462   3.566  0.1432  0.4409 -0.8955
 4604poe     o220678   0.983   5.584   3.497  0.3226  0.5720 -0.7080
 4604poe    c2320679   1.021   5.557   3.364  0.5567 -0.6485 -0.4063
 4604poe    c2320680   0.925   5.643   3.279  0.4105 -0.3257  0.0781
 4604poe     o220681   0.793   5.604   3.308  0.3013 -0.1106 -0.1330
 4604poe    c2320682   0.717   5.598   3.189 -0.0957 -0.1413  0.1211
 4604poe    c2320683   0.686   5.734   3.124 -0.2477 -0.4823 -0.5216
 4604poe     o220684   0.793   5.792   3.053 -0.6055  0.0087 -0.6589
 4604poe    c2320685   0.799   5.933   3.063 -0.1133 -0.1029  0.8638
 4604poe    c2320686   0.898   5.991   2.960 -0.2945 -0.7851  0.2971
 4604poe     o220687   1.036   5.983   2.989 -0.1413 -0.6799 -0.3938
 4604poe    c3120688   1.102   6.058   2.889 -0.1898  0.2793  0.2750
 4605poe    c3120689   5.430   2.701   5.908  0.4028 -0.1506  0.0692
 4605poe     o220690   5.411   2.676   5.771 -0.0745  0.6362 -0.0217
 4605poe    c2320691   5.284   2.620   5.747  0.3189 -0.3783  0.2106
 4605poe    c2320692   5.265   2.592   5.597  0.6089  0.2077  0.0646
 4605poe     o220693   5.252   2.706   5.514  0.6988 -0.1332 -0.4240
 4605poe    c2320694   5.231   2.662   5.382 -0.5835  0.6301 -0.4867
 4605poe    c2320695   5.226   2.786   5.290 -0.2716  0.8942 -0.1524
 4605poe     o220696   5.352   2.848   5.281  0.2720 -0.1691 -0.0813
 4605poe    c2320697   5.356   2.945   5.178 -0.4899  0.2744  0.2981
 4605poe    c2320698   5.497   3.001   5.155 -0.2953 -0.2976  0.0753
 4605poe     o220699   5.583   2.899   5.109  0.5665  0.4116  0.0941
 4605poe    c3120700   5.718   2.936   5.127  0.5498  0.0234  1.0896
 4606poe    c3120701   6.731   0.672   2.028  0.2693  0.1690  0.0842
 4606poe     o220702   6.653   0.700   2.142  0.2990 -0.2748  0.2157
 4606poe    c2320703   6.740   0.721   2.252  0.3701 -0.0013  0.1094
 4606poe    c2320704   6.647   0.778   2.360 -0.0653 -0.2772 -0.1152
 4606poe     o220705   6.551   0.682   2.400 -0.0595  0.0014  0.5881
 4606poe    c2320706   6.487   0.712   2.522 -0.1366  0.8648  0.3406
 4606poe    c2320707   6.343   0.658   2.535  0.1751  0.0609  0.5145
 4606poe     o220708   6.330   0.519   2.517 -0.3671  0.0583  0.9289
 4606poe    c2320709   6.204   0.458   2.536 -0.4148 -0.0778  0.1909
 4606poe    c2320710   6.208   0.306   2.560  0.2069 -0.0568  0.2195
 4606poe     o220711   6.246   0.232   2.445 -0.2249 -0.1982  0.1671
 4606poe    c3120712   6.233   0.094   2.469  0.5221 -0.2541  0.2520
 4607poe    c3120713   1.707   1.687   5.571  0.2602 -0.0884  0.0530
 4607poe     o220714   1.672   1.784   5.667  0.0745 -0.3701  0.2722
 4607poe    c2320715   1.536   1.760   5.695 -0.0963 -0.0890 -0.3127
 4607poe    c2320716   1.510   1.832   5.829 -0.2300 -0.3977 -0.1727
 4607poe     o220717   1.574   1.758   5.931  0.3540  0.5289  0.1389
 4607poe    c2320718   1.553   1.826   6.052  0.0942  0.2541  0.2480
 4607poe    c2320719   1.574   1.754   6.186 -0.1497 -0.0706  0.1121
 4607poe     o220720   1.709   1.723   6.208 -0.0733 -0.5345 -0.9428
 4607poe    c2320721   1.739   1.688   6.342  0.1879  0.1720 -0.8126
 4607poe    c2320722   1.886   1.714   6.379 -0.1290  0.1908  0.4669
 4607poe     o220723   1.963   1.643   6.284  0.0563  0.3385  0.5051
 4607poe    c3120724   2.086   1.611   6.345 -0.0334 -0.4789  0.2645
 4608poe    c3120725   1.035   6.761   7.330 -0.0419 -0.9914  0.0042
 4608poe     o220726   1.065   6.891   7.287  0.2701 -0.9864  0.2363
 4608poe    c2320727   0.963   6.979   7.329  0.9951  0.1744 -0.3527
 4608poe    c2320728   0.959   7.112   7.252  0.0100  0.2530 -0.1781
 4608poe     o220729   1.077   7.185   7.276 -0.1365  0.1933  0.7885
 4608poe    c2320730   1.063   7.324   7.256 -0.2712  0.0526 -0.1750
 4608poe    c2320731   1.191   7.409   7.273  0.2908 -0.7743 -0.1829
 4608poe     o220732   1.286   7.364   7.180  0.4293 -0.0589 -0.3907
 4608poe    c2320733   1.355   7.468   7.113 -0.1151  0.0677 -0.7681
 4608poe    c2320734   1.456   7.399   7.020  0.0013 -0.0438 -0.5607
 4608poe     o220735   1.422   7.268   6.979  0.0984  0.0054 -0.8010
 4608poe    c3120736   1.530   7.204   6.915  0.1154 -0.5705 -0.2093
 4609poe    c3120737   5.730   4.316   5.150  0.2177  0.8557 -0.2882
 4609poe     o220738   5.797   4.288   5.030  0.3601 -0.1470  0.0195
 4609poe    c2320739   5.908   4.372   5.011  0.4753 -0.2807  0.0954
 4609poe    c2320740   5.965   4.333   4.873  0.1738  0.1265 -0.1446
 4609poe     o220741   5.949   4.195   4.849  0.1149  0.0151  0.5061
 4609poe    c2320742   6.045   4.145   4.759 -0.3265 -0.1095  0.0979
 4609poe    c2320743   5.993   4.014   4.698 -0.2208 -0.0691 -0.0818
 4609poe     o220744   5.995   3.930   4.811  0.1415 -0.0464 -0.0704
 4609poe    c2320745   5.934   3.809   4.773 -0.6662  0.4132 -0.2564
 4609poe    c2320746   5.912   3.715   4.893  0.2233  0.7889  0.2045
 4609poe     o220747   5.846   3.775   5.003 -0.2523 -0.0602  0.3883
 4609poe    c3120748   5.837   3.665   5.091 -0.0434 -0.4175 -0.0347
 4610poe    c3120749   0.019   6.955   0.677  0.2720 -0.0648 -0.1190
 4610poe     o220750  -0.092   6.908   0.749  0.2411  0.4261  0.1552
 4610poe    c2320751  -0.192   7.002   0.780 -0.0819  0.0132  0.3785
 4610poe    c2320752  -0.201   7.013   0.934  0.9113 -0.6361  0.4883
 4610poe     o220753  -0.249   6.892   0.988  0.2545 -0.2310  0.8272
 4610poe    c2320754  -0.320   6.915   1.108 -0.2114 -0.2720  0.5600
 4610poe    c2320755  -0.345   6.785   1.186 -0.1971 -0.1589  0.7518
 4610poe     o220756  -0.414   6.691   1.107 -0.2808  0.3876  0.1723
 4610poe    c2320757  -0.490   6.606   1.190 -0.2177 -0.4383 -0.6011
 4610poe    c2320758  -0.531   6.473   1.124 -0.1333 -0.8309  0.1212
 4610poe     o220759  -0.443   6.370   1.084  0.3015 -0.3327 -0.2216
 4610poe    c3120760  -0.367   6.387   0.967  0.4730  0.4543 -0.0007
 4611poe    c3120761   6.148   6.400   6.736 -0.6245  1.0988 -0.1462
 4611poe     o220762   6.107   6.289   6.660  0.0459  0.4881  0.3761
 4611poe    c2320763   5.971   6.288   6.624  0.1455 -0.2744  0.0028
 4611poe    c2320764   5.960   6.192   6.503 -0.0446 -0.1211 -0.1025
 4611poe     o220765   6.050   6.217   6.397  0.2117  0.0601  0.1551
 4611poe    c2320766   6.082   6.093   6.338  0.1394 -0.0164  0.2756
 4611poe    c2320767   6.109   6.114   6.188  0.5734 -0.7203  0.2479
 4611poe     o220768   6.191   6.229   6.177  0.1210 -0.3403  0.7773
 4611poe    c2320769   6.234   6.253   6.045  0.8448 -0.0092  1.0672
 4611poe    c2320770   6.304   6.388   6.021  0.2225  0.1784  0.2457
 4611poe     o220771   6.233   6.509   6.007 -0.1386 -0.0279  0.2756
 4611poe    c3120772   6.164   6.509   5.884  0.1765  0.2194  0.0978
 4612poe    c3120773   6.964   5.765   4.353 -0.7496 -0.3380  0.3206
 4612poe     o220774   7.007   5.882   4.420  0.2158 -0.0885 -0.7032
 4612poe    c2320775   6.921   5.934   4.519  0.5816 -0.2600 -0.2956
 4612poe    c2320776   6.974   6.063   4.585  0.2199 -0.1833 -0.1527
 4612poe     o220777   6.968   6.174   4.499  0.0822 -0.1765 -0.1349
 4612poe    c2320778   7.077   6.262   4.518 -0.1338  0.0394  0.1253
 4612poe    c2320779   7.035   6.410   4.505  0.0813  0.0964  0.0724
 4612poe     o220780   7.010   6.466   4.631 -0.2417  0.0564  0.0265
 4612poe    c2320781   7.036   6.601   4.663 -0.6830  0.1712 -0.0950
 4612poe    c2320782   7.180   6.647   4.635 -0.4240 -0.6882 -0.1840
 4612poe     o220783   7.204   6.682   4.500  0.3792  0.0006  0.1340
 4612poe    c3120784   7.337   6.730   4.492  0.2986  0.1892 -0.1003
 4613poe    c3120785   4.810   7.149   2.996  0.1909  0.2085  0.0586
 4613poe     o220786   4.705   7.162   3.089  0.0203  0.5028 -0.1730
 4613poe    c2320787   4.763   7.191   3.214  0.6778 -1.5297  0.0367
 4613poe    c2320788   4.658   7.245   3.313  0.4616 -0.6750 -0.6392
 4613poe     o220789   4.535   7.181   3.288 -0.1803  0.4979 -0.5502
 4613poe    c2320790   4.425   7.243   3.350 -0.2276 -0.3176  0.2066
 4613poe    c2320791   4.301   7.195   3.271 -0.1909 -0.4510  0.2288
 4613poe     o220792   4.339   7.198   3.135 -0.0806  0.1239  0.2687
 4613poe    c2320793   4.283   7.302   3.059  0.1295  0.1458  0.1452
 4613poe    c2320794   4.363   7.313   2.927 -0.4831  0.6922 -0.1872
 4613poe     o220795   4.502   7.299   2.947 -0.4930  0.2134 -0.4321
 4613poe    c3120796   4.573   7.386   2.862 -0.1906  0.0640 -0.3341
 4614poe    c3120797   2.433   5.924   0.510 -0.3153  0.1388 -0.1137
 4614poe     o220798   2.510   5.815   0.463 -0.1774 -0.2093  0.8828
 4614poe    c2320799   2.467   5.757   0.342  0.3152  0.5078  0.3504
 4614poe    c2320800   2.581   5.671   0.285 -0.3783 -0.1867 -0.0178
 4614poe     o220801   2.685   5.754   0.237  0.0058 -0.5289  0.2160
 4614poe    c2320802   2.774   5.687   0.150  0.0238  0.2083 -0.3418
 4614poe    c2320803   2.876   5.773   0.073 -0.2133  0.8556  0.0567
 4614poe     o220804   2.940   5.844   0.177  0.5040 -0.0115  0.2200
 4614poe    c2320805   3.058   5.909   0.134 -0.1929  0.8359 -0.4562
 4614poe    c2320806   3.140   5.978   0.245 -0.5801  0.1592  0.2667
 4614poe     o220807   3.207   5.880   0.320 -0.1578  0.1739 -0.0880
 4614poe    c3120808   3.306   5.933   0.405  0.7050 -0.6279 -0.5682
 4615poe    c3120809   3.550   1.465   3.778  0.7001  0.2255 -0.6815
 4615poe     o220810   3.558   1.357   3.869  0.0551  0.4712 -0.3261
 4615poe    c2320811   3.690   1.348   3.919 -0.2078 -0.3073  0.2369
 4615poe    c2320812   3.715   1.197   3.933  0.4964 -0.1813  0.3527
 4615poe     o220813   3.619   1.115   3.997 -0.1360  0.5965  0.4143
 4615poe    c2320814   3.646   0.976   3.994 -0.8758  0.4603 -0.2018
 4615poe    c2320815   3.526   0.901   4.054 -0.0242 -0.2007  0.7086
 4615poe     o220816   3.412   0.898   3.971  0.4836 -0.1222  0.0041
 4615poe    c2320817   3.300   0.852   4.044  0.6893 -0.2275  0.2530
 4615poe    c2320818   3.204   0.773   3.954  0.1720  0.0768  0.5364
 4615poe     o220819   3.238   0.652   3.890  0.0908  0.2114  0.2391
 4615poe    c3120820   3.139   0.602   3.803  0.3568 -0.0162  0.0673
 4616poe    c3120821   5.351   1.623   4.292 -0.3717  0.0548 -0.4765
 4616poe     o220822   5.241   1.625   4.381  0.1571  0.2179  0.1833
 4616poe    c2320823   5.241   1.502   4.450 -0.3888  0.5481  0.7761
 4616poe    c2320824   5.107   1.427   4.445 -0.1421  0.1606 -0.3960
 4616poe     o220825   5.005   1.514   4.489 -0.0927 -0.0719  0.1914
 4616poe    c2320826   4.876   1.457   4.493  0.0564 -0.3920  0.4726
 4616poe    c2320827   4.798   1.580   4.543  0.6682 -0.0309  0.5532
 4616poe     o220828   4.829   1.686   4.456  0.6572 -0.3286  0.1843
 4616poe    c2320829   4.707   1.747   4.420  0.8852 -0.2586 -0.4865
 4616poe    c2320830   4.612   1.688   4.314  0.0782 -0.2934  0.2394
 4616poe     o220831   4.509   1.599   4.350  0.1515 -0.4889 -0.0317
 4616poe    c3120832   4.393   1.637   4.278  0.3131  0.3873  0.1617
 4617poe    c3120833   0.404   3.466   3.310  0.5184  0.2990  0.0890
 4617poe     o220834   0.388   3.514   3.179  0.6107  0.3012  0.0787
 4617poe    c2320835   0.364   3.652   3.194  0.0765  0.2150  0.0578
 4617poe    c2320836   0.330   3.695   3.050  0.8682  0.2718 -0.1190
 4617poe     o220837   0.420   3.656   2.948  0.3321 -0.0158 -0.4919
 4617poe    c2320838   0.346   3.653   2.828  0.1384  0.1650 -0.3785
 4617poe    c2320839   0.427   3.676   2.699 -0.0082 -0.3777 -0.5718
 4617poe     o220840   0.537   3.593   2.668  0.4129 -0.1922  0.3890
 4617poe    c2320841   0.591   3.635   2.545  0.3218 -0.3108  0.3091
 4617poe    c2320842   0.714   3.550   2.507  0.1563 -0.3263 -0.1989
 4617poe     o220843   0.813   3.519   2.602 -0.4071 -1.2042  0.1148
 4617poe    c3120844   0.929   3.510   2.523 -0.0438  0.3794  0.4296
 4618poe    c3120845   3.849   6.163   5.949  1.1066  0.2729  0.2976
 4618poe     o220846   3.887   6.136   6.082  0.1584 -0.4518  0.4297
 4618poe    c2320847   3.997   6.049   6.073  0.4932 -0.0267  0.3888
 4618poe    c2320848   4.084   6.030   6.199  0.6261  0.1896  0.3312
 4618poe     o220849   4.027   5.952   6.301 -0.3609  0.2168 -0.1874
 4618poe    c2320850   4.066   5.817   6.285  0.3070  0.3879 -0.0151
 4618poe    c2320851   4.083   5.732   6.412  0.0843  0.2650 -0.0677
 4618poe     o220852   4.168   5.764   6.520  0.1423 -0.1231  0.0051
 4618poe    c2320853   4.155   5.886   6.590 -0.2969 -0.0687 -0.1703
 4618poe    c2320854   4.035   5.897   6.686 -0.3382  0.1702 -0.2498
 4618poe     o220855   4.046   5.813   6.799 -0.1609  0.2614 -0.1967
 4618poe    c3120856   3.914   5.787   6.841  0.3713 -0.2660  1.2093
 4619poe    c3120857   1.030   5.214   6.077 -0.2076 -0.0738  0.4577
 4619poe     o220858   1.053   5.094   6.148 -0.4425 -0.1720  0.3696
 4619poe    c2320859   0.978   5.099   6.268 -0.2596  0.3878  0.4633
 4619poe    c2320860   1.010   4.989   6.371 -0.4005 -0.8110 -0.7506
 4619poe     o220861   1.145   4.959   6.396 -0.4285 -0.3677 -0.0577
 4619poe    c2320862   1.191   4.844   6.329  0.2488  0.0742 -0.3606
 4619poe    c2320863   1.299   4.865   6.220  0.3279  0.2163 -0.2558
 4619poe     o220864   1.264   4.874   6.084 -0.9079  0.0244  0.0309
 4619poe    c2320865   1.268   4.744   6.029 -0.2645 -0.1595  0.4993
 4619poe    c2320866   1.239   4.751   5.878  0.2100  0.3450  0.4270
 4619poe     o220867   1.103   4.763   5.842  0.3143 -0.2487 -0.1839
 4619poe    c3120868   1.099   4.802   5.706 -0.3902 -0.6639 -0.2873
 4620poe    c3120869   1.257   6.110   4.197  0.3622  0.5347 -0.0694
 4620poe     o220870   1.184   6.227   4.170 -0.5682 -0.0029  0.0552
 4620poe    c2320871   1.060   6.234   4.237 -0.5338  0.0435  0.1144
 4620poe    c2320872   1.024   6.384   4.239 -0.2708  0.1152 -0.2551
 4620poe     o220873   0.995   6.427   4.108 -0.0798  0.2660 -0.2475
 4620poe    c2320874   1.005   6.565   4.079 -0.1835  0.1083 -1.0711
 4620poe    c2320875   1.146   6.607   4.033  0.2165  0.1699  0.1669
 4620poe     o220876   1.192   6.558   3.909  0.2287  0.9099 -0.1239
 4620poe    c2320877   1.332   6.572   3.899  0.3043 -0.0795 -0.5266
 4620poe    c2320878   1.383   6.517   3.765 -0.4944  0.0718 -0.8973
 4620poe     o220879   1.329   6.387   3.768 -0.3655  0.0364  0.2032
 4620poe    c3120880   1.361   6.323   3.646 -0.0542  0.2395  0.1794
 4621poe    c3120881   0.530   3.600   6.850  0.4058  0.4802 -0.0630
 4621poe     o220882   0.575   3.511   6.950 -0.4456  0.2603  0.1255
 4621poe    c2320883   0.712   3.532   6.975 -0.4534  0.3060  0.1306
 4621poe    c2320884   0.779   3.455   7.091  0.2852  0.0859 -0.4371
 4621poe     o220885   0.713   3.480   7.213 -0.2731  1.0630 -0.9279
 4621poe    c2320886   0.776   3.571   7.300  0.1657 -0.3616  0.2978
 4621poe    c2320887   0.688   3.688   7.348 -0.0627 -0.2094 -0.4712
 4621poe     o220888   0.568   3.652   7.413  0.0160  0.5559  0.1139
 4621poe    c2320889   0.481   3.761   7.434  0.1094  0.5966  0.2868
 4621poe    c2320890   0.376   3.732   7.543 -0.5908  0.6286 -0.3699
 4621poe     o220891   0.319   3.608   7.507  0.2142  0.1098  0.0969
 4621poe    c3120892   0.246   3.553   7.615  0.3549 -0.8187 -0.2802
 4622poe    c3120893   3.307   1.662   4.267  0.0941  0.1522 -0.4237
 4622poe     o220894   3.423   1.584   4.247 -0.2598 -0.3583 -0.5185
 4622poe    c2320895   3.502   1.616   4.135 -0.4245  0.2416 -0.4671
 4622poe    c2320896   3.645   1.649   4.181 -0.5946 -0.1457  0.3397
 4622poe     o220897   3.708   1.530   4.225  0.2111  0.3345  0.4869
 4622poe    c2320898   3.837   1.550   4.280  0.4430 -0.3117  0.1856
 4622poe    c2320899   3.911   1.416   4.299  0.2038 -0.4331  0.2608
 4622poe     o220900   3.850   1.346   4.406  0.4182 -0.2354  0.5130
 4622poe    c2320901   3.916   1.382   4.526  1.0554  0.3222  0.0097
 4622poe    c2320902   3.968   1.266   4.613  0.2783 -0.0212  0.0312
 4622poe     o220903   3.950   1.276   4.752 -0.2165  0.6908 -0.0792
 4622poe    c3120904   4.043   1.217   4.840  0.3775  0.1501 -1.0461
 4623poe    c3120905   1.720   3.939   0.582  0.2434 -0.4375  0.3341
 4623poe     o220906   1.600   3.979   0.644  0.1160  0.1111 -0.2623
 4623poe    c2320907   1.612   4.119   0.658  0.3141  0.0904 -0.2312
 4623poe    c2320908   1.488   4.152   0.742  0.1206 -0.1090 -0.4365
 4623poe     o220909   1.503   4.074   0.859  0.0910  0.3125 -0.1481
 4623poe    c2320910   1.452   4.146   0.969  0.4026 -0.3369  0.4273
 4623poe    c2320911   1.458   4.079   1.108 -0.0707 -0.0875  0.5714
 4623poe     o220912   1.373   3.967   1.106 -0.1113 -0.0526 -0.3085
 4623poe    c2320913   1.272   3.964   1.204 -0.0620 -0.7817 -0.2723
 4623poe    c2320914   1.297   3.916   1.348 -0.0407 -0.3569 -0.1330
 4623poe     o220915   1.344   3.784   1.359 -0.1494 -0.3650  0.2645
 4623poe    c3120916   1.374   3.756   1.494  0.5007  0.2587  0.2512
 4624poe    c3120917   5.489   6.167   0.399 -0.3677  0.4116 -0.2190
 4624poe     o220918   5.357   6.122   0.376 -0.3240 -0.1055  0.4977
 4624poe    c2320919   5.279   6.234   0.341  0.1938  0.1320  0.0912
 4624poe    c2320920   5.154   6.170   0.277  0.0707  0.5361 -0.0789
 4624poe     o220921   5.205   6.066   0.195  0.1281  0.2296  0.3406
 4624poe    c2320922   5.107   5.997   0.122  0.5147 -0.1052  0.1336
 4624poe    c2320923   5.160   5.901   0.015  0.7261  0.6547 -0.4523
 4624poe     o220924   5.219   5.784   0.069 -0.4834  0.1518 -0.1813
 4624poe    c2320925   5.119   5.687   0.086  0.1331 -0.5571 -0.5363
 4624poe    c2320926   5.181   5.549   0.114  0.4760 -0.2749  0.1190
 4624poe     o220927   5.267   5.561   0.226  0.0657  0.4262  0.3630
 4624poe    c3120928   5.369   5.466   0.245  0.1878  0.5859  0.5113
 4625poe    c3120929   2.565   7.606   3.232 -0.3175 -0.7837 -0.0108
 4625poe     o220930   2.517   7.581   3.102  0.0766 -0.1916 -0.2696
 4625poe    c2320931   2.457   7.455   3.085 -0.6433  0.1759 -0.5052
 4625poe    c2320932   2.454   7.425   2.934  0.2344 -0.0508 -0.4846
 4625poe     o220933   2.418   7.548   2.875  1.3369  0.2866 -0.4736
 4625poe    c2320934   2.401   7.532   2.736  1.0833  0.3342 -0.4476
 4625poe    c2320935   2.311   7.644   2.679  0.5707  0.1084 -0.0905
 4625poe     o220936   2.357   7.766   2.732 -0.0774  0.4408 -0.2859
 4625poe    c2320937   2.250   7.856   2.714  0.2259  0.8104 -0.2781
 4625poe    c2320938   2.292   7.992   2.770 -0.0198  0.6685  0.2562
 4625poe     o220939   2.385   8.057   2.686  0.0066  0.1246 -0.1404
 4625poe    c3120940   2.483   8.147   2.734 -0.1335  0.1698  0.0606
 4626poe    c3120941   6.597   1.521   1.889 -0.2208  0.2613 -0.0767
 4626poe     o220942   6.701   1.615   1.872  0.0417 -0.1009 -0.5180
 4626poe    c2320943   6.815   1.562   1.810  0.0989 -0.2580 -0.2791
 4626poe    c2320944   6.894   1.689   1.772  0.2481 -0.1448  0.4006
 4626poe     o220945   6.875   1.785   1.873  0.0240 -0.0306  0.2503
 4626poe    c2320946   6.933   1.911   1.850  0.2939 -0.3056 -0.5775
 4626poe    c2320947   7.019   1.966   1.965 -0.0163 -0.1367 -0.4278
 4626poe     o220948   6.929   2.006   2.067 -0.2521 -0.8462 -0.3537
 4626poe    c2320949   7.009   2.017   2.183 -0.1929 -0.7229 -0.4058
 4626poe    c2320950   6.992   2.159   2.240  0.0932 -0.7372 -0.2880
 4626poe     o220951   7.034   2.259   2.150  0.0659 -0.3097  0.1681
 4626poe    c3120952   7.001   2.391   2.187  0.0514 -0.3113  0.1604
 4627poe    c3120953   1.323   5.963   2.369  0.0008  0.3077 -0.1328
 4627poe     o220954   1.463   5.985   2.367  0.1376 -0.5675 -0.7301
 4627poe    c2320955   1.514   5.858   2.332 -0.2634 -0.8866 -0.1878
 4627poe    c2320956   1.668   5.856   2.319 -0.2563 -0.1049 -0.2938
 4627poe     o220957   1.710   5.952   2.224 -0.0155  0.1815  0.1011
 4627poe    c2320958   1.851   5.957   2.228 -0.0438  0.5891  0.7457
 4627poe    c2320959   1.908   6.081   2.157  0.1488  0.2332  0.2722
 4627poe     o220960   1.875   6.196   2.231 -0.0218 -0.1319  0.7635
 4627poe    c2320961   1.954   6.308   2.199 -0.1399 -0.2041  0.2121
 4627poe    c2320962   2.032   6.323   2.331  0.4196  0.3043 -0.1688
 4627poe     o220963   2.103   6.204   2.356 -0.7488 -0.3955 -0.1217
 4627poe    c3120964   2.149   6.196   2.489 -0.2064 -0.2622 -0.2987
 4628poe    c3120965   3.486   6.850   6.157 -0.0749  0.1472  0.0196
 4628poe     o220966   3.610   6.914   6.179 -0.2430  0.5931 -0.3094
 4628poe    c2320967   3.622   6.925   6.320 -0.2007  0.4035 -0.2990
 4628poe    c2320968   3.738   7.011   6.372 -0.1376  0.2328 -0.1543
 4628poe     o220969   3.871   6.972   6.348 -0.1413  0.4232 -0.5039
 4628poe    c2320970   3.954   7.070   6.407 -0.1105 -0.1024  0.3369
 4628poe    c2320971   4.103   7.034   6.416 -0.3526 -1.1150  0.4996
 4628poe     o220972   4.175   7.036   6.295 -1.0173  0.1807  0.1143
 4628poe    c2320973   4.304   6.981   6.308 -0.8546  0.4807 -0.2057
 4628poe    c2320974   4.391   6.958   6.183  0.0178  0.2703  0.4308
 4628poe     o220975   4.527   6.926   6.200 -0.0625 -0.4395 -0.1752
 4628poe    c3120976   4.607   6.926   6.083  0.1162 -0.2753 -0.0551
 4629poe    c3120977   5.926   0.935   3.795  0.8422  0.9742  0.6034
 4629poe     o220978   5.843   1.046   3.768 -0.1825  0.0219 -0.2506
 4629poe    c2320979   5.939   1.147   3.743 -0.1114 -0.0955 -0.4606
 4629poe    c2320980   5.858   1.278   3.739 -0.3030 -0.1987 -0.0288
 4629poe     o220981   5.757   1.272   3.837  0.5771  0.1369  0.9184
 4629poe    c2320982   5.698   1.399   3.861  0.0320 -0.0399  0.5361
 4629poe    c2320983   5.777   1.511   3.931 -0.4512  0.3954  0.3908
 4629poe     o220984   5.850   1.577   3.831  0.3879 -0.3626  0.4863
 4629poe    c2320985   5.929   1.686   3.874 -0.0230  0.2482 -0.2672
 4629poe    c2320986   6.062   1.695   3.797  0.1945  0.2739  0.1066
 4629poe     o220987   6.121   1.567   3.806 -0.2577  0.0723  0.2401
 4629poe    c3120988   6.259   1.558   3.780 -0.3079  0.3392 -0.1242
 4630poe    c3120989   1.112   0.779   3.862 -0.2116 -0.6074 -0.2479
 4630poe     o220990   1.000   0.786   3.947 -0.5911 -0.1812 -0.7797
 4630poe    c2320991   0.927   0.905   3.926 -0.2375  0.0852 -0.5182
 4630poe    c2320992   0.810   0.922   4.025 -0.0031  0.0977 -0.2419
 4630poe     o220993   0.705   0.829   4.009 -0.3729  0.4114  0.3612
 4630poe    c2320994   0.587   0.874   4.073 -0.5458  0.7493 -0.1865
 4630poe    c2320995   0.468   0.855   3.978 -0.8997  0.1231  0.3714
 4630poe     o220996   0.480   0.953   3.877 -0.4004 -0.0331  0.2793
 4630poe    c2320997   0.496   0.911   3.743 -0.4549  0.3710  0.1451
 4630poe    c2320998   0.561   1.016   3.651  0.4318 -0.0947  0.2342
 4630poe     o220999   0.544   0.982   3.515  0.1837  1.3443 -0.1142
 4630poe    c3121000   0.666   0.933   3.462 -0.0561  0.1972  0.3509
 4631poe    c3121001   7.421   6.247   2.651  0.2578 -0.2400 -0.0552
 4631poe     o221002   7.423   6.272   2.790  0.1164  0.4916 -0.1800
 4631poe    c2321003   7.503   6.387   2.805  0.5707  0.2076 -0.4097
 4631poe    c2321004   7.631   6.362   2.887  0.4856  0.1009 -0.3095
 4631poe     o221005   7.743   6.324   2.811  0.4355 -0.8986  0.1054
 4631poe    c2321006   7.859   6.316   2.890  0.1934  0.3272  0.6008
 4631poe    c2321007   7.984   6.270   2.814  0.3684  1.0624  0.4369
 4631poe     o221008   8.020   6.380   2.733  0.4943  0.1631 -0.7706
 4631poe    c2321009   8.148   6.426   2.771  0.2239 -0.0175  0.4041
 4631poe    c2321010   8.149   6.573   2.724  0.0795 -0.0655  0.2509
 4631poe     o221011   8.089   6.605   2.600 -0.3213  0.3410  0.5505
 4631poe    c3121012   8.111   6.734   2.546  0.2385  0.0098 -0.0239
 4632poe    c3121013   5.505   6.004   4.239 -0.6016 -0.4440  0.3558
 4632poe     o221014   5.518   6.143   4.259  0.2046 -0.3911 -0.4864
 4632poe    c2321015   5.433   6.216   4.174  0.1872  0.0161 -0.1227
 4632poe    c2321016   5.448   6.364   4.212 -0.3070  0.1781 -0.5467
 4632poe     o221017   5.574   6.416   4.172 -0.0454 -0.1970 -0.2137
 4632poe    c2321018   5.578   6.556   4.188 -0.1011 -0.1514 -0.5896
 4632poe    c2321019   5.683   6.628   4.102 -0.0636 -0.4383 -0.7864
 4632poe     o221020   5.812   6.588   4.144 -0.2207 -0.1181  0.0278
 4632poe    c2321021   5.888   6.640   4.037 -0.4377 -0.5030 -0.3179
 4632poe    c2321022   6.038   6.637   4.072 -0.5483  0.0126  0.2203
 4632poe     o221023   6.057   6.737   4.170 -0.1674 -0.1038  0.2682
 4632poe    c3121024   6.191   6.782   4.176  0.0707 -0.7681  0.0547
 4633poe    c3121025   0.711   1.533   0.377  0.4035 -0.6096  0.1723
 4633poe     o221026   0.593   1.480   0.433  0.0231 -0.0165 -0.0583
 4633poe    c2321027   0.505   1.418   0.341 -0.0653 -0.4568  0.3203
 4633poe    c2321028   0.359   1.419   0.391 -0.1537 -0.6093  0.0644
 4633poe     o221029   0.335   1.348   0.510  0.1241 -0.0198  0.4774
 4633poe    c2321030   0.257   1.429   0.596  0.1948  0.1852  0.3480
 4633poe    c2321031   0.248   1.367   0.736 -0.0331 -0.1501  0.1861
 4633poe     o221032   0.370   1.374   0.807 -0.1362 -0.5883  0.4098
 4633poe    c2321033   0.390   1.481   0.897  0.0493 -0.2276 -0.0596
 4633poe    c2321034   0.344   1.441   1.038 -0.2063  0.2210 -0.0163
 4633poe     o221035   0.204   1.424   1.040 -0.1568 -0.1894 -0.0335
 4633poe    c3121036   0.182   1.332   1.145 -0.4275 -0.3868 -0.2617
 4634poe    c3121037   4.370   0.887   1.795  0.0680 -0.1857 -0.3681
 4634poe     o221038   4.435   1.005   1.754 -0.4854  0.1918 -0.1611
 4634poe    c2321039   4.546   1.031   1.837 -0.4819 -0.0136 -0.1018
 4634poe    c2321040   4.665   1.106   1.776 -0.4295  0.3008  0.3813
 4634poe     o221041   4.749   1.046   1.680  0.1074  0.4274  0.7646
 4634poe    c2321042   4.887   1.073   1.691  0.3244 -0.0294 -0.5584
 4634poe    c2321043   4.986   0.991   1.607  0.4305 -0.4785 -0.0009
 4634poe     o221044   4.998   1.050   1.480  0.1385  0.2936  0.3264
 4634poe    c2321045   5.038   0.955   1.384 -0.3510 -0.0181  0.4269
 4634poe    c2321046   5.175   0.997   1.328 -0.5143  0.3309  0.2813
 4634poe     o221047   5.165   1.122   1.264 -0.3503  0.2384  0.0745
 4634poe    c3121048   5.297   1.157   1.229 -0.1747 -0.8081 -0.3746
 4635poe    c3121049   7.613   1.904   3.918  0.5298 -0.0230  0.0045
 4635poe     o221050   7.704   1.827   3.994  0.3845 -0.0325  0.1685
 4635poe    c2321051   7.657   1.785   4.120 -0.3262  0.2859  0.0186
 4635poe    c2321052   7.773   1.736   4.208  0.2751  0.4296 -0.6868
 4635poe     o221053   7.778   1.595   4.198  0.3596  0.3770  0.0403
 4635poe    c2321054   7.836   1.545   4.317 -0.1425  0.0299  0.1443
 4635poe    c2321055   7.882   1.399   4.301  0.2475  0.1319  0.3317
 4635poe     o221056   7.957   1.385   4.183  0.2476  0.0229  0.3444
 4635poe    c2321057   7.999   1.252   4.159 -0.0019  0.0016  0.0112
 4635poe    c2321058   8.088   1.262   4.034 -0.3987 -0.2126 -0.2896
 4635poe     o221059   8.207   1.322   4.081 -0.3877 -0.1970 -0.3367
 4635poe    c3121060   8.301   1.283   3.984 -0.1097 -0.5661  0.0804
 4636poe    c3121061   1.406   4.218   5.074  0.5160  0.7976 -0.0866
 4636poe     o221062   1.333   4.318   5.143  0.1709  0.2772  0.3072
 4636poe    c2321063   1.400   4.436   5.108  0.5897 -0.0747 -0.0982
 4636poe    c2321064   1.351   4.573   5.160  1.0287  0.1192 -0.1821
 4636poe     o221065   1.412   4.620   5.278  0.2048  0.1096  0.2609
 4636poe    c2321066   1.372   4.755   5.286  0.4262  0.2290 -0.5338
 4636poe    c2321067   1.372   4.811   5.429 -0.0300 -0.3134 -0.3157
 4636poe     o221068   1.501   4.805   5.487 -0.1000 -0.0920 -0.1352
 4636poe    c2321069   1.498   4.851   5.620  0.4222 -0.4091 -0.0104
 4636poe    c2321070   1.613   4.792   5.704  0.2291 -0.2185  0.3959
 4636poe     o221071   1.733   4.852   5.661  0.2146 -0.4059  0.0820
 4636poe    c3121072   1.820   4.859   5.772  0.5342  0.2240 -0.2018
 4637poe    c3121073   4.828   5.984   5.625 -0.8009 -0.4241 -0.5463
 4637poe     o221074   4.787   6.117   5.600  0.3335 -0.0112 -0.2351
 4637poe    c2321075   4.747   6.176   5.722  0.6983  0.2724 -0.2523
 4637poe    c2321076   4.721   6.324   5.693 -0.3884  0.1523  0.0816
 4637poe     o221077   4.609   6.330   5.607  0.1207 -0.3160 -0.6296
 4637poe    c2321078   4.540   6.452   5.589  0.5730  0.1243  0.5079
 4637poe    c2321079   4.634   6.548   5.514 -0.2038  0.2723 -0.2981
 4637poe     o221080   4.657   6.531   5.376  0.0201  0.3786 -0.2738
 4637poe    c2321081   4.770   6.603   5.331  0.4213 -0.0709  0.0016
 4637poe    c2321082   4.749   6.628   5.180 -0.2435  0.1082  0.1199
 4637poe     o221083   4.707   6.513   5.110  0.5755 -0.0951 -0.0477
 4637poe    c3121084   4.761   6.533   4.982  0.4329 -0.6264 -0.1956
 4638poe    c3121085   0.026   4.905   1.975  0.1481 -0.2629 -0.2933
 4638poe     o221086   0.111   4.893   2.086  0.1178  0.0046 -0.2411
 4638poe    c2321087   0.029   4.847   2.192  0.3037 -0.1819 -0.1751
 4638poe    c2321088   0.116   4.887   2.312  0.1361  0.5836 -0.3002
 4638poe     o221089   0.245   4.843   2.276 -0.2145 -0.6425 -0.0893
 4638poe    c2321090   0.333   4.859   2.385 -0.2093 -0.1553 -0.1638
 4638poe    c2321091   0.453   4.772   2.344 -0.4761 -0.5120 -0.2034
 4638poe     o221092   0.495   4.829   2.222  0.2780  0.6130  0.5477
 4638poe    c2321093   0.612   4.768   2.171  0.1125  0.7781 -0.0352
 4638poe    c2321094   0.686   4.853   2.066  0.2484 -0.1160 -0.6647
 4638poe     o221095   0.606   4.895   1.957 -0.0023 -0.1113 -0.4787
 4638poe    c3121096   0.688   4.970   1.871  0.7523  0.4006  0.6625
 4639poe    c3121097   3.703   2.127   1.826 -0.3548  0.3618  0.4367
 4639poe     o221098   3.840   2.119   1.858 -0.2701 -1.1415 -0.1999
 4639poe    c2321099   3.891   2.083   1.985 -0.1303  0.5263  0.2364
 4639poe    c2321100   4.044   2.089   1.966 -0.1874 -0.5609 -0.6450
 4639poe     o221101   4.113   2.212   1.974 -0.0089 -0.6869 -0.2462
 4639poe    c2321102   4.254   2.204   1.975  0.0243 -0.1552  1.0635
 4639poe    c2321103   4.315   2.341   2.011 -0.0405  0.1147  0.1701
 4639poe     o221104   4.248   2.438   1.933 -0.2078 -0.3254 -0.2428
 4639poe    c2321105   4.316   2.561   1.926 -0.3152 -0.2452  0.1313
 4639poe    c2321106   4.231   2.670   1.858  0.7563 -0.0149 -0.8711
 4639poe     o221107   4.147   2.596   1.773  0.1613  0.1036 -0.3946
 4639poe    c3121108   4.044   2.672   1.715  0.4105  0.7171 -0.0341
 4640poe    c3121109   5.071   1.026   2.778  0.3046  0.5044 -0.0111
 4640poe     o221110   5.092   1.019   2.638  0.2691  0.0840  0.0030
 4640poe    c2321111   5.005   1.112   2.577 -0.2519 -0.4287 -0.0385
 4640poe    c2321112   4.993   1.092   2.425 -0.1466 -0.4925 -0.0389
 4640poe     o221113   4.909   0.986   2.383  0.4043 -0.9681  0.0544
 4640poe    c2321114   4.877   0.998   2.246 -1.3526  0.6795  0.5765
 4640poe    c2321115   4.781   0.890   2.193 -0.6363  0.3941 -0.1414
 4640poe     o221116   4.820   0.754   2.193  0.3003  0.6564  0.3166
 4640poe    c2321117   4.704   0.675   2.181  0.7967 -0.0745  0.2876
 4640poe    c2321118   4.713   0.553   2.087 -0.1639 -0.1788  0.3272
 4640poe     o221119   4.765   0.446   2.161  0.3065  0.1136  0.4218
 4640poe    c3121120   4.718   0.322   2.113  0.2827  0.5016 -0.5724
 4641poe    c3121121   3.527   2.705   0.496 -0.6692 -0.1123 -0.3398
 4641poe     o221122   3.447   2.588   0.497 -0.4844 -0.2364  0.1762
 4641poe    c2321123   3.502   2.485   0.419 -0.1377  0.0537  0.0347
 4641poe    c2321124   3.397   2.409   0.336 -0.5958  0.6490  0.0642
 4641poe     o221125   3.351   2.472   0.219 -0.0349  0.0916 -0.4633
 4641poe    c2321126   3.305   2.385   0.118 -0.0231 -0.1208 -0.2854
 4641poe    c2321127   3.261   2.469  -0.003 -0.1776  0.8323  0.4172
 4641poe     o221128   3.361   2.507  -0.096 -0.2797 -0.1501 -0.1104
 4641poe    c2321129   3.302   2.535  -0.221  0.0430  0.8734 -0.0406
 4641poe    c2321130   3.399   2.590  -0.327  0.7671  0.6065  0.4645
 4641poe     o221131   3.473   2.493  -0.397 -0.3443  0.3516 -0.3862
 4641poe    c3121132   3.543   2.385  -0.341 -0.9542  0.2993  0.2937
 4642poe    c3121133   2.137   2.508   6.064  0.3574 -0.2544 -0.2937
 4642poe     o221134   2.224   2.452   5.969  0.1977  0.0039 -0.5934
 4642poe    c2321135   2.345   2.518   6.001 -0.3108  0.6322  0.0557
 4642poe    c2321136   2.451   2.444   5.918 -0.3892 -0.0726  0.5796
 4642poe     o221137   2.455   2.304   5.933 -0.8746 -0.1667 -0.1423
 4642poe    c2321138   2.542   2.260   5.831 -0.1774  0.0458  0.3541
 4642poe    c2321139   2.574   2.110   5.824 -0.7434 -0.0930  0.7481
 4642poe     o221140   2.473   2.042   5.752 -0.0611 -0.2788 -0.0409
 4642poe    c2321141   2.528   1.913   5.733  0.7445  0.1075 -0.4195
 4642poe    c2321142   2.436   1.797   5.691  0.0175  0.5726 -0.1380
 4642poe     o221143   2.364   1.758   5.806 -0.4906  0.1575 -0.5894
 4642poe    c3121144   2.294   1.639   5.778  0.0601 -0.3775  0.2459
 4643poe    c3121145   2.653   0.647   7.250 -0.1036  0.6998  0.4270
 4643poe     o221146   2.788   0.653   7.289  0.0697  0.0087 -0.0486
 4643poe    c2321147   2.794   0.666   7.429 -0.0110  0.1560 -0.0598
 4643poe    c2321148   2.922   0.737   7.476  0.0537 -0.0631  0.0948
 4643poe     o221149   3.038   0.668   7.434 -0.2867 -0.3889 -0.3188
 4643poe    c2321150   3.156   0.746   7.432 -0.1690 -0.5628 -0.1793
 4643poe    c2321151   3.278   0.654   7.452 -0.0182 -0.3711 -0.2170
 4643poe     o221152   3.319   0.597   7.330  0.0101  0.5685 -0.6598
 4643poe    c2321153   3.413   0.497   7.364 -0.5717  0.2787  0.1569
 4643poe    c2321154   3.443   0.405   7.244  0.1604  0.4986  0.1707
 4643poe     o221155   3.538   0.467   7.159  0.3147  0.0458  0.0109
 4643poe    c3121156   3.542   0.394   7.038  0.2493 -0.0909  0.0904
 4644poe    c3121157   5.182   3.041   2.081 -0.9370 -0.5029 -0.2048
 4644poe     o221158   5.186   3.148   1.989  0.0298 -0.1199  0.2790
 4644poe    c2321159   5.233   3.262   2.058 -0.8317  0.2514  0.2647
 4644poe    c2321160   5.309   3.355   1.961 -0.1834 -0.1404  0.3930
 4644poe     o221161   5.227   3.395   1.854  0.5648 -0.3054 -0.2585
 4644poe    c2321162   5.285   3.458   1.742  0.3062 -0.1747 -0.3212
 4644poe    c2321163   5.163   3.520   1.671  0.0357 -0.2751  0.0544
 4644poe     o221164   5.073   3.585   1.757 -0.7397 -0.6076 -0.4929
 4644poe    c2321165   4.955   3.626   1.692 -0.2334  0.6512 -0.6392
 4644poe    c2321166   4.919   3.763   1.754 -0.1552  0.3864 -0.0061
 4644poe     o221167   4.975   3.763   1.884  0.1081  0.1386 -0.1162
 4644poe    c3121168   4.929   3.882   1.945  0.2427 -0.1182  0.4900
 4645poe    c3121169   6.237   2.629   4.437 -0.3723 -0.9218  0.1927
 4645poe     o221170   6.154   2.735   4.477  1.1147  0.3885 -0.1094
 4645poe    c2321171   6.142   2.759   4.616 -0.0122 -0.3012 -0.0803
 4645poe    c2321172   6.066   2.888   4.651  0.2576 -0.0602 -0.3736
 4645poe     o221173   6.080   2.927   4.786  0.1708  0.1940 -0.4383
 4645poe    c2321174   5.984   3.016   4.837 -0.1598 -0.3285 -0.1409
 4645poe    c2321175   6.035   3.092   4.961  0.4781  0.3661 -0.8241
 4645poe     o221176   6.041   2.994   5.062  0.2162  1.1075 -0.0774
 4645poe    c2321177   6.077   3.036   5.191 -0.1343 -0.0241  0.4053
 4645poe    c2321178   6.222   3.088   5.199 -0.0600 -0.2768  0.6910
 4645poe     o221179   6.291   2.965   5.192  0.1473 -0.1218 -0.0760
 4645poe    c3121180   6.417   2.975   5.253  0.1014 -0.6009  0.1065
 4646poe    c3121181   2.496   7.222   3.486 -0.2654  0.0650 -0.1269
 4646poe     o221182   2.427   7.291   3.587 -0.3021 -0.1363 -0.0138
 4646poe    c2321183   2.516   7.356   3.674 -0.3548 -0.1631  0.0605
 4646poe    c2321184   2.424   7.406   3.786 -0.0488 -0.2875  0.3708
 4646poe     o221185   2.317   7.481   3.733  0.6447  0.3914 -0.0900
 4646poe    c2321186   2.226   7.521   3.833  0.1581 -0.4598 -0.1859
 4646poe    c2321187   2.099   7.568   3.760  0.3437 -0.0162 -0.2277
 4646poe     o221188   2.075   7.483   3.651  0.1524  0.4970 -0.5897
 4646poe    c2321189   1.939   7.468   3.618  0.0893 -0.1944 -0.0453
 4646poe    c2321190   1.930   7.367   3.502  0.5961  0.3960 -0.6074
 4646poe     o221191   1.969   7.235   3.533 -0.3047  0.2176 -0.1862
 4646poe    c3121192   1.924   7.142   3.437  0.2328  0.4849 -0.7043
 4647poe    c3121193   4.448   1.149   4.794 -0.0604  0.5785  0.4228
 4647poe     o221194   4.516   1.136   4.671  0.1581 -0.3730  0.6379
 4647poe    c2321195   4.527   1.258   4.601  0.0278 -0.6455  0.1288
 4647poe    c2321196   4.566   1.249   4.453 -0.7987 -0.2430 -0.1181
 4647poe     o221197   4.684   1.175   4.426 -0.1581  0.7738 -0.1599
 4647poe    c2321198   4.658   1.095   4.313  0.7175  0.6154 -0.2549
 4647poe    c2321199   4.783   1.023   4.260 -0.0215 -0.2636 -0.8432
 4647poe     o221200   4.789   0.896   4.321  0.2944 -0.0057 -0.3329
 4647poe    c2321201   4.895   0.814   4.277  0.1917 -0.1457 -0.3176
 4647poe    c2321202   4.907   0.669   4.331  0.2574 -0.2071 -0.4966
 4647poe     o221203   4.973   0.649   4.453 -0.1331  0.4653 -0.1690
 4647poe    c3121204   5.027   0.519   4.452 -0.1372  0.4644 -0.2184
 4648poe    c3121205   0.597   5.375   5.462  0.4416  0.1402  0.4337
 4648poe     o221206   0.615   5.515   5.459 -0.0670  0.2120  0.5142
 4648poe    c2321207   0.678   5.569   5.574  0.1931  0.8798  0.0663
 4648poe    c2321208   0.830   5.554   5.587  0.0745 -0.7641 -0.1668
 4648poe     o221209   0.902   5.650   5.513  0.0241 -0.8545 -0.3330
 4648poe    c2321210   1.027   5.688   5.567 -0.4407 -0.1295  0.2498
 4648poe    c2321211   1.033   5.841   5.550  0.9881 -0.2298 -0.2738
 4648poe     o221212   1.032   5.873   5.413 -0.0584 -0.0147 -0.2243
 4648poe    c2321213   1.048   6.010   5.387 -0.0560 -0.0086 -0.1919
 4648poe    c2321214   1.022   6.054   5.241  0.1495 -0.1378 -0.2680
 4648poe     o221215   0.894   6.023   5.191  0.3084 -0.1070 -0.6988
 4648poe    c3121216   0.889   6.103   5.075 -0.0885  0.3741 -0.3540
 4649poe    c3121217   1.022   0.310   5.988 -0.2148 -0.0804  0.2975
 4649poe     o221218   1.010   0.256   5.858 -0.1461 -0.0926  0.2960
 4649poe    c2321219   0.892   0.301   5.795  0.3063  0.8709  0.1065
 4649poe    c2321220   0.898   0.277   5.643  0.3676  0.1146  0.2235
 4649poe     o221221   0.901   0.146   5.592  1.0546  0.2620 -0.1338
 4649poe    c2321222   0.841   0.140   5.464  0.3889 -0.0400  0.1882
 4649poe    c2321223   0.865   0.000   5.404 -0.1557 -0.0233 -0.0742
 4649poe     o221224   1.001  -0.038   5.398  0.0441  0.5757  0.5113
 4649poe    c2321225   1.029  -0.152   5.321 -0.1607  0.4496  0.6228
 4649poe    c2321226   1.176  -0.193   5.299 -0.3843 -0.0206 -0.0277
 4649poe     o221227   1.238  -0.231   5.419  0.3695  0.8334 -0.1322
 4649poe    c3121228   1.365  -0.291   5.422 -0.3643 -0.7868 -0.2390
 4650poe    c3121229   7.312   5.862   5.112  0.2531 -0.2897 -0.4383
 4650poe     o221230   7.390   5.773   5.189 -0.0535 -0.2678 -0.0959
 4650poe    c2321231   7.437   5.662   5.117 -0.3877 -0.1817 -0.4506
 4650poe    c2321232   7.504   5.571   5.222 -0.7374  0.4290  0.3086
 4650poe     o221233   7.624   5.625   5.272 -0.3057 -0.3383  0.1107
 4650poe    c2321234   7.665   5.553   5.386 -0.3499  0.0334  0.3603
 4650poe    c2321235   7.807   5.593   5.429 -0.1112 -0.1726 -0.2388
 4650poe     o221236   7.804   5.734   5.441  0.8374 -0.1882  0.2733
 4650poe    c2321237   7.930   5.787   5.473  0.5656  0.5967  0.0656
 4650poe    c2321238   7.935   5.931   5.420  0.1863  0.5826 -0.0093
 4650poe     o221239   7.903   5.921   5.283  0.0388 -0.1306  0.0749
 4650poe    c3121240   7.980   5.999   5.195  0.3792  0.4520  0.8745
 4651poe    c3121241   2.415   7.122   0.224  0.9197 -0.0589  0.3042
 4651poe     o221242   2.396   7.056   0.101  0.1048  0.3584  0.1987
 4651poe    c2321243   2.439   7.139  -0.005  0.3731 -0.3933 -0.2907
 4651poe    c2321244   2.495   7.056  -0.122 -0.1858 -0.5596 -0.4439
 4651poe     o221245   2.397   6.990  -0.199 -0.7597  0.2066 -0.3773
 4651poe    c2321246   2.479   6.948  -0.305 -0.0919  0.0855  0.1816
 4651poe    c2321247   2.414   6.850  -0.405  0.5423  0.0358 -0.1936
 4651poe     o221248   2.309   6.917  -0.472  0.2061 -0.6388 -0.3526
 4651poe    c2321249   2.231   6.837  -0.557 -0.3366 -0.1885 -0.2801
 4651poe    c2321250   2.135   6.930  -0.634 -0.5070  0.0775  0.2438
 4651poe     o221251   2.039   6.994  -0.554 -0.2542 -0.0027  0.6140
 4651poe    c3121252   1.908   6.983  -0.606 -0.1208 -0.4335  0.3659
 4652poe    c3121253   6.190   2.035   0.945  0.1774 -0.2053 -0.1545
 4652poe     o221254   6.263   1.915   0.931  0.0763 -0.2944  0.0703
 4652poe    c2321255   6.208   1.839   1.036 -0.8053  0.2462  0.0103
 4652poe    c2321256   6.234   1.688   1.022 -0.2725  0.3331  0.0218
 4652poe     o221257   6.175   1.650   0.900 -0.3426 -0.4156  0.2830
 4652poe    c2321258   6.099   1.535   0.931 -0.5011 -0.1728  0.8080
 4652poe    c2321259   5.988   1.476   0.842 -0.1118 -1.0666  0.8963
 4652poe     o221260   6.044   1.388   0.748 -0.0811 -0.0186 -0.0817
 4652poe    c2321261   5.940   1.321   0.679 -0.1204 -0.0880  0.0454
 4652poe    c2321262   5.986   1.234   0.561  0.3100  0.1802  0.0127
 4652poe     o221263   6.032   1.107   0.602  0.1302  0.2300  0.3732
 4652poe    c3121264   6.069   1.034   0.487 -0.1627 -0.7360  0.8802
 4653poe    c3121265   3.993   3.097   2.105 -0.6986  0.9314 -0.7249
 4653poe     o221266   3.941   3.004   2.013  0.0382  0.1577 -0.3679
 4653poe    c2321267   3.893   3.063   1.894 -0.1763  0.4549 -0.1340
 4653poe    c2321268   3.836   2.950   1.806 -0.1929  0.3887 -0.0393
 4653poe     o221269   3.730   2.881   1.868  0.4313 -0.3831  0.1834
 4653poe    c2321270   3.708   2.759   1.801  0.1592 -0.2166 -0.0303
 4653poe    c2321271   3.660   2.764   1.655 -0.3104 -0.4828  0.1110
 4653poe     o221272   3.540   2.836   1.642 -0.2240 -0.2855  0.3965
 4653poe    c2321273   3.432   2.745   1.634 -0.1760 -0.3352  0.2990
 4653poe    c2321274   3.295   2.805   1.597  0.1898  0.4212  0.1511
 4653poe     o221275   3.289   2.859   1.466 -0.4540  0.8337  0.3449
 4653poe    c3121276   3.164   2.917   1.438 -0.7127  0.1204 -0.0178
 4654poe    c3121277   3.648   5.305   5.888  0.3847 -0.3128 -0.2418
 4654poe     o221278   3.746   5.338   5.984 -0.1577  0.0920  0.1782
 4654poe    c2321279   3.710   5.425   6.089  0.6327  0.3078  0.2705
 4654poe    c2321280   3.749   5.573   6.077 -0.3581  0.5290 -0.3050
 4654poe     o221281   3.884   5.598   6.044 -0.1707 -0.2287 -0.1134
 4654poe    c2321282   3.909   5.621   5.907 -0.0428  0.0858 -0.0376
 4654poe    c2321283   4.056   5.663   5.886 -0.2492  0.5429 -0.5956
 4654poe     o221284   4.138   5.550   5.865 -0.5984  0.1446  0.1238
 4654poe    c2321285   4.180   5.549   5.731  0.2400  0.0223  0.3787
 4654poe    c2321286   4.277   5.439   5.685  0.0949  0.0272  0.0537
 4654poe     o221287   4.397   5.438   5.760  0.1096 -0.5406  0.0324
 4654poe    c3121288   4.494   5.371   5.684  0.5752 -0.1087  0.2374
 4655poe    c3121289   3.004   4.189   7.056  0.3860  0.3649  0.2764
 4655poe     o221290   2.929   4.201   6.938  0.3981  0.0163  0.2292
 4655poe    c2321291   2.953   4.325   6.874 -0.4307  0.1909  0.2408
 4655poe    c2321292   2.952   4.317   6.720  0.4696 -0.2373  0.2515
 4655poe     o221293   3.053   4.235   6.665  0.2521 -0.5233  0.2774
 4655poe    c2321294   3.074   4.239   6.525 -0.0349 -0.5239  0.2327
 4655poe    c2321295   3.216   4.180   6.517  0.1119 -0.1689  0.1954
 4655poe     o221296   3.210   4.043   6.551  0.7607 -0.3083 -0.2252
 4655poe    c2321297   3.343   3.998   6.564  0.7564 -0.4082 -0.5115
 4655poe    c2321298   3.335   3.860   6.631  0.3457 -0.1840 -0.0891
 4655poe     o221299   3.233   3.843   6.727  0.2835 -0.2114 -0.1601
 4655poe    c3121300   3.266   3.737   6.815  0.2463  0.0978  0.2296
 4656poe    c3121301   7.158   5.985   6.954  0.0986  0.6554  0.7205
 4656poe     o221302   7.066   6.084   6.994 -0.3338  0.7642 -0.4802
 4656poe    c2321303   6.966   6.094   6.895 -0.6942 -0.7347 -0.2917
 4656poe    c2321304   6.860   6.191   6.950 -0.2598 -0.4074 -0.0246
 4656poe     o221305   6.811   6.155   7.077 -0.1757 -0.2945  0.0395
 4656poe    c2321306   6.738   6.257   7.141  0.1289 -0.2767  0.3635
 4656poe    c2321307   6.726   6.211   7.287 -0.4781 -0.0413  0.3913
 4656poe     o221308   6.850   6.219   7.354 -0.3743 -0.1058  0.2114
 4656poe    c2321309   6.828   6.249   7.491 -0.5248  0.7176  0.0165
 4656poe    c2321310   6.950   6.223   7.581 -0.5555 -0.0343 -0.1501
 4656poe     o221311   6.985   6.088   7.598 -0.1307  0.0349 -0.4674
 4656poe    c3121312   7.092   6.085   7.691 -0.0109 -0.0098 -0.6065
 4657poe    c3121313   0.422   7.505   7.320  0.1920 -0.0264 -0.1149
 4657poe     o221314   0.491   7.625   7.344  0.1748 -0.0595  0.1041
 4657poe    c2321315   0.610   7.607   7.417  0.2268  0.3170  0.1171
 4657poe    c2321316   0.590   7.649   7.564 -0.3437 -0.0469  0.1481
 4657poe     o221317   0.552   7.553   7.659  0.0113  0.0770  0.4168
 4657poe    c2321318   0.642   7.446   7.672  0.1671  0.2092  0.4327
 4657poe    c2321319   0.623   7.349   7.790 -0.3115 -0.0613  0.1395
 4657poe     o221320   0.728   7.258   7.815 -0.1749  0.1708  0.4236
 4657poe    c2321321   0.764   7.162   7.717  0.0957  0.4160  0.2781
 4657poe    c2321322   0.849   7.041   7.758 -0.4160 -0.2802 -0.6780
 4657poe     o221323   0.863   6.926   7.677 -0.2409 -0.3303 -0.5776
 4657poe    c3121324   0.787   6.815   7.718 -0.4253 -0.0130 -0.0487
 4658poe    c3121325   4.169   2.247   2.397 -0.0520 -0.0610 -0.5591
 4658poe     o221326   4.282   2.163   2.393  0.0404  0.0250  0.1927
 4658poe    c2321327   4.267   2.023   2.411 -0.1896 -0.0334 -0.4154
 4658poe    c2321328   4.226   1.956   2.279 -0.6397  0.1148 -0.3508
 4658poe     o221329   4.206   1.818   2.300  0.1825  0.0551  0.0700
 4658poe    c2321330   4.294   1.736   2.226  0.0646 -0.1573  0.1666
 4658poe    c2321331   4.280   1.593   2.283 -0.1055 -0.3311 -0.3010
 4658poe     o221332   4.378   1.552   2.376 -0.3460 -0.1253  0.0444
 4658poe    c2321333   4.324   1.439   2.442  0.0663 -0.4706 -0.2079
 4658poe    c2321334   4.400   1.406   2.571  0.1679 -0.1873 -0.1950
 4658poe     o221335   4.535   1.404   2.529 -0.0360 -0.2544 -0.8606
 4658poe    c3121336   4.630   1.346   2.616 -0.0689  0.2069 -0.5157
 4659poe    c3121337   1.512   2.410   1.965  0.3679  0.1454 -0.0143
 4659poe     o221338   1.493   2.358   1.835 -0.0118  0.6851 -0.1795
 4659poe    c2321339   1.400   2.428   1.756  0.0107  0.5682 -0.3097
 4659poe    c2321340   1.352   2.325   1.653 -0.0049  0.1172  0.1479
 4659poe     o221341   1.457   2.275   1.574 -0.2897 -0.6577  0.2439
 4659poe    c2321342   1.476   2.136   1.590 -0.0957 -0.5457  1.0525
 4659poe    c2321343   1.414   2.041   1.486  0.8393 -0.1092  0.0742
 4659poe     o221344   1.284   1.993   1.512  0.5356  0.7847  0.2361
 4659poe    c2321345   1.202   2.028   1.404  0.6365 -0.0803 -0.1300
 4659poe    c2321346   1.098   2.135   1.445  0.5889 -0.2653  0.2377
 4659poe     o221347   1.015   2.089   1.548 -0.1846 -0.2979 -0.3921
 4659poe    c3121348   0.917   2.189   1.568 -0.2318 -0.5146  0.5419
 4660poe    c3121349   7.095   5.397   4.882  0.7311  0.2406 -0.0273
 4660poe     o221350   7.007   5.295   4.838  0.2633  0.2504  0.8649
 4660poe    c2321351   6.929   5.338   4.729  0.6501 -0.9508  0.1025
 4660poe    c2321352   6.861   5.212   4.670  0.0742 -0.6078  0.0249
 4660poe     o221353   6.790   5.141   4.768 -0.3704 -0.2889 -0.0621
 4660poe    c2321354   6.743   5.017   4.718  0.2732 -0.4646 -0.2377
 4660poe    c2321355   6.674   4.952   4.839 -0.2468  0.3981 -0.0641
 4660poe     o221356   6.770   4.934   4.940  0.0949  0.1478 -0.4348
 4660poe    c2321357   6.726   4.862   5.053  0.6106 -0.0031 -0.3233
 4660poe    c2321358   6.645   4.933   5.163  0.5892  0.2949 -0.5295
 4660poe     o221359   6.725   4.988   5.265  0.2361  0.0451 -0.1142
 4660poe    c3121360   6.676   4.981   5.397 -0.0765  0.2172 -0.2185
 4661poe    c3121361   6.000   4.315   2.088  0.0509  0.3183 -0.2369
 4661poe     o221362   6.136   4.335   2.118 -0.0617  0.0940  0.4332
 4661poe    c2321363   6.215   4.426   2.045 -0.0397 -0.2227  0.0622
 4661poe    c2321364   6.259   4.378   1.905  1.1549  0.3941  0.2121
 4661poe     o221365   6.314   4.251   1.876 -0.4988 -0.4230  0.5303
 4661poe    c2321366   6.429   4.227   1.954 -0.0400 -0.1020 -0.0411
 4661poe    c2321367   6.478   4.082   1.934  0.1908 -0.0506  0.1485
 4661poe     o221368   6.543   4.055   1.812  0.4481 -0.3276  0.3443
 4661poe    c2321369   6.672   4.111   1.821  0.2676  0.2131 -0.3492
 4661poe    c2321370   6.734   4.114   1.680  0.1069 -0.2804 -0.4322
 4661poe     o221371   6.797   3.999   1.628  0.9504  0.0670 -0.1991
 4661poe    c3121372   6.864   4.036   1.510  0.2747  0.9233 -0.3278
 4662poe    c3121373   2.587   6.325   4.149 -0.3586  0.3996 -0.6982
 4662poe     o221374   2.617   6.419   4.250  0.3198 -0.3655 -0.1800
 4662poe    c2321375   2.650   6.355   4.372 -0.0528 -0.2557 -0.0222
 4662poe    c2321376   2.632   6.462   4.481 -0.1420  0.3759 -0.6450
 4662poe     o221377   2.666   6.588   4.428  0.1975  0.3336 -0.5342
 4662poe    c2321378   2.740   6.659   4.524 -0.6622  0.7169 -0.1507
 4662poe    c2321379   2.850   6.744   4.460  0.3486 -0.0636  0.5216
 4662poe     o221380   2.768   6.841   4.398 -0.4190 -0.5391  0.7852
 4662poe    c2321381   2.808   6.976   4.397 -0.1385 -0.6257 -0.2293
 4662poe    c2321382   2.856   7.050   4.271  0.0291  0.8662  0.6831
 4662poe     o221383   2.748   7.093   4.191 -0.0108 -0.1626  0.1698
 4662poe    c3121384   2.789   7.122   4.060 -0.8319 -0.0270 -0.0599
 4663poe    c3121385   6.803   0.564   4.859  0.7330 -1.4194 -0.6196
 4663poe     o221386   6.890   0.614   4.958 -0.3235 -0.0307 -0.3708
 4663poe    c2321387   6.850   0.734   5.023 -0.1078 -0.1780  0.0382
 4663poe    c2321388   6.773   0.715   5.154  0.0699  0.5027  0.2441
 4663poe     o221389   6.862   0.661   5.250 -0.0979 -0.2589 -0.0173
 4663poe    c2321390   6.796   0.605   5.361 -0.0673  0.4727  0.3775
 4663poe    c2321391   6.895   0.583   5.476  1.2617 -0.6903 -0.9489
 4663poe     o221392   6.985   0.680   5.526 -0.6555  0.5636  0.2291
 4663poe    c2321393   7.055   0.661   5.647  0.3701 -0.0781 -0.4506
 4663poe    c2321394   7.099   0.787   5.723 -0.7235 -0.0407  0.1362
 4663poe     o221395   6.979   0.858   5.744 -0.5511  0.2048  0.2989
 4663poe    c3121396   7.010   0.993   5.771 -0.4802  0.2785 -0.1495
 4664poe    c3121397   6.617   6.320   3.119  0.2410 -0.1472 -0.0156
 4664poe     o221398   6.744   6.281   3.165  0.1367 -0.0374  0.3668
 4664poe    c2321399   6.809   6.391   3.224 -0.1487  0.0211  0.5767
 4664poe    c2321400   6.922   6.338   3.314  0.3602 -0.3033 -0.2409
 4664poe     o221401   6.874   6.271   3.428  0.5399  0.3205  0.2077
 4664poe    c2321402   6.959   6.265   3.540  0.2647  0.0208  0.4030
 4664poe    c2321403   7.061   6.153   3.507  0.1248 -0.1181  0.4382
 4664poe     o221404   7.031   6.025   3.558  0.0430  0.0087  0.7099
 4664poe    c2321405   7.116   5.975   3.659  0.7215  0.2585  0.2657
 4664poe    c2321406   7.194   5.853   3.608  0.3315  0.3041 -0.4584
 4664poe     o221407   7.097   5.757   3.571  0.1309  0.1096  0.5518
 4664poe    c3121408   7.161   5.643   3.519 -0.3464 -0.1215  0.4707
 4665poe    c3121409   6.589   2.965   0.434 -0.5020 -0.3744 -0.2098
 4665poe     o221410   6.543   3.018   0.556  0.3557 -0.0177 -0.0359
 4665poe    c2321411   6.458   3.127   0.528 -0.0389 -0.2572  0.2146
 4665poe    c2321412   6.447   3.237   0.634 -0.2030 -0.0346 -0.0337
 4665poe     o221413   6.365   3.208   0.745  0.6722 -0.4092  0.5320
 4665poe    c2321414   6.314   3.333   0.787 -0.2181 -0.5133 -0.1998
 4665poe    c2321415   6.175   3.332   0.852 -0.1007  0.3702  0.0805
 4665poe     o221416   6.171   3.264   0.975  0.0701  0.0412 -0.0927
 4665poe    c2321417   6.052   3.189   0.981  0.1699 -0.1010  0.1094
 4665poe    c2321418   6.026   3.108   1.110 -0.6657  0.6287  0.4090
 4665poe     o221419   5.944   2.999   1.073  0.0055  0.2516 -0.0017
 4665poe    c3121420   5.962   2.888   1.158  0.1704  0.8721  0.7871
 4666poe    c3121421   3.779   1.129   5.897 -0.5402  0.1908  0.4107
 4666poe     o221422   3.658   1.180   5.844 -0.2616  0.1626 -0.2669
 4666poe    c2321423   3.544   1.124   5.906 -0.2849  0.8631  0.3406
 4666poe    c2321424   3.413   1.185   5.853 -0.4643  0.2948  0.1185
 4666poe     o221425   3.378   1.127   5.730 -0.1448  0.1428  0.0968
 4666poe    c2321426   3.267   1.041   5.748  0.6709 -0.9690 -0.0737
 4666poe    c2321427   3.199   0.995   5.617 -0.1540  0.7294 -0.2686
 4666poe     o221428   3.283   0.911   5.541 -0.0451  0.4965  0.1054
 4666poe    c2321429   3.264   0.905   5.402  1.1371 -0.0884 -0.0451
 4666poe    c2321430   3.308   1.021   5.312 -0.0963  0.2146 -0.2838
 4666poe     o221431   3.448   1.016   5.292  0.0442 -0.2144  0.7882
 4666poe    c3121432   3.488   1.105   5.191 -0.8771 -0.2370  0.3995
 4667poe    c3121433   0.602   7.476   3.228  0.1286  0.0376 -0.3486
 4667poe     o221434   0.496   7.408   3.290  0.0579  0.2733 -0.2051
 4667poe    c2321435   0.364   7.431   3.245 -0.0115  0.1639 -0.0603
 4667poe    c2321436   0.282   7.304   3.218  0.3864 -0.0675 -0.1854
 4667poe     o221437   0.252   7.245   3.343  0.4090  0.2003 -0.0534
 4667poe    c2321438   0.165   7.143   3.300  0.5522  0.2294 -0.4155
 4667poe    c2321439   0.113   7.067   3.423  0.9433  0.5667 -0.0412
 4667poe     o221440   0.217   7.000   3.491 -0.0158 -0.0579  0.8336
 4667poe    c2321441   0.195   6.861   3.495 -0.2258 -0.0476  0.1470
 4667poe    c2321442   0.291   6.779   3.585  0.9831  0.5488 -0.5670
 4667poe     o221443   0.294   6.839   3.712 -0.0848  0.1550 -0.3386
 4667poe    c3121444   0.367   6.765   3.808  0.0610 -0.0839 -0.6342
 4668poe    c3121445   3.105   1.931   4.386 -0.5095  0.6342 -0.1969
 4668poe     o221446   3.161   1.919   4.515 -0.2289  0.4502 -0.3340
 4668poe    c2321447   3.148   2.046   4.576 -1.1077  0.1870  0.0340
 4668poe    c2321448   3.093   2.011   4.716 -0.1191  0.1713  0.4265
 4668poe     o221449   3.190   1.931   4.780 -0.2100 -0.2955 -0.0176
 4668poe    c2321450   3.137   1.876   4.899 -0.1639 -0.4338 -0.0611
 4668poe    c2321451   3.253   1.796   4.962  0.4341  0.2124 -0.3160
 4668poe     o221452   3.267   1.673   4.894 -0.6389 -0.4969  0.6894
 4668poe    c2321453   3.328   1.572   4.970  0.6228 -0.0327  0.3181
 4668poe    c2321454   3.374   1.464   4.871  0.2231  0.1408 -0.0593
 4668poe     o221455   3.446   1.520   4.764 -0.0317 -0.2763 -0.4547
 4668poe    c3121456   3.487   1.403   4.698  0.3422 -0.3453 -0.1081
 4669poe    c3121457   6.666   6.519   0.341 -0.2005  0.2576  0.1194
 4669poe     o221458   6.641   6.380   0.343 -0.0071  0.2139 -0.2553
 4669poe    c2321459   6.505   6.344   0.355  0.0635  0.1179  0.3227
 4669poe    c2321460   6.492   6.200   0.406  0.3216 -0.1759 -0.4232
 4669poe     o221461   6.538   6.200   0.539 -0.2535 -0.3122 -0.2193
 4669poe    c2321462   6.530   6.075   0.604 -0.1337 -0.3748 -0.3248
 4669poe    c2321463   6.642   6.074   0.709  0.0150  0.7189 -0.4596
 4669poe     o221464   6.632   6.196   0.779  0.3655  0.3592  0.2271
 4669poe    c2321465   6.724   6.192   0.886  0.0659  0.0021  0.4716
 4669poe    c2321466   6.706   6.329   0.955 -0.1428  0.4711 -0.4919
 4669poe     o221467   6.712   6.433   0.860  0.4575  0.4965 -0.4321
 4669poe    c3121468   6.734   6.552   0.932 -0.0033  0.2094  0.1923
 4670poe    c3121469   3.254   7.031   2.617 -0.2252  0.1517  0.1263
 4670poe     o221470   3.379   6.966   2.622 -0.1579  0.2583 -0.1918
 4670poe    c2321471   3.403   6.921   2.490 -0.1152  0.2172 -0.1698
 4670poe    c2321472   3.527   6.830   2.493 -0.2991 -0.0262  0.0111
 4670poe     o221473   3.619   6.899   2.575  0.1866  0.3179 -0.8233
 4670poe    c2321474   3.749   6.843   2.574  0.2456  0.4576 -1.4119
 4670poe    c2321475   3.845   6.919   2.667  0.1025 -0.6920 -0.2960
 4670poe     o221476   3.801   6.933   2.800  0.6451  0.4496 -0.2261
 4670poe    c2321477   3.811   6.817   2.879 -0.9843  0.2528 -0.2814
 4670poe    c2321478   3.732   6.825   3.011  0.2393 -0.2272  0.4979
 4670poe     o221479   3.593   6.836   2.992  0.4505  0.2640 -0.8683
 4670poe    c3121480   3.541   6.707   3.010  0.4382  0.3892  0.0393
 4671poe    c3121481   6.637   7.263   5.965  0.3798  1.1812 -0.1782
 4671poe     o221482   6.525   7.291   5.884 -0.1551 -0.4016 -0.0173
 4671poe    c2321483   6.438   7.181   5.867  0.2368 -0.7842  0.4328
 4671poe    c2321484   6.304   7.223   5.804  0.6622  0.6775  0.4655
 4671poe     o221485   6.318   7.282   5.676  0.6221  0.0384  0.1627
 4671poe    c2321486   6.199   7.352   5.650  0.2096 -0.8394 -0.3399
 4671poe    c2321487   6.196   7.385   5.499  0.1604 -0.3603 -0.2368
 4671poe     o221488   6.289   7.489   5.483  0.1320 -0.2477  0.2824
 4671poe    c2321489   6.295   7.539   5.351  0.4978  0.2994  0.5051
 4671poe    c2321490   6.395   7.451   5.274 -0.4719  0.0255 -0.4544
 4671poe     o221491   6.352   7.322   5.237  0.3419 -0.1733 -0.7376
 4671poe    c3121492   6.293   7.299   5.111 -0.0458  0.3547 -0.6575
 4672poe    c3121493   7.416   4.971   4.257 -0.0312  1.0472 -0.0941
 4672poe     o221494   7.394   4.900   4.376 -0.2325  0.5048 -0.4496
 4672poe    c2321495   7.264   4.935   4.417 -0.5126 -0.5287 -0.4241
 4672poe    c2321496   7.236   4.903   4.565 -0.6794 -0.2626 -0.3989
 4672poe     o221497   7.299   4.970   4.672 -0.2303  0.2020 -0.9462
 4672poe    c2321498   7.308   5.110   4.670 -0.4332  0.2297 -0.2443
 4672poe    c2321499   7.393   5.173   4.782 -0.2755 -0.1021 -0.1763
 4672poe     o221500   7.322   5.148   4.902  0.1899 -0.6724 -0.0163
 4672poe    c2321501   7.380   5.210   5.014 -0.3227  0.3410 -0.3027
 4672poe    c2321502   7.293   5.192   5.140  0.7219 -0.0473  0.3752
 4672poe     o221503   7.205   5.297   5.174  0.1892 -0.1562 -0.6021
 4672poe    c3121504   7.110   5.267   5.274  0.1380  0.8008 -0.3532
 4673poe    c3121505   0.808   3.850   5.450 -0.3482 -0.3849 -0.3071
 4673poe     o221506   0.930   3.892   5.393 -0.1655 -0.3612  0.0963
 4673poe    c2321507   1.025   3.793   5.359  0.5042  0.1626  0.4227
 4673poe    c2321508   1.085   3.719   5.480  0.0938 -0.3253  0.3289
 4673poe     o221509   1.149   3.596   5.455 -0.0277 -0.2216 -0.5198
 4673poe    c2321510   1.181   3.527   5.574 -0.5887 -0.4265 -0.4830
 4673poe    c2321511   1.285   3.418   5.540 -0.0471  0.0105 -0.2379
 4673poe     o221512   1.400   3.476   5.482 -0.1827  0.5250 -0.0033
 4673poe    c2321513   1.458   3.395   5.382 -0.1553  0.0772  0.3677
 4673poe    c2321514   1.600   3.438   5.342 -0.3759  0.4345 -0.0529
 4673poe     o221515   1.689   3.407   5.447 -0.7403  0.1058  0.1611
 4673poe    c3121516   1.785   3.510   5.450  0.2361 -0.7907  0.1859
 4674poe    c3121517   0.770   5.116   4.646  1.0205 -0.8045  0.6315
 4674poe     o221518   0.707   5.016   4.570  0.6708 -0.0475 -0.0837
 4674poe    c2321519   0.728   5.066   4.440  0.4441 -0.0720 -0.1315
 4674poe    c2321520   0.734   4.953   4.335  0.3678 -0.1302 -0.0727
 4674poe     o221521   0.605   4.901   4.311  0.3855  0.1163 -0.7305
 4674poe    c2321522   0.596   4.853   4.179 -0.0472 -1.2043 -0.2374
 4674poe    c2321523   0.460   4.785   4.154 -0.6046 -0.1544 -0.1093
 4674poe     o221524   0.476   4.653   4.201  0.0835  0.0327  0.1883
 4674poe    c2321525   0.350   4.590   4.196  0.2850 -0.3739  0.2344
 4674poe    c2321526   0.329   4.511   4.326 -0.4563 -0.2538  0.1937
 4674poe     o221527   0.334   4.586   4.445  0.3754 -0.0858  0.0638
 4674poe    c3121528   0.328   4.494   4.552  0.8403  0.3434  0.4623
 4675poe    c3121529   4.565   0.746   3.627 -0.0035  0.7277  0.5045
 4675poe     o221530   4.483   0.698   3.731 -0.2884 -0.2402 -0.1484
 4675poe    c2321531   4.515   0.773   3.846  0.1192 -0.0355 -0.3942
 4675poe    c2321532   4.440   0.713   3.966  0.1084 -0.1790 -0.4732
 4675poe     o221533   4.442   0.573   3.979 -0.8288 -0.1586 -0.0121
 4675poe    c2321534   4.338   0.520   4.059 -0.9983 -0.0294 -0.1480
 4675poe    c2321535   4.257   0.406   3.995 -0.8050 -0.1144 -0.2429
 4675poe     o221536   4.334   0.306   3.931 -0.0287  0.1994  0.1905
 4675poe    c2321537   4.236   0.206   3.919  0.4871 -0.3589  0.6115
 4675poe    c2321538   4.306   0.086   3.852  0.2259 -0.2784  0.1926
 4675poe     o221539   4.403   0.138   3.764  0.2245 -0.3913  0.1243
 4675poe    c3121540   4.459   0.027   3.698  0.1040 -0.6189  0.4019
 4676poe    c3121541   2.676   2.661   3.629 -0.9382  0.3522  0.6709
 4676poe     o221542   2.721   2.740   3.521  0.0991 -0.5824  0.4048
 4676poe    c2321543   2.673   2.871   3.545  0.1746 -0.2721 -1.0695
 4676poe    c2321544   2.748   2.976   3.628 -1.0863 -0.1605 -0.0342
 4676poe     o221545   2.695   2.995   3.757 -0.7246  0.6616  0.0008
 4676poe    c2321546   2.789   3.076   3.824  0.4458 -0.4760 -0.2278
 4676poe    c2321547   2.754   3.116   3.969 -0.3594 -0.3229 -0.4608
 4676poe     o221548   2.659   3.219   3.986  0.1225  0.0819 -0.2115
 4676poe    c2321549   2.661   3.270   4.117 -0.3674  0.0331 -0.1818
 4676poe    c2321550   2.591   3.407   4.115  0.0285  0.2412 -0.0196
 4676poe     o221551   2.453   3.385   4.094  0.0020  0.6170 -0.2531
 4676poe    c3121552   2.383   3.506   4.074 -0.5736  0.3487  0.1121
 4677poe    c3121553   3.676   2.680   5.115 -0.1159  0.0696  0.1884
 4677poe     o221554   3.642   2.667   4.978  0.0767  0.3577  0.1122
 4677poe    c2321555   3.640   2.790   4.910 -0.1762 -0.0335 -0.5897
 4677poe    c2321556   3.648   2.779   4.756  0.3442 -0.2704 -0.5468
 4677poe     o221557   3.769   2.732   4.703  0.5061 -0.1978 -0.2454
 4677poe    c2321558   3.798   2.795   4.580  0.2235 -0.2816 -0.3559
 4677poe    c2321559   3.933   2.752   4.518  0.3002  0.3002 -0.5978
 4677poe     o221560   3.925   2.616   4.483 -0.0025  0.0163  0.5277
 4677poe    c2321561   3.980   2.547   4.593  0.1417 -0.1168  0.3736
 4677poe    c2321562   3.989   2.396   4.565  0.0168 -0.1191  0.3458
 4677poe     o221563   4.108   2.343   4.511  0.0563 -0.0025  0.3169
 4677poe    c3121564   4.096   2.214   4.454  0.2021  0.1391 -0.0384
 4678poe    c3121565   3.638   6.635   1.188 -0.1845 -0.1857 -0.0379
 4678poe     o221566   3.619   6.704   1.066  0.3901  0.2685  0.1273
 4678poe    c2321567   3.728   6.791   1.044  0.2655  0.2958 -0.4097
 4678poe    c2321568   3.720   6.867   0.910 -0.2948  0.1587 -0.4560
 4678poe     o221569   3.603   6.945   0.914 -0.6945 -0.4411 -0.1849
 4678poe    c2321570   3.612   7.054   0.825  0.0190 -0.6084 -0.3248
 4678poe    c2321571   3.679   7.176   0.891 -0.1880 -0.5831 -0.1612
 4678poe     o221572   3.604   7.272   0.962  0.3218 -0.1817 -0.1606
 4678poe    c2321573   3.580   7.232   1.095  0.7093 -0.2170 -0.1017
 4678poe    c2321574   3.435   7.184   1.117  0.5623  0.1712 -0.2214
 4678poe     o221575   3.329   7.274   1.096 -0.0514 -0.3296  0.6748
 4678poe    c3121576   3.217   7.203   1.049 -0.0211 -0.0125  0.1092
 4679poe    c3121577   6.584   4.560   3.022  0.3444 -0.5967  0.4142
 4679poe     o221578   6.472   4.646   3.013  0.7987 -0.0379  0.0538
 4679poe    c2321579   6.444   4.670   2.877  0.1458 -0.7799  0.0483
 4679poe    c2321580   6.308   4.730   2.836  0.2373 -0.1155  0.6801
 4679poe     o221581   6.207   4.652   2.896 -0.0331 -0.2015  0.1203
 4679poe    c2321582   6.170   4.689   3.027 -0.1002  0.3801 -0.0604
 4679poe    c2321583   6.052   4.599   3.068  0.2505 -0.0951 -0.0945
 4679poe     o221584   6.080   4.472   3.123 -0.2884 -0.0984  0.1766
 4679poe    c2321585   5.950   4.418   3.128 -0.4536  0.2291 -0.5130
 4679poe    c2321586   5.947   4.266   3.151 -0.0044  0.3183  0.1356
 4679poe     o221587   5.964   4.186   3.037 -0.1683  0.0254  0.3139
 4679poe    c3121588   6.064   4.090   3.063 -0.2135 -0.0811  0.1022
 4680poe    c3121589   3.573   4.695   0.408 -0.0819  0.4052  0.1838
 4680poe     o221590   3.535   4.691   0.272  0.1490 -0.0355  0.1302
 4680poe    c2321591   3.576   4.569   0.216  0.1128 -0.0045  0.0372
 4680poe    c2321592   3.464   4.512   0.127  0.5717 -0.6009 -0.1663
 4680poe     o221593   3.452   4.558  -0.006 -0.6276 -0.2189  0.0624
 4680poe    c2321594   3.417   4.457  -0.097  0.4371  0.1376 -0.7578
 4680poe    c2321595   3.395   4.500  -0.243  0.1506  0.3743 -0.6441
 4680poe     o221596   3.268   4.561  -0.258 -0.0498  0.0322 -0.3445
 4680poe    c2321597   3.211   4.550  -0.386 -0.3422 -0.1302 -0.2005
 4680poe    c2321598   3.063   4.512  -0.372 -0.3254 -0.2612 -0.3797
 4680poe     o221599   2.984   4.608  -0.306 -0.0858 -0.3103 -0.0224
 4680poe    c3121600   2.863   4.553  -0.257 -0.2853  0.1816  0.0438
 4681poe    c3121601   1.534   1.097   1.700  0.3868 -0.1202  0.0963
 4681poe     o221602   1.481   1.225   1.676 -0.4933 -0.4507  0.2672
 4681poe    c2321603   1.560   1.288   1.578 -0.6638 -0.1069  0.3477
 4681poe    c2321604   1.523   1.429   1.527 -0.1123 -0.1056 -0.0561
 4681poe     o221605   1.397   1.437   1.464 -0.1254  0.1585  0.0048
 4681poe    c2321606   1.378   1.498   1.338  0.4112 -0.0409 -0.1731
 4681poe    c2321607   1.234   1.500   1.285  0.2650 -0.4334  0.2024
 4681poe     o221608   1.150   1.570   1.374  0.5623  0.0258  0.1273
 4681poe    c2321609   1.014   1.555   1.337  0.4256  0.3604  0.4955
 4681poe    c2321610   0.923   1.580   1.459 -0.1312 -0.2171  0.2025
 4681poe     o221611   0.899   1.713   1.499  0.5407  0.0325 -0.2035
 4681poe    c3121612   0.821   1.791   1.411 -0.1644 -0.5004 -0.0579
 4682poe    c3121613   6.365   3.992   4.224  0.2898  0.7473  0.2970
 4682poe     o221614   6.505   3.997   4.233  0.4402 -0.9970 -0.6213
 4682poe    c2321615   6.559   3.961   4.358  0.0041  0.1678 -0.0768
 4682poe    c2321616   6.713   3.958   4.361 -0.0084 -0.3404  0.2381
 4682poe     o221617   6.763   3.832   4.322  0.2735 -0.1063 -0.1628
 4682poe    c2321618   6.782   3.826   4.182 -0.4226 -0.7120 -0.2367
 4682poe    c2321619   6.890   3.721   4.150  0.2674 -0.0680 -0.0501
 4682poe     o221620   6.846   3.589   4.174  0.3230 -0.0204  0.3298
 4682poe    c2321621   6.955   3.499   4.163 -0.0235 -0.3499 -0.5161
 4682poe    c2321622   6.939   3.354   4.213 -0.1181 -0.3588 -0.5713
 4682poe     o221623   6.922   3.365   4.353  0.6316 -0.4482 -0.4700
 4682poe    c3121624   6.857   3.251   4.405  0.6131 -0.2653 -0.0916
 4683poe    c3121625   7.112   3.088   6.968 -0.0337  0.3624  0.4526
 4683poe     o221626   7.094   3.228   6.968  0.0670  0.3777  0.0368
 4683poe    c2321627   7.173   3.278   7.074  0.3102  0.0702  0.0032
 4683poe    c2321628   7.096   3.401   7.125 -0.8168 -0.2805 -0.7942
 4683poe     o221629   7.157   3.520   7.078  0.2761 -0.5254 -0.0600
 4683poe    c2321630   7.065   3.626   7.093  0.5567 -0.3433  0.3551
 4683poe    c2321631   7.115   3.766   7.051 -0.2361 -0.2818 -0.3906
 4683poe     o221632   7.210   3.838   7.125 -0.0166 -0.2382 -0.7106
 4683poe    c2321633   7.198   3.973   7.085  0.3833 -0.0457 -0.2021
 4683poe    c2321634   7.243   4.060   7.203  0.1985 -0.3478  0.0920
 4683poe     o221635   7.383   4.048   7.216  0.1683 -0.9237 -0.0798
 4683poe    c3121636   7.442   4.153   7.290 -0.0115 -0.8480 -0.0413
 4684poe    c3121637   5.014   2.598   0.553  0.5455 -0.1684  0.3028
 4684poe     o221638   4.939   2.478   0.556  0.0571  0.1419  0.6596
 4684poe    c2321639   4.985   2.404   0.445  0.4774  0.0461  0.8970
 4684poe    c2321640   4.962   2.252   0.431  0.7394  0.0597  0.3247
 4684poe     o221641   5.046   2.192   0.527 -0.0921 -0.2852  0.8368
 4684poe    c2321642   5.049   2.053   0.503  0.5615 -0.0169 -0.7183
 4684poe    c2321643   4.938   1.964   0.562  0.4526  0.5332 -0.0846
 4684poe     o221644   4.960   1.951   0.700  0.4421 -0.0725 -0.1370
 4684poe    c2321645   4.871   1.853   0.750  0.4872  0.1906  0.4765
 4684poe    c2321646   4.867   1.842   0.903 -0.1667 -0.5287  0.4127
 4684poe     o221647   4.818   1.960   0.963  0.0071 -0.0171 -0.4362
 4684poe    c3121648   4.798   1.944   1.102  0.7728  0.4449 -0.2665
 4685poe    c3121649   3.592   4.874   4.528 -0.0925 -0.1815  0.3386
 4685poe     o221650   3.728   4.911   4.538 -0.2448  0.4946 -0.0776
 4685poe    c2321651   3.810   4.808   4.490 -0.8028  0.1107 -0.2142
 4685poe    c2321652   3.852   4.833   4.344 -0.3431  0.0256 -0.0987
 4685poe     o221653   3.943   4.939   4.327 -0.2161 -0.0916 -0.1465
 4685poe    c2321654   3.974   4.963   4.191  0.8631 -0.1063  0.0824
 4685poe    c2321655   4.030   5.106   4.200 -0.0627  0.2706 -0.0139
 4685poe     o221656   3.935   5.209   4.182 -0.3654 -0.0693 -0.3819
 4685poe    c2321657   3.993   5.337   4.173  0.3320 -0.3814 -0.3702
 4685poe    c2321658   3.878   5.439   4.165  0.4084 -0.3057 -0.5112
 4685poe     o221659   3.771   5.383   4.238  0.1540  0.6606 -0.1218
 4685poe    c3121660   3.637   5.416   4.211 -0.0919 -0.3290 -0.1590
 4686poe    c3121661   4.585   6.000   1.951 -0.1169 -0.2828 -0.4065
 4686poe     o221662   4.636   6.089   1.854  0.3843  0.1459  0.2425
 4686poe    c2321663   4.649   6.023   1.730 -0.6600  0.0417  0.1773
 4686poe    c2321664   4.662   6.114   1.607 -0.3580 -0.1622  0.0560
 4686poe     o221665   4.545   6.180   1.563  0.0042  0.6743  0.3307
 4686poe    c2321666   4.565   6.261   1.450  0.7382  0.3627  0.2319
 4686poe    c2321667   4.426   6.315   1.412  0.7592  0.0070 -0.3605
 4686poe     o221668   4.341   6.335   1.523  0.5591 -0.3272 -0.4494
 4686poe    c2321669   4.210   6.352   1.473  0.3994  0.0666  0.0941
 4686poe    c2321670   4.132   6.391   1.600  0.2070  0.5914 -0.1814
 4686poe     o221671   4.209   6.342   1.708 -0.2009  0.6203  0.1253
 4686poe    c3121672   4.120   6.361   1.815 -0.0134 -0.5115  0.5044
 4687poe    c3121673   2.332   3.951   5.000  0.0228  0.5191  0.4519
 4687poe     o221674   2.305   4.029   5.114 -0.5494  0.2904  0.4785
 4687poe    c2321675   2.340   3.959   5.232  0.1995 -0.0286  0.0754
 4687poe    c2321676   2.258   4.015   5.349  0.5056 -0.0820  0.3170
 4687poe     o221677   2.291   4.149   5.380  0.4716 -0.0125  0.0552
 4687poe    c2321678   2.392   4.172   5.476  0.4745  0.0426  0.0393
 4687poe    c2321679   2.439   4.318   5.475  0.2492  0.1146 -0.2893
 4687poe     o221680   2.467   4.361   5.343 -0.2409 -0.2943 -0.5295
 4687poe    c2321681   2.524   4.490   5.332 -0.9965  0.1132  0.1831
 4687poe    c2321682   2.676   4.486   5.359 -1.0558  0.6124  0.6011
 4687poe     o221683   2.720   4.460   5.490 -0.2558  0.1193  0.2414
 4687poe    c3121684   2.860   4.444   5.503 -0.2369  0.2625  0.2224
 4688poe    c3121685   1.343   4.044   3.855 -0.6258 -0.2109 -0.1673
 4688poe     o221686   1.270   3.963   3.766 -0.4140  0.1333 -0.6519
 4688poe    c2321687   1.145   3.936   3.825 -0.1069  0.0662 -0.0313
 4688poe    c2321688   1.071   3.831   3.740  0.3139  0.1451 -0.4951
 4688poe     o221689   1.123   3.700   3.752 -0.3726 -0.0451  0.4432
 4688poe    c2321690   1.027   3.621   3.687 -0.0466 -0.1711  0.1143
 4688poe    c2321691   1.071   3.476   3.658 -0.0836 -0.0211 -0.7216
 4688poe     o221692   1.178   3.474   3.566  0.3642 -0.1135 -0.2032
 4688poe    c2321693   1.282   3.380   3.588  0.1723 -0.2877 -0.0279
 4688poe    c2321694   1.414   3.415   3.516 -0.0544 -0.5392 -0.5742
 4688poe     o221695   1.495   3.526   3.547 -0.0828 -0.5472 -0.4732
 4688poe    c3121696   1.600   3.540   3.454  0.0011 -0.2158 -0.3329
 4689poe    c3121697   5.191   6.670   4.203 -0.0722 -0.3681 -0.5354
 4689poe     o221698   5.110   6.691   4.317  0.3278  0.0743 -0.3301
 4689poe    c2321699   5.185   6.660   4.433  0.1798 -0.0770 -0.2752
 4689poe    c2321700   5.080   6.642   4.544  0.6074  0.1666  0.1667
 4689poe     o221701   5.005   6.760   4.559 -0.0363 -0.2069 -0.0813
 4689poe    c2321702   4.896   6.748   4.647 -0.1070  0.1834 -0.1141
 4689poe    c2321703   4.811   6.876   4.640 -0.4591 -0.0415  0.0032
 4689poe     o221704   4.761   6.915   4.514 -0.4369 -0.1501 -0.0398
 4689poe    c2321705   4.677   7.026   4.541 -0.2647  0.0792 -0.4393
 4689poe    c2321706   4.594   7.061   4.416 -0.4377 -0.2803 -0.4282
 4689poe     o221707   4.489   6.970   4.395 -0.6609 -0.0652 -0.2596
 4689poe    c3121708   4.385   7.037   4.328 -0.4259  0.4210 -0.1398
 4690poe    c3121709   3.652   0.542   2.896  0.3359  0.1071  0.0673
 4690poe     o221710   3.749   0.638   2.931 -0.1441  0.7789 -0.4087
 4690poe    c2321711   3.759   0.731   2.826  0.0836  0.6955 -0.4625
 4690poe    c2321712   3.896   0.800   2.817  0.4518  0.1309  0.6819
 4690poe     o221713   4.020   0.734   2.832  0.3561 -0.1221  0.3725
 4690poe    c2321714   4.129   0.823   2.835  0.1873  0.1201 -0.3378
 4690poe    c2321715   4.264   0.769   2.786  0.3871  0.0578  0.2738
 4690poe     o221716   4.296   0.634   2.812  0.3596  0.0083  0.0510
 4690poe    c2321717   4.363   0.608   2.933  0.4168  0.1136  0.0419
 4690poe    c2321718   4.394   0.459   2.959 -0.4130 -0.0122  0.3163
 4690poe     o221719   4.273   0.389   2.980 -0.2581 -0.4507 -0.2460
 4690poe    c3121720   4.311   0.262   3.028  0.4167 -0.2192 -0.1517
 4691poe    c3121721   6.923   0.897   1.546 -0.2558 -0.2024 -0.0096
 4691poe     o221722   6.810   0.964   1.597 -0.4845 -0.4003 -0.2518
 4691poe    c2321723   6.726   0.873   1.664  0.1141 -0.5076  0.3691
 4691poe    c2321724   6.634   0.944   1.765  0.2840 -0.0164  0.1812
 4691poe     o221725   6.527   1.019   1.711  0.2857 -0.1440 -0.0018
 4691poe    c2321726   6.455   1.094   1.806 -0.3747 -0.3819 -0.3073
 4691poe    c2321727   6.397   1.218   1.734 -0.2257 -0.2029 -0.1220
 4691poe     o221728   6.340   1.189   1.609  0.0878 -0.1419 -0.2789
 4691poe    c2321729   6.280   1.293   1.535  0.6788  0.6537  0.3483
 4691poe    c2321730   6.290   1.248   1.388 -0.4862  0.3442  0.3536
 4691poe     o221731   6.418   1.193   1.364 -0.4995  0.4546  0.0187
 4691poe    c3121732   6.437   1.177   1.225  0.4990  0.1867  0.1801
 4692poe    c3121733   2.936   5.490   3.526  0.0837  0.9694 -0.4624
 4692poe     o221734   2.872   5.497   3.651 -0.2535 -0.1409 -0.5644
 4692poe    c2321735   2.977   5.465   3.740 -0.7023  0.2084  0.0998
 4692poe    c2321736   2.959   5.461   3.893  0.1494 -0.6431  0.1861
 4692poe     o221737   2.943   5.575   3.974  0.2786 -0.0532 -0.6058
 4692poe    c2321738   2.915   5.544   4.108 -0.3764 -0.0980 -0.7507
 4692poe    c2321739   2.913   5.684   4.173 -0.0595 -0.4001 -0.0803
 4692poe     o221740   2.782   5.730   4.196  0.0864 -0.1022  0.1727
 4692poe    c2321741   2.773   5.837   4.287 -0.6462 -0.0986  0.1020
 4692poe    c2321742   2.804   5.799   4.433 -0.4146 -0.3317 -0.0067
 4692poe     o221743   2.712   5.718   4.501 -0.8946  0.3628  0.1859
 4692poe    c3121744   2.727   5.579   4.483  0.0635  0.4772  0.0609
 4693poe    c3121745   2.878   5.891   4.779 -0.3729 -0.1101 -0.2329
 4693poe     o221746   3.019   5.882   4.790 -0.3750 -0.3275 -0.3817
 4693poe    c2321747   3.079   5.999   4.740  0.0023 -0.1311  0.5192
 4693poe    c2321748   3.219   6.007   4.803  0.1300 -0.1699  0.2421
 4693poe     o221749   3.240   6.016   4.942  0.3451 -0.2271  0.2145
 4693poe    c2321750   3.186   6.124   5.015  0.4698 -0.1503  0.1930
 4693poe    c2321751   3.264   6.151   5.144  0.0958 -0.1050  0.4122
 4693poe     o221752   3.271   6.046   5.238  0.0920 -0.2861  0.2078
 4693poe    c2321753   3.316   6.112   5.353  0.5758 -0.1355 -0.0631
 4693poe    c2321754   3.331   6.015   5.472  0.1210 -0.3519 -0.1765
 4693poe     o221755   3.204   5.964   5.503  0.0199  0.4150  0.7206
 4693poe    c3121756   3.213   5.844   5.576  0.2883 -0.2493 -0.3818
 4694poe    c3121757   1.423   4.710   6.644  0.5500 -0.4178 -0.5275
 4694poe     o221758   1.564   4.715   6.647  0.5426 -0.5634  0.8286
 4694poe    c2321759   1.605   4.618   6.553 -0.1464  0.2277 -0.3196
 4694poe    c2321760   1.758   4.615   6.572 -0.1576  0.1760 -0.2355
 4694poe     o221761   1.823   4.721   6.507 -0.6625  0.5043 -0.2128
 4694poe    c2321762   1.905   4.684   6.398  0.2234  0.0898  0.5731
 4694poe    c2321763   1.951   4.820   6.342 -0.8864  0.3645  0.3071
 4694poe     o221764   2.002   4.898   6.448 -0.1904  0.1249  0.1517
 4694poe    c2321765   2.071   5.013   6.405 -0.1662  0.1160  0.1667
 4694poe    c2321766   2.163   5.038   6.525  0.0211 -0.1366  0.0779
 4694poe     o221767   2.261   4.937   6.538  0.0987 -0.0688  0.0238
 4694poe    c3121768   2.314   4.974   6.664  0.4852 -0.2467 -0.0868
 4695poe    c3121769   5.089   7.396   2.712 -0.4720  0.2206 -0.1448
 4695poe     o221770   5.071   7.340   2.584  0.2519  0.7443 -0.4795
 4695poe    c2321771   4.934   7.345   2.550  0.1702 -0.5700 -0.3898
 4695poe    c2321772   4.920   7.422   2.417 -0.8396 -0.2938 -0.1329
 4695poe     o221773   5.001   7.364   2.317  0.0861 -0.0073  0.4379
 4695poe    c2321774   4.920   7.303   2.219  0.1197  0.0547  0.3708
 4695poe    c2321775   4.995   7.288   2.086 -0.4210 -0.3678  0.1118
 4695poe     o221776   5.110   7.217   2.125 -0.0119  0.3684  0.2405
 4695poe    c2321777   5.201   7.200   2.019  0.0218  0.4459  0.2557
 4695poe    c2321778   5.326   7.126   2.073 -0.2275 -0.2409 -0.1002
 4695poe     o221779   5.368   7.198   2.186 -0.3398 -0.5897  0.1643
 4695poe    c3121780   5.490   7.152   2.239 -0.5426 -0.8325  0.4237
 4696poe    c3121781   0.222   5.759   2.255  0.7764  0.1480  0.4678
 4696poe     o221782   0.238   5.738   2.117 -0.5661  0.4354  0.2516
 4696poe    c2321783   0.253   5.603   2.079 -0.4548  0.4838  0.1180
 4696poe    c2321784   0.236   5.593   1.927 -0.2313  0.2025  0.1094
 4696poe     o221785   0.304   5.703   1.871  0.4147 -0.5393 -0.5816
 4696poe    c2321786   0.328   5.669   1.736  0.0614 -0.1028 -0.7564
 4696poe    c2321787   0.296   5.776   1.630 -0.0926  0.8991  0.2817
 4696poe     o221788   0.396   5.871   1.603  0.0087  0.5610 -0.5438
 4696poe    c2321789   0.340   5.992   1.559 -0.0961  0.6455 -0.1798
 4696poe    c2321790   0.437   6.112   1.564 -0.0751  0.6304 -0.2359
 4696poe     o221791   0.535   6.127   1.464 -0.2580  0.5465 -0.4286
 4696poe    c3121792   0.653   6.190   1.509  0.0013  0.2210 -0.6438
 4697poe    c3121793   4.586   4.363   0.660 -0.1682  0.4797 -0.1546
 4697poe     o221794   4.497   4.466   0.622 -0.2405  0.5422  0.1792
 4697poe    c2321795   4.367   4.458   0.675 -0.3343  0.6263 -0.0392
 4697poe    c2321796   4.355   4.502   0.821  0.2618  0.4966  0.0497
 4697poe     o221797   4.360   4.641   0.845 -0.5006  0.6599 -0.7209
 4697poe    c2321798   4.477   4.710   0.806  0.2573 -0.0886  0.1918
 4697poe    c2321799   4.611   4.681   0.876  0.2683 -0.3809  0.0531
 4697poe     o221800   4.619   4.753   0.997 -0.2350  0.3153 -0.3181
 4697poe    c2321801   4.692   4.873   0.991  0.2727  0.0200 -0.1266
 4697poe    c2321802   4.682   4.938   1.131 -0.2654 -0.0408 -0.1363
 4697poe     o221803   4.745   5.061   1.155 -0.4707  0.0313  0.0318
 4697poe    c3121804   4.693   5.111   1.276  0.2194  0.6697  0.0733
 4698poe    c3121805   4.486   3.069   1.155  0.0510  0.7518  0.0224
 4698poe     o221806   4.384   3.157   1.115 -0.6840 -0.0736  0.0622
 4698poe    c2321807   4.431   3.287   1.141  0.1062 -0.4124  0.3438
 4698poe    c2321808   4.323   3.396   1.132  0.1075 -0.4184  0.2591
 4698poe     o221809   4.310   3.416   0.993  0.1343  0.2649  0.3513
 4698poe    c2321810   4.181   3.470   0.979 -0.0539 -0.2860 -0.0813
 4698poe    c2321811   4.139   3.488   0.831  0.5760 -0.0957 -0.2436
 4698poe     o221812   4.201   3.592   0.760  0.0995  0.2751 -0.1215
 4698poe    c2321813   4.137   3.637   0.643  0.0783  0.2870 -0.1052
 4698poe    c2321814   4.226   3.725   0.553  1.1987  0.1409  0.8318
 4698poe     o221815   4.339   3.669   0.489  0.3730 -0.0889 -0.4668
 4698poe    c3121816   4.353   3.739   0.368 -0.0589 -0.0524 -0.4999
 4699poe    c3121817   2.532   6.253   1.122 -0.1683 -0.2283  0.2793
 4699poe     o221818   2.587   6.123   1.117  0.6080  0.0958  0.2621
 4699poe    c2321819   2.589   6.067   0.987 -0.3436  0.2043  0.1955
 4699poe    c2321820   2.732   6.045   0.936 -0.3072 -0.1495  0.4464
 4699poe     o221821   2.802   5.940   0.999 -0.0467 -0.6471 -0.6305
 4699poe    c2321822   2.936   5.927   0.958  0.2079  0.0697 -0.0593
 4699poe    c2321823   3.027   5.870   1.068  0.6794  0.6428 -0.1510
 4699poe     o221824   3.006   5.935   1.191 -0.4701 -0.1123  0.0708
 4699poe    c2321825   3.097   5.882   1.285 -0.0959  0.5130  0.0707
 4699poe    c2321826   3.245   5.925   1.282 -0.0074  0.2129  0.0570
 4699poe     o221827   3.295   6.049   1.328  0.2691  0.0773  0.1231
 4699poe    c3121828   3.426   6.065   1.280  0.6500  0.3588  1.2419
 4700poe    c3121829   4.062   3.053   7.434 -0.4602  0.3906  0.2429
 4700poe     o221830   3.967   2.972   7.368 -0.0861 -0.3058  0.5467
 4700poe    c2321831   3.981   2.832   7.376 -0.0960 -0.3319  0.1417
 4700poe    c2321832   3.936   2.769   7.510  0.2284  0.0039  0.4105
 4700poe     o221833   3.801   2.797   7.535  0.0888 -0.4373  0.1608
 4700poe    c2321834   3.751   2.710   7.633  0.3319 -0.4281  0.2930
 4700poe    c2321835   3.603   2.746   7.658  0.2045 -0.2889 -0.6187
 4700poe     o221836   3.599   2.881   7.698 -0.0977 -0.5195  0.1556
 4700poe    c2321837   3.476   2.907   7.761  0.0054 -0.2824  0.2597
 4700poe    c2321838   3.362   2.946   7.665  0.2752  0.0315  0.0615
 4700poe     o221839   3.413   3.066   7.612  0.1740 -0.0140 -0.1384
 4700poe    c3121840   3.313   3.162   7.587  0.1297 -0.1103 -0.3308
 4701poe    c3121841   6.406   5.593   1.958 -1.1595 -0.5047 -0.4862
 4701poe     o221842   6.461   5.676   1.859 -0.0747  0.2153  0.6828
 4701poe    c2321843   6.494   5.806   1.902 -0.3053  0.4213  0.2469
 4701poe    c2321844   6.524   5.896   1.781  0.0706 -0.5424 -0.3833
 4701poe     o221845   6.632   5.849   1.703 -0.1402 -0.7139 -0.5748
 4701poe    c2321846   6.647   5.932   1.590  0.7143  0.4778  0.3964
 4701poe    c2321847   6.764   5.880   1.505  0.0267 -0.3025 -0.0763
 4701poe     o221848   6.759   5.739   1.500 -0.5632 -0.2838 -0.1077
 4701poe    c2321849   6.845   5.686   1.402 -0.4740 -0.1113 -0.1216
 4701poe    c2321850   6.900   5.550   1.448 -0.3614 -0.0790 -0.1589
 4701poe     o221851   7.012   5.560   1.532 -0.0780 -0.1839 -0.5217
 4701poe    c3121852   7.034   5.433   1.591  0.2111  0.6201  1.1805
 4702poe    c3121853   1.495   5.979   0.922  0.3230 -0.5958  0.3152
 4702poe     o221854   1.536   6.071   1.021  0.7235 -0.0637 -0.3402
 4702poe    c2321855   1.419   6.120   1.082  0.5701 -0.3603 -0.3916
 4702poe    c2321856   1.465   6.228   1.183 -0.1277 -0.2625 -0.1716
 4702poe     o221857   1.565   6.303   1.117  0.1396 -0.2007  0.3057
 4702poe    c2321858   1.632   6.392   1.204  0.0541 -0.2939  0.4688
 4702poe    c2321859   1.743   6.471   1.131  0.0599 -0.5251  0.2271
 4702poe     o221860   1.823   6.382   1.056 -0.7911 -0.5260 -0.7086
 4702poe    c2321861   1.904   6.452   0.965 -0.2800 -0.1036  0.0644
 4702poe    c2321862   1.991   6.357   0.882 -0.1531  0.5110 -0.5136
 4702poe     o221863   1.912   6.291   0.785 -0.1420 -0.2211 -0.0345
 4702poe    c3121864   1.974   6.176   0.733  0.3521 -0.0682  0.2057
 4703poe    c3121865   2.647   6.851   6.296 -0.1083  0.1870 -0.3066
 4703poe     o221866   2.542   6.939   6.328  0.2036  0.4576 -0.0098
 4703poe    c2321867   2.455   6.952   6.217 -0.0826 -0.0978  0.1484
 4703poe    c2321868   2.381   7.084   6.242  0.7254  0.4815 -0.4716
 4703poe     o221869   2.297   7.076   6.355  0.8811  0.1235 -0.3802
 4703poe    c2321870   2.259   7.206   6.395  1.2446 -0.1026  0.7317
 4703poe    c2321871   2.186   7.195   6.530 -0.3901 -0.4578 -0.1534
 4703poe     o221872   2.095   7.304   6.534  0.6042  0.3775  0.1607
 4703poe    c2321873   2.013   7.276   6.644  0.2254  0.7514 -0.0252
 4703poe    c2321874   1.876   7.347   6.646 -0.0600  0.2143 -0.4076
 4703poe     o221875   1.776   7.288   6.565 -0.2783 -0.0412  0.0456
 4703poe    c3121876   1.646   7.333   6.600 -0.3899 -0.3287  0.0015
 4704poe    c3121877   5.038   5.764   0.533 -0.0962  0.8476  0.0342
 4704poe     o221878   4.979   5.832   0.642 -0.2029  0.3043  0.3170
 4704poe    c2321879   5.017   5.967   0.657 -0.2229  0.3960 -0.4076
 4704poe    c2321880   5.028   6.023   0.800  0.0321  0.4307 -0.4405
 4704poe     o221881   4.906   6.055   0.864  0.0565 -0.3956  0.0247
 4704poe    c2321882   4.931   6.159   0.957 -0.0394 -0.1595 -0.2134
 4704poe    c2321883   4.832   6.192   1.070  0.3305  0.1249  0.0280
 4704poe     o221884   4.728   6.248   0.994  0.4096  0.3649  0.0941
 4704poe    c2321885   4.627   6.315   1.066  0.2042  0.0401  0.1134
 4704poe    c2321886   4.509   6.328   0.969  0.2520 -0.2797  0.0113
 4704poe     o221887   4.548   6.387   0.847  0.4606 -0.7790 -0.1645
 4704poe    c3121888   4.438   6.416   0.764  0.7452  0.4490 -0.1305
 4705poe    c3121889   3.177   1.303   0.492 -0.3481  0.1739  0.0594
 4705poe     o221890   3.209   1.253   0.620 -0.6118  0.1904  0.1318
 4705poe    c2321891   3.110   1.287   0.715 -1.3144 -0.2312 -0.4348
 4705poe    c2321892   3.122   1.193   0.837  0.9078  0.0966 -0.3478
 4705poe     o221893   3.128   1.058   0.797 -0.4050 -0.1997  0.3678
 4705poe    c2321894   3.160   0.960   0.893  0.0396  0.2221  0.6548
 4705poe    c2321895   3.142   0.821   0.830  0.5586  0.6822 -0.5321
 4705poe     o221896   3.167   0.816   0.691  0.9459  0.0925 -0.4485
 4705poe    c2321897   3.099   0.703   0.642  0.4981  0.0326  0.2857
 4705poe    c2321898   3.115   0.685   0.490  0.0183  0.1480  0.2177
 4705poe     o221899   3.044   0.782   0.417  0.3883 -0.0088 -0.3646
 4705poe    c3121900   3.016   0.756   0.281  0.5490 -0.3763 -0.3288
 4706poe    c3121901   6.203   5.472   1.427  0.0937 -0.1871 -0.7627
 4706poe     o221902   6.199   5.350   1.497  0.6866  0.0880 -0.2457
 4706poe    c2321903   6.156   5.248   1.410  0.9112 -0.2077 -0.0140
 4706poe    c2321904   6.173   5.105   1.463 -0.2484 -0.4822 -0.3478
 4706poe     o221905   6.301   5.077   1.516 -0.3505 -0.3142 -0.0108
 4706poe    c2321906   6.303   4.951   1.579  0.1102 -0.2095  0.1857
 4706poe    c2321907   6.444   4.919   1.633 -0.0612 -0.7091  0.3441
 4706poe     o221908   6.480   5.011   1.733 -0.0749 -0.3428  0.0112
 4706poe    c2321909   6.606   4.984   1.790  0.2334  0.3207 -0.3391
 4706poe    c2321910   6.594   5.087   1.904 -0.3559  0.4146 -0.4807
 4706poe     o221911   6.630   5.216   1.859 -0.3786  0.6518  0.1713
 4706poe    c3121912   6.630   5.300   1.972 -0.3345  0.2373  0.4824
 4707poe    c3121913   5.338   2.429   6.794  0.1098 -0.3147 -1.0203
 4707poe     o221914   5.475   2.448   6.767  0.2411  0.3922  0.0791
 4707poe    c2321915   5.506   2.579   6.809 -0.0420  0.2012  0.9072
 4707poe    c2321916   5.648   2.623   6.770  0.0280 -0.4635  0.3923
 4707poe     o221917   5.749   2.574   6.855  0.9831 -0.1561 -0.5364
 4707poe    c2321918   5.749   2.617   6.989 -0.3489 -0.3055 -0.4677
 4707poe    c2321919   5.866   2.543   7.058 -0.3238  0.1720  0.0125
 4707poe     o221920   5.866   2.413   7.004  0.6088  0.2928 -0.2951
 4707poe    c2321921   5.942   2.320   7.077  0.0340  0.1009  0.0640
 4707poe    c2321922   5.957   2.190   6.995  0.0205  0.0122  0.2006
 4707poe     o221923   5.956   2.220   6.857  0.2168  0.9232  0.3913
 4707poe    c3121924   6.038   2.138   6.777 -0.4576  0.1011  0.5286
 4708poe    c3121925   0.296   0.970   3.004  0.2455  0.3757  0.7684
 4708poe     o221926   0.204   0.880   3.062  0.1581 -0.1870 -0.2192
 4708poe    c2321927   0.272   0.809   3.163  0.2111 -0.1904 -0.2569
 4708poe    c2321928   0.184   0.719   3.252  0.2428  0.0200 -0.0125
 4708poe     o221929   0.098   0.793   3.335 -0.0270 -0.2382 -0.0637
 4708poe    c2321930   0.067   0.711   3.446 -0.2583  0.1199  0.1426
 4708poe    c2321931   0.154   0.752   3.566  0.3642 -0.4818 -0.0886
 4708poe     o221932   0.121   0.879   3.619 -0.2832 -0.5110 -0.4184
 4708poe    c2321933   0.076   0.860   3.751 -0.1300 -0.0808 -0.3019
 4708poe    c2321934   0.086   0.992   3.829  0.1133 -0.2834  0.0087
 4708poe     o221935   0.041   0.993   3.963 -0.4156 -0.0576 -0.1692
 4708poe    c3121936   0.001   1.117   4.017 -0.0499 -0.3901  0.8967
 4709poe    c3121937   6.583   2.494   1.211  0.2057  0.5884 -0.2198
 4709poe     o221938   6.547   2.619   1.159  0.4059  0.6646 -0.1762
 4709poe    c2321939   6.438   2.601   1.071  0.3134 -0.1245  0.0991
 4709poe    c2321940   6.463   2.567   0.923  0.0689 -0.8911  0.2288
 4709poe     o221941   6.526   2.675   0.858 -0.1543 -0.8694  0.0477
 4709poe    c2321942   6.472   2.724   0.737  0.0908  0.0870  0.3144
 4709poe    c2321943   6.353   2.821   0.741 -0.1551 -0.1791 -0.3368
 4709poe     o221944   6.237   2.776   0.806 -0.1106  0.2824  0.0672
 4709poe    c2321945   6.131   2.851   0.751 -0.5688 -0.4402 -0.0536
 4709poe    c2321946   6.009   2.763   0.719 -1.2502  0.4346  0.0870
 4709poe     o221947   5.975   2.735   0.585  0.0528 -0.1409 -0.1435
 4709poe    c3121948   5.893   2.836   0.531  0.3779  0.1933 -0.0189
 4710poe    c3121949   5.978   5.794   1.669  0.6509 -0.0271 -0.0119
 4710poe     o221950   5.972   5.930   1.632 -0.2058 -0.1661 -0.3992
 4710poe    c2321951   6.104   5.976   1.612 -0.1917  0.0443  0.1718
 4710poe    c2321952   6.130   6.128   1.618  0.3406 -0.0536  0.4300
 4710poe     o221953   6.115   6.180   1.748  0.0916  0.1147  0.3359
 4710poe    c2321954   6.183   6.303   1.758 -0.5950  0.5618 -0.4290
 4710poe    c2321955   6.216   6.329   1.906  0.3066  0.1767 -0.5602
 4710poe     o221956   6.098   6.343   1.982  0.1233  0.5406 -0.9116
 4710poe    c2321957   6.125   6.421   2.097 -0.2099  0.1555 -0.5733
 4710poe    c2321958   6.002   6.422   2.190  0.3059  0.8023  0.1055
 4710poe     o221959   5.900   6.511   2.149  0.1020  0.4466 -0.1597
 4710poe    c3121960   5.788   6.486   2.232  0.5191  0.8442  0.5345
 4711poe    c3121961   3.688   2.480   4.350 -0.3375 -0.1396 -0.1191
 4711poe     o221962   3.605   2.411   4.258  0.5382 -0.3300 -0.7761
 4711poe    c2321963   3.511   2.500   4.202  0.1246 -0.2787 -0.0163
 4711poe    c2321964   3.414   2.406   4.129 -0.0287 -0.3582  0.2892
 4711poe     o221965   3.309   2.393   4.223 -0.3695 -0.6889 -0.1347
 4711poe    c2321966   3.201   2.318   4.172 -0.4499 -0.8772  0.3116
 4711poe    c2321967   3.116   2.393   4.069  0.8846 -0.1320 -0.2730
 4711poe     o221968   3.038   2.303   3.994 -0.3975  0.5591  0.2056
 4711poe    c2321969   2.997   2.349   3.867  0.4195  0.0825 -0.2344
 4711poe    c2321970   2.883   2.276   3.793  0.1846  0.5676 -0.3556
 4711poe     o221971   2.765   2.292   3.867  0.1288  0.0273 -0.3227
 4711poe    c3121972   2.649   2.289   3.786 -0.1583 -0.1292  0.0881
 4712poe    c3121973   3.719   4.712   2.583  0.0753  0.2658 -0.0223
 4712poe     o221974   3.728   4.576   2.619 -0.3941  0.2383  0.0052
 4712poe    c2321975   3.863   4.535   2.617 -0.4927 -0.1134  0.4729
 4712poe    c2321976   3.868   4.381   2.626 -0.3249 -0.1288  0.1358
 4712poe     o221977   3.854   4.347   2.762  0.1729  0.0137  0.2278
 4712poe    c2321978   3.840   4.207   2.772  0.0007  0.0492  0.4892
 4712poe    c2321979   3.896   4.167   2.910  0.9517  0.3783  0.1990
 4712poe     o221980   3.821   4.230   3.011  0.1491  0.1311 -0.2374
 4712poe    c2321981   3.896   4.209   3.129  0.1712  0.4754 -0.1885
 4712poe    c2321982   3.827   4.234   3.264 -0.0221  0.6352 -0.3162
 4712poe     o221983   3.705   4.163   3.272  0.3764 -0.0206 -0.0193
 4712poe    c3121984   3.621   4.206   3.377  0.1637 -0.3787 -0.0399
 4713poe    c3121985   0.228   1.083   4.868  0.4234  0.0203 -0.4627
 4713poe     o221986   0.222   0.970   4.953 -0.1528  0.1321 -0.3483
 4713poe    c2321987   0.285   0.864   4.885  0.2091  0.3353 -0.3383
 4713poe    c2321988   0.286   0.747   4.985 -0.6023  0.6087 -0.0027
 4713poe     o221989   0.163   0.692   5.026 -0.2598 -0.1710 -0.0040
 4713poe    c2321990   0.191   0.609   5.137  0.2907  0.4737  0.3459
 4713poe    c2321991   0.057   0.592   5.210  0.0744  0.2222 -0.1026
 4713poe     o221992   0.013   0.719   5.255 -0.6315 -0.0779  0.0612
 4713poe    c2321993   0.068   0.769   5.375 -0.1114  0.4981 -0.4118
 4713poe    c2321994   0.021   0.700   5.505 -0.0583 -0.0054 -0.6558
 4713poe     o221995  -0.116   0.705   5.537  0.0235  0.0652 -0.3164
 4713poe    c3121996  -0.147   0.710   5.674 -0.0026 -0.9076 -0.2807
 4714poe    c3121997   2.846   2.030   0.147  0.8998  0.8270  0.7406
 4714poe     o221998   2.828   1.914   0.225 -0.0926  0.6030  0.1819
 4714poe    c2321999   2.844   1.937   0.363 -0.2463  0.3425  0.2438
 4714poe    c2322000   2.877   1.814   0.450 -0.3713  0.3929  0.3615
 4714poe     o222001   2.774   1.720   0.430 -0.0919  0.1195  0.2051
 4714poe    c2322002   2.696   1.704   0.546 -0.2540 -0.2880  0.0414
 4714poe    c2322003   2.588   1.597   0.522  0.0520 -0.5323 -0.2518
 4714poe     o222004   2.498   1.641   0.423  0.2236 -0.3689 -0.3337
 4714poe    c2322005   2.419   1.530   0.388 -0.2996  0.0299 -0.4227
 4714poe    c2322006   2.377   1.525   0.239  0.4329 -0.3241 -0.6187
 4714poe     o222007   2.482   1.513   0.145  0.3565  0.0519 -0.7536
 4714poe    c3122008   2.439   1.406   0.065 -0.3567 -0.2760  0.0526
 4715poe    c3122009   5.719   7.427   0.083 -0.4283  0.1570  0.2095
 4715poe     o222010   5.697   7.541   0.004  0.0576 -0.1467 -0.3705
 4715poe    c2322011   5.817   7.595  -0.045  0.0978 -0.1572 -0.2820
 4715poe    c2322012   5.781   7.695  -0.157  0.6802  0.4924  0.0978
 4715poe     o222013   5.716   7.817  -0.130 -0.5764 -0.0397 -0.4545
 4715poe    c2322014   5.735   7.899  -0.243 -0.0792 -0.2737 -0.5437
 4715poe    c2322015   5.682   8.044  -0.241 -0.1454 -0.3031  0.1844
 4715poe     o222016   5.554   8.026  -0.297 -0.3575  0.1079  0.5404
 4715poe    c2322017   5.449   7.992  -0.209 -0.0709 -0.0624  0.8171
 4715poe    c2322018   5.332   7.948  -0.300  0.2215 -0.2257  0.5178
 4715poe     o222019   5.343   7.830  -0.376 -0.0814  0.2635 -0.2999
 4715poe    c3122020   5.418   7.839  -0.494  0.2987  0.5172 -0.0424
 4716poe    c3122021   5.682   0.618   2.744  0.2289 -0.1514  0.2297
 4716poe     o222022   5.819   0.594   2.725  0.2154 -0.1113  0.0811
 4716poe    c2322023   5.867   0.472   2.774  0.2674 -0.0313  0.2285
 4716poe    c2322024   5.981   0.482   2.878  0.2460  0.1583  0.2335
 4716poe     o222025   6.105   0.523   2.825  0.1245  0.0369 -0.1490
 4716poe    c2322026   6.189   0.513   2.937 -0.0146 -0.1676 -0.0618
 4716poe    c2322027   6.336   0.534   2.893  0.1374 -0.5048  0.2759
 4716poe     o222028   6.384   0.413   2.840 -0.2320 -0.3297 -0.4667
 4716poe    c2322029   6.523   0.424   2.824 -0.2428  0.1954 -0.2264
 4716poe    c2322030   6.596   0.290   2.801  0.5309  0.5909 -0.1252
 4716poe     o222031   6.597   0.208   2.916  0.0656  0.4191 -0.2403
 4716poe    c3122032   6.613   0.074   2.877 -0.3706  0.3650 -0.2428
 4717poe    c3122033   0.169   1.788   3.520  0.0912 -0.1285 -0.0504
 4717poe     o222034   0.179   1.892   3.614  0.4248 -0.2771  0.0817
 4717poe    c2322035   0.154   2.026   3.577  0.0148 -0.3303  0.1534
 4717poe    c2322036   0.009   2.073   3.559  0.0332 -0.2372  0.2507
 4717poe     o222037  -0.067   2.008   3.459 -0.1382  0.0183  0.2123
 4717poe    c2322038  -0.154   2.108   3.413 -0.0554  0.1674  0.3786
 4717poe    c2322039  -0.263   2.051   3.321  0.5231 -0.1290 -0.1302
 4717poe     o222040  -0.224   2.017   3.190  0.2387  0.5137 -0.3910
 4717poe    c2322041  -0.336   1.966   3.121 -0.0054  0.0936  0.2962
 4717poe    c2322042  -0.362   2.063   3.004  0.1772  0.1386  0.2928
 4717poe     o222043  -0.275   2.057   2.893 -0.3217  0.8713 -0.1452
 4717poe    c3122044  -0.159   2.133   2.918  0.5782 -0.7664  0.8386
 4718poe    c3122045   6.538   6.401   3.628  0.4595 -0.2914  0.1607
 4718poe     o222046   6.642   6.454   3.707  0.5842  0.1278 -0.2797
 4718poe    c2322047   6.735   6.532   3.636  0.7239 -0.0559 -0.2978
 4718poe    c2322048   6.823   6.601   3.742  0.0417  0.0217  0.2221
 4718poe     o222049   6.931   6.525   3.790  0.1122  0.1061  0.1974
 4718poe    c2322050   6.994   6.573   3.907  0.2812  0.6601 -0.1167
 4718poe    c2322051   7.135   6.511   3.921  0.0729  0.3490  0.6508
 4718poe     o222052   7.123   6.372   3.941  0.3964  0.2165 -0.0573
 4718poe    c2322053   7.240   6.294   3.952  0.4966  0.4461  0.5295
 4718poe    c2322054   7.199   6.147   3.971  0.2830  0.4407  0.0464
 4718poe     o222055   7.111   6.120   4.078 -0.1197 -0.4285 -0.4888
 4718poe    c3122056   7.102   5.983   4.108 -0.7558 -0.1042  0.8950
 4719poe    c3122057   1.755   6.911   5.216 -0.4005  0.4009  0.2551
 4719poe     o222058   1.632   6.855   5.176 -0.2812  0.3552 -0.0535
 4719poe    c2322059   1.550   6.945   5.105  0.0269  0.3803 -0.3772
 4719poe    c2322060   1.423   6.996   5.175 -0.0362 -0.6124  0.2408
 4719poe     o222061   1.318   6.904   5.153 -0.1742 -0.5140  0.4798
 4719poe    c2322062   1.217   6.938   5.245 -0.3184 -0.0886  0.1682
 4719poe    c2322063   1.086   6.869   5.201 -0.2574  0.0655 -0.2620
 4719poe     o222064   1.076   6.742   5.263 -0.5529  0.2479  0.0681
 4719poe    c2322065   0.948   6.686   5.249 -0.2920 -0.4443  0.4138
 4719poe    c2322066   0.918   6.583   5.138 -0.0879  0.2114 -0.2578
 4719poe     o222067   0.940   6.629   5.007 -0.1119  0.0247 -0.3275
 4719poe    c3122068   0.945   6.520   4.917 -0.2398 -0.2266 -0.0325
 4720poe    c3122069   5.750   0.022   0.853 -0.3061  0.3154 -0.0496
 4720poe     o222070   5.811  -0.002   0.728 -0.2157 -0.3006  0.1123
 4720poe    c2322071   5.707   0.008   0.632  0.0769  0.1296 -0.1609
 4720poe    c2322072   5.762  -0.053   0.502  0.2154 -0.4019  0.1424
 4720poe     o222073   5.895  -0.007   0.495 -0.2103  0.8646  0.0466
 4720poe    c2322074   5.969  -0.025   0.376 -0.1258 -0.3671  0.2778
 4720poe    c2322075   5.939   0.083   0.271  0.5817  0.0888  0.5421
 4720poe     o222076   5.987   0.212   0.301  0.6011  0.0462  0.6936
 4720poe    c2322077   5.883   0.306   0.287  0.4426 -0.3271 -0.8477
 4720poe    c2322078   5.927   0.453   0.286 -0.0669 -0.1692 -0.5182
 4720poe     o222079   5.967   0.502   0.412 -0.2792 -0.4026 -0.3604
 4720poe    c3122080   6.050   0.616   0.415 -0.2409 -0.4236 -0.6238
 4721poe    c3122081   5.276   3.886   5.112  0.2195  1.0170  0.1119
 4721poe     o222082   5.137   3.891   5.139  0.1341 -0.0265 -0.0881
 4721poe    c2322083   5.066   3.813   5.046  1.0208 -1.2582  0.2358
 4721poe    c2322084   4.967   3.732   5.131  0.2049 -0.2006  0.3164
 4721poe     o222085   4.900   3.839   5.195 -0.0292  0.1710 -0.5406
 4721poe    c2322086   4.778   3.802   5.256  0.3715  0.0773  0.2016
 4721poe    c2322087   4.689   3.925   5.279  0.4511  0.2042 -0.1743
 4721poe     o222088   4.753   4.011   5.371 -0.0800  0.3563  0.0526
 4721poe    c2322089   4.690   4.133   5.404  0.1266  0.3804  0.3597
 4721poe    c2322090   4.779   4.222   5.493  0.2443 -0.2359  0.8583
 4721poe     o222091   4.906   4.266   5.452 -0.1746  0.4675  0.3059
 4721poe    c3122092   4.941   4.379   5.527  0.1295  0.4713  0.1621
 4722poe    c3122093   7.430   2.032   6.555  0.2437 -0.0457  0.1967
 4722poe     o222094   7.336   1.973   6.642 -0.0066  0.0114 -0.0362
 4722poe    c2322095   7.391   1.977   6.771  0.0558 -0.1310 -0.0578
 4722poe    c2322096   7.296   2.023   6.883 -0.0092  0.0167 -0.1735
 4722poe     o222097   7.207   1.934   6.947  0.0912  0.5754  0.7618
 4722poe    c2322098   7.102   2.010   7.002 -0.2986  0.5259  0.0961
 4722poe    c2322099   6.965   1.940   7.003 -0.4320  0.7855  0.3796
 4722poe     o222100   6.960   1.835   7.097  0.3249 -0.0271 -0.4615
 4722poe    c2322101   6.842   1.762   7.071  0.0317  0.3298 -0.1336
 4722poe    c2322102   6.806   1.699   7.207 -0.3593 -0.4851 -0.6079
 4722poe     o222103   6.903   1.611   7.260 -0.1595  0.2599  0.2859
 4722poe    c3122104   6.872   1.478   7.227 -0.0556  0.2867  0.0816
 4723poe    c3122105   2.270   1.421   2.375  0.6351  1.0645 -0.2895
 4723poe     o222106   2.182   1.400   2.484  0.3887  0.1975 -0.6478
 4723poe    c2322107   2.059   1.456   2.445  0.0161 -0.4953 -0.4917
 4723poe    c2322108   1.969   1.458   2.570  0.1671 -0.2033 -0.3856
 4723poe     o222109   2.013   1.552   2.666  0.2958 -0.5438 -0.1069
 4723poe    c2322110   1.980   1.529   2.801  0.1261  0.5430  0.0446
 4723poe    c2322111   2.101   1.571   2.886  0.1649  0.9136 -0.1935
 4723poe     o222112   2.208   1.482   2.864 -0.3045  0.3337 -0.1333
 4723poe    c2322113   2.314   1.494   2.956 -0.3483  0.6158 -0.1185
 4723poe    c2322114   2.434   1.461   2.866  0.0319 -0.2264  0.6893
 4723poe     o222115   2.458   1.324   2.842  0.4353  0.0676 -0.6771
 4723poe    c3122116   2.597   1.301   2.847  0.5751  1.0595  0.4324
 4724poe    c3122117   3.426   4.588   3.371 -0.1685  0.3226  0.1988
 4724poe     o222118   3.300   4.529   3.348  0.0510 -0.0077 -0.1500
 4724poe    c2322119   3.309   4.401   3.290 -0.3499 -0.1713  0.1523
 4724poe    c2322120   3.176   4.336   3.246 -0.3664 -0.1323  0.1449
 4724poe     o222121   3.112   4.395   3.135 -0.1702 -0.8560 -0.3621
 4724poe    c2322122   2.972   4.389   3.142 -0.2090 -0.0953 -0.3131
 4724poe    c2322123   2.893   4.404   3.011 -0.7556  0.1513  0.0399
 4724poe     o222124   2.927   4.311   2.910 -0.5241  0.5004 -0.2050
 4724poe    c2322125   2.805   4.275   2.848 -0.1576  0.3768 -0.8679
 4724poe    c2322126   2.822   4.167   2.739  0.0523  0.1706 -0.6325
 4724poe     o222127   2.918   4.196   2.640  0.6677  0.3571  0.0079
 4724poe    c3122128   2.932   4.091   2.547  0.0305  0.1020  0.1923
 4725poe    c3122129   6.352   1.109   7.044 -0.1844  0.0371  0.2115
 4725poe     o222130   6.299   1.024   6.945  0.6548 -0.0986 -0.1332
 4725poe    c2322131   6.159   1.032   6.929  0.5959 -0.2071  0.3217
 4725poe    c2322132   6.125   1.067   6.783 -0.0329  0.5127  0.6327
 4725poe     o222133   6.180   1.192   6.749 -0.5137  0.6316  0.2723
 4725poe    c2322134   6.066   1.275   6.736 -0.6881  0.3414 -0.0450
 4725poe    c2322135   6.104   1.405   6.663 -0.2601 -0.0217 -0.4872
 4725poe     o222136   6.128   1.396   6.525  0.0011 -0.4485 -0.4142
 4725poe    c2322137   6.014   1.422   6.446 -0.1092 -0.4065 -0.2404
 4725poe    c2322138   6.049   1.456   6.300 -0.1843 -0.6871 -0.3228
 4725poe     o222139   6.078   1.343   6.221 -0.1691 -0.8314 -0.1134
 4725poe    c3122140   6.115   1.376   6.089 -1.1065  0.2539 -0.1198
 4726poe    c3122141   0.656   4.151   3.126  0.0032  0.2652  0.0889
 4726poe     o222142   0.734   4.082   3.031  0.0323  0.3012  0.0863
 4726poe    c2322143   0.723   4.147   2.906 -0.1552  0.1011 -0.0008
 4726poe    c2322144   0.852   4.138   2.822  0.3041 -0.9126  0.7904
 4726poe     o222145   0.957   4.215   2.877  0.0547  0.2705 -0.3445
 4726poe    c2322146   1.058   4.226   2.780  0.4261 -0.3295 -0.0314
 4726poe    c2322147   1.163   4.331   2.825  0.4784 -0.4305  0.0812
 4726poe     o222148   1.255   4.302   2.927 -0.0511  0.1835  0.7376
 4726poe    c2322149   1.358   4.398   2.930 -0.0342  0.1922  0.0079
 4726poe    c2322150   1.449   4.417   3.053 -0.1738  0.5170  0.0643
 4726poe     o222151   1.372   4.468   3.159 -0.6615  0.2069 -0.1371
 4726poe    c3122152   1.420   4.436   3.287 -0.1588  0.7053 -0.1941
 4727poe    c3122153   4.027   1.964   1.102 -0.3962 -0.1188  0.3479
 4727poe     o222154   3.908   1.930   1.035 -0.1708 -0.0587 -0.0820
 4727poe    c2322155   3.810   2.024   1.072 -0.3761 -0.2544 -0.1227
 4727poe    c2322156   3.753   2.105   0.954  0.3082 -0.1989 -0.4220
 4727poe     o222157   3.640   2.180   0.991  0.3266 -0.3422 -0.0642
 4727poe    c2322158   3.527   2.098   1.007 -0.2156  0.4266  0.1363
 4727poe    c2322159   3.388   2.153   1.045 -0.6163 -0.3948 -0.0959
 4727poe     o222160   3.356   2.218   1.166  0.2917 -0.0875 -0.0076
 4727poe    c2322161   3.234   2.288   1.157 -0.0006 -0.5933 -0.0261
 4727poe    c2322162   3.151   2.308   1.285 -0.0188  0.3186 -0.1795
 4727poe     o222163   3.169   2.412   1.379  0.0973  0.0576  0.0895
 4727poe    c3122164   3.295   2.439   1.435  0.2000 -0.0449 -0.0909
 4728poe    c3122165   6.542   1.031   2.896 -0.5099  0.0453 -0.0881
 4728poe     o222166   6.561   1.067   2.761 -0.0601 -0.6344 -0.2149
 4728poe    c2322167   6.678   1.142   2.741 -0.1869 -0.4817 -0.3863
 4728poe    c2322168   6.685   1.163   2.588 -0.0344  0.1148 -0.3013
 4728poe     o222169   6.591   1.259   2.545 -0.0946  0.0873 -0.2310
 4728poe    c2322170   6.571   1.239   2.407  0.1689  0.0847 -0.2696
 4728poe    c2322171   6.546   1.369   2.328 -0.5136  0.1485  0.0428
 4728poe     o222172   6.636   1.475   2.349  0.1163 -0.2027 -0.8097
 4728poe    c2322173   6.642   1.537   2.476  0.1084 -1.2573 -0.2762
 4728poe    c2322174   6.778   1.608   2.484 -0.4386 -0.2349  0.2063
 4728poe     o222175   6.799   1.732   2.420 -0.1499  0.0932  0.9316
 4728poe    c3122176   6.927   1.787   2.443 -0.1084  0.2673  0.3010
 4729poe    c3122177   0.209   1.125   7.246 -0.1995  0.0425 -0.3623
 4729poe     o222178   0.225   1.186   7.119  0.0306 -0.3623 -0.5292
 4729poe    c2322179   0.105   1.228   7.058  0.1348  0.2920 -0.2911
 4729poe    c2322180   0.060   1.103   6.981  0.9808 -0.2847  0.1289
 4729poe     o222181   0.129   1.083   6.859  0.5162 -0.3243 -0.1329
 4729poe    c2322182   0.052   0.982   6.798 -0.1702 -0.1615  0.4451
 4729poe    c2322183   0.104   0.951   6.656  0.1264  0.4375  0.4197
 4729poe     o222184   0.078   1.062   6.572 -0.1284 -0.0017 -0.0868
 4729poe    c2322185   0.133   1.029   6.446 -0.5127  0.4859 -0.3865
 4729poe    c2322186   0.126   1.147   6.348 -0.6051  0.4834 -0.3828
 4729poe     o222187   0.215   1.247   6.393 -0.0876 -0.0842 -0.1265
 4729poe    c3122188   0.222   1.363   6.313  0.1534 -0.0374 -0.0396
 4730poe    c3122189   6.365   0.084   0.812 -0.8996  0.2442 -0.8190
 4730poe     o222190   6.349  -0.047   0.860  0.5791  0.2426 -0.2550
 4730poe    c2322191   6.352  -0.057   1.001  0.0665 -0.7191 -0.3058
 4730poe    c2322192   6.259  -0.166   1.058  0.0968 -0.4655  0.2294
 4730poe     o222193   6.304  -0.291   1.012  0.1171 -0.3266 -0.1295
 4730poe    c2322194   6.254  -0.397   1.091 -0.1943 -0.0663  0.0235
 4730poe    c2322195   6.300  -0.536   1.043 -0.2230  0.0502 -0.3475
 4730poe     o222196   6.440  -0.540   1.036 -0.2516  0.0727 -1.0609
 4730poe    c2322197   6.484  -0.648   0.956  0.0489 -0.5895 -0.0263
 4730poe    c2322198   6.632  -0.682   0.979  0.2895  0.2188 -0.3237
 4730poe     o222199   6.714  -0.572   0.948  0.1851  0.2482 -0.4976
 4730poe    c3122200   6.847  -0.606   0.982  0.1586  0.4344 -0.2076
 4731poe    c3122201   2.839   3.183   5.578  0.1344 -0.8617  0.0005
 4731poe     o222202   2.901   3.298   5.630  0.0199 -0.6343 -0.3620
 4731poe    c2322203   3.005   3.331   5.541  0.1478 -0.2524 -0.0774
 4731poe    c2322204   3.080   3.457   5.589 -0.9993  0.4184 -0.0192
 4731poe     o222205   3.100   3.462   5.728  0.3427  1.0182 -0.2171
 4731poe    c2322206   3.212   3.542   5.757  1.1768 -0.0847 -0.3580
 4731poe    c2322207   3.211   3.563   5.909  0.3827 -0.1765 -0.3468
 4731poe     o222208   3.242   3.449   5.987 -0.0932  0.1874  0.3851
 4731poe    c2322209   3.270   3.496   6.117  1.0337 -0.1638  0.2809
 4731poe    c2322210   3.261   3.383   6.220  0.1663 -0.2512  0.1171
 4731poe     o222211   3.354   3.277   6.208 -0.2018 -0.4866 -0.7674
 4731poe    c3122212   3.284   3.164   6.255 -0.0420  0.0742  0.9169
 4732poe    c3122213   0.171   3.185   4.176  0.1809  0.3713 -0.0174
 4732poe     o222214   0.214   3.158   4.307  0.1176 -0.0549 -0.0830
 4732poe    c2322215   0.189   3.030   4.361  0.4083 -0.1395 -0.1497
 4732poe    c2322216   0.276   2.921   4.295 -0.1142 -0.5115 -0.2325
 4732poe     o222217   0.409   2.914   4.340 -0.2509 -0.0498  0.2539
 4732poe    c2322218   0.477   2.827   4.252 -0.4638  0.0726 -0.0328
 4732poe    c2322219   0.631   2.822   4.257 -0.4767 -0.7053 -0.2812
 4732poe     o222220   0.678   2.940   4.196 -0.2501 -0.7072 -0.1099
 4732poe    c2322221   0.815   2.949   4.227 -0.2539  0.3348 -0.3477
 4732poe    c2322222   0.891   3.033   4.123  0.0750  0.2623 -0.1673
 4732poe     o222223   0.868   2.978   3.995 -0.9043  0.0510  0.0943
 4732poe    c3122224   0.925   3.073   3.908  0.4294 -0.0282  0.8511
 4733poe    c3122225   5.878   5.213   5.574  0.2663  0.3324  0.2216
 4733poe     o222226   5.871   5.087   5.636 -0.1462  0.1690 -0.1453
 4733poe    c2322227   5.916   4.984   5.551 -0.5312 -0.1275  0.0066
 4733poe    c2322228   5.950   4.850   5.617  0.0090 -0.1915 -0.4004
 4733poe     o222229   5.832   4.781   5.651 -0.1976  0.4622  0.2262
 4733poe    c2322230   5.848   4.657   5.717  0.4154  0.3342 -0.1608
 4733poe    c2322231   5.721   4.609   5.787  0.5574  0.1155 -0.0526
 4733poe     o222232   5.690   4.696   5.894 -0.6300 -0.1568 -0.1549
 4733poe    c2322233   5.602   4.634   5.985  0.0709 -0.3490  0.4030
 4733poe    c2322234   5.537   4.731   6.085 -0.3825 -0.0357 -0.1878
 4733poe     o222235   5.439   4.802   6.013 -0.3144  0.2030 -0.0452
 4733poe    c3122236   5.408   4.929   6.067 -0.5367  0.3214 -0.4436
 4734poe    c3122237   4.853   2.581   2.130  0.5667  0.0199 -0.4559
 4734poe     o222238   4.963   2.493   2.142 -0.1388 -0.7951  0.2798
 4734poe    c2322239   4.929   2.385   2.226 -0.3347 -0.3614  0.7600
 4734poe    c2322240   5.064   2.352   2.291  0.4691  0.5896 -0.3760
 4734poe     o222241   5.155   2.340   2.184  0.3404  0.0352 -0.4276
 4734poe    c2322242   5.275   2.281   2.229  0.1453  0.0731  0.1477
 4734poe    c2322243   5.349   2.239   2.101  0.6818  0.1298  0.4346
 4734poe     o222244   5.353   2.346   2.009 -0.6419 -0.0561  0.1431
 4734poe    c2322245   5.402   2.290   1.889 -0.4190  0.1339  0.1455
 4734poe    c2322246   5.436   2.401   1.788 -0.3676  0.2889  0.3331
 4734poe     o222247   5.321   2.463   1.733 -0.3504 -0.5684 -0.6889
 4734poe    c3122248   5.358   2.545   1.625  0.5105 -0.0398 -0.0099
 4735poe    c3122249   2.616   5.849   7.189  0.7757 -0.3215  0.4823
 4735poe     o222250   2.531   5.845   7.301  0.4496 -1.1365  0.2122
 4735poe    c2322251   2.576   5.938   7.396 -0.2223  0.0308 -0.5945
 4735poe    c2322252   2.446   5.980   7.468 -0.0464 -0.3766 -0.0322
 4735poe     o222253   2.354   5.875   7.484 -0.8400  0.2398 -0.4512
 4735poe    c2322254   2.272   5.871   7.599  0.7007 -0.3431  0.6665
 4735poe    c2322255   2.195   5.739   7.614  0.3854 -0.3396 -0.7665
 4735poe     o222256   2.292   5.647   7.659  0.1693 -0.1681  0.0716
 4735poe    c2322257   2.240   5.517   7.645 -0.4270  0.0063  0.6372
 4735poe    c2322258   2.340   5.402   7.663 -0.4785 -0.0884  0.3329
 4735poe     o222259   2.416   5.384   7.546  0.2564  0.3398  0.7377
 4735poe    c3122260   2.507   5.276   7.553 -0.6141 -0.4406  0.1879
 4736poe    c3122261   5.323   3.755   0.983  0.3321 -0.4946 -0.0937
 4736poe     o222262   5.194   3.705   0.958  0.1823 -0.4149  0.5069
 4736poe    c2322263   5.120   3.726   1.076 -0.6010 -0.0406 -0.0397
 4736poe    c2322264   4.973   3.679   1.068 -0.4941 -0.3905  0.0224
 4736poe     o222265   4.893   3.774   1.001 -0.4401  0.5778  1.2893
 4736poe    c2322266   4.764   3.729   0.967 -0.0001 -0.3183  0.7740
 4736poe    c2322267   4.685   3.839   0.893  0.5440 -0.4296  0.0157
 4736poe     o222268   4.717   3.850   0.756 -0.1887 -0.5285 -0.1676
 4736poe    c2322269   4.605   3.896   0.684  0.1802  0.8552  0.1080
 4736poe    c2322270   4.618   3.920   0.533  0.6446  0.2679  0.0532
 4736poe     o222271   4.666   3.810   0.458  0.7196  0.3195  0.0253
 4736poe    c3122272   4.700   3.873   0.337 -0.3395  0.0958 -0.3998
 4737poe    c3122273   4.646   1.817   1.467 -0.1428  0.3029  0.3692
 4737poe     o222274   4.768   1.878   1.503 -0.0539  0.4395 -0.1446
 4737poe    c2322275   4.753   1.940   1.629  0.0021 -0.8314  0.5079
 4737poe    c2322276   4.874   2.035   1.647 -0.1786 -0.5032  0.0254
 4737poe     o222277   4.993   1.968   1.614  0.0149  0.0347 -0.3637
 4737poe    c2322278   5.104   2.043   1.659 -0.2457  0.2182 -0.0203
 4737poe    c2322279   5.209   2.092   1.557 -0.2470 -0.0097 -0.1320
 4737poe     o222280   5.293   2.000   1.491  0.7504  0.5807  0.2988
 4737poe    c2322281   5.425   1.994   1.541  0.7571 -0.0172  0.2243
 4737poe    c2322282   5.436   1.914   1.672  0.1955  0.1232  0.3582
 4737poe     o222283   5.400   1.986   1.788  0.0228  0.2897  0.2019
 4737poe    c3122284   5.442   1.922   1.906 -0.3759  0.2414  0.3222
 4738poe    c3122285   3.162   0.546   6.987  0.9126  0.3787  0.1288
 4738poe     o222286   3.025   0.577   6.969  0.6560 -0.8183 -0.0901
 4738poe    c2322287   2.989   0.524   6.843  0.3102 -0.4199 -0.1611
 4738poe    c2322288   2.836   0.512   6.826  0.1875  0.3058  0.3665
 4738poe     o222289   2.781   0.641   6.827 -0.4515  0.0385 -0.0204
 4738poe    c2322290   2.662   0.646   6.751 -0.4335 -0.8985 -0.1120
 4738poe    c2322291   2.591   0.782   6.760  0.2901 -0.5105 -0.2292
 4738poe     o222292   2.642   0.908   6.723  0.0780 -0.4179 -0.2059
 4738poe    c2322293   2.606   0.998   6.826  0.8217 -0.3225 -0.0248
 4738poe    c2322294   2.694   1.125   6.822  0.0528  0.2337  0.5241
 4738poe     o222295   2.832   1.108   6.842  0.1087 -0.0606 -0.0886
 4738poe    c3122296   2.918   1.050   6.746 -0.5017 -0.4664 -0.4007
 4739poe    c3122297   1.261   5.841   5.944 -0.1553  0.9036  0.0142
 4739poe     o222298   1.327   5.844   6.069 -0.2532 -0.6470  0.1281
 4739poe    c2322299   1.462   5.879   6.048 -0.2832 -0.5563  0.0857
 4739poe    c2322300   1.535   5.754   6.100  0.1931 -0.1997  0.2948
 4739poe     o222301   1.508   5.711   6.232 -0.0472 -0.1544  0.2612
 4739poe    c2322302   1.576   5.589   6.250 -0.3201 -0.3539 -0.0519
 4739poe    c2322303   1.568   5.543   6.397  0.6993 -0.7265 -0.1050
 4739poe     o222304   1.436   5.530   6.444  0.5624  0.4081 -0.1621
 4739poe    c2322305   1.446   5.482   6.576  0.4218  0.1887 -0.2318
 4739poe    c2322306   1.308   5.453   6.639  0.5943 -0.4873 -0.1597
 4739poe     o222307   1.247   5.345   6.572 -0.0234 -0.3590  0.1950
 4739poe    c3122308   1.139   5.278   6.635  0.1499 -0.8192  0.0103
 4740poe    c3122309   4.685   2.304   6.804  0.1871 -0.2266  0.5498
 4740poe     o222310   4.585   2.205   6.801 -0.1299  0.1047  0.0950
 4740poe    c2322311   4.533   2.204   6.932 -0.3325  0.7574  0.0216
 4740poe    c2322312   4.397   2.135   6.958  0.0640 -0.1059 -0.1533
 4740poe     o222313   4.311   2.202   6.869  0.0704  0.0103 -0.0727
 4740poe    c2322314   4.183   2.148   6.892  0.0750  0.0476  0.0402
 4740poe    c2322315   4.087   2.167   6.773 -0.1417 -0.6507  0.1015
 4740poe     o222316   4.146   2.163   6.645  0.0739  0.3855  0.1643
 4740poe    c2322317   4.051   2.144   6.543  0.1107  0.7667  0.0542
 4740poe    c2322318   4.135   2.143   6.415  0.0326  0.2054  0.0046
 4740poe     o222319   4.266   2.089   6.418 -0.1620 -0.2539  0.3367
 4740poe    c3122320   4.334   2.108   6.296  0.4399 -0.4694  0.6358
 4741poe    c3122321   0.307   4.206   2.041  0.7798  0.0300  0.0043
 4741poe     o222322   0.180   4.149   2.063  0.7272  0.0287 -0.2947
 4741poe    c2322323   0.068   4.212   2.004  0.4294 -0.1088  0.1181
 4741poe    c2322324   0.027   4.352   2.054  0.1715 -0.0425 -0.2825
 4741poe     o222325  -0.027   4.361   2.184  0.4048 -0.3929 -0.1587
 4741poe    c2322326   0.073   4.381   2.281  0.1936  0.0949 -0.0394
 4741poe    c2322327   0.027   4.394   2.428 -0.5657  0.7177 -0.3251
 4741poe     o222328  -0.034   4.273   2.468  0.2566  0.5420  0.4188
 4741poe    c2322329  -0.020   4.247   2.606  0.3994 -1.4534  0.0520
 4741poe    c2322330   0.108   4.191   2.671  1.0120  0.1209  0.2430
 4741poe     o222331   0.138   4.062   2.623 -0.5996 -0.1810  0.0136
 4741poe    c3122332   0.260   4.015   2.674 -0.3157  0.1837 -0.3304
 4742poe    c3122333   7.368   7.242   7.271  0.1560  0.4611 -0.5438
 4742poe     o222334   7.249   7.254   7.196 -0.2832 -0.2448  0.0224
 4742poe    c2322335   7.141   7.280   7.283  0.0659 -0.2965  0.4759
 4742poe    c2322336   7.006   7.276   7.210  0.4763  0.0769 -0.3293
 4742poe     o222337   6.990   7.142   7.169  0.6541  0.2833 -1.0806
 4742poe    c2322338   6.909   7.131   7.055 -0.0227  0.0075 -0.5790
 4742poe    c2322339   6.944   7.008   6.969  0.0663  0.0082 -0.5423
 4742poe     o222340   7.075   6.998   6.917  0.2927  0.3786 -0.0572
 4742poe    c2322341   7.165   6.934   7.004  0.2852  0.6710  0.1675
 4742poe    c2322342   7.300   7.008   7.006  0.5779  0.1568 -0.1659
 4742poe     o222343   7.359   7.008   6.878  0.4429 -0.2705 -0.2286
 4742poe    c3122344   7.477   7.083   6.895  0.3163 -0.2020  0.3492
 4743poe    c3122345   4.990   1.009   0.922 -0.2729 -0.1607  0.3126
 4743poe     o222346   5.046   0.894   0.863  0.3994  0.2666  0.1001
 4743poe    c2322347   5.186   0.887   0.875  0.5177  0.7814 -0.9033
 4743poe    c2322348   5.251   0.757   0.822 -0.5677 -0.2310  0.1967
 4743poe     o222349   5.183   0.734   0.701 -0.2369 -0.4274  0.0476
 4743poe    c2322350   5.167   0.597   0.669 -0.0207 -0.3616 -0.3431
 4743poe    c2322351   5.111   0.581   0.526  0.9831  0.3640 -0.8271
 4743poe     o222352   4.987   0.647   0.521  0.4945 -0.4538  0.0827
 4743poe    c2322353   4.909   0.589   0.419 -0.0443  0.3947  0.0045
 4743poe    c2322354   4.775   0.666   0.411 -0.3418 -0.1673 -0.5005
 4743poe     o222355   4.690   0.626   0.516 -0.1449 -0.8320 -0.5904
 4743poe    c3122356   4.552   0.645   0.493 -0.2102  0.9732  1.0298
 4744poe    c3122357   6.568   5.390   3.666  0.1708  0.7694 -0.3382
 4744poe     o222358   6.438   5.444   3.673  0.0541  0.4436  0.0154
 4744poe    c2322359   6.403   5.480   3.805 -0.0363  0.6175 -0.0558
 4744poe    c2322360   6.250   5.478   3.828 -0.0829 -0.2064 -0.3971
 4744poe     o222361   6.195   5.351   3.801 -1.1932  0.1670  0.0759
 4744poe    c2322362   6.078   5.353   3.724 -1.0007  0.3022 -0.2131
 4744poe    c2322363   6.088   5.364   3.570  0.5348 -0.2380 -0.1652
 4744poe     o222364   6.146   5.487   3.532  0.1248 -0.0150 -0.0688
 4744poe    c2322365   6.170   5.482   3.393 -0.2792 -0.1113 -0.1383
 4744poe    c2322366   6.223   5.618   3.346  0.4389 -0.1754  0.4588
 4744poe     o222367   6.354   5.650   3.387  0.3115  0.5681  0.3100
 4744poe    c3122368   6.349   5.734   3.500  0.2724 -0.0492  0.7764
 4745poe    c3122369   3.730   0.490   2.249  0.1826 -0.7001 -0.0319
 4745poe     o222370   3.633   0.418   2.322 -0.1921 -0.3527 -0.1759
 4745poe    c2322371   3.513   0.403   2.251  0.0581  0.0304 -0.6881
 4745poe    c2322372   3.438   0.271   2.279 -0.2051  0.3435  0.1275
 4745poe     o222373   3.338   0.232   2.188 -0.0016  0.2415 -0.0552
 4745poe    c2322374   3.326   0.092   2.182  0.3558  0.2136 -0.1114
 4745poe    c2322375   3.180   0.061   2.143  0.3340  0.4300 -0.2020
 4745poe     o222376   3.091   0.029   2.247 -0.0146  0.7158 -0.4118
 4745poe    c2322377   3.064   0.132   2.339 -0.0441  0.2454  0.1068
 4745poe    c2322378   3.011   0.067   2.468 -0.5433 -0.2071 -0.3208
 4745poe     o222379   2.888  -0.002   2.465 -1.0117  0.6023  0.0559
 4745poe    c3122380   2.859  -0.071   2.584 -0.0056  0.2761  0.1194
 4746poe    c3122381   1.593   6.193   0.478  0.1293 -0.4297 -0.5190
 4746poe     o222382   1.619   6.196   0.339  0.1068  0.1909 -0.5147
 4746poe    c2322383   1.519   6.121   0.274 -0.2489  0.2982 -0.0974
 4746poe    c2322384   1.470   6.167   0.135 -0.3365  0.2743 -0.0746
 4746poe     o222385   1.377   6.271   0.151  0.0903  0.6549 -0.0519
 4746poe    c2322386   1.259   6.245   0.078  0.2365 -0.6418  0.1505
 4746poe    c2322387   1.172   6.367   0.112  0.3246 -0.5431  0.0237
 4746poe     o222388   1.218   6.489   0.059  0.0580 -0.4742 -0.0545
 4746poe    c2322389   1.125   6.584   0.107  0.3696  0.1137 -0.5965
 4746poe    c2322390   1.148   6.725   0.051  0.2303  0.3823  0.0142
 4746poe     o222391   1.279   6.767   0.081  0.2223  0.1816  0.3235
 4746poe    c3122392   1.289   6.905   0.055 -0.2133  0.3045  0.7891
 4747poe    c3122393   7.430   5.452   7.558  0.0490  0.5217 -0.4409
 4747poe     o222394   7.439   5.428   7.419  0.2453  0.1371 -0.3633
 4747poe    c2322395   7.344   5.328   7.389  0.1871  0.0428  0.1292
 4747poe    c2322396   7.375   5.275   7.248 -0.0345  0.3606 -0.0411
 4747poe     o222397   7.411   5.393   7.181  0.1885  0.1041 -0.3749
 4747poe    c2322398   7.455   5.374   7.048  0.2621  0.1268 -0.3537
 4747poe    c2322399   7.455   5.500   6.960  0.0325  0.3301 -0.0640
 4747poe     o222400   7.536   5.583   7.040 -0.3091 -0.1210  0.7587
 4747poe    c2322401   7.532   5.711   6.981  0.3743 -0.4529 -0.0259
 4747poe    c2322402   7.551   5.836   7.070 -0.0033 -0.2398 -0.2407
 4747poe     o222403   7.470   5.851   7.184 -0.1629  0.3054 -0.4255
 4747poe    c3122404   7.505   5.974   7.245 -0.0697  0.0417  0.0591
 4748poe    c3122405   3.250   3.218   3.009  0.3832 -0.2403  0.1599
 4748poe     o222406   3.376   3.280   3.000  0.3364 -0.2065 -0.2642
 4748poe    c2322407   3.484   3.222   2.930  0.5112  0.4809 -0.5669
 4748poe    c2322408   3.488   3.236   2.777  0.3074  0.0843 -0.6080
 4748poe     o222409   3.400   3.156   2.700 -0.7877  0.4170  0.2703
 4748poe    c2322410   3.424   3.189   2.565  0.7257 -0.0657  0.4039
 4748poe    c2322411   3.302   3.141   2.484  0.4755 -0.1108  0.8034
 4748poe     o222412   3.287   3.005   2.452 -0.2524  0.1546 -0.0221
 4748poe    c2322413   3.150   2.973   2.440 -0.2676 -0.0999  0.8001
 4748poe    c2322414   3.142   2.849   2.350 -0.4684 -0.2855  1.0726
 4748poe     o222415   3.182   2.732   2.418 -0.1260 -0.5892  0.3611
 4748poe    c3122416   3.198   2.628   2.324  0.0182 -0.4841  0.2696
 4749poe    c3122417   6.728   6.932   0.104  0.3897  0.1651 -0.6110
 4749poe     o222418   6.803   6.961   0.220 -0.3113 -0.5472  0.0317
 4749poe    c2322419   6.941   6.943   0.201 -0.1671  0.0930  0.4385
 4749poe    c2322420   7.007   7.066   0.265  0.2850  0.3882 -0.5765
 4749poe     o222421   7.026   7.153   0.156 -0.5134  0.0326 -1.0082
 4749poe    c2322422   7.077   7.282   0.186 -0.2874 -0.2997  0.0823
 4749poe    c2322423   7.051   7.373   0.064  0.2577 -0.1307  0.0915
 4749poe     o222424   6.918   7.397   0.025  0.0607  0.2344  0.9674
 4749poe    c2322425   6.936   7.479  -0.088 -0.0985 -0.2948  0.5522
 4749poe    c2322426   6.798   7.527  -0.137 -0.0342 -0.8493 -0.1903
 4749poe     o222427   6.736   7.624  -0.055  0.9034 -0.2136 -0.2122
 4749poe    c3122428   6.803   7.744  -0.026  0.3237 -0.0218  0.3467
 4750poe    c3122429   2.409   0.335   1.012  0.4057 -0.0435 -0.2391
 4750poe     o222430   2.456   0.382   1.136 -0.5476 -0.6029  0.3492
 4750poe    c2322431   2.423   0.517   1.156 -0.0267 -0.4404  0.1400
 4750poe    c2322432   2.430   0.549   1.306 -0.5487  0.0838  0.0588
 4750poe     o222433   2.557   0.523   1.361 -0.5429  0.6294  0.3133
 4750poe    c2322434   2.537   0.489   1.496 -0.2529  0.0062  0.2014
 4750poe    c2322435   2.662   0.498   1.586 -0.1206  0.1823 -0.0002
 4750poe     o222436   2.698   0.634   1.596  0.4095  0.0579 -0.2129
 4750poe    c2322437   2.714   0.663   1.733  0.5335 -0.4367 -0.1204
 4750poe    c2322438   2.797   0.789   1.764  0.1044 -0.1518 -0.1156
 4750poe     o222439   2.740   0.906   1.711  0.0158 -0.0767  0.1415
 4750poe    c3122440   2.816   1.016   1.758  0.0984  0.0361 -0.2537
 4751poe    c3122441   6.122   3.791   0.794 -0.5435 -0.3250  1.0748
 4751poe     o222442   6.007   3.804   0.714  0.0424 -0.4462  0.2070
 4751poe    c2322443   5.898   3.880   0.761  0.4253  0.1084  0.2140
 4751poe    c2322444   5.885   4.026   0.714  0.2700  0.2769  0.7648
 4751poe     o222445   5.821   4.121   0.796 -0.2337  0.2898  0.3672
 4751poe    c2322446   5.828   4.247   0.734 -0.1052 -0.0529 -0.3164
 4751poe    c2322447   5.721   4.283   0.628 -0.0528 -0.2857 -0.4500
 4751poe     o222448   5.584   4.271   0.658  0.0375 -0.3433 -0.0513
 4751poe    c2322449   5.530   4.383   0.726  0.4467 -0.2009  0.0407
 4751poe    c2322450   5.392   4.353   0.787  0.5804  0.4981  0.6959
 4751poe     o222451   5.383   4.226   0.849 -0.2391  0.3233  0.2249
 4751poe    c3122452   5.277   4.233   0.942 -0.3960  0.5448  0.0313
 4752poe    c3122453   4.150   6.251   5.523  0.7588 -0.3376  0.3938
 4752poe     o222454   4.109   6.322   5.408  0.9183 -0.1826  0.4326
 4752poe    c2322455   3.988   6.278   5.350  0.7220  0.5493  0.2829
 4752poe    c2322456   3.865   6.344   5.413  0.3031  0.1985 -0.1607
 4752poe     o222457   3.842   6.482   5.392 -0.5800  0.1490  0.4162
 4752poe    c2322458   3.806   6.521   5.261 -0.3420 -0.1021  0.2759
 4752poe    c2322459   3.661   6.480   5.230 -0.2008  0.0357 -0.5714
 4752poe     o222460   3.570   6.558   5.304  0.2697 -0.2110  0.2692
 4752poe    c2322461   3.535   6.513   5.434  0.3121  0.0055  0.3556
 4752poe    c2322462   3.415   6.580   5.502  0.0099 -0.1641 -0.0066
 4752poe     o222463   3.447   6.705   5.559 -0.4302 -0.1080  0.1177
 4752poe    c3122464   3.343   6.713   5.654 -0.2625 -0.2111  0.3099
 4753poe    c3122465   0.243   6.135   7.161  0.0992 -0.1675 -0.1763
 4753poe     o222466   0.248   6.139   7.301 -0.2293 -1.0574 -0.1330
 4753poe    c2322467   0.325   6.033   7.352  1.3313  0.0594 -0.0879
 4753poe    c2322468   0.339   6.031   7.505  0.4129  0.2354  0.0032
 4753poe     o222469   0.211   6.016   7.563  0.5529 -0.1009  0.2268
 4753poe    c2322470   0.177   5.880   7.578  0.3955 -0.0735  0.1131
 4753poe    c2322471   0.029   5.863   7.619  0.4901  0.2585  0.6083
 4753poe     o222472  -0.013   5.917   7.742 -0.3717 -0.0490  0.4558
 4753poe    c2322473  -0.151   5.900   7.762 -0.3499 -0.3643  0.3445
 4753poe    c2322474  -0.224   5.928   7.895 -0.2317  0.1686  0.2967
 4753poe     o222475  -0.222   6.065   7.928  0.7942  0.1067  0.4976
 4753poe    c3122476  -0.266   6.097   8.058 -0.5101 -0.9850  0.3437
 4754poe    c3122477   4.240   1.518   6.176  0.0385  0.4544  0.7461
 4754poe     o222478   4.106   1.534   6.217 -0.2383  0.6991 -0.2178
 4754poe    c2322479   4.068   1.440   6.314  0.4354  0.1760 -0.4502
 4754poe    c2322480   3.993   1.315   6.263  0.3319 -0.1182  0.3975
 4754poe     o222481   4.082   1.230   6.195 -0.5317 -0.3333 -0.4803
 4754poe    c2322482   4.024   1.107   6.157 -0.3285 -0.7756  0.6363
 4754poe    c2322483   4.119   0.986   6.174  0.2233 -0.4493 -0.0807
 4754poe     o222484   4.216   0.982   6.072 -0.2321  0.0720 -0.5463
 4754poe    c2322485   4.280   0.856   6.069 -0.3097  0.0367 -0.7082
 4754poe    c2322486   4.407   0.854   5.981  0.0204  0.2811 -0.2457
 4754poe     o222487   4.512   0.906   6.059 -0.2050  0.7192 -0.2324
 4754poe    c3122488   4.640   0.900   6.000 -0.1014 -0.3106  0.0921
 4755poe    c3122489   4.332   0.319   0.688  0.1223 -0.3743 -0.5490
 4755poe     o222490   4.345   0.271   0.556  0.5905 -0.0695 -0.6166
 4755poe    c2322491   4.312   0.372   0.464  0.1733  0.5684  0.2251
 4755poe    c2322492   4.252   0.306   0.339 -0.2744  0.4481  0.4971
 4755poe     o222493   4.116   0.274   0.359 -0.0869 -0.2994  0.6030
 4755poe    c2322494   4.058   0.238   0.235  0.3745  0.1841  0.2401
 4755poe    c2322495   3.912   0.195   0.257  0.4498 -0.1222  0.1450
 4755poe     o222496   3.834   0.302   0.306  0.7786  0.0725  0.2465
 4755poe    c2322497   3.702   0.267   0.341  0.7985 -0.0290  0.2199
 4755poe    c2322498   3.613   0.387   0.377  0.1324 -0.4432 -0.0302
 4755poe     o222499   3.681   0.469   0.470 -0.3451  0.6589 -0.6342
 4755poe    c3122500   3.598   0.480   0.584  0.2598 -0.4485 -0.0740
 4756poe    c3122501   2.783   0.536   2.137 -0.0182 -0.1061  0.3956
 4756poe     o222502   2.843   0.438   2.055  0.5274 -0.1086  0.7905
 4756poe    c2322503   2.955   0.506   2.003 -0.0927  0.0714 -0.3470
 4756poe    c2322504   3.052   0.406   1.936  0.1377  0.0096  0.0769
 4756poe     o222505   2.996   0.365   1.814  0.2914  0.4855 -0.1579
 4756poe    c2322506   3.090   0.288   1.741 -0.2219 -0.0341 -0.2773
 4756poe    c2322507   3.027   0.182   1.649 -0.3999  0.0744 -0.2816
 4756poe     o222508   2.937   0.107   1.728 -0.5049  0.1908 -0.2903
 4756poe    c2322509   2.862   0.027   1.639  0.0389 -0.5396 -0.1042
 4756poe    c2322510   2.745  -0.047   1.707 -0.4602  0.1358 -0.2184
 4756poe     o222511   2.670   0.052   1.775 -0.3135  0.0411  0.0790
 4756poe    c3122512   2.556   0.005   1.843 -0.3499  0.6840  0.4672
 4757poe    c3122513   3.773   0.754   5.833 -0.3426 -0.0243  0.0322
 4757poe     o222514   3.857   0.835   5.755 -0.2041 -0.4861 -0.3024
 4757poe    c2322515   3.993   0.814   5.785 -0.2887  0.4773  0.8571
 4757poe    c2322516   4.111   0.892   5.725  0.0224 -0.5744  0.0577
 4757poe     o222517   4.110   0.908   5.585 -0.2542  0.1293  0.1361
 4757poe    c2322518   4.237   0.960   5.555 -0.1151 -0.4951 -0.3700
 4757poe    c2322519   4.238   1.011   5.410  0.2274 -0.5667 -0.3961
 4757poe     o222520   4.144   0.933   5.340 -0.2772 -0.0471 -0.3077
 4757poe    c2322521   4.143   0.955   5.201  0.1628 -0.0347 -0.3077
 4757poe    c2322522   4.038   0.858   5.143 -0.4410  0.4221  0.0197
 4757poe     o222523   3.928   0.858   5.232 -0.0808 -0.2168  0.4728
 4757poe    c3122524   3.801   0.829   5.179  0.0741 -0.3463  0.1702
 4758poe    c3122525   2.252   0.553   4.050 -0.1705  0.5990 -0.9502
 4758poe     o222526   2.321   0.635   4.141 -0.1637 -0.2626 -0.1601
 4758poe    c2322527   2.336   0.764   4.086  0.7453 -0.4104 -0.2739
 4758poe    c2322528   2.394   0.886   4.160  0.5611 -0.4277 -0.1010
 4758poe     o222529   2.534   0.883   4.168  0.5583 -0.1997  0.0159
 4758poe    c2322530   2.580   0.981   4.259 -0.2704 -0.1034  0.3383
 4758poe    c2322531   2.567   1.128   4.215  0.2073 -0.0431  0.3896
 4758poe     o222532   2.585   1.140   4.076  0.1221  0.0354  0.3851
 4758poe    c2322533   2.564   1.272   4.031 -0.3302 -0.0341  0.3842
 4758poe    c2322534   2.421   1.307   3.986 -0.0777  0.2596 -0.2001
 4758poe     o222535   2.401   1.224   3.874  0.4813  0.5392 -0.5125
 4758poe    c3122536   2.318   1.292   3.782 -0.5920 -0.1615 -0.0784
 4759poe    c3122537   2.637   4.594   1.699 -0.0673 -0.3748 -0.5939
 4759poe     o222538   2.753   4.566   1.624  0.4203  0.1315 -0.0462
 4759poe    c2322539   2.762   4.640   1.505 -0.6042  0.1952 -0.0896
 4759poe    c2322540   2.815   4.536   1.404 -0.2887  0.0619  0.2105
 4759poe     o222541   2.818   4.585   1.272  0.1617  0.1178  0.2422
 4759poe    c2322542   2.874   4.488   1.186 -0.1398  0.1853 -0.0343
 4759poe    c2322543   2.813   4.498   1.045 -0.0605 -0.1210 -0.0912
 4759poe     o222544   2.851   4.618   0.982  0.8654 -0.2706  0.1712
 4759poe    c2322545   2.811   4.601   0.848 -0.4233  0.6483  0.4142
 4759poe    c2322546   2.911   4.682   0.764  0.3313  0.3279  0.9870
 4759poe     o222547   2.898   4.823   0.763  0.2701  0.3233  0.1786
 4759poe    c3122548   2.994   4.898   0.693  0.5610 -0.2303 -0.0232
 4760poe    c3122549   5.061   7.064   7.340  0.1183 -0.1468 -0.4516
 4760poe     o222550   4.937   7.047   7.275 -0.2204  0.0292  0.1414
 4760poe    c2322551   4.958   6.938   7.188  0.1896  0.0601  0.2004
 4760poe    c2322552   4.839   6.911   7.094  0.2163  0.2938  0.0974
 4760poe     o222553   4.721   6.909   7.171  0.2269 -0.2034  0.1046
 4760poe    c2322554   4.607   6.866   7.099 -0.0043  0.5536  0.0106
 4760poe    c2322555   4.508   6.790   7.189  0.2587 -0.2788 -0.3912
 4760poe     o222556   4.570   6.666   7.214  0.1161 -0.2426  0.1573
 4760poe    c2322557   4.522   6.597   7.327 -0.3015 -0.2379 -0.0152
 4760poe    c2322558   4.574   6.634   7.468  0.7428 -0.6784 -0.2766
 4760poe     o222559   4.471   6.622   7.563  0.1809  0.6956 -0.6855
 4760poe    c3122560   4.513   6.564   7.685 -0.0372  0.7117 -0.6016
 4761poe    c3122561   3.344   3.784   5.123  0.6835 -0.2287 -0.7361
 4761poe     o222562   3.242   3.874   5.085  0.1190 -0.5045  0.0843
 4761poe    c2322563   3.153   3.882   5.194  0.1939 -0.1521  0.1195
 4761poe    c2322564   3.146   4.017   5.267 -0.7214 -0.4588  0.6115
 4761poe     o222565   3.123   4.122   5.176 -0.5293 -0.7268  0.2543
 4761poe    c2322566   3.075   4.243   5.228  0.5078 -0.1647 -0.0839
 4761poe    c2322567   3.113   4.364   5.140  0.3477  0.3286  0.5204
 4761poe     o222568   3.070   4.352   5.007  0.6915  0.2798  0.4123
 4761poe    c2322569   3.160   4.416   4.918  0.2672 -0.0393 -0.2554
 4761poe    c2322570   3.145   4.391   4.767 -0.6594 -0.8205 -0.0482
 4761poe     o222571   3.040   4.478   4.729  0.1421  0.2951  0.2197
 4761poe    c3122572   2.988   4.452   4.601  0.0202 -0.1845  0.3608
 4762poe    c3122573   2.401   5.564   3.327  0.3984  0.0150  0.5042
 4762poe     o222574   2.451   5.677   3.395 -0.2498  0.3897  0.3547
 4762poe    c2322575   2.354   5.744   3.473 -0.4242 -0.1143  0.5751
 4762poe    c2322576   2.401   5.886   3.509  0.7878 -0.3127 -0.1536
 4762poe     o222577   2.507   5.896   3.602  0.3393 -0.1092  0.3407
 4762poe    c2322578   2.533   6.032   3.629 -0.2272  0.2570 -0.8869
 4762poe    c2322579   2.627   6.054   3.749 -0.8930  0.8706 -0.4673
 4762poe     o222580   2.762   6.040   3.712 -0.7656  0.0924  0.2650
 4762poe    c2322581   2.855   6.041   3.818  0.4216  0.1471 -0.7505
 4762poe    c2322582   2.982   5.969   3.768  0.4582 -0.1252 -0.2747
 4762poe     o222583   2.956   5.837   3.727  0.3161 -0.1668 -0.0480
 4762poe    c3122584   3.084   5.793   3.688  0.2822 -0.4028  0.1051
 4763poe    c3122585   5.599   5.654   2.681 -0.6215  0.3098 -0.4181
 4763poe     o222586   5.606   5.564   2.573  0.1080  0.1905 -0.2742
 4763poe    c2322587   5.508   5.560   2.472 -0.4493 -0.2116  0.2687
 4763poe    c2322588   5.529   5.466   2.351  0.1144  0.4721 -0.1754
 4763poe     o222589   5.654   5.483   2.287  0.0422 -0.5108 -0.5913
 4763poe    c2322590   5.687   5.373   2.205 -0.4625 -1.0967 -0.0222
 4763poe    c2322591   5.629   5.368   2.063  0.3840  0.1316 -0.4309
 4763poe     o222592   5.490   5.351   2.047  0.4406 -0.0543 -0.7373
 4763poe    c2322593   5.468   5.331   1.909 -0.4393 -0.2443 -0.5764
 4763poe    c2322594   5.341   5.404   1.863 -0.2405  0.3330 -0.2286
 4763poe     o222595   5.371   5.540   1.843  0.3240  0.2295 -0.1108
 4763poe    c3122596   5.266   5.605   1.774  0.3729 -0.2890 -0.6822
 4764poe    c3122597   0.109   0.195   0.858 -0.6769  0.3849 -0.2277
 4764poe     o222598   0.013   0.254   0.943 -0.0239  0.3149  0.5602
 4764poe    c2322599   0.065   0.367   1.010  0.1233  0.4357  0.2439
 4764poe    c2322600  -0.047   0.405   1.108 -0.3332 -0.1631 -0.0441
 4764poe     o222601  -0.150   0.470   1.036  0.0661  0.4578 -0.0537
 4764poe    c2322602  -0.268   0.505   1.105  0.4149 -0.0499  0.8271
 4764poe    c2322603  -0.384   0.519   1.005  0.6692 -0.0534  0.5294
 4764poe     o222604  -0.429   0.395   0.954  0.4460  0.2136  0.0685
 4764poe    c2322605  -0.567   0.420   0.943  0.4182 -0.0512 -0.1805
 4764poe    c2322606  -0.647   0.290   0.919 -0.0650  0.1072  0.5324
 4764poe     o222607  -0.637   0.188   1.016  0.2911 -0.2299  0.1473
 4764poe    c3122608  -0.743   0.098   0.993  0.2200 -0.1174  0.0300
 4765poe    c3122609   4.546   7.204   6.522  0.4535  0.0308 -0.2287
 4765poe     o222610   4.498   7.092   6.593  0.4224  0.5292  0.5547
 4765poe    c2322611   4.506   7.114   6.732  0.1966  0.5757  0.5592
 4765poe    c2322612   4.644   7.086   6.794  0.5613  0.2443 -0.3817
 4765poe     o222613   4.754   7.168   6.762  0.1545  0.8479 -0.2540
 4765poe    c2322614   4.848   7.080   6.704 -0.3731  0.0002  0.1617
 4765poe    c2322615   4.993   7.129   6.712 -0.3038 -0.1699 -0.0534
 4765poe     o222616   5.050   7.162   6.836  0.7539 -0.1519 -0.5290
 4765poe    c2322617   5.185   7.200   6.819  0.5649  0.8839  0.1725
 4765poe    c2322618   5.237   7.266   6.948  0.4026  0.1521  0.6185
 4765poe     o222619   5.172   7.386   6.982 -0.2495 -0.0769  0.1942
 4765poe    c3122620   5.219   7.432   7.106  0.4239 -0.4804  0.0922
 4766poe    c3122621   5.654   5.937   1.472 -0.0595  0.0561 -0.6852
 4766poe     o222622   5.610   5.846   1.570 -0.0141  0.0993 -0.6240
 4766poe    c2322623   5.562   5.721   1.526  0.0003 -0.1566  0.0793
 4766poe    c2322624   5.674   5.621   1.491 -0.3180 -0.5216  0.0962
 4766poe     o222625   5.723   5.558   1.608 -0.2936 -0.3342  0.1895
 4766poe    c2322626   5.819   5.459   1.578 -0.2985 -0.2632 -0.0642
 4766poe    c2322627   5.883   5.399   1.704  0.0301 -0.0283 -0.1177
 4766poe     o222628   5.985   5.468   1.773  0.2241  0.0855 -0.5144
 4766poe    c2322629   6.065   5.383   1.852 -0.1880  0.4289  0.2868
 4766poe    c2322630   6.043   5.394   2.004 -0.2482  0.0198  0.3101
 4766poe     o222631   6.099   5.512   2.056 -0.0848  0.1171 -0.0838
 4766poe    c3122632   6.098   5.513   2.197 -0.3894  0.5035 -0.0858
 4767poe    c3122633   3.104   1.317   1.950 -0.4130  0.9496 -0.2850
 4767poe     o222634   3.187   1.358   1.845  0.4289  0.9884  0.3849
 4767poe    c2322635   3.124   1.404   1.727  0.5082  0.0726 -0.0225
 4767poe    c2322636   3.064   1.546   1.721  0.2168 -0.0835 -0.9803
 4767poe     o222637   3.154   1.654   1.726  0.2752 -0.1742  0.2517
 4767poe    c2322638   3.094   1.767   1.784  0.2587 -0.0002 -0.1013
 4767poe    c2322639   3.100   1.884   1.684 -0.4597 -0.0894 -0.2600
 4767poe     o222640   3.238   1.891   1.655 -0.2910  0.8102  0.6724
 4767poe    c2322641   3.270   1.994   1.564 -0.0120  0.2174  0.0886
 4767poe    c2322642   3.416   2.001   1.516 -0.0858 -0.1879 -0.1979
 4767poe     o222643   3.471   1.899   1.435  0.1234 -0.1197 -0.1436
 4767poe    c3122644   3.602   1.928   1.394  0.2208 -0.2369  0.0841
 4768poe    c3122645   7.564   5.671   6.392  0.1050 -0.1158  0.0006
 4768poe     o222646   7.620   5.561   6.460  0.7814  0.5499  0.5380
 4768poe    c2322647   7.609   5.575   6.600  0.5939  0.0975  0.5722
 4768poe    c2322648   7.698   5.475   6.676 -0.0187 -0.7953  0.1392
 4768poe     o222649   7.835   5.509   6.680 -0.2114  0.1110 -0.5213
 4768poe    c2322650   7.910   5.450   6.784 -0.3751  0.5611 -0.1453
 4768poe    c2322651   8.055   5.501   6.794  0.0098 -0.4630 -0.3491
 4768poe     o222652   8.135   5.452   6.689  0.2577 -0.5155 -0.1380
 4768poe    c2322653   8.266   5.497   6.715 -0.1376  0.6462 -0.0974
 4768poe    c2322654   8.354   5.484   6.589 -0.4635 -0.6737 -0.2052
 4768poe     o222655   8.349   5.604   6.515  0.2483 -0.1337  0.5950
 4768poe    c3122656   8.451   5.606   6.418 -0.3332 -0.4206 -0.0341
 4769poe    c3122657   4.592   1.353   4.079 -0.6324 -0.1234 -0.4654
 4769poe     o222658   4.649   1.467   4.018 -0.2455 -0.0554  0.0189
 4769poe    c2322659   4.564   1.564   3.963 -0.8176 -0.3805  0.3161
 4769poe    c2322660   4.646   1.675   3.894 -0.6436 -0.4085  0.4806
 4769poe     o222661   4.754   1.629   3.816 -0.3526 -0.0402  0.6657
 4769poe    c2322662   4.856   1.727   3.814  0.3164 -0.7318  0.3987
 4769poe    c2322663   4.948   1.669   3.704  0.2223 -0.4415  0.1647
 4769poe     o222664   4.876   1.696   3.586  0.2304  0.0776  0.2747
 4769poe    c2322665   4.933   1.644   3.468  0.2080  0.4752  0.0860
 4769poe    c2322666   4.865   1.677   3.334 -0.2485 -0.4513  0.0830
 4769poe     o222667   4.743   1.607   3.323  0.0710 -0.9102 -0.6973
 4769poe    c3122668   4.704   1.579   3.191 -0.4987 -0.1435 -0.7030
 4770poe    c3122669   1.428   5.044   2.439  0.4159 -0.1019 -0.1680
 4770poe     o222670   1.409   5.176   2.395  0.1616  0.1481  0.6642
 4770poe    c2322671   1.420   5.183   2.254  1.0106  0.1875  0.7327
 4770poe    c2322672   1.431   5.332   2.216 -0.1688  0.1536  0.2172
 4770poe     o222673   1.323   5.396   2.279 -0.3594  0.0188  0.0307
 4770poe    c2322674   1.291   5.523   2.226  0.3908  0.0185 -0.4474
 4770poe    c2322675   1.171   5.579   2.306  0.7630  0.3307 -0.1029
 4770poe     o222676   1.212   5.586   2.441 -0.0633  0.3141  0.1513
 4770poe    c2322677   1.114   5.654   2.517  0.2864  0.9858  0.0143
 4770poe    c2322678   1.133   5.644   2.670  0.0451  0.1091 -0.0067
 4770poe     o222679   1.247   5.699   2.732  0.1151 -0.2281  0.1659
 4770poe    c3122680   1.228   5.701   2.871 -0.1233 -0.1636  0.1335
 4771poe    c3122681   7.438   6.097   5.459  0.1329 -0.5275  0.4094
 4771poe     o222682   7.346   6.001   5.506  0.0066 -0.6284 -0.0378
 4771poe    c2322683   7.376   5.987   5.643 -0.0275  0.2455  0.0625
 4771poe    c2322684   7.268   5.895   5.704  0.0982  0.2647  0.3176
 4771poe     o222685   7.142   5.956   5.723 -0.0244  0.1729 -0.1800
 4771poe    c2322686   7.036   5.864   5.729 -0.1370  0.3279  0.2629
 4771poe    c2322687   6.896   5.926   5.738 -0.3138  0.0120 -0.2258
 4771poe     o222688   6.894   6.020   5.633  0.0895  0.0589 -0.1911
 4771poe    c2322689   6.766   6.070   5.603  0.1915  0.2035 -0.3906
 4771poe    c2322690   6.786   6.158   5.478  0.1038  0.5074 -0.1933
 4771poe     o222691   6.902   6.229   5.513 -0.2714  0.8110  0.4560
 4771poe    c3122692   6.923   6.320   5.406  0.6421 -0.2599 -0.2958
 4772poe    c3122693   1.777   2.251   7.306 -0.1344 -0.6070  0.0778
 4772poe     o222694   1.724   2.146   7.385 -0.1888 -0.4887  0.1988
 4772poe    c2322695   1.694   2.187   7.517  0.2440 -0.3225  0.2498
 4772poe    c2322696   1.552   2.245   7.525  0.1730 -0.5407  0.6117
 4772poe     o222697   1.442   2.159   7.508  0.3711 -0.6547 -0.1434
 4772poe    c2322698   1.316   2.220   7.526  0.4897 -0.5652  0.4109
 4772poe    c2322699   1.208   2.127   7.468  0.3613 -0.0631 -0.1693
 4772poe     o222700   1.162   2.032   7.562 -0.0051  0.5740  0.3039
 4772poe    c2322701   1.109   1.916   7.501  1.0440 -0.0402  0.5389
 4772poe    c2322702   1.041   1.808   7.587  0.3138 -0.1843 -0.2028
 4772poe     o222703   0.952   1.864   7.681 -0.0851  0.0005 -0.6841
 4772poe    c3122704   0.844   1.781   7.717 -0.1020 -0.0705 -0.9000
 4773poe    c3122705   2.013   0.794   0.426 -0.4338  0.2238 -0.5607
 4773poe     o222706   1.946   0.844   0.540  0.1599  0.2421 -0.2131
 4773poe    c2322707   1.835   0.928   0.516 -0.3802 -0.3737  0.0916
 4773poe    c2322708   1.766   0.962   0.649  0.0031 -0.5985  0.3490
 4773poe     o222709   1.859   0.976   0.754  0.5683  0.2070 -0.2512
 4773poe    c2322710   1.805   1.039   0.868 -0.4792 -0.3098 -0.4487
 4773poe    c2322711   1.853   0.991   1.006 -0.4716 -0.3241 -0.4562
 4773poe     o222712   1.810   0.860   1.035 -0.3930 -0.2251  0.1233
 4773poe    c2322713   1.886   0.840   1.152 -0.4903 -0.0010  0.2263
 4773poe    c2322714   1.896   0.696   1.206  0.5539 -0.0511 -0.0874
 4773poe     o222715   1.991   0.611   1.147 -0.0691 -0.4986 -0.4558
 4773poe    c3122716   2.014   0.498   1.228 -0.0190 -0.2615 -0.1375
 4774poe    c3122717   1.197   4.637   7.381  0.5301 -0.0864  0.1399
 4774poe     o222718   1.227   4.679   7.512  0.0450  0.4640  0.0784
 4774poe    c2322719   1.313   4.586   7.574 -0.1102  0.2362 -0.0448
 4774poe    c2322720   1.371   4.611   7.715  0.1082 -0.3144 -0.0362
 4774poe     o222721   1.464   4.716   7.722  0.0583 -0.2783  0.0907
 4774poe    c2322722   1.406   4.832   7.777  0.3065 -0.0574 -0.1094
 4774poe    c2322723   1.514   4.935   7.812 -0.3322  0.5084  0.2285
 4774poe     o222724   1.621   4.883   7.888 -0.6235  0.2803  0.4837
 4774poe    c2322725   1.719   4.976   7.929  0.3078 -0.4282 -0.0928
 4774poe    c2322726   1.851   4.977   7.850  0.0227  0.1012 -0.5645
 4774poe     o222727   1.841   5.035   7.722 -0.2471  0.6333 -0.3070
 4774poe    c3122728   1.968   5.051   7.663 -0.3455  0.8558 -0.4609
 4775poe    c3122729   3.525   3.765   6.048  0.3479 -0.6361 -0.2796
 4775poe     o222730   3.592   3.886   6.077  0.1406 -0.4804 -0.4447
 4775poe    c2322731   3.654   3.868   6.202 -0.1264 -0.1989 -0.2721
 4775poe    c2322732   3.807   3.877   6.214 -0.1495 -0.3532  0.1783
 4775poe     o222733   3.849   4.010   6.193  0.1968 -0.6027 -0.7889
 4775poe    c2322734   3.990   4.008   6.199  0.1709 -0.1723  0.0951
 4775poe    c2322735   4.073   4.137   6.186 -0.3483  0.1480 -0.0837
 4775poe     o222736   4.030   4.207   6.071 -0.6062 -0.3790 -0.3145
 4775poe    c2322737   4.080   4.339   6.069 -0.6554 -0.3548 -0.0213
 4775poe    c2322738   3.964   4.440   6.060 -0.0461  0.3560 -0.0185
 4775poe     o222739   3.886   4.446   6.177 -0.1222 -0.5588 -0.0148
 4775poe    c3122740   3.950   4.532   6.269 -0.8784  0.4876 -0.4542
 4776poe    c3122741   5.272   2.108   5.525  0.1250  0.3407  0.1137
 4776poe     o222742   5.398   2.051   5.501 -0.0760  0.0821 -0.3452
 4776poe    c2322743   5.480   2.039   5.616 -0.4018 -0.1070 -0.1324
 4776poe    c2322744   5.623   1.985   5.598 -0.5551 -0.5004 -0.1804
 4776poe     o222745   5.708   2.074   5.530 -0.7533 -0.3197 -0.1950
 4776poe    c2322746   5.776   2.012   5.423 -0.3135  0.5285 -0.4159
 4776poe    c2322747   5.928   2.027   5.445 -0.4447  0.4326  0.6143
 4776poe     o222748   5.970   2.160   5.422 -0.3981  0.3541  0.2364
 4776poe    c2322749   6.099   2.178   5.477 -0.2058  0.3736 -0.2206
 4776poe    c2322750   6.166   2.310   5.436  0.0342  0.2553 -0.2093
 4776poe     o222751   6.228   2.325   5.310  0.1114  0.5032 -0.1435
 4776poe    c3122752   6.359   2.278   5.330 -0.0578  0.3226  0.5807
 4777poe    c3122753   4.261   6.639   4.475 -0.0030 -0.3396  0.4771
 4777poe     o222754   4.387   6.593   4.518  0.2216 -0.0308  0.1529
 4777poe    c2322755   4.491   6.657   4.447 -0.4598  0.4116 -0.4658
 4777poe    c2322756   4.610   6.561   4.425  0.0158  0.8044  0.3073
 4777poe     o222757   4.620   6.494   4.549 -0.2454  0.7977  0.3260
 4777poe    c2322758   4.709   6.386   4.543 -0.4060  0.6895 -0.1621
 4777poe    c2322759   4.711   6.311   4.678  0.4863  0.5780 -0.2322
 4777poe     o222760   4.577   6.288   4.713  0.6464  0.1247  0.0901
 4777poe    c2322761   4.560   6.273   4.853  0.4951  0.0257  0.0605
 4777poe    c2322762   4.415   6.234   4.888  0.3925  0.2456 -0.1200
 4777poe     o222763   4.314   6.332   4.870  0.3311  0.1913 -0.0699
 4777poe    c3122764   4.183   6.289   4.901  0.3211  0.2239 -0.0675
 4778poe    c3122765   0.240   3.294   2.737 -0.0591 -0.8164 -0.1549
 4778poe     o222766   0.185   3.266   2.864 -0.3469  0.3838  0.0016
 4778poe    c2322767   0.045   3.265   2.858 -0.3299  0.0684 -0.3609
 4778poe    c2322768  -0.004   3.277   3.003  1.0834 -0.1663  0.1492
 4778poe     o222769   0.020   3.164   3.084  0.0316 -0.3581  0.2095
 4778poe    c2322770  -0.012   3.159   3.221  0.2664  0.3883  0.2948
 4778poe    c2322771  -0.001   3.022   3.292  0.0179  0.3008  0.1648
 4778poe     o222772  -0.079   2.916   3.240  0.2452  0.3310 -0.2373
 4778poe    c2322773  -0.076   2.795   3.311  0.4249 -0.0424 -0.8671
 4778poe    c2322774  -0.186   2.692   3.284  0.0044  0.1301  0.1453
 4778poe     o222775  -0.204   2.648   3.152  0.3880  0.2201  0.0623
 4778poe    c3122776  -0.268   2.522   3.162  0.0474  0.3475 -0.4653
 4779poe    c3122777   0.976   1.639   5.771  0.2010  0.2147  0.3665
 4779poe     o222778   0.960   1.500   5.788 -0.5730  0.3456  0.7488
 4779poe    c2322779   1.004   1.460   5.915  0.3794  0.3772  0.4365
 4779poe    c2322780   0.953   1.322   5.963 -0.0359  0.0215 -0.9666
 4779poe     o222781   0.993   1.218   5.877 -0.3669 -0.2271 -0.8202
 4779poe    c2322782   0.954   1.097   5.938  0.0058  0.0993  0.1000
 4779poe    c2322783   0.943   1.005   5.814  0.1286  0.6748 -0.3436
 4779poe     o222784   0.831   1.037   5.735 -0.2456 -0.1155 -0.1394
 4779poe    c2322785   0.815   0.957   5.619  0.5863 -0.3465 -0.1009
 4779poe    c2322786   0.690   0.999   5.539  0.9682 -0.2054 -0.6268
 4779poe     o222787   0.711   1.138   5.526  0.2093 -0.0696 -0.4549
 4779poe    c3122788   0.642   1.193   5.416 -0.4176  0.0752  0.0078
 4780poe    c3122789   3.069   2.261   3.439  0.2718  0.2467 -0.0249
 4780poe     o222790   3.194   2.326   3.435  0.3117  0.1628 -0.1599
 4780poe    c2322791   3.289   2.241   3.495  0.1849 -0.2438 -0.5247
 4780poe    c2322792   3.426   2.311   3.498 -0.2023  0.5130 -0.2108
 4780poe     o222793   3.461   2.337   3.364  0.0254  0.4367 -0.1674
 4780poe    c2322794   3.597   2.364   3.343  0.1362  0.1126  0.1327
 4780poe    c2322795   3.628   2.449   3.218 -0.2661 -0.4327 -0.3364
 4780poe     o222796   3.593   2.584   3.236 -0.4572 -0.4810 -0.3368
 4780poe    c2322797   3.608   2.659   3.118  0.5323  0.2296  0.2174
 4780poe    c2322798   3.701   2.781   3.129  0.7907  0.0163  0.4016
 4780poe     o222799   3.653   2.908   3.166  0.4397 -0.0503  0.1806
 4780poe    c3122800   3.759   2.997   3.140  0.2087  0.2202  0.1583
 4781poe    c3122801   0.833   0.930   5.111 -0.1356 -0.4417  0.1862
 4781poe     o222802   0.901   0.810   5.083  0.4751  0.0136 -0.3181
 4781poe    c2322803   0.886   0.766   4.950 -0.2033 -0.2035 -0.1741
 4781poe    c2322804   0.963   0.634   4.937 -0.2718 -0.3603  0.9012
 4781poe     o222805   1.102   0.644   4.959 -0.1002 -0.2599 -0.1594
 4781poe    c2322806   1.159   0.517   4.980  0.2512 -0.0313  0.2687
 4781poe    c2322807   1.310   0.548   4.976  0.2660 -0.0840  0.3937
 4781poe     o222808   1.335   0.662   5.056 -0.1328  0.2302  0.0770
 4781poe    c2322809   1.476   0.660   5.069 -0.1712 -0.2782  0.4750
 4781poe    c2322810   1.521   0.799   5.118  0.2263 -0.1416 -0.2640
 4781poe     o222811   1.482   0.909   5.039 -0.1530 -0.1072 -0.0311
 4781poe    c3122812   1.584   1.006   5.050 -0.2185 -0.0973  0.5259
 4782poe    c3122813   1.122   2.518   7.260  0.2111  1.0789 -0.9284
 4782poe     o222814   1.228   2.449   7.198  0.2933 -0.2566  0.6425
 4782poe    c2322815   1.353   2.484   7.251  0.5755 -0.3420  0.0398
 4782poe    c2322816   1.458   2.414   7.163  0.1375 -0.3990 -0.4366
 4782poe     o222817   1.459   2.436   7.023  0.2648 -0.4267 -0.4406
 4782poe    c2322818   1.528   2.336   6.952  0.5863 -0.2241 -0.4165
 4782poe    c2322819   1.505   2.362   6.802  0.5716  0.1830 -0.3445
 4782poe     o222820   1.373   2.354   6.753  0.3555 -0.1741  0.2885
 4782poe    c2322821   1.293   2.469   6.769 -0.0473 -0.3761 -0.2624
 4782poe    c2322822   1.163   2.458   6.687 -0.1039 -0.0011 -0.2222
 4782poe     o222823   1.196   2.465   6.551 -0.6469  0.0349 -0.3556
 4782poe    c3122824   1.178   2.588   6.484 -0.5885 -0.0340 -0.4990
 4783poe    c3122825   1.913   1.911   3.918 -0.2908 -0.5923  0.2882
 4783poe     o222826   2.050   1.893   3.949 -0.1143 -0.0396 -0.1556
 4783poe    c2322827   2.081   1.766   4.001  0.2369  0.3044  0.4850
 4783poe    c2322828   2.214   1.697   3.965 -0.3790 -0.6106 -0.0912
 4783poe     o222829   2.337   1.737   4.021 -0.2969 -0.7692 -0.1580
 4783poe    c2322830   2.351   1.738   4.162 -0.4368  0.0651 -0.1483
 4783poe    c2322831   2.336   1.607   4.241 -0.2237 -0.0272 -0.2597
 4783poe     o222832   2.206   1.555   4.227 -0.2273 -0.0195 -0.2558
 4783poe    c2322833   2.170   1.455   4.320  0.3671 -0.1243 -0.1366
 4783poe    c2322834   2.035   1.384   4.295  0.4053 -0.4021  0.4209
 4783poe     o222835   2.025   1.257   4.235 -0.2822 -0.0101 -0.3075
 4783poe    c3122836   1.999   1.258   4.097  0.2877  0.1752 -0.4161
 4784poe    c3122837   5.876   2.092   2.538 -0.0773  0.4861  0.3967
 4784poe     o222838   5.933   2.168   2.433  0.0833  0.4983  0.4912
 4784poe    c2322839   5.849   2.266   2.376 -0.3267 -0.4094 -0.5144
 4784poe    c2322840   5.910   2.348   2.262 -0.6003  0.3339 -0.1334
 4784poe     o222841   5.900   2.274   2.142 -0.2815  0.0618  0.0076
 4784poe    c2322842   5.961   2.332   2.029  0.3673 -0.5381  0.0410
 4784poe    c2322843   5.881   2.295   1.903 -0.4455  0.0396  0.3808
 4784poe     o222844   5.861   2.156   1.898 -0.3509  0.0291  0.2817
 4784poe    c2322845   5.820   2.112   1.770  0.7263  0.5818 -0.2645
 4784poe    c2322846   5.831   1.959   1.759  0.2985  0.4671  0.7459
 4784poe     o222847   5.748   1.904   1.859  0.0124  0.2946  0.4193
 4784poe    c3122848   5.749   1.763   1.863 -0.1490  0.2844  0.0629
 4785poe    c3122849   3.189   5.284   1.731 -0.1165 -0.4473  0.0914
 4785poe     o222850   3.072   5.244   1.662 -0.2100 -0.2080  0.1099
 4785poe    c2322851   2.957   5.281   1.734 -0.0192  0.3392  0.1426
 4785poe    c2322852   2.838   5.186   1.707  0.1840  0.0488  0.2722
 4785poe     o222853   2.795   5.188   1.573  0.5032 -0.7473  0.1483
 4785poe    c2322854   2.737   5.307   1.524 -0.7309 -1.4510 -0.1406
 4785poe    c2322855   2.588   5.304   1.562 -0.6478 -0.5888  0.2657
 4785poe     o222856   2.494   5.227   1.490 -0.6431  0.1181 -0.5120
 4785poe    c2322857   2.410   5.168   1.586  0.0938 -0.2820 -0.0989
 4785poe    c2322858   2.284   5.107   1.519  0.2089 -0.7409  0.0949
 4785poe     o222859   2.180   5.193   1.479  0.1918 -0.7448  0.1315
 4785poe    c3122860   2.086   5.214   1.582 -0.4668  0.0001 -0.6054
 4786poe    c3122861   0.507   2.860   1.234  0.0587  0.1768 -0.1945
 4786poe     o222862   0.514   2.991   1.181 -0.2514  0.0070 -0.6545
 4786poe    c2322863   0.496   3.000   1.041 -0.0957 -0.8694 -0.7370
 4786poe    c2322864   0.579   3.118   0.987 -0.8834 -0.1646 -0.4316
 4786poe     o222865   0.538   3.249   1.020 -0.5898 -0.1655 -0.0436
 4786poe    c2322866   0.498   3.327   0.909 -0.3988 -0.1995 -0.1367
 4786poe    c2322867   0.448   3.463   0.960 -0.6246 -0.3149 -0.0478
 4786poe     o222868   0.355   3.434   1.062  0.3239  0.1416  0.9666
 4786poe    c2322869   0.281   3.550   1.089  0.2391  0.2205  0.4072
 4786poe    c2322870   0.199   3.526   1.217 -0.2101  0.3210  0.1408
 4786poe     o222871   0.295   3.483   1.311 -0.1356  0.4313  0.1143
 4786poe    c3122872   0.232   3.466   1.436 -0.2713 -0.3087 -0.0502
 4787poe    c3122873   4.943   6.814   2.132  0.1308 -0.2262  0.0229
 4787poe     o222874   4.897   6.681   2.140 -0.3076 -0.0633  0.2736
 4787poe    c2322875   4.761   6.670   2.176 -0.4348  0.0004 -0.1810
 4787poe    c2322876   4.712   6.526   2.151  0.5749 -0.3421 -0.2338
 4787poe     o222877   4.764   6.445   2.254  0.2919  0.0607  0.2304
 4787poe    c2322878   4.727   6.311   2.233  0.8718  0.0049 -0.5054
 4787poe    c2322879   4.686   6.220   2.351  0.2617  0.4616 -0.3611
 4787poe     o222880   4.790   6.148   2.413  0.4594  0.4469 -0.7087
 4787poe    c2322881   4.826   6.032   2.341  0.1614  0.2257 -0.5037
 4787poe    c2322882   4.934   5.952   2.415  0.0277  0.7048  0.2201
 4787poe     o222883   5.058   6.001   2.369 -0.0584  0.7787  0.0660
 4787poe    c3122884   5.155   5.988   2.470  0.1418 -0.2972 -0.2456
 4788poe    c3122885   1.994   1.603   0.933  0.2333  0.2290  0.5106
 4788poe     o222886   2.093   1.689   0.883  0.0560  0.5324  0.6752
 4788poe    c2322887   2.022   1.792   0.818  0.3195  0.1437 -0.2492
 4788poe    c2322888   2.117   1.853   0.714 -0.3094  0.7577 -0.4667
 4788poe     o222889   2.243   1.876   0.773 -0.2603  0.1905 -0.3539
 4788poe    c2322890   2.343   1.940   0.697 -0.1251  0.7123  0.2505
 4788poe    c2322891   2.440   2.009   0.794  0.4244  0.4851 -0.1293
 4788poe     o222892   2.469   1.904   0.884 -0.8361  0.3278  0.1089
 4788poe    c2322893   2.575   1.929   0.973 -0.4916  0.1174 -0.2448
 4788poe    c2322894   2.641   1.808   1.043 -0.7121  0.3127  0.3028
 4788poe     o222895   2.563   1.746   1.143 -0.4408 -0.0392  0.2966
 4788poe    c3122896   2.604   1.615   1.173  0.3490 -0.0102 -0.5980
 4789poe    c3122897   6.802   1.174   3.387  0.4233 -0.2255 -0.0820
 4789poe     o222898   6.843   1.129   3.259  0.4363 -0.0336 -0.1445
 4789poe    c2322899   6.941   1.224   3.222  0.7114 -0.3666 -0.2760
 4789poe    c2322900   6.911   1.313   3.100 -0.1209 -0.5844 -0.2421
 4789poe     o222901   6.819   1.418   3.114 -0.2903 -0.7590 -0.0442
 4789poe    c2322902   6.683   1.380   3.112 -0.4936 -0.0638  0.0989
 4789poe    c2322903   6.597   1.507   3.120 -0.4043 -0.0026  0.0863
 4789poe     o222904   6.595   1.577   2.998 -0.1091  0.7708  0.5138
 4789poe    c2322905   6.473   1.639   2.964 -0.7577 -0.7190  0.0282
 4789poe    c2322906   6.503   1.694   2.823  0.8624 -0.4300  0.4649
 4789poe     o222907   6.631   1.745   2.792  0.4167  0.0794 -0.5840
 4789poe    c3122908   6.620   1.875   2.739 -0.0437 -0.0361 -0.7809
 4790poe    c3122909   7.413   2.093   1.041 -0.1370 -0.4217 -0.0556
 4790poe     o222910   7.487   2.101   1.161 -0.3083  0.5075 -0.0034
 4790poe    c2322911   7.530   2.231   1.195 -0.0884  0.4584 -0.0895
 4790poe    c2322912   7.656   2.295   1.133  0.1529  0.2802  0.2153
 4790poe     o222913   7.644   2.329   0.997 -0.0628 -0.5459  0.0204
 4790poe    c2322914   7.617   2.465   0.973  0.1503 -0.4316  0.4167
 4790poe    c2322915   7.730   2.568   0.992 -0.3455  0.2506 -0.2523
 4790poe     o222916   7.820   2.586   0.885  0.2874  0.6798  0.3432
 4790poe    c2322917   7.921   2.488   0.876 -0.5188 -0.0753 -0.6810
 4790poe    c2322918   8.055   2.563   0.873 -0.4103 -0.2350  0.1461
 4790poe     o222919   8.075   2.646   0.760  0.0125 -0.4460  0.0636
 4790poe    c3122920   8.186   2.731   0.774 -0.1310 -0.2884  0.2584
 4791poe    c3122921   7.165   7.341   3.634 -0.5860  0.1890 -0.2751
 4791poe     o222922   7.107   7.341   3.763 -0.1012 -0.6757 -0.0504
 4791poe    c2322923   7.067   7.468   3.810  0.5400 -0.4669 -0.0563
 4791poe    c2322924   6.991   7.473   3.944  0.2626 -0.1188 -0.2238
 4791poe     o222925   6.856   7.434   3.955  0.1958  0.1037 -0.2557
 4791poe    c2322926   6.766   7.536   3.918 -0.1191 -0.1596 -0.2178
 4791poe    c2322927   6.681   7.478   3.804 -0.3382  0.6429 -0.4693
 4791poe     o222928   6.585   7.380   3.836  0.5988 -0.1394  0.0083
 4791poe    c2322929   6.476   7.410   3.751  0.8889  0.0223 -0.3065
 4791poe    c2322930   6.493   7.329   3.621  0.0410 -0.1051 -0.3400
 4791poe     o222931   6.459   7.193   3.635  0.3617 -0.1728 -0.2238
 4791poe    c3122932   6.437   7.126   3.513  0.2777  0.2743 -0.4573
 4792poe    c3122933   1.475   7.551   1.829 -0.0038  0.4802 -0.5088
 4792poe     o222934   1.372   7.606   1.749 -0.2697 -0.2596 -0.6844
 4792poe    c2322935   1.398   7.591   1.612  0.0782 -0.9563 -0.5497
 4792poe    c2322936   1.332   7.703   1.529 -0.1612 -0.3680  0.4168
 4792poe     o222937   1.194   7.687   1.504  0.0367 -0.1646 -0.9205
 4792poe    c2322938   1.130   7.792   1.435  0.5213  0.3713 -0.5676
 4792poe    c2322939   1.134   7.928   1.508 -0.5539  0.0939  0.0233
 4792poe     o222940   1.022   7.953   1.591 -0.2934 -0.4631  0.5534
 4792poe    c2322941   1.045   8.044   1.696 -0.0778 -0.0783  0.1778
 4792poe    c2322942   1.093   7.977   1.826  0.1758 -0.6552 -0.2122
 4792poe     o222943   0.982   7.934   1.902  0.1978 -0.1904  0.0805
 4792poe    c3122944   1.012   7.888   2.032  0.1078 -0.0314  0.1583
 4793poe    c3122945   5.259   6.354   7.314  0.1206  0.0620 -0.1953
 4793poe     o222946   5.387   6.337   7.373 -0.0403 -0.0552  0.1257
 4793poe    c2322947   5.386   6.372   7.509 -0.0008  0.6901 -0.0612
 4793poe    c2322948   5.524   6.358   7.575 -0.1118  0.1507  0.0630
 4793poe     o222949   5.576   6.227   7.577  0.6856  0.4625  0.3393
 4793poe    c2322950   5.713   6.212   7.605  0.7232 -0.5641 -0.3408
 4793poe    c2322951   5.755   6.068   7.641  0.4430 -0.4652  0.4014
 4793poe     o222952   5.716   5.966   7.553 -0.5099 -0.0698  0.3501
 4793poe    c2322953   5.770   5.842   7.594 -0.3477 -0.0992  0.0536
 4793poe    c2322954   5.694   5.720   7.536 -0.4061  0.0643 -0.2137
 4793poe     o222955   5.557   5.725   7.567 -0.3487 -0.3680  0.1161
 4793poe    c3122956   5.496   5.598   7.562 -0.6349 -0.2048 -0.6406
 4794poe    c3122957   3.720   3.328   5.609  0.7806  0.3379 -0.4895
 4794poe     o222958   3.851   3.276   5.609  0.4318 -0.5562 -0.3280
 4794poe    c2322959   3.870   3.174   5.705 -0.1801  0.2612  0.6776
 4794poe    c2322960   3.929   3.212   5.842  0.3609  0.5285  0.3733
 4794poe     o222961   4.066   3.244   5.834  0.5525 -0.1929  0.6893
 4794poe    c2322962   4.102   3.311   5.953 -0.2520 -0.1979  0.9420
 4794poe    c2322963   4.237   3.381   5.931 -0.5750  0.0822 -0.2277
 4794poe     o222964   4.240   3.455   5.811 -0.4044 -0.0748 -0.3215
 4794poe    c2322965   4.353   3.536   5.788 -0.6477  0.3323 -0.0813
 4794poe    c2322966   4.328   3.599   5.650 -0.6696  0.4260 -0.0360
 4794poe     o222967   4.325   3.515   5.536  0.5795  0.7292 -0.3086
 4794poe    c3122968   4.283   3.582   5.419 -0.3677  0.4219 -0.1517
 4795poe    c3122969   7.260   1.772   5.251 -0.1074  0.0473  0.1284
 4795poe     o222970   7.382   1.715   5.294 -0.2192 -0.2573  0.0508
 4795poe    c2322971   7.485   1.765   5.212 -0.3854 -0.2288 -0.1428
 4795poe    c2322972   7.623   1.702   5.240 -0.4651  0.0212  0.8414
 4795poe     o222973   7.612   1.562   5.228  0.1214  0.0780 -0.5698
 4795poe    c2322974   7.727   1.492   5.269 -0.1674 -0.0284  0.0649
 4795poe    c2322975   7.696   1.346   5.231 -0.1099 -0.0753  0.1979
 4795poe     o222976   7.580   1.298   5.296 -0.2193  0.2457  0.2392
 4795poe    c2322977   7.618   1.177   5.356  0.4392 -0.0681 -0.7731
 4795poe    c2322978   7.554   1.162   5.495  0.3404  0.1149 -0.7984
 4795poe     o222979   7.415   1.137   5.505  0.3569  0.5401  0.8072
 4795poe    c3122980   7.374   1.156   5.639 -0.6005  0.2276  0.5612
 4796poe    c3122981   6.130   6.898   5.193 -0.0761  0.6329 -0.2227
 4796poe     o222982   6.089   6.877   5.060  0.4953 -1.1445 -0.1388
 4796poe    c2322983   6.174   6.943   4.969 -0.4234  0.1810 -0.0545
 4796poe    c2322984   6.171   6.895   4.823 -0.6489 -0.3410  0.1189
 4796poe     o222985   6.051   6.895   4.748 -0.5516  0.2721 -0.0470
 4796poe    c2322986   6.059   6.793   4.651 -0.0838  0.3184 -0.0584
 4796poe    c2322987   5.925   6.788   4.575  0.1160  0.1015 -0.3971
 4796poe     o222988   5.881   6.902   4.504 -0.5660  0.4041  0.5000
 4796poe    c2322989   5.776   6.877   4.415  0.5114 -0.2249 -0.6226
 4796poe    c2322990   5.807   6.904   4.266  0.9161 -0.3761 -0.5666
 4796poe     o222991   5.817   7.044   4.252  0.0107 -0.3044 -0.5431
 4796poe    c3122992   5.857   7.071   4.119  0.1194  0.2702 -0.3924
 4797poe    c3122993   3.799   2.212   2.493 -0.0328  0.0629 -1.2258
 4797poe     o222994   3.753   2.079   2.497 -0.1040  0.1183  0.3324
 4797poe    c2322995   3.854   1.998   2.555 -0.1936 -0.0969  0.1892
 4797poe    c2322996   3.798   1.863   2.602 -1.0035  0.2585  0.2680
 4797poe     o222997   3.816   1.760   2.507 -0.0437 -0.0226  0.7402
 4797poe    c2322998   3.761   1.638   2.550  0.4787 -0.6440 -0.3040
 4797poe    c2322999   3.815   1.514   2.478  0.5798 -0.4912 -0.4899
 4797poe     o223000   3.761   1.501   2.348 -0.2744 -0.0101 -0.1853
 4797poe    c2323001   3.758   1.371   2.293  0.2335 -0.0887 -0.0313
 4797poe    c2323002   3.762   1.394   2.141 -0.5985 -0.4058 -0.1045
 4797poe     o223003   3.675   1.492   2.090 -0.4648  0.0567  0.5420
 4797poe    c3123004   3.572   1.437   2.011 -0.0990 -0.2115  0.2526
 4798poe    c3123005   0.135   0.953   0.849 -0.6602  0.5854  0.7256
 4798poe     o223006   0.019   0.905   0.785 -0.2477  0.7948 -0.1855
 4798poe    c2323007  -0.071   0.846   0.875  0.4119 -0.0398 -0.0666
 4798poe    c2323008  -0.200   0.926   0.900  0.3705 -0.0335 -0.2996
 4798poe     o223009  -0.285   0.904   0.791  0.3309  0.9168 -0.4742
 4798poe    c2323010  -0.421   0.936   0.812  0.1505  0.0265 -0.2248
 4798poe    c2323011  -0.507   0.904   0.688  0.0438 -0.1373 -0.1092
 4798poe     o223012  -0.470   0.981   0.576  0.1457  0.0265  0.0355
 4798poe    c2323013  -0.534   0.924   0.464 -0.3080 -0.0944  0.3554
 4798poe    c2323014  -0.535   1.020   0.344  0.3751 -0.6638 -0.1127
 4798poe     o223015  -0.402   1.038   0.300  0.3584 -0.1091  0.0584
 4798poe    c3123016  -0.404   1.134   0.197  0.4044 -0.0893  0.0756
 4799poe    c3123017   4.548   4.873   7.533 -0.2944 -0.1275 -0.1269
 4799poe     o223018   4.655   4.823   7.455  0.0263  0.2018  0.0969
 4799poe    c2323019   4.702   4.707   7.520  0.4587  0.2077 -0.2081
 4799poe    c2323020   4.819   4.714   7.621  0.4407  0.1043 -0.1808
 4799poe     o223021   4.746   4.746   7.737  0.1970 -0.0669 -0.2849
 4799poe    c2323022   4.818   4.729   7.857 -0.8578 -0.5568  0.2962
 4799poe    c2323023   4.719   4.742   7.974 -0.3427  0.1728  0.6602
 4799poe     o223024   4.672   4.873   7.998  0.3677  0.4758  0.4236
 4799poe    c2323025   4.547   4.867   8.062  0.3306  0.0790  0.3185
 4799poe    c2323026   4.512   5.010   8.107  0.5534 -0.0665  0.9715
 4799poe     o223027   4.477   5.107   8.010  0.0921 -0.2405  0.9613
 4799poe    c3123028   4.345   5.104   7.962  0.5260  0.5968 -0.3273
 4800poe    c3123029   1.648   0.582   0.879 -0.0754 -0.6315 -0.3812
 4800poe     o223030   1.599   0.467   0.943 -0.1268 -0.2794  0.2188
 4800poe    c2323031   1.563   0.495   1.076 -0.1642 -0.1591  0.1832
 4800poe    c2323032   1.412   0.475   1.097 -0.2486  0.2400 -0.0224
 4800poe     o223033   1.362   0.346   1.067  0.1193  0.2015 -0.4803
 4800poe    c2323034   1.224   0.352   1.039 -0.0573 -0.2711  0.2563
 4800poe    c2323035   1.201   0.352   0.887  0.2888 -0.1347  0.2034
 4800poe     o223036   1.209   0.480   0.829  0.2937 -0.2881 -0.1370
 4800poe    c2323037   1.283   0.475   0.709 -0.1410  0.0179 -0.4215
 4800poe    c2323038   1.295   0.618   0.654 -0.0616 -0.0417 -0.5618
 4800poe     o223039   1.381   0.710   0.719 -0.0323 -0.3255 -0.1962
 4800poe    c3123040   1.395   0.835   0.655 -0.2634 -0.3944 -0.3847
 4801poe    c3123041   1.778   0.128   5.529 -0.1775 -0.2548  1.0084
 4801poe     o223042   1.882   0.165   5.442 -0.9205 -0.0893  0.1832
 4801poe    c2323043   2.003   0.138   5.508 -0.4329 -0.0956 -0.7045
 4801poe    c2323044   2.100   0.243   5.450  0.0156  0.1023  0.3879
 4801poe     o223045   2.068   0.266   5.315  0.2393 -0.8397  0.1726
 4801poe    c2323046   2.146   0.361   5.246 -0.4906 -0.1709  0.2620
 4801poe    c2323047   2.112   0.376   5.097 -0.2287 -0.0159  0.2175
 4801poe     o223048   1.973   0.359   5.083 -0.1463 -0.3644 -0.2182
 4801poe    c2323049   1.944   0.313   4.953  0.4699 -0.3254 -0.3711
 4801poe    c2323050   1.796   0.294   4.915  0.3798 -0.7028  0.1633
 4801poe     o223051   1.728   0.176   4.952  0.2803 -0.6917  0.0181
 4801poe    c3123052   1.594   0.168   4.909  0.4053 -1.1067 -0.2960
 4802poe    c3123053   4.098   3.506   7.223 -0.4086  0.4029  0.1493
 4802poe     o223054   4.217   3.554   7.166 -0.3089  0.1835  0.1706
 4802poe    c2323055   4.315   3.553   7.267 -0.0108 -0.1214 -0.1217
 4802poe    c2323056   4.442   3.626   7.218  0.3544 -0.6866 -0.0366
 4802poe     o223057   4.444   3.761   7.177  0.3388 -0.7733 -0.3238
 4802poe    c2323058   4.547   3.836   7.237 -0.4589 -0.2783  0.4581
 4802poe    c2323059   4.574   3.982   7.198 -0.3698 -0.1765  0.8943
 4802poe     o223060   4.482   4.074   7.253 -0.8413 -0.4045  0.4975
 4802poe    c2323061   4.485   4.098   7.392 -0.3728 -0.2626  0.4641
 4802poe    c2323062   4.622   4.117   7.460 -0.0732  0.3000 -0.2786
 4802poe     o223063   4.684   4.231   7.405  0.0336  0.0660 -0.6512
 4802poe    c3123064   4.804   4.253   7.475 -0.3730 -0.4318  0.2273
 4803poe    c3123065   6.064   4.346   7.443 -0.4128 -0.7702 -0.0006
 4803poe     o223066   6.069   4.373   7.581  0.2589  0.0198 -0.1668
 4803poe    c2323067   6.206   4.398   7.601  0.3443 -0.1318 -0.5525
 4803poe    c2323068   6.221   4.539   7.662  1.0100 -0.1532 -0.6634
 4803poe     o223069   6.190   4.627   7.556 -0.9223 -0.0424 -0.0474
 4803poe    c2323070   6.186   4.766   7.576 -0.2967 -0.0923  0.4421
 4803poe    c2323071   6.324   4.830   7.604 -0.1542  0.1517 -0.7529
 4803poe     o223072   6.421   4.818   7.503  0.7753 -0.6472  0.2013
 4803poe    c2323073   6.543   4.879   7.540  0.4060  0.0657  0.2584
 4803poe    c2323074   6.648   4.861   7.430  0.4701 -0.1706  0.3574
 4803poe     o223075   6.693   4.727   7.434  0.2960 -0.2302  0.3450
 4803poe    c3123076   6.766   4.703   7.315  0.1648  0.4379  0.1278
 4804poe    c3123077   0.136   0.567   0.606  0.0075 -0.2067 -0.4468
 4804poe     o223078   0.010   0.522   0.561 -0.1852 -0.2658  0.1483
 4804poe    c2323079  -0.084   0.539   0.664 -0.7977 -0.0392 -0.4448
 4804poe    c2323080  -0.180   0.419   0.676 -0.2135 -0.4611  0.0969
 4804poe     o223081  -0.255   0.401   0.558 -0.0697 -0.0590 -0.0554
 4804poe    c2323082  -0.286   0.265   0.544 -0.8349  0.1005  0.0258
 4804poe    c2323083  -0.399   0.234   0.444 -0.1875 -0.5955 -0.5050
 4804poe     o223084  -0.385   0.228   0.304 -0.1139  0.2701 -0.5370
 4804poe    c2323085  -0.513   0.212   0.247 -0.5473 -0.5029  0.6117
 4804poe    c2323086  -0.558   0.324   0.151  0.1958 -0.0410  0.7898
 4804poe     o223087  -0.594   0.450   0.203  0.3342  0.1761  0.3619
 4804poe    c3123088  -0.613   0.543   0.099  0.3596 -0.2451 -0.0215
 4805poe    c3123089   1.021   2.849   3.605  0.1520 -0.2318 -0.9267
 4805poe     o223090   0.895   2.907   3.632  0.3209 -0.3641  0.1667
 4805poe    c2323091   0.871   2.994   3.524  0.1724  0.5989  0.9592
 4805poe    c2323092   0.727   3.047   3.517 -0.1614 -0.3858  0.1266
 4805poe     o223093   0.623   2.954   3.539  0.0715 -0.7084 -0.1220
 4805poe    c2323094   0.506   3.022   3.499 -0.0344 -0.6533  0.2806
 4805poe    c2323095   0.397   3.002   3.607  0.1605 -0.0539  0.5922
 4805poe     o223096   0.387   2.861   3.611 -0.2468 -0.0298  0.4296
 4805poe    c2323097   0.301   2.822   3.715 -0.2184 -0.2229  0.3803
 4805poe    c2323098   0.319   2.669   3.716  0.1048 -0.1894 -0.1700
 4805poe     o223099   0.452   2.634   3.746 -0.0017  0.1503  0.7211
 4805poe    c3123100   0.463   2.509   3.810  0.7400 -0.3831 -0.4149
 4806poe    c3123101   1.606   2.256   5.158  0.0457 -0.0224 -0.4615
 4806poe     o223102   1.525   2.331   5.245  0.1891 -0.1660 -0.2035
 4806poe    c2323103   1.527   2.267   5.371  0.2141 -1.1152 -0.6809
 4806poe    c2323104   1.454   2.344   5.482  0.7196 -0.6414 -0.6695
 4806poe     o223105   1.541   2.433   5.549 -0.5265 -0.1889  0.4023
 4806poe    c2323106   1.484   2.443   5.677  0.1106 -0.0836  0.6779
 4806poe    c2323107   1.559   2.558   5.748  0.1536  0.1130  0.3109
 4806poe     o223108   1.696   2.530   5.765  0.1097 -0.0698  0.3648
 4806poe    c2323109   1.765   2.649   5.795 -0.2085  0.2001  0.0360
 4806poe    c2323110   1.893   2.659   5.710 -0.1959  0.8554  0.1240
 4806poe     o223111   1.902   2.646   5.570 -0.1925 -0.2994  0.2234
 4806poe    c3123112   2.029   2.595   5.534 -0.6424 -0.7303 -0.7816
 4807poe    c3123113   5.975   0.793   4.894 -0.5746 -0.9089  0.4978
 4807poe     o223114   5.871   0.863   4.829 -0.0328 -0.6182 -0.0643
 4807poe    c2323115   5.781   0.773   4.767  0.0977 -0.6448 -0.2166
 4807poe    c2323116   5.813   0.742   4.620  0.1078 -0.0205 -0.3495
 4807poe     o223117   5.788   0.858   4.543 -0.2180 -0.3368 -0.7310
 4807poe    c2323118   5.657   0.869   4.493 -0.2566  0.1285 -0.5341
 4807poe    c2323119   5.645   1.004   4.418 -0.3469  0.1882 -0.4132
 4807poe     o223120   5.643   1.112   4.508  0.7548 -0.0870 -0.0412
 4807poe    c2323121   5.621   1.232   4.438 -0.2593 -0.2664 -0.0437
 4807poe    c2323122   5.635   1.355   4.530  0.5458 -0.4352  0.0667
 4807poe     o223123   5.768   1.403   4.531  0.5030 -0.3003 -0.4630
 4807poe    c3123124   5.774   1.504   4.433  0.1937 -0.2178 -0.4014
 4808poe    c3123125   3.466   6.639   3.503  0.3055 -0.5771 -0.4963
 4808poe     o223126   3.562   6.741   3.487 -0.1216 -0.1681 -0.4683
 4808poe    c2323127   3.521   6.828   3.383 -0.0255  0.1913 -0.2085
 4808poe    c2323128   3.609   6.946   3.339  0.1965 -0.1858 -0.7820
 4808poe     o223129   3.612   7.048   3.437  0.2032 -0.5656 -0.3866
 4808poe    c2323130   3.723   7.134   3.441  0.0351 -0.3793  0.4121
 4808poe    c2323131   3.728   7.254   3.537  0.3337 -0.4910  0.5351
 4808poe     o223132   3.764   7.214   3.668  0.0086  0.2861  0.8659
 4808poe    c2323133   3.756   7.318   3.763  0.0655  0.6674  0.4567
 4808poe    c2323134   3.789   7.278   3.908  0.1680  0.1425  0.2902
 4808poe     o223135   3.732   7.155   3.944  0.1066 -0.0161 -0.3258
 4808poe    c3123136   3.718   7.138   4.084  0.1636 -0.2700 -0.3498
 4809poe    c3123137   3.947   1.978   6.136 -0.9116 -0.4242 -0.3624
 4809poe     o223138   3.919   1.942   6.270 -0.3498  0.6291  0.0460
 4809poe    c2323139   3.932   1.806   6.304 -0.2892  0.8014  0.7300
 4809poe    c2323140   3.978   1.778   6.448  0.2692  0.4012  0.4770
 4809poe     o223141   3.868   1.809   6.530  0.1932  0.1942  0.4553
 4809poe    c2323142   3.895   1.776   6.664 -0.0000 -0.6061  0.2997
 4809poe    c2323143   3.781   1.837   6.747 -0.4946 -0.0831 -0.7380
 4809poe     o223144   3.653   1.778   6.737 -0.2905 -0.5812 -0.4907
 4809poe    c2323145   3.624   1.650   6.788 -0.4329 -0.3270  0.0747
 4809poe    c2323146   3.477   1.608   6.771 -0.5815  0.1046  0.2934
 4809poe     o223147   3.428   1.616   6.638 -0.3994 -0.0968  0.2147
 4809poe    c3123148   3.298   1.565   6.658  0.0221 -0.9886  0.7494
 4810poe    c3123149   3.152   7.600   6.919 -0.1017 -0.0169 -0.4424
 4810poe     o223150   3.016   7.569   6.940 -0.1632 -0.0047 -0.8312
 4810poe    c2323151   3.012   7.478   7.047 -0.0135  0.4852 -0.4085
 4810poe    c2323152   2.879   7.458   7.123  0.0482  0.5203 -0.2902
 4810poe     o223153   2.827   7.581   7.167 -0.3071  0.0997  0.4771
 4810poe    c2323154   2.706   7.551   7.233 -0.1891 -0.7601  0.3138
 4810poe    c2323155   2.639   7.671   7.303 -0.0728 -0.2960 -0.3611
 4810poe     o223156   2.713   7.713   7.414 -0.2929 -0.1188 -0.2809
 4810poe    c2323157   2.665   7.832   7.474  0.2885  0.1525 -0.3438
 4810poe    c2323158   2.780   7.885   7.562  0.2081 -0.5983  0.2238
 4810poe     o223159   2.895   7.867   7.482  0.1205 -0.8320  0.1488
 4810poe    c3123160   3.000   7.930   7.552  0.0740 -0.2563 -0.2869
 4811poe    c3123161   3.626   5.901   4.588  0.0415  0.0563 -0.8252
 4811poe     o223162   3.763   5.922   4.563  0.2439 -0.5118 -0.2205
 4811poe    c2323163   3.834   5.859   4.668  0.2810 -0.7067 -0.3629
 4811poe    c2323164   3.971   5.925   4.689  0.0968 -0.4054 -0.1097
 4811poe     o223165   4.050   5.912   4.572  0.1521  0.0544 -0.1259
 4811poe    c2323166   4.179   5.965   4.595  0.2618 -0.0813 -0.4409
 4811poe    c2323167   4.290   5.860   4.611 -0.0378 -0.2406  0.6794
 4811poe     o223168   4.413   5.929   4.604  0.0674 -0.5266 -0.5195
 4811poe    c2323169   4.512   5.846   4.661  0.3778 -0.2818 -0.6988
 4811poe    c2323170   4.640   5.912   4.715 -0.0840 -0.1683  0.2883
 4811poe     o223171   4.731   5.940   4.611  0.3717 -0.2217  0.6661
 4811poe    c3123172   4.849   5.997   4.663  0.2533  0.3089  0.3543
 4812poe    c3123173   2.257   4.779   7.618  0.2997 -0.0936  0.5594
 4812poe     o223174   2.311   4.656   7.661  0.0208 -0.0871  0.9284
 4812poe    c2323175   2.409   4.629   7.563 -0.4915 -0.4737  0.5210
 4812poe    c2323176   2.473   4.489   7.563 -0.1731 -0.3317 -0.5552
 4812poe     o223177   2.405   4.371   7.526 -0.5829 -0.0925 -0.5651
 4812poe    c2323178   2.486   4.271   7.469 -0.2648  0.0103 -0.2920
 4812poe    c2323179   2.473   4.264   7.316 -0.0549 -0.0881 -0.3060
 4812poe     o223180   2.339   4.231   7.286 -0.0425  0.0268 -0.4875
 4812poe    c2323181   2.331   4.164   7.162  0.1948 -0.5695 -0.1871
 4812poe    c2323182   2.180   4.170   7.135  0.1840 -0.0356 -0.0169
 4812poe     o223183   2.119   4.294   7.165  0.0734 -0.0593 -0.1378
 4812poe    c3123184   2.003   4.329   7.094 -0.1336 -0.0628  0.1942
 4813poe    c3123185   2.096   3.467   1.419 -0.0274  0.3764  0.0898
 4813poe     o223186   2.042   3.457   1.289  0.1918 -0.5925  0.0599
 4813poe    c2323187   1.943   3.356   1.289 -0.4761  0.0499 -0.0292
 4813poe    c2323188   1.820   3.365   1.196  0.0391 -0.6961 -0.8018
 4813poe     o223189   1.864   3.355   1.063  1.1829 -0.3535 -0.4682
 4813poe    c2323190   1.822   3.229   1.015  0.6254 -0.4866  0.3538
 4813poe    c2323191   1.853   3.198   0.868  0.0371  0.6187 -0.0113
 4813poe     o223192   1.973   3.134   0.830 -0.1265  0.1757  0.2054
 4813poe    c2323193   1.954   3.114   0.691 -0.5245 -0.4587  0.3470
 4813poe    c2323194   2.055   3.005   0.654 -0.1844 -0.1210  0.2723
 4813poe     o223195   1.999   2.876   0.669  0.1299 -0.3241 -0.2501
 4813poe    c3123196   2.101   2.780   0.680  0.4042  0.0493  0.5563
 4814poe    c3123197   2.869   3.589   6.850  0.7989 -0.9199  0.4137
 4814poe     o223198   2.740   3.550   6.892  0.3365  0.6114  0.4799
 4814poe    c2323199   2.732   3.427   6.960 -0.1528  0.5241  0.2675
 4814poe    c2323200   2.591   3.382   7.003 -0.2201  0.3294 -0.1589
 4814poe     o223201   2.511   3.350   6.891 -0.1983  0.3072 -0.1682
 4814poe    c2323202   2.522   3.215   6.854  0.3005  0.2554  0.1578
 4814poe    c2323203   2.445   3.183   6.724  0.6415  0.5247 -0.1128
 4814poe     o223204   2.332   3.268   6.730  0.3078  0.0761  0.0317
 4814poe    c2323205   2.270   3.275   6.604 -0.1875  0.4053  0.2930
 4814poe    c2323206   2.193   3.406   6.576 -0.4477  0.1354 -0.2671
 4814poe     o223207   2.280   3.512   6.608 -0.2748 -0.2975  0.7394
 4814poe    c3123208   2.257   3.642   6.560  0.0553 -0.6710 -0.4494
 4815poe    c3123209   6.256   3.741   0.463 -0.1544  0.0198  0.3704
 4815poe     o223210   6.128   3.753   0.404  0.0143  0.3011  0.0568
 4815poe    c2323211   6.091   3.882   0.363  0.4258  0.1082 -0.9415
 4815poe    c2323212   5.999   3.865   0.241 -0.3543  0.0485 -0.3527
 4815poe     o223213   5.916   3.751   0.253  0.1179 -0.2887 -0.2767
 4815poe    c2323214   5.868   3.717   0.125 -0.4194  0.4660 -0.2818
 4815poe    c2323215   5.778   3.592   0.120 -0.0722  0.1882  0.3419
 4815poe     o223216   5.866   3.485   0.147 -0.1322  0.0228 -0.1175
 4815poe    c2323217   5.821   3.352   0.147 -0.1282  0.0206  0.0633
 4815poe    c2323218   5.784   3.293   0.284 -0.0706  0.3323  0.2130
 4815poe     o223219   5.887   3.322   0.376 -0.1757  0.4266  0.3015
 4815poe    c3123220   5.867   3.253   0.497 -0.3251  0.7752  0.4758
 4816poe    c3123221   2.595   2.309   2.267  0.2950  0.0997  0.0788
 4816poe     o223222   2.701   2.396   2.230 -0.1117  0.4600 -0.2470
 4816poe    c2323223   2.663   2.531   2.225  0.0529  0.4919 -0.6236
 4816poe    c2323224   2.749   2.633   2.148  0.5009  0.3863 -0.2618
 4816poe     o223225   2.760   2.583   2.017 -0.3400 -0.4816 -0.0047
 4816poe    c2323226   2.895   2.564   1.982 -0.5247 -1.4516 -0.2283
 4816poe    c2323227   2.929   2.556   1.832  0.5029 -0.1054 -0.0850
 4816poe     o223228   2.902   2.435   1.765 -0.4398  0.0567 -0.0079
 4816poe    c2323229   2.933   2.435   1.628 -0.2618  0.2249  0.0321
 4816poe    c2323230   2.921   2.295   1.564 -0.2916 -0.0676  0.6751
 4816poe     o223231   2.796   2.269   1.504  0.2296 -0.5941 -0.2080
 4816poe    c3123232   2.793   2.282   1.364 -0.4033  0.0342 -0.1414
 4817poe    c3123233   5.669   1.946   4.467 -0.6741 -0.1118 -0.2573
 4817poe     o223234   5.702   2.069   4.407  0.0781 -0.4220 -0.4879
 4817poe    c2323235   5.838   2.108   4.419 -0.0074 -0.1596 -0.3472
 4817poe    c2323236   5.878   2.229   4.332  0.2112  0.0958  0.1058
 4817poe     o223237   5.821   2.352   4.368 -0.1923 -0.0999  0.1497
 4817poe    c2323238   5.847   2.447   4.267  0.0412 -0.0154  0.2872
 4817poe    c2323239   5.779   2.584   4.285 -0.0484  0.0210 -0.2874
 4817poe     o223240   5.643   2.583   4.250  0.0160 -0.2666 -0.5308
 4817poe    c2323241   5.605   2.592   4.114  0.0233 -0.2651 -0.5326
 4817poe    c2323242   5.532   2.725   4.087  0.1297  0.0233  0.5673
 4817poe     o223243   5.632   2.822   4.109  0.7615 -0.4692 -0.1232
 4817poe    c3123244   5.588   2.937   4.040  0.3580 -0.5923 -0.0753
 4818poe    c3123245   0.613   3.946   0.790  0.1210 -0.0890  0.2887
 4818poe     o223246   0.632   4.066   0.718 -0.2340 -0.0652  0.2310
 4818poe    c2323247   0.595   4.058   0.582  0.8471  0.4951 -0.1082
 4818poe    c2323248   0.550   4.189   0.516  0.0652 -0.0176 -0.6001
 4818poe     o223249   0.443   4.258   0.578  0.3890  0.1698 -0.2489
 4818poe    c2323250   0.419   4.372   0.498 -0.0765  0.0309 -0.3092
 4818poe    c2323251   0.310   4.452   0.572  0.2281  0.3089 -0.1588
 4818poe     o223252   0.348   4.467   0.707 -0.3490 -0.5044  0.1015
 4818poe    c2323253   0.243   4.520   0.786 -0.3806 -0.0415 -0.2468
 4818poe    c2323254   0.261   4.494   0.936  0.4888  0.4713 -0.2536
 4818poe     o223255   0.322   4.372   0.968 -0.4004 -0.0401 -0.4656
 4818poe    c3123256   0.347   4.384   1.106  0.3901  0.0034 -0.6041
 4819poe    c3123257   6.227   7.466   1.782 -0.1097  0.3147 -0.4787
 4819poe     o223258   6.348   7.536   1.771  0.2798 -0.4171 -0.9384
 4819poe    c2323259   6.449   7.468   1.843 -0.2883  0.0788  0.3533
 4819poe    c2323260   6.579   7.550   1.840 -0.1197 -0.1997  0.0458
 4819poe     o223261   6.567   7.669   1.913 -0.8131  0.0121 -0.4083
 4819poe    c2323262   6.632   7.777   1.850 -0.1319 -0.3286 -0.2988
 4819poe    c2323263   6.602   7.908   1.926 -0.2920 -0.2389 -0.5141
 4819poe     o223264   6.476   7.963   1.894 -0.1482  0.3849 -0.0250
 4819poe    c2323265   6.470   8.091   1.953  0.5012  0.0738  0.7299
 4819poe    c2323266   6.383   8.192   1.876  0.1977 -0.2327  0.6696
 4819poe     o223267   6.440   8.233   1.754 -0.5735  0.3401  0.4950
 4819poe    c3123268   6.357   8.321   1.683 -0.4567 -0.6989 -0.9693
 4820poe    c3123269   5.638   1.042   1.078  0.5669  0.6265 -0.3269
 4820poe     o223270   5.690   1.035   0.948 -0.1178 -0.3116 -0.5589
 4820poe    c2323271   5.664   1.150   0.871  0.2577  0.1032 -0.0725
 4820poe    c2323272   5.523   1.176   0.814  0.4352 -0.4121 -0.7600
 4820poe     o223273   5.457   1.076   0.740  0.1436 -0.8002  0.0042
 4820poe    c2323274   5.504   1.079   0.607 -0.2806  0.6157 -0.1303
 4820poe    c2323275   5.444   0.968   0.519 -0.1286  0.5662 -0.1716
 4820poe     o223276   5.311   0.980   0.476 -0.2886  0.4170  0.2744
 4820poe    c2323277   5.287   1.072   0.372 -0.0253  0.4026  0.2012
 4820poe    c2323278   5.272   1.013   0.230  0.2680  0.4992  0.1284
 4820poe     o223279   5.161   0.927   0.216  0.7445 -0.1609  0.3213
 4820poe    c3123280   5.184   0.800   0.160  0.0557  0.1268 -0.6251
 4821poe    c3123281   6.472   7.408   4.201 -0.3555 -0.3409 -0.6836
 4821poe     o223282   6.471   7.549   4.196  0.0987 -0.3457 -0.8647
 4821poe    c2323283   6.589   7.608   4.246 -0.0020 -0.4447 -0.5105
 4821poe    c2323284   6.562   7.760   4.255  0.4105 -0.3902 -0.1252
 4821poe     o223285   6.505   7.787   4.381  0.2557 -0.0570 -0.2665
 4821poe    c2323286   6.480   7.925   4.366  0.0402  0.0093  0.6887
 4821poe    c2323287   6.386   7.985   4.473 -0.6208  0.2056  0.0072
 4821poe     o223288   6.262   7.919   4.459 -0.0584 -0.9865  0.4621
 4821poe    c2323289   6.156   7.969   4.539 -0.1471  0.1874 -0.3565
 4821poe    c2323290   6.027   7.933   4.463 -0.3394  0.1607 -0.0169
 4821poe     o223291   6.053   7.809   4.402  0.5678  0.1089  0.4555
 4821poe    c3123292   5.938   7.747   4.349  0.6543 -0.3738  0.8275
 4822poe    c3123293   4.518   1.532   6.480 -0.4851 -0.7591  0.1584
 4822poe     o223294   4.588   1.418   6.435  0.3190 -0.0384 -0.4609
 4822poe    c2323295   4.502   1.316   6.390  0.2458 -0.2100  0.0532
 4822poe    c2323296   4.459   1.226   6.507 -0.3478  0.3281  0.2600
 4822poe     o223297   4.580   1.186   6.568  0.1050  0.4063 -0.5633
 4822poe    c2323298   4.547   1.074   6.647  0.5929  0.5775 -0.1046
 4822poe    c2323299   4.670   1.015   6.719  0.2802  0.0743  0.0263
 4822poe     o223300   4.755   0.947   6.630  0.3676  0.0610  0.1208
 4822poe    c2323301   4.866   0.882   6.689 -0.0246 -0.4673  0.2763
 4822poe    c2323302   4.962   0.834   6.578  0.1339 -0.2118  0.3027
 4822poe     o223303   5.012   0.944   6.505 -0.2323 -0.1268  0.1720
 4822poe    c3123304   5.044   0.905   6.373  0.3179 -0.1329  0.3039
 4823poe    c3123305   0.522   1.421   7.581 -0.4519  0.3081 -0.4076
 4823poe     o223306   0.436   1.314   7.549  0.1161 -0.2080 -0.2404
 4823poe    c2323307   0.511   1.195   7.555  0.0911 -0.1880  0.5831
 4823poe    c2323308   0.440   1.062   7.524  0.5121 -0.2493 -0.1512
 4823poe     o223309   0.344   1.003   7.610 -0.1552  0.2141 -0.5714
 4823poe    c2323310   0.214   1.055   7.592 -0.1178  0.2604 -0.7114
 4823poe    c2323311   0.093   0.981   7.651  0.0369  0.2702 -0.3782
 4823poe     o223312   0.060   0.866   7.576 -0.1516  0.1357 -0.0919
 4823poe    c2323313  -0.080   0.850   7.578 -0.1012 -0.2259  0.5819
 4823poe    c2323314  -0.145   0.718   7.532 -0.6508 -0.0119  0.7361
 4823poe     o223315  -0.142   0.608   7.620 -0.4878 -0.1202  0.5956
 4823poe    c3123316  -0.250   0.521   7.593  0.1537 -0.8321  0.2959
 4824poe    c3123317   2.072   7.541   0.300  0.1088  0.2440 -0.3073
 4824poe     o223318   1.970   7.456   0.255 -0.6227  0.4074  0.9866
 4824poe    c2323319   1.844   7.515   0.275 -0.9997  0.2203 -0.7066
 4824poe    c2323320   1.719   7.426   0.270 -0.3023 -0.7684 -0.6709
 4824poe     o223321   1.671   7.400   0.139 -0.2615 -0.7150 -0.6962
 4824poe    c2323322   1.532   7.376   0.144 -0.3731 -0.0491 -0.3218
 4824poe    c2323323   1.466   7.336   0.011 -0.7074  0.2712 -0.2527
 4824poe     o223324   1.528   7.218  -0.036 -0.3023  0.4431 -0.1519
 4824poe    c2323325   1.522   7.203  -0.177  0.2814 -0.5014 -0.0852
 4824poe    c2323326   1.518   7.059  -0.231 -0.4891 -0.3493 -0.4511
 4824poe     o223327   1.652   7.016  -0.240 -0.1833  0.4658  0.1037
 4824poe    c3123328   1.657   6.887  -0.298  0.0769  0.2441  0.6156
 4825poe    c3123329   3.453   4.098   4.071 -0.1178  0.1025  0.2505
 4825poe     o223330   3.462   3.964   4.116  0.2821 -0.1944 -0.6909
 4825poe    c2323331   3.585   3.942   4.182  0.0139  0.3338 -0.0043
 4825poe    c2323332   3.614   3.810   4.257  0.5062  0.2148 -0.4013
 4825poe     o223333   3.588   3.692   4.185 -0.2828  0.4381 -0.4897
 4825poe    c2323334   3.538   3.598   4.277 -0.0554  0.2342 -0.5748
 4825poe    c2323335   3.475   3.475   4.209  0.2997 -0.0279 -0.4343
 4825poe     o223336   3.369   3.505   4.121  0.1166  0.3379 -0.0935
 4825poe    c2323337   3.288   3.392   4.097  0.0426  0.2455  0.5782
 4825poe    c2323338   3.175   3.439   4.004  0.2623 -0.1502  0.1074
 4825poe     o223339   3.247   3.517   3.911 -0.3893  0.4655  0.1090
 4825poe    c3123340   3.166   3.543   3.799 -0.4625 -0.9211 -0.1806
 4826poe    c3123341   6.654   0.626   3.624 -0.2423  0.3884  0.3850
 4826poe     o223342   6.683   0.570   3.750 -0.1549  0.4122  0.3755
 4826poe    c2323343   6.592   0.472   3.793  0.1685 -0.0336  0.0565
 4826poe    c2323344   6.582   0.476   3.947 -0.2951 -0.1522  0.0316
 4826poe     o223345   6.714   0.483   3.996 -0.1885  0.1442 -0.2903
 4826poe    c2323346   6.709   0.520   4.132  0.1151 -0.8164 -0.0114
 4826poe    c2323347   6.850   0.486   4.184  0.2007  0.3018  0.5183
 4826poe     o223348   6.943   0.547   4.097 -0.2685  0.1429 -0.1026
 4826poe    c2323349   7.058   0.546   4.179 -0.0269 -0.5231 -0.4451
 4826poe    c2323350   7.200   0.557   4.120  0.1503  0.2426  0.1087
 4826poe     o223351   7.218   0.674   4.045  0.0205  0.5644  0.5752
 4826poe    c3123352   7.356   0.697   4.022 -0.1080  0.6794 -0.0960
 4827poe    c3123353   5.965   1.386   7.059 -0.3903 -0.0780  0.3241
 4827poe     o223354   5.855   1.458   7.109 -0.4547 -0.1269  0.2515
 4827poe    c2323355   5.753   1.478   7.014 -0.4636  0.3617  0.3596
 4827poe    c2323356   5.626   1.552   7.058 -0.4834  0.1878  0.5982
 4827poe     o223357   5.541   1.469   7.133 -0.1204  0.0060  0.8115
 4827poe    c2323358   5.411   1.522   7.152 -0.1109  0.1677  0.4333
 4827poe    c2323359   5.349   1.470   7.283 -0.1271  0.4318  0.5323
 4827poe     o223360   5.315   1.333   7.278  0.7339  0.2147  0.3188
 4827poe    c2323361   5.296   1.293   7.412  0.1036  0.5317  0.3309
 4827poe    c2323362   5.223   1.158   7.423  0.4187  0.2877 -0.5060
 4827poe     o223363   5.293   1.049   7.366 -0.3171 -0.2325 -0.4317
 4827poe    c3123364   5.294   0.948   7.464  0.2040 -0.0215 -0.2131
 4828poe    c3123365   5.647   0.577   1.935 -0.0567 -0.4049  0.2732
 4828poe     o223366   5.561   0.467   1.922 -0.3292 -0.1377 -0.2213
 4828poe    c2323367   5.505   0.438   2.048 -0.2248  0.4825 -0.0283
 4828poe    c2323368   5.404   0.322   2.035 -0.0214  0.2523  0.4198
 4828poe     o223369   5.457   0.201   1.985  0.2014  0.3209  0.4879
 4828poe    c2323370   5.353   0.108   1.969  0.1662  0.4043  0.2103
 4828poe    c2323371   5.395  -0.035   1.929  0.0449  0.4752 -0.1665
 4828poe     o223372   5.444  -0.122   2.028 -0.0952 -0.1116 -0.6044
 4828poe    c2323373   5.579  -0.100   2.063 -0.1566 -0.5066 -0.1053
 4828poe    c2323374   5.655  -0.229   2.027 -0.3294 -0.5774 -0.2238
 4828poe     o223375   5.701  -0.248   1.895 -0.1511 -0.3377 -0.1977
 4828poe    c3123376   5.733  -0.384   1.876 -0.1118 -0.3804  0.1679
 4829poe    c3123377   5.579   1.569   0.509 -0.3195  0.3416 -0.6082
 4829poe     o223378   5.667   1.679   0.523 -0.2235  0.2456 -0.4572
 4829poe    c2323379   5.645   1.737   0.650  0.1279 -0.6898  0.0431
 4829poe    c2323380   5.744   1.842   0.705  0.1908 -0.3792 -0.6495
 4829poe     o223381   5.724   1.952   0.619 -0.5658  0.2840  0.3501
 4829poe    c2323382   5.800   2.065   0.654  0.3634 -0.1298 -0.2766
 4829poe    c2323383   5.754   2.166   0.761 -0.4071 -0.0544 -0.6732
 4829poe     o223384   5.648   2.249   0.721 -0.9872 -0.5069 -0.0910
 4829poe    c2323385   5.567   2.288   0.829 -0.6078 -0.6235  0.2360
 4829poe    c2323386   5.422   2.332   0.801 -0.3067  0.1297 -0.1386
 4829poe     o223387   5.322   2.240   0.766 -0.2492  0.2334 -0.5849
 4829poe    c3123388   5.362   2.155   0.661 -0.1117  0.1107 -0.4334
 4830poe    c3123389   7.521   4.475   1.068  0.0944 -0.2472 -0.3407
 4830poe     o223390   7.498   4.598   1.134 -0.5094 -0.5255 -0.0197
 4830poe    c2323391   7.521   4.572   1.271 -0.1909 -0.2908 -0.0275
 4830poe    c2323392   7.474   4.681   1.369 -0.0262  0.1506 -0.4385
 4830poe     o223393   7.556   4.796   1.362  0.3708 -0.0793  0.4367
 4830poe    c2323394   7.470   4.906   1.345  0.5751  0.0782  0.4183
 4830poe    c2323395   7.530   5.044   1.314 -0.1925  0.3403  0.0647
 4830poe     o223396   7.569   5.063   1.180 -0.2207  0.1804  0.0344
 4830poe    c2323397   7.659   5.171   1.172 -0.0086 -0.0008 -0.0234
 4830poe    c2323398   7.681   5.231   1.032  0.3559 -0.5956 -0.2266
 4830poe     o223399   7.802   5.202   0.966  0.3596  0.1205 -0.5388
 4830poe    c3123400   7.807   5.299   0.864  0.4986  0.7508  0.0597
 4831poe    c3123401   3.934   7.545   1.388  0.6313  0.0695 -0.0677
 4831poe     o223402   3.815   7.621   1.396  0.4794 -0.0921 -0.6839
 4831poe    c2323403   3.708   7.538   1.358  0.0267 -0.3336  1.0157
 4831poe    c2323404   3.575   7.615   1.339  0.4012  0.1319  0.2107
 4831poe     o223405   3.534   7.681   1.457 -0.4400 -0.6838  0.3875
 4831poe    c2323406   3.473   7.601   1.555 -0.4314 -0.4659  0.5719
 4831poe    c2323407   3.321   7.588   1.531 -0.3319  0.0170 -0.3706
 4831poe     o223408   3.290   7.483   1.442 -0.6329  0.0075 -0.2556
 4831poe    c2323409   3.201   7.388   1.495 -0.3852  0.1859  0.4958
 4831poe    c2323410   3.166   7.260   1.416  0.0554  0.1827  0.3036
 4831poe     o223411   3.258   7.159   1.448  0.0314 -0.0692 -0.4014
 4831poe    c3123412   3.193   7.036   1.473  0.1470  0.0171  0.3652
 4832poe    c3123413   0.044   2.336   0.610 -0.5985 -0.2295  0.0698
 4832poe     o223414  -0.012   2.207   0.598 -0.1222 -0.4592  0.2984
 4832poe    c2323415  -0.040   2.137   0.717  0.0774 -0.0634  0.5814
 4832poe    c2323416  -0.184   2.082   0.716  0.0302  0.0673 -0.1180
 4832poe     o223417  -0.277   2.187   0.703 -0.0296 -0.0014 -0.2424
 4832poe    c2323418  -0.398   2.122   0.671  0.2763 -0.5166 -0.3665
 4832poe    c2323419  -0.471   2.213   0.570 -0.2071 -0.5080 -0.0161
 4832poe     o223420  -0.410   2.195   0.444 -0.2670  0.0863 -0.1336
 4832poe    c2323421  -0.482   2.137   0.338  0.0184 -0.4127 -0.0613
 4832poe    c2323422  -0.581   2.230   0.265  0.0964 -0.1262  0.1927
 4832poe     o223423  -0.519   2.297   0.158 -0.4130 -0.0454 -0.0564
 4832poe    c3123424  -0.618   2.309   0.058  0.2017 -0.1328 -0.6838
 4833poe    c3123425   3.727   0.398   3.250  0.0708 -0.3150  0.2479
 4833poe     o223426   3.626   0.438   3.340 -0.6967 -0.3867 -0.5623
 4833poe    c2323427   3.560   0.551   3.287 -0.3963 -0.3817 -0.9272
 4833poe    c2323428   3.499   0.631   3.404  0.7705 -0.1951 -0.4306
 4833poe     o223429   3.591   0.716   3.468  0.2739 -0.3351  0.4870
 4833poe    c2323430   3.537   0.842   3.501  0.1548 -0.3807  0.4638
 4833poe    c2323431   3.630   0.916   3.599  0.3356  0.1469 -0.1045
 4833poe     o223432   3.757   0.944   3.545  0.4997 -0.3256  0.0321
 4833poe    c2323433   3.817   1.034   3.635  0.3982  0.3257 -0.5420
 4833poe    c2323434   3.945   1.089   3.570  0.4475  0.6765 -0.1506
 4833poe     o223435   3.927   1.163   3.451 -0.2993  0.1478 -0.3698
 4833poe    c3123436   3.890   1.296   3.478  0.0098  0.0328  0.6841
 4834poe    c3123437   7.505   6.868   3.155 -0.2999 -0.8407 -0.3020
 4834poe     o223438   7.462   6.820   3.029  0.5307 -0.4225 -0.7555
 4834poe    c2323439   7.394   6.920   2.955 -0.3438  0.1269  0.7376
 4834poe    c2323440   7.242   6.893   2.952 -0.3156  0.0437 -0.0033
 4834poe     o223441   7.208   6.771   2.890 -0.2817 -0.0758  0.2154
 4834poe    c2323442   7.083   6.725   2.935 -0.0725 -0.5587  0.3106
 4834poe    c2323443   7.085   6.630   3.057 -0.0742  0.4041  1.0680
 4834poe     o223444   7.148   6.505   3.049 -0.4321  0.2820 -0.1381
 4834poe    c2323445   7.096   6.402   2.968 -0.2747 -0.0091  0.1278
 4834poe    c2323446   7.174   6.272   2.995  0.2424  0.2771  0.0224
 4834poe     o223447   7.169   6.240   3.132 -0.0481 -0.6485 -0.1952
 4834poe    c3123448   7.199   6.103   3.142  0.5854 -0.5123 -0.2076
 4835poe    c3123449   0.351   6.683   0.700 -0.2900 -0.2046  0.2625
 4835poe     o223450   0.361   6.670   0.840 -0.2625 -0.2476  0.2563
 4835poe    c2323451   0.493   6.632   0.872 -0.2848 -0.6310 -0.0967
 4835poe    c2323452   0.508   6.546   0.999 -0.1794 -0.4343  0.0237
 4835poe     o223453   0.641   6.532   1.044 -0.3069  0.1218  0.6067
 4835poe    c2323454   0.678   6.422   1.124 -0.5676 -0.7443 -0.4224
 4835poe    c2323455   0.614   6.452   1.262 -0.1632 -0.2359 -0.3414
 4835poe     o223456   0.671   6.557   1.336  0.3887 -0.7213 -0.0741
 4835poe    c2323457   0.596   6.606   1.445  0.6508 -0.1700 -0.1398
 4835poe    c2323458   0.668   6.580   1.578 -0.1698 -0.1916  0.3090
 4835poe     o223459   0.796   6.639   1.582 -0.1898 -0.1568  0.4592
 4835poe    c3123460   0.875   6.580   1.682  0.2312 -0.1519  0.1371
 4836poe    c3123461   7.426   2.866   5.154 -0.2843 -0.1098  0.4816
 4836poe     o223462   7.347   2.749   5.159 -0.1895 -0.1929  0.0487
 4836poe    c2323463   7.213   2.779   5.187 -0.1127  0.4411 -0.2487
 4836poe    c2323464   7.137   2.646   5.170  0.4699  0.0937 -0.1553
 4836poe     o223465   7.227   2.543   5.205  0.1876 -0.0668  0.1095
 4836poe    c2323466   7.173   2.424   5.152  0.0178 -0.0339  0.2090
 4836poe    c2323467   7.278   2.317   5.118 -0.0319  0.0975 -0.3670
 4836poe     o223468   7.374   2.376   5.033  0.1090  0.1262 -0.1898
 4836poe    c2323469   7.421   2.286   4.935  0.1192 -0.0630 -0.0133
 4836poe    c2323470   7.573   2.308   4.924  0.0922  0.2169  0.1893
 4836poe     o223471   7.636   2.312   5.050  0.4185  0.0272  0.0306
 4836poe    c3123472   7.777   2.305   5.043  0.4019 -0.1430 -0.1569
 4837poe    c3123473   0.074   4.227   5.133  0.1444 -0.3478 -0.0791
 4837poe     o223474   0.205   4.208   5.084  0.1376 -0.8814  0.1018
 4837poe    c2323475   0.248   4.311   4.998 -0.4237 -0.7310  0.0022
 4837poe    c2323476   0.232   4.276   4.849 -0.1632 -0.2111 -0.1491
 4837poe     o223477   0.094   4.273   4.820 -0.3474  0.2239  0.6536
 4837poe    c2323478   0.060   4.229   4.691  0.3399  0.1717  0.4858
 4837poe    c2323479   0.101   4.085   4.653  0.4894  0.3622 -0.0885
 4837poe     o223480   0.229   4.087   4.593  0.1176 -0.0734 -0.9016
 4837poe    c2323481   0.298   3.966   4.612 -0.1292 -0.0701  0.0861
 4837poe    c2323482   0.443   3.975   4.561 -0.2644 -0.1676 -0.3174
 4837poe     o223483   0.459   3.975   4.421 -0.0861  0.2748 -0.2974
 4837poe    c3123484   0.429   4.101   4.365 -0.3795  0.4355  0.2205
 4838poe    c3123485   6.296   4.142   7.273  0.2727  0.2358 -0.4130
 4838poe     o223486   6.347   4.152   7.404 -0.3086 -0.3445 -0.1371
 4838poe    c2323487   6.374   4.022   7.452  0.8228 -0.0974 -0.0645
 4838poe    c2323488   6.483   4.013   7.560  0.1531 -0.7881  0.5675
 4838poe     o223489   6.470   4.110   7.661 -0.3306  0.0541 -0.2987
 4838poe    c2323490   6.381   4.084   7.766 -0.4080  0.5037 -0.2492
 4838poe    c2323491   6.449   3.989   7.866 -0.0654  0.3657 -0.6160
 4838poe     o223492   6.553   4.049   7.939  0.1008 -0.3449 -0.2543
 4838poe    c2323493   6.646   3.965   8.004 -0.3991 -0.1054  0.7872
 4838poe    c2323494   6.792   3.981   7.958 -0.4178 -0.3627  0.6407
 4838poe     o223495   6.869   4.066   8.040 -0.2742  0.3288 -0.1910
 4838poe    c3123496   7.006   4.072   8.008 -0.1932 -0.7706 -0.1035
 4839poe    c3123497   6.926   4.444   5.760 -0.1457 -0.2723  0.6412
 4839poe     o223498   6.789   4.476   5.762 -0.0609  0.0937  0.6613
 4839poe    c2323499   6.778   4.594   5.686  0.4745  0.1259  0.6298
 4839poe    c2323500   6.636   4.653   5.693  0.3059 -0.0982 -0.6100
 4839poe     o223501   6.609   4.779   5.638  0.5737  0.2221 -0.0216
 4839poe    c2323502   6.468   4.794   5.633  0.5333 -0.1566 -0.0266
 4839poe    c2323503   6.416   4.927   5.576  0.4668 -0.1487  0.0523
 4839poe     o223504   6.433   5.010   5.689  0.1812 -0.1141  0.0690
 4839poe    c2323505   6.357   5.126   5.663  0.9259  0.3118 -0.2337
 4839poe    c2323506   6.266   5.184   5.772  0.3304 -0.0752 -0.5175
 4839poe     o223507   6.158   5.270   5.740  0.1901  0.1940  0.6173
 4839poe    c3123508   6.092   5.321   5.853 -0.4992  0.3017  0.1721
 4840poe    c3123509   5.180   5.415   7.375 -0.3467  0.2124  1.1446
 4840poe     o223510   5.302   5.345   7.364 -0.4923  0.0893  0.2513
 4840poe    c2323511   5.337   5.317   7.230  0.1452  0.2590  0.3793
 4840poe    c2323512   5.455   5.218   7.221  0.0844  0.2154  0.0618
 4840poe     o223513   5.411   5.084   7.213 -0.3578  0.3775 -0.2639
 4840poe    c2323514   5.530   5.010   7.222 -0.5009  0.2095  0.2923
 4840poe    c2323515   5.487   4.863   7.205 -0.1557  0.0598  0.7027
 4840poe     o223516   5.401   4.804   7.300 -0.5424 -0.3917  0.0783
 4840poe    c2323517   5.432   4.669   7.321  0.2286 -0.2626 -0.2029
 4840poe    c2323518   5.376   4.617   7.455 -0.1690  0.3929 -0.1119
 4840poe     o223519   5.235   4.603   7.454 -0.0909 -0.5034  0.5312
 4840poe    c3123520   5.187   4.582   7.585  0.5870  0.0180  0.8763
 4841poe    c3123521   3.155   5.210   5.478  0.3127  1.1517 -0.1847
 4841poe     o223522   3.253   5.235   5.576 -0.2942  0.6164  0.5765
 4841poe    c2323523   3.246   5.356   5.647 -0.4010  1.0148 -0.1038
 4841poe    c2323524   3.334   5.462   5.578  0.6015  0.2060 -0.0767
 4841poe     o223525   3.474   5.448   5.568  0.5793  0.0606 -0.1861
 4841poe    c2323526   3.517   5.558   5.491 -0.2896  0.7100  0.2433
 4841poe    c2323527   3.537   5.520   5.344  0.1370  0.5420  0.3411
 4841poe     o223528   3.420   5.488   5.271  0.3399  0.3264  0.1063
 4841poe    c2323529   3.437   5.473   5.132 -0.2722 -0.2608  0.0885
 4841poe    c2323530   3.306   5.440   5.059 -0.0283  0.6669 -0.7868
 4841poe     o223531   3.205   5.529   5.101 -0.1691  0.1235  0.0698
 4841poe    c3123532   3.105   5.451   5.161 -0.3883 -0.1282 -0.6129
 4842poe    c3123533   2.519   3.455   1.860 -0.4595  0.0710  0.4466
 4842poe     o223534   2.444   3.504   1.752 -0.1448 -0.1017  0.1454
 4842poe    c2323535   2.525   3.554   1.648 -0.0477 -0.2477  0.1513
 4842poe    c2323536   2.454   3.590   1.516  0.3602 -0.3468 -0.0981
 4842poe     o223537   2.359   3.694   1.517  0.4338 -0.2779 -0.2929
 4842poe    c2323538   2.409   3.826   1.522 -0.0683 -0.1098  0.3223
 4842poe    c2323539   2.290   3.923   1.510 -0.3141 -0.4250  0.2045
 4842poe     o223540   2.212   3.914   1.628 -0.1399  0.7690  0.4201
 4842poe    c2323541   2.121   4.017   1.659 -0.7515  0.5700 -0.6433
 4842poe    c2323542   2.012   3.966   1.755 -0.1012  0.0180 -0.1871
 4842poe     o223543   2.080   3.878   1.841 -0.2183  0.3746  0.2693
 4842poe    c3123544   2.012   3.848   1.961 -0.8501  0.0039 -0.1760
 4843poe    c3123545   6.081   2.114   7.476 -0.2415 -0.3279  0.2470
 4843poe     o223546   6.190   2.196   7.510 -0.2842 -0.1746  0.0156
 4843poe    c2323547   6.156   2.333   7.513  0.0619 -0.0993  0.7147
 4843poe    c2323548   6.245   2.428   7.431 -0.0025 -0.2502  0.4685
 4843poe     o223549   6.378   2.427   7.477  0.3656 -0.1069 -0.5668
 4843poe    c2323550   6.470   2.465   7.377  0.0731  0.3264 -0.6750
 4843poe    c2323551   6.539   2.596   7.420 -0.3395  0.2877  0.1242
 4843poe     o223552   6.615   2.564   7.535  0.0420  0.0238 -0.1969
 4843poe    c2323553   6.680   2.681   7.578  0.5209 -0.1761 -0.3759
 4843poe    c2323554   6.775   2.634   7.689 -0.0580  0.3914  0.3724
 4843poe     o223555   6.697   2.554   7.774 -0.5254 -0.0732 -0.4793
 4843poe    c3123556   6.777   2.529   7.887  0.0041  0.9514 -0.6226
 4844poe    c3123557   2.677   2.370   6.993 -0.4543  0.3520 -0.1244
 4844poe     o223558   2.637   2.251   7.059 -0.6964  0.1652 -0.6018
 4844poe    c2323559   2.720   2.149   7.008 -0.4001  0.1653 -0.1195
 4844poe    c2323560   2.636   2.020   6.998 -0.5201  0.2405 -0.0827
 4844poe     o223561   2.524   2.022   6.913 -0.3034  0.3029 -0.3705
 4844poe    c2323562   2.499   1.886   6.888 -0.6200  0.2811  0.0472
 4844poe    c2323563   2.389   1.861   6.783  0.0475 -0.1065 -0.5647
 4844poe     o223564   2.282   1.947   6.814  0.0846 -0.2449 -0.0576
 4844poe    c2323565   2.179   1.932   6.719  0.2276 -0.1587 -0.2246
 4844poe    c2323566   2.084   2.053   6.729  0.6269  0.1364  0.0499
 4844poe     o223567   2.173   2.158   6.759 -0.0475  0.8744 -0.4694
 4844poe    c3123568   2.115   2.286   6.756 -0.4458  0.6993 -0.2340
 4845poe    c3123569   0.196   4.253   3.842  0.8533  0.2157  0.1998
 4845poe     o223570   0.076   4.326   3.857  0.7665  0.0564  0.2927
 4845poe    c2323571   0.113   4.463   3.853 -0.2136  0.3050 -0.7419
 4845poe    c2323572   0.007   4.554   3.919 -0.0872 -0.0325 -0.0619
 4845poe     o223573  -0.124   4.521   3.879 -0.1964 -0.3345  0.5374
 4845poe    c2323574  -0.205   4.625   3.929 -0.6692 -0.3694 -0.1468
 4845poe    c2323575  -0.349   4.595   3.978 -0.5305 -0.5867  0.1332
 4845poe     o223576  -0.343   4.500   4.082  0.3561 -0.4859  0.1865
 4845poe    c2323577  -0.475   4.457   4.106  0.0693  0.1899 -0.1683
 4845poe    c2323578  -0.495   4.452   4.258  0.9543  0.3963 -0.0419
 4845poe     o223579  -0.458   4.326   4.308 -0.5010 -0.3127 -0.6894
 4845poe    c3123580  -0.551   4.222   4.292 -0.0253 -0.7905 -0.4132
 4846poe    c3123581   0.468   3.911   6.477 -0.4019  0.2399 -0.4605
 4846poe     o223582   0.336   3.894   6.432 -0.4767 -0.1634 -0.0961
 4846poe    c2323583   0.272   3.798   6.515  0.0010 -0.2303  0.1973
 4846poe    c2323584   0.124   3.791   6.473 -0.0485  0.7926  0.1664
 4846poe     o223585   0.096   3.709   6.362  0.0839  0.0180  0.6963
 4846poe    c2323586   0.106   3.789   6.246 -0.6160 -0.8056  0.0480
 4846poe    c2323587   0.022   3.728   6.133  0.0460 -1.0013 -0.3440
 4846poe     o223588  -0.113   3.703   6.167  0.0856  0.1168  0.7315
 4846poe    c2323589  -0.194   3.676   6.055  0.6471  0.2042  0.2960
 4846poe    c2323590  -0.341   3.648   6.094  0.6177  0.0339  0.0664
 4846poe     o223591  -0.364   3.723   6.211  0.2305 -0.6047  0.4023
 4846poe    c3123592  -0.500   3.739   6.243  0.0212 -1.2434 -0.1416
 4847poe    c3123593   2.082   5.290   7.132 -0.3416  0.2823 -0.1455
 4847poe     o223594   2.002   5.329   7.241  0.3961  0.1431  0.4564
 4847poe    c2323595   1.969   5.464   7.222  0.4018  0.0356 -0.3887
 4847poe    c2323596   1.922   5.548   7.343 -0.2242  0.6060 -1.0141
 4847poe     o223597   1.782   5.538   7.359 -0.0630  0.3270  0.3100
 4847poe    c2323598   1.716   5.653   7.313 -0.1811  0.2005  0.1632
 4847poe    c2323599   1.563   5.666   7.328 -0.1953  0.9235 -0.5400
 4847poe     o223600   1.487   5.560   7.276  0.0448  0.2986  0.3516
 4847poe    c2323601   1.393   5.621   7.190 -0.0885 -0.2405  0.1148
 4847poe    c2323602   1.323   5.536   7.082 -0.6571 -0.0119  0.3015
 4847poe     o223603   1.254   5.429   7.142 -0.0583 -0.4976  0.1284
 4847poe    c3123604   1.187   5.334   7.062  0.4477 -0.0486 -0.8401
 4848poe    c3123605   0.775   0.978   2.174  0.1619 -0.2896  0.1294
 4848poe     o223606   0.777   0.994   2.034  0.0926  1.0261  0.2687
 4848poe    c2323607   0.640   1.007   2.001  0.0276 -0.3188 -0.0440
 4848poe    c2323608   0.616   1.084   1.870 -0.3091  0.0602  0.2377
 4848poe     o223609   0.674   1.213   1.878 -0.2165  0.0339  0.0109
 4848poe    c2323610   0.697   1.287   1.760  0.1746  0.1344  0.1481
 4848poe    c2323611   0.712   1.436   1.794 -0.3869  0.2396 -0.0677
 4848poe     o223612   0.840   1.430   1.852 -0.0817  0.0404 -0.7527
 4848poe    c2323613   0.916   1.549   1.853  0.1306 -0.0967 -0.0875
 4848poe    c2323614   0.874   1.686   1.908  0.2548 -0.0385 -0.1382
 4848poe     o223615   0.801   1.683   2.029 -0.0704  0.0309 -0.3323
 4848poe    c3123616   0.737   1.807   2.050 -0.1886  0.0384 -0.7198
 4849poe    c3123617   0.316   0.424   6.014 -0.3211  0.5892 -0.1390
 4849poe     o223618   0.429   0.509   6.024 -0.1087  0.2880  0.0370
 4849poe    c2323619   0.420   0.591   5.910  0.3713 -0.2645 -0.4015
 4849poe    c2323620   0.541   0.682   5.881  0.0440  0.3691  0.2064
 4849poe     o223621   0.532   0.772   5.990  0.2741  0.1750  0.3852
 4849poe    c2323622   0.654   0.826   6.034 -0.0897  0.7529  0.7005
 4849poe    c2323623   0.636   0.946   6.128  0.5605  0.8691  0.6841
 4849poe     o223624   0.571   0.905   6.246 -0.0882  0.2039  0.0997
 4849poe    c2323625   0.648   0.913   6.363  0.0148  0.0610  0.0427
 4849poe    c2323626   0.549   0.910   6.481 -0.2515  0.1178 -0.1792
 4849poe     o223627   0.481   0.787   6.487 -0.2905  0.1277 -0.3904
 4849poe    c3123628   0.504   0.709   6.602  0.7000  1.0220  0.0370
 4850poe    c3123629   6.512   6.636   3.992  0.3755  0.6166  0.2236
 4850poe     o223630   6.545   6.531   4.080  0.1903  0.2167 -0.1829
 4850poe    c2323631   6.666   6.553   4.149  0.3308  0.0041 -0.3585
 4850poe    c2323632   6.714   6.433   4.232 -0.6452 -0.0305  0.1760
 4850poe     o223633   6.721   6.305   4.172  0.4434 -0.0956  0.4233
 4850poe    c2323634   6.761   6.213   4.271 -0.4753 -0.5194  0.4010
 4850poe    c2323635   6.712   6.073   4.228 -0.2138 -0.4579 -0.1032
 4850poe     o223636   6.747   6.038   4.096  0.5585 -0.2675  0.0442
 4850poe    c2323637   6.705   5.908   4.060  0.1565 -0.3242  0.6961
 4850poe    c2323638   6.734   5.887   3.910  0.2606 -0.5073  0.7396
 4850poe     o223639   6.716   6.022   3.871  0.2529 -0.6622  0.2134
 4850poe    c3123640   6.692   6.017   3.732 -0.4782  0.3255  0.2965
 4851poe    c3123641   3.387   4.919   7.371  0.2641 -0.2138 -0.5801
 4851poe     o223642   3.493   5.012   7.376  0.0625 -0.0246  0.2523
 4851poe    c2323643   3.574   4.976   7.486  0.4179  0.4507  0.1497
 4851poe    c2323644   3.721   5.009   7.454  0.6276 -0.5126  0.0987
 4851poe     o223645   3.748   5.147   7.464 -0.3751 -0.2830 -0.2623
 4851poe    c2323646   3.830   5.180   7.573  0.3540 -0.3652 -0.7829
 4851poe    c2323647   3.873   5.328   7.580 -0.2660 -0.1919 -0.6200
 4851poe     o223648   3.764   5.416   7.596  0.0828  0.1295 -0.0009
 4851poe    c2323649   3.760   5.462   7.729 -1.0412 -0.2111  0.0901
 4851poe    c2323650   3.654   5.573   7.741 -0.2370  0.5188  0.5385
 4851poe     o223651   3.694   5.692   7.676 -0.3507  0.1269 -0.2555
 4851poe    c3123652   3.599   5.795   7.689  0.4137  0.8151 -0.0984
 4852poe    c3123653   1.637   7.565   2.547 -0.3677 -0.4737 -0.1338
 4852poe     o223654   1.619   7.684   2.473  0.7113 -0.3394 -0.1952
 4852poe    c2323655   1.602   7.653   2.337 -0.1025  0.2336 -0.2295
 4852poe    c2323656   1.609   7.777   2.246  0.3592  0.0830 -0.4024
 4852poe     o223657   1.730   7.835   2.288  0.1579  0.3841 -0.2288
 4852poe    c2323658   1.744   7.963   2.230 -0.1573  0.2949 -0.5034
 4852poe    c2323659   1.867   8.038   2.285 -0.3538  0.1899  0.0843
 4852poe     o223660   1.859   8.001   2.421 -0.2740 -0.7106 -0.1512
 4852poe    c2323661   1.920   8.106   2.492 -0.3273 -0.5417 -0.3534
 4852poe    c2323662   1.948   8.053   2.634 -0.1908  0.1393 -0.1222
 4852poe     o223663   1.834   8.008   2.704  0.2377 -0.3126  0.2931
 4852poe    c3123664   1.875   7.995   2.838  0.1936 -0.3376  0.3042
 4853poe    c3123665   7.606   4.449   7.241  0.0390 -0.2310 -0.1381
 4853poe     o223666   7.710   4.446   7.336  0.0569 -0.5456 -0.1652
 4853poe    c2323667   7.668   4.374   7.450  0.3243 -0.5456 -0.0649
 4853poe    c2323668   7.713   4.430   7.586 -0.1215  0.1534 -0.1947
 4853poe     o223669   7.819   4.359   7.648  0.0347  0.4659 -0.1039
 4853poe    c2323670   7.895   4.444   7.732  0.5515  0.0162 -0.1172
 4853poe    c2323671   8.047   4.465   7.718  0.4812  0.5521 -0.0680
 4853poe     o223672   8.134   4.355   7.727  0.0177  0.2188  0.3392
 4853poe    c2323673   8.272   4.376   7.712  0.0056 -0.0077 -0.1089
 4853poe    c2323674   8.347   4.247   7.677 -0.1710 -0.1613  0.0793
 4853poe     o223675   8.317   4.187   7.553  0.3910 -0.1665 -0.0567
 4853poe    c3123676   8.235   4.072   7.562 -0.1248  0.2015 -0.0061
 4854poe    c3123677   4.213   3.647   2.091  0.3158  1.2748 -0.9237
 4854poe     o223678   4.263   3.622   1.962  0.3011 -0.6586 -0.5836
 4854poe    c2323679   4.403   3.612   1.954  0.3876  0.0041  0.0348
 4854poe    c2323680   4.450   3.720   1.855  0.2077 -0.0024 -0.0567
 4854poe     o223681   4.374   3.704   1.737  0.3302  0.4299 -0.1995
 4854poe    c2323682   4.424   3.629   1.629  0.3670  0.0762  0.0575
 4854poe    c2323683   4.314   3.650   1.523  0.3843 -0.0384  0.0168
 4854poe     o223684   4.184   3.622   1.570  0.3460 -0.1025 -0.1289
 4854poe    c2323685   4.102   3.596   1.458  0.5552 -0.5763 -0.1723
 4854poe    c2323686   4.058   3.448   1.459  0.0757 -0.4364 -0.3112
 4854poe     o223687   3.990   3.407   1.576 -0.3695 -0.1472 -0.4652
 4854poe    c3123688   3.927   3.282   1.558 -0.6630  0.0430 -0.7799
 4855poe    c3123689   0.357   1.860   6.786  0.1217  0.0451  0.4046
 4855poe     o223690   0.403   1.786   6.675 -0.3425  0.1038  0.1680
 4855poe    c2323691   0.405   1.871   6.563 -0.2272  0.4778  0.4545
 4855poe    c2323692   0.356   1.799   6.437 -0.0473  0.5253  0.3570
 4855poe     o223693   0.216   1.777   6.438  0.0246  0.0078 -0.2795
 4855poe    c2323694   0.164   1.718   6.321 -0.0731 -0.0839 -0.1903
 4855poe    c2323695   0.014   1.687   6.340  0.0518 -0.3787  0.3299
 4855poe     o223696  -0.022   1.576   6.419 -0.3814 -0.0556  0.5944
 4855poe    c2323697  -0.157   1.543   6.438 -0.3907 -0.5336 -0.2693
 4855poe    c2323698  -0.176   1.405   6.505 -0.3378 -0.3158  0.1946
 4855poe     o223699  -0.128   1.408   6.637  0.2429  0.0625 -0.0221
 4855poe    c3123700  -0.140   1.282   6.698 -0.0330  0.0408 -0.1227
 4856poe    c3123701   6.814   1.252   3.763 -0.0845 -0.1349  0.1348
 4856poe     o223702   6.932   1.193   3.714  0.0526 -0.1883  0.5234
 4856poe    c2323703   6.925   1.053   3.729  0.0061 -0.2125  0.2760
 4856poe    c2323704   7.033   0.983   3.644  0.2313  0.4308  0.0324
 4856poe     o223705   7.073   0.857   3.691  0.1830  0.3500 -0.1420
 4856poe    c2323706   7.181   0.806   3.617 -0.1546 -0.5002 -0.0632
 4856poe    c2323707   7.197   0.656   3.648  0.3274 -0.2539  0.9218
 4856poe     o223708   7.079   0.578   3.649  0.1015  0.0919  1.4002
 4856poe    c2323709   7.084   0.440   3.622  0.0212  0.3926 -0.1977
 4856poe    c2323710   6.946   0.379   3.654  0.3836 -0.1950  0.2592
 4856poe     o223711   6.906   0.388   3.789 -0.5100  0.0330 -0.0123
 4856poe    c3123712   6.929   0.276   3.872  0.1175 -0.1168 -0.3823
 4857poe    c3123713   4.497   0.848   0.975  0.9188  0.1628  0.0270
 4857poe     o223714   4.523   0.779   1.096  0.6856  0.1577  0.0749
 4857poe    c2323715   4.568   0.648   1.069 -0.3706 -0.1631 -0.1821
 4857poe    c2323716   4.584   0.582   1.207 -0.0884  0.7645  0.2342
 4857poe     o223717   4.479   0.490   1.228  0.7996 -0.2721  0.2093
 4857poe    c2323718   4.371   0.561   1.283  0.2114 -0.6100 -0.4877
 4857poe    c2323719   4.262   0.461   1.326 -0.7162  0.3138 -0.6277
 4857poe     o223720   4.211   0.411   1.204 -0.2738 -0.5924 -0.4585
 4857poe    c2323721   4.105   0.323   1.233 -0.3269 -0.3587  0.0733
 4857poe    c2323722   4.019   0.278   1.113  0.6822  0.2329 -0.8827
 4857poe     o223723   4.084   0.170   1.050  0.2366 -0.2671 -0.4885
 4857poe    c3123724   3.992   0.139   0.948 -0.1987 -0.1972 -0.1251
 4858poe    c3123725   3.589   1.880   3.161  0.6108 -0.6683 -0.6943
 4858poe     o223726   3.599   1.990   3.073 -0.5144 -0.0880 -0.1151
 4858poe    c2323727   3.709   2.074   3.099 -0.3607 -0.0894 -0.7518
 4858poe    c2323728   3.727   2.161   2.972  0.8814  0.5951 -0.1235
 4858poe     o223729   3.616   2.247   2.970  0.0523 -0.4561 -0.1003
 4858poe    c2323730   3.590   2.309   2.846  0.0848 -0.1344  0.0526
 4858poe    c2323731   3.457   2.382   2.869  0.2268  0.0586  0.2738
 4858poe     o223732   3.360   2.298   2.928  0.2101  0.1187  0.3310
 4858poe    c2323733   3.229   2.349   2.913 -0.0052 -0.5389 -0.0670
 4858poe    c2323734   3.126   2.245   2.959 -0.5562 -0.2001 -0.5307
 4858poe     o223735   3.151   2.198   3.090 -0.3780  0.1421 -0.4422
 4858poe    c3123736   3.049   2.106   3.122 -0.3835  0.0782 -0.6421
 4859poe    c3123737   0.614   1.733   5.995 -0.7205 -0.3123  0.1741
 4859poe     o223738   0.609   1.764   5.857 -0.5130  0.0180  0.2422
 4859poe    c2323739   0.532   1.671   5.786 -0.3298  0.0095  0.0542
 4859poe    c2323740   0.531   1.709   5.637  0.2095  0.1168  0.0757
 4859poe     o223741   0.507   1.848   5.632  0.0617  0.0922  0.0835
 4859poe    c2323742   0.478   1.888   5.500 -0.1536  0.0232  0.1096
 4859poe    c2323743   0.440   2.037   5.511  0.6522  0.2220  0.2511
 4859poe     o223744   0.542   2.096   5.589  0.3475  0.1337  0.7230
 4859poe    c2323745   0.519   2.232   5.618  0.8096  0.2657  0.4872
 4859poe    c2323746   0.562   2.338   5.515 -0.2160  0.4449  0.2327
 4859poe     o223747   0.503   2.314   5.389 -0.1235 -0.4556  0.3560
 4859poe    c3123748   0.373   2.365   5.375  0.2568  0.4610  0.0937
 4860poe    c3123749   5.580   5.316   0.500  0.0018 -0.6573  0.8082
 4860poe     o223750   5.695   5.311   0.420 -0.0597  0.0252  0.6747
 4860poe    c2323751   5.723   5.174   0.401  0.0280  0.0076  0.9224
 4860poe    c2323752   5.871   5.152   0.363 -0.1648  0.1186  0.0861
 4860poe     o223753   5.962   5.190   0.464 -0.0358  0.1768 -0.0512
 4860poe    c2323754   6.085   5.124   0.446 -0.0198  0.1554  0.1330
 4860poe    c2323755   6.198   5.229   0.431  0.1543 -0.1279 -0.5825
 4860poe     o223756   6.217   5.327   0.530  0.1319 -0.2399 -0.4670
 4860poe    c2323757   6.355   5.353   0.525  0.1800 -0.3704  0.1378
 4860poe    c2323758   6.404   5.480   0.599 -0.2439  0.0208 -0.2510
 4860poe     o223759   6.380   5.606   0.540  0.0760  0.0958 -0.2222
 4860poe    c3123760   6.441   5.722   0.592 -0.2651  0.1167  0.1360
 4861lim     li23761   3.680   1.929   0.210  1.5683 -0.4385 -0.1645
 4862lim     li23762   1.931   6.815   2.671  1.0665  0.8622  1.4157
 4863lim     li23763   4.048   6.036   3.685 -0.3113 -1.0758  0.6789
 4864lim     li23764   0.468   0.552   6.186 -0.0628  0.5542 -1.0461
 4865lim     li23765   0.474   6.357   6.476 -0.4911 -1.0743  0.3782
 4866lim     li23766   3.263   5.493   7.300  0.3945  0.1041  0.2386
 4867lim     li23767   6.385   1.739   5.033 -0.0609 -0.6849 -1.3049
 4868lim     li23768   6.034   2.745   0.107  0.3993 -0.5134  1.4763
 4869lim     li23769   7.267   3.126   4.374  1.1088 -0.0935  0.0666
 4870lim     li23770   1.779   2.673   5.421 -0.7352  0.0440  1.0667
 4871lim     li23771   5.725   6.875   4.902 -0.4045 -0.6642  0.9659
 4872lim     li23772   6.881   4.047   6.703 -0.0372 -0.7369 -0.7386
 4873lim     li23773   6.083   3.778   5.729  0.5025 -0.4533 -0.4149
 4874lim     li23774   4.974   4.844   7.170  0.7231  0.8821 -0.6435
 4875lim     li23775   3.941   5.266   4.985 -0.9798 -0.4286  0.4536
 4876lim     li23776   0.591   0.693   1.584 -1.3418  0.4128 -1.1410
 4877lim     li23777   1.976   4.386   5.206  0.9092 -0.1049  0.1086
 4878lim     li23778   1.704   3.676   3.035  0.8146 -0.2990  0.8092
 4879lim     li23779   3.409   2.123   5.897  1.1805  0.1709 -0.5974
 4880lim     li23780   0.256   1.170   2.082  0.4701 -0.1542  0.8638
 4881lim     li23781   4.791   6.814   4.142 -1.2186  0.2888  0.0343
 4882lim     li23782   0.005   2.812   2.582 -1.7854  0.1051  0.7294
 4883lim     li23783   6.745   6.158   3.966  0.3092  0.1158 -0.9620
 4884lim     li23784   7.360   2.906   2.072  0.0503  0.2091 -0.9258
 4885lim     li23785   7.150   4.808   2.295 -1.4639  0.6393 -0.5948
 4886lim     li23786   2.476   1.826   1.292 -0.6725 -0.4708 -0.5203
 4887lim     li23787   2.743   0.296   2.029  0.4465 -1.2977  0.4778
 4888lim     li23788   4.863   5.792   5.112 -0.2690 -0.7596 -0.0843
 4889lim     li23789   3.676   6.700   0.270  0.7138  0.2413 -1.2516
 4890lim     li23790   3.134   4.885   5.931 -0.2304  0.4357  0.9611
 4891lim     li23791   5.466   6.696   2.008 -0.3819 -1.0036  0.3231
 4892lim     li23792   7.509   4.597   4.755 -0.3940 -0.1927  0.6398
 4893lim     li23793   7.090   7.028   6.737  1.3488  0.5962  0.6097
 4894lim     li23794   5.100   3.837   0.626 -1.4915 -0.1993  0.6466
 4895lim     li23795   5.116   7.520   4.243 -0.9428 -0.2723  0.6089
 4896lim     li23796   2.036   1.720   0.114 -0.7976  0.8289  0.9218
 4897lim     li23797   0.782   2.712   6.148 -0.8220  0.0811 -0.6626
 4898lim     li23798   6.864   0.532   3.212  0.4599 -0.0912  0.5339
 4899lim     li23799   4.352   2.214   5.344 -0.5522 -0.6380 -0.1962
 4900lim     li23800   2.222   3.795   1.756 -0.4541  0.3277  0.9902
 4901lim     li23801   1.871   0.475   7.025 -0.2578  0.2863  0.2689
 4902lim     li23802   0.101   0.357   4.226 -0.7023 -0.4441 -0.2689
 4903lim     li23803   2.381   4.449   5.842 -0.8800  0.4690 -0.1269
 4904lim     li23804   0.889   6.897   1.290  0.3263  0.8410 -0.8984
 4905lim     li23805   2.218   2.421   3.558 -0.7661  0.8584  0.4355
 4906lim     li23806   7.114   0.030   6.537 -0.8297  0.9300 -0.5483
 4907lim     li23807   0.204   3.537   7.215 -0.3081 -0.4802  0.7013
 4908lim     li23808   1.216   1.395   2.800  0.1006 -0.0047  0.2966
 4909lim     li23809   4.876   3.653   5.889  0.3989  0.8104 -0.6611
 4910lim     li23810   6.667   0.582   6.789  0.4129 -0.2213 -0.6112
 4911lim     li23811   2.106   4.436   2.613  0.2502  0.0858 -0.6153
 4912lim     li23812   1.568   1.112   2.173  0.1217 -0.1471 -0.4206
 4913lim     li23813   4.978   1.022   5.258 -0.2674  0.9259  0.0007
 4914lim     li23814   2.337   2.703   5.245  0.2871 -0.8616  0.0680
 4915lim     li23815   6.615   7.072   5.463 -0.8989  0.3443 -0.1497
 4916lim     li23816   3.799   3.117   6.231  0.2480  0.9152  0.7412
 4917lim     li23817   3.615   2.962   2.259  0.7350  0.0047  1.3623
 4918lim     li23818   7.033   6.137   5.600  0.3032  0.5326  0.6865
 4919lim     li23819   6.597   7.195   0.988 -0.9567  0.4496  1.4478
 4920lim     li23820   1.074   1.190   1.754 -0.6537  0.2450  0.0897
 4921lim     li23821   1.311   5.785   0.455 -0.5489 -0.4547 -1.1351
 4922lim     li23822   6.051   5.444   0.545  0.2901 -0.8549  1.0677
 4923lim     li23823   6.717   1.416   5.961  0.8605 -0.2032  0.4280
 4924lim     li23824   2.663   0.885   1.545 -1.4475  0.2777  0.0755
 4925lim     li23825   6.357   7.012   7.019  0.1771 -0.4488  0.4188
 4926lim     li23826   3.157   1.268   3.532  0.4654  0.9166  0.7299
 4927lim     li23827   5.154   1.160   6.906 -0.1990 -0.2277  0.1114
 4928lim     li23828   1.475   3.859   0.744  0.7667  1.5801 -0.2411
 4929lim     li23829   5.216   3.038   3.051 -0.0903  0.7030 -1.1081
 4930lim     li23830   4.604   2.766   7.199  0.2635  0.7663 -0.3304
 4931lim     li23831   1.028   6.248   3.829  0.8966 -1.0251  0.2355
 4932lim     li23832   7.403   2.601   5.216  0.3208  0.1166 -1.0485
 4933lim     li23833   6.827   5.145   5.789 -0.1057 -0.6651 -0.5901
 4934lim     li23834   2.828   6.023   5.393  0.5995 -1.1225 -1.1224
 4935lim     li23835   5.652   1.862   3.164  0.3828 -0.3261 -0.2866
 4936lim     li23836   6.065   0.072   2.918 -0.1967 -0.2961  1.0304
 4937lim     li23837   3.718   6.945   6.009 -0.7994 -0.1352 -0.1071
 4938lim     li23838   0.881   5.670   1.335 -0.9204  1.1744 -0.3224
 4939lim     li23839   2.850   5.129   4.273  0.7001 -0.0941  0.2249
 4940lim     li23840   1.274   4.168   5.539 -2.0049  0.4236  1.3154
 4941lim     li23841   2.950   7.082   5.571  0.1071  0.8811 -0.1256
 4942lim     li23842   2.711   5.545   3.682 -0.2737  1.0187 -0.7640
 4943lim     li23843   6.549   3.055   2.496 -0.7226 -0.1524  0.1695
 4944lim     li23844   3.817   0.599   0.459 -0.4090 -0.4718  0.1670
 4945lim     li23845   5.619   4.037   1.117 -1.0376 -0.8563  0.1838
 4946lim     li23846   6.497   5.362   0.078 -0.5692  0.0691  0.1233
 4947lim     li23847   0.459   6.980   4.819 -0.3889 -0.0758  0.7111
 4948lim     li23848   5.726   0.096   1.691  0.1133 -1.7646  1.0693
 4949lim     li23849   1.893   0.245   5.271  0.8713  0.1013 -0.1773
 4950lim     li23850   4.846   3.312   4.876  1.3330 -0.8959  0.5171
 4951lim     li23851   7.218   3.887   2.698  0.4598 -0.0890  0.2728
 4952lim     li23852   4.069   2.322   3.912  0.4259 -0.3588  0.4382
 4953lim     li23853   5.204   7.278   2.268 -0.4875  0.7326  0.5592
 4954lim     li23854   0.914   6.220   7.292 -0.1002 -0.4139  0.4332
 4955lim     li23855   2.218   1.173   6.536  0.6092  0.5545 -0.3688
 4956lim     li23856   0.888   4.395   6.926  0.3301 -0.4698  0.1999
 4957lim     li23857   5.871   3.332   6.982  0.3836  0.1102 -0.7588
 4958lim     li23858   0.587   6.374   3.872  0.8374 -1.7886 -0.5040
 4959lim     li23859   5.253   3.793   2.507  1.0252  0.0366  1.3390
 4960lim     li23860   0.849   7.560   1.685 -0.3349 -0.8512  0.6666
 4961lim     li23861   1.541   6.542   0.460  0.9508  0.3210 -0.0950
 4962lim     li23862   6.050   0.989   1.020  0.6460 -0.7032  0.9540
 4963lim     li23863   5.714   7.344   4.495  0.5653  0.4044  1.2669
 4964lim     li23864   6.726   4.504   1.137 -1.3741  0.2330  0.0422
 4965lim     li23865   4.699   6.095   0.364  0.2096 -0.5270  0.9574
 4966lim     li23866   3.290   0.198   3.949 -0.1917  0.3060  0.5069
 4967lim     li23867   5.163   2.320   1.193 -1.4009  0.6879 -0.1275
 4968lim     li23868   2.328   1.788   0.914  0.5858  0.0442  0.3642
 4969lim     li23869   0.267   7.318   4.202  0.0471 -0.0837  0.9097
 4970lim     li23870   5.556   0.859   6.006  0.5065 -0.0440 -0.2930
 4971lim     li23871   3.768   4.877   1.274  0.2684 -0.3893  0.3149
 4972lim     li23872   6.500   4.795   3.144  0.5751  0.2878  0.1994
 4973lim     li23873   5.210   3.329   6.330  0.3569  0.6791  0.4706
 4974lim     li23874   1.694   3.224   6.010  0.4302 -0.4629 -0.3956
 4975lim     li23875   4.723   0.571   6.338 -0.2474  0.0719  0.3314
 4976lim     li23876   5.208   3.041   1.617 -1.8252 -0.5243 -0.6026
 4977lim     li23877   7.155   1.156   4.032  0.4490 -0.4377  0.9399
 4978lim     li23878   4.894   3.272   7.344  0.6414  0.0457  0.7279
 4979lim     li23879   5.392   7.506   6.048  0.0236 -0.1459 -0.0100
 4980lim     li23880   1.582   4.696   1.545 -0.8420  1.7285 -0.1636
 4981lim     li23881   0.643   3.542   4.754  0.2568  0.9794 -0.6702
 4982lim     li23882   1.612   1.994   4.367 -0.2836  0.8955  0.3514
 4983lim     li23883   1.817   1.363   7.019 -1.1616  0.0797  0.7524
 4984lim     li23884   2.824   3.277   4.974  1.0031 -0.3658  0.3583
 4985lim     li23885   6.564   5.392   1.580 -0.5753 -1.0351  0.5229
 4986lim     li23886   4.751   1.834   5.614  0.1308  0.4820  0.0128
 4987lim     li23887   5.855   1.258   4.852 -0.2145 -0.9136  0.7994
 4988lim     li23888   6.201   2.961   4.202 -0.1089 -0.1866  0.0072
 4989lim     li23889   6.697   5.336   1.024 -0.1189  0.9162  0.2886
 4990lim     li23890   3.130   4.817   0.045  0.7994 -0.4832  0.0143
 4991lim     li23891   0.536   2.754   3.641  0.1429 -0.3900 -1.2518
 4992lim     li23892   0.848   2.426   7.045 -0.7459  0.1528 -0.1258
 4993lim     li23893   3.746   3.227   7.155 -0.0657 -0.2878 -0.6606
 4994lim     li23894   0.791   1.346   0.740  1.1302 -0.1603  1.3935
 4995lim     li23895   7.250   0.060   1.277  0.6267 -0.1473 -0.1494
 4996lim     li23896   0.388   4.284   0.750 -0.5610  0.8629 -0.6024
 4997lim     li23897   3.613   2.696   6.617 -0.2126  0.2279  0.2843
 4998lim     li23898   6.359   2.344   1.927 -0.7977  0.6337  0.8182
 4999lim     li23899   0.351   4.575   7.004  0.3432  0.0475  0.1823
 5000lim     li23900   6.203   6.316   6.335 -1.6512  0.7011  0.0854
 5001lim     li23901   0.696   0.437   7.574 -0.8392  0.7860 -0.9192
 5002lim     li23902   4.068   5.139   3.043 -0.5687 -0.2091 -1.0451
 5003lim     li23903   2.608   7.333   0.798 -0.1582 -0.5349 -0.1362
 5004lim     li23904   7.605   7.400   0.412  0.9643  0.0057  1.1328
 5005lim     li23905   1.632   2.676   3.996 -0.3247 -1.2931 -0.1713
 5006lim     li23906   6.854   1.336   0.642 -0.2457 -1.0746 -0.5483
 5007lim     li23907   6.651   5.204   6.430  0.1485  0.0700 -0.0094
 5008lim     li23908   3.141   4.546   3.732 -0.1271 -0.2391  0.6761
 5009lim     li23909   4.583   6.442   5.244  0.5763 -0.5415  0.1341
 5010lim     li23910   3.920   6.768   3.722  0.7552  0.6574  0.2835
 5011lim     li23911   0.461   3.174   6.351 -0.5480  0.1845  0.3097
 5012lim     li23912   6.837   0.531   3.877  0.9296 -0.8071 -0.0315
 5013lim     li23913   1.898   4.875   6.591 -0.0970  0.7731 -0.0537
 5014lim     li23914   1.145   6.909   4.731 -0.0054 -0.1281 -0.2469
 5015lim     li23915   6.831   5.788   7.371  0.4048 -0.9092  0.5239
 5016lim     li23916   2.008   3.088   7.595  1.0150  0.4847 -0.3343
 5017lim     li23917   3.167   0.997   0.634 -1.0776  0.6976  0.3781
 5018lim     li23918   5.535   6.016   5.441 -0.9389  1.5836 -0.9293
 5019lim     li23919   5.758   6.465   0.772  0.1133 -0.4243  0.0532
 5020lim     li23920   5.963   0.004   0.662 -0.2504 -0.7844 -0.4280
 5021lim     li23921   4.819   3.111   4.152 -0.8112 -0.2074  0.1737
 5022lim     li23922   5.902   5.065   4.334  0.2238  1.2325  0.9772
 5023lim     li23923   5.688   4.905   4.777 -0.5682 -0.6378 -0.7681
 5024lim     li23924   0.557   4.754   5.967  0.4357  0.7040  2.3466
 5025lim     li23925   1.018   2.839   2.787  0.3593  1.0649 -0.4137
 5026lim     li23926   4.279   7.485   5.460 -1.6768 -0.7233  1.4075
 5027lim     li23927   3.389   2.544   0.659 -0.6078 -0.1440 -1.0715
 5028lim     li23928   3.721   3.928   0.701  1.4985  0.7738  0.4068
 5029lim     li23929   1.431   0.051   0.872  0.0836 -0.1393  0.4933
 5030lim     li23930   2.918   1.227   7.185  0.5408  1.0818  0.2601
 5031lim     li23931   0.560   4.908   4.620 -0.4909  0.5891 -0.1180
 5032lim     li23932   7.340   2.672   5.958  0.5971 -0.0604 -0.0874
 5033lim     li23933   3.849   1.553   0.628  0.2655 -1.9345 -0.0588
 5034lim     li23934   2.485   0.064   2.971 -0.3146 -0.2491  0.9280
 5035lim     li23935   3.333   1.677   4.726  1.2708 -0.4843 -0.8330
 5036lim     li23936   5.360   0.623   2.506  0.4477 -0.2796  0.5551
 5037lim     li23937   3.002   4.994   1.239 -0.4326 -0.5090  0.4682
 5038lim     li23938   1.000   5.015   1.091 -0.6888 -0.2278  0.2799
 5039lim     li23939   3.500   4.436   2.930 -0.0375 -0.0897  0.6530
 5040lim     li23940   6.724   1.757   1.983 -0.6079 -0.7135  0.3326
 5041lim     li23941   7.336   2.817   6.735  0.5497  0.2049 -0.5146
 5042lim     li23942   3.537   7.026   2.674 -0.4802  0.2074 -0.5785
 5043lim     li23943   5.036   3.939   5.279  0.4256 -0.3621 -0.1153
 5044lim     li23944   7.567   6.733   0.776 -0.4855 -0.7275 -1.0183
 5045lim     li23945   6.291   6.827   1.838 -0.3646  0.6964 -0.0919
 5046lim     li23946   7.434   1.357   5.220 -0.2666  0.7929  0.4720
 5047lim     li23947   7.297   4.204   2.249  0.4516 -0.0343  0.2336
 5048lim     li23948   2.860   6.738   1.485  1.1317  0.9710 -0.4144
 5049lim     li23949   0.387   1.642   3.873  1.0212 -0.3971 -0.2494
 5050lim     li23950   4.902   2.386   2.945  0.4212  1.0550 -0.3524
 5051lim     li23951   1.832   2.149   5.821 -0.0878 -0.8771 -0.6785
 5052lim     li23952   0.083   3.756   1.863  1.1991 -0.1963  0.1222
 5053lim     li23953   7.468   6.769   6.037  0.1584 -0.1236 -0.7361
 5054lim     li23954   5.940   4.112   1.683 -0.0427 -0.0489  0.2680
 5055lim     li23955   6.778   7.389   4.800  0.0535  0.0371  0.3367
 5056lim     li23956   4.210   0.061   4.769  0.4186 -0.1485 -0.2333
 5057lim     li23957   1.202   7.031   6.234  0.4490 -0.8078  0.9915
 5058lim     li23958   3.496   0.394   1.754  0.4035 -0.2340 -0.6114
 5059lim     li23959   1.871   5.071   2.816  0.8766  0.0910 -1.1773
 5060lim     li23960   4.195   3.645   1.786 -0.3972 -0.7493  0.1811
 5061lim     li23961   2.044   2.749   1.139  0.2701  0.7041  0.5532
 5062lim     li23962   5.136   7.554   0.305 -0.4712 -0.1351  0.1107
 5063lim     li23963   0.243   5.467   6.280 -0.1731 -1.5795 -1.0020
 5064lim     li23964   4.990   4.428   2.440  0.1679  0.5561  0.2277
 5065lim     li23965   1.211   4.012   1.946 -0.2164 -0.0766 -0.2894
 5066lim     li23966   4.315   6.920   0.143  1.3559 -0.9732 -0.3415
 5067lim     li23967   0.257   5.584   4.289 -1.3089 -0.6208 -0.1347
 5068lim     li23968   4.405   2.300   4.819  0.1913  1.3494  1.7594
 5069lim     li23969   6.330   3.496   1.877  0.6046  0.4582  0.3278
 5070lim     li23970   6.210   0.129   4.376  0.7997  0.1328 -0.9313
 5071lim     li23971   5.051   5.183   0.274  0.0697 -0.4046  0.2098
 5072lim     li23972   4.581   6.596   6.838 -0.7073  0.9897  0.8172
 5073lim     li23973   6.835   1.646   4.578  0.1489 -0.7583  1.3958
 5074lim     li23974   2.219   6.497   6.717  0.7283 -0.6395  1.0168
 5075lim     li23975   5.161   6.811   2.569  0.6152  0.7573 -0.1304
 5076lim     li23976   7.348   5.770   1.141  0.4679  0.4645 -1.7249
 5077lim     li23977   1.441   6.524   5.918  0.1079  1.2783  0.8565
 5078lim     li23978   5.644   5.762   1.935 -0.5605 -1.3110  0.3742
 5079lim     li23979   2.720   0.381   0.866 -0.1323  0.3727  0.2967
 5080lim     li23980   5.729   1.978   0.243 -0.7991 -0.1296 -0.1962
 5081lim     li23981   2.384   3.451   6.790 -0.4414  0.5431  0.0253
 5082lim     li23982   3.290   7.484   0.783 -0.4669 -1.0867 -0.9458
 5083lim     li23983   1.351   5.347   2.450 -0.6385  0.6146  0.4926
 5084lim     li23984   3.078   5.832   2.921 -0.0164  0.5021 -0.4594
 5085lim     li23985   4.918   5.029   4.545  0.5172  0.5397  0.4848
 5086lim     li23986   7.297   0.290   2.598 -0.5496  0.2649  0.4775
 5087lim     li23987   5.735   3.364   3.002  0.0467  1.0321  1.0493
 5088lim     li23988   4.208   3.963   7.001 -0.3004 -0.8295 -0.2834
 5089lim     li23989   5.007   1.688   4.418  0.2962  1.1221  0.0753
 5090lim     li23990   7.081   1.807   7.423 -0.3223 -0.1927  1.1832
 5091lim     li23991   5.524   6.576   6.130 -0.0522  0.5272 -0.2410
 5092lim     li23992   2.027   7.169   7.403 -0.3843  0.5902 -0.0880
 5093lim     li23993   5.071   3.590   1.952 -1.3543  0.0565 -0.5205
 5094lim     li23994   1.268   7.206   7.034 -0.7722  0.2222  0.9002
 5095lim     li23995   2.249   3.444   0.987 -0.1250  1.5137 -0.7818
 5096lim     li23996   1.168   2.104   6.465  0.0167 -1.4175 -0.0728
 5097lim     li23997   0.396   3.346   1.243 -0.5623 -0.0423 -0.8068
 5098lim     li23998   1.780   0.216   2.456  0.4782 -1.6421 -0.5443
 5099lim     li23999   1.774   6.431   7.590  0.8657 -1.0900 -0.1212
 5100lim     li24000   7.085   0.567   1.487  1.1872  0.3939  0.2661
 5101lim     li24001   6.070   1.500   2.513  0.2214 -0.2292 -0.2785
 5102lim     li24002   2.230   7.396   3.605 -0.8191  0.8333  0.7440
 5103lim     li24003   5.851   2.367   6.838 -2.2206 -0.4395  0.0927
 5104lim     li24004   0.772   1.197   5.684  0.6949 -0.1593  0.8481
 5105lim     li24005   5.146   2.319   7.609  0.7629  1.5023 -0.3574
 5106lim     li24006   5.579   4.268   6.638  0.0211  0.1633  1.5021
 5107lim     li24007   3.878   0.478   3.811  0.9325 -0.4937  0.5688
 5108lim     li24008   7.563   0.947   0.389  0.3009 -0.1382  0.8657
 5109lim     li24009   3.561   0.949   1.606  0.6880 -0.4370 -0.0754
 5110lim     li24010   4.323   4.553   1.555 -1.3149  0.5027 -0.1836
 5111lim     li24011   2.502   5.140   1.150  0.7502  0.1021  0.6348
 5112lim     li24012   1.338   2.468   2.675  0.3363  0.5469  0.4517
 5113lim     li24013   2.878   4.040   6.867  0.0618 -0.2952 -0.3714
 5114lim     li24014   3.479   2.137   3.026 -0.4184  0.6558 -0.9921
 5115lim     li24015   4.391   2.353   3.327 -0.5326 -0.0855 -0.0630
 5116lim     li24016   4.147   1.147   1.465 -0.7491  0.6250  0.4802
 5117lim     li24017   2.597   6.595   4.258 -0.7626  0.2170  0.0224
 5118lim     li24018   4.715   2.942   5.796 -1.8277  0.0901 -0.7378
 5119lim     li24019   4.246   5.443   2.077  1.6564 -0.9278  0.4207
 5120lim     li24020   3.913   3.336   0.108  0.3247 -0.6188 -0.8684
 5121lim     li24021   7.379   3.508   0.204 -0.0665  0.0845  1.6484
 5122lim     li24022   6.253   2.226   6.015  0.5274 -1.1717  0.9098
 5123lim     li24023   1.319   5.672   5.148  0.6006  0.2152  0.0108
 5124lim     li24024   3.794   5.513   0.816  0.2163 -0.1129 -0.8088
 5125lim     li24025   7.418   3.743   6.301  0.3766 -0.0440  0.8189
 5126lim     li24026   6.828   6.154   6.393 -0.1570  0.5797  0.4610
 5127lim     li24027   4.473   1.065   7.384  0.4522  0.1400  0.8138
 5128lim     li24028   3.338   6.742   4.351  0.1882  0.1843  0.2543
 5129lim     li24029   0.754   2.250   5.114 -0.4791 -0.5195  1.4350
 5130lim     li24030   2.176   5.839   5.659 -0.6862  1.4593  0.6799
 5131lim     li24031   3.815   7.344   6.704 -0.0783  0.3963 -0.6898
 5132lim     li24032   0.533   5.585   3.567 -0.0992  0.3864  0.0014
 5133lim     li24033   6.353   3.379   6.837  0.2441 -0.0423 -0.3732
 5134lim     li24034   2.195   5.091   5.762 -0.9179  0.1604  0.2615
 5135lim     li24035   3.440   3.631   3.042  1.1692  0.2172 -1.1805
 5136lim     li24036   2.674   6.020   1.237  0.5142  0.7599 -0.9400
 5137lim     li24037   4.455   3.716   3.512 -0.4738  0.4582  0.4856
 5138lim     li24038   2.836   6.364   0.398  0.2474 -1.0161 -0.0469
 5139lim     li24039   5.673   1.118   3.810 -0.7399 -0.7926  0.3977
 5140lim     li24040   7.006   6.925   1.827  0.7414 -0.6683 -1.4950
 5141lim     li24041   4.549   7.477   0.586  0.3149  0.3535 -0.0733
 5142lim     li24042   0.662   4.664   3.282 -0.8232  0.5448 -0.5003
 5143lim     li24043   3.785   5.212   4.264 -0.2527  0.3472  1.0026
 5144lim     li24044   1.229   0.888   4.262  0.7988 -0.8615 -0.3693
 5145lim     li24045   2.087   5.842   3.776  0.6550  0.4151  0.0002
 5146lim     li24046   1.623   0.385   5.923 -1.2084  0.1076 -0.4759
 5147lim     li24047   6.545   7.317   0.112  1.1119  0.8661  1.0882
 5148lim     li24048   4.149   3.220   4.167 -0.2055 -0.4637 -0.1351
 5149lim     li24049   2.613   1.612   0.063 -0.0425  1.4517  0.3558
 5150lim     li24050   3.414   3.600   3.971 -1.0385 -0.5086  0.6240
 5151lim     li24051   2.912   5.810   0.501 -0.4060  0.7006  0.0196
 5152lim     li24052   1.116   4.733   4.608  0.7052 -1.0141  1.2616
 5153lim     li24053   5.135   5.975   1.970  0.1079  0.8649 -0.8960
 5154lim     li24054   0.958   7.426   3.080 -0.1357 -0.0398  0.2436
 5155lim     li24055   0.324   6.493   2.523 -0.2868  0.7283  0.0838
 5156lim     li24056   6.595   4.418   7.598  0.4343 -1.1764 -0.7640
 5157lim     li24057   6.803   3.622   1.472  0.1564 -0.3210  1.1823
 5158lim     li24058   7.487   5.521   7.271 -0.6481  1.0152 -1.3036
 5159lim     li24059   0.876   1.837   7.043 -1.5314 -0.7564 -0.9948
 5160lim     li24060   0.572   7.243   3.542  0.3042 -0.4603 -2.1903
 5161lim     li24061   2.203   4.359   7.313 -0.1084  1.0119 -1.2871
 5162lim     li24062   6.794   3.633   4.680  0.7247  0.1544 -1.2460
 5163lim     li24063   1.902   2.112   2.815 -0.1129 -0.1493 -0.2690
 5164lim     li24064   0.015   5.594   3.737 -0.0476  1.7395  0.0009
 5165lim     li24065   0.608   0.390   0.599  0.3702  0.1958 -0.1434
 5166lim     li24066   4.130   3.825   4.927 -0.1103  0.0072 -0.7996
 5167lim     li24067   0.360   5.478   0.399 -0.0937  0.5139 -0.4810
 5168lim     li24068   6.901   5.117   4.925  0.2532  0.5008  0.3022
 5169lim     li24069   4.497   4.544   7.232  0.8059 -0.8958 -0.0737
 5170lim     li24070   4.929   1.462   1.390  0.2317 -0.2411 -0.0154
 5171lim     li24071   7.276   1.561   7.026  0.0278  0.1355  0.5935
 5172lim     li24072   1.667   3.721   6.827 -0.2493  0.0145  0.3017
 5173lim     li24073   1.570   4.763   3.781 -0.2023 -0.4412  0.9286
 5174lim     li24074   2.714   1.377   5.112  0.6801  0.1992 -0.0966
 5175lim     li24075   5.429   2.152   3.426  1.0024  0.2869 -0.2859
 5176lim     li24076   2.346   2.119   6.863 -0.6719  0.0507 -1.0510
 5177lim     li24077   5.333   7.562   7.581  0.3231  0.0280 -0.3812
 5178lim     li24078   4.991   0.711   4.625 -0.8386  0.0279  0.2334
 5179lim     li24079   3.362   6.400   1.446  0.7796  0.1793 -0.0192
 5180lim     li24080   4.089   2.415   1.860 -0.3862  0.7069 -0.9775
 5181lim     li24081   2.081   7.372   1.197 -0.4863 -0.0672  1.2902
 5182lim     li24082   3.934   4.990   6.054 -0.6651  0.9338  0.8183
 5183lim     li24083   6.636   6.368   0.703  0.6621  0.3621  0.4485
 5184lim     li24084   4.336   3.811   6.516  1.1634 -0.4206  0.1925
 5185lim     li24085   1.993   0.866   0.719  0.5657 -1.0470  0.5204
 5186lim     li24086   0.856   3.254   2.009 -0.4375  0.4559  0.9120
 5187lim     li24087   1.652   5.784   2.991 -0.0786  0.5929 -0.0816
 5188lim     li24088   2.807   2.765   6.196 -0.5803 -0.1199  0.1420
 5189lim     li24089   2.041   4.259   0.490 -0.6892  0.2151  0.1254
 5190lim     li24090   5.399   2.431   4.555  0.7113 -0.1764 -0.3073
 5191lim     li24091   7.546   4.997   0.645 -0.2900  0.3050 -0.6733
 5192lim     li24092   6.063   0.631   5.578  0.0986 -0.1135  0.9782
 5193lim     li24093   5.884   1.553   7.461 -0.3601 -0.6984 -0.3467
 5194lim     li24094   5.442   4.385   3.445  0.5072  0.6237 -1.0481
 5195lim     li24095   1.209   7.398   4.267  0.8426 -0.5191  0.2069
 5196lim     li24096   6.290   2.831   5.062  0.2728 -0.6734 -0.2681
 5197lim     li24097   2.442   2.384   0.008 -0.7744  0.2800 -0.1477
 5198lim     li24098   0.519   0.321   6.924  0.5279  1.6423 -0.0009
 5199lim     li24099   2.392   5.742   7.354  0.5099  0.4982  0.1745
 5200lim     li24100   1.807   3.153   2.867  0.6165 -1.4662  0.4443
 5201lim     li24101   6.735   2.339   4.409  1.6325  1.1956  0.5747
 5202lim     li24102   4.451   6.468   4.618  0.9220  0.3315 -0.4601
 5203lim     li24103   7.388   0.964   2.253 -0.1759  0.9494 -0.3175
 5204lim     li24104   0.073   1.759   3.132 -0.0380 -1.5284 -0.0660
 5205lim     li24105   5.102   7.446   5.478  0.5583 -0.2689 -0.5886
 5206lim     li24106   6.092   5.668   4.873 -0.4860  0.1542 -0.6299
 5207lim     li24107   5.654   6.229   3.133  0.4746 -0.0878 -0.8372
 5208lim     li24108   5.122   4.810   5.525 -0.0506  0.3299 -0.5680
 5209lim     li24109   5.002   0.811   0.678 -0.1660  0.1867 -0.2349
 5210lim     li24110   2.401   2.100   6.282 -0.3134  0.0764 -0.9048
 5211lim     li24111   3.232   7.135   0.012 -0.6001  0.4714 -0.3287
 5212lim     li24112   5.995   3.788   3.893  0.1437  0.5200 -1.0681
 5213lim     li24113   4.241   4.445   5.568  1.1179  0.5277 -0.4819
 5214lim     li24114   0.302   7.061   5.798 -0.2643 -1.2267  1.3874
 5215lim     li24115   0.304   4.816   2.117 -0.8676  0.6703 -0.9493
 5216lim     li24116   2.666   7.605   5.973 -0.2015  0.1441  0.4018
 5217lim     li24117   6.335   4.812   6.945 -0.2110  0.1858 -0.2216
 5218lim     li24118   4.474   5.641   6.076  1.5136 -0.4770  1.6182
 5219lim     li24119   3.225   2.617   4.836 -0.4791 -0.1841 -1.0678
 5220lim     li24120   2.542   7.313   2.324  0.7488  0.7520 -0.7271
 5221lim     li24121   1.332   5.437   4.399 -0.6594 -0.1817 -0.8219
 5222lim     li24122   1.222   2.654   0.726  0.8996  0.2479  0.4920
 5223lim     li24123   1.780   0.372   7.531 -0.9914 -0.4611  1.2400
 5224lim     li24124   2.228   1.176   4.917 -0.7575  0.1955 -0.5389
 5225lim     li24125   2.325   0.193   4.318 -0.4480  0.4840  0.6222
 5226lim     li24126   0.361   2.896   0.533  0.1800 -0.9404 -0.0799
 5227lim     li24127   5.187   2.035   5.874  0.6452 -0.2161 -0.4653
 5228lim     li24128   3.301   1.719   1.675  0.0717  0.7468 -0.9207
 5229lim     li24129   1.834   1.488   5.907  0.4806  0.0059 -0.5318
 5230lim     li24130   0.286   5.845   1.981 -0.0613  0.8770 -0.4714
 5231lim     li24131   2.886   2.883   6.854 -0.7820 -0.7016 -0.4129
 5232lim     li24132   2.105   5.444   4.569 -0.5008 -0.8591 -0.1719
 5233lim     li24133   3.674   4.190   5.932 -1.0080 -1.0395 -0.0457
 5234lim     li24134   2.689   0.271   4.862  0.5009  0.7682 -0.6520
 5235lim     li24135   7.230   2.764   0.955  0.3193 -1.3942  0.9551
 5236lim     li24136   2.909   4.131   1.751  0.6711 -0.5967  0.6638
 5237lim     li24137   6.786   5.952   3.273 -0.0747 -0.1320  0.5839
 5238lim     li24138   7.075   3.115   1.603  0.2378  0.3039  0.3146
 5239lim     li24139   7.253   0.842   5.244  1.4849  0.0213 -0.0769
 5240lim     li24140   0.601   3.397   2.998 -0.9780 -0.3133 -0.2353
 5241lim     li24141   4.640   1.294   0.359 -0.2764 -0.2904  0.3914
 5242lim     li24142   6.518   4.692   3.806  0.2047  0.3790  0.4698
 5243lim     li24143   5.892   2.113   2.077 -1.0300 -0.0940  0.7114
 5244lim     li24144   4.693   0.033   6.690 -1.1295 -0.4742 -0.2636
 5245lim     li24145   5.362   4.200   0.125  0.7638  0.4816 -0.1678
 5246lim     li24146   5.937   7.309   6.870 -0.2131  0.4470 -1.7449
 5247lim     li24147   5.057   5.556   3.393 -0.5534  0.6744  0.1764
 5248lim     li24148   6.953   0.883   6.302  0.1187 -0.9930 -0.1774
 5249lim     li24149   3.180   6.825   4.846  0.5593 -0.4009 -0.3066
 5250lim     li24150   0.599   1.918   5.758 -0.2501  0.0739  0.6423
 5251lim     li24151   3.830   0.237   2.680  0.5030  0.5057  1.2143
 5252lim     li24152   3.033   2.674   2.769  1.1582  0.4552  0.6229
 5253lim     li24153   6.342   2.596   3.040  0.0144 -0.4836 -0.3378
 5254lim     li24154   3.817   6.462   6.363  0.6855 -0.2390 -0.0188
 5255lim     li24155   3.159   1.243   4.203  0.3862 -0.7681 -0.0388
 5256lim     li24156   0.766   4.420   5.361 -0.2769 -0.0566  0.6348
 5257lim     li24157   0.573   3.206   5.487 -1.4470  0.0031 -0.4816
 5258lim     li24158   1.808   5.978   4.812  0.6755  0.3741  0.1292
 5259lim     li24159   3.019   7.035   6.661 -0.5998 -0.2136 -0.4452
 5260lim     li24160   4.739   1.359   6.504 -0.9828 -0.0330  0.6188
 5261lim     li24161   4.837   3.413   0.653 -0.4424  0.4664  0.8177
 5262lim     li24162   1.118   1.326   4.830  0.0634 -0.9569 -1.8477
 5263lim     li24163   2.631   2.041   4.148  0.0260  0.1242 -0.2038
 5264lim     li24164   6.040   4.351   2.677  0.2502  0.1426 -1.2780
 5265lim     li24165   0.354   2.244   4.629  0.0333  0.5033  1.9102
 5266lim     li24166   4.252   5.420   0.161 -0.3980  0.4485  0.6135
 5267lim     li24167   4.465   0.292   3.820 -0.1471  1.1061  0.2154
 5268lim     li24168   7.503   5.412   2.615  0.1368  1.2823  0.3350
 5269lim     li24169   0.484   7.256   2.552  0.8181 -0.3917  1.1201
 5270lim     li24170   2.592   3.962   3.456 -1.1662  0.4342  0.8179
 5271lim     li24171   6.716   1.873   6.622 -0.6857 -0.9088  0.3172
 5272lim     li24172   1.161   2.003   2.005  0.5442  0.6255 -0.5688
 5273lim     li24173   0.250   1.451   6.723 -0.0707 -1.3056  0.7227
 5274lim     li24174   2.271   3.957   4.033 -0.3491 -0.7417  1.6314
 5275lim     li24175   3.926   4.471   2.104  0.2013 -0.6350  0.0274
 5276lim     li24176   1.471   5.124   7.464  0.4354 -0.4193  1.2282
 5277lim     li24177   2.527   5.917   6.432  0.0289  0.9112 -0.0752
 5278lim     li24178   7.237   2.991   5.593 -0.1469 -1.4956 -0.7777
 5279lim     li24179   2.884   0.100   7.368 -0.0281  0.1097 -0.8404
 5280lim     li24180   1.168   3.680   7.504 -0.8136 -0.1183  0.0701
 5281lim     li24181   7.524   1.839   1.392 -0.8433  0.8447  0.7966
 5282lim     li24182   1.460   0.506   3.691  0.9106  0.4649 -1.4706
 5283lim     li24183   4.910   5.021   6.278  0.3787  0.1350 -0.4343
 5284lim     li24184   6.676   3.832   5.389  0.2157  0.1711 -0.2620
 5285lim     li24185   1.568   3.853   6.290  0.4342  0.0854 -1.2467
 5286lim     li24186   2.453   6.228   1.881  0.3328  0.3236 -0.0776
 5287lim     li24187   4.333   3.478   2.825  1.1906 -0.4605 -0.0424
 5288lim     li24188   5.356   5.987   0.259 -0.3031 -0.0857 -0.3758
 5289lim     li24189   6.180   5.310   2.818 -0.2101 -0.4193 -1.3706
 5290lim     li24190   6.336   0.260   2.301  0.0099 -0.6168  0.5378
 5291lim     li24191   0.805   0.515   2.921  0.5690  0.0573  0.2327
 5292lim     li24192   4.078   4.384   4.345  0.5312 -2.1772  0.1651
 5293lim     li24193   7.386   4.072   3.857 -0.6364  1.1004 -0.2887
 5294lim     li24194   2.318   3.037   3.786 -0.9412  0.3572  0.7558
 5295lim     li24195   1.060   4.544   1.953 -0.6068 -0.0460 -0.4364
 5296lim     li24196   1.032   2.038   0.073 -0.4199 -0.0313  0.6749
 5297lim     li24197   3.505   3.417   1.748 -0.1187  0.2797 -0.6987
 5298lim     li24198   3.568   5.901   2.371  1.2007  0.2646 -0.2218
 5299lim     li24199   4.689   0.488   2.591 -0.1786 -0.4253 -0.0728
 5300lim     li24200   1.465   3.622   3.704  0.3689  0.0956 -1.8643
 5301lim     li24201   0.998   5.029   7.512  0.6953 -0.9059 -0.3052
 5302lim     li24202   5.147   2.480   2.080  0.0708  0.8272  0.3608
 5303lim     li24203   6.369   2.127   3.570  0.6619 -0.1815  0.2865
 5304lim     li24204   0.164   3.581   4.460 -0.0812  0.4795 -0.2138
 5305lim     li24205   6.842   7.051   3.855 -0.3465 -0.1822  0.9604
 5306lim     li24206   6.937   6.088   1.983  0.1015 -0.6824 -0.5522
 5307lim     li24207   1.694   6.238   0.989 -0.5418 -0.0569  0.1818
 5308lim     li24208   1.179   0.763   5.080 -0.4745 -0.1759 -0.8739
 5309lim     li24209   3.169   7.064   3.307 -0.2746  0.1794  1.3356
 5310lim     li24210   5.375   5.389   5.714 -0.4841  0.1784  0.3752
 5311lim     li24211   5.885   6.128   4.146  0.4664 -0.2959  0.5651
 5312lim     li24212   4.560   1.553   2.440  0.1334  2.6997 -0.0593
 5313lim     li24213   5.101   6.645   0.978 -0.4262  0.2693 -0.7192
 5314lim     li24214   3.134   0.634   5.015  0.0720  0.9130  0.6924
 5315lim     li24215   6.516   0.050   5.843 -0.3402 -0.0033 -0.1869
 5316lim     li24216   3.507   0.848   7.171  0.1329 -1.0780 -0.3936
 5317lim     li24217   7.384   6.542   3.292 -1.3836  0.1668  1.0110
 5318lim     li24218   4.699   2.347   0.862  0.9518  1.6978  1.2539
 5319lim     li24219   2.834   5.477   2.991  0.7304  0.1639 -1.1725
 5320lim     li24220   4.643   7.616   1.410 -0.6786 -0.9210  0.0715
 5321lim     li24221   5.745   0.594   3.559  0.8789 -0.1272  1.2535
 5322lim     li24222   2.356   6.736   3.202 -0.1005  0.6131  0.0050
 5323lim     li24223   3.518   1.838   6.623  0.2029 -0.3490 -0.8394
 5324lim     li24224   5.179   4.976   2.002 -0.6973 -0.6308  0.7204
 5325lim     li24225   7.190   0.349   5.098 -0.5537 -0.3164  0.1720
 5326lim     li24226   0.121   6.322   0.236 -0.3120 -0.2785  0.4119
 5327lim     li24227   3.243   3.955   4.929  0.8001 -0.6855  0.4115
 5328lim     li24228   2.797   6.610   2.439  1.2695  0.3397  1.2784
 5329lim     li24229   4.545   4.725   3.505 -0.0337 -1.1384 -1.1459
 5330lim     li24230   0.778   5.913   5.271  0.0414 -0.7278  0.6950
 5331lim     li24231   7.445   6.605   7.273 -1.1238  0.9359  0.5574
 5332lim     li24232   1.292   3.475   4.337  0.5020 -0.5529 -0.9604
 5333lim     li24233   7.477   2.302   0.224  1.6297 -0.4838  0.6367
 5334lim     li24234   0.906   2.281   3.660  1.0853 -0.0549 -1.6767
 5335lim     li24235   4.518   7.148   3.082  0.3078 -0.3952  0.2351
 5336lim     li24236   0.906   3.208   5.010 -1.0435  0.1425 -0.8750
 5337lim     li24237   3.198   5.678   5.015  0.4736 -0.0865  0.3210
 5338lim     li24238   6.229   1.695   0.741 -0.1395 -0.2781  0.9406
 5339lim     li24239   4.820   5.681   1.016 -0.6861 -0.8546  1.0060
 5340lim     li24240   4.335   5.682   7.002 -0.2172  0.0981 -0.8317
 5341lim     li24241   2.547   5.094   2.424  0.6017  0.3234 -0.7751
 5342lim     li24242   2.852   2.881   0.893  0.4274 -0.6508  0.5610
 5343lim     li24243   5.046   1.483   5.084  0.4246 -0.1832 -0.1156
 5344lim     li24244   2.312   2.765   4.287 -0.0261 -0.8661 -1.1939
 5345lim     li24245   5.993   3.627   0.386  0.9943  0.1124 -0.0402
 5346lim     li24246   1.015   7.613   5.612 -0.2816 -1.2011 -0.1613
 5347lim     li24247   4.641   5.654   3.988  0.2860  0.6891 -0.0165
 5348lim     li24248   2.849   0.828   3.059 -0.2399 -0.5652 -0.5665
 5349lim     li24249   1.235   5.741   6.212  0.1281 -0.3762 -0.2039
 5350lim     li24250   3.175   0.628   6.013  0.4130  0.0794  0.1272
 5351lim     li24251   5.437   0.195   1.242  0.3667 -0.4844 -0.6962
 5352lim     li24252   3.283   2.872   3.211  0.3307  0.5651 -0.4985
 5353lim     li24253   7.052   2.201   3.854  0.5568  0.2178  0.7835
 5354lim     li24254   2.210   0.719   3.573  0.5621  0.7892  0.2753
 5355lim     li24255   5.660   6.110   7.191 -1.0884 -1.4304  1.1719
 5356lim     li24256   3.966   0.829   3.248 -1.5836 -0.1289 -0.3702
 5357lim     li24257   1.165   3.378   1.356 -0.7596  0.9692 -0.3891
 5358lim     li24258   5.788   5.666   6.465 -0.1213 -0.6001 -0.2455
 5359lim     li24259   6.566   2.473   0.048  0.8232  0.3539 -0.1923
 5360lim     li24260   1.082   3.977   3.240  0.3295  0.0471  0.3917
 5361lim     li24261   1.094   6.295   2.116  1.7224  0.5023 -0.1790
 5362lim     li24262   0.390   4.837   1.142 -0.3420 -1.1474  0.1682
 5363lim     li24263   2.372   4.297   0.890  0.5467  0.1615 -0.4758
 5364lim     li24264   3.992   0.855   5.419 -0.5957  1.0846 -0.5146
 5365lim     li24265   2.393   1.189   2.738  1.0259  0.6104 -1.0085
 5366lim     li24266   3.774   5.921   4.383  0.3884 -0.4235  1.1543
 5367lim     li24267   4.018   7.072   1.894  0.2186 -0.1185 -0.2799
 5368lim     li24268   3.935   0.480   6.996  1.0040 -0.5535  0.5307
 5369lim     li24269   3.978   3.259   5.483 -2.0028 -0.2556 -0.4091
 5370lim     li24270   4.371   1.502   3.508  0.5269  0.3853 -1.9447
 5371lim     li24271   5.717   0.678   6.944 -0.1984 -0.3969  1.1421
 5372lim     li24272   3.655   1.295   5.507 -0.4147 -0.5547  1.0921
 5373lim     li24273   2.594   2.271   1.867 -0.2395  0.7824 -0.2783
 5374lim     li24274   4.392   6.258   1.679  0.8086 -0.4224 -0.1557
 5375lim     li24275   1.533   2.850   6.950  0.5221 -0.3516 -0.2794
 5376lim     li24276   0.510   6.253   4.851  0.2103  0.1548 -0.7987
 5377lim     li24277   0.138   5.792   5.254 -0.3196  0.0643 -0.3041
 5378lim     li24278   0.354   2.159   2.444  0.5323  1.1877  0.0394
 5379lim     li24279   3.490   1.109   2.637  0.6247 -0.1101 -0.2439
 5380lim     li24280   6.694   2.948   0.945  0.2054  1.3242  0.2092
 5381lim     li24281   2.524   4.497   4.785 -0.2268 -0.9647  0.3227
 5382lim     li24282   5.021   5.178   2.932  0.1262 -0.2296 -0.5588
 5383lim     li24283   6.490   1.080   1.505 -0.6489 -0.5909 -0.9813
 5384lim     li24284   3.640   0.136   4.528 -0.4554  0.0480  0.6302
 5385lim     li24285   2.315   5.520   1.823 -0.1959  0.3688 -0.9564
 5386lim     li24286   4.865   6.303   6.118  0.3372 -0.2230  1.1950
 5387lim     li24287   5.690   2.595   5.483 -1.6031 -0.4083  0.1721
 5388lim     li24288   3.195   5.606   6.707  1.1604 -0.2056  1.3796
 5389lim     li24289   6.991   1.614   2.953  0.1152 -1.2112  0.1067
 5390lim     li24290   2.764   1.083   6.351 -0.7452  0.4411  0.0451
 5391lim     li24291   6.633   0.623   7.600 -0.7004  0.3020  0.3710
 5392lim     li24292   7.233   3.616   3.265  0.4001 -0.7322 -0.3571
 5393lim     li24293   4.691   6.652   3.295  0.0722 -0.2282 -0.3815
 5394lim     li24294   5.791   4.150   4.916  0.0994  0.0622  1.1328
 5395lim     li24295   4.321   2.108   6.586  0.5881 -0.1239  0.5371
 5396lim     li24296   4.221   2.812   0.972 -0.3752  0.8757 -0.4473
 5397lim     li24297   2.846   3.379   5.767  0.2349  0.9219  0.1163
 5398lim     li24298   2.851   3.665   0.028 -0.1681  0.8871  1.2310
 5399lim     li24299   5.505   7.208   3.423 -1.2960  0.7583  0.2365
 5400lim     li24300   6.720   6.646   2.030 -0.5606 -0.2059 -0.6441
 5401ntf    cn124301   6.797   5.898   0.309 -0.2689 -0.2475  0.2485
 5401ntf    sn224302   6.782   5.720   0.340  0.1053 -0.3263 -0.0228
 5401ntf    nn324303   6.933   5.687   0.312  0.2696  0.6248 -0.2834
 5401ntf    sn224304   6.987   5.594   0.198 -0.1308  0.0320  0.0052
 5401ntf    cn124305   7.058   5.454   0.291 -0.1236 -0.1586 -0.2858
 5401ntf    fn424306   6.863   5.966   0.401  0.0738  0.0024 -0.1791
 5401ntf    fn424307   6.871   5.918   0.201 -0.5706 -0.1541  0.0575
 5401ntf    fn424308   6.680   5.960   0.296  0.0001  0.1858 -0.1604
 5401ntf    on524309   6.744   5.705   0.478  0.1386 -0.2513 -0.0059
 5401ntf    on524310   6.686   5.678   0.240 -0.3879 -0.2746  0.4253
 5401ntf    on524311   7.107   5.654   0.144 -0.1068  0.5534  0.6212
 5401ntf    on524312   6.897   5.531   0.104  0.0040  0.0401 -0.1305
 5401ntf    fn424313   7.110   5.366   0.207 -0.7521 -0.4368 -0.3889
 5401ntf    fn424314   7.160   5.497   0.363  0.0955 -0.7545 -0.2405
 5401ntf    fn424315   6.961   5.392   0.355  0.0052  0.2628  0.3244
 5402ntf    cn124316   7.520   7.002   2.572 -0.3365  0.1293 -0.1510
 5402ntf    sn224317   7.695   6.981   2.617 -0.4815 -0.3910  0.1743
 5402ntf    nn324318   7.690   6.987   2.774  0.3054  0.4586  0.1741
 5402ntf    sn224319   7.799   6.921   2.866  0.2325 -0.0082 -0.0702
 5402ntf    cn124320   7.743   6.748   2.865 -0.1783  0.1229 -0.1878
 5402ntf    fn424321   7.444   6.908   2.626  0.1123 -0.4542 -0.5258
 5402ntf    fn424322   7.461   7.114   2.611 -0.0537  0.1983  0.0836
 5402ntf    fn424323   7.495   6.985   2.443  0.1050 -0.5315 -0.1531
 5402ntf    on524324   7.723   6.853   2.557  0.5505 -0.0155 -0.1684
 5402ntf    on524325   7.752   7.094   2.549 -0.2878 -0.3115  0.4689
 5402ntf    on524326   7.784   6.967   3.002 -0.1611  0.3246 -0.2250
 5402ntf    on524327   7.931   6.913   2.810 -0.0579  0.2661 -0.8004
 5402ntf    fn424328   7.797   6.670   2.958 -0.0193  0.2163 -0.2012
 5402ntf    fn424329   7.613   6.733   2.881 -0.0891 -0.1854  0.2691
 5402ntf    fn424330   7.763   6.684   2.751 -0.1531  0.1165 -0.1798
 5403ntf    cn124331   2.923   6.466   6.272  0.1412  0.8726 -0.0059
 5403ntf    sn224332   2.763   6.424   6.348  0.3971  0.0675  0.1017
 5403ntf    nn324333   2.672   6.493   6.241 -0.1795 -0.5209  0.2094
 5403ntf    sn224334   2.621   6.435   6.104  0.3014 -0.2885 -0.0688
 5403ntf    cn124335   2.447   6.396   6.136  0.1347  0.2701 -0.2954
 5403ntf    fn424336   2.902   6.490   6.144 -0.0156  0.3065 -0.0906
 5403ntf    fn424337   2.981   6.569   6.332  0.6766  0.3795  0.3358
 5403ntf    fn424338   3.005   6.362   6.279 -0.2467  0.5472 -0.2403
 5403ntf    on524339   2.775   6.281   6.346  0.6325  0.0902 -0.0998
 5403ntf    on524340   2.770   6.496   6.473 -0.3764  0.2160  0.0618
 5403ntf    on524341   2.679   6.309   6.065  0.2019 -0.2805 -0.2426
 5403ntf    on524342   2.612   6.537   6.003  0.1435 -0.4463 -0.2134
 5403ntf    fn424343   2.436   6.333   6.252 -0.2775 -0.5160 -0.7554
 5403ntf    fn424344   2.371   6.505   6.143  0.4770  0.5318 -0.6035
 5403ntf    fn424345   2.389   6.311   6.053 -0.1397  0.4596 -0.3007
 5404ntf    cn124346   5.314   5.217   6.845 -0.1946  0.0078  0.2504
 5404ntf    sn224347   5.376   5.046   6.837  0.0036  0.0876  0.0985
 5404ntf    nn324348   5.524   5.051   6.888  0.2089 -0.8177 -0.3840
 5404ntf    sn224349   5.658   5.086   6.813  0.3531  0.2725  0.3554
 5404ntf    cn124350   5.753   5.158   6.950  0.4219  0.4676  0.2044
 5404ntf    fn424351   5.376   5.291   6.935 -0.0308  0.0759  0.0812
 5404ntf    fn424352   5.332   5.282   6.732 -0.1657 -0.2656  0.0968
 5404ntf    fn424353   5.187   5.208   6.883 -0.1514 -0.4206  0.3016
 5404ntf    on524354   5.286   4.967   6.918 -0.2423  0.1199 -0.1409
 5404ntf    on524355   5.358   5.017   6.697 -0.1275 -0.7284  0.2808
 5404ntf    on524356   5.642   5.202   6.730 -0.4649  0.3195  0.5670
 5404ntf    on524357   5.728   4.970   6.762 -0.0940  0.1879 -0.0725
 5404ntf    fn424358   5.856   5.226   6.903  0.1543  0.5721 -0.2352
 5404ntf    fn424359   5.674   5.238   7.021 -0.0436 -0.3397  0.6087
 5404ntf    fn424360   5.800   5.065   7.032 -0.0968 -0.2429 -0.2902
 5405ntf    cn124361   3.358   1.344   6.265 -0.1411 -0.2658 -0.0382
 5405ntf    sn224362   3.186   1.388   6.226 -0.1353 -0.2690 -0.0665
 5405ntf    nn324363   3.204   1.538   6.186 -0.2590 -0.0304  0.7582
 5405ntf    sn224364   3.099   1.652   6.159 -0.1814 -0.1633 -0.1554
 5405ntf    cn124365   3.054   1.691   6.331 -0.5546 -0.4980 -0.1754
 5405ntf    fn424366   3.376   1.367   6.394  0.0114  0.0276 -0.1103
 5405ntf    fn424367   3.392   1.219   6.239  0.1966 -0.2264  0.2013
 5405ntf    fn424368   3.447   1.417   6.198 -0.3703 -0.1115 -0.1747
 5405ntf    on524369   3.155   1.299   6.117  0.6306 -0.3234 -0.2455
 5405ntf    on524370   3.119   1.370   6.352  0.8482 -0.6019  0.4151
 5405ntf    on524371   2.980   1.609   6.091 -0.3679 -0.1311  0.1488
 5405ntf    on524372   3.157   1.778   6.118  0.3048 -0.4517 -0.3627
 5405ntf    fn424373   2.993   1.807   6.345 -0.1997 -0.3211 -0.0950
 5405ntf    fn424374   2.968   1.597   6.366 -0.4148 -0.5275  0.0962
 5405ntf    fn424375   3.158   1.686   6.414 -0.4095  0.1420 -0.3143
 5406ntf    cn124376   0.224   3.888   0.300  0.0969  0.0846 -0.0337
 5406ntf    sn224377   0.230   3.724   0.379  0.2304  0.0165 -0.1833
 5406ntf    nn324378   0.163   3.775   0.512  0.1323  0.0590 -0.2484
 5406ntf    sn224379   0.213   3.750   0.659 -0.3108  0.2169 -0.0697
 5406ntf    cn124380   0.053   3.710   0.736 -0.3945 -0.2039 -0.4534
 5406ntf    fn424381   0.099   3.922   0.273 -0.1912 -0.8574  0.0748
 5406ntf    fn424382   0.280   3.986   0.370  0.0603  0.1031 -0.0303
 5406ntf    fn424383   0.291   3.891   0.186 -0.0514 -0.0531 -0.1231
 5406ntf    on524384   0.139   3.645   0.300  0.3501 -0.1978 -0.1054
 5406ntf    on524385   0.370   3.692   0.369  0.1853 -0.1843 -0.1671
 5406ntf    on524386   0.236   3.879   0.718 -0.0648  0.3881 -0.5392
 5406ntf    on524387   0.301   3.642   0.695  0.2270  0.5248 -0.4486
 5406ntf    fn424388   0.001   3.598   0.690 -0.9502  0.2152 -0.8632
 5406ntf    fn424389   0.070   3.685   0.865  0.6887  0.3964 -0.4638
 5406ntf    fn424390  -0.042   3.802   0.729 -0.1113  0.0936 -0.4095
 5407ntf    cn124391   2.752   0.041   0.414  0.2464  0.1021 -0.0123
 5407ntf    sn224392   2.932   0.016   0.414  0.2689  0.2621  0.1294
 5407ntf    nn324393   2.973   0.167   0.428 -0.1065  0.3086  0.7579
 5407ntf    sn224394   3.112   0.223   0.475  0.1543  0.5109 -0.2355
 5407ntf    cn124395   3.166   0.319   0.330  0.4111  0.3034 -0.2788
 5407ntf    fn424396   2.694  -0.076   0.437  0.6703 -0.3456 -1.1848
 5407ntf    fn424397   2.708   0.121   0.510  0.9500  0.4866 -0.0052
 5407ntf    fn424398   2.704   0.091   0.302  0.0642 -0.2895 -0.1116
 5407ntf    on524399   2.957  -0.070   0.527  0.4294  0.0820 -0.0429
 5407ntf    on524400   2.953  -0.036   0.281 -0.4022 -0.2480  0.2166
 5407ntf    on524401   3.222   0.131   0.490 -0.2932 -0.0026 -0.0859
 5407ntf    on524402   3.106   0.325   0.577  0.2019 -0.2948  0.5856
 5407ntf    fn424403   3.168   0.244   0.221  0.5993 -0.1345  0.0242
 5407ntf    fn424404   3.089   0.422   0.298  0.5776  0.6613  0.4537
 5407ntf    fn424405   3.286   0.371   0.350  0.4515  0.1915 -0.2253
 5408ntf    cn124406   3.887   3.572   3.601  0.0244  0.0308  0.1779
 5408ntf    sn224407   3.980   3.559   3.757  0.1784  0.3331  0.1129
 5408ntf    nn324408   3.981   3.706   3.812  0.3396  0.4797 -0.2817
 5408ntf    sn224409   3.887   3.770   3.920 -0.0559  0.0848 -0.3897
 5408ntf    cn124410   4.005   3.764   4.058 -0.0183  0.1984 -0.4162
 5408ntf    fn424411   3.762   3.599   3.635 -0.0012 -0.5780  0.5950
 5408ntf    fn424412   3.941   3.659   3.518 -0.0274 -0.0402  0.0698
 5408ntf    fn424413   3.887   3.452   3.546  0.5093  0.0335  0.1642
 5408ntf    on524414   3.908   3.457   3.830  1.1620 -0.5842 -0.1700
 5408ntf    on524415   4.112   3.522   3.713  0.2468  0.2415  0.3901
 5408ntf    on524416   3.772   3.691   3.955  0.3403 -0.4007 -0.1764
 5408ntf    on524417   3.870   3.912   3.902 -0.2500  0.1820  0.5019
 5408ntf    fn424418   3.974   3.845   4.157 -0.3200 -0.1998 -0.1815
 5408ntf    fn424419   4.008   3.645   4.117  0.2919  0.6634  0.5085
 5408ntf    fn424420   4.129   3.791   4.020  0.1024  0.0482 -0.1380
 5409ntf    cn124421   1.040   2.288   5.683 -0.1955  0.0125  0.2198
 5409ntf    sn224422   1.142   2.159   5.761  0.0554  0.0080 -0.1112
 5409ntf    nn324423   1.157   2.244   5.893  0.0951 -0.1489 -0.0138
 5409ntf    sn224424   1.268   2.237   6.003  0.0174  0.0348  0.0754
 5409ntf    cn124425   1.271   2.406   6.071 -0.4010 -0.0668  0.3513
 5409ntf    fn424426   0.947   2.321   5.771 -0.1884  0.1455  0.1764
 5409ntf    fn424427   1.107   2.399   5.656 -0.4475  0.1384  0.1073
 5409ntf    fn424428   0.966   2.250   5.580  0.1335 -0.1610  0.0481
 5409ntf    on524429   1.064   2.038   5.771 -0.0130 -0.0236 -1.0268
 5409ntf    on524430   1.261   2.162   5.680  0.0157  0.5780 -0.1555
 5409ntf    on524431   1.399   2.209   5.950 -0.3247 -0.1153 -0.7058
 5409ntf    on524432   1.229   2.161   6.119 -0.0297  0.0126  0.0451
 5409ntf    fn424433   1.161   2.436   6.139 -0.5706 -0.0239  0.0596
 5409ntf    fn424434   1.374   2.431   6.150  0.3043 -0.8056 -0.3207
 5409ntf    fn424435   1.278   2.495   5.974  0.1019 -0.0637  0.3922
 5410ntf    cn124436   5.661   5.947   0.958  0.2004 -0.1670  0.0946
 5410ntf    sn224437   5.635   5.933   0.779  0.0044  0.4916  0.0710
 5410ntf    nn324438   5.526   5.821   0.776  0.2647  0.2330  0.1519
 5410ntf    sn224439   5.526   5.685   0.698 -0.0130  0.0195  0.5182
 5410ntf    cn124440   5.388   5.584   0.760 -0.0871 -0.1330  0.1091
 5410ntf    fn424441   5.714   6.062   0.995  0.2345 -0.0650 -0.2775
 5410ntf    fn424442   5.546   5.935   1.023  0.1308  0.8053  0.1597
 5410ntf    fn424443   5.737   5.852   1.010  0.2984 -0.0101  0.2379
 5410ntf    on524444   5.580   6.060   0.739 -0.0458  0.4121 -0.1116
 5410ntf    on524445   5.765   5.893   0.731 -0.2210  0.4431 -0.5078
 5410ntf    on524446   5.645   5.607   0.723  0.0065 -0.0707  0.1526
 5410ntf    on524447   5.500   5.701   0.557  0.8274 -0.1347  0.3355
 5410ntf    fn424448   5.270   5.642   0.741  0.0343  0.0489 -0.1015
 5410ntf    fn424449   5.381   5.467   0.700  0.2687  0.1832 -0.5591
 5410ntf    fn424450   5.404   5.565   0.890 -0.5525  0.1802  0.2160
 5411ntf    cn124451   3.971   2.185   0.627  0.0966 -0.1226  0.2031
 5411ntf    sn224452   3.909   2.355   0.641  0.2567 -0.0335 -0.1589
 5411ntf    nn324453   3.982   2.431   0.525  0.3579  0.0040 -0.0707
 5411ntf    sn224454   3.927   2.494   0.392  0.2599 -0.0922 -0.0756
 5411ntf    cn124455   4.069   2.467   0.282  0.5580 -0.3712  0.3758
 5411ntf    fn424456   3.954   2.133   0.507  0.4548 -0.1569  0.1647
 5411ntf    fn424457   4.101   2.174   0.649  0.1078  0.2556  0.3509
 5411ntf    fn424458   3.915   2.100   0.712  0.4665 -0.3350  0.2346
 5411ntf    on524459   3.765   2.343   0.646  0.3467 -1.1080  0.0476
 5411ntf    on524460   3.971   2.401   0.763  0.5140  0.3283 -0.4224
 5411ntf    on524461   3.924   2.638   0.404  0.7319 -0.0016 -1.0107
 5411ntf    on524462   3.818   2.422   0.331  0.3559  0.1592 -0.5530
 5411ntf    fn424463   4.058   2.519   0.161 -0.2715  0.0858  0.6349
 5411ntf    fn424464   4.172   2.522   0.345 -0.0378 -0.0065  1.0450
 5411ntf    fn424465   4.107   2.342   0.266  0.7068 -0.3673  0.6897
 5412ntf    cn124466   5.052   4.164   7.159  0.1704 -0.2539  0.1989
 5412ntf    sn224467   5.016   4.333   7.103  0.1942 -0.1921  0.3720
 5412ntf    nn324468   5.070   4.326   6.956 -0.0584 -0.3717  0.2874
 5412ntf    sn224469   5.013   4.418   6.843  0.2420 -0.3324  0.1675
 5412ntf    cn124470   4.881   4.319   6.768 -0.1869  0.4112 -0.0727
 5412ntf    fn424471   5.183   4.143   7.148  0.1645 -0.2311  0.0796
 5412ntf    fn424472   5.028   4.130   7.284 -0.2727  0.1360  0.2190
 5412ntf    fn424473   5.000   4.073   7.078  0.4892 -0.0968 -0.1838
 5412ntf    on524474   4.872   4.335   7.107  0.1781 -0.0100 -0.2670
 5412ntf    on524475   5.089   4.428   7.184 -0.0300  0.0462  0.2972
 5412ntf    on524476   5.114   4.434   6.740  0.4264  0.0194  0.3993
 5412ntf    on524477   4.946   4.537   6.891  0.1598 -0.5900  0.6907
 5412ntf    fn424478   4.914   4.191   6.757  0.3692  0.5428  0.0415
 5412ntf    fn424479   4.773   4.316   6.846  0.4678  0.0518  0.8347
 5412ntf    fn424480   4.844   4.357   6.647 -0.3666  0.1502 -0.1023
 5413ntf    cn124481   3.432   4.821   6.800  0.1052 -0.0117 -0.3191
 5413ntf    sn224482   3.251   4.812   6.819  0.1308 -0.0214 -0.0701
 5413ntf    nn324483   3.226   4.714   6.699  0.1538  0.1555 -0.2216
 5413ntf    sn224484   3.175   4.732   6.551 -0.5340 -0.0409 -0.0152
 5413ntf    cn124485   3.255   4.581   6.488 -0.3744  0.2009 -0.3910
 5413ntf    fn424486   3.442   4.854   6.672  0.0432 -0.3587 -0.4158
 5413ntf    fn424487   3.479   4.919   6.875  0.3800 -0.3954  0.0151
 5413ntf    fn424488   3.484   4.703   6.829 -0.2995 -0.1731 -0.2422
 5413ntf    on524489   3.225   4.754   6.948  0.6059  0.2360  0.1449
 5413ntf    on524490   3.212   4.948   6.789 -0.3359 -0.1656 -0.1116
 5413ntf    on524491   3.247   4.837   6.485 -0.0320 -0.3808 -0.0188
 5413ntf    on524492   3.035   4.727   6.520 -0.5094  0.5984 -0.2274
 5413ntf    fn424493   3.380   4.612   6.457 -0.3436  0.1603 -0.3064
 5413ntf    fn424494   3.258   4.483   6.576 -0.2167  0.6142  0.0699
 5413ntf    fn424495   3.196   4.539   6.377 -0.3390 -0.2124 -0.2551
 5414ntf    cn124496   1.297   4.945   2.922  0.2755 -0.1199  0.1141
 5414ntf    sn224497   1.279   5.122   2.888 -0.0540 -0.1826 -0.0479
 5414ntf    nn324498   1.178   5.161   3.002  0.2699 -0.1633  0.2376
 5414ntf    sn224499   1.032   5.218   2.990  0.4321  0.1882 -0.0821
 5414ntf    cn124500   1.060   5.393   2.946  0.3167  0.3254  0.3846
 5414ntf    fn424501   1.176   4.892   2.937  0.3333 -0.3026 -0.0547
 5414ntf    fn424502   1.358   4.881   2.824  0.0458 -0.1598 -0.0041
 5414ntf    fn424503   1.363   4.911   3.032 -0.2016 -0.3972  0.3198
 5414ntf    on524504   1.412   5.170   2.918 -0.2495  0.1965  0.2248
 5414ntf    on524505   1.239   5.126   2.750  0.8545  0.2747 -0.3097
 5414ntf    on524506   0.968   5.221   3.119  0.6902 -0.3678  0.0612
 5414ntf    on524507   0.953   5.173   2.879  0.2873  0.0025  0.0967
 5414ntf    fn424508   0.948   5.456   2.915 -0.0052 -0.3662  0.1170
 5414ntf    fn424509   1.114   5.453   3.051  1.0785  0.3165  0.0004
 5414ntf    fn424510   1.143   5.422   2.848  0.2739  0.5305  0.4102
 5415ntf    cn124511   0.394   4.782   0.356 -0.1032  0.1471 -0.0523
 5415ntf    sn224512   0.378   4.927   0.464 -0.0474  0.0730  0.0560
 5415ntf    nn324513   0.523   4.986   0.462 -0.1729  0.3929  0.2497
 5415ntf    sn224514   0.586   5.090   0.363 -0.1455  0.1197 -0.0237
 5415ntf    cn124515   0.739   5.002   0.320 -0.0777  0.2471 -0.0441
 5415ntf    fn424516   0.470   4.685   0.405 -0.1355  0.2463  0.1946
 5415ntf    fn424517   0.280   4.721   0.323  0.0508 -0.1982  0.0454
 5415ntf    fn424518   0.447   4.812   0.239 -0.4102 -0.3898 -0.3337
 5415ntf    on524519   0.266   5.002   0.411 -0.2672  0.2186  0.7191
 5415ntf    on524520   0.348   4.864   0.590  0.7522  0.2669  0.3468
 5415ntf    on524521   0.641   5.208   0.425 -0.4062  0.3239 -0.1805
 5415ntf    on524522   0.521   5.110   0.236  0.2584 -0.5014 -0.3309
 5415ntf    fn424523   0.832   4.987   0.413 -0.0094  0.2100 -0.1183
 5415ntf    fn424524   0.715   4.876   0.288  0.1586  0.3055 -0.4678
 5415ntf    fn424525   0.793   5.052   0.210  0.1454 -0.0391 -0.0664
 5416ntf    cn124526   1.305   1.609   7.287  0.2508  0.3590 -0.2122
 5416ntf    sn224527   1.180   1.495   7.222  0.4365  0.0002  0.0541
 5416ntf    nn324528   1.128   1.437   7.358  0.2221 -0.5227 -0.2497
 5416ntf    sn224529   0.981   1.432   7.413  0.3913  0.3236  0.2903
 5416ntf    cn124530   1.015   1.377   7.583  0.4579  0.0358  0.1836
 5416ntf    fn424531   1.375   1.567   7.391  0.0153  0.6368  0.0627
 5416ntf    fn424532   1.392   1.650   7.196  0.3441  0.6848  0.0210
 5416ntf    fn424533   1.245   1.716   7.338 -0.3626 -0.1112  0.0572
 5416ntf    on524534   1.101   1.585   7.141  0.3847  0.1432  0.2626
 5416ntf    on524535   1.259   1.397   7.154  0.0077  0.3376 -0.9508
 5416ntf    on524536   0.899   1.322   7.369  0.2089  0.5114  0.1585
 5416ntf    on524537   0.913   1.557   7.439  0.4093  0.4005 -0.0259
 5416ntf    fn424538   1.069   1.475   7.653 -0.4679  0.4628  0.3038
 5416ntf    fn424539   0.904   1.336   7.640  0.3529 -0.1933 -0.1802
 5416ntf    fn424540   1.104   1.279   7.586  0.2656 -0.1425  0.0394
 5417ntf    cn124541   0.906   4.925   6.769  0.5078  0.2057  0.1127
 5417ntf    sn224542   0.903   4.940   6.950 -0.0432 -0.2449  0.1456
 5417ntf    nn324543   1.048   4.987   6.987 -0.1458 -0.0053  0.2470
 5417ntf    sn224544   1.170   4.896   7.027  0.0754  0.2545  0.1644
 5417ntf    cn124545   1.294   4.964   6.912  0.1044 -0.2966 -0.1313
 5417ntf    fn424546   0.933   5.043   6.717  0.6371  0.2949  0.3844
 5417ntf    fn424547   0.993   4.839   6.718  0.4050  0.1132  0.0912
 5417ntf    fn424548   0.796   4.885   6.707  0.3908  0.4144  0.1861
 5417ntf    on524549   0.811   5.048   6.975 -0.4994 -0.4224 -0.7383
 5417ntf    on524550   0.867   4.813   7.009 -0.4040 -0.0061  0.4436
 5417ntf    on524551   1.166   4.757   6.992  0.6163  0.1562  0.4775
 5417ntf    on524552   1.226   4.940   7.153 -0.0892  0.3766  0.1954
 5417ntf    fn424553   1.402   4.887   6.909  0.1676 -0.2175  0.0738
 5417ntf    fn424554   1.239   4.968   6.792  0.1504  0.7475 -0.1257
 5417ntf    fn424555   1.341   5.084   6.943  0.1197 -0.4863  0.6196
 5418ntf    cn124556   5.230   7.605   6.700  0.0051  0.0394 -0.1213
 5418ntf    sn224557   5.305   7.696   6.561  0.2445  0.0432  0.0105
 5418ntf    nn324558   5.424   7.595   6.536  0.2009  0.0829 -0.3513
 5418ntf    sn224559   5.571   7.607   6.588  0.0304 -0.1447  0.1886
 5418ntf    cn124560   5.645   7.707   6.455  0.1821  0.2527  0.5667
 5418ntf    fn424561   5.136   7.682   6.753  0.4826  0.3082  0.3475
 5418ntf    fn424562   5.173   7.489   6.671  0.1867 -0.1317  0.2036
 5418ntf    fn424563   5.322   7.587   6.793  0.1041 -0.1352 -0.2519
 5418ntf    on524564   5.215   7.688   6.449  0.3258 -0.1342 -0.0422
 5418ntf    on524565   5.333   7.828   6.611  0.0495  0.2006 -0.2949
 5418ntf    on524566   5.639   7.480   6.588  0.2956 -0.0051  0.2143
 5418ntf    on524567   5.588   7.681   6.711  0.4590 -0.0623  0.0819
 5418ntf    fn424568   5.625   7.652   6.336  0.2122  0.7582  0.3260
 5418ntf    fn424569   5.578   7.820   6.440 -0.5617 -0.2305  0.1750
 5418ntf    fn424570   5.769   7.741   6.486  0.3350 -0.0669  0.3157
 5419ntf    cn124571   4.814   4.140   1.678  0.0710  0.1757 -0.0066
 5419ntf    sn224572   4.659   4.067   1.618  0.1619 -0.0125 -0.0137
 5419ntf    nn324573   4.701   4.052   1.468 -0.4088  0.6426 -0.2429
 5419ntf    sn224574   4.630   3.982   1.346  0.0224 -0.1588 -0.0425
 5419ntf    cn124575   4.751   3.850   1.317 -0.0846 -0.1742 -0.4234
 5419ntf    fn424576   4.919   4.059   1.668 -0.0991  0.0371 -0.7815
 5419ntf    fn424577   4.847   4.245   1.605 -0.3332  0.2249 -0.1234
 5419ntf    fn424578   4.804   4.176   1.805 -0.2108  0.3546 -0.0803
 5419ntf    on524579   4.653   3.945   1.696  0.5124  0.1395  0.2528
 5419ntf    on524580   4.560   4.169   1.640 -0.4314 -0.4786 -0.4662
 5419ntf    on524581   4.632   4.058   1.223 -0.7122 -0.2995 -0.1490
 5419ntf    on524582   4.506   3.914   1.373 -0.1142 -0.1944 -0.7588
 5419ntf    fn424583   4.868   3.902   1.286  0.1120 -0.0938  0.4349
 5419ntf    fn424584   4.768   3.792   1.435  0.4752 -0.1483 -0.4893
 5419ntf    fn424585   4.710   3.752   1.238 -0.5290 -0.3528  0.0237
 5420ntf    cn124586   1.783   3.094   3.432 -0.0113  0.2108 -0.0111
 5420ntf    sn224587   1.790   3.097   3.613  0.0698  0.3902 -0.0165
 5420ntf    nn324588   1.759   3.249   3.640 -0.5218  0.2912 -0.1217
 5420ntf    sn224589   1.790   3.335   3.767  0.2951  0.0273 -0.1371
 5420ntf    cn124590   1.954   3.401   3.720  0.2769 -0.2360 -0.5734
 5420ntf    fn424591   1.662   3.072   3.382  0.3411 -0.7632 -0.4592
 5420ntf    fn424592   1.823   3.208   3.378  0.3600  0.1032  0.0354
 5420ntf    fn424593   1.860   2.998   3.385  0.2546 -0.0216  0.8897
 5420ntf    on524594   1.685   3.012   3.662  0.4125 -0.0442 -0.0353
 5420ntf    on524595   1.928   3.058   3.630 -0.1416 -0.0294  0.8074
 5420ntf    on524596   1.809   3.270   3.894 -0.4599 -0.4447 -0.2637
 5420ntf    on524597   1.699   3.447   3.765  0.0420 -0.1778 -0.0885
 5420ntf    fn424598   1.961   3.468   3.607  0.5979  0.4395 -0.1531
 5420ntf    fn424599   2.001   3.494   3.801  0.5173 -0.2882 -0.6528
 5420ntf    fn424600   2.038   3.301   3.702  0.1592 -0.3921 -0.2677
 5421ntf    cn124601   7.475   0.592   6.330 -0.2092 -0.0744 -0.0655
 5421ntf    sn224602   7.319   0.511   6.284 -0.1363 -0.1618 -0.1556
 5421ntf    nn324603   7.344   0.454   6.140 -0.0758 -0.1920 -0.1333
 5421ntf    sn224604   7.411   0.534   6.022 -0.2773  0.1769 -0.0015
 5421ntf    cn124605   7.314   0.447   5.894 -0.0742 -0.3492  0.1968
 5421ntf    fn424606   7.508   0.690   6.247  0.2766 -0.1709  0.0125
 5421ntf    fn424607   7.461   0.640   6.453  0.0630 -0.4220  0.1010
 5421ntf    fn424608   7.577   0.508   6.331  0.0647  0.2583  0.1584
 5421ntf    on524609   7.312   0.401   6.377 -0.3527  0.1335  0.1809
 5421ntf    on524610   7.224   0.619   6.293  0.1338  0.1004 -0.4128
 5421ntf    on524611   7.550   0.506   5.993 -0.1628  0.2941  0.4279
 5421ntf    on524612   7.375   0.673   6.008  0.0125  0.2858  0.3459
 5421ntf    fn424613   7.382   0.340   5.858 -0.1334 -0.6165  0.8603
 5421ntf    fn424614   7.192   0.408   5.926 -0.4428  0.3225 -0.3634
 5421ntf    fn424615   7.298   0.518   5.783  0.5674 -0.2327  0.1740
 5422ntf    cn124616   1.098   5.408   0.733 -0.4682 -0.0928  0.6960
 5422ntf    sn224617   1.004   5.478   0.872 -0.1222  0.3681  0.6989
 5422ntf    nn324618   1.128   5.509   0.963  0.6683 -0.0187 -0.2219
 5422ntf    sn224619   1.199   5.649   0.966  0.1682  0.2376 -0.2181
 5422ntf    cn124620   1.371   5.603   1.003  0.2325  0.4758 -0.2178
 5422ntf    fn424621   1.145   5.497   0.647 -0.3927 -0.6439  0.1560
 5422ntf    fn424622   1.195   5.329   0.778 -0.1782  0.0072  0.2541
 5422ntf    fn424623   1.013   5.340   0.658  0.5627  0.0554 -0.6454
 5422ntf    on524624   0.932   5.592   0.819  0.4269  0.3938 -0.0251
 5422ntf    on524625   0.922   5.371   0.923 -0.3777  0.0214 -0.4168
 5422ntf    on524626   1.160   5.725   1.082 -0.4268 -0.7334  0.2268
 5422ntf    on524627   1.210   5.721   0.841  0.3033 -0.0318 -0.3628
 5422ntf    fn424628   1.414   5.537   0.896 -0.5106  0.4452 -0.5030
 5422ntf    fn424629   1.455   5.702   1.026  0.3486  0.1430  0.8131
 5422ntf    fn424630   1.387   5.518   1.104 -0.2173  0.1358 -0.4279
 5423ntf    cn124631   1.455   0.445   4.638  0.3591  0.6158 -0.1921
 5423ntf    sn224632   1.360   0.439   4.483 -0.1111 -0.1061  0.1206
 5423ntf    nn324633   1.219   0.486   4.534 -0.1280 -0.2981  0.2531
 5423ntf    sn224634   1.084   0.510   4.457 -0.0529 -0.1880  0.1549
 5423ntf    cn124635   0.971   0.397   4.544 -0.3005  0.0244  0.1090
 5423ntf    fn424636   1.404   0.368   4.732  0.1464  0.4144 -0.4717
 5423ntf    fn424637   1.582   0.411   4.622  0.1291 -0.2202 -0.2667
 5423ntf    fn424638   1.451   0.566   4.692 -0.6014  0.3289  0.4159
 5423ntf    on524639   1.431   0.536   4.404  0.2190 -0.4525 -0.0104
 5423ntf    on524640   1.357   0.300   4.446 -0.3375 -0.3067  0.8619
 5423ntf    on524641   1.090   0.469   4.319 -0.3387  0.3943 -0.0324
 5423ntf    on524642   1.025   0.638   4.488  0.3029  0.1096 -0.3837
 5423ntf    fn424643   0.848   0.438   4.518 -0.4236 -0.3232  0.1500
 5423ntf    fn424644   0.988   0.276   4.493  0.0402  0.2049 -0.2135
 5423ntf    fn424645   0.991   0.390   4.675 -0.5751  0.9595  0.2098
 5424ntf    cn124646   0.410   6.634   6.061 -0.0825  0.2134  0.2768
 5424ntf    sn224647   0.340   6.763   6.168 -0.1658  0.2432  0.1874
 5424ntf    nn324648   0.457   6.867   6.157  0.3648 -0.3906 -0.2378
 5424ntf    sn224649   0.480   7.007   6.225  0.0083 -0.3697 -0.1550
 5424ntf    cn124650   0.555   6.964   6.385 -0.0888  0.2068  0.0447
 5424ntf    fn424651   0.433   6.687   5.942  0.5494 -0.0982  0.2562
 5424ntf    fn424652   0.525   6.582   6.102  0.1388  0.6431  0.2006
 5424ntf    fn424653   0.335   6.527   6.040  0.2373  0.1628 -0.6178
 5424ntf    on524654   0.223   6.808   6.097  0.1871  0.3742 -0.3117
 5424ntf    on524655   0.334   6.709   6.302  0.1478 -0.0742  0.0760
 5424ntf    on524656   0.357   7.075   6.253  0.3741  0.2607 -0.0558
 5424ntf    on524657   0.587   7.087   6.171 -0.3411  0.1393 -0.0935
 5424ntf    fn424658   0.666   6.893   6.379 -0.1482  0.0796  0.4147
 5424ntf    fn424659   0.594   7.070   6.454  0.3693  0.4109 -0.5259
 5424ntf    fn424660   0.474   6.893   6.462  0.6660 -0.8550 -0.1173
 5425ntf    cn124661   2.199   0.405   1.676 -0.3094 -0.6613 -0.2062
 5425ntf    sn224662   2.255   0.501   1.820  0.2822 -0.2780 -0.6889
 5425ntf    nn324663   2.114   0.519   1.887  0.3254 -0.1573 -0.6312
 5425ntf    sn224664   2.030   0.647   1.921 -0.1649 -0.5699 -0.2770
 5425ntf    cn124665   1.896   0.647   1.799 -0.3480  0.0890 -0.0830
 5425ntf    fn424666   2.097   0.323   1.697 -0.8499 -0.0184 -0.3196
 5425ntf    fn424667   2.161   0.490   1.582 -0.3622  0.2420  0.6161
 5425ntf    fn424668   2.303   0.338   1.630  0.4767  0.0019  0.5687
 5425ntf    on524669   2.342   0.416   1.898 -0.4214 -0.6337 -0.2837
 5425ntf    on524670   2.319   0.615   1.759 -0.2320  0.2317 -0.2847
 5425ntf    on524671   2.108   0.766   1.898 -0.6886 -0.2394 -0.3543
 5425ntf    on524672   1.946   0.636   2.038 -0.1176 -0.2228 -0.2064
 5425ntf    fn424673   1.949   0.663   1.678 -0.2395  0.4816  0.0144
 5425ntf    fn424674   1.844   0.525   1.803  0.3402 -0.1842  0.7263
 5425ntf    fn424675   1.800   0.737   1.814 -0.7493 -0.2864 -0.3762
 5426ntf    cn124676   0.715   1.773   4.740 -0.5115 -0.0364  0.2827
 5426ntf    sn224677   0.678   1.704   4.904  0.0330  0.1160  0.4716
 5426ntf    nn324678   0.536   1.769   4.918 -0.0087  0.0396  0.4069
 5426ntf    sn224679   0.489   1.885   5.013 -0.0572  0.2229  0.1611
 5426ntf    cn124680   0.329   1.822   5.072  0.1103 -0.0952  0.2770
 5426ntf    fn424681   0.838   1.742   4.705 -0.6059  0.4156 -0.4792
 5426ntf    fn424682   0.636   1.726   4.645 -0.0703 -0.0304 -0.0887
 5426ntf    fn424683   0.719   1.905   4.745 -0.2172  0.0164 -1.0067
 5426ntf    on524684   0.677   1.560   4.893  0.4786  0.1413  0.0791
 5426ntf    on524685   0.778   1.750   4.996  0.3058 -0.0532  0.2627
 5426ntf    on524686   0.452   2.005   4.942 -0.2192 -0.3576 -0.7477
 5426ntf    on524687   0.568   1.901   5.133  0.0805  0.4415  0.0413
 5426ntf    fn424688   0.241   1.792   4.977  0.1023 -0.6010  0.4372
 5426ntf    fn424689   0.344   1.701   5.125  0.0090 -0.0739  0.3545
 5426ntf    fn424690   0.267   1.897   5.161 -0.4675 -0.1219 -0.0971
 5427ntf    cn124691   0.435   4.016   6.999  0.2130  0.0201 -0.1408
 5427ntf    sn224692   0.282   4.068   7.082  0.2298  0.3106 -0.2906
 5427ntf    nn324693   0.187   4.064   6.958  0.1256 -0.1045 -0.1992
 5427ntf    sn224694   0.159   4.148   6.828  0.2570 -0.0373 -0.1846
 5427ntf    cn124695   0.037   4.262   6.899  0.1853 -0.1380 -0.1467
 5427ntf    fn424696   0.534   3.975   7.077 -0.1344  0.3647  0.4889
 5427ntf    fn424697   0.412   3.914   6.917 -0.7548  0.2538 -0.1673
 5427ntf    fn424698   0.481   4.111   6.919  0.4112 -0.0053 -0.0585
 5427ntf    on524699   0.254   3.961   7.176 -0.2139  0.3533 -0.3721
 5427ntf    on524700   0.319   4.200   7.126  0.7974  0.0838 -0.0746
 5427ntf    on524701   0.092   4.080   6.720  0.1468  0.1922 -0.2598
 5427ntf    on524702   0.270   4.233   6.790 -0.0147  0.1094 -0.6522
 5427ntf    fn424703   0.095   4.334   6.993  0.1305 -0.1118 -0.1334
 5427ntf    fn424704   0.005   4.347   6.802  0.3877  0.2311  0.1117
 5427ntf    fn424705  -0.072   4.211   6.954  0.3712  0.0097  0.3591
 5428ntf    cn124706   7.384   6.986   3.665  0.2241  0.1809 -0.4010
 5428ntf    sn224707   7.390   6.809   3.704  0.0200  0.3006  0.1911
 5428ntf    nn324708   7.416   6.802   3.858  0.6230  0.3677  0.0950
 5428ntf    sn224709   7.334   6.885   3.965  0.1166 -0.0185  0.0095
 5428ntf    cn124710   7.391   6.798   4.114  0.2294  0.2100  0.1001
 5428ntf    fn424711   7.281   7.053   3.715  0.1295  0.1159 -0.5112
 5428ntf    fn424712   7.497   7.047   3.700  0.1901 -0.1877  0.3671
 5428ntf    fn424713   7.366   7.011   3.537  0.7011 -0.4649 -0.5974
 5428ntf    on524714   7.260   6.757   3.666  0.3583 -0.2766 -0.1928
 5428ntf    on524715   7.501   6.756   3.628 -0.7261 -0.2804 -0.5212
 5428ntf    on524716   7.196   6.844   3.971  0.1704 -0.1676  0.2550
 5428ntf    on524717   7.371   7.022   3.991  0.6619 -0.1713  0.0558
 5428ntf    fn424718   7.523   6.799   4.118  0.2347  0.3151 -0.1204
 5428ntf    fn424719   7.336   6.849   4.223 -0.2787  0.3436 -0.2191
 5428ntf    fn424720   7.351   6.672   4.104  0.1778  0.2801 -0.6094
 5429ntf    cn124721   4.985   0.632   1.120  0.0485 -0.2547  0.0712
 5429ntf    sn224722   4.986   0.494   1.001 -0.2705  0.0470 -0.2868
 5429ntf    nn324723   4.897   0.396   1.086 -0.5007 -0.1339 -0.7319
 5429ntf    sn224724   4.935   0.254   1.141  0.3619  0.3085 -0.1518
 5429ntf    cn124725   4.911   0.265   1.321 -0.5770 -0.1457 -0.2472
 5429ntf    fn424726   4.881   0.711   1.102  0.6287  0.5433  0.1593
 5429ntf    fn424727   4.984   0.602   1.248 -0.1093  0.5936  0.2741
 5429ntf    fn424728   5.095   0.702   1.099  0.1924 -0.5956 -0.3375
 5429ntf    on524729   4.915   0.554   0.892 -0.1606 -0.0446 -0.4084
 5429ntf    on524730   5.126   0.464   0.983  0.0055  0.8180  0.4884
 5429ntf    on524731   5.071   0.206   1.127 -0.1059 -0.8976 -0.7289
 5429ntf    on524732   4.837   0.154   1.106  0.2691  0.2206  0.3573
 5429ntf    fn424733   4.943   0.152   1.382 -0.4509  0.0162 -0.0168
 5429ntf    fn424734   4.986   0.355   1.381 -0.5539 -0.3509  0.0334
 5429ntf    fn424735   4.786   0.297   1.352 -0.5438  0.0932 -0.3568
 5430ntf    cn124736   2.696   1.158   5.441 -0.1311  0.2384 -0.2942
 5430ntf    sn224737   2.666   1.317   5.525 -0.2086  0.1094 -0.0755
 5430ntf    nn324738   2.779   1.314   5.634  0.3446 -0.2850 -0.6481
 5430ntf    sn224739   2.911   1.400   5.633  0.2551 -0.1308  0.0203
 5430ntf    cn124740   2.849   1.557   5.702  0.0969 -0.2270  0.0986
 5430ntf    fn424741   2.606   1.131   5.348 -0.1690 -0.1787 -0.1379
 5430ntf    fn424742   2.817   1.169   5.389 -0.1595  0.0219 -0.4071
 5430ntf    fn424743   2.701   1.056   5.525 -0.1875  0.1386 -0.4124
 5430ntf    on524744   2.686   1.416   5.422  0.4086 -0.1593 -0.2243
 5430ntf    on524745   2.534   1.300   5.579 -0.1042 -0.3086  0.0566
 5430ntf    on524746   2.971   1.435   5.507 -0.0454 -0.6126 -0.2638
 5430ntf    on524747   3.003   1.345   5.729  0.8621 -0.0181 -0.4872
 5430ntf    fn424748   2.912   1.668   5.670  0.5223 -0.5875 -0.3412
 5430ntf    fn424749   2.728   1.578   5.652  0.0491  0.1338  0.3658
 5430ntf    fn424750   2.849   1.556   5.834 -0.5855 -0.0091  0.1052
 5431ntf    cn124751   0.153   0.035   1.714  0.0735 -0.0211 -0.0151
 5431ntf    sn224752   0.280   0.150   1.654  0.2153 -0.0884  0.1541
 5431ntf    nn324753   0.251   0.124   1.502  0.5393 -0.1576  0.1037
 5431ntf    sn224754   0.265  -0.000   1.407  0.2136 -0.0332 -0.1077
 5431ntf    cn124755   0.225   0.083   1.250 -0.0027 -0.4350 -0.2676
 5431ntf    fn424756   0.147   0.012   1.844  0.6246 -0.0248  0.0139
 5431ntf    fn424757   0.033   0.086   1.692  0.0289 -0.2811 -0.3868
 5431ntf    fn424758   0.159  -0.088   1.666  0.1281 -0.0297  0.0131
 5431ntf    on524759   0.233   0.282   1.690 -0.7695 -0.4315  0.1427
 5431ntf    on524760   0.405   0.108   1.712  0.2138  0.1328  0.3188
 5431ntf    on524761   0.153  -0.090   1.420 -0.1035  0.4150  0.2741
 5431ntf    on524762   0.399  -0.051   1.391  0.1794 -0.1900  0.1110
 5431ntf    fn424763   0.204  -0.013   1.161 -0.6984  0.1047 -0.6964
 5431ntf    fn424764   0.116   0.155   1.264 -0.0003 -0.4039 -0.4087
 5431ntf    fn424765   0.327   0.153   1.203 -0.1291 -0.0878 -0.0249
 5432ntf    cn124766   5.945   1.216   5.710 -0.0637 -0.0908  0.0897
 5432ntf    sn224767   5.953   1.232   5.529 -0.0100 -0.2528  0.0771
 5432ntf    nn324768   5.861   1.358   5.509  0.0711 -0.2372 -0.2044
 5432ntf    sn224769   5.867   1.463   5.392 -0.2824  0.0490  0.0305
 5432ntf    cn124770   5.933   1.613   5.470 -0.1477 -0.0490  0.1075
 5432ntf    fn424771   5.976   1.097   5.757 -0.2151 -0.1632  0.0077
 5432ntf    fn424772   6.023   1.309   5.763 -0.1127  0.1511 -0.2542
 5432ntf    fn424773   5.828   1.248   5.763 -0.0297 -0.5489  0.4432
 5432ntf    on524774   6.089   1.267   5.496 -0.2065  0.0616 -0.4049
 5432ntf    on524775   5.884   1.118   5.476 -0.6403  0.3152 -0.3458
 5432ntf    on524776   5.736   1.503   5.350 -0.4663 -0.9291 -0.3499
 5432ntf    on524777   5.965   1.434   5.290 -0.2557  0.9221 -0.1939
 5432ntf    fn424778   5.983   1.694   5.379 -0.1791  0.0091  0.1416
 5432ntf    fn424779   5.838   1.683   5.531  0.0416  0.0111  0.3361
 5432ntf    fn424780   6.025   1.584   5.561 -0.1487 -0.2594  0.0406
 5433ntf    cn124781   5.269   4.645   5.059  0.1830  0.3489 -0.1480
 5433ntf    sn224782   5.433   4.645   5.137  0.0063 -0.3437  0.2372
 5433ntf    nn324783   5.494   4.787   5.107 -0.0408 -0.3770 -0.0196
 5433ntf    sn224784   5.496   4.908   5.206  0.0867 -0.4892  0.1144
 5433ntf    cn124785   5.650   4.877   5.298  0.3515  0.1066 -0.1186
 5433ntf    fn424786   5.281   4.668   4.930  0.7255 -0.1921 -0.1969
 5433ntf    fn424787   5.206   4.529   5.064  0.8758 -0.0401 -0.3563
 5433ntf    fn424788   5.192   4.741   5.107 -0.0732  0.2107 -0.2777
 5433ntf    on524789   5.413   4.610   5.275 -0.0063  0.4975  0.4521
 5433ntf    on524790   5.512   4.552   5.061  0.4213  0.6174 -0.5414
 5433ntf    on524791   5.384   4.920   5.297 -0.1547 -0.2619 -0.2118
 5433ntf    on524792   5.532   5.027   5.134 -0.9508 -0.1760  0.1033
 5433ntf    fn424793   5.634   4.778   5.385  0.5307 -0.0904 -0.3095
 5433ntf    fn424794   5.750   4.848   5.216  0.1510  0.6674 -0.5676
 5433ntf    fn424795   5.682   4.987   5.364 -0.2743  0.5789 -0.5908
 5434ntf    cn124796   3.603   3.229   6.632  0.1537  0.3436  0.2030
 5434ntf    sn224797   3.756   3.326   6.644  0.2978  0.0825  0.5105
 5434ntf    nn324798   3.688   3.468   6.642 -0.2180 -0.1649  0.0327
 5434ntf    sn224799   3.678   3.563   6.517  0.0981 -0.0944  0.0592
 5434ntf    cn124800   3.692   3.731   6.585  0.2321 -0.0950  0.0334
 5434ntf    fn424801   3.618   3.100   6.611 -0.0012  0.3675 -0.0576
 5434ntf    fn424802   3.535   3.239   6.745 -0.5961 -0.7571 -0.1384
 5434ntf    fn424803   3.524   3.268   6.533  0.2201  0.0176  0.0198
 5434ntf    on524804   3.804   3.293   6.775 -0.0878 -0.1723  0.5890
 5434ntf    on524805   3.827   3.270   6.532 -0.0239 -0.1382  0.4156
 5434ntf    on524806   3.545   3.549   6.462  0.2331 -0.5361 -0.1652
 5434ntf    on524807   3.786   3.555   6.423  0.0463 -0.1764  0.0071
 5434ntf    fn424808   3.705   3.814   6.483 -0.4060  0.0061  0.0273
 5434ntf    fn424809   3.597   3.775   6.667  0.0983  0.0035 -0.1742
 5434ntf    fn424810   3.800   3.752   6.657  0.2522  0.1762 -0.0768
 5435ntf    cn124811   2.113   6.784   2.017  0.1004  0.2927 -0.0549
 5435ntf    sn224812   2.243   6.893   2.080 -0.1025  0.3726  0.2256
 5435ntf    nn324813   2.256   6.989   1.956  0.0043  0.3814  0.2430
 5435ntf    sn224814   2.359   6.982   1.838 -0.0058  0.2433  0.2413
 5435ntf    cn124815   2.249   6.981   1.694  0.0761 -0.6702  0.1816
 5435ntf    fn424816   2.164   6.702   1.926 -0.4615  0.3606 -0.4380
 5435ntf    fn424817   2.070   6.707   2.115  0.3291  0.1182 -0.0902
 5435ntf    fn424818   2.014   6.853   1.961 -0.1425 -0.0726 -0.0787
 5435ntf    on524819   2.179   6.967   2.186 -0.6558  0.1802  0.0270
 5435ntf    on524820   2.357   6.807   2.098 -0.4411  0.1771  1.5698
 5435ntf    on524821   2.424   6.854   1.826 -0.2358  0.1218  0.2978
 5435ntf    on524822   2.433   7.106   1.827  0.1650  0.1814  0.6749
 5435ntf    fn424823   2.321   6.996   1.583 -0.2480  0.1870  0.0771
 5435ntf    fn424824   2.181   6.868   1.676 -0.2028 -0.5336  0.3745
 5435ntf    fn424825   2.155   7.074   1.690  0.7826  0.0553  0.2605
 5436ntf    cn124826   6.040   5.909   0.234  0.1201 -0.1053  0.4347
 5436ntf    sn224827   6.143   6.043   0.301 -0.0405  0.0689  0.3353
 5436ntf    nn324828   6.037   6.155   0.273  0.8915  0.8269 -0.2202
 5436ntf    sn224829   5.995   6.274   0.367 -0.2396  0.0289  0.3055
 5436ntf    cn124830   6.065   6.414   0.275  0.2053  0.0635  0.6971
 5436ntf    fn424831   5.933   5.887   0.309  0.0120  0.0027  0.3119
 5436ntf    fn424832   6.012   5.940   0.109  0.2765  0.7266  0.5972
 5436ntf    fn424833   6.094   5.790   0.218  0.5132  0.1668 -0.3163
 5436ntf    on524834   6.152   6.005   0.440 -0.3895  0.4305  0.4576
 5436ntf    on524835   6.261   6.046   0.218 -0.5348 -0.0909 -0.3860
 5436ntf    on524836   6.073   6.283   0.487  0.3849 -0.2836 -0.0725
 5436ntf    on524837   5.853   6.300   0.368 -0.2027  0.2460  0.1188
 5436ntf    fn424838   6.031   6.406   0.148 -0.2627  0.2718  0.8074
 5436ntf    fn424839   6.019   6.531   0.318 -0.3590  0.2127 -0.2849
 5436ntf    fn424840   6.197   6.426   0.281  0.1641  0.9824  0.0955
 5437ntf    cn124841   6.814   3.190   4.938  0.1201 -0.2221  0.4002
 5437ntf    sn224842   6.797   3.018   4.882 -0.2651 -0.0193 -0.1276
 5437ntf    nn324843   6.768   3.033   4.729 -0.3287  0.3058 -0.0837
 5437ntf    sn224844   6.687   2.935   4.637 -0.1494  0.0407  0.0396
 5437ntf    cn124845   6.762   2.780   4.694  0.0168  0.0258 -0.2182
 5437ntf    fn424846   6.710   3.267   4.906  0.0387 -0.4888  0.0105
 5437ntf    fn424847   6.825   3.197   5.069  0.1013 -0.4817  0.4159
 5437ntf    fn424848   6.920   3.250   4.888 -0.0575 -0.0815  0.1862
 5437ntf    on524849   6.929   2.965   4.907 -0.4710 -0.3068  0.3831
 5437ntf    on524850   6.685   2.966   4.957 -0.0410  0.2339  0.3917
 5437ntf    on524851   6.730   2.937   4.499  0.3399 -0.7024  0.1757
 5437ntf    on524852   6.546   2.927   4.666 -0.0535 -0.3486  0.4067
 5437ntf    fn424853   6.704   2.686   4.622 -0.2226 -0.4023  0.5245
 5437ntf    fn424854   6.890   2.772   4.663  0.0329  0.6416 -0.3241
 5437ntf    fn424855   6.751   2.743   4.821  0.0393 -0.0254 -0.2305
 5438ntf    cn124856   7.482   4.935   5.476  0.0053 -0.1142 -0.3402
 5438ntf    sn224857   7.586   4.871   5.342  0.3708 -0.3646  0.0600
 5438ntf    nn324858   7.575   4.716   5.361  0.1473 -0.2908  0.5321
 5438ntf    sn224859   7.491   4.616   5.274 -0.0063  0.3925 -0.1045
 5438ntf    cn124860   7.426   4.512   5.408 -0.0244  0.4362 -0.0794
 5438ntf    fn424861   7.544   4.914   5.591  0.1485 -0.0427 -0.4043
 5438ntf    fn424862   7.455   5.065   5.475  0.2548 -0.0522  0.2982
 5438ntf    fn424863   7.373   4.860   5.487  0.0351 -0.0960  0.0959
 5438ntf    on524864   7.525   4.923   5.221  1.5946  0.6061 -0.1552
 5438ntf    on524865   7.723   4.907   5.367  0.1527  0.1795  0.4773
 5438ntf    on524866   7.579   4.543   5.186  0.5923  0.3153  0.5503
 5438ntf    on524867   7.372   4.667   5.209 -0.0562  0.7173  0.2411
 5438ntf    fn424868   7.353   4.589   5.487  0.0703  0.6054 -0.1543
 5438ntf    fn424869   7.345   4.420   5.360  0.3370  0.1218 -0.0876
 5438ntf    fn424870   7.520   4.441   5.468 -0.4902 -0.3243 -0.2346
 5439ntf    cn124871   7.541   6.966   1.450 -0.7248 -0.3807  0.4214
 5439ntf    sn224872   7.391   7.057   1.497 -0.5238  0.0244  0.2747
 5439ntf    nn324873   7.444   7.139   1.620 -0.4319  0.4373 -0.0360
 5439ntf    sn224874   7.449   7.103   1.773  0.0910  0.2001 -0.1068
 5439ntf    cn124875   7.600   7.180   1.837  0.0859  0.1781 -0.0680
 5439ntf    fn424876   7.530   6.938   1.321  0.5653  0.2761  0.1523
 5439ntf    fn424877   7.647   7.045   1.453 -0.9633 -0.0186 -0.3469
 5439ntf    fn424878   7.575   6.857   1.517 -0.3949 -0.2174  0.5232
 5439ntf    on524879   7.371   7.142   1.382  0.0890  0.0904  0.2096
 5439ntf    on524880   7.297   6.958   1.540 -0.5137 -0.1128 -0.0159
 5439ntf    on524881   7.470   6.965   1.811  0.4409  0.4647  0.6662
 5439ntf    on524882   7.358   7.175   1.858  0.1543 -0.0607  0.1828
 5439ntf    fn424883   7.624   7.301   1.787  0.8889 -0.1497 -0.5041
 5439ntf    fn424884   7.585   7.200   1.967  0.0130 -0.6459  0.0550
 5439ntf    fn424885   7.708   7.105   1.822 -0.2307 -0.4187  0.6195
 5440ntf    cn124886   6.386   6.627   4.918 -0.3391  0.4685 -0.4587
 5440ntf    sn224887   6.531   6.613   4.810  0.0710  0.0556  0.1405
 5440ntf    nn324888   6.550   6.457   4.809  0.5218  0.1070 -0.6353
 5440ntf    sn224889   6.471   6.354   4.720 -0.2327  0.0359  0.1030
 5440ntf    cn124890   6.584   6.351   4.578  0.1776  0.4120  0.4165
 5440ntf    fn424891   6.360   6.752   4.953  0.8522  0.5792  0.0558
 5440ntf    fn424892   6.273   6.579   4.868 -0.6205  0.1801  0.4319
 5440ntf    fn424893   6.407   6.561   5.031  0.2500  0.1582 -0.7453
 5440ntf    on524894   6.480   6.664   4.685 -1.0511  0.0403  0.5804
 5440ntf    on524895   6.634   6.680   4.884  0.1047  0.4959 -0.3019
 5440ntf    on524896   6.344   6.405   4.674 -0.3581 -0.1216  0.2711
 5440ntf    on524897   6.466   6.220   4.774  0.0095 -0.1764 -0.4033
 5440ntf    fn424898   6.615   6.466   4.522  0.2545  0.0843 -0.2233
 5440ntf    fn424899   6.700   6.298   4.613  0.3913  0.3397 -0.3724
 5440ntf    fn424900   6.522   6.285   4.481  0.2472  0.0236  0.6314
 5441ntf    cn124901   2.749   1.619   3.166 -0.0243 -0.6414 -0.1543
 5441ntf    sn224902   2.927   1.591   3.138  0.1095  0.1665 -0.1502
 5441ntf    nn324903   2.934   1.462   3.049  0.0190 -0.3115  0.5298
 5441ntf    sn224904   2.960   1.312   3.087  0.2825 -0.3481  0.2112
 5441ntf    cn124905   3.015   1.247   2.927  0.1992  0.2112 -0.0454
 5441ntf    fn424906   2.702   1.510   3.224 -0.4238  0.0048  0.7571
 5441ntf    fn424907   2.726   1.727   3.239  0.4390 -0.4888 -0.2273
 5441ntf    fn424908   2.674   1.628   3.058  0.5593 -0.1164 -0.5241
 5441ntf    on524909   2.978   1.703   3.063  0.2563  0.2432  0.0663
 5441ntf    on524910   2.972   1.576   3.274 -1.3791  0.2931  0.3756
 5441ntf    on524911   2.840   1.237   3.115 -0.0856  0.1534 -0.0080
 5441ntf    on524912   3.076   1.298   3.172  0.0904 -0.4505  0.4597
 5441ntf    fn424913   2.919   1.238   2.836  0.1986  0.3514 -0.0585
 5441ntf    fn424914   3.111   1.318   2.869 -0.1903  0.2418 -0.6696
 5441ntf    fn424915   3.060   1.123   2.942  0.5201  0.3312 -0.0161
 5442ntf    cn124916   4.263   1.070   6.931 -0.0016 -0.2035 -0.2779
 5442ntf    sn224917   4.231   0.895   6.894  0.0338 -0.2721  0.0178
 5442ntf    nn324918   4.206   0.920   6.741  0.5312 -0.3656 -0.0793
 5442ntf    sn224919   4.080   0.878   6.657  0.0885 -0.0586  0.4255
 5442ntf    cn124920   3.983   1.031   6.678 -0.2593 -0.2357  0.1191
 5442ntf    fn424921   4.292   1.082   7.060  0.3669  0.4631 -0.4205
 5442ntf    fn424922   4.369   1.108   6.863 -0.1999 -0.3765 -0.6867
 5442ntf    fn424923   4.162   1.153   6.909 -0.3456 -0.4421  0.3603
 5442ntf    on524924   4.352   0.820   6.913 -0.4083 -0.8159  0.7603
 5442ntf    on524925   4.112   0.858   6.968  0.0301 -0.1010  0.0971
 5442ntf    on524926   4.000   0.780   6.725  0.1960  0.0796  0.7543
 5442ntf    on524927   4.101   0.863   6.515  0.0186 -0.0689  0.4161
 5442ntf    fn424928   3.984   1.056   6.808 -0.3257  0.2524  0.0268
 5442ntf    fn424929   4.028   1.139   6.616  0.1142 -0.3909  0.1150
 5442ntf    fn424930   3.856   1.018   6.646 -0.2624 -0.9834  0.4118
 5443ntf    cn124931   7.465   5.590   2.200 -0.2382  0.2508 -0.0330
 5443ntf    sn224932   7.414   5.539   2.033  0.0750 -0.0981 -0.0235
 5443ntf    nn324933   7.385   5.388   2.064 -0.3243  0.0161  0.1524
 5443ntf    sn224934   7.467   5.257   2.035 -0.2207  0.2357 -0.5667
 5443ntf    cn124935   7.406   5.231   1.865  0.0876 -0.2878 -0.5991
 5443ntf    fn424936   7.584   5.555   2.246 -0.4940 -0.0977  0.3767
 5443ntf    fn424937   7.464   5.721   2.214 -0.0594  0.3051 -0.5051
 5443ntf    fn424938   7.379   5.542   2.289 -0.1566 -0.0532 -0.1175
 5443ntf    on524939   7.296   5.617   2.005  0.5383  0.5640 -0.1742
 5443ntf    on524940   7.534   5.563   1.955  0.0148 -0.6801 -0.3002
 5443ntf    on524941   7.409   5.144   2.103  0.0470  0.5832  0.2539
 5443ntf    on524942   7.610   5.265   2.026 -0.2362  0.5599 -0.5554
 5443ntf    fn424943   7.273   5.229   1.859 -0.0153  0.6207  0.8067
 5443ntf    fn424944   7.436   5.331   1.784 -0.1118  0.4527  0.2163
 5443ntf    fn424945   7.441   5.118   1.807 -0.3411 -0.4855 -0.4812
 5444ntf    cn124946   2.865   2.616   4.362 -0.2003  0.1429 -0.1938
 5444ntf    sn224947   2.828   2.462   4.451  0.1637  0.0371 -0.2235
 5444ntf    nn324948   2.715   2.520   4.544  0.1547 -0.7851  0.2878
 5444ntf    sn224949   2.561   2.493   4.527  0.0555 -0.1151  0.1097
 5444ntf    cn124950   2.550   2.350   4.638 -0.4641 -0.3111 -0.1906
 5444ntf    fn424951   2.906   2.592   4.239 -0.0846 -0.4397 -0.0415
 5444ntf    fn424952   2.758   2.693   4.350 -0.1683  0.0566 -1.1080
 5444ntf    fn424953   2.963   2.688   4.414 -0.3867  0.4147 -0.2130
 5444ntf    on524954   2.795   2.368   4.348  0.2472  0.0535 -0.2657
 5444ntf    on524955   2.950   2.439   4.524  0.3880  0.7957 -0.3516
 5444ntf    on524956   2.521   2.465   4.391  0.3600  0.3032 -0.0719
 5444ntf    on524957   2.483   2.588   4.602  0.2643 -0.4314  0.7355
 5444ntf    fn424958   2.436   2.284   4.635 -0.1471 -0.8867  0.2605
 5444ntf    fn424959   2.643   2.261   4.609 -0.3196 -0.4166  0.5676
 5444ntf    fn424960   2.569   2.377   4.766 -0.6408  0.6372 -0.3521
 5445ntf    cn124961   5.160   1.849   4.903 -0.0792 -0.4007  0.0143
 5445ntf    sn224962   5.199   1.677   4.861  0.0120 -0.3486 -0.1138
 5445ntf    nn324963   5.354   1.692   4.883 -0.0488  0.0667  0.0315
 5445ntf    sn224964   5.472   1.615   4.814  0.2206  0.1421  0.4034
 5445ntf    cn124965   5.481   1.704   4.656 -0.4175 -0.2185  0.1581
 5445ntf    fn424966   5.179   1.875   5.032  0.0775 -0.2069 -0.0480
 5445ntf    fn424967   5.236   1.934   4.836 -0.2953 -0.3309 -0.1459
 5445ntf    fn424968   5.033   1.879   4.878 -0.2804 -0.8071  0.5176
 5445ntf    on524969   5.133   1.600   4.963 -0.2959  0.0377 -0.0210
 5445ntf    on524970   5.149   1.672   4.726 -0.5244  0.9850  0.0211
 5445ntf    on524971   5.443   1.478   4.779 -0.2066  0.1698  0.6436
 5445ntf    on524972   5.597   1.647   4.878  0.4669 -0.1563  0.0765
 5445ntf    fn424973   5.519   1.828   4.682 -0.1070 -0.4123  0.6465
 5445ntf    fn424974   5.572   1.663   4.569 -0.9334 -0.0013 -0.4917
 5445ntf    fn424975   5.363   1.713   4.597 -0.2348 -0.5266 -0.2532
 5446ntf    cn124976   0.041   3.286   0.822  0.0180  0.4444  0.4054
 5446ntf    sn224977  -0.035   3.233   0.979 -0.0977 -0.0788  0.1746
 5446ntf    nn324978  -0.063   3.369   1.052  0.6691 -0.0934  0.5125
 5446ntf    sn224979  -0.171   3.425   1.151 -0.1583 -0.5819 -0.0997
 5446ntf    cn124980  -0.214   3.585   1.075 -0.7793 -0.5524  0.3010
 5446ntf    fn424981   0.142   3.370   0.840 -0.1995  0.7967 -0.0044
 5446ntf    fn424982   0.096   3.187   0.755 -0.5097  0.3866  0.0581
 5446ntf    fn424983  -0.044   3.352   0.745 -0.2945  0.0448  0.4054
 5446ntf    on524984  -0.147   3.153   0.937 -0.3220  0.0842  0.4615
 5446ntf    on524985   0.066   3.147   1.036  0.0780 -0.1289 -0.2093
 5446ntf    on524986  -0.106   3.449   1.278 -0.4267  0.4939 -0.1494
 5446ntf    on524987  -0.298   3.356   1.155 -0.5781  0.1804  0.0930
 5446ntf    fn424988  -0.274   3.667   1.160 -0.1958  0.7839 -0.5371
 5446ntf    fn424989  -0.096   3.632   1.038 -0.7363 -0.4561  0.5625
 5446ntf    fn424990  -0.286   3.578   0.964  0.3498 -0.6185 -0.4514
 5447ntf    cn124991   4.919   7.186   3.674 -0.2904 -0.1067  0.2300
 5447ntf    sn224992   5.076   7.157   3.760 -0.2834  0.0658  0.2767
 5447ntf    nn324993   5.050   7.016   3.825 -0.4364 -0.1693 -0.2887
 5447ntf    sn224994   5.102   6.874   3.783  0.0584  0.0932 -0.5816
 5447ntf    cn124995   5.258   6.870   3.875  0.0715  0.3367 -0.5929
 5447ntf    fn424996   4.845   7.267   3.748 -0.0798  0.7323 -0.4504
 5447ntf    fn424997   4.931   7.245   3.556  0.8025 -0.2815  0.2494
 5447ntf    fn424998   4.848   7.075   3.661 -0.3681 -0.0381  0.0596
 5447ntf    on524999   5.172   7.168   3.653  0.0145  0.7855  0.6106
 5447ntf    on525000   5.084   7.259   3.861  0.3212  0.1021  0.1948
 5447ntf    on525001   5.136   6.857   3.644  0.4259  0.1076 -0.4935
 5447ntf    on525002   5.014   6.773   3.836 -0.0969  0.1643 -0.6996
 5447ntf    fn425003   5.247   6.946   3.982  0.1358 -0.0848 -0.2851
 5447ntf    fn425004   5.286   6.745   3.910  0.1882  0.4298 -0.3524
 5447ntf    fn425005   5.364   6.922   3.814  0.1167  0.0578 -0.7553
 5448ntf    cn125006   4.490   6.125   6.700  0.1647  0.1460 -0.3878
 5448ntf    sn225007   4.479   6.118   6.882 -0.2272 -0.4264 -0.4295
 5448ntf    nn325008   4.323   6.105   6.896 -0.2099  0.3274  0.6023
 5448ntf    sn225009   4.214   6.216   6.914 -0.1255  0.4513  0.3456
 5448ntf    cn125010   4.147   6.167   7.075 -0.0903  0.1965  0.2822
 5448ntf    fn425011   4.597   6.191   6.661  0.0619  0.4797 -0.1106
 5448ntf    fn425012   4.503   6.008   6.641  0.2870 -0.1556  0.2272
 5448ntf    fn425013   4.380   6.174   6.644 -0.0110  0.3162  0.0958
 5448ntf    on525014   4.551   5.997   6.911  0.9509  0.3110 -0.2173
 5448ntf    on525015   4.541   6.244   6.913 -0.1402 -0.4255 -0.6045
 5448ntf    on525016   4.096   6.199   6.832 -0.1954 -0.9403  0.7091
 5448ntf    on525017   4.268   6.350   6.914  0.3828  0.2581 -0.5034
 5448ntf    fn425018   4.232   6.141   7.174 -0.2499 -0.8908  0.1547
 5448ntf    fn425019   4.073   6.265   7.123 -0.3387  0.1479 -0.0031
 5448ntf    fn425020   4.082   6.052   7.061  0.2549  0.0795 -0.3669
 5449ntf    cn125021   5.164   7.104   3.102  0.0435 -0.0196 -0.1010
 5449ntf    sn225022   5.276   6.972   3.047  0.3983  0.0472  0.4450
 5449ntf    nn325023   5.356   7.045   2.932 -0.1358 -0.1364 -0.0491
 5449ntf    sn225024   5.504   7.097   2.938  0.0277 -0.6194  0.0833
 5449ntf    cn125025   5.482   7.277   2.935 -0.0007 -0.6200  0.2095
 5449ntf    fn425026   5.074   7.061   3.189 -0.1494  0.2109 -0.1879
 5449ntf    fn425027   5.210   7.212   3.165  0.3641 -0.6177  0.7220
 5449ntf    fn425028   5.094   7.160   3.005  0.7631  0.2977 -0.4436
 5449ntf    on525029   5.351   6.945   3.167  0.5942 -0.0595  0.2994
 5449ntf    on525030   5.180   6.871   3.010  0.2432  0.2259  0.3513
 5449ntf    on525031   5.574   7.073   2.815  0.0514 -0.4942  0.0731
 5449ntf    on525032   5.579   7.078   3.060 -0.2398 -0.4714  0.2734
 5449ntf    fn425033   5.599   7.332   2.965 -0.2484 -0.4441  0.8818
 5449ntf    fn425034   5.437   7.317   2.817  0.1066 -0.8951  0.0741
 5449ntf    fn425035   5.397   7.332   3.020  0.2095  0.4886 -0.2814
 5450ntf    cn125036   6.598   5.649   4.326 -0.1049  0.0538  0.0248
 5450ntf    sn225037   6.454   5.606   4.224  0.0254  0.3489 -0.2815
 5450ntf    nn325038   6.458   5.450   4.230 -0.1563  0.3573  0.0726
 5450ntf    sn225039   6.402   5.341   4.328 -0.0468 -0.1265 -0.3932
 5450ntf    cn125040   6.551   5.288   4.418 -0.1718 -0.0275 -0.1257
 5450ntf    fn425041   6.704   5.584   4.280  0.0361  0.1638  0.1926
 5450ntf    fn425042   6.626   5.778   4.325 -0.1266  0.0556 -0.6498
 5450ntf    fn425043   6.581   5.620   4.454 -0.2726 -0.5975 -0.1394
 5450ntf    on525044   6.341   5.678   4.278  0.2419  0.5706 -0.1198
 5450ntf    on525045   6.494   5.656   4.094 -0.2395 -0.6944 -0.7717
 5450ntf    on525046   6.364   5.221   4.258 -0.3202 -0.6099  0.5585
 5450ntf    on525047   6.310   5.386   4.430  0.0055 -0.0331 -0.3872
 5450ntf    fn425048   6.540   5.166   4.469 -0.5956 -0.1128 -0.4157
 5450ntf    fn425049   6.658   5.285   4.340  0.1243  0.1357  0.2717
 5450ntf    fn425050   6.574   5.368   4.521 -0.3145  0.1678 -0.2447
 5451ntf    cn125051   2.957   3.418   2.600  0.0582 -0.1726 -0.1316
 5451ntf    sn225052   2.795   3.371   2.534 -0.0402  0.0949 -0.0845
 5451ntf    nn325053   2.843   3.254   2.441 -0.2421 -0.0485 -0.0117
 5451ntf    sn225054   2.759   3.151   2.358 -0.0745 -0.3751  0.2248
 5451ntf    cn125055   2.816   3.188   2.190  0.0205 -0.6016  0.2067
 5451ntf    fn425056   3.016   3.319   2.666 -0.2352 -0.3200 -0.0896
 5451ntf    fn425057   3.034   3.469   2.505 -0.0936  0.0573 -0.1318
 5451ntf    fn425058   2.953   3.521   2.684  0.1672 -0.0735 -0.2477
 5451ntf    on525059   2.722   3.324   2.650 -0.2146  0.4804 -0.0354
 5451ntf    on525060   2.752   3.489   2.464  0.7592  0.4014 -0.0637
 5451ntf    on525061   2.617   3.176   2.346  0.1352  0.4195 -0.7268
 5451ntf    on525062   2.791   3.014   2.390 -0.2500 -0.4593  0.0470
 5451ntf    fn425063   2.786   3.091   2.106 -0.1499 -0.4967  0.1454
 5451ntf    fn425064   2.769   3.299   2.135  0.3984 -0.7444 -0.4237
 5451ntf    fn425065   2.948   3.198   2.197  0.0087  0.2369 -0.5225
 5452ntf    cn125066   1.758   4.566   2.172  0.3994 -0.2689  0.6666
 5452ntf    sn225067   1.686   4.404   2.211 -0.1777 -0.1563  0.0919
 5452ntf    nn325068   1.546   4.453   2.262 -0.1086 -0.2538  0.3788
 5452ntf    sn225069   1.401   4.429   2.207  0.0015  0.3614 -0.2029
 5452ntf    cn125070   1.296   4.517   2.326 -0.0105 -0.1076  0.1389
 5452ntf    fn425071   1.691   4.627   2.076  0.2770 -0.1796  0.8079
 5452ntf    fn425072   1.750   4.653   2.272 -0.0672  0.1833  0.2439
 5452ntf    fn425073   1.883   4.557   2.131  0.0929 -0.6894 -0.1963
 5452ntf    on525074   1.686   4.342   2.081 -0.2174 -0.3617  0.1899
 5452ntf    on525075   1.779   4.359   2.312  0.0657  0.1750  0.0193
 5452ntf    on525076   1.350   4.296   2.227 -0.1153  0.4170 -0.1262
 5452ntf    on525077   1.372   4.504   2.088  0.3727  0.2314 -0.3781
 5452ntf    fn425078   1.311   4.649   2.329  0.6810 -0.1854  0.3611
 5452ntf    fn425079   1.167   4.494   2.307 -0.0234  0.1585 -0.1057
 5452ntf    fn425080   1.323   4.470   2.447 -0.0311 -0.2607  0.0832
 5453ntf    cn125081   3.247   3.139   4.970 -0.0268  0.5183  0.1582
 5453ntf    sn225082   3.272   3.278   5.084  0.2200  0.5245  0.0983
 5453ntf    nn325083   3.397   3.238   5.170 -0.0424  0.7296  0.5792
 5453ntf    sn225084   3.405   3.143   5.294  0.0963 -0.0740 -0.0385
 5453ntf    cn125085   3.580   3.097   5.313  0.2429  0.4544 -0.0976
 5453ntf    fn425086   3.268   3.015   5.013 -0.8954  0.2552 -0.1611
 5453ntf    fn425087   3.126   3.140   4.916  0.0512 -0.2247 -0.0449
 5453ntf    fn425088   3.330   3.150   4.867 -0.2296 -0.2064 -0.0937
 5453ntf    on525089   3.306   3.388   4.997  0.3454  0.4473  0.0497
 5453ntf    on525090   3.147   3.281   5.157  0.0522 -0.4869 -0.1280
 5453ntf    on525091   3.341   3.014   5.280  1.0458 -0.5696  0.0937
 5453ntf    on525092   3.393   3.219   5.416 -0.3523 -0.0288 -0.1113
 5453ntf    fn425093   3.647   3.206   5.281  0.0829  0.6300  0.1623
 5453ntf    fn425094   3.632   3.074   5.432  0.3777 -0.5945 -0.3480
 5453ntf    fn425095   3.613   3.003   5.225  0.4349  0.3007  0.1356
 5454ntf    cn125096   4.685   2.607   0.187  0.1491  0.1216 -0.2296
 5454ntf    sn225097   4.621   2.654   0.023  0.1223  0.1059 -0.2236
 5454ntf    nn325098   4.471   2.608   0.037  0.1376 -0.0261 -0.4871
 5454ntf    sn225099   4.344   2.688  -0.010  0.0579 -0.0378 -0.2888
 5454ntf    cn125100   4.272   2.550  -0.104  0.0121 -0.3371  0.1829
 5454ntf    fn425101   4.699   2.476   0.197  0.5274  0.1781 -0.0222
 5454ntf    fn425102   4.805   2.658   0.205  0.0489  0.2033  0.2152
 5454ntf    fn425103   4.606   2.645   0.286  0.3029 -0.6826  0.2074
 5454ntf    on525104   4.646   2.794   0.005 -0.6746  0.2512 -0.2334
 5454ntf    on525105   4.692   2.562  -0.064 -0.1479 -0.1441 -0.1820
 5454ntf    on525106   4.369   2.784  -0.114  0.4519 -0.4182 -0.5516
 5454ntf    on525107   4.258   2.725   0.100 -1.1154 -0.3381 -1.0860
 5454ntf    fn425108   4.210   2.587  -0.215  0.0458  0.4831  0.4290
 5454ntf    fn425109   4.350   2.460  -0.162  0.3122 -0.1098  0.2335
 5454ntf    fn425110   4.183   2.493  -0.023 -0.8513  0.4125 -0.2150
 5455ntf    cn125111   5.585   1.297   0.160 -0.3186 -0.4989 -0.1475
 5455ntf    sn225112   5.729   1.206   0.098 -0.1648 -0.0196 -0.4965
 5455ntf    nn325113   5.700   1.067   0.167 -0.3741  0.1094 -0.3239
 5455ntf    sn225114   5.739   0.918   0.137 -0.2638  0.0081  0.3232
 5455ntf    cn125115   5.588   0.861   0.054  0.2456 -0.4892 -0.2637
 5455ntf    fn425116   5.469   1.251   0.115 -0.5109 -0.0689 -0.0904
 5455ntf    fn425117   5.579   1.301   0.292  0.1572  0.2976 -0.1466
 5455ntf    fn425118   5.598   1.420   0.115 -0.4953 -0.2972  0.3446
 5455ntf    on525119   5.713   1.209  -0.045 -0.4448 -0.4173 -0.4766
 5455ntf    on525120   5.840   1.279   0.153 -0.8012  0.1373  0.5946
 5455ntf    on525121   5.748   0.833   0.254  0.5322  0.1190  0.3479
 5455ntf    on525122   5.833   0.903   0.029 -0.5022 -0.8337  0.2283
 5455ntf    fn425123   5.490   0.810   0.126 -0.3160  0.6089 -0.2337
 5455ntf    fn425124   5.529   0.955  -0.018  0.4087 -0.2831 -0.1270
 5455ntf    fn425125   5.610   0.777  -0.047 -0.1172 -0.3475 -0.4638
 5456ntf    cn125126   5.933   4.257   6.009  0.1912  0.1322 -0.0830
 5456ntf    sn225127   5.963   4.158   6.159 -0.1104  0.2177  0.0348
 5456ntf    nn325128   6.115   4.185   6.184 -0.0137 -0.0801 -0.2226
 5456ntf    sn225129   6.239   4.114   6.120  0.1015 -0.3381  0.2860
 5456ntf    cn125130   6.327   4.255   6.047 -0.1925 -0.1627  0.2716
 5456ntf    fn425131   5.807   4.260   5.970  0.1818 -0.2951 -0.0966
 5456ntf    fn425132   5.977   4.381   6.013 -0.1441  0.2559 -0.1883
 5456ntf    fn425133   5.995   4.201   5.907  0.0011  0.9768 -0.6679
 5456ntf    on525134   5.863   4.205   6.252 -0.0737 -0.6422  0.5185
 5456ntf    on525135   5.938   4.021   6.120  0.2566  0.1903 -0.1058
 5456ntf    on525136   6.213   4.034   6.002 -0.5754 -0.0816  0.2592
 5456ntf    on525137   6.329   4.061   6.220  0.2923 -0.4376  0.0639
 5456ntf    fn425138   6.424   4.206   5.971 -0.1962  0.0946  0.0982
 5456ntf    fn425139   6.257   4.337   5.970  0.0369 -0.3294 -0.1189
 5456ntf    fn425140   6.386   4.326   6.142  0.4890 -0.0806 -0.2076
 5457ntf    cn125141   0.413   3.262   2.125 -0.6480 -0.2217  0.0339
 5457ntf    sn225142   0.288   3.382   2.182 -0.4050  0.0382  0.0216
 5457ntf    nn325143   0.193   3.280   2.254  0.4126 -0.8620 -0.1387
 5457ntf    sn225144   0.065   3.206   2.202 -0.1123 -0.0735  0.0029
 5457ntf    cn125145  -0.060   3.337   2.218 -0.4389 -0.4235  0.3253
 5457ntf    fn425146   0.366   3.175   2.038  0.1224 -0.2046 -0.4028
 5457ntf    fn425147   0.516   3.319   2.064 -0.3763  0.0271  0.7112
 5457ntf    fn425148   0.465   3.190   2.222 -0.1401  0.2126  0.0904
 5457ntf    on525149   0.375   3.461   2.266  0.1631 -0.2520 -0.2827
 5457ntf    on525150   0.244   3.446   2.061  0.0395  0.0469 -0.1392
 5457ntf    on525151   0.020   3.115   2.304 -0.6668 -0.3601 -0.4891
 5457ntf    on525152   0.064   3.157   2.066 -0.2525 -0.6157  0.1963
 5457ntf    fn425153  -0.090   3.372   2.343 -0.4707  0.5017  0.0664
 5457ntf    fn425154  -0.026   3.448   2.156  0.0905 -0.7543  0.0166
 5457ntf    fn425155  -0.175   3.293   2.169 -0.2339 -0.9949  0.3509
 5458ntf    cn125156   2.388   2.836   5.732  0.4162 -0.6284  0.3693
 5458ntf    sn225157   2.357   3.006   5.788 -0.0272 -0.6161  0.0887
 5458ntf    nn325158   2.267   2.979   5.914  0.1679  0.2427  0.4228
 5458ntf    sn225159   2.308   2.936   6.059 -0.0916  0.0676  0.4461
 5458ntf    cn125160   2.327   3.092   6.149 -0.2623  0.3229  0.0429
 5458ntf    fn425161   2.480   2.770   5.799  1.0306 -0.0097  0.1557
 5458ntf    fn425162   2.281   2.761   5.748 -0.0963  0.1591  0.6617
 5458ntf    fn425163   2.425   2.825   5.605  0.4513 -0.2554  0.3445
 5458ntf    on525164   2.489   3.058   5.815 -0.2015  0.1095 -0.3948
 5458ntf    on525165   2.285   3.066   5.678  0.6566  0.1195  0.0270
 5458ntf    on525166   2.435   2.868   6.061 -0.3569 -0.4550 -0.1452
 5458ntf    on525167   2.198   2.878   6.131  0.1028 -0.5393  0.2583
 5458ntf    fn425168   2.374   3.193   6.078 -0.5588  0.4441  0.0143
 5458ntf    fn425169   2.212   3.135   6.201 -0.1298  0.3488  0.3163
 5458ntf    fn425170   2.406   3.081   6.255  0.0093  1.2752 -0.0493
 5459ntf    cn125171   1.023   4.005   6.218  0.2619  0.2630 -0.0294
 5459ntf    sn225172   1.066   4.159   6.304 -0.0031  0.3407 -0.0346
 5459ntf    nn325173   1.222   4.171   6.283  0.0256 -0.2543 -0.1668
 5459ntf    sn225174   1.314   4.275   6.211  0.0699 -0.1796 -0.0042
 5459ntf    cn125175   1.302   4.402   6.340  0.0032  0.0718 -0.2555
 5459ntf    fn425176   0.894   3.984   6.236  0.2167  0.4466 -0.1286
 5459ntf    fn425177   1.045   4.017   6.088 -0.2644 -0.0646 -0.1507
 5459ntf    fn425178   1.091   3.905   6.271  0.2501  0.2832  0.0247
 5459ntf    on525179   0.993   4.252   6.222 -0.4223  0.0571  0.0144
 5459ntf    on525180   1.031   4.132   6.441  0.4055  0.2623  0.0571
 5459ntf    on525181   1.262   4.346   6.096  0.3477 -0.2036 -0.1444
 5459ntf    on525182   1.450   4.231   6.201  0.0277 -0.2011 -0.5588
 5459ntf    fn425183   1.179   4.451   6.351  0.0244  0.0286  0.2010
 5459ntf    fn425184   1.334   4.363   6.462 -0.1841 -0.0572 -0.2478
 5459ntf    fn425185   1.385   4.505   6.331  0.5016 -0.2570  0.4191
 5460ntf    cn125186   1.247   5.819   4.467  0.3789  0.1057  0.3220
 5460ntf    sn225187   1.327   5.864   4.624  0.0930 -0.0522  0.5127
 5460ntf    nn325188   1.274   6.012   4.635  0.2831  0.0755 -0.2604
 5460ntf    sn225189   1.241   6.092   4.766  0.1464 -0.0969 -0.1897
 5460ntf    cn125190   1.396   6.186   4.782 -0.1274  0.3010  0.1427
 5460ntf    fn425191   1.304   5.893   4.374  0.1762 -0.1003  0.0330
 5460ntf    fn425192   1.277   5.699   4.421  0.0373  0.2399 -0.2585
 5460ntf    fn425193   1.118   5.845   4.459  0.3335 -0.0149  0.6136
 5460ntf    on525194   1.278   5.760   4.712 -0.9274  0.1914  0.2541
 5460ntf    on525195   1.466   5.858   4.588 -0.2622  0.1419 -0.9484
 5460ntf    on525196   1.240   6.014   4.887  0.2086 -0.1305 -0.2107
 5460ntf    on525197   1.137   6.190   4.750  0.3829  0.1874  0.0003
 5460ntf    fn425198   1.495   6.099   4.794 -0.2363  0.1425 -0.1035
 5460ntf    fn425199   1.422   6.265   4.679 -0.0821  0.0755 -0.0211
 5460ntf    fn425200   1.392   6.260   4.892 -0.0327  0.3686  0.1006
 5461ntf    cn125201   1.382   1.159   1.026  0.0148  0.4314 -0.1285
 5461ntf    sn225202   1.220   1.083   1.058  0.1343  0.3679  0.3292
 5461ntf    nn325203   1.258   0.990   1.179  0.0035 -0.1613 -0.0305
 5461ntf    sn225204   1.159   0.904   1.266 -0.2975  0.1883 -0.0256
 5461ntf    cn125205   1.229   0.739   1.237  0.0280  0.2501  0.4035
 5461ntf    fn425206   1.482   1.074   1.035 -0.0818  0.3512  0.2182
 5461ntf    fn425207   1.380   1.221   0.909  0.3526  0.8343  0.0772
 5461ntf    fn425208   1.415   1.248   1.118  0.5968  0.5253 -0.4255
 5461ntf    on525209   1.147   1.200   1.098 -0.6321  0.0448 -0.0917
 5461ntf    on525210   1.190   1.027   0.928  0.7210 -0.2724  0.4608
 5461ntf    on525211   1.032   0.898   1.198 -0.2013  0.2744 -0.2138
 5461ntf    on525212   1.170   0.928   1.408 -0.1655 -0.1689  0.0242
 5461ntf    fn425213   1.244   0.690   1.115 -0.1771 -0.0573  0.5015
 5461ntf    fn425214   1.349   0.731   1.292  0.3004 -0.4639 -0.2823
 5461ntf    fn425215   1.163   0.643   1.299  0.4159 -0.3935 -0.1725
 5462ntf    cn125216   1.138   7.476   0.064 -0.2955 -0.4131  0.3264
 5462ntf    sn225217   1.176   7.651   0.035 -0.1944 -0.5082 -0.1213
 5462ntf    nn325218   1.309   7.662   0.119 -0.7143 -0.2003  0.6753
 5462ntf    sn225219   1.351   7.779   0.215 -0.1856  0.3958 -0.2605
 5462ntf    cn125220   1.513   7.806   0.136 -0.0565 -0.4625 -0.3036
 5462ntf    fn425221   1.158   7.446   0.192  0.5737 -0.5464  0.1601
 5462ntf    fn425222   1.009   7.445   0.057 -0.3141 -0.3979  0.5845
 5462ntf    fn425223   1.205   7.384  -0.003  0.0681  0.2711 -0.2567
 5462ntf    on525224   1.190   7.653  -0.108  0.2919  0.5793 -0.0703
 5462ntf    on525225   1.061   7.720   0.088  0.1761  0.5446 -0.6592
 5462ntf    on525226   1.382   7.738   0.350 -0.4075 -0.3393 -0.4250
 5462ntf    on525227   1.294   7.909   0.194 -0.0827  0.4465 -0.2286
 5462ntf    fn425228   1.607   7.739   0.201  0.3788  0.8179  0.4230
 5462ntf    fn425229   1.508   7.770   0.009 -0.0268 -0.1346 -0.3973
 5462ntf    fn425230   1.546   7.934   0.138 -0.5614 -0.3161 -0.9502
 5463ntf    cn125231   3.948   5.045   6.950  0.2455 -0.0568  0.1830
 5463ntf    sn225232   3.993   5.031   6.775  0.1949 -0.0759  0.1710
 5463ntf    nn325233   4.093   4.910   6.774 -0.0242 -0.2549 -0.3658
 5463ntf    sn225234   4.219   4.878   6.686  0.4746 -0.1340  0.3045
 5463ntf    cn125235   4.123   4.782   6.566  0.2736  0.4025  0.0357
 5463ntf    fn425236   3.870   5.148   6.978  0.2248 -0.0826  0.2224
 5463ntf    fn425237   3.893   4.931   6.988  0.1685 -0.0560  0.0719
 5463ntf    fn425238   4.053   5.060   7.029 -0.0022  0.7598  0.3599
 5463ntf    on525239   3.868   5.025   6.703  0.0855 -0.2406  0.3781
 5463ntf    on525240   4.057   5.159   6.755 -0.5772  0.2407 -0.3320
 5463ntf    on525241   4.314   4.780   6.733  0.3937 -0.1845  0.3625
 5463ntf    on525242   4.265   4.987   6.604  0.1697 -0.0178  0.2877
 5463ntf    fn425243   4.052   4.854   6.479  0.4732  0.6709  0.0945
 5463ntf    fn425244   4.207   4.703   6.501  0.3247  0.2413  0.2992
 5463ntf    fn425245   4.034   4.701   6.621  0.0105  0.3127 -0.5111
 5464ntf    cn125246   6.272   1.096   3.514 -0.1458  0.1958 -0.0733
 5464ntf    sn225247   6.169   0.993   3.404 -0.0291  0.2167 -0.2018
 5464ntf    nn325248   6.276   0.881   3.376 -0.2215 -0.0256  0.0353
 5464ntf    sn225249   6.376   0.857   3.258 -0.3641 -0.1460 -0.0630
 5464ntf    cn125250   6.403   0.679   3.281  0.1999 -0.0056  0.3966
 5464ntf    fn425251   6.377   1.144   3.450  0.1446 -0.2062  0.0932
 5464ntf    fn425252   6.215   1.204   3.564  0.0244  0.2097  0.0904
 5464ntf    fn425253   6.322   1.022   3.612  0.1630 -0.1541 -0.4905
 5464ntf    on525254   6.057   0.945   3.480  0.3043 -0.5923 -0.2123
 5464ntf    on525255   6.144   1.096   3.307 -0.2482  0.2177 -0.1440
 5464ntf    on525256   6.505   0.911   3.294 -0.5356  0.4841 -0.3758
 5464ntf    on525257   6.329   0.857   3.122  0.0297  0.1262 -0.2037
 5464ntf    fn425258   6.434   0.637   3.403  0.2111 -0.0196  0.3889
 5464ntf    fn425259   6.298   0.608   3.245  0.1773  0.3174 -0.1889
 5464ntf    fn425260   6.495   0.636   3.196 -0.3284 -0.4859  0.0607
 5465ntf    cn125261   1.414   2.079   0.791  0.1978  0.1896  0.2045
 5465ntf    sn225262   1.401   2.095   0.972  0.2936 -0.2911  0.2557
 5465ntf    nn325263   1.553   2.074   1.004  0.4654  0.3146 -0.1375
 5465ntf    sn225264   1.618   1.939   1.053 -0.3829  0.0641  0.3201
 5465ntf    cn125265   1.785   1.984   0.997 -0.2292  0.0148  0.7340
 5465ntf    fn425266   1.303   2.110   0.727  0.2341 -0.4728 -0.1915
 5465ntf    fn425267   1.519   2.143   0.742  0.3456 -0.1857  0.0220
 5465ntf    fn425268   1.429   1.952   0.756  0.8411  0.2493  0.2500
 5465ntf    on525269   1.356   2.231   0.981  0.7550 -0.1210  0.0343
 5465ntf    on525270   1.306   1.992   1.004  0.0616 -0.1508  0.0206
 5465ntf    on525271   1.591   1.820   0.976  0.2679  0.6202 -0.7929
 5465ntf    on525272   1.629   1.925   1.196 -0.3679 -0.0167  0.3110
 5465ntf    fn425273   1.891   1.917   1.040  0.2186  0.4828  0.3806
 5465ntf    fn425274   1.781   1.968   0.866  0.3045 -0.0635  0.7246
 5465ntf    fn425275   1.803   2.115   1.011 -0.1181  0.0416  0.3656
 5466ntf    cn125276   6.706   1.201   7.543  0.1052  0.2922  0.3041
 5466ntf    sn225277   6.676   1.111   7.697  0.2401  0.0159  0.1692
 5466ntf    nn325278   6.663   1.229   7.800  0.1264  0.2375 -0.0978
 5466ntf    sn225279   6.535   1.279   7.876  0.0108 -0.0213 -0.1192
 5466ntf    cn125280   6.465   1.136   7.962  0.1505 -0.1681 -0.2494
 5466ntf    fn425281   6.821   1.267   7.546  0.2871  0.0354 -0.5886
 5466ntf    fn425282   6.707   1.115   7.442 -0.1042 -0.0351  0.5771
 5466ntf    fn425283   6.621   1.297   7.509 -0.6321 -0.0468  1.1481
 5466ntf    on525284   6.558   1.032   7.671  0.1562  0.0767  0.3609
 5466ntf    on525285   6.801   1.040   7.714  0.5870  0.6685  0.3742
 5466ntf    on525286   6.434   1.333   7.789 -0.2309  0.5185  0.4860
 5466ntf    on525287   6.570   1.369   7.984  0.1543 -0.3711  0.1269
 5466ntf    fn425288   6.555   1.049   8.006  0.1105 -0.0273  0.1142
 5466ntf    fn425289   6.386   1.174   8.061  0.3117 -0.5117  0.0167
 5466ntf    fn425290   6.391   1.056   7.887 -0.1699  0.1797 -0.3024
 5467ntf    cn125291   6.277   0.507   1.282 -0.0071  0.0007 -0.1768
 5467ntf    sn225292   6.106   0.496   1.343 -0.0340 -0.0069 -0.2528
 5467ntf    nn325293   6.035   0.448   1.212 -0.3519  0.4774 -0.2583
 5467ntf    sn225294   5.932   0.331   1.194  0.0716  0.1039 -0.2640
 5467ntf    cn125295   6.040   0.207   1.117  0.3099  0.1249  0.0339
 5467ntf    fn425296   6.312   0.395   1.221  0.1167 -0.2029  0.2603
 5467ntf    fn425297   6.293   0.610   1.201  0.3290 -0.0139 -0.1296
 5467ntf    fn425298   6.361   0.522   1.383 -0.3032 -0.2207  0.1037
 5467ntf    on525299   6.099   0.409   1.458 -0.2747  0.3875  0.0355
 5467ntf    on525300   6.085   0.637   1.368  0.4744  0.0339 -0.0474
 5467ntf    on525301   5.824   0.349   1.100 -0.0047  0.1253 -0.1725
 5467ntf    on525302   5.881   0.270   1.315 -0.6312  0.6709 -0.2638
 5467ntf    fn425303   5.988   0.086   1.126 -0.7528  0.6064  0.5986
 5467ntf    fn425304   6.064   0.219   0.988  0.0190  0.3354 -0.0030
 5467ntf    fn425305   6.157   0.189   1.175  0.4694  0.1880 -0.2676
 5468ntf    cn125306   7.561   4.192   1.503 -0.1718  0.0877 -0.3288
 5468ntf    sn225307   7.380   4.207   1.497 -0.1877  0.1195  0.1974
 5468ntf    nn325308   7.356   4.052   1.504  0.2858  0.0342 -0.0118
 5468ntf    sn225309   7.321   3.950   1.390 -0.0480  0.0562  0.0689
 5468ntf    cn125310   7.450   3.832   1.439  0.0190  0.1181  0.0446
 5468ntf    fn425311   7.625   4.307   1.492 -0.6335  0.4228  0.4384
 5468ntf    fn425312   7.602   4.141   1.618  0.0546  0.6196 -0.1701
 5468ntf    fn425313   7.612   4.110   1.412  0.4381 -0.1791  0.2432
 5468ntf    on525314   7.350   4.274   1.621 -0.1732 -0.0822  0.3100
 5468ntf    on525315   7.360   4.281   1.374 -0.3255 -0.2511 -0.0033
 5468ntf    on525316   7.365   3.975   1.255 -0.4228  0.8146  0.0843
 5468ntf    on525317   7.198   3.886   1.429 -0.3445  0.4126 -0.2741
 5468ntf    fn425318   7.452   3.799   1.567 -0.3463 -0.0999 -0.0041
 5468ntf    fn425319   7.440   3.716   1.375  0.2685  0.2277 -0.1915
 5468ntf    fn425320   7.570   3.876   1.408 -0.2542  0.7165 -0.1799
 5469ntf    cn125321   3.197   6.104   4.303  0.1801 -0.3629 -0.2338
 5469ntf    sn225322   3.068   6.214   4.368  0.2140 -0.2259 -0.3944
 5469ntf    nn325323   3.016   6.289   4.240  0.0922  0.0474 -0.1860
 5469ntf    sn225324   3.046   6.429   4.176  0.1489  0.1645  0.0914
 5469ntf    cn125325   2.985   6.417   4.005  0.2554 -0.5785  0.1034
 5469ntf    fn425326   3.166   6.032   4.196  0.4473 -0.3982 -0.2894
 5469ntf    fn425327   3.298   6.174   4.254 -0.3400  0.2811 -0.4045
 5469ntf    fn425328   3.242   6.016   4.390 -0.2357 -0.8856 -0.5417
 5469ntf    on525329   2.969   6.119   4.412 -0.3819  0.3330 -0.5036
 5469ntf    on525330   3.133   6.302   4.462  0.2132  0.4155 -0.9855
 5469ntf    on525331   3.184   6.468   4.161 -0.0375  0.6689 -0.3686
 5469ntf    on525332   2.963   6.528   4.240 -0.9029 -0.3024 -0.5081
 5469ntf    fn425333   2.994   6.531   3.938  0.1321 -0.6825 -0.0915
 5469ntf    fn425334   3.051   6.330   3.930  0.3884 -0.6756  0.3324
 5469ntf    fn425335   2.857   6.385   4.006  0.0850  0.0896  0.2069
 5470ntf    cn125336   1.516   2.795   3.409  0.5862  0.2612 -0.3227
 5470ntf    sn225337   1.491   2.678   3.271 -0.4352  0.1928 -0.0917
 5470ntf    nn325338   1.337   2.655   3.258 -0.3391 -0.4583 -0.1080
 5470ntf    sn225339   1.238   2.720   3.155  0.2351  0.2977 -0.1871
 5470ntf    cn125340   1.142   2.811   3.280  0.1154 -0.0185 -0.0487
 5470ntf    fn425341   1.468   2.742   3.520  0.1035  0.5086 -0.4125
 5470ntf    fn425342   1.647   2.799   3.424  0.5242 -1.2729  0.8820
 5470ntf    fn425343   1.447   2.905   3.386  0.1259  0.1081  0.3130
 5470ntf    on525344   1.557   2.746   3.162  0.5581 -0.4668  0.0835
 5470ntf    on525345   1.567   2.560   3.305  0.1594  0.5247 -0.2362
 5470ntf    on525346   1.137   2.635   3.098  0.2392  0.4536 -0.4292
 5470ntf    on525347   1.288   2.821   3.065  0.2488  0.3240 -0.1505
 5470ntf    fn425348   1.075   2.725   3.355 -0.0570  0.8288  0.7802
 5470ntf    fn425349   1.208   2.896   3.357  0.5398 -0.8827  0.5579
 5470ntf    fn425350   1.046   2.881   3.222  0.6192 -0.0505 -0.9322
 5471ntf    cn125351   4.785   2.992   2.436  0.3429 -0.0355  0.2034
 5471ntf    sn225352   4.933   3.026   2.536  0.2931 -0.0263  0.2744
 5471ntf    nn325353   5.024   3.110   2.439 -0.0518  0.1040  0.0620
 5471ntf    sn225354   5.142   3.204   2.483  0.2655 -0.2433 -0.0408
 5471ntf    cn125355   5.073   3.371   2.459  0.5816 -0.0152  0.6083
 5471ntf    fn425356   4.730   3.104   2.392  0.3315 -0.2670 -0.3806
 5471ntf    fn425357   4.823   2.916   2.335  0.2811  0.3798 -0.1359
 5471ntf    fn425358   4.688   2.941   2.510 -0.4784  0.9502 -0.1688
 5471ntf    on525359   4.880   3.104   2.644  0.3006  0.2976  0.0464
 5471ntf    on525360   4.984   2.894   2.565 -0.5413 -0.5875 -0.7255
 5471ntf    on525361   5.254   3.197   2.393  0.1364 -0.0016 -0.2201
 5471ntf    on525362   5.172   3.209   2.624 -0.1093 -0.7919  0.0608
 5471ntf    fn425363   5.157   3.471   2.480  0.4429  0.2451 -0.0388
 5471ntf    fn425364   5.030   3.396   2.336  0.4885  0.2789  0.7010
 5471ntf    fn425365   4.979   3.399   2.547 -0.5059  0.9176 -0.8014
 5472ntf    cn125366   3.183   2.196   6.417 -0.1499 -0.3631  0.3813
 5472ntf    sn225367   3.119   2.213   6.587  0.1613  0.2349  0.4399
 5472ntf    nn325368   3.176   2.354   6.622  0.4257  0.1910  0.1925
 5472ntf    sn225369   3.085   2.470   6.677  0.0275  0.0937 -0.2625
 5472ntf    cn125370   3.069   2.434   6.854 -0.0903  0.1483 -0.2618
 5472ntf    fn425371   3.141   2.290   6.335 -0.0315 -0.6094  0.0386
 5472ntf    fn425372   3.315   2.196   6.414 -0.1663  0.0013 -0.2312
 5472ntf    fn425373   3.150   2.076   6.372  0.6234 -0.4282 -0.0240
 5472ntf    on525374   2.975   2.208   6.580  0.1987 -0.2656 -0.0871
 5472ntf    on525375   3.187   2.102   6.649 -0.0802 -0.3967 -0.4074
 5472ntf    on525376   2.952   2.489   6.624 -0.0558 -0.0322 -0.0989
 5472ntf    on525377   3.169   2.587   6.682 -0.3753  0.3691  0.0796
 5472ntf    fn425378   3.058   2.303   6.872  0.8069  0.0071 -0.6660
 5472ntf    fn425379   3.173   2.468   6.928  0.1486 -0.2271 -0.4209
 5472ntf    fn425380   2.964   2.485   6.917 -0.1310 -0.1551 -0.0808
 5473ntf    cn125381   2.897   0.231   5.458  0.1098  0.0134 -0.1955
 5473ntf    sn225382   2.785   0.366   5.410 -0.0229 -0.0619 -0.0992
 5473ntf    nn325383   2.840   0.462   5.522 -0.0382 -0.4054  0.2060
 5473ntf    sn225384   2.955   0.568   5.511 -0.1415 -0.3203 -0.0752
 5473ntf    cn125385   2.869   0.722   5.467  0.2709 -0.0442  0.0733
 5473ntf    fn425386   2.865   0.191   5.580 -0.1674 -0.2977 -0.3700
 5473ntf    fn425387   2.887   0.133   5.370 -0.0035 -0.2970  0.1600
 5473ntf    fn425388   3.023   0.261   5.488  0.1706  0.0577 -0.4987
 5473ntf    on525389   2.816   0.389   5.271 -0.0744  0.4805 -0.0256
 5473ntf    on525390   2.650   0.327   5.439  0.0386 -0.0255  0.2510
 5473ntf    on525391   3.054   0.545   5.408  0.1008  0.8910 -0.1260
 5473ntf    on525392   3.003   0.596   5.644 -0.2699 -0.8215  0.0787
 5473ntf    fn425393   2.797   0.701   5.358 -0.0317  0.0050  0.2639
 5473ntf    fn425394   2.777   0.751   5.557 -0.1434 -0.0687 -0.3384
 5473ntf    fn425395   2.940   0.833   5.456 -0.0250  0.1486  0.0962
 5474ntf    cn125396   4.883   3.854   7.433  0.1589 -0.1318 -0.3720
 5474ntf    sn225397   5.052   3.791   7.460  0.1945  0.1188  0.0023
 5474ntf    nn325398   5.048   3.758   7.613 -0.2159 -0.1366 -0.0616
 5474ntf    sn225399   5.008   3.623   7.684  0.2213 -0.1432  0.1781
 5474ntf    cn125400   5.162   3.530   7.705  0.3423  0.0569  0.1858
 5474ntf    fn425401   4.836   3.844   7.310 -0.0694 -0.6367 -0.2447
 5474ntf    fn425402   4.797   3.791   7.510 -0.0483  0.3951 -0.1621
 5474ntf    fn425403   4.867   3.980   7.472 -0.1347 -0.2778 -0.0191
 5474ntf    on525404   5.080   3.687   7.365  0.2652  0.2644 -0.1367
 5474ntf    on525405   5.134   3.907   7.436  0.1128  0.0382 -0.6942
 5474ntf    on525406   4.923   3.535   7.608 -0.0560 -0.3650  0.7381
 5474ntf    on525407   4.956   3.655   7.815 -0.2755 -0.5689  0.0874
 5474ntf    fn425408   5.227   3.504   7.593 -0.5224 -0.1151 -0.2839
 5474ntf    fn425409   5.249   3.594   7.783  0.5818 -0.0028 -0.0307
 5474ntf    fn425410   5.149   3.408   7.755 -0.6245  0.0535 -0.0634
 5475ntf    cn125411   0.172   5.133   7.083 -0.4902 -0.2060 -0.1280
 5475ntf    sn225412   0.139   4.966   7.019 -0.0485 -0.2697 -0.1907
 5475ntf    nn325413  -0.016   4.978   6.998 -0.1028 -0.3888  0.1315
 5475ntf    sn225414  -0.110   4.915   6.889 -0.0715  0.0063 -0.1261
 5475ntf    cn125415  -0.190   4.778   6.977  0.1605  0.0185  0.1058
 5475ntf    fn425416   0.297   5.153   7.120 -0.6259 -0.6689  0.5893
 5475ntf    fn425417   0.144   5.231   6.999 -0.4775 -0.1446 -0.0600
 5475ntf    fn425418   0.102   5.161   7.191  0.5442  0.5725  0.3647
 5475ntf    on525419   0.219   4.964   6.899 -0.1666 -0.1281 -0.2716
 5475ntf    on525420   0.181   4.881   7.128 -0.4603  0.1075  0.2655
 5475ntf    on525421  -0.034   4.845   6.788 -0.1605  0.3855 -0.4589
 5475ntf    on525422  -0.208   5.010   6.843  0.2207  0.6527  0.5678
 5475ntf    fn425423  -0.102   4.693   7.026  0.1823  0.1159  0.2363
 5475ntf    fn425424  -0.269   4.822   7.075  0.3256 -0.2049  0.3396
 5475ntf    fn425425  -0.268   4.710   6.894 -0.0334  0.7145 -0.2926
 5476ntf    cn125426   4.202   3.855   7.532  0.1725 -0.1603 -0.4700
 5476ntf    sn225427   4.121   3.750   7.656  0.1111  0.2600 -0.1515
 5476ntf    nn325428   4.041   3.854   7.743 -0.6918 -0.5422  0.0912
 5476ntf    sn225429   3.926   3.949   7.695 -0.0224  0.3613  0.2339
 5476ntf    cn125430   3.783   3.908   7.801 -0.3591  0.4328 -0.1895
 5476ntf    fn425431   4.255   3.963   7.587  0.2893 -0.4023 -0.1086
 5476ntf    fn425432   4.300   3.790   7.471  0.0279 -0.2370 -0.6211
 5476ntf    fn425433   4.117   3.909   7.447  0.2237  0.4705 -0.1245
 5476ntf    on525434   4.041   3.678   7.560 -0.2594  0.7601 -0.2241
 5476ntf    on525435   4.227   3.685   7.728 -0.0838  0.1333  0.0235
 5476ntf    on525436   3.884   3.918   7.561 -0.2086 -1.0545  0.5972
 5476ntf    on525437   3.958   4.084   7.733 -0.1834  0.5312 -0.2272
 5476ntf    fn425438   3.748   3.782   7.781 -0.0197  0.2751  0.1884
 5476ntf    fn425439   3.796   3.904   7.933  0.2871 -0.1946 -0.2640
 5476ntf    fn425440   3.686   3.994   7.778 -0.6023  0.1470 -0.2368
 5477ntf    cn125441   1.813   5.443   6.776 -0.2672  0.0012  0.1733
 5477ntf    sn225442   1.991   5.473   6.749 -0.3465  0.3309  0.0161
 5477ntf    nn325443   1.993   5.540   6.607 -0.3309 -0.0708 -0.1743
 5477ntf    sn225444   2.033   5.488   6.464 -0.3102 -0.3597 -0.0635
 5477ntf    cn125445   2.072   5.644   6.380  0.1494 -0.3763  0.1151
 5477ntf    fn425446   1.748   5.468   6.664 -0.1531  0.5062  0.2158
 5477ntf    fn425447   1.792   5.318   6.813  0.6042 -0.1924  0.0406
 5477ntf    fn425448   1.763   5.519   6.873 -0.5903  0.1943 -0.1434
 5477ntf    on525449   2.018   5.573   6.849 -0.2542 -0.2946  0.6252
 5477ntf    on525450   2.052   5.343   6.763 -0.5603  0.1410 -0.7432
 5477ntf    on525451   1.934   5.425   6.381 -0.1503 -0.3290 -0.2810
 5477ntf    on525452   2.162   5.423   6.454 -0.0432  0.2185 -0.4561
 5477ntf    fn425453   1.979   5.738   6.395  0.4308 -0.0857  0.0625
 5477ntf    fn425454   2.187   5.702   6.412 -0.2679  0.4181  0.2196
 5477ntf    fn425455   2.077   5.619   6.251 -0.3541  0.1826 -0.0185
 5478ntf    cn125456   4.937   5.732   6.779  0.2126 -0.0956  0.1792
 5478ntf    sn225457   4.875   5.647   6.631  0.0534 -0.1510  0.2779
 5478ntf    nn325458   5.013   5.586   6.586 -0.1620 -1.0159  0.7681
 5478ntf    sn225459   5.060   5.503   6.461  0.1303  0.3081 -0.0192
 5478ntf    cn125460   5.029   5.337   6.529 -0.1402  0.2019 -0.3942
 5478ntf    fn425461   5.045   5.802   6.747  0.1131 -0.0037  0.0431
 5478ntf    fn425462   4.854   5.821   6.832  0.5645  0.4420 -0.1600
 5478ntf    fn425463   4.962   5.648   6.878 -0.3169 -0.4045  0.0571
 5478ntf    on525464   4.778   5.553   6.682 -0.2275 -0.1147 -0.1839
 5478ntf    on525465   4.830   5.745   6.535 -0.1134 -0.5568 -0.0656
 5478ntf    on525466   5.202   5.524   6.449  0.1588  0.4487  0.5291
 5478ntf    on525467   4.966   5.499   6.351  0.1351 -1.0527  0.0078
 5478ntf    fn425468   5.060   5.327   6.657  0.4643  0.6845 -0.4972
 5478ntf    fn425469   4.906   5.289   6.516 -0.1479 -0.0227  0.4235
 5478ntf    fn425470   5.107   5.248   6.472 -0.4589 -0.1294 -0.3147
 5479ntf    cn125471   2.162   0.732   6.554  0.1043 -0.0412 -0.1831
 5479ntf    sn225472   1.995   0.677   6.600  0.3085 -0.3746  0.1638
 5479ntf    nn325473   1.941   0.653   6.455  0.1189 -0.2521  0.2126
 5479ntf    sn225474   1.857   0.752   6.366  0.5658 -0.0275  0.0353
 5479ntf    cn125475   1.692   0.745   6.442  0.4784 -0.1659 -0.1647
 5479ntf    fn425476   2.212   0.633   6.481 -0.4162 -0.3269 -0.1599
 5479ntf    fn425477   2.166   0.840   6.478  0.5076  0.2741  0.2797
 5479ntf    fn425478   2.239   0.762   6.657  0.1233  0.1384 -0.2494
 5479ntf    on525479   2.010   0.555   6.676  0.3779 -0.0502  0.6810
 5479ntf    on525480   1.944   0.785   6.681  0.3155 -0.2664  0.0228
 5479ntf    on525481   1.841   0.689   6.237  0.2124  0.0624  0.0342
 5479ntf    on525482   1.908   0.887   6.368  0.2005  0.1077  0.3650
 5479ntf    fn425483   1.603   0.826   6.388  0.5674  0.3690  0.4671
 5479ntf    fn425484   1.639   0.624   6.446  0.0494  0.0222 -0.1578
 5479ntf    fn425485   1.709   0.796   6.564  0.3873  0.2646 -0.3309
 5480ntf    cn125486   7.249   5.145   6.407 -0.3826  0.3009 -0.0125
 5480ntf    sn225487   7.233   5.190   6.232  0.2667  0.0499 -0.1380
 5480ntf    nn325488   7.189   5.340   6.246  0.4143  0.0746  0.0581
 5480ntf    sn225489   7.143   5.427   6.124 -0.0519 -0.2158  0.0257
 5480ntf    cn125490   6.963   5.406   6.130 -0.0370 -0.3422  0.0424
 5480ntf    fn425491   7.348   5.207   6.470 -0.5605  0.8732 -0.2911
 5480ntf    fn425492   7.139   5.171   6.476 -0.2646 -0.1431  0.3460
 5480ntf    fn425493   7.269   5.016   6.426  0.2283  0.3762 -0.1254
 5480ntf    on525494   7.369   5.171   6.187  0.3049 -0.4598  0.1855
 5480ntf    on525495   7.124   5.106   6.189 -0.0367  0.1710  0.3814
 5480ntf    on525496   7.162   5.373   5.992  0.6180  0.2340 -0.0697
 5480ntf    on525497   7.161   5.568   6.150 -0.0133 -0.0760 -0.7300
 5480ntf    fn425498   6.909   5.477   6.228  0.8202  0.2634  0.0906
 5480ntf    fn425499   6.896   5.453   6.026  0.0937 -0.2573 -0.0032
 5480ntf    fn425500   6.919   5.282   6.143 -0.1028 -0.3107  0.1281
 5481ntf    cn125501   2.993   5.782   1.978 -0.0898  0.0760  0.1406
 5481ntf    sn225502   2.928   5.861   1.828  0.3302 -0.1095 -0.1404
 5481ntf    nn325503   2.966   5.766   1.709  0.1513  0.2393 -0.4804
 5481ntf    sn225504   2.878   5.653   1.643  0.2827 -0.0416 -0.1769
 5481ntf    cn125505   2.783   5.752   1.524  0.2242  0.3050  0.1546
 5481ntf    fn425506   2.941   5.662   1.996  0.0279  0.0107  0.0442
 5481ntf    fn425507   3.124   5.770   1.965 -0.0985 -0.4620  0.5271
 5481ntf    fn425508   2.972   5.845   2.093 -0.7442 -0.3482  0.2615
 5481ntf    on525509   2.787   5.877   1.856  0.3952  0.3536 -0.0687
 5481ntf    on525510   3.004   5.983   1.820 -0.0880  0.1895  0.3414
 5481ntf    on525511   2.787   5.585   1.731  0.5252 -0.2097 -0.0526
 5481ntf    on525512   2.957   5.571   1.555  0.3735 -0.0134 -0.1218
 5481ntf    fn425513   2.867   5.829   1.457  0.1101 -0.4948 -0.9284
 5481ntf    fn425514   2.727   5.670   1.437 -0.1515  0.3783  0.3246
 5481ntf    fn425515   2.693   5.823   1.590  0.3954  0.2528  0.4466
 5482ntf    cn125516   6.195   7.467   2.189 -0.1085  0.1134  0.2325
 5482ntf    sn225517   6.073   7.357   2.110  0.1227  0.3668 -0.4849
 5482ntf    nn325518   6.010   7.310   2.246 -0.1260 -0.1795 -0.7859
 5482ntf    sn225519   5.982   7.167   2.305  0.1889  0.0769 -0.0096
 5482ntf    cn125520   6.140   7.141   2.392  0.1121 -0.2987  0.0179
 5482ntf    fn425521   6.258   7.402   2.285 -0.0125 -0.4386 -0.1950
 5482ntf    fn425522   6.279   7.504   2.094  0.0416 -0.4057  0.1561
 5482ntf    fn425523   6.141   7.577   2.239 -0.2466 -0.0941  0.5402
 5482ntf    on525524   5.982   7.440   2.036 -0.3759  0.3223  0.0712
 5482ntf    on525525   6.151   7.256   2.043 -0.0423 -0.4633  0.5480
 5482ntf    on525526   5.969   7.059   2.211  0.2337  0.4464 -0.4419
 5482ntf    on525527   5.896   7.164   2.421  0.5611 -0.1424  0.2648
 5482ntf    fn425528   6.244   7.129   2.312  0.3358  0.2486  0.2198
 5482ntf    fn425529   6.177   7.240   2.472  0.5673 -0.5229  0.0887
 5482ntf    fn425530   6.136   7.033   2.468 -0.5270 -0.2254  0.0985
 5483ntf    cn125531   6.185   0.675   4.023 -0.4041  0.1085  0.1737
 5483ntf    sn225532   6.164   0.504   4.082 -0.1044  0.0974  0.2456
 5483ntf    nn325533   6.168   0.432   3.943 -0.4074  0.3190  0.1225
 5483ntf    sn225534   6.069   0.317   3.904 -0.1427  0.1733 -0.1255
 5483ntf    cn125535   6.190   0.225   3.805  0.0337  0.2418  0.0273
 5483ntf    fn425536   6.193   0.761   4.123  0.6574 -0.0190  0.2060
 5483ntf    fn425537   6.293   0.692   3.950 -0.0008  0.1550  0.7774
 5483ntf    fn425538   6.082   0.725   3.955 -0.0704  0.8691  0.2229
 5483ntf    on525539   6.290   0.495   4.153 -0.0632 -0.7576  0.0694
 5483ntf    on525540   6.041   0.505   4.156 -0.1397 -0.4023  0.1945
 5483ntf    on525541   5.972   0.355   3.803 -0.8200 -0.3539  0.3148
 5483ntf    on525542   6.029   0.225   4.007  0.4514 -0.5559 -0.5334
 5483ntf    fn425543   6.157   0.098   3.790  0.6345  0.0968 -0.1154
 5483ntf    fn425544   6.201   0.264   3.680 -0.7290  0.1882 -0.0604
 5483ntf    fn425545   6.313   0.227   3.853  0.4096  0.1925 -0.9114
 5484ntf    cn125546   5.010   6.757   5.500 -0.2654  0.5176 -0.1686
 5484ntf    sn225547   4.977   6.924   5.563  0.2638  0.4739  0.2286
 5484ntf    nn325548   4.831   6.948   5.510  0.3001  0.0928 -0.0451
 5484ntf    sn225549   4.737   7.073   5.515 -0.0331 -0.1535 -0.1568
 5484ntf    cn125550   4.789   7.154   5.360  0.2503 -0.2216 -0.0984
 5484ntf    fn425551   5.007   6.749   5.368 -0.1078 -0.3338 -0.1256
 5484ntf    fn425552   5.132   6.714   5.526 -0.3069  0.1861 -0.5064
 5484ntf    fn425553   4.929   6.662   5.545 -0.0281  0.6844  0.6220
 5484ntf    on525554   4.973   6.914   5.707 -0.8883  0.2063  0.1841
 5484ntf    on525555   5.077   7.004   5.497  0.5794 -0.0086  0.1193
 5484ntf    on525556   4.770   7.174   5.613  0.1101  0.1624 -0.5268
 5484ntf    on525557   4.597   7.046   5.494 -0.0184 -0.4203  0.0870
 5484ntf    fn425558   4.895   7.232   5.370  0.1430 -0.1187  0.2783
 5484ntf    fn425559   4.814   7.057   5.273  0.4562 -0.3902  0.1449
 5484ntf    fn425560   4.704   7.231   5.294  0.1961  0.1992  0.4624
 5485ntf    cn125561   3.643   4.371   6.554 -0.1161 -0.2183 -0.1420
 5485ntf    sn225562   3.691   4.196   6.542  0.1340 -0.1604  0.0223
 5485ntf    nn325563   3.619   4.146   6.673 -0.0878 -1.1270 -0.4618
 5485ntf    sn225564   3.676   4.136   6.819  0.1041 -0.0727 -0.4621
 5485ntf    cn125565   3.523   4.156   6.915  0.2938  0.1679 -0.2099
 5485ntf    fn425566   3.698   4.428   6.659 -0.2540  0.2477 -0.3205
 5485ntf    fn425567   3.686   4.446   6.454  0.3542 -0.5779 -0.2135
 5485ntf    fn425568   3.513   4.390   6.571 -0.0179 -0.1366  0.5186
 5485ntf    on525569   3.631   4.150   6.419 -0.0663  0.4626 -0.1153
 5485ntf    on525570   3.835   4.198   6.549  0.1565 -0.2239 -0.3929
 5485ntf    on525571   3.762   4.243   6.865 -0.2651 -0.1790  0.4795
 5485ntf    on525572   3.721   4.000   6.837 -0.3427 -0.2637 -0.7791
 5485ntf    fn425573   3.448   4.050   6.891 -0.3270  0.6108 -0.2308
 5485ntf    fn425574   3.545   4.167   7.045 -0.4061  0.5736 -0.1195
 5485ntf    fn425575   3.457   4.268   6.891 -0.1050 -0.0185  0.0095
 5486ntf    cn125576   2.713   4.475   6.327  0.5471 -0.5660  0.1224
 5486ntf    sn225577   2.745   4.533   6.158 -0.0515 -0.0269  0.1868
 5486ntf    nn325578   2.755   4.391   6.091 -0.3096  0.2771 -0.4945
 5486ntf    sn225579   2.815   4.350   5.952  0.1766  0.0059 -0.2043
 5486ntf    cn125580   2.983   4.295   5.994  0.1106 -0.0714 -0.0455
 5486ntf    fn425581   2.812   4.414   6.389  0.6650 -0.0061  0.4936
 5486ntf    fn425582   2.690   4.586   6.396  0.1833 -0.4461 -0.1869
 5486ntf    fn425583   2.608   4.393   6.332  0.1928 -0.1657 -0.5659
 5486ntf    on525584   2.633   4.615   6.123  0.1244 -0.1578 -0.7011
 5486ntf    on525585   2.871   4.603   6.164 -0.1718  0.1522  0.7135
 5486ntf    on525586   2.835   4.462   5.863  0.4735 -0.3193 -0.5514
 5486ntf    on525587   2.759   4.233   5.889  0.2848  0.0401 -0.3649
 5486ntf    fn425588   2.975   4.213   6.098 -0.3731  1.0934  0.8576
 5486ntf    fn425589   3.050   4.239   5.894  0.0504  0.7865 -0.5728
 5486ntf    fn425590   3.053   4.397   6.040 -0.0404  0.0084  0.0063
 5487ntf    cn125591   6.619   1.099   4.777 -0.1289  0.1950  0.3151
 5487ntf    sn225592   6.534   0.995   4.900 -0.0189 -0.1694  0.0848
 5487ntf    nn325593   6.514   0.870   4.808  0.2354 -0.2951  0.1971
 5487ntf    sn225594   6.406   0.757   4.823 -0.1404 -0.0414 -0.5183
 5487ntf    cn125595   6.266   0.818   4.725 -0.2214  0.0944 -0.3192
 5487ntf    fn425596   6.644   1.219   4.826  0.2407  0.2661 -0.0470
 5487ntf    fn425597   6.724   1.040   4.721 -0.1859 -0.1294  0.5436
 5487ntf    fn425598   6.537   1.113   4.675 -0.3751 -0.2253  0.4495
 5487ntf    on525599   6.634   0.988   5.004  0.1272 -0.7887 -0.0916
 5487ntf    on525600   6.417   1.074   4.926  0.3002  0.0146  1.0116
 5487ntf    on525601   6.351   0.738   4.955 -0.7594  0.7534 -0.6557
 5487ntf    on525602   6.447   0.641   4.747  0.5817  0.0626 -0.2920
 5487ntf    fn425603   6.296   0.866   4.605  0.8203  0.1834 -0.0335
 5487ntf    fn425604   6.189   0.717   4.688 -0.2952 -0.1124  0.3882
 5487ntf    fn425605   6.196   0.911   4.788 -0.4152  0.2327 -0.7325
 5488ntf    cn125606   1.042   1.603   3.620  0.4365 -0.0199 -0.2820
 5488ntf    sn225607   0.988   1.764   3.685 -0.3044 -0.2983 -0.1930
 5488ntf    nn325608   1.046   1.756   3.831 -0.1808 -0.2566 -0.2398
 5488ntf    sn225609   1.006   1.849   3.951 -0.0045 -0.2115 -0.2155
 5488ntf    cn125610   0.858   1.768   4.018  0.1229 -0.0801  0.2249
 5488ntf    fn425611   1.172   1.597   3.597  0.5935 -0.1287  0.5930
 5488ntf    fn425612   1.006   1.501   3.697  0.8832  0.2080  0.2431
 5488ntf    fn425613   0.990   1.575   3.502 -0.1497 -0.3331  0.0459
 5488ntf    on525614   1.056   1.858   3.598 -0.2544  0.3958  0.5779
 5488ntf    on525615   0.845   1.749   3.674 -0.2896 -0.3995 -0.2385
 5488ntf    on525616   0.976   1.986   3.918  0.6571 -0.0227 -0.0586
 5488ntf    on525617   1.094   1.834   4.064 -0.5303  0.3737  0.2744
 5488ntf    fn425618   0.888   1.639   4.024  0.5304  0.0347  0.7490
 5488ntf    fn425619   0.831   1.805   4.142 -0.4979  0.6103 -0.1126
 5488ntf    fn425620   0.745   1.770   3.950  0.3420 -0.3931 -0.1537
 5489ntf    cn125621   1.776   7.416   2.862 -0.1084  0.0972 -0.2137
 5489ntf    sn225622   1.939   7.493   2.881  0.0699 -0.3776  0.2289
 5489ntf    nn325623   1.924   7.544   3.028 -0.3951  0.7262 -0.1928
 5489ntf    sn225624   2.041   7.617   3.103 -0.1380  0.0086  0.1088
 5489ntf    cn125625   1.933   7.736   3.189 -0.3435 -0.1056  0.0077
 5489ntf    fn425626   1.680   7.502   2.890 -0.0401  0.1603 -0.1728
 5489ntf    fn425627   1.764   7.367   2.740  0.2425 -0.1746 -0.1406
 5489ntf    fn425628   1.757   7.311   2.941  0.8625  0.4155  0.4632
 5489ntf    on525629   2.015   7.372   2.862  0.1398 -0.3051  0.0446
 5489ntf    on525630   1.945   7.593   2.777  0.4662 -0.6507 -0.0174
 5489ntf    on525631   2.126   7.696   3.018 -0.6480 -0.0448 -0.4616
 5489ntf    on525632   2.110   7.544   3.207  0.0133  0.4324  0.3077
 5489ntf    fn425633   1.996   7.784   3.294  0.0102  0.0540 -0.2777
 5489ntf    fn425634   1.892   7.835   3.110 -0.4153 -0.1637 -0.0288
 5489ntf    fn425635   1.825   7.679   3.242 -0.2498 -0.2868  0.0053
 5490ntf    cn125636   6.410   2.464   2.620  0.4580 -0.2256 -0.0230
 5490ntf    sn225637   6.370   2.382   2.463  0.3054  0.1327 -0.1721
 5490ntf    nn325638   6.410   2.232   2.485 -0.0414  0.0361 -0.2044
 5490ntf    sn225639   6.515   2.153   2.399 -0.1004 -0.2053 -0.0572
 5490ntf    cn125640   6.665   2.179   2.499 -0.1148  0.3934 -0.1836
 5490ntf    fn425641   6.344   2.406   2.719  0.6647  0.9599  0.8397
 5490ntf    fn425642   6.535   2.454   2.662  0.6394  0.0508 -0.4927
 5490ntf    fn425643   6.378   2.592   2.631 -0.0952 -0.3746  0.1169
 5490ntf    on525644   6.227   2.403   2.458  0.2263 -0.3314  0.0968
 5490ntf    on525645   6.448   2.454   2.364  0.0587  0.2252 -0.3001
 5490ntf    on525646   6.554   2.206   2.270  0.3913 -0.2684  0.0621
 5490ntf    on525647   6.490   2.011   2.402  0.0528 -0.2361 -0.2036
 5490ntf    fn425648   6.764   2.100   2.459 -0.0313  0.0779  0.6248
 5490ntf    fn425649   6.713   2.302   2.508 -0.3406  0.4272  0.5991
 5490ntf    fn425650   6.653   2.142   2.625  0.0730  0.3415 -0.1800
 5491ntf    cn125651   6.218   6.959   6.126  0.5124  0.0666 -0.2194
 5491ntf    sn225652   6.238   6.948   6.307  0.1302 -0.1856 -0.1915
 5491ntf    nn325653   6.372   6.869   6.330  0.2394 -0.1442 -0.6688
 5491ntf    sn225654   6.516   6.912   6.285  0.3146  0.2212 -0.0863
 5491ntf    cn125655   6.600   6.950   6.442 -0.1013 -0.3981  0.2944
 5491ntf    fn425656   6.219   6.837   6.076  0.5089 -0.1350  0.2632
 5491ntf    fn425657   6.100   7.010   6.094  0.4843  0.0883 -0.0835
 5491ntf    fn425658   6.296   7.040   6.057  0.2207  0.1615 -0.4388
 5491ntf    on525659   6.243   7.084   6.355  0.1926 -0.0091 -0.6922
 5491ntf    on525660   6.125   6.873   6.357 -0.3712  0.0581 -0.9482
 5491ntf    on525661   6.525   7.036   6.213  0.2202  0.3529  0.1302
 5491ntf    on525662   6.594   6.801   6.234  0.1851  0.1914 -0.2200
 5491ntf    fn425663   6.558   6.860   6.529 -0.2461 -0.6069  0.0086
 5491ntf    fn425664   6.733   6.948   6.444 -0.0870  0.0456 -0.0752
 5491ntf    fn425665   6.560   7.065   6.493  0.5967 -0.3034  0.6389
 5492ntf    cn125666   2.151   3.798   0.462  0.2458 -0.0516 -0.1496
 5492ntf    sn225667   2.063   3.643   0.497  0.0414  0.0965 -0.0030
 5492ntf    nn325668   2.110   3.543   0.385 -0.0212  0.1664 -0.0909
 5492ntf    sn225669   2.086   3.388   0.385 -0.2333  0.1983  0.4300
 5492ntf    cn125670   2.053   3.377   0.207  0.0003  0.5300  0.3645
 5492ntf    fn425671   2.117   3.846   0.343 -0.4215  0.1189  0.1019
 5492ntf    fn425672   2.120   3.895   0.546  0.3329 -0.3748  0.2585
 5492ntf    fn425673   2.281   3.778   0.461  0.3438  0.5698  0.0554
 5492ntf    on525674   2.115   3.603   0.626  0.2007  0.2365 -0.0239
 5492ntf    on525675   1.923   3.677   0.499 -0.0019 -0.0641 -0.2485
 5492ntf    on525676   1.963   3.344   0.448 -0.0742  0.0794  0.6577
 5492ntf    on525677   2.199   3.304   0.415 -0.1944  0.3440  0.6917
 5492ntf    fn425678   2.068   3.261   0.143  0.1470  0.2783  0.8519
 5492ntf    fn425679   1.934   3.428   0.179 -0.1972 -0.2827 -0.3317
 5492ntf    fn425680   2.138   3.453   0.141  0.5390 -0.1995  0.1994
 5493ntf    cn125681   5.681   6.886   7.559 -0.1214  0.2216  0.1575
 5493ntf    sn225682   5.681   7.068   7.562 -0.1802  0.2286 -0.2861
 5493ntf    nn325683   5.680   7.077   7.405  0.2170 -0.1668 -0.3135
 5493ntf    sn225684   5.715   7.203   7.318  0.2398 -0.1636 -0.2998
 5493ntf    cn125685   5.550   7.221   7.244  0.0229  0.1655  0.2585
 5493ntf    fn425686   5.777   6.833   7.487 -0.4016 -0.2261  0.1092
 5493ntf    fn425687   5.697   6.826   7.676  0.6961 -0.4210 -0.2716
 5493ntf    fn425688   5.568   6.853   7.499  0.1869 -1.1496  0.2844
 5493ntf    on525689   5.559   7.106   7.629  0.0710  0.6079 -0.0421
 5493ntf    on525690   5.804   7.102   7.628  0.2741 -0.6441 -0.6715
 5493ntf    on525691   5.808   7.156   7.219  0.5201 -0.7819  0.2474
 5493ntf    on525692   5.736   7.331   7.382  0.5668 -0.6643  0.6158
 5493ntf    fn425693   5.499   7.115   7.185  0.6317  0.1023 -0.1628
 5493ntf    fn425694   5.461   7.263   7.332 -0.3624 -0.7057  0.2883
 5493ntf    fn425695   5.550   7.316   7.152 -0.5805 -0.2105 -0.1333
 5494ntf    cn125696   4.297   4.658   6.174  0.2851  0.1393  0.2329
 5494ntf    sn225697   4.314   4.663   5.993 -0.0113  0.0806  0.2035
 5494ntf    nn325698   4.392   4.799   5.987 -0.6228  0.4469  0.4890
 5494ntf    sn225699   4.379   4.928   5.898  0.2137 -0.0303 -0.3425
 5494ntf    cn125700   4.294   5.042   6.011  0.1064 -0.2961 -0.1533
 5494ntf    fn425701   4.232   4.552   6.219  0.1519  0.1402  0.0418
 5494ntf    fn425702   4.415   4.661   6.233  0.0175  0.4389  0.7541
 5494ntf    fn425703   4.227   4.762   6.214 -0.3848 -0.0911 -0.3309
 5494ntf    on525704   4.388   4.544   5.959  0.2254  0.3027 -0.0618
 5494ntf    on525705   4.181   4.667   5.935 -0.2746 -0.0533  0.7956
 5494ntf    on525706   4.292   4.909   5.785  0.0595 -0.1410 -0.2067
 5494ntf    on525707   4.502   5.000   5.878 -0.1411  0.7120  0.1392
 5494ntf    fn425708   4.358   5.069   6.124 -0.2184 -0.2245  0.0144
 5494ntf    fn425709   4.268   5.158   5.954  0.6416 -0.0549  0.0885
 5494ntf    fn425710   4.180   4.979   6.039  0.2422 -0.2897  0.4366
 5495ntf    cn125711   3.313   7.248   2.186 -0.6431 -0.1146 -0.0067
 5495ntf    sn225712   3.174   7.163   2.106 -0.5335 -0.1245 -0.1878
 5495ntf    nn325713   3.147   7.049   2.210 -0.4291  0.1256  0.1115
 5495ntf    sn225714   3.143   6.895   2.182  0.2513  0.1078  0.0861
 5495ntf    cn125715   3.036   6.876   2.036  0.1010  0.5291  0.1410
 5495ntf    fn425716   3.346   7.351   2.108  0.0364 -0.4429 -0.1635
 5495ntf    fn425717   3.278   7.310   2.297  0.2309 -0.2691  0.3587
 5495ntf    fn425718   3.420   7.177   2.219 -0.1927  0.4222 -0.2808
 5495ntf    on525719   3.082   7.273   2.114  0.1327  0.4029  0.3121
 5495ntf    on525720   3.231   7.135   1.976 -0.1302  0.8947 -0.2396
 5495ntf    on525721   3.072   6.828   2.289 -0.3615 -0.1494 -0.4763
 5495ntf    on525722   3.263   6.831   2.134  0.1452  0.2712 -0.3964
 5495ntf    fn425723   2.989   6.753   2.032 -0.0540  0.6122 -0.6661
 5495ntf    fn425724   2.927   6.950   2.043 -0.1116  0.2572 -0.2922
 5495ntf    fn425725   3.096   6.895   1.920 -0.2618  0.2201 -0.0979
 5496ntf    cn125726   0.337   6.450   1.720  0.1362  0.6043  0.1840
 5496ntf    sn225727   0.357   6.372   1.884  0.1074  0.1393 -0.0322
 5496ntf    nn325728   0.479   6.461   1.927  0.0583  0.1001  0.1900
 5496ntf    sn225729   0.627   6.409   1.942  0.1026  0.1038 -0.1996
 5496ntf    cn125730   0.589   6.305   2.087  0.1148 -0.0576 -0.3136
 5496ntf    fn425731   0.313   6.580   1.723  0.0382  0.5844  0.3033
 5496ntf    fn425732   0.445   6.437   1.646 -0.0660  0.1674 -0.0403
 5496ntf    fn425733   0.242   6.386   1.653  0.6075 -0.3901  0.4385
 5496ntf    on525734   0.234   6.404   1.953  0.3420  0.7798  0.0899
 5496ntf    on525735   0.376   6.232   1.856  0.0160  0.2602 -0.7189
 5496ntf    on525736   0.704   6.510   2.011  0.2638 -0.2596  0.1567
 5496ntf    on525737   0.683   6.328   1.838  0.0504  0.2903 -0.3727
 5496ntf    fn425738   0.689   6.305   2.174 -0.3812 -0.0189  0.2598
 5496ntf    fn425739   0.474   6.330   2.146  0.3010  0.7256 -0.2671
 5496ntf    fn425740   0.569   6.178   2.055 -0.2157 -0.0771 -0.0290
 5497ntf    cn125741   2.257   3.155   1.585 -0.1706  0.2117  0.2623
 5497ntf    sn225742   2.258   2.980   1.535  0.0447  0.1806  0.3745
 5497ntf    nn325743   2.395   2.942   1.602  0.5019  0.5663 -0.3195
 5497ntf    sn225744   2.447   2.804   1.656 -0.1201  0.3010 -0.3878
 5497ntf    cn125745   2.570   2.763   1.529 -0.0095 -0.1441 -0.1416
 5497ntf    fn425746   2.331   3.237   1.511  0.0285 -0.2991 -0.1144
 5497ntf    fn425747   2.134   3.203   1.577 -0.2243  0.0090 -0.2438
 5497ntf    fn425748   2.295   3.165   1.711  0.2418 -0.2025  0.1765
 5497ntf    on525749   2.144   2.927   1.604 -0.2005  0.2191  0.0029
 5497ntf    on525750   2.266   2.978   1.391 -0.5078 -0.3190  0.3471
 5497ntf    on525751   2.354   2.693   1.654 -0.1236  0.2934 -0.0024
 5497ntf    on525752   2.520   2.826   1.779  0.1654 -0.0765 -0.4891
 5497ntf    fn425753   2.684   2.829   1.541 -0.3075  0.3759 -0.1317
 5497ntf    fn425754   2.594   2.635   1.510  0.3670 -0.1744  0.5229
 5497ntf    fn425755   2.514   2.805   1.416 -0.0108  0.2810  0.0123
 5498ntf    cn125756   7.069   5.673   3.953 -0.4052 -0.5079  0.3901
 5498ntf    sn225757   7.203   5.580   4.033  0.2757 -0.0513 -0.1923
 5498ntf    nn325758   7.108   5.476   4.104  0.2978 -0.2526 -0.4569
 5498ntf    sn225759   7.138   5.353   4.197  0.0590  0.0817  0.0684
 5498ntf    cn125760   7.069   5.414   4.354  0.0347  0.5759 -0.1314
 5498ntf    fn425761   6.979   5.719   4.038 -0.5413 -0.5370  0.2616
 5498ntf    fn425762   7.124   5.769   3.880 -0.6975 -0.3029  0.4404
 5498ntf    fn425763   6.997   5.607   3.865 -0.5077  0.2816 -0.1302
 5498ntf    on525764   7.274   5.525   3.921  0.0142 -0.6246 -0.0856
 5498ntf    on525765   7.281   5.664   4.120  0.3245 -0.1088 -0.1810
 5498ntf    on525766   7.279   5.334   4.222  0.1696  0.6388 -0.1160
 5498ntf    on525767   7.070   5.229   4.173 -0.0803  0.3353 -0.9177
 5498ntf    fn425768   6.937   5.416   4.352  0.0191  0.0612  0.2795
 5498ntf    fn425769   7.101   5.336   4.456  0.0354 -0.0362 -0.5931
 5498ntf    fn425770   7.108   5.533   4.395  0.8562  0.1497  0.3577
 5499ntf    cn125771   0.625   1.420   1.374 -0.2053 -0.1216 -0.1567
 5499ntf    sn225772   0.682   1.253   1.331  0.3721  0.0995 -0.2517
 5499ntf    nn325773   0.560   1.173   1.389  0.5195  0.1077  0.0732
 5499ntf    sn225774   0.524   1.022   1.366 -0.2148  0.3071 -0.1073
 5499ntf    cn125775   0.411   1.020   1.223 -0.3319 -0.1906 -0.0107
 5499ntf    fn425776   0.679   1.524   1.314 -0.0335  0.1515  0.4615
 5499ntf    fn425777   0.492   1.424   1.369 -0.2094  0.1803  0.1162
 5499ntf    fn425778   0.643   1.451   1.502  0.3617 -0.1493 -0.2279
 5499ntf    on525779   0.677   1.257   1.187  0.4467 -0.5333 -0.2728
 5499ntf    on525780   0.801   1.245   1.412 -0.1276  0.1766  0.5012
 5499ntf    on525781   0.441   0.982   1.476 -0.6244  0.3145 -0.4104
 5499ntf    on525782   0.635   0.938   1.329 -0.4971 -0.1836  0.1467
 5499ntf    fn425783   0.464   1.089   1.123 -0.8552 -0.2521 -0.3356
 5499ntf    fn425784   0.385   0.897   1.184 -0.6110 -0.1427  0.0268
 5499ntf    fn425785   0.300   1.082   1.257 -0.1319 -0.1383  0.5584
 5500ntf    cn125786   7.290   4.361   0.480  0.4803  0.0003 -0.4325
 5500ntf    sn225787   7.378   4.513   0.528  0.0367  0.1068  0.0574
 5500ntf    nn325788   7.410   4.574   0.387 -0.0325 -0.3001 -0.1393
 5500ntf    sn225789   7.516   4.687   0.360 -0.1632 -0.1304  0.0480
 5500ntf    cn125790   7.639   4.587   0.271  0.1800 -0.0074  0.3830
 5500ntf    fn425791   7.176   4.395   0.422  0.4535  0.1148 -0.3114
 5500ntf    fn425792   7.351   4.277   0.399 -0.2145 -0.8627 -0.0754
 5500ntf    fn425793   7.251   4.288   0.583 -0.2458  0.2740 -0.5044
 5500ntf    on525794   7.281   4.588   0.604 -0.2908 -0.1969 -0.0545
 5500ntf    on525795   7.495   4.456   0.590  0.4934 -0.0461 -0.9258
 5500ntf    on525796   7.591   4.732   0.475  0.0782  0.0415 -0.1742
 5500ntf    on525797   7.470   4.786   0.265 -0.8387 -0.2268  0.2703
 5500ntf    fn425798   7.713   4.514   0.352 -0.2688 -0.4202  0.4253
 5500ntf    fn425799   7.573   4.503   0.193  0.4104  0.1918 -0.0343
 5500ntf    fn425800   7.723   4.652   0.191 -0.2700 -0.2029 -0.2611
 5501ntf    cn125801   0.344   3.143   6.964  0.3316 -0.6818 -0.0468
 5501ntf    sn225802   0.307   3.029   7.100  0.1313 -0.2809  0.2361
 5501ntf    nn325803   0.176   2.960   7.045 -0.0028 -0.0115  0.2170
 5501ntf    sn225804   0.048   3.036   6.995  0.1794  0.0838 -0.1065
 5501ntf    cn125805  -0.088   2.922   7.034  0.0128  0.2325 -0.2501
 5501ntf    fn425806   0.465   3.191   6.983  0.1244 -0.1574 -0.0364
 5501ntf    fn425807   0.341   3.086   6.844 -0.0005 -0.0155 -0.3600
 5501ntf    fn425808   0.265   3.248   6.945  0.3842 -0.8124 -1.0689
 5501ntf    on525809   0.419   2.939   7.107  0.5080  0.1714  0.0147
 5501ntf    on525810   0.282   3.113   7.215 -0.5294 -0.3184  0.1282
 5501ntf    on525811   0.038   3.056   6.853  0.7695 -0.1578 -0.1885
 5501ntf    on525812   0.017   3.147   7.082  0.2786  0.1017 -0.0944
 5501ntf    fn425813  -0.202   2.982   7.008 -0.1835 -0.0627 -0.0705
 5501ntf    fn425814  -0.081   2.805   6.973 -0.2704  0.2098 -0.2392
 5501ntf    fn425815  -0.098   2.894   7.162  0.2784 -0.1631 -0.3141
 5502ntf    cn125816   1.521   4.502   7.155 -0.1622  0.8614 -0.8253
 5502ntf    sn225817   1.701   4.521   7.173 -0.1764  0.0602  0.2344
 5502ntf    nn325818   1.705   4.660   7.246  0.5223  0.1266  0.0717
 5502ntf    sn225819   1.829   4.738   7.301  0.4342  0.1152  0.2879
 5502ntf    cn125820   1.801   4.726   7.480  0.0411  0.0015  0.2195
 5502ntf    fn425821   1.462   4.502   7.274  0.5699 -0.0172 -0.4523
 5502ntf    fn425822   1.470   4.601   7.084 -0.5344  0.8931 -0.5191
 5502ntf    fn425823   1.493   4.392   7.086  0.1789  0.3801 -0.2145
 5502ntf    on525824   1.729   4.416   7.268  0.3171  0.1597  0.1979
 5502ntf    on525825   1.742   4.524   7.035 -0.0160  0.3913  0.2902
 5502ntf    on525826   1.829   4.881   7.279  0.4434 -0.0000 -0.4768
 5502ntf    on525827   1.957   4.673   7.290  0.3027 -0.1091  0.0872
 5502ntf    fn425828   1.760   4.606   7.516  0.3144 -0.2101 -0.1719
 5502ntf    fn425829   1.918   4.749   7.539  0.3171  0.0876 -0.3553
 5502ntf    fn425830   1.717   4.820   7.522 -0.0485 -0.2201  0.5412
 5503ntf    cn125831   3.438   5.315   0.076  0.4748  0.0750  0.1306
 5503ntf    sn225832   3.310   5.186   0.088  0.2750  0.2560 -0.0612
 5503ntf    nn325833   3.208   5.257   0.184  0.0020  0.1923 -0.3029
 5503ntf    sn225834   3.122   5.384   0.152  0.1360  0.2354 -0.4963
 5503ntf    cn125835   2.968   5.319   0.080 -0.1300  0.3299 -0.0210
 5503ntf    fn425836   3.469   5.369   0.193  0.0060 -0.1202  0.3462
 5503ntf    fn425837   3.552   5.268   0.026  0.2069 -0.7834  0.3058
 5503ntf    fn425838   3.404   5.411  -0.009  0.5513  0.2965  0.3494
 5503ntf    on525839   3.263   5.170  -0.048 -0.0818  0.0869  0.0821
 5503ntf    on525840   3.374   5.075   0.153 -0.7926 -0.3052  0.0392
 5503ntf    on525841   3.171   5.481   0.058  0.2773  0.0293 -0.6350
 5503ntf    on525842   3.071   5.440   0.275 -0.4777  0.1530 -0.7061
 5503ntf    fn425843   2.991   5.278  -0.044  0.1754  0.4734 -0.0111
 5503ntf    fn425844   2.911   5.224   0.153  0.0118  0.1181 -0.1835
 5503ntf    fn425845   2.877   5.413   0.060 -0.3847  0.0493 -0.1903
 5504ntf    cn125846   6.915   1.073   5.242  0.1115  0.2753 -0.0553
 5504ntf    sn225847   6.918   1.246   5.185  0.3140  0.3564  0.2009
 5504ntf    nn325848   6.825   1.307   5.296 -0.5681 -0.6852  0.0493
 5504ntf    sn225849   6.872   1.372   5.431  0.2900 -0.8671 -0.1592
 5504ntf    cn125850   6.819   1.544   5.406  0.4938 -0.7725  0.0579
 5504ntf    fn425851   6.794   1.019   5.249 -0.0862  0.6402 -0.5534
 5504ntf    fn425852   6.978   0.984   5.167  0.1419 -0.1919  0.5149
 5504ntf    fn425853   6.969   1.051   5.360 -0.2770  0.5360  0.1761
 5504ntf    on525854   7.056   1.286   5.180  0.3051  0.3334 -0.2803
 5504ntf    on525855   6.848   1.237   5.059  0.7231  0.6547 -0.0488
 5504ntf    on525856   7.016   1.375   5.445  0.3407 -0.2923 -0.7400
 5504ntf    on525857   6.792   1.334   5.544 -0.5557  0.2336 -0.3645
 5504ntf    fn425858   6.838   1.616   5.516  0.0332 -0.5866  0.0184
 5504ntf    fn425859   6.881   1.596   5.302  0.0327  0.0362  0.1761
 5504ntf    fn425860   6.690   1.549   5.377  0.4833 -0.5583  0.1410
 5505ntf    cn125861   0.030   7.431   6.548  0.1741 -0.2148 -0.3439
 5505ntf    sn225862  -0.021   7.534   6.408 -0.0361  0.2404  0.0649
 5505ntf    nn325863   0.109   7.614   6.375  0.1539 -0.0903  0.0084
 5505ntf    sn225864   0.118   7.768   6.346  0.3215 -0.0020  0.5173
 5505ntf    cn125865   0.055   7.774   6.176 -0.1645 -0.2256  0.6885
 5505ntf    fn425866  -0.063   7.342   6.580 -0.5599  0.6801  0.0356
 5505ntf    fn425867   0.140   7.361   6.527  0.1138 -0.4915  0.2299
 5505ntf    fn425868   0.061   7.498   6.658 -0.0886 -0.0779 -0.3512
 5505ntf    on525869  -0.044   7.440   6.301 -0.2763  0.3403  0.0273
 5505ntf    on525870  -0.137   7.610   6.447  0.2452  0.4657  0.4633
 5505ntf    on525871   0.255   7.814   6.339  0.3514 -0.2522 -0.8217
 5505ntf    on525872   0.033   7.862   6.415 -0.2234  0.3539 -0.6221
 5505ntf    fn425873  -0.058   7.708   6.153  0.2945 -0.7423 -0.1189
 5505ntf    fn425874   0.033   7.900   6.140  0.1193 -0.2556  0.4092
 5505ntf    fn425875   0.138   7.719   6.090 -0.4442 -0.0993  0.3335
 5506ntf    cn125876   4.237   5.027   4.500 -0.0610 -0.0641  0.2431
 5506ntf    sn225877   4.337   5.120   4.621  0.2077  0.0106 -0.0340
 5506ntf    nn325878   4.274   5.264   4.620 -0.2761 -0.1969 -0.1532
 5506ntf    sn225879   4.308   5.383   4.524 -0.1442 -0.2984 -0.2337
 5506ntf    cn125880   4.147   5.467   4.525  0.1200  0.2180 -0.0937
 5506ntf    fn425881   4.266   4.899   4.480  0.1352  0.0651 -0.3266
 5506ntf    fn425882   4.109   5.027   4.530 -0.1529  0.2683 -0.1551
 5506ntf    fn425883   4.252   5.083   4.381 -0.4016  0.4232  0.4309
 5506ntf    on525884   4.303   5.047   4.740  0.4248 -0.6672 -0.3807
 5506ntf    on525885   4.473   5.106   4.577  0.2198 -0.7695  0.2342
 5506ntf    on525886   4.328   5.346   4.386  0.0462 -1.2278  0.0373
 5506ntf    on525887   4.404   5.475   4.581  0.2808 -0.8380 -0.0719
 5506ntf    fn425888   4.128   5.537   4.414  0.6871  0.7798  0.1653
 5506ntf    fn425889   4.038   5.392   4.525  0.0881  0.2648  0.0124
 5506ntf    fn425890   4.121   5.561   4.614 -0.3487 -0.2146  0.2295
 5507ntf    cn125891   4.293   1.080   2.427 -0.3644 -0.0055 -0.4241
 5507ntf    sn225892   4.351   0.921   2.360 -0.1088 -0.1962  0.2325
 5507ntf    nn325893   4.214   0.883   2.294  0.0462 -0.3778  0.0097
 5507ntf    sn225894   4.136   0.749   2.314 -0.0092 -0.3413  0.0386
 5507ntf    cn125895   4.097   0.720   2.139  0.0923  0.1326 -0.0636
 5507ntf    fn425896   4.390   1.140   2.495 -0.4128 -0.2754 -0.1132
 5507ntf    fn425897   4.257   1.159   2.327  0.5046  0.5435 -0.3202
 5507ntf    fn425898   4.181   1.061   2.494  0.0607 -0.0849  0.2768
 5507ntf    on525899   4.457   0.957   2.269 -0.3406  0.1154  0.0805
 5507ntf    on525900   4.384   0.851   2.481  0.4233 -0.5990 -0.1361
 5507ntf    on525901   4.006   0.780   2.370 -0.0900 -0.3524 -0.1438
 5507ntf    on525902   4.203   0.629   2.359  0.1007 -0.1162  0.4769
 5507ntf    fn425903   4.187   0.641   2.082 -0.0353  0.1236 -0.2526
 5507ntf    fn425904   3.978   0.663   2.133  0.0419  0.2275  0.0217
 5507ntf    fn425905   4.101   0.838   2.079 -0.7167  0.1679 -0.0501
 5508ntf    cn125906   6.404   2.143   7.122 -0.1254 -0.4693 -0.0951
 5508ntf    sn225907   6.477   1.991   7.190  0.0183 -0.2663  0.2086
 5508ntf    nn325908   6.347   1.903   7.192 -0.1039 -0.0811  0.4663
 5508ntf    sn225909   6.335   1.747   7.207  0.0638 -0.1727 -0.3065
 5508ntf    cn125910   6.343   1.677   7.040 -0.2072 -0.1220 -0.3414
 5508ntf    fn425911   6.318   2.194   7.208 -0.0483 -0.1045 -0.2339
 5508ntf    fn425912   6.492   2.240   7.102 -0.7814  0.1935  0.1676
 5508ntf    fn425913   6.348   2.125   7.004  0.3192 -0.5018 -0.3032
 5508ntf    on525914   6.576   1.948   7.095  0.1109  0.1880  0.0970
 5508ntf    on525915   6.525   2.044   7.315  0.5393 -0.1130 -0.0526
 5508ntf    on525916   6.204   1.718   7.258 -0.0631  0.2763 -0.3747
 5508ntf    on525917   6.448   1.691   7.277 -0.0216  0.7151  0.5710
 5508ntf    fn425918   6.452   1.723   6.980  0.1710 -0.2662  0.2280
 5508ntf    fn425919   6.340   1.545   7.038 -0.1108 -0.1465  0.6738
 5508ntf    fn425920   6.235   1.722   6.979 -0.3998 -0.1364 -0.0140
 5509ntf    cn125921   2.259   2.651   2.433  0.3273 -0.5001 -0.3134
 5509ntf    sn225922   2.198   2.481   2.455  0.2383 -0.4260  0.0311
 5509ntf    nn325923   2.327   2.405   2.502  0.7936  0.4758 -0.0237
 5509ntf    sn225924   2.344   2.345   2.646 -0.0673 -0.0402 -0.1312
 5509ntf    cn125925   2.516   2.293   2.620  0.0051  0.1673 -0.0677
 5509ntf    fn425926   2.270   2.718   2.547  0.1642 -0.7260 -0.1639
 5509ntf    fn425927   2.378   2.651   2.376  0.2998 -0.3352 -0.3696
 5509ntf    fn425928   2.178   2.727   2.362  0.1552 -0.8169 -0.4582
 5509ntf    on525929   2.092   2.490   2.552 -0.2677 -0.2181 -0.5315
 5509ntf    on525930   2.166   2.432   2.323 -0.3917 -0.3008  0.1336
 5509ntf    on525931   2.271   2.225   2.677  0.3034 -0.2545 -0.0834
 5509ntf    on525932   2.361   2.443   2.751  0.0103 -0.0044 -0.1771
 5509ntf    fn425933   2.597   2.293   2.725  0.1633 -0.5573 -0.1882
 5509ntf    fn425934   2.516   2.172   2.567 -0.4381 -0.3338  1.0393
 5509ntf    fn425935   2.565   2.382   2.535  0.0157  0.3892  0.1663
 5510ntf    cn125936   4.264   4.597   2.379 -0.1739  0.1120 -0.2216
 5510ntf    sn225937   4.120   4.697   2.331 -0.0508  0.3409 -0.1171
 5510ntf    nn325938   4.185   4.792   2.224  0.1571 -0.0534 -0.3426
 5510ntf    sn225939   4.135   4.932   2.174 -0.0606 -0.0971 -0.2515
 5510ntf    cn125940   4.257   5.043   2.249 -0.1225 -0.2585  0.0914
 5510ntf    fn425941   4.237   4.488   2.450  0.0881  0.2209  0.0474
 5510ntf    fn425942   4.351   4.571   2.283 -0.1159 -0.0957 -0.1153
 5510ntf    fn425943   4.339   4.665   2.465 -0.4206  0.3014 -0.1552
 5510ntf    on525944   4.039   4.599   2.262 -0.0273  0.4742 -0.3347
 5510ntf    on525945   4.086   4.744   2.463 -0.0644 -0.3083  0.1174
 5510ntf    on525946   4.018   4.991   2.234  0.1540  0.5590 -0.4779
 5510ntf    on525947   4.159   4.957   2.034  0.1315 -0.0972 -0.2185
 5510ntf    fn425948   4.264   5.023   2.380  0.2639 -0.1953  0.0809
 5510ntf    fn425949   4.382   5.030   2.208  0.2305  0.8703  0.7385
 5510ntf    fn425950   4.235   5.173   2.240  0.2431 -0.1527  0.6507
 5511ntf    cn125951   4.398   2.136   1.452 -0.3263 -0.0584 -0.4562
 5511ntf    sn225952   4.356   2.309   1.490 -0.3574 -0.1663  0.0076
 5511ntf    nn325953   4.420   2.333   1.631 -0.2275  0.2477 -0.1202
 5511ntf    sn225954   4.574   2.357   1.652 -0.1897  0.2188 -0.3595
 5511ntf    cn125955   4.572   2.537   1.626  0.2367  0.2403 -0.2488
 5511ntf    fn425956   4.366   2.065   1.559  0.1186  0.0024 -0.2818
 5511ntf    fn425957   4.335   2.091   1.345 -0.6644 -0.0535 -0.2594
 5511ntf    fn425958   4.528   2.112   1.444 -0.3773 -0.3383 -0.4493
 5511ntf    on525959   4.403   2.385   1.377  0.1841  0.4654  0.6490
 5511ntf    on525960   4.212   2.310   1.499 -0.3118  0.0761  0.7686
 5511ntf    on525961   4.670   2.311   1.555 -0.2364 -0.6699  0.0062
 5511ntf    on525962   4.612   2.340   1.790 -0.6859 -0.8935 -0.3465
 5511ntf    fn425963   4.526   2.565   1.504  0.8236  0.7252 -0.3617
 5511ntf    fn425964   4.495   2.613   1.701  0.2649  0.2617 -0.2414
 5511ntf    fn425965   4.693   2.590   1.620  0.3614  0.0668  0.6470
 5512ntf    cn125966   6.846   7.322   2.660 -0.0897  0.0823  0.1256
 5512ntf    sn225967   6.756   7.468   2.601 -0.0728  0.1061  0.1583
 5512ntf    nn325968   6.776   7.454   2.446  0.5829  0.6039  0.1933
 5512ntf    sn225969   6.749   7.568   2.341 -0.0537  0.0360 -0.2671
 5512ntf    cn125970   6.912   7.644   2.315  0.1944 -0.3346  0.1889
 5512ntf    fn425971   6.812   7.221   2.581 -0.0826  0.0953  0.1052
 5512ntf    fn425972   6.978   7.334   2.657 -0.0952  0.0275 -0.4728
 5512ntf    fn425973   6.817   7.287   2.784 -0.0691 -0.0343  0.0984
 5512ntf    on525974   6.623   7.445   2.651  0.1174 -0.4632  0.4125
 5512ntf    on525975   6.830   7.575   2.662  0.7842 -0.3081 -0.1346
 5512ntf    on525976   6.684   7.682   2.401 -0.0065  0.1997 -0.5286
 5512ntf    on525977   6.702   7.513   2.216  0.0126 -0.1507 -0.2109
 5512ntf    fn425978   6.912   7.753   2.240  0.5096 -0.3780  0.1253
 5512ntf    fn425979   6.978   7.675   2.426 -0.0427 -0.0317  0.2455
 5512ntf    fn425980   6.995   7.561   2.256  0.3576 -0.5411  0.7003
 5513ntf    cn125981   1.532   2.189   3.236  0.0958 -0.1675  0.0966
 5513ntf    sn225982   1.418   2.120   3.359 -0.0669 -0.3494 -0.1541
 5513ntf    nn325983   1.521   2.076   3.470  0.3153  0.2201 -0.2819
 5513ntf    sn225984   1.570   2.137   3.606 -0.3565 -0.1051  0.1103
 5513ntf    cn125985   1.533   2.009   3.729 -0.2633 -0.3629 -0.1292
 5513ntf    fn425986   1.472   2.270   3.150  0.5056  0.0449  0.0069
 5513ntf    fn425987   1.626   2.263   3.292  0.1893  0.1210 -0.4325
 5513ntf    fn425988   1.604   2.094   3.179  0.3442  0.0935 -0.0284
 5513ntf    on525989   1.331   2.230   3.394 -0.1013 -0.3410 -0.2659
 5513ntf    on525990   1.354   2.013   3.287  0.3421 -0.2922 -0.6100
 5513ntf    on525991   1.503   2.260   3.642 -0.3892 -0.1733  0.2855
 5513ntf    on525992   1.714   2.141   3.601 -0.3420 -0.3430  0.3012
 5513ntf    fn425993   1.595   1.896   3.702 -0.1485 -0.1685 -0.6783
 5513ntf    fn425994   1.566   2.043   3.852 -0.1828 -0.1966 -0.1976
 5513ntf    fn425995   1.404   1.981   3.740 -0.5864  0.6831 -1.1156
 5514ntf    cn125996   4.026   0.778   0.947 -0.1370  0.1557 -0.0805
 5514ntf    sn225997   3.851   0.765   0.899 -0.2548  0.2895  0.3084
 5514ntf    nn325998   3.784   0.804   1.036 -0.7518  0.5557 -0.0072
 5514ntf    sn225999   3.788   0.948   1.099 -0.1812  0.5695 -0.0657
 5514ntf    cn126000   3.626   1.019   1.056 -0.2166  0.1867 -0.5771
 5514ntf    fn426001   4.093   0.667   0.920 -0.3509  0.0604 -0.2294
 5514ntf    fn426002   4.081   0.880   0.885  0.0370 -0.3260 -0.7311
 5514ntf    fn426003   4.038   0.801   1.077  0.2805 -0.1517 -0.0640
 5514ntf    on526004   3.828   0.849   0.784 -0.2982 -0.2551 -0.0871
 5514ntf    on526005   3.830   0.625   0.870  0.0865  0.2637  0.1885
 5514ntf    on526006   3.886   1.039   1.046  0.6589  0.1695  0.7837
 5514ntf    on526007   3.773   0.942   1.242 -0.4918 -0.1152 -0.1240
 5514ntf    fn426008   3.603   1.138   1.110  0.2225  0.0107  0.0133
 5514ntf    fn426009   3.595   1.047   0.930 -0.3082  0.0358 -0.5882
 5514ntf    fn426010   3.532   0.939   1.103  0.1370  0.1261  0.0335
 5515ntf    cn126011   7.593   1.217   4.424 -0.2353  0.5879  0.3224
 5515ntf    sn226012   7.454   1.123   4.492  0.0690 -0.0633  0.0473
 5515ntf    nn326013   7.535   0.993   4.528  0.4583  0.1958  0.0977
 5515ntf    sn226014   7.542   0.855   4.454  0.0184  0.2654 -0.0721
 5515ntf    cn126015   7.716   0.806   4.474  0.0161  0.1542 -0.3182
 5515ntf    fn426016   7.548   1.314   4.346 -0.2084 -0.1348 -0.6100
 5515ntf    fn426017   7.651   1.283   4.523  0.2313  0.3478  0.2123
 5515ntf    fn426018   7.681   1.149   4.353 -0.3472  0.2809  0.4769
 5515ntf    on526019   7.429   1.205   4.608 -0.3440  0.5286 -0.4576
 5515ntf    on526020   7.351   1.109   4.392  0.1003 -0.2394  0.0383
 5515ntf    on526021   7.517   0.859   4.312 -0.3637  0.2366 -0.0069
 5515ntf    on526022   7.482   0.745   4.525 -0.3667  0.2244 -0.4518
 5515ntf    fn426023   7.790   0.894   4.409 -0.1973  0.1829 -0.5249
 5515ntf    fn426024   7.764   0.809   4.597  0.5262 -0.3129 -0.5052
 5515ntf    fn426025   7.731   0.681   4.434 -0.1411 -0.0595  0.2797
 5516ntf    cn126026   6.335   3.589   3.256 -0.2558 -0.1175 -0.0815
 5516ntf    sn226027   6.206   3.702   3.196 -0.2387 -0.1157 -0.1138
 5516ntf    nn326028   6.078   3.614   3.216  0.0533 -0.5977 -0.3339
 5516ntf    sn226029   6.004   3.580   3.351 -0.1935 -0.0179 -0.3195
 5516ntf    cn126030   5.843   3.655   3.312 -0.3180 -0.1273 -0.0187
 5516ntf    fn426031   6.312   3.545   3.378  0.3291  0.2297  0.1567
 5516ntf    fn426032   6.355   3.480   3.184 -0.5825 -0.4928  0.3924
 5516ntf    fn426033   6.453   3.650   3.255 -0.4009  0.1687  0.0612
 5516ntf    on526034   6.217   3.824   3.272 -0.5802 -0.4019  0.3973
 5516ntf    on526035   6.231   3.706   3.054 -0.3972  0.4158 -0.1307
 5516ntf    on526036   6.050   3.639   3.474 -0.1010 -0.4261 -0.1593
 5516ntf    on526037   5.980   3.438   3.348  0.1795 -0.0838 -0.1546
 5516ntf    fn426038   5.772   3.607   3.211 -0.3189 -0.0228 -0.0677
 5516ntf    fn426039   5.759   3.643   3.413  0.2478 -0.2943  0.4369
 5516ntf    fn426040   5.848   3.784   3.284  0.0291 -0.0777  0.2670
 5517ntf    cn126041   7.410   2.743   4.722  0.1595 -0.3924  0.0070
 5517ntf    sn226042   7.558   2.750   4.617  0.0665 -0.1849 -0.1113
 5517ntf    nn326043   7.654   2.851   4.690  0.0685 -0.0949 -0.2374
 5517ntf    sn226044   7.751   2.837   4.812 -0.1710  0.1719 -0.0161
 5517ntf    cn126045   7.909   2.891   4.739 -0.1599 -0.0296 -0.1388
 5517ntf    fn426046   7.313   2.679   4.660  0.2976 -0.3570 -0.2487
 5517ntf    fn426047   7.447   2.681   4.833  0.0627  0.1725  0.3614
 5517ntf    fn426048   7.370   2.862   4.763 -0.1757 -0.5628  0.1767
 5517ntf    on526049   7.606   2.615   4.595  0.1106 -0.1432 -0.2702
 5517ntf    on526050   7.493   2.814   4.506  0.2008 -0.3346 -0.2787
 5517ntf    on526051   7.780   2.703   4.858  0.3545  0.1249 -0.4759
 5517ntf    on526052   7.744   2.939   4.914  0.1692  0.3796 -0.1991
 5517ntf    fn426053   7.918   3.022   4.732 -0.1391 -0.0192  0.0896
 5517ntf    fn426054   8.010   2.850   4.813 -0.0168 -0.0823 -0.3604
 5517ntf    fn426055   7.929   2.842   4.617  0.2684  0.2372 -0.1744
 5518ntf    cn126056   3.375   7.176   6.348 -0.3552 -0.4279  0.5331
 5518ntf    sn226057   3.340   7.347   6.399 -0.2066 -0.2867  0.1639
 5518ntf    nn326058   3.383   7.426   6.270 -0.3690  0.2445  0.4298
 5518ntf    sn226059   3.293   7.455   6.145  0.1369  0.1353  0.0354
 5518ntf    cn126060   3.428   7.486   6.028 -0.0301  0.1512 -0.1545
 5518ntf    fn426061   3.342   7.094   6.446 -0.6010 -0.2143  0.6328
 5518ntf    fn426062   3.307   7.134   6.242 -0.0047 -0.0914  0.1707
 5518ntf    fn426063   3.503   7.155   6.325 -0.2152  0.5619  0.3594
 5518ntf    on526064   3.202   7.355   6.440 -0.2078  0.2127  0.0727
 5518ntf    on526065   3.436   7.368   6.504 -0.2352  0.6179  0.0191
 5518ntf    on526066   3.227   7.583   6.157  0.2165  0.2649 -0.8354
 5518ntf    on526067   3.217   7.342   6.097 -0.3142  0.6692 -0.5280
 5518ntf    fn426068   3.492   7.372   6.005 -0.4507 -0.0581 -0.2906
 5518ntf    fn426069   3.368   7.523   5.916  0.0350  0.5418 -0.0618
 5518ntf    fn426070   3.508   7.588   6.059  0.4408 -0.2256 -0.1160
 5519ntf    cn126071   0.390   2.733   5.624 -0.4858  0.3835 -0.0456
 5519ntf    sn226072   0.249   2.652   5.704  0.0401 -0.1982  0.3098
 5519ntf    nn326073   0.321   2.529   5.769  0.2115 -0.4685 -0.3839
 5519ntf    sn226074   0.364   2.507   5.918 -0.2108 -0.0139 -0.1929
 5519ntf    cn126075   0.208   2.473   6.004  0.0143 -0.4677  0.0420
 5519ntf    fn426076   0.441   2.669   5.519 -0.9572 -0.5992  0.3120
 5519ntf    fn426077   0.361   2.853   5.578  0.2981  0.1939 -1.0918
 5519ntf    fn426078   0.487   2.742   5.714 -0.2181 -0.1209 -0.2739
 5519ntf    on526079   0.198   2.751   5.796 -0.6122 -0.3632  0.1331
 5519ntf    on526080   0.156   2.616   5.599  0.2189 -0.2237  0.1607
 5519ntf    on526081   0.430   2.625   5.970 -0.5202  0.0029  0.1659
 5519ntf    on526082   0.436   2.383   5.934 -0.0911  0.0102 -0.5539
 5519ntf    fn426083   0.122   2.572   5.987  0.8176  0.1785 -0.3216
 5519ntf    fn426084   0.147   2.372   5.945 -0.3232 -0.0300 -0.3735
 5519ntf    fn426085   0.223   2.454   6.134 -0.0586  0.7415  0.2452
 5520ntf    cn126086   1.518   5.703   1.931 -0.1497  0.5808  0.6389
 5520ntf    sn226087   1.671   5.755   1.849 -0.1505  0.1803  0.3848
 5520ntf    nn326088   1.645   5.722   1.697 -0.1363  0.7311  0.2603
 5520ntf    sn226089   1.692   5.786   1.562 -0.0271 -0.4370 -0.2703
 5520ntf    cn126090   1.546   5.891   1.537  0.2799  0.1803  0.4566
 5520ntf    fn426091   1.494   5.575   1.910  0.4732  0.5415  0.1558
 5520ntf    fn426092   1.521   5.723   2.062  0.0882  0.5793  0.6327
 5520ntf    fn426093   1.410   5.762   1.883  0.0958  0.4900 -0.0292
 5520ntf    on526094   1.674   5.898   1.863  0.1764  0.1931  0.2161
 5520ntf    on526095   1.774   5.679   1.916  0.0344 -0.4623 -0.6031
 5520ntf    on526096   1.689   5.696   1.450  0.4088  0.0295 -0.6632
 5520ntf    on526097   1.807   5.874   1.567  0.6520 -1.3315  0.0239
 5520ntf    fn426098   1.554   6.007   1.600  0.2716  0.3805  0.0954
 5520ntf    fn426099   1.532   5.903   1.406 -0.2964 -0.3096  0.4639
 5520ntf    fn426100   1.431   5.832   1.566  0.0058  0.4067 -0.1434
 5521ntf    cn126101   4.916   1.233   5.898 -0.2758 -0.1254 -0.8442
 5521ntf    sn226102   5.064   1.128   5.885 -0.2956 -0.2514 -0.1300
 5521ntf    nn326103   5.180   1.231   5.861 -0.1504 -0.4191 -0.1499
 5521ntf    sn226104   5.268   1.258   5.734  0.0506  0.1633  0.1103
 5521ntf    cn126105   5.432   1.218   5.801 -0.0299 -0.0616  0.1754
 5521ntf    fn426106   4.888   1.289   5.782 -0.1525  0.5872 -0.5325
 5521ntf    fn426107   4.811   1.169   5.947 -0.2403 -0.0745 -0.7002
 5521ntf    fn426108   4.947   1.335   5.976 -0.0624 -0.8291  0.0210
 5521ntf    on526109   5.083   1.085   6.021  0.3766  0.2678 -0.0536
 5521ntf    on526110   5.031   1.029   5.785 -0.0646  0.1016 -0.5571
 5521ntf    on526111   5.288   1.396   5.697 -0.4778  0.4143  0.7639
 5521ntf    on526112   5.243   1.160   5.631  0.2876  0.3659 -0.1423
 5521ntf    fn426113   5.501   1.301   5.879  0.1448 -0.3285  0.3097
 5521ntf    fn426114   5.423   1.102   5.864 -0.4874  0.0399  0.3000
 5521ntf    fn426115   5.517   1.207   5.700 -0.0395 -0.2112  0.1838
 5522ntf    cn126116   5.472   3.321   0.588 -0.0987 -0.1929  0.1599
 5522ntf    sn226117   5.535   3.485   0.632 -0.2375 -0.0522 -0.1611
 5522ntf    nn326118   5.550   3.480   0.788 -0.3286 -0.3559 -0.1624
 5522ntf    sn226119   5.675   3.493   0.883 -0.2147 -0.2325 -0.3295
 5522ntf    cn126120   5.674   3.329   0.961  0.1632  0.1067  0.3898
 5522ntf    fn426121   5.478   3.294   0.458 -0.0930  0.6123 -0.0119
 5522ntf    fn426122   5.544   3.231   0.653  0.0337 -0.1095  0.1300
 5522ntf    fn426123   5.348   3.301   0.629  0.0171  0.0938  0.6536
 5522ntf    on526124   5.662   3.489   0.565  0.2095  0.2043  0.6856
 5522ntf    on526125   5.430   3.571   0.583 -0.0308  0.1685 -0.2211
 5522ntf    on526126   5.651   3.587   0.989  0.1943 -0.8084  0.2837
 5522ntf    on526127   5.803   3.512   0.819 -0.3623  0.2481 -0.4920
 5522ntf    fn426128   5.733   3.240   0.884 -0.1737 -0.2406  0.5334
 5522ntf    fn426129   5.755   3.334   1.066  0.4355  0.5931  0.1630
 5522ntf    fn426130   5.555   3.282   0.994  0.2508 -0.3155  0.1018
 5523ntf    cn126131   7.325   1.820   6.073 -0.3911  0.0247 -0.1121
 5523ntf    sn226132   7.248   1.867   6.231  0.2132  0.3179  0.0984
 5523ntf    nn326133   7.099   1.826   6.206  0.2589 -0.2745  0.7939
 5523ntf    sn226134   7.008   1.713   6.267 -0.2363 -0.1771  0.2441
 5523ntf    cn126135   6.996   1.603   6.123  0.0011  0.1156 -0.0009
 5523ntf    fn426136   7.457   1.828   6.070 -0.3888  0.0120 -0.0218
 5523ntf    fn426137   7.311   1.693   6.038  0.3387 -0.1849  0.3384
 5523ntf    fn426138   7.273   1.886   5.971  0.2209  0.6719 -0.0130
 5523ntf    on526139   7.322   1.792   6.329  0.2593  0.2904  0.0431
 5523ntf    on526140   7.264   2.010   6.248  0.0905  0.3172  0.2182
 5523ntf    on526141   6.873   1.758   6.292  0.1082  1.1891 -0.2589
 5523ntf    on526142   7.072   1.629   6.364  0.0988 -0.3476 -0.1209
 5523ntf    fn426143   7.115   1.559   6.085 -0.2691 -0.4191 -0.2357
 5523ntf    fn426144   6.919   1.497   6.145  0.2648 -0.0830 -0.0243
 5523ntf    fn426145   6.934   1.661   6.021 -0.0119 -0.3708 -0.2757
 5524ntf    cn126146   1.829   2.104   0.511 -0.3548  0.4819 -0.0113
 5524ntf    sn226147   1.861   2.215   0.371 -0.0435 -0.0237 -0.3439
 5524ntf    nn326148   1.712   2.249   0.333 -0.0898 -0.0682 -0.2030
 5524ntf    sn226149   1.623   2.357   0.404 -0.1592 -0.3307  0.1111
 5524ntf    cn126150   1.479   2.251   0.433 -0.0144 -0.3098  0.9213
 5524ntf    fn426151   1.920   2.010   0.530 -0.4910  0.4558  0.5355
 5524ntf    fn426152   1.828   2.179   0.620 -0.2952  0.0811  0.2655
 5524ntf    fn426153   1.710   2.047   0.505 -0.1146  0.0257 -0.5304
 5524ntf    on526154   1.940   2.323   0.423 -0.7395  0.3041  0.0498
 5524ntf    on526155   1.929   2.132   0.275  0.0654 -0.4364  0.0943
 5524ntf    on526156   1.583   2.458   0.309  0.4010  0.1440  0.3669
 5524ntf    on526157   1.659   2.407   0.534 -0.2134 -0.1768  0.0680
 5524ntf    fn426158   1.392   2.264   0.334  0.2760  0.0700  0.7159
 5524ntf    fn426159   1.499   2.120   0.434 -0.6958 -0.4226  0.5666
 5524ntf    fn426160   1.414   2.285   0.543  0.0267  0.2353  0.7796
 5525ntf    cn126161   2.516   6.580   4.941 -0.0861  0.3280 -0.1535
 5525ntf    sn226162   2.689   6.621   4.979  0.0054 -0.1495 -0.0428
 5525ntf    nn326163   2.740   6.490   5.049  0.2894  0.1393  0.2896
 5525ntf    sn226164   2.843   6.380   5.004 -0.1278 -0.2942  0.3929
 5525ntf    cn126165   2.726   6.256   4.940 -0.0850 -0.0030 -0.2560
 5525ntf    fn426166   2.446   6.684   4.901 -0.6729 -0.0710 -0.1748
 5525ntf    fn426167   2.511   6.492   4.842  0.0163  0.4615 -0.2768
 5525ntf    fn426168   2.455   6.530   5.047  0.0405  0.0545 -0.2081
 5525ntf    on526169   2.746   6.659   4.852 -0.3258 -0.3750 -0.2594
 5525ntf    on526170   2.679   6.733   5.068 -0.1952  0.6700 -1.0733
 5525ntf    on526171   2.908   6.330   5.122  0.2426 -0.2682  0.1992
 5525ntf    on526172   2.923   6.398   4.885 -0.2853 -0.0144  0.3276
 5525ntf    fn426173   2.793   6.149   4.899 -0.0523  0.0126 -0.2436
 5525ntf    fn426174   2.645   6.228   5.040  0.1902  1.3907  0.3786
 5525ntf    fn426175   2.657   6.299   4.835 -0.0702 -0.3764 -0.4217
 5526ntf    cn126176   0.641   1.460   6.214  0.5388  0.5352 -0.0494
 5526ntf    sn226177   0.719   1.481   6.377 -0.1914 -0.3217  0.4190
 5526ntf    nn326178   0.776   1.623   6.345 -0.4753 -0.1876  0.5081
 5526ntf    sn226179   0.918   1.670   6.393 -0.5176  0.4289  0.0389
 5526ntf    cn126180   1.024   1.649   6.247 -0.1280 -0.1392  0.4009
 5526ntf    fn426181   0.551   1.554   6.191 -0.1338 -0.2735 -0.7676
 5526ntf    fn426182   0.723   1.468   6.111  0.6549  0.0044  0.0003
 5526ntf    fn426183   0.563   1.354   6.200  0.1392  0.7246  0.6748
 5526ntf    on526184   0.609   1.477   6.471 -0.0332  0.3171  0.6341
 5526ntf    on526185   0.809   1.369   6.390  0.1744 -0.0133  0.5399
 5526ntf    on526186   0.981   1.597   6.500 -0.3479 -0.1230 -0.4355
 5526ntf    on526187   0.915   1.813   6.411  0.4619  0.4126  0.4059
 5526ntf    fn426188   1.037   1.521   6.218  0.5561  0.1273 -0.5190
 5526ntf    fn426189   0.973   1.720   6.148 -0.9090 -0.4165  0.6036
 5526ntf    fn426190   1.151   1.682   6.265 -0.0304 -0.2898  0.0003
 5527ntf    cn126191   1.990   4.569   4.671  0.4246  0.0469  0.1030
 5527ntf    sn226192   1.850   4.592   4.557  0.2248 -0.0060  0.3383
 5527ntf    nn326193   1.797   4.445   4.570 -0.0254  0.0415 -0.1384
 5527ntf    sn226194   1.667   4.389   4.637  0.1240  0.1378  0.2386
 5527ntf    cn126195   1.575   4.374   4.481  0.1389  0.1490  0.2282
 5527ntf    fn426196   2.080   4.665   4.662  0.5493 -0.0948 -0.1788
 5527ntf    fn426197   1.947   4.544   4.793 -0.8840  0.1524 -0.3230
 5527ntf    fn426198   2.053   4.458   4.635 -0.0027 -0.3644  0.6099
 5527ntf    on526199   1.775   4.707   4.602  0.7191  0.3123  0.3612
 5527ntf    on526200   1.912   4.615   4.429  0.7246  0.0060  0.5766
 5527ntf    on526201   1.592   4.486   4.713 -0.5613 -0.0728 -0.1580
 5527ntf    on526202   1.667   4.253   4.684  0.1760 -0.2001 -0.7036
 5527ntf    fn426203   1.614   4.285   4.390  0.3518  0.2386  0.2322
 5527ntf    fn426204   1.449   4.353   4.517  0.2890 -0.5545  0.3645
 5527ntf    fn426205   1.560   4.489   4.417  0.6077 -0.3409 -0.7885
 5528ntf    cn126206   4.036   3.412   2.350  0.3235 -0.0347  0.4952
 5528ntf    sn226207   3.981   3.298   2.480 -0.4598 -0.0303  0.1710
 5528ntf    nn326208   3.962   3.385   2.609 -0.2509 -0.0953  0.2454
 5528ntf    sn226209   3.838   3.470   2.655 -0.1094  0.2324  0.0233
 5528ntf    cn126210   3.919   3.632   2.654 -0.0851  0.2190 -0.2663
 5528ntf    fn426211   4.156   3.457   2.385  0.5128  0.0353 -0.2256
 5528ntf    fn426212   4.053   3.357   2.230  0.1277  0.2086  0.3565
 5528ntf    fn426213   3.956   3.514   2.327 -0.0554 -0.4432 -0.0237
 5528ntf    on526214   3.866   3.230   2.426 -0.3383 -0.2448  0.1791
 5528ntf    on526215   4.096   3.217   2.513 -0.8118 -0.6008  0.0047
 5528ntf    on526216   3.791   3.440   2.788  0.0063 -0.0711 -0.0034
 5528ntf    on526217   3.736   3.489   2.555 -0.3185 -0.1921  0.1530
 5528ntf    fn426218   3.941   3.680   2.532  0.2443  0.2958 -0.1803
 5528ntf    fn426219   3.846   3.728   2.708 -0.2946 -0.1902  0.1794
 5528ntf    fn426220   4.037   3.631   2.714  0.0131  0.6492 -0.4423
 5529ntf    cn126221   4.567   3.431   2.372 -0.6782  0.2734  0.2044
 5529ntf    sn226222   4.628   3.581   2.455  0.2725  0.0813 -0.1351
 5529ntf    nn326223   4.597   3.689   2.347  0.0906  0.1185 -0.0452
 5529ntf    sn226224   4.697   3.756   2.246 -0.0205 -0.1094 -0.3098
 5529ntf    cn126225   4.593   3.883   2.168 -0.0876  0.0209 -0.0100
 5529ntf    fn426226   4.455   3.448   2.303 -0.6418  0.1195  0.1075
 5529ntf    fn426227   4.653   3.379   2.285  0.0215  1.0246  0.4293
 5529ntf    fn426228   4.537   3.341   2.464 -0.1743 -0.4314 -0.3053
 5529ntf    on526229   4.549   3.592   2.575  0.0830  0.6119 -0.3092
 5529ntf    on526230   4.768   3.556   2.484  0.3035  0.4370  0.0269
 5529ntf    on526231   4.726   3.674   2.131  0.7942  0.4083 -0.4838
 5529ntf    on526232   4.811   3.825   2.302  0.3512 -0.2987 -0.8318
 5529ntf    fn426233   4.542   3.972   2.252  0.2661  0.6500 -0.4586
 5529ntf    fn426234   4.665   3.949   2.079  0.3274 -0.1692  0.1816
 5529ntf    fn426235   4.486   3.837   2.106  0.0031  0.2503 -0.3378
 5530ntf    cn126236   5.383   3.831   4.790 -0.1397 -0.2810 -0.1403
 5530ntf    sn226237   5.401   3.867   4.613 -0.2114  0.1535 -0.0605
 5530ntf    nn326238   5.293   3.978   4.587  0.1134  0.5385  0.2357
 5530ntf    sn226239   5.192   4.008   4.471  0.2055 -0.3120 -0.0691
 5530ntf    cn126240   5.041   3.946   4.551 -0.0782  0.3608 -0.0755
 5530ntf    fn426241   5.484   3.754   4.830  0.0119 -0.1064 -0.1841
 5530ntf    fn426242   5.375   3.940   4.865  0.1045  0.2539 -0.8879
 5530ntf    fn426243   5.274   3.759   4.813  0.0495 -0.4277  0.3222
 5530ntf    on526244   5.532   3.923   4.590 -0.1539  0.0425 -0.0006
 5530ntf    on526245   5.376   3.740   4.550  0.5961 -0.1004  0.1192
 5530ntf    on526246   5.204   3.933   4.348 -0.0047  0.2591 -0.4437
 5530ntf    on526247   5.175   4.149   4.444  0.0038 -0.3461 -0.1226
 5530ntf    fn426248   5.004   3.999   4.666 -0.4892  0.0333 -0.0549
 5530ntf    fn426249   4.941   3.950   4.465 -0.0052 -0.4359 -0.2079
 5530ntf    fn426250   5.061   3.818   4.575 -0.0730  0.3006 -0.4030
 5531ntf    cn126251   2.258   2.429   0.783 -0.5368  0.1745 -0.0923
 5531ntf    sn226252   2.293   2.468   0.957  0.1215  0.2605 -0.2428
 5531ntf    nn326253   2.449   2.474   0.972  0.1252 -0.1225 -0.1317
 5531ntf    sn226254   2.549   2.364   1.024  0.1331 -0.1011 -0.1027
 5531ntf    cn126255   2.625   2.324   0.864 -0.1499 -0.2058 -0.2099
 5531ntf    fn426256   2.299   2.306   0.755 -0.7142  0.1044 -0.0471
 5531ntf    fn426257   2.129   2.431   0.753 -0.5846  0.0952  0.1023
 5531ntf    fn426258   2.329   2.498   0.696  0.4192 -0.3303  0.2708
 5531ntf    on526259   2.231   2.598   0.969  0.5109  0.3554  0.8439
 5531ntf    on526260   2.230   2.362   1.030  0.4508 -0.0397 -0.3928
 5531ntf    on526261   2.488   2.243   1.073 -0.4310  0.0776 -0.3554
 5531ntf    on526262   2.652   2.429   1.102 -0.4404  0.1261  0.4776
 5531ntf    fn426263   2.691   2.429   0.820  0.3324 -0.3847  0.0892
 5531ntf    fn426264   2.711   2.224   0.867 -0.3392 -0.3602  0.1235
 5531ntf    fn426265   2.531   2.296   0.775 -0.1282 -0.0103 -0.2943
 5532ntf    cn126266   5.668   5.106   3.657  0.3325 -0.1921  0.0131
 5532ntf    sn226267   5.525   4.996   3.635  0.2242  0.0222 -0.3585
 5532ntf    nn326268   5.452   5.012   3.773  0.0776  0.2080 -0.4557
 5532ntf    sn226269   5.299   5.031   3.804  0.2121  0.4968  0.0518
 5532ntf    cn126270   5.281   5.196   3.730 -0.0291  0.4515  0.0089
 5532ntf    fn426271   5.739   5.065   3.761 -0.1715 -0.1734  0.3644
 5532ntf    fn426272   5.747   5.113   3.550  0.4539 -0.1418  0.1059
 5532ntf    fn426273   5.628   5.228   3.687  0.5206 -0.0518 -0.3000
 5532ntf    on526274   5.462   5.061   3.522  0.1302  0.2094 -0.2002
 5532ntf    on526275   5.591   4.870   3.617  0.4078 -0.0769  0.9022
 5532ntf    on526276   5.269   5.047   3.944 -0.0240 -0.4177  0.1091
 5532ntf    on526277   5.211   4.951   3.722  0.2858  0.7526 -0.2809
 5532ntf    fn426278   5.264   5.196   3.598  0.3433  0.3740 -0.0401
 5532ntf    fn426279   5.182   5.265   3.785 -0.2919  0.2459 -0.2049
 5532ntf    fn426280   5.384   5.273   3.761  0.6118 -0.2380 -0.3976
 5533ntf    cn126281   0.688   3.804   1.880  0.0605 -0.0420 -0.1296
 5533ntf    sn226282   0.625   3.948   1.972 -0.2935 -0.3652  0.1386
 5533ntf    nn326283   0.691   3.919   2.112 -0.2647 -0.1698  0.1659
 5533ntf    sn226284   0.732   4.024   2.221  0.1152 -0.0426 -0.1011
 5533ntf    cn126285   0.567   4.047   2.292  0.2077  0.2243  0.0293
 5533ntf    fn426286   0.675   3.805   1.749 -0.5120 -0.4585 -0.0820
 5533ntf    fn426287   0.819   3.789   1.890 -0.0069 -0.7226 -0.2285
 5533ntf    fn426288   0.641   3.686   1.917  0.2013  0.0205  0.2581
 5533ntf    on526289   0.674   4.062   1.898 -0.7360 -0.5868 -0.4976
 5533ntf    on526290   0.484   3.921   1.960 -0.3484 -0.1137  0.2229
 5533ntf    on526291   0.781   4.150   2.170  0.1580  0.0036  0.0554
 5533ntf    on526292   0.802   3.948   2.322 -0.3165 -0.7700 -0.3387
 5533ntf    fn426293   0.506   4.150   2.236 -0.2715 -0.0192  0.0994
 5533ntf    fn426294   0.487   3.941   2.287  0.5459 -0.0490  0.3427
 5533ntf    fn426295   0.576   4.071   2.422  0.1633  0.1900  0.0388
 5534ntf    cn126296   4.352   0.610   4.858  0.2250 -0.3855  0.0250
 5534ntf    sn226297   4.345   0.559   5.032  0.1697  0.2408  0.2061
 5534ntf    nn326298   4.446   0.662   5.094  0.3216  0.0940  0.2030
 5534ntf    sn226299   4.566   0.646   5.194  0.1715 -0.0451  0.3610
 5534ntf    cn126300   4.595   0.821   5.237  0.2637  0.0440 -0.0651
 5534ntf    fn426301   4.321   0.738   4.851  0.3323 -0.3824 -0.4417
 5534ntf    fn426302   4.476   0.607   4.810  0.3839  0.0611  0.4030
 5534ntf    fn426303   4.266   0.542   4.784 -0.5324  0.1217  0.4275
 5534ntf    on526304   4.214   0.588   5.086 -0.2051  0.7384 -0.9504
 5534ntf    on526305   4.387   0.422   5.022 -0.6603  0.0531 -0.9208
 5534ntf    on526306   4.691   0.613   5.131  0.0323  0.5462 -0.2393
 5534ntf    on526307   4.524   0.584   5.318 -0.5604  0.0630  0.1698
 5534ntf    fn426308   4.699   0.842   5.316 -0.3103  0.2384  0.6495
 5534ntf    fn426309   4.619   0.887   5.125 -0.1374 -0.9739 -0.7751
 5534ntf    fn426310   4.494   0.886   5.291  0.4393 -0.1664  0.5296
 5535ntf    cn126311   6.424   0.055   6.733  0.4025  0.0490 -0.0451
 5535ntf    sn226312   6.526  -0.091   6.767  0.3539  0.0263  0.0043
 5535ntf    nn326313   6.609  -0.042   6.891 -0.4529  1.0189  0.1640
 5535ntf    sn226314   6.579  -0.050   7.045 -0.0787 -0.1561  0.1880
 5535ntf    cn126315   6.730  -0.127   7.110  0.0213 -0.3200 -0.2391
 5535ntf    fn426316   6.503   0.154   6.691 -0.0258  0.6574  0.5560
 5535ntf    fn426317   6.338   0.044   6.634  0.5516 -0.0772 -0.1595
 5535ntf    fn426318   6.350   0.093   6.836 -0.0283 -0.8631 -0.0153
 5535ntf    on526319   6.419  -0.184   6.792  0.3308  0.1710  0.4507
 5535ntf    on526320   6.604  -0.111   6.647  0.1914  0.2148 -0.1333
 5535ntf    on526321   6.474  -0.140   7.087 -0.4889  0.2902  0.1258
 5535ntf    on526322   6.579   0.080   7.106 -0.9927 -0.2720  0.4547
 5535ntf    fn426323   6.832  -0.043   7.116  0.2347 -0.5754 -0.2497
 5535ntf    fn426324   6.710  -0.171   7.233 -1.0904  0.4947 -0.1210
 5535ntf    fn426325   6.781  -0.229   7.042  0.0800 -0.4621  0.0158
 5536ntf    cn126326   0.296   0.631   2.249  0.5010  0.0847  0.8763
 5536ntf    sn226327   0.140   0.667   2.336 -0.0926 -0.2256 -0.0519
 5536ntf    nn326328   0.204   0.672   2.479 -0.5253  0.4831  0.1197
 5536ntf    sn226329   0.133   0.610   2.605 -0.4539  0.1692  0.0062
 5536ntf    cn126330   0.253   0.485   2.659 -0.3220  0.2994  0.0163
 5536ntf    fn426331   0.331   0.504   2.259 -0.1589 -0.1595  0.1824
 5536ntf    fn426332   0.283   0.656   2.120 -0.0986  0.5454  1.0216
 5536ntf    fn426333   0.398   0.703   2.295  0.8425 -0.0183  0.2886
 5536ntf    on526334   0.092   0.791   2.280 -0.1322 -0.4825 -0.6005
 5536ntf    on526335   0.065   0.548   2.304  0.4563 -0.5979  0.0258
 5536ntf    on526336   0.003   0.550   2.584 -0.5005  0.3304 -0.1723
 5536ntf    on526337   0.142   0.706   2.712  0.2143  0.2299 -0.1015
 5536ntf    fn426338   0.378   0.526   2.650 -0.2497  0.1411  0.2791
 5536ntf    fn426339   0.241   0.440   2.783 -0.4789  0.4172  0.0447
 5536ntf    fn426340   0.243   0.376   2.583  0.6645  0.0479  0.2317
 5537ntf    cn126341   5.526   2.149   7.100 -0.1228 -0.2410 -0.4253
 5537ntf    sn226342   5.467   2.136   7.271  0.3351  0.3491 -0.2205
 5537ntf    nn326343   5.479   1.981   7.292 -0.1324  0.3862  0.3800
 5537ntf    sn226344   5.547   1.896   7.405  0.4030  0.1146 -0.1392
 5537ntf    cn126345   5.726   1.898   7.376  0.4296 -0.6921 -0.0563
 5537ntf    fn426346   5.653   2.112   7.090  0.1011  0.4325 -0.1094
 5537ntf    fn426347   5.466   2.052   7.032 -0.3952 -0.4758  0.1431
 5537ntf    fn426348   5.494   2.265   7.046 -0.1857 -0.1006 -0.0896
 5537ntf    on526349   5.565   2.214   7.342  0.9015 -0.4945 -0.0641
 5537ntf    on526350   5.333   2.190   7.263  0.2337  0.1391  0.0532
 5537ntf    on526351   5.522   1.754   7.412  0.4493  0.1096 -0.0799
 5537ntf    on526352   5.541   1.966   7.530 -0.1064  0.2953 -0.2628
 5537ntf    fn426353   5.799   1.869   7.482  0.0149  0.2506  0.4938
 5537ntf    fn426354   5.758   1.805   7.287  0.6707  0.1268 -0.8386
 5537ntf    fn426355   5.761   2.014   7.324 -1.0749 -0.2500 -0.1124
 5538ntf    cn126356   3.968   1.217   2.743  0.1482 -0.0746 -0.3812
 5538ntf    sn226357   3.882   1.221   2.903  0.5032 -0.2102 -0.1861
 5538ntf    nn326358   3.902   1.370   2.948 -0.3977 -0.3067  0.5682
 5538ntf    sn226359   3.801   1.482   2.988 -0.2129  0.1470 -0.2127
 5538ntf    cn126360   3.883   1.568   3.126  0.0950 -0.0089 -0.2984
 5538ntf    fn426361   4.086   1.276   2.732 -0.0085  0.3427  0.1722
 5538ntf    fn426362   3.970   1.093   2.696 -0.2344 -0.0615 -0.4304
 5538ntf    fn426363   3.903   1.293   2.656  0.2640  0.5833  0.1012
 5538ntf    on526364   3.748   1.175   2.875  0.4988 -0.3026 -0.0179
 5538ntf    on526365   3.960   1.123   2.975 -0.2221  0.1722  1.1438
 5538ntf    on526366   3.679   1.439   3.053 -0.2535  0.2947 -0.1903
 5538ntf    on526367   3.787   1.580   2.883 -0.1711  0.3274 -0.0513
 5538ntf    fn426368   3.817   1.673   3.171  0.1667  0.0792 -0.3984
 5538ntf    fn426369   3.881   1.488   3.231 -0.2990  0.5167  0.0954
 5538ntf    fn426370   4.003   1.610   3.090  0.1181  0.1961  0.0227
 5539ntf    cn126371   5.655   5.649   4.305  0.1043 -0.0684 -0.0932
 5539ntf    sn226372   5.702   5.473   4.311  0.1646 -0.0375  0.4228
 5539ntf    nn326373   5.564   5.407   4.344 -0.1624  0.3222 -0.2044
 5539ntf    sn226374   5.488   5.297   4.261  0.0550  0.0479 -0.0398
 5539ntf    cn126375   5.396   5.396   4.140 -0.3421 -0.0165  0.2058
 5539ntf    fn426376   5.759   5.725   4.278 -0.1222  0.1405 -0.3816
 5539ntf    fn426377   5.556   5.677   4.222  0.0323  0.1182  0.0557
 5539ntf    fn426378   5.618   5.689   4.426  0.1885 -0.3057  0.0127
 5539ntf    on526379   5.761   5.439   4.184 -0.6439  0.3001 -0.0506
 5539ntf    on526380   5.795   5.470   4.421  0.2305 -0.0109  0.3682
 5539ntf    on526381   5.385   5.247   4.349 -0.4671  0.1556 -0.5846
 5539ntf    on526382   5.575   5.204   4.192 -0.0338 -0.2072  0.1926
 5539ntf    fn426383   5.292   5.333   4.087 -0.2934  0.5003 -0.5204
 5539ntf    fn426384   5.358   5.505   4.205 -0.1235 -0.1050  0.4851
 5539ntf    fn426385   5.468   5.441   4.038 -0.1064  0.2489  0.4847
 5540ntf    cn126386   3.060   4.307   4.250  0.2517 -0.1078 -0.1015
 5540ntf    sn226387   2.999   4.263   4.085  0.1704  0.2664 -0.1713
 5540ntf    nn326388   2.954   4.115   4.112 -0.5147  0.5501  0.2514
 5540ntf    sn226389   2.868   4.028   4.014  0.2461 -0.2220  0.2619
 5540ntf    cn126390   2.947   3.868   4.051 -0.2508 -0.4991  0.1455
 5540ntf    fn426391   2.973   4.285   4.347 -0.0215 -0.0535 -0.3356
 5540ntf    fn426392   3.177   4.250   4.276  0.2936 -0.0751 -0.2222
 5540ntf    fn426393   3.102   4.432   4.252 -0.3196  0.0828 -0.0960
 5540ntf    on526394   2.885   4.350   4.071 -0.1909 -0.3986 -1.5624
 5540ntf    on526395   3.107   4.285   3.991 -0.3903  0.0502 -0.8786
 5540ntf    on526396   2.889   4.047   3.873 -0.0782  0.2984  0.2825
 5540ntf    on526397   2.734   4.014   4.066  0.0756  0.9925  0.1658
 5540ntf    fn426398   2.941   3.843   4.181  0.1311  0.6540  0.3980
 5540ntf    fn426399   2.891   3.772   3.981  0.4598 -0.7522 -0.0873
 5540ntf    fn426400   3.072   3.861   4.008 -0.2429 -0.0012  0.0737
 5541ntf    cn126401   5.766   0.144   2.434 -0.1640  0.1198 -0.5278
 5541ntf    sn226402   5.624   0.214   2.523  0.1563  0.1349 -0.0282
 5541ntf    nn326403   5.667   0.157   2.663 -0.3599 -0.2002 -0.0051
 5541ntf    sn226404   5.596   0.178   2.801 -0.0810 -0.2534  0.1477
 5541ntf    cn126405   5.483   0.035   2.809 -0.1053 -0.2631 -0.3346
 5541ntf    fn426406   5.790   0.210   2.321 -0.2633 -0.0249 -0.6331
 5541ntf    fn426407   5.886   0.148   2.490 -0.2921 -0.0198 -0.2445
 5541ntf    fn426408   5.744   0.022   2.389  0.5045 -0.3648  0.4200
 5541ntf    on526409   5.633   0.357   2.501 -0.6730  0.1423 -0.3492
 5541ntf    on526410   5.513   0.148   2.459  0.1006  0.8532 -0.6921
 5541ntf    on526411   5.514   0.296   2.810 -0.0209 -0.1866 -0.1586
 5541ntf    on526412   5.691   0.150   2.906  0.3076 -0.2452 -0.2001
 5541ntf    fn426413   5.465  -0.007   2.685  0.4731  0.0954 -0.5449
 5541ntf    fn426414   5.537  -0.057   2.887 -0.5801  0.0307  0.3576
 5541ntf    fn426415   5.362   0.062   2.855  0.2447  0.0262  0.4450
 5542ntf    cn126416   6.964   5.268   3.727  0.0817  0.3050  0.1894
 5542ntf    sn226417   6.975   5.171   3.574 -0.1472 -0.0079  0.3714
 5542ntf    nn326418   7.125   5.127   3.583 -0.0335  0.3564  0.2422
 5542ntf    sn226419   7.191   4.999   3.645  0.1519  0.2368 -0.1977
 5542ntf    cn126420   7.199   4.875   3.512  0.3304  0.0636 -0.0264
 5542ntf    fn426421   6.848   5.332   3.722 -0.4704 -0.5839  1.0655
 5542ntf    fn426422   6.963   5.196   3.838  0.7326  0.3101  0.2025
 5542ntf    fn426423   7.061   5.358   3.735  0.0549  0.3671 -0.1970
 5542ntf    on526424   6.874   5.069   3.591 -0.3550  0.0640 -0.4049
 5542ntf    on526425   6.956   5.276   3.477 -0.6869 -0.4206  0.0224
 5542ntf    on526426   7.112   4.927   3.742  0.0954 -0.1775 -0.5439
 5542ntf    on526427   7.330   5.030   3.669  0.1712  0.1940 -0.2532
 5542ntf    fn426428   7.085   4.839   3.454  0.2976 -0.1786  0.1814
 5542ntf    fn426429   7.280   4.903   3.412 -0.5741 -0.0799 -0.8180
 5542ntf    fn426430   7.245   4.762   3.565  0.0776  0.1446  0.3712
 5543ntf    cn126431   7.304   2.656   7.373 -0.1912  0.4827  0.0468
 5543ntf    sn226432   7.267   2.546   7.233  0.4317  0.3221  0.0084
 5543ntf    nn326433   7.113   2.519   7.239  0.5295 -0.3857 -0.5826
 5543ntf    sn226434   7.040   2.384   7.273  0.3067 -0.1717 -0.2087
 5543ntf    cn126435   6.896   2.461   7.354  0.4123 -0.3239  0.1215
 5543ntf    fn426436   7.433   2.659   7.401 -0.1404 -0.1935 -0.0936
 5543ntf    fn426437   7.281   2.784   7.345  0.0970  0.5131 -0.0493
 5543ntf    fn426438   7.248   2.630   7.490  0.1485 -0.0408  0.0934
 5543ntf    on526439   7.298   2.626   7.117 -0.1208  0.3440 -0.1246
 5543ntf    on526440   7.358   2.434   7.246  0.4511  0.2517 -0.7140
 5543ntf    on526441   7.102   2.312   7.381  0.1739 -0.0209 -0.0315
 5543ntf    on526442   6.983   2.307   7.165 -0.0180 -0.6367  0.2862
 5543ntf    fn426443   6.837   2.546   7.272  0.7465 -0.1472  0.0634
 5543ntf    fn426444   6.806   2.375   7.397 -0.5592  0.4158 -0.4019
 5543ntf    fn426445   6.932   2.526   7.464 -0.1274 -0.0179  0.1224
 5544ntf    cn126446   6.119   6.308   5.507  0.6242 -0.0780 -0.1084
 5544ntf    sn226447   6.033   6.163   5.437 -0.0276  0.3037 -0.1056
 5544ntf    nn326448   6.126   6.128   5.316  0.2694 -0.1380  0.2466
 5544ntf    sn226449   6.199   5.995   5.274 -0.1772 -0.3581  0.1580
 5544ntf    cn126450   6.372   6.042   5.303 -0.2016 -0.3842  0.3426
 5544ntf    fn426451   6.163   6.387   5.411  0.2030 -0.0013 -0.2435
 5544ntf    fn426452   6.048   6.386   5.587  0.2909 -0.5092  0.0283
 5544ntf    fn426453   6.228   6.274   5.573  0.2764 -0.3931  0.3142
 5544ntf    on526454   6.027   6.067   5.544 -0.5288  0.2791 -0.1535
 5544ntf    on526455   5.904   6.225   5.418 -0.2428 -0.0527  0.1685
 5544ntf    on526456   6.193   5.967   5.132 -0.2760  0.1070  0.0675
 5544ntf    on526457   6.183   5.888   5.369 -0.2920  0.0542  0.6091
 5544ntf    fn426458   6.391   6.042   5.434  0.5083  0.0791  0.2462
 5544ntf    fn426459   6.453   5.949   5.254  0.2125  0.1735 -0.0366
 5544ntf    fn426460   6.407   6.158   5.251  0.2452 -0.5129  0.3530
 5545ntf    cn126461   1.568   5.467   3.916  0.1454 -0.4796  0.7325
 5545ntf    sn226462   1.646   5.631   3.929  0.1193 -0.4161  0.1090
 5545ntf    nn326463   1.520   5.724   3.935  0.5799  0.2083  0.2420
 5545ntf    sn226464   1.455   5.809   3.821  0.2603 -0.2116  0.1078
 5545ntf    cn126465   1.549   5.965   3.824 -0.3159  0.1457 -0.0847
 5545ntf    fn426466   1.645   5.360   3.908 -0.1942 -0.6895  0.2060
 5545ntf    fn426467   1.484   5.439   4.015 -0.3251 -0.2322  0.4067
 5545ntf    fn426468   1.494   5.482   3.808  0.2712 -0.6876  0.6176
 5545ntf    on526469   1.711   5.624   4.058  0.2866 -0.6692  0.0121
 5545ntf    on526470   1.730   5.654   3.814  0.2973 -0.2402  0.2720
 5545ntf    on526471   1.320   5.849   3.855  0.6146  0.5799  0.6164
 5545ntf    on526472   1.475   5.765   3.685 -0.1390  0.2890 -0.1197
 5545ntf    fn426473   1.533   6.013   3.946  0.1530  0.2697 -0.0723
 5545ntf    fn426474   1.679   5.942   3.811 -0.3238  0.3413 -0.5144
 5545ntf    fn426475   1.506   6.059   3.741  0.0597 -0.0057 -0.4519
 5546ntf    cn126476   4.257   0.866   0.180 -0.4300 -0.0495  0.1441
 5546ntf    sn226477   4.230   0.717   0.080  0.2144 -0.1985  0.1853
 5546ntf    nn326478   4.376   0.662   0.092  0.3956  0.2805  0.1817
 5546ntf    sn226479   4.477   0.629  -0.024 -0.0724  0.2103 -0.2063
 5546ntf    cn126480   4.439   0.453  -0.049  0.1629  0.0611  0.4650
 5546ntf    fn426481   4.311   0.834   0.297 -0.0454 -0.3815 -0.1220
 5546ntf    fn426482   4.345   0.953   0.131 -0.7605  0.4496  0.4261
 5546ntf    fn426483   4.149   0.939   0.201 -0.4912 -0.0126 -0.2945
 5546ntf    on526484   4.136   0.640   0.159  0.2159 -0.2031  0.1826
 5546ntf    on526485   4.188   0.761  -0.050 -0.3522 -0.2822  0.3355
 5546ntf    on526486   4.613   0.613   0.021 -0.0405 -0.5324 -0.5536
 5546ntf    on526487   4.455   0.681  -0.157  0.3050 -0.1291 -0.4037
 5546ntf    fn426488   4.501   0.374   0.037  0.3331 -0.0167  0.2724
 5546ntf    fn426489   4.310   0.425  -0.037  0.0607  0.4320  0.2484
 5546ntf    fn426490   4.472   0.408  -0.169 -0.4607  0.3775  0.1683
 5547ntf    cn126491   2.967   2.575   0.320 -0.0433 -0.1087  0.1069
 5547ntf    sn226492   2.898   2.519   0.479 -0.1455  0.0988  0.1350
 5547ntf    nn326493   2.990   2.397   0.515  0.0837  0.1715 -0.2036
 5547ntf    sn226494   3.079   2.383   0.643  0.0906  0.2779 -0.1971
 5547ntf    cn126495   3.118   2.206   0.654 -0.1263  0.2408 -0.0102
 5547ntf    fn426496   2.885   2.663   0.268 -0.2313 -0.2421  0.1757
 5547ntf    fn426497   3.085   2.635   0.325 -0.0194 -0.1468  0.0008
 5547ntf    fn426498   2.974   2.480   0.228 -0.5249 -0.0677  0.0271
 5547ntf    on526499   2.902   2.638   0.560 -0.4437  0.1848  0.0250
 5547ntf    on526500   2.770   2.473   0.431  0.0583  0.4937 -0.8170
 5547ntf    on526501   3.009   2.400   0.768 -0.1691 -0.3082 -0.2593
 5547ntf    on526502   3.210   2.443   0.632  0.1886  0.1376  0.1852
 5547ntf    fn426503   3.206   2.172   0.747 -0.1470 -0.3930 -0.2158
 5547ntf    fn426504   3.004   2.152   0.693  0.3497 -0.6598  0.1549
 5547ntf    fn426505   3.164   2.143   0.547  0.4057  0.2729  0.1924
 5548ntf    cn126506   1.902   5.609   0.737 -0.4621 -0.1197 -0.1966
 5548ntf    sn226507   1.790   5.752   0.729 -0.4106 -0.0682  0.0105
 5548ntf    nn326508   1.881   5.845   0.642 -0.2417 -0.1612  0.0878
 5548ntf    sn226509   1.873   5.883   0.490  0.4339  0.2203  0.1433
 5548ntf    cn126510   2.038   5.844   0.425  0.4023  0.5609 -0.1485
 5548ntf    fn426511   1.870   5.523   0.833  0.1130 -0.2620 -0.1328
 5548ntf    fn426512   1.915   5.528   0.633  0.2383 -0.1067 -0.1217
 5548ntf    fn426513   2.024   5.638   0.778 -0.6586  0.0155  0.3028
 5548ntf    on526514   1.665   5.706   0.672 -0.2318 -0.7713  0.1784
 5548ntf    on526515   1.781   5.808   0.862  0.2065  0.6467 -0.2479
 5548ntf    on526516   1.857   6.024   0.462  0.7526  0.2501  0.1040
 5548ntf    on526517   1.795   5.794   0.407 -0.0948  0.3041  0.5473
 5548ntf    fn426518   2.128   5.930   0.470  0.3103  0.5405  0.0807
 5548ntf    fn426519   2.083   5.723   0.457  0.1757  0.4595 -0.2108
 5548ntf    fn426520   2.037   5.848   0.293  0.3063  0.3912 -0.1538
 5549ntf    cn126521   5.453   1.793   3.936 -0.4068 -0.1161 -0.0132
 5549ntf    sn226522   5.444   1.947   4.031 -0.0256 -0.0425 -0.0961
 5549ntf    nn326523   5.318   2.010   3.962  0.0377 -0.0524 -0.2206
 5549ntf    sn226524   5.180   2.024   4.037  0.2776 -0.4731  0.3083
 5549ntf    cn126525   5.099   2.106   3.896  0.0514 -0.2767  0.5519
 5549ntf    fn426526   5.504   1.809   3.815  0.1811  0.0453  0.2539
 5549ntf    fn426527   5.523   1.702   4.001  0.0832  0.4186  0.2112
 5549ntf    fn426528   5.333   1.737   3.924 -0.2664 -0.5414  0.4939
 5549ntf    on526529   5.438   1.895   4.166 -0.3172  0.3931  0.0627
 5549ntf    on526530   5.572   2.007   4.002  0.1543 -0.1265  0.5032
 5549ntf    on526531   5.178   2.119   4.145  0.2416  0.2367 -0.3014
 5549ntf    on526532   5.102   1.903   4.043  0.0680 -0.3649 -0.1636
 5549ntf    fn426533   5.158   2.221   3.870  0.1195 -0.3507  0.3772
 5549ntf    fn426534   5.116   2.039   3.783 -0.6099 -0.0275  0.2992
 5549ntf    fn426535   4.968   2.124   3.904  0.1344  0.4858  0.3193
 5550ntf    cn126536   2.871   3.990   0.744  0.3023 -0.0991 -0.3702
 5550ntf    sn226537   2.858   4.070   0.907 -0.1843  0.1322 -0.5210
 5550ntf    nn326538   2.792   3.959   0.996  0.4276  0.1396 -0.0554
 5550ntf    sn226539   2.642   3.929   1.032  0.5029  0.0645  0.1991
 5550ntf    cn126540   2.658   3.766   1.111 -0.1875 -0.2134 -0.2357
 5550ntf    fn426541   2.758   3.959   0.682  0.4242  0.3322 -0.8158
 5550ntf    fn426542   2.931   4.073   0.660 -0.2946 -0.0314 -0.7326
 5550ntf    fn426543   2.933   3.874   0.744  0.0133 -0.2667  0.7975
 5550ntf    on526544   2.993   4.102   0.944 -0.2894 -0.0286  0.0074
 5550ntf    on526545   2.775   4.185   0.879 -0.3651  0.3241  0.7491
 5550ntf    on526546   2.554   3.893   0.924 -0.2091  0.3205  0.6834
 5550ntf    on526547   2.595   4.032   1.122  0.6576  0.6808 -0.4181
 5550ntf    fn426548   2.753   3.699   1.048  0.1463 -0.3589  0.4232
 5550ntf    fn426549   2.706   3.778   1.233  0.1216 -0.2188 -0.3574
 5550ntf    fn426550   2.548   3.693   1.119 -0.0848 -0.3397  0.0396
 5551ntf    cn126551   0.722   7.318   6.971 -0.0354 -0.0670  0.2753
 5551ntf    sn226552   0.755   7.473   7.059 -0.0229  0.3767 -0.4979
 5551ntf    nn326553   0.898   7.515   7.010  0.3801 -1.0905 -0.6268
 5551ntf    sn226554   0.965   7.654   6.983 -0.5487 -0.5451 -0.1796
 5551ntf    cn126555   0.999   7.636   6.805  0.0445  0.2375 -0.1529
 5551ntf    fn426556   0.802   7.216   7.000  0.2774  0.0894 -0.0368
 5551ntf    fn426557   0.596   7.287   6.996 -0.3747  0.4146 -0.7883
 5551ntf    fn426558   0.722   7.337   6.840 -0.7575 -0.4783  0.2100
 5551ntf    on526559   0.649   7.559   7.013 -0.3565  0.0014 -0.4395
 5551ntf    on526560   0.760   7.436   7.198 -0.1356  0.0197 -0.5878
 5551ntf    on526561   1.089   7.671   7.055 -0.3831  0.3719 -0.6668
 5551ntf    on526562   0.874   7.766   6.994  0.3014  0.1011  0.4681
 5551ntf    fn426563   0.887   7.626   6.736  0.1883 -0.5382 -0.2913
 5551ntf    fn426564   1.070   7.740   6.764 -0.2077  0.2702 -0.5073
 5551ntf    fn426565   1.068   7.526   6.778 -0.0554  0.0391  0.3741
 5552ntf    cn126566   2.343   4.608   2.993 -0.3825  0.1442  0.1093
 5552ntf    sn226567   2.392   4.642   2.821 -0.1764 -0.0444  0.1307
 5552ntf    nn326568   2.523   4.727   2.840 -0.2464 -0.0084  0.4706
 5552ntf    sn226569   2.561   4.879   2.826  0.1113 -0.1572 -0.2214
 5552ntf    cn126570   2.729   4.869   2.757  0.2417 -0.1382  0.0900
 5552ntf    fn426571   2.307   4.712   3.066 -0.4632  0.0417  0.2149
 5552ntf    fn426572   2.241   4.524   2.996 -0.0327 -0.2925 -0.1612
 5552ntf    fn426573   2.450   4.553   3.048 -0.4428  0.0815  0.1636
 5552ntf    on526574   2.416   4.508   2.774 -0.2786 -0.1146  0.2778
 5552ntf    on526575   2.276   4.705   2.763 -0.3122 -0.2689  0.1583
 5552ntf    on526576   2.580   4.952   2.949 -0.3849  0.0056 -0.2429
 5552ntf    on526577   2.489   4.962   2.734 -0.4486  0.1327  0.4706
 5552ntf    fn426578   2.795   4.984   2.754 -0.4521  0.2597 -0.7237
 5552ntf    fn426579   2.814   4.784   2.812  0.0576 -0.5671 -0.2869
 5552ntf    fn426580   2.712   4.828   2.632  0.4190 -0.2250  0.0948
 5553ntf    cn126581   4.570   7.034   3.752 -0.3603  0.0550 -0.0147
 5553ntf    sn226582   4.436   6.999   3.869  0.1725 -0.1056  0.5555
 5553ntf    nn326583   4.415   7.136   3.943  0.2690  0.0903  0.2224
 5553ntf    sn226584   4.316   7.251   3.904  0.0141 -0.3018 -0.2921
 5553ntf    cn126585   4.206   7.271   4.047  0.4598 -0.7027  0.1071
 5553ntf    fn426586   4.539   7.120   3.657  0.0977  0.3106  0.0662
 5553ntf    fn426587   4.667   7.074   3.833 -0.0304  0.0223 -0.3888
 5553ntf    fn426588   4.617   6.928   3.688 -0.1704  0.3873 -0.4325
 5553ntf    on526589   4.327   6.944   3.791  0.7464 -0.4631 -0.0061
 5553ntf    on526590   4.498   6.905   3.958  0.8585 -0.2086 -0.0205
 5553ntf    on526591   4.225   7.224   3.795  0.3044 -0.6569 -0.4505
 5553ntf    on526592   4.379   7.380   3.895  0.3518 -0.4462  0.0104
 5553ntf    fn426593   4.276   7.323   4.147 -0.1888  0.7033 -0.1487
 5553ntf    fn426594   4.105   7.352   4.020  0.3600 -0.7981  0.1925
 5553ntf    fn426595   4.163   7.157   4.099 -0.5848 -0.6275 -0.5728
 5554ntf    cn126596   3.059   3.539   0.785 -0.0890  0.2875 -0.2627
 5554ntf    sn226597   3.064   3.412   0.654  0.1972  0.0057  0.0198
 5554ntf    nn326598   3.220   3.404   0.638  0.1844  0.0317 -0.1180
 5554ntf    sn226599   3.284   3.306   0.533  0.4110  0.2897 -0.2214
 5554ntf    cn126600   3.434   3.402   0.500  0.2899  0.3290 -0.6614
 5554ntf    fn426601   3.056   3.664   0.742 -0.2974  0.3398 -0.0970
 5554ntf    fn426602   2.950   3.536   0.860 -0.0575  0.0261 -0.2272
 5554ntf    fn426603   3.167   3.537   0.862 -0.1110 -0.0928 -0.2414
 5554ntf    on526604   3.005   3.300   0.722  0.2548  0.2661  0.5046
 5554ntf    on526605   2.987   3.481   0.554 -0.3605 -0.8138 -0.1234
 5554ntf    on526606   3.222   3.299   0.403 -0.2295  0.2951  0.0767
 5554ntf    on526607   3.337   3.185   0.591 -0.0819  0.1412 -0.0731
 5554ntf    fn426608   3.531   3.339   0.436  0.3898  0.0415 -0.2294
 5554ntf    fn426609   3.417   3.520   0.443 -0.5342  0.3037 -0.4699
 5554ntf    fn426610   3.489   3.440   0.614  0.0776 -0.1206 -0.4057
 5555ntf    cn126611   0.907   4.627   0.309  0.3336  0.1331 -0.2209
 5555ntf    sn226612   0.985   4.496   0.408  0.2569  0.0197 -0.3121
 5555ntf    nn326613   1.091   4.579   0.489  0.1956 -0.4734  0.2821
 5555ntf    sn226614   1.246   4.570   0.510  0.2690 -0.0276 -0.0414
 5555ntf    cn126615   1.251   4.498   0.677 -0.2401  0.3507  0.1366
 5555ntf    fn426616   0.794   4.584   0.256 -0.1084 -0.1356  0.9072
 5555ntf    fn426617   0.874   4.723   0.394 -0.1787 -0.2130 -0.0260
 5555ntf    fn426618   0.987   4.687   0.222  0.0288 -0.2789 -0.7853
 5555ntf    on526619   0.878   4.452   0.494  0.3764 -0.0073 -0.1775
 5555ntf    on526620   1.039   4.411   0.304  0.5457  0.4790 -0.5394
 5555ntf    on526621   1.302   4.701   0.527 -0.4883  0.2596  0.2865
 5555ntf    on526622   1.314   4.476   0.425 -0.7510 -0.7884 -0.0398
 5555ntf    fn426623   1.225   4.596   0.763 -0.4622  0.7231 -0.3459
 5555ntf    fn426624   1.147   4.420   0.703 -0.1684  0.0995 -0.3298
 5555ntf    fn426625   1.361   4.434   0.710 -0.5079 -0.0469  0.2632
 5556ntf    cn126626   1.926   1.784   7.158 -0.1018 -0.0079 -0.0750
 5556ntf    sn226627   2.090   1.717   7.198 -0.2070 -0.3171 -0.1523
 5556ntf    nn326628   2.184   1.843   7.194 -0.2840 -0.2435  0.2709
 5556ntf    sn226629   2.285   1.901   7.299  0.0450  0.0397 -0.2010
 5556ntf    cn126630   2.187   2.017   7.399 -0.0075  0.2379 -0.4802
 5556ntf    fn426631   1.913   1.854   7.047 -0.2812  0.2353  0.0971
 5556ntf    fn426632   1.841   1.682   7.155 -0.2627  0.1269 -0.0956
 5556ntf    fn426633   1.879   1.864   7.252 -0.4880 -0.0681 -0.2134
 5556ntf    on526634   2.078   1.655   7.328  0.7470 -0.2249 -0.0155
 5556ntf    on526635   2.117   1.619   7.096  0.4009 -0.3709  0.0541
 5556ntf    on526636   2.385   1.979   7.229  0.2234 -0.0720 -0.0691
 5556ntf    on526637   2.343   1.812   7.396  0.6733  0.5432 -0.1019
 5556ntf    fn426638   2.070   1.964   7.432 -0.0431  0.4201 -0.3145
 5556ntf    fn426639   2.251   2.049   7.510 -0.1929  0.4442 -0.4314
 5556ntf    fn426640   2.163   2.133   7.339  0.4461  0.3300 -0.4845
 5557ntf    cn126641   4.271   6.489   6.154  0.1654 -0.1904 -0.0285
 5557ntf    sn226642   4.331   6.327   6.212  0.1635 -0.0271  0.4305
 5557ntf    nn326643   4.307   6.245   6.080 -0.1741  0.2075  0.3421
 5557ntf    sn226644   4.417   6.198   5.978 -0.2738 -0.1004  0.3731
 5557ntf    cn126645   4.326   6.186   5.821  0.1382 -0.2957  0.1491
 5557ntf    fn426646   4.308   6.600   6.215  0.1378 -0.3106  0.2082
 5557ntf    fn426647   4.300   6.512   6.027 -0.1018 -0.8419 -0.2106
 5557ntf    fn426648   4.140   6.509   6.142  0.1718  0.1404  0.4451
 5557ntf    on526649   4.467   6.340   6.258  0.3873 -0.2708 -0.1480
 5557ntf    on526650   4.238   6.290   6.316 -0.7825  0.6020 -0.1698
 5557ntf    on526651   4.465   6.062   5.988 -0.5405 -0.2549 -0.3881
 5557ntf    on526652   4.516   6.299   5.950  0.3772 -0.7371  0.3493
 5557ntf    fn426653   4.211   6.121   5.819 -0.2605  0.4155 -0.0599
 5557ntf    fn426654   4.293   6.306   5.779  0.7257 -0.3208 -0.3971
 5557ntf    fn426655   4.405   6.128   5.732 -0.0502 -0.1758 -0.0943
 5558ntf    cn126656   1.765   1.330   1.921 -0.7674  0.4747 -0.3302
 5558ntf    sn226657   1.841   1.494   1.939  0.1287 -0.0004  0.2981
 5558ntf    nn326658   1.993   1.457   1.950  0.2307  0.2261 -0.2745
 5558ntf    sn226659   2.107   1.477   1.845  0.0237 -0.0586 -0.5555
 5558ntf    cn126660   2.188   1.317   1.875  0.0782 -0.0017 -0.4018
 5558ntf    fn426661   1.632   1.330   1.920 -0.7922 -1.0937  0.0769
 5558ntf    fn426662   1.802   1.263   1.813  0.5662 -0.4601  0.6807
 5558ntf    fn426663   1.793   1.263   2.031  0.0980 -0.1049 -0.8931
 5558ntf    on526664   1.807   1.581   1.828  0.6991  0.5472  0.5441
 5558ntf    on526665   1.786   1.541   2.064 -0.2184  0.2126  0.0695
 5558ntf    on526666   2.211   1.565   1.892 -0.4439  0.0211  0.3351
 5558ntf    on526667   2.074   1.479   1.704  0.4930  0.0979 -0.6666
 5558ntf    fn426668   2.130   1.222   1.804  0.3573 -0.3208 -0.2057
 5558ntf    fn426669   2.314   1.320   1.836  0.2884  0.2181  0.2721
 5558ntf    fn426670   2.183   1.272   2.000 -0.2723  0.4772 -0.2383
 5559ntf    cn126671   5.575   4.122   2.849  0.2852 -0.3637  0.3899
 5559ntf    sn226672   5.610   4.121   2.670 -0.1982 -0.1619  0.2946
 5559ntf    nn326673   5.744   4.041   2.667 -0.2121 -0.1480 -0.7075
 5559ntf    sn226674   5.763   3.886   2.688  0.2746 -0.0823 -0.6531
 5559ntf    cn126675   5.787   3.826   2.518  0.2409 -0.2651 -0.5938
 5559ntf    fn426676   5.469   4.192   2.884  0.2703 -0.2095  0.0372
 5559ntf    fn426677   5.544   4.001   2.892 -0.5113 -0.0826  0.6137
 5559ntf    fn426678   5.679   4.168   2.916 -0.0516  0.5122  0.3195
 5559ntf    on526679   5.497   4.054   2.611 -0.0467 -0.0569 -0.1191
 5559ntf    on526680   5.616   4.259   2.627 -0.3700 -0.1698  0.2437
 5559ntf    on526681   5.652   3.813   2.744  0.0167  0.3820 -0.5531
 5559ntf    on526682   5.887   3.851   2.754  0.5322  0.8643 -0.6092
 5559ntf    fn426683   5.782   3.695   2.506  0.1975 -0.2594 -0.6359
 5559ntf    fn426684   5.702   3.872   2.428 -0.4475 -0.1110  0.1227
 5559ntf    fn426685   5.901   3.865   2.462  0.6399 -0.1716  0.2642
 5560ntf    cn126686   0.446   7.031   0.265  0.0209 -0.1970 -0.4983
 5560ntf    sn226687   0.353   6.877   0.289 -0.3949  0.1115 -0.1175
 5560ntf    nn326688   0.292   6.861   0.145 -0.7405  0.3199  0.0054
 5560ntf    sn226689   0.229   6.737   0.071 -0.0539  0.0442 -0.1195
 5560ntf    cn126690   0.365   6.685  -0.038  0.2621  0.8332 -0.1152
 5560ntf    fn426691   0.371   7.124   0.210  0.5479  0.1054 -0.7186
 5560ntf    fn426692   0.492   7.077   0.381 -0.0053 -0.1921 -0.4899
 5560ntf    fn426693   0.553   7.001   0.192  0.0144  0.0164 -0.5959
 5560ntf    on526694   0.458   6.785   0.327  0.0476  0.4908 -0.4186
 5560ntf    on526695   0.255   6.904   0.391 -0.5719 -0.7416 -0.0490
 5560ntf    on526696   0.125   6.768  -0.023  0.2970 -0.0977 -0.5585
 5560ntf    on526697   0.198   6.625   0.156 -0.6008  0.2534 -0.0429
 5560ntf    fn426698   0.476   6.651   0.025  0.0888  0.5822  0.0594
 5560ntf    fn426699   0.322   6.582  -0.110  0.7296  0.3579  0.2734
 5560ntf    fn426700   0.404   6.778  -0.123 -0.0445  0.2993 -0.8562
 5561ntf    cn126701   5.561   7.196   0.895  0.2605 -0.4613  0.3757
 5561ntf    sn226702   5.544   7.050   0.788  0.0859  0.1190 -0.4006
 5561ntf    nn326703   5.543   7.110   0.644 -0.1283  0.0784 -0.4171
 5561ntf    sn226704   5.669   7.151   0.559 -0.0933 -0.2870 -0.5420
 5561ntf    cn126705   5.639   7.014   0.443  0.0592 -0.3164 -0.5472
 5561ntf    fn426706   5.666   7.263   0.851  0.0788 -0.2448  0.2657
 5561ntf    fn426707   5.462   7.283   0.881  0.5846 -0.0604  0.5827
 5561ntf    fn426708   5.572   7.162   1.022 -0.3269 -0.4830  0.4234
 5561ntf    on526709   5.653   6.965   0.830  0.1343  0.4394  0.1402
 5561ntf    on526710   5.416   6.997   0.831  0.0382  0.2540 -0.3777
 5561ntf    on526711   5.803   7.126   0.607 -0.4975  1.0568  1.4142
 5561ntf    on526712   5.645   7.259   0.467 -0.1996 -0.0534 -0.2405
 5561ntf    fn426713   5.625   6.897   0.503  0.4185  0.2259  0.6216
 5561ntf    fn426714   5.526   7.038   0.377 -0.1050  0.1929 -0.0903
 5561ntf    fn426715   5.732   6.992   0.351  0.2539 -0.8483 -0.2245
 5562ntf    cn126716   5.286   5.921   1.207  0.2132 -0.2343  0.4511
 5562ntf    sn226717   5.300   6.101   1.231  0.4600 -0.1632 -0.2225
 5562ntf    nn326718   5.190   6.115   1.342  0.2879  0.6368 -0.4907
 5562ntf    sn226719   5.213   6.132   1.497 -0.5246 -0.0812 -0.2856
 5562ntf    cn126720   5.066   6.227   1.546 -0.0196  0.4255  0.2679
 5562ntf    fn426721   5.316   5.902   1.080  0.1676  0.3382  0.3533
 5562ntf    fn426722   5.373   5.848   1.275  0.3516 -0.5232 -0.0331
 5562ntf    fn426723   5.166   5.871   1.231  0.0081 -0.0748 -0.2332
 5562ntf    on526724   5.436   6.127   1.270  0.0564  0.5711  0.7488
 5562ntf    on526725   5.260   6.154   1.103  0.5475  0.0936 -0.1442
 5562ntf    on526726   5.310   6.226   1.547 -0.1351 -0.4334 -0.3668
 5562ntf    on526727   5.203   6.006   1.565 -0.1335  0.3533  0.5881
 5562ntf    fn426728   5.044   6.234   1.676  0.2595  0.8160  0.2919
 5562ntf    fn426729   5.067   6.354   1.512 -0.0647  0.5514  0.7279
 5562ntf    fn426730   4.955   6.172   1.498  0.2734  0.4543 -0.4617
 5563ntf    cn126731   4.733   1.962   6.498  0.2941  0.4687  0.1030
 5563ntf    sn226732   4.874   1.929   6.388  0.2361  0.3524  0.0633
 5563ntf    nn326733   4.802   1.951   6.250 -0.2229  0.2878  0.2905
 5563ntf    sn226734   4.748   1.852   6.141  0.1745 -0.1180  0.4575
 5563ntf    cn126735   4.568   1.880   6.148  0.1542 -0.0965 -0.1007
 5563ntf    fn426736   4.664   2.070   6.466 -0.1838  0.0593 -0.2761
 5563ntf    fn426737   4.644   1.865   6.483  0.2472  0.5748 -0.3177
 5563ntf    fn426738   4.760   1.964   6.628  0.3569 -0.2457  0.1066
 5563ntf    on526739   4.968   2.034   6.417 -0.2173  0.6815  0.3708
 5563ntf    on526740   4.913   1.795   6.423 -0.6338  0.0199 -0.2044
 5563ntf    on526741   4.769   1.713   6.171 -0.3252 -0.2785  0.0816
 5563ntf    on526742   4.789   1.903   6.012  0.2049 -0.3583  0.3716
 5563ntf    fn426743   4.506   1.836   6.256 -0.2584 -0.0023 -0.2994
 5563ntf    fn426744   4.539   2.009   6.143  0.8378  0.0691  0.1423
 5563ntf    fn426745   4.505   1.832   6.042  0.1516 -0.0169 -0.1353
 5564ntf    cn126746   6.183   3.561   2.404 -0.0247 -0.2866 -0.0113
 5564ntf    sn226747   6.162   3.387   2.455 -0.3325 -0.2772 -0.1055
 5564ntf    nn326748   6.101   3.327   2.324 -0.0242  0.6959 -0.7031
 5564ntf    sn226749   6.162   3.205   2.246  0.0084  0.2738 -0.0228
 5564ntf    cn126750   6.016   3.120   2.181  0.0565 -0.1058  0.3612
 5564ntf    fn426751   6.230   3.645   2.495  0.4579 -0.7012  0.1309
 5564ntf    fn426752   6.273   3.567   2.307  0.2133 -0.7255  0.1764
 5564ntf    fn426753   6.064   3.606   2.370 -0.0140 -0.1440  0.1436
 5564ntf    on526754   6.298   3.349   2.484 -0.3563 -0.5023 -0.2904
 5564ntf    on526755   6.069   3.394   2.565 -0.1498  0.2052  0.0225
 5564ntf    on526756   6.224   3.102   2.325 -0.1802 -0.0433 -0.2898
 5564ntf    on526757   6.242   3.258   2.138  0.8107 -0.5408  0.1568
 5564ntf    fn426758   5.940   3.203   2.111  0.5445  0.2922  0.2928
 5564ntf    fn426759   6.049   3.022   2.098  0.1601  0.3501 -0.1422
 5564ntf    fn426760   5.947   3.073   2.284  0.0759  0.1587  0.4941
 5565ntf    cn126761   0.463   0.109   2.492  0.0335  0.0106 -0.1614
 5565ntf    sn226762   0.624   0.191   2.513  0.0629 -0.0876 -0.0057
 5565ntf    nn326763   0.718   0.067   2.490  0.2859  0.1135 -0.1820
 5565ntf    sn226764   0.752  -0.012   2.359 -0.1777 -0.5044  0.0640
 5565ntf    cn126765   0.911   0.062   2.311 -0.2039 -0.2519  0.3597
 5565ntf    fn426766   0.457   0.010   2.579  0.2243  0.2334  0.1081
 5565ntf    fn426767   0.354   0.183   2.496  0.4915  0.6737  0.1932
 5565ntf    fn426768   0.458   0.035   2.382 -0.4611 -0.4509  0.1689
 5565ntf    on526769   0.627   0.292   2.411  0.0115 -0.1093 -0.0289
 5565ntf    on526770   0.613   0.236   2.650 -0.5309  0.1300 -0.1227
 5565ntf    on526771   0.665   0.013   2.247  0.7792 -0.3000 -0.6457
 5565ntf    on526772   0.795  -0.146   2.388  0.0917 -0.3404  0.4430
 5565ntf    fn426773   1.014   0.019   2.383 -0.3668 -0.1991  0.6240
 5565ntf    fn426774   0.947   0.045   2.185  0.3233  0.4055  0.4168
 5565ntf    fn426775   0.918   0.192   2.332  1.3043 -0.2908  0.2604
 5566ntf    cn126776   0.113   5.227   1.655  0.0436 -0.1822 -0.0235
 5566ntf    sn226777   0.254   5.113   1.657  0.0690 -0.1440  0.4078
 5566ntf    nn326778   0.333   5.175   1.536 -0.0844  0.6195  0.6933
 5566ntf    sn226779   0.442   5.287   1.544  0.0401  0.5522  0.0220
 5566ntf    cn126780   0.387   5.389   1.404 -0.6771  0.1334 -0.0068
 5566ntf    fn426781   0.044   5.217   1.542  0.3621  0.5409 -0.2901
 5566ntf    fn426782   0.029   5.214   1.756 -0.5227 -0.0592 -0.4695
 5566ntf    fn426783   0.144   5.356   1.658  0.0313 -0.1744 -0.2256
 5566ntf    on526784   0.312   5.112   1.789  0.9976  0.0771  0.0098
 5566ntf    on526785   0.189   4.989   1.621  0.2917 -0.0563 -0.3146
 5566ntf    on526786   0.575   5.244   1.509  0.1303  0.1153  0.8709
 5566ntf    on526787   0.426   5.380   1.653 -0.3498 -0.1031  0.5316
 5566ntf    fn426788   0.259   5.412   1.429 -0.6495  0.0744  0.1888
 5566ntf    fn426789   0.454   5.503   1.404  0.0463 -0.2838  0.1504
 5566ntf    fn426790   0.387   5.332   1.284 -0.0711  0.1044  0.0051
 5567ntf    cn126791   5.826   7.132   1.191  0.3444  0.4112 -0.1521
 5567ntf    sn226792   5.941   7.123   1.331  0.1853  0.0961 -0.0411
 5567ntf    nn326793   5.975   7.276   1.332  0.0902  0.1172 -0.0109
 5567ntf    sn226794   5.967   7.368   1.460  0.1292  0.2290 -0.0889
 5567ntf    cn126795   6.084   7.497   1.409 -0.1820  0.4017 -0.3762
 5567ntf    fn426796   5.890   7.158   1.078  0.6994 -0.3744 -0.1439
 5567ntf    fn426797   5.762   7.016   1.180  0.0298  0.5353  0.3486
 5567ntf    fn426798   5.731   7.222   1.207 -0.0470  0.0117 -0.1937
 5567ntf    on526799   5.856   7.059   1.429  0.2912 -0.3957 -0.2672
 5567ntf    on526800   6.054   7.047   1.285 -0.3741 -0.8575  0.1321
 5567ntf    on526801   6.013   7.324   1.589  0.4984  0.5301 -0.1174
 5567ntf    on526802   5.847   7.448   1.463  0.1225  0.2297 -0.3144
 5567ntf    fn426803   6.056   7.559   1.296  0.3141  0.3567 -0.5270
 5567ntf    fn426804   6.079   7.600   1.492 -0.2699  0.0857  0.0174
 5567ntf    fn426805   6.215   7.475   1.414 -0.2669 -0.0048  0.2260
 5568ntf    cn126806   6.563   0.701   1.089 -0.4602  0.0498 -0.4433
 5568ntf    sn226807   6.712   0.771   1.167 -0.2854 -0.3439 -0.4215
 5568ntf    nn326808   6.731   0.914   1.106  0.4401 -0.3939 -0.3203
 5568ntf    sn226809   6.859   0.986   1.053  0.4062 -0.1418 -0.0660
 5568ntf    cn126810   6.854   1.148   1.135 -0.0489 -0.1337 -0.1101
 5568ntf    fn426811   6.493   0.632   1.177  0.1578 -0.2154 -0.1517
 5568ntf    fn426812   6.483   0.801   1.055 -0.4058  0.2357 -0.0335
 5568ntf    fn426813   6.591   0.635   0.978 -0.3393 -0.1291 -0.3079
 5568ntf    on526814   6.664   0.787   1.302  0.1773  0.1243 -0.3098
 5568ntf    on526815   6.812   0.671   1.140 -0.3346 -0.3693 -0.5111
 5568ntf    on526816   6.834   1.013   0.913 -0.7748 -0.3748  0.0925
 5568ntf    on526817   6.981   0.925   1.100  0.4337 -0.0306  0.0078
 5568ntf    fn426818   6.953   1.224   1.090 -0.3708  0.2711 -0.1415
 5568ntf    fn426819   6.753   1.227   1.100  0.1870  0.3468  0.2761
 5568ntf    fn426820   6.842   1.133   1.266 -0.5307  0.1206 -0.1201
 5569ntf    cn126821   2.792   7.430   1.302 -0.3475 -0.0655 -0.2077
 5569ntf    sn226822   2.627   7.375   1.356 -0.1616 -0.1021  0.3305
 5569ntf    nn326823   2.569   7.516   1.393  0.0295  0.1333 -0.2593
 5569ntf    sn226824   2.497   7.619   1.298 -0.2741  0.3426  0.1921
 5569ntf    cn126825   2.506   7.761   1.410  0.0875  0.2902  0.2326
 5569ntf    fn426826   2.835   7.513   1.395 -0.4735 -0.6276  0.3626
 5569ntf    fn426827   2.882   7.334   1.293  0.5839  0.7476  0.2720
 5569ntf    fn426828   2.786   7.498   1.189 -0.1187  0.0248 -0.1659
 5569ntf    on526829   2.572   7.311   1.239  0.2620  0.0670  0.0372
 5569ntf    on526830   2.660   7.308   1.479  0.1069  0.2127  0.4297
 5569ntf    on526831   2.355   7.597   1.286 -0.2971  0.8956 -0.6700
 5569ntf    on526832   2.577   7.661   1.185  0.4691 -0.2303  0.4948
 5569ntf    fn426833   2.462   7.732   1.532  0.2757  0.1155  0.2593
 5569ntf    fn426834   2.631   7.804   1.412  0.4156 -0.6193 -0.3126
 5569ntf    fn426835   2.441   7.868   1.367  0.0529  0.1469 -0.0695
 5570ntf    cn126836   3.844   6.497   3.363  0.0295 -0.1574 -0.4287
 5570ntf    sn226837   3.956   6.371   3.297  0.3942  0.0654 -0.2400
 5570ntf    nn326838   4.088   6.456   3.304  0.5579 -0.1992 -0.0615
 5570ntf    sn226839   4.136   6.570   3.207  0.0458 -0.0290 -0.1185
 5570ntf    cn126840   4.211   6.476   3.071  0.4252  0.0810  0.0158
 5570ntf    fn426841   3.871   6.525   3.490 -0.3783 -0.1983 -0.3311
 5570ntf    fn426842   3.839   6.612   3.297  0.0494 -0.3872 -0.8319
 5570ntf    fn426843   3.714   6.470   3.367  0.0621 -0.2823 -0.1410
 5570ntf    on526844   3.943   6.268   3.397  0.5594  0.0017 -0.2835
 5570ntf    on526845   3.896   6.351   3.167  0.2734 -0.1154 -0.1563
 5570ntf    on526846   4.253   6.634   3.259 -0.1292  0.0628  0.1661
 5570ntf    on526847   4.032   6.647   3.143 -0.3564  0.2866  0.9027
 5570ntf    fn426848   4.327   6.423   3.106  0.4993 -0.2667 -0.7356
 5570ntf    fn426849   4.142   6.374   3.023  0.0309  0.4463 -0.1926
 5570ntf    fn426850   4.236   6.541   2.958 -0.0824  0.5290  0.1578
 5571ntf    cn126851   5.961   5.266   7.234 -0.6629 -0.1187 -0.1021
 5571ntf    sn226852   5.985   5.202   7.403 -0.3105 -0.0490 -0.1239
 5571ntf    nn326853   5.834   5.183   7.443 -0.3477  0.4366 -0.0307
 5571ntf    sn226854   5.747   5.214   7.569 -0.0461  0.3586  0.1981
 5571ntf    cn126855   5.723   5.052   7.648 -0.2721  0.2720 -0.0465
 5571ntf    fn426856   5.849   5.336   7.225 -0.4711  0.2198  0.1162
 5571ntf    fn426857   6.056   5.350   7.194 -0.2876 -0.4654  0.0545
 5571ntf    fn426858   5.952   5.165   7.149 -0.0859 -0.0702 -0.2303
 5571ntf    on526859   6.053   5.075   7.391 -0.5076 -0.1001 -0.7698
 5571ntf    on526860   6.059   5.308   7.467 -0.4372 -0.0041 -0.0505
 5571ntf    on526861   5.609   5.242   7.535 -0.0805 -0.2581 -0.1759
 5571ntf    on526862   5.813   5.303   7.662  0.1807 -0.1720  0.5471
 5571ntf    fn426863   5.614   5.037   7.721 -0.2858 -0.1469 -0.1513
 5571ntf    fn426864   5.726   4.948   7.566  0.0323 -0.1259  0.4661
 5571ntf    fn426865   5.825   5.022   7.727 -0.6127  0.2446  0.3850
 5572ntf    cn126866   7.364   3.520   2.632  0.0560 -0.2376  0.2304
 5572ntf    sn226867   7.258   3.417   2.738 -0.0578  0.0296  0.3768
 5572ntf    nn326868   7.325   3.278   2.710  0.1452  0.1016  0.4951
 5572ntf    sn226869   7.249   3.158   2.642  0.1240  0.0571  0.5970
 5572ntf    cn126870   7.180   3.081   2.791 -0.0998 -0.1502  0.3864
 5572ntf    fn426871   7.494   3.522   2.659  0.0992  0.3838  0.0058
 5572ntf    fn426872   7.358   3.475   2.508 -0.1561  0.2569  0.0602
 5572ntf    fn426873   7.324   3.646   2.629 -0.6522 -0.4628 -0.0119
 5572ntf    on526874   7.290   3.459   2.873  0.2260  0.3655  0.2071
 5572ntf    on526875   7.127   3.445   2.686 -0.1667 -1.0709  0.0391
 5572ntf    on526876   7.336   3.054   2.593  0.0638  0.1428  0.3038
 5572ntf    on526877   7.140   3.184   2.551 -0.2133 -0.9572  0.6979
 5572ntf    fn426878   7.142   2.955   2.777 -0.5828  0.1168 -0.8654
 5572ntf    fn426879   7.261   3.085   2.895  0.2914  0.5203  0.0577
 5572ntf    fn426880   7.071   3.144   2.831 -0.0294  0.2917 -0.1113
 5573ntf    cn126881   6.763   2.286   5.156 -0.4043 -0.0424 -0.0411
 5573ntf    sn226882   6.775   2.233   4.983  0.1333  0.0693 -0.0376
 5573ntf    nn326883   6.924   2.184   4.970  0.0976 -0.0060 -0.1558
 5573ntf    sn226884   6.982   2.060   4.892  0.3184  0.0532 -0.0852
 5573ntf    cn126885   7.028   1.942   5.022 -0.3162  0.0217  0.1158
 5573ntf    fn426886   6.640   2.327   5.181 -0.3929 -0.2463  0.3727
 5573ntf    fn426887   6.787   2.191   5.245  0.4915  0.3918  0.1940
 5573ntf    fn426888   6.848   2.381   5.194  0.6230 -0.7242 -0.6043
 5573ntf    on526889   6.672   2.133   4.982  0.7453 -0.5819  0.3770
 5573ntf    on526890   6.763   2.359   4.913 -0.9112  0.1956  0.3577
 5573ntf    on526891   7.113   2.081   4.836  0.4921 -0.9615 -0.0696
 5573ntf    on526892   6.885   1.998   4.805 -0.5203  0.4218  0.5750
 5573ntf    fn426893   6.919   1.902   5.085  0.1393 -0.5930  0.5354
 5573ntf    fn426894   7.076   1.830   4.970 -0.5292 -0.1175  0.2168
 5573ntf    fn426895   7.107   1.986   5.118 -0.2990  0.5744 -0.1483
 5574ntf    cn126896   4.553   3.320   6.957  0.5002 -0.0791 -0.1663
 5574ntf    sn226897   4.467   3.190   7.051 -0.1323  0.2420 -0.3016
 5574ntf    nn326898   4.328   3.191   6.978 -0.3590 -0.0734  0.1246
 5574ntf    sn226899   4.231   3.069   6.959 -0.2768 -0.0957 -0.1411
 5574ntf    cn126900   4.275   3.006   6.794 -0.0369 -0.1816 -0.0443
 5574ntf    fn426901   4.652   3.367   7.031  0.2344  0.1274  0.0589
 5574ntf    fn426902   4.608   3.282   6.843  0.5122 -0.7452  0.0506
 5574ntf    fn426903   4.473   3.421   6.932  1.1256  0.4139 -0.1985
 5574ntf    on526904   4.543   3.071   7.026 -0.1417  0.2080 -0.1709
 5574ntf    on526905   4.469   3.244   7.185 -0.9266 -0.4093 -0.0173
 5574ntf    on526906   4.093   3.111   6.948 -0.3337 -0.3955 -0.6230
 5574ntf    on526907   4.253   2.967   7.059  0.2278 -0.2457 -0.4015
 5574ntf    fn426908   4.394   2.949   6.785  0.1036  0.1671 -0.4152
 5574ntf    fn426909   4.183   2.917   6.761 -0.1084 -0.2293  0.2813
 5574ntf    fn426910   4.261   3.099   6.701 -0.0428  0.1141  0.2506
 5575ntf    cn126911   2.846   1.665   2.126 -0.2279 -0.0252  0.1825
 5575ntf    sn226912   2.983   1.658   2.245  0.0111  0.3619 -0.0667
 5575ntf    nn326913   2.941   1.765   2.351  0.3065  0.4186 -0.0039
 5575ntf    sn226914   2.821   1.756   2.452  0.3192 -0.3076 -0.0453
 5575ntf    cn126915   2.721   1.892   2.385 -0.4156 -0.6643  0.3146
 5575ntf    fn426916   2.863   1.593   2.017 -0.0089  0.2660  0.0208
 5575ntf    fn426917   2.730   1.628   2.178  0.0134 -0.6210  0.2965
 5575ntf    fn426918   2.829   1.789   2.082 -0.0584 -0.0921 -0.0726
 5575ntf    on526919   2.987   1.520   2.286 -0.1420  0.3217 -0.1865
 5575ntf    on526920   3.090   1.708   2.161  0.2305 -0.3586 -0.2313
 5575ntf    on526921   2.855   1.797   2.587 -0.4886 -0.1150  0.1069
 5575ntf    on526922   2.733   1.643   2.433 -0.6027  0.4308 -0.2413
 5575ntf    fn426923   2.609   1.918   2.450 -0.6702 -0.0771 -0.3418
 5575ntf    fn426924   2.783   2.009   2.383  0.1353 -0.9443  0.7797
 5575ntf    fn426925   2.692   1.864   2.259 -0.4409 -0.5536  0.2960
 5576ntf    cn126926   6.867   5.648   5.387 -0.2183 -0.4408  0.1087
 5576ntf    sn226927   6.787   5.496   5.326 -0.2796 -0.4252  0.1504
 5576ntf    nn326928   6.635   5.535   5.333 -0.2593 -0.1867 -0.6840
 5576ntf    sn226929   6.504   5.450   5.322 -0.3312 -0.1370 -0.2110
 5576ntf    cn126930   6.470   5.460   5.144 -0.6648 -0.0198 -0.1409
 5576ntf    fn426931   6.826   5.681   5.508 -0.1221  0.0425  0.0108
 5576ntf    fn426932   6.998   5.634   5.393 -0.1164 -0.1114 -1.1078
 5576ntf    fn426933   6.846   5.757   5.315  0.6522 -0.2077  0.2005
 5576ntf    on526934   6.844   5.489   5.194 -0.1641  0.4435  0.1510
 5576ntf    on526935   6.834   5.394   5.417  0.1308 -0.1129  0.2921
 5576ntf    on526936   6.396   5.523   5.382 -0.2040 -0.7411  0.7844
 5576ntf    on526937   6.510   5.309   5.354  0.0439 -0.1139 -0.1670
 5576ntf    fn426938   6.469   5.582   5.094 -0.2499 -0.0478 -0.2225
 5576ntf    fn426939   6.560   5.390   5.077 -0.4577  0.6795 -0.5975
 5576ntf    fn426940   6.348   5.416   5.116 -0.5925 -0.0364 -0.4322
 5577ntf    cn126941   4.107   4.586   3.702 -0.0932  0.1639 -0.5491
 5577ntf    sn226942   4.003   4.525   3.838  0.0471 -0.1501 -0.5801
 5577ntf    nn326943   3.861   4.559   3.779 -0.3728  0.1889  0.5888
 5577ntf    sn226944   3.753   4.458   3.727  0.3116 -0.2137 -0.0678
 5577ntf    cn126945   3.635   4.454   3.865  0.2206  0.7454 -0.1096
 5577ntf    fn426946   4.091   4.521   3.588 -0.3142 -0.3774 -0.2170
 5577ntf    fn426947   4.090   4.714   3.675 -0.3946  0.2513  0.0388
 5577ntf    fn426948   4.236   4.566   3.726 -0.1466  0.0933 -0.3097
 5577ntf    on526949   4.034   4.385   3.841 -0.2486 -0.2215 -0.7778
 5577ntf    on526950   4.038   4.608   3.951  0.3687 -0.1388 -0.6868
 5577ntf    on526951   3.782   4.317   3.714  0.2325 -0.1877 -0.5585
 5577ntf    on526952   3.678   4.520   3.620 -0.5911  0.0514  0.7098
 5577ntf    fn426953   3.576   4.336   3.872  0.0262  0.8647  0.2513
 5577ntf    fn426954   3.694   4.468   3.983 -0.2097  0.1099  0.1886
 5577ntf    fn426955   3.539   4.544   3.858 -0.4221  0.0679 -0.1347
 5578ntf    cn126956   3.073   5.423   0.841 -0.1979  0.0576 -0.0276
 5578ntf    sn226957   2.903   5.358   0.844 -0.2385  0.1308 -0.5274
 5578ntf    nn326958   2.833   5.412   0.715 -0.1026  0.3036 -0.5289
 5578ntf    sn226959   2.682   5.385   0.680 -0.2068 -0.1022  0.2247
 5578ntf    cn126960   2.694   5.253   0.556  0.0335 -0.0384  0.1784
 5578ntf    fn426961   3.067   5.555   0.836  0.8629  0.1055 -0.1625
 5578ntf    fn426962   3.144   5.379   0.944  0.0008  0.4195 -0.0102
 5578ntf    fn426963   3.143   5.380   0.737 -0.3294 -0.4319  0.0794
 5578ntf    on526964   2.926   5.216   0.846  0.2495  0.2117 -0.1462
 5578ntf    on526965   2.834   5.415   0.958 -0.2814  0.0168 -0.4955
 5578ntf    on526966   2.630   5.497   0.606  0.5508  0.2946  0.2805
 5578ntf    on526967   2.600   5.324   0.782  0.0315 -0.2474  0.3322
 5578ntf    fn426968   2.749   5.145   0.609  0.3821 -0.1466 -0.4012
 5578ntf    fn426969   2.578   5.214   0.504 -0.3035  0.2498  0.7030
 5578ntf    fn426970   2.773   5.286   0.455  0.0802 -0.4927  0.0601
 5579ntf    cn126971   3.320   6.805   7.099 -0.0713 -0.0767 -0.0649
 5579ntf    sn226972   3.281   6.968   7.170 -0.1211  0.0169 -0.3032
 5579ntf    nn326973   3.138   6.998   7.114 -0.2106 -0.0959 -0.1350
 5579ntf    sn226974   2.999   6.964   7.179 -0.0605 -0.4065  0.0261
 5579ntf    cn126975   2.969   7.096   7.300 -0.1326 -0.1764 -0.2414
 5579ntf    fn426976   3.411   6.742   7.171 -0.0204 -0.1444 -0.1872
 5579ntf    fn426977   3.207   6.737   7.096 -0.2094  0.1714 -0.8303
 5579ntf    fn426978   3.370   6.815   6.977  0.0321  0.4447  0.0159
 5579ntf    on526979   3.299   6.950   7.312  0.2207  0.3968 -0.2948
 5579ntf    on526980   3.369   7.061   7.104  0.2982  0.0950  0.3555
 5579ntf    on526981   2.984   6.844   7.257  0.2581 -0.5185 -0.0843
 5579ntf    on526982   2.893   6.989   7.084 -0.3098  0.0239  0.4108
 5579ntf    fn426983   2.944   7.211   7.239  0.0213 -0.1775 -0.3070
 5579ntf    fn426984   2.856   7.070   7.364  0.2097 -0.6620  0.1695
 5579ntf    fn426985   3.068   7.102   7.388  0.0412  0.2619 -0.4647
 5580ntf    cn126986   1.660   1.508   0.695  0.1226 -0.0290 -0.1220
 5580ntf    sn226987   1.716   1.375   0.584 -0.3600  0.1745 -0.6137
 5580ntf    nn326988   1.867   1.360   0.624 -0.4226  0.4261 -0.2721
 5580ntf    sn226989   1.998   1.393   0.544 -0.0240  0.1346  0.2588
 5580ntf    cn126990   2.084   1.233   0.539 -0.0550  0.1259  0.0040
 5580ntf    fn426991   1.676   1.475   0.822  0.0815 -0.6091 -0.2628
 5580ntf    fn426992   1.743   1.608   0.672 -0.1128  0.2533  0.2535
 5580ntf    fn426993   1.533   1.547   0.690  0.1538  0.0904  0.0067
 5580ntf    on526994   1.651   1.255   0.628  0.0779  0.4330  0.7948
 5580ntf    on526995   1.688   1.433   0.455 -0.2925  0.2245 -0.6062
 5580ntf    on526996   2.091   1.482   0.611  0.0899 -0.1012  0.4168
 5580ntf    on526997   1.987   1.420   0.403  0.7468  0.3878  0.2410
 5580ntf    fn426998   2.206   1.231   0.489 -0.0312  0.1222  0.0616
 5580ntf    fn426999   2.090   1.188   0.664  0.4281  0.3979  0.0806
 5580ntf    fn427000   2.016   1.137   0.477 -0.1144  0.1132  0.0883
 5581ntf    cn127001   2.021   6.118   6.413  0.6666  0.0158 -0.1415
 5581ntf    sn227002   1.909   6.257   6.377  0.3774 -0.2246 -0.1774
 5581ntf    nn327003   1.911   6.270   6.221 -0.2828  0.0717 -0.1618
 5581ntf    sn227004   1.870   6.398   6.139  0.3389  0.0874 -0.4515
 5581ntf    cn127005   2.033   6.471   6.105  0.3404  0.4108  0.2450
 5581ntf    fn427006   2.013   6.073   6.537  0.2881  0.2175 -0.0917
 5581ntf    fn427007   1.989   6.014   6.337  0.1431  0.1203 -0.0657
 5581ntf    fn427008   2.145   6.157   6.390  0.4891  0.3021 -0.6318
 5581ntf    on527009   1.782   6.214   6.430  0.1818  0.1680 -0.3217
 5581ntf    on527010   1.970   6.360   6.458 -0.0884 -0.0782 -0.0096
 5581ntf    on527011   1.803   6.505   6.209  0.6837 -0.1558  0.2676
 5581ntf    on527012   1.819   6.350   6.013 -0.6203  0.1406 -0.0907
 5581ntf    fn427013   2.028   6.586   6.041  0.2066  0.4643  0.3502
 5581ntf    fn427014   2.101   6.506   6.214  0.5453  0.3966  0.1236
 5581ntf    fn427015   2.115   6.389   6.042 -0.2724  0.1368 -0.1998
 5582ntf    cn127016   2.821   2.432   5.337  0.0958  0.3252 -0.4383
 5582ntf    sn227017   2.732   2.460   5.493  0.7115  0.4662 -0.1081
 5582ntf    nn327018   2.817   2.569   5.567 -0.2240  0.1664  1.4669
 5582ntf    sn227019   2.797   2.722   5.597 -0.1599  0.5229 -0.1589
 5582ntf    cn127020   2.961   2.786   5.555  0.3449 -0.4309  0.3053
 5582ntf    fn427021   2.948   2.395   5.349 -0.0445 -0.0470 -0.0813
 5582ntf    fn427022   2.766   2.351   5.248  0.2493 -0.6102  0.3064
 5582ntf    fn427023   2.839   2.551   5.282  0.5802  0.3691 -0.1933
 5582ntf    on527024   2.607   2.510   5.442  0.0782 -0.5351  0.4202
 5582ntf    on527025   2.726   2.333   5.561 -0.8489  0.4532 -0.2281
 5582ntf    on527026   2.776   2.742   5.739 -0.3089 -0.4046 -0.0374
 5582ntf    on527027   2.713   2.794   5.505  0.5034  0.7251 -0.6049
 5582ntf    fn427028   3.051   2.723   5.628  0.1090 -1.0339  0.0771
 5582ntf    fn427029   2.998   2.782   5.428 -0.0375 -0.5923  0.1962
 5582ntf    fn427030   2.967   2.915   5.584  0.7959 -0.3589 -0.0844
 5583ntf    cn127031   7.122   4.837   2.813  0.1179  0.0478  0.1989
 5583ntf    sn227032   7.298   4.883   2.810  0.1788 -0.1802  0.1954
 5583ntf    nn327033   7.371   4.746   2.834 -0.1007 -0.3308  0.1819
 5583ntf    sn227034   7.415   4.642   2.725  0.1796 -0.0663  0.0430
 5583ntf    cn127035   7.578   4.610   2.800  0.1165 -0.0979  0.1684
 5583ntf    fn427036   7.045   4.945   2.816  0.2964  0.1700  0.4083
 5583ntf    fn427037   7.088   4.767   2.707  0.1703 -0.4290  0.4944
 5583ntf    fn427038   7.090   4.769   2.922  0.1390 -0.0735  0.1304
 5583ntf    on527039   7.326   4.945   2.683  0.0706  0.0217  0.2701
 5583ntf    on527040   7.301   4.975   2.922 -0.1759  0.0768 -0.0067
 5583ntf    on527041   7.452   4.697   2.597  0.0617 -0.6270 -0.2321
 5583ntf    on527042   7.351   4.513   2.726  0.0405  0.0026  0.2211
 5583ntf    fn427043   7.675   4.563   2.724  0.4751  0.0418  0.5369
 5583ntf    fn427044   7.627   4.724   2.846 -0.3075  0.0051  0.3665
 5583ntf    fn427045   7.569   4.526   2.902 -0.2949  0.1380  0.3282
 5584ntf    cn127046   6.190   5.852   3.006 -0.0319  0.1261 -0.0358
 5584ntf    sn227047   6.313   5.982   3.038  0.3864 -0.2548 -0.0832
 5584ntf    nn327048   6.269   6.088   2.931 -0.1132 -0.0596  0.3086
 5584ntf    sn227049   6.355   6.154   2.817  0.3435 -0.2241  0.5593
 5584ntf    cn127050   6.318   6.328   2.855 -0.2244 -0.3468  0.5796
 5584ntf    fn427051   6.065   5.892   3.023 -0.0324  0.0039  0.2504
 5584ntf    fn427052   6.205   5.818   2.879 -0.1878  0.0096 -0.0225
 5584ntf    fn427053   6.211   5.746   3.082  0.6306  0.4630  0.2592
 5584ntf    on527054   6.266   6.016   3.170  0.0514 -1.0065 -0.0035
 5584ntf    on527055   6.443   5.923   3.026  0.7604  0.5126  0.1243
 5584ntf    on527056   6.299   6.145   2.685  0.2300  0.2729  0.5707
 5584ntf    on527057   6.498   6.140   2.828  0.3949 -0.6946 -0.5639
 5584ntf    fn427058   6.187   6.342   2.847 -0.0787  0.3538 -1.1012
 5584ntf    fn427059   6.356   6.362   2.977 -0.2858  0.0365  0.4940
 5584ntf    fn427060   6.366   6.409   2.761 -0.5228 -0.5022  0.2913
 5585ntf    cn127061   4.313   6.215   7.551  0.5569  0.1424  0.1264
 5585ntf    sn227062   4.220   6.103   7.660  0.0705  0.4101 -0.0127
 5585ntf    nn327063   4.163   6.200   7.771 -0.4153  0.0657  0.0400
 5585ntf    sn227064   4.225   6.235   7.910  0.1410 -0.1249 -0.1580
 5585ntf    cn127065   4.076   6.296   7.993  0.2609 -0.6258  0.4350
 5585ntf    fn427066   4.236   6.314   7.510  0.1322 -0.1070  0.3187
 5585ntf    fn427067   4.416   6.273   7.610  1.1725 -0.3590 -0.4378
 5585ntf    fn427068   4.369   6.151   7.449  0.1595  0.0028 -0.0068
 5585ntf    on527069   4.121   6.042   7.575  0.0982  0.4330 -0.0607
 5585ntf    on527070   4.321   6.009   7.701 -0.6121 -0.1364  0.4312
 5585ntf    on527071   4.317   6.346   7.908 -0.1022  0.0826  0.1661
 5585ntf    on527072   4.263   6.115   7.981  0.5461 -0.1886 -0.4793
 5585ntf    fn427073   4.110   6.323   8.118  0.0534 -0.3159  0.4250
 5585ntf    fn427074   4.021   6.402   7.935  0.8781 -0.5185  0.0432
 5585ntf    fn427075   3.984   6.201   7.990 -0.7717  0.3698 -0.0080
 5586ntf    cn127076   3.455   4.511   0.855 -0.1645 -0.2044 -0.2610
 5586ntf    sn227077   3.541   4.481   1.012 -0.1557 -0.0071 -0.2272
 5586ntf    nn327078   3.680   4.541   0.973  0.0068 -0.2910 -0.0910
 5586ntf    sn227079   3.807   4.468   0.918  0.2682  0.0550  0.0484
 5586ntf    cn127080   3.828   4.530   0.748 -0.0001  0.0909  0.0279
 5586ntf    fn427081   3.509   4.457   0.747  0.2939  0.0442 -0.1599
 5586ntf    fn427082   3.331   4.466   0.861 -0.3626  0.3884  0.2242
 5586ntf    fn427083   3.437   4.638   0.822  0.1432  0.1296  0.8287
 5586ntf    on527084   3.463   4.562   1.102  0.2106  0.1697 -0.0683
 5586ntf    on527085   3.525   4.339   1.034  0.0646  0.0501  0.3313
 5586ntf    on527086   3.807   4.327   0.886 -0.2312  0.1550 -0.4069
 5586ntf    on527087   3.922   4.507   0.996  0.5375 -0.0142 -0.3112
 5586ntf    fn427088   3.737   4.492   0.660 -0.1936  0.7263 -0.0479
 5586ntf    fn427089   3.838   4.662   0.746 -0.2456  0.1112  0.1100
 5586ntf    fn427090   3.945   4.497   0.695  0.2492  0.1212  0.5530
 5587ntf    cn127091   0.878   1.055   0.041  0.5487 -0.0610  0.1629
 5587ntf    sn227092   0.892   0.897   0.131 -0.0774 -0.1701  0.0738
 5587ntf    nn327093   1.040   0.860   0.095 -0.0981  0.0668 -0.2598
 5587ntf    sn227094   1.134   0.756   0.165 -0.3804  0.0652  0.1164
 5587ntf    cn127095   1.214   0.856   0.294  0.1349  0.0372 -0.1784
 5587ntf    fn427096   0.758   1.103   0.067  0.4232  0.0113 -0.5367
 5587ntf    fn427097   0.969   1.145   0.073  0.3190  0.0832  0.4112
 5587ntf    fn427098   0.879   1.036  -0.090  0.5804  0.3161  0.1095
 5587ntf    on527099   0.880   0.936   0.269  0.2876 -0.5112  0.2028
 5587ntf    on527100   0.788   0.819   0.068  0.0985 -0.3836  0.0437
 5587ntf    on527101   1.249   0.717   0.088  0.0873  0.2253  0.7170
 5587ntf    on527102   1.072   0.645   0.233  0.1489  0.0128  0.5297
 5587ntf    fn427103   1.128   0.872   0.394  0.3623 -0.1710  0.0523
 5587ntf    fn427104   1.315   0.788   0.347 -0.1353 -0.4498 -0.2839
 5587ntf    fn427105   1.258   0.974   0.253 -0.6096  0.2021 -0.5074
 5588ntf    cn127106   0.919   4.815   3.941 -0.3901 -0.2627 -0.1322
 5588ntf    sn227107   1.062   4.717   3.885 -0.0769  0.0828  0.0539
 5588ntf    nn327108   0.984   4.634   3.777  0.0088 -0.4669  0.4105
 5588ntf    sn227109   1.012   4.488   3.726 -0.4623 -0.3901 -0.0794
 5588ntf    cn127110   0.898   4.379   3.816 -0.4201 -0.1828  0.2259
 5588ntf    fn427111   0.950   4.901   4.037  0.0255 -0.1144 -0.3952
 5588ntf    fn427112   0.866   4.888   3.845 -0.2184 -0.0127 -0.0369
 5588ntf    fn427113   0.815   4.740   3.974 -0.3725 -0.1829  0.1107
 5588ntf    on527114   1.147   4.815   3.823  0.3608  0.1406  0.7390
 5588ntf    on527115   1.112   4.649   4.002 -0.0937 -0.1194 -0.0553
 5588ntf    on527116   1.144   4.437   3.752 -0.2112  0.1579 -0.2670
 5588ntf    on527117   0.972   4.482   3.588 -0.0578  0.0556 -0.2180
 5588ntf    fn427118   0.882   4.429   3.938  0.1148  0.1084  0.1773
 5588ntf    fn427119   0.779   4.402   3.763 -0.2522 -0.2292 -0.1725
 5588ntf    fn427120   0.917   4.248   3.823  0.0661 -0.1384 -0.2679
 5589ntf    cn127121   0.978   5.133   1.990  0.0597  0.0818 -0.3718
 5589ntf    sn227122   1.119   5.076   1.890 -0.1490 -0.0915 -0.5699
 5589ntf    nn327123   1.045   5.029   1.760 -0.3393 -0.1323 -0.4477
 5589ntf    sn227124   1.069   4.907   1.664  0.1788 -0.0972 -0.3658
 5589ntf    cn127125   1.067   5.003   1.510 -0.1488 -0.3833 -0.5418
 5589ntf    fn427126   1.011   5.217   2.087 -0.3655 -0.3054  0.1169
 5589ntf    fn427127   0.882   5.198   1.925  0.1104  0.1538 -0.3739
 5589ntf    fn427128   0.931   5.027   2.053  0.0725  0.0574 -0.4026
 5589ntf    on527129   1.202   5.193   1.889  0.6995 -0.6861 -0.4032
 5589ntf    on527130   1.168   4.965   1.969 -0.1581 -0.3181 -0.8829
 5589ntf    on527131   0.951   4.823   1.663 -0.3916  0.6880 -0.2675
 5589ntf    on527132   1.203   4.856   1.678  0.4444  0.7797  0.4343
 5589ntf    fn427133   1.105   4.934   1.404 -0.1295 -0.4959 -0.4620
 5589ntf    fn427134   0.946   5.044   1.475  0.0928  0.1330 -0.7882
 5589ntf    fn427135   1.155   5.101   1.520 -0.1917 -0.3628 -0.3652
 5590ntf    cn127136   5.860   5.084   2.425 -0.3877 -0.1640  0.3504
 5590ntf    sn227137   6.029   5.042   2.373 -0.5530 -0.0235 -0.3023
 5590ntf    nn327138   6.011   4.916   2.280  0.2518 -0.3579 -0.0191
 5590ntf    sn227139   6.005   4.909   2.123 -0.1784  0.2109 -0.0340
 5590ntf    cn127140   6.173   4.843   2.103 -0.1704  0.1995  0.0745
 5590ntf    fn427141   5.808   4.972   2.472 -0.1708 -0.2357  0.4219
 5590ntf    fn427142   5.854   5.177   2.519 -0.6526 -0.1018  0.2723
 5590ntf    fn427143   5.788   5.118   2.320  0.1870  0.1967  0.0729
 5590ntf    on527144   6.077   5.161   2.307 -0.1880 -0.2013 -0.3587
 5590ntf    on527145   6.092   5.004   2.497  0.0088  0.1589 -0.5301
 5590ntf    on527146   5.991   5.031   2.048 -0.2011  0.5571  0.5218
 5590ntf    on527147   5.925   4.796   2.083  0.3608 -0.3063  0.3339
 5590ntf    fn427148   6.199   4.832   1.974 -0.2309  0.0756  0.0726
 5590ntf    fn427149   6.268   4.916   2.159  0.1358 -0.0626 -0.0973
 5590ntf    fn427150   6.188   4.718   2.144 -0.1523  0.0311 -0.4453
 5591ntf    cn127151   3.836   1.066   0.034 -0.0214 -0.4088  0.3031
 5591ntf    sn227152   3.679   1.156   0.018  0.1402 -0.1784  0.0040
 5591ntf    nn327153   3.619   1.155   0.163  0.3080 -0.0185  0.0751
 5591ntf    sn227154   3.543   1.043   0.243 -0.2599  0.2705 -0.0511
 5591ntf    cn127155   3.381   1.042   0.161 -0.2438  0.1112 -0.0820
 5591ntf    fn427156   3.923   1.137   0.104 -0.5380  0.7754 -0.2325
 5591ntf    fn427157   3.812   0.949   0.090 -0.5442 -0.3301  0.2427
 5591ntf    fn427158   3.894   1.043  -0.083 -0.0581 -0.3060  0.2642
 5591ntf    on527159   3.725   1.286  -0.024  0.4581 -0.4111 -0.3858
 5591ntf    on527160   3.594   1.087  -0.076  0.0401  0.2922 -0.2549
 5591ntf    on527161   3.518   1.095   0.375  0.5408  0.2695  0.1067
 5591ntf    on527162   3.595   0.909   0.236 -0.5574  0.1601 -0.1647
 5591ntf    fn427163   3.383   0.997   0.037  0.2778  0.1861 -0.1028
 5591ntf    fn427164   3.292   0.969   0.227  0.3253 -0.5251 -0.0193
 5591ntf    fn427165   3.331   1.165   0.159  0.2000  0.2851 -0.4472
 5592ntf    cn127166   1.042   6.817   0.658 -0.0433  0.3201 -0.1920
 5592ntf    sn227167   1.130   6.672   0.592 -0.0971  0.0727  0.2666
 5592ntf    nn327168   1.005   6.617   0.514  0.2820 -0.7118  0.2062
 5592ntf    sn227169   0.899   6.506   0.548 -0.2848 -0.2316  0.0290
 5592ntf    cn127170   0.747   6.605   0.534 -0.3379 -0.2820  0.2454
 5592ntf    fn427171   1.013   6.902   0.561  0.3056  0.0529 -0.5310
 5592ntf    fn427172   0.924   6.784   0.708  0.1407 -0.5338 -0.3049
 5592ntf    fn427173   1.101   6.888   0.753 -0.0797 -0.2053  0.2341
 5592ntf    on527174   1.231   6.738   0.512 -0.2810  0.2697  0.1933
 5592ntf    on527175   1.169   6.587   0.701  0.0962 -0.0790  0.0791
 5592ntf    on527176   0.890   6.462   0.685  0.5378 -0.0412  0.1542
 5592ntf    on527177   0.892   6.409   0.442  0.1953  0.1190 -0.3337
 5592ntf    fn427178   0.717   6.673   0.643  0.4616  0.0603  0.2616
 5592ntf    fn427179   0.755   6.686   0.429 -0.3856 -0.2103  0.2969
 5592ntf    fn427180   0.647   6.520   0.518 -0.0751 -0.5062 -0.2457
 5593ntf    cn127181   7.410   0.171   3.670 -0.3161 -0.1223  0.1512
 5593ntf    sn227182   7.487   0.127   3.828 -0.1033  0.0348  0.0923
 5593ntf    nn327183   7.508  -0.028   3.809 -0.3769 -0.0630  0.5651
 5593ntf    sn227184   7.638  -0.114   3.827 -0.3086 -0.0769  0.0128
 5593ntf    cn127185   7.719  -0.069   3.670  0.2608  0.3442  0.4213
 5593ntf    fn427186   7.493   0.160   3.567 -0.2959 -0.4951  0.2072
 5593ntf    fn427187   7.316   0.083   3.638 -0.1291 -0.2486 -0.0541
 5593ntf    fn427188   7.371   0.297   3.674  0.0931  0.0350 -0.5445
 5593ntf    on527189   7.609   0.202   3.824 -0.0316 -0.0234  1.0005
 5593ntf    on527190   7.397   0.166   3.934  0.3734  0.4641  0.3410
 5593ntf    on527191   7.612  -0.255   3.822 -0.0247 -0.1345  0.1635
 5593ntf    on527192   7.724  -0.063   3.931  0.0322 -0.5692 -0.0272
 5593ntf    fn427193   7.647  -0.093   3.561 -0.0561 -0.0792  0.7188
 5593ntf    fn427194   7.736   0.062   3.671  0.2692  0.3485 -0.1105
 5593ntf    fn427195   7.839  -0.121   3.652 -0.0360 -0.3422  0.3879
 5594ntf    cn127196   1.235   6.605   3.059  0.3528 -0.1807 -0.4271
 5594ntf    sn227197   1.365   6.517   3.150 -0.0051 -0.0827  0.1808
 5594ntf    nn327198   1.377   6.590   3.289 -0.0883 -0.1212  0.2082
 5594ntf    sn227199   1.438   6.733   3.309 -0.3399  0.0432 -0.1749
 5594ntf    cn127200   1.332   6.798   3.442  0.1078  0.2222  0.0955
 5594ntf    fn427201   1.190   6.535   2.956  0.3212 -0.9049  0.0773
 5594ntf    fn427202   1.131   6.643   3.132  0.6158  0.9589 -0.6187
 5594ntf    fn427203   1.273   6.723   3.011 -0.2346  0.1224 -0.1672
 5594ntf    on527204   1.311   6.383   3.155  1.0614 -0.5507 -0.5571
 5594ntf    on527205   1.483   6.529   3.069 -0.1900 -0.0950 -0.0924
 5594ntf    on527206   1.410   6.828   3.205 -0.3528 -0.4050 -0.5839
 5594ntf    on527207   1.574   6.734   3.358 -0.6541 -0.0087  0.7097
 5594ntf    fn427208   1.356   6.740   3.558 -0.6188 -0.5217 -0.1189
 5594ntf    fn427209   1.330   6.930   3.443  0.4831  0.2294  1.0038
 5594ntf    fn427210   1.211   6.757   3.411  0.0058 -0.0420  0.8197
 5595ntf    cn127211   4.397   1.400   7.016 -0.1352 -0.4853 -0.0211
 5595ntf    sn227212   4.440   1.492   6.865  0.0715 -0.0319  0.3105
 5595ntf    nn327213   4.512   1.618   6.924  0.0781 -0.0209  0.2798
 5595ntf    sn227214   4.619   1.704   6.848  0.0610 -0.1847  0.0701
 5595ntf    cn127215   4.686   1.800   6.987  0.1459  0.1740 -0.2182
 5595ntf    fn427216   4.312   1.301   6.996  0.2115 -0.6880 -0.5028
 5595ntf    fn427217   4.511   1.355   7.066  0.0668  0.0188 -0.0173
 5595ntf    fn427218   4.354   1.478   7.114 -0.4491 -0.5532 -0.1046
 5595ntf    on527219   4.524   1.393   6.802  0.0613  0.0424  0.1790
 5595ntf    on527220   4.310   1.522   6.808  0.1659 -0.6099 -0.2169
 5595ntf    on527221   4.565   1.799   6.755 -0.4836 -1.0149 -0.4737
 5595ntf    on527222   4.741   1.638   6.808  0.1224  0.6343 -1.1475
 5595ntf    fn427223   4.809   1.843   6.962  0.0824  0.4004 -0.1478
 5595ntf    fn427224   4.606   1.900   7.021 -0.1819 -0.1470 -0.0473
 5595ntf    fn427225   4.703   1.720   7.091  0.5782  0.1515 -0.3032
 5596ntf    cn127226   3.314   6.501   2.367  0.4020 -0.1863  0.6300
 5596ntf    sn227227   3.371   6.349   2.451  0.2081 -0.6890 -0.1340
 5596ntf    nn327228   3.494   6.407   2.530 -0.2153  0.2095 -0.1112
 5596ntf    sn227229   3.647   6.373   2.526 -0.2193  0.1968 -0.1661
 5596ntf    cn127230   3.705   6.413   2.694  0.0449  0.2482 -0.2697
 5596ntf    fn427231   3.280   6.592   2.456  0.0335  0.5128 -0.2098
 5596ntf    fn427232   3.403   6.551   2.282 -0.3021  0.2993  0.1740
 5596ntf    fn427233   3.204   6.478   2.297  0.6177 -0.2372  0.3033
 5596ntf    on527234   3.269   6.308   2.544  0.2909 -0.0954  0.2224
 5596ntf    on527235   3.412   6.258   2.347 -0.4488 -0.7469 -0.3472
 5596ntf    on527236   3.727   6.469   2.454  0.3394 -0.1500 -0.0154
 5596ntf    on527237   3.681   6.233   2.515  0.0940  0.3152 -0.7127
 5596ntf    fn427238   3.721   6.543   2.712  0.0187  0.1249  0.7135
 5596ntf    fn427239   3.629   6.376   2.795  0.7343 -0.3706  0.0351
 5596ntf    fn427240   3.831   6.373   2.707  0.0234  0.2930  0.0687
 5597ntf    cn127241   4.999   6.189   3.888 -0.2594  0.0386 -0.0819
 5597ntf    sn227242   5.047   6.296   4.027  0.2411 -0.1384 -0.1176
 5597ntf    nn327243   5.090   6.193   4.137  0.4213 -0.5541 -0.5739
 5597ntf    sn227244   4.993   6.131   4.244  0.2437  0.4041 -0.1641
 5597ntf    cn127245   5.009   6.236   4.391 -0.1383  0.4078 -0.1266
 5597ntf    fn427246   4.920   6.087   3.917  0.0540 -0.2699 -0.3159
 5597ntf    fn427247   4.946   6.259   3.789 -0.3980  0.0773  0.0194
 5597ntf    fn427248   5.111   6.137   3.842 -0.1878 -0.0949  0.2370
 5597ntf    on527249   5.169   6.362   3.985  0.4682 -0.1377  0.5194
 5597ntf    on527250   4.935   6.382   4.055  0.4973  0.0096  0.4814
 5597ntf    on527251   5.050   6.011   4.301  0.1470  0.1895 -0.5174
 5597ntf    on527252   4.857   6.121   4.198  0.2304  0.1907 -0.0817
 5597ntf    fn427253   5.132   6.238   4.440  0.0164 -0.0884 -0.4940
 5597ntf    fn427254   4.980   6.364   4.370  0.6821  0.6250  0.0501
 5597ntf    fn427255   4.940   6.190   4.494  0.0408  0.3348 -0.0393
 5598ntf    cn127256   7.621   3.475   5.654  0.2221  0.1407  0.2637
 5598ntf    sn227257   7.461   3.430   5.728  0.1176 -0.1454 -0.1384
 5598ntf    nn327258   7.514   3.390   5.870  0.2144 -0.2779 -0.2119
 5598ntf    sn227259   7.533   3.254   5.946  0.0998 -0.2641 -0.1573
 5598ntf    cn127260   7.381   3.248   6.045  0.3157  0.2312  0.2029
 5598ntf    fn427261   7.688   3.557   5.734  0.6810  0.0668 -0.0439
 5598ntf    fn427262   7.705   3.375   5.636  0.1278  0.0088  0.5424
 5598ntf    fn427263   7.613   3.542   5.541  0.0695  0.4501  0.4565
 5598ntf    on527264   7.379   3.549   5.734  0.1187 -0.1685  0.3108
 5598ntf    on527265   7.412   3.315   5.655 -0.5169  0.0171  0.0263
 5598ntf    on527266   7.642   3.254   6.041 -0.1671 -0.3053  0.1480
 5598ntf    on527267   7.526   3.139   5.859 -0.0147 -0.4096  0.0444
 5598ntf    fn427268   7.387   3.331   6.148  0.0953  0.0804  0.3384
 5598ntf    fn427269   7.276   3.300   5.984  0.3370  0.2169  0.1539
 5598ntf    fn427270   7.346   3.127   6.085 -0.9564  0.4522 -0.2056
 5599ntf    cn127271   4.381   2.205   0.353 -0.0846 -0.3803 -0.2144
 5599ntf    sn227272   4.319   2.038   0.317 -0.0937 -0.3885 -0.1599
 5599ntf    nn327273   4.425   1.965   0.407 -0.1012 -0.4874 -0.2310
 5599ntf    sn227274   4.461   1.813   0.413 -0.1213 -0.4982 -0.3872
 5599ntf    cn127275   4.440   1.795   0.592 -0.2982  0.1583 -0.3390
 5599ntf    fn427276   4.369   2.245   0.479 -0.3981 -0.3824 -0.2424
 5599ntf    fn427277   4.512   2.215   0.339  0.0650 -0.4620  1.0252
 5599ntf    fn427278   4.322   2.295   0.276  0.1028 -0.4921 -0.4897
 5599ntf    on527279   4.181   2.046   0.355 -0.0385 -0.0323 -0.0301
 5599ntf    on527280   4.341   2.014   0.176  0.3777 -0.5886 -0.0526
 5599ntf    on527281   4.602   1.781   0.404 -0.1051 -0.5251 -0.0208
 5599ntf    on527282   4.362   1.720   0.364 -0.4361 -0.3082 -0.1048
 5599ntf    fn427283   4.492   1.889   0.669 -0.4226 -0.1476  0.1298
 5599ntf    fn427284   4.313   1.801   0.627 -0.2701  0.1733 -0.2374
 5599ntf    fn427285   4.482   1.677   0.635 -0.0536  0.2169 -0.4157
 5600ntf    cn127286   5.342   5.689   2.930 -0.0335  0.3022 -0.3009
 5600ntf    sn227287   5.240   5.802   2.830 -0.4110  0.2676  0.0468
 5600ntf    nn327288   5.094   5.766   2.875 -0.4463  0.2939 -0.0462
 5600ntf    sn227289   5.031   5.622   2.878  0.0890  0.0621  0.1143
 5600ntf    cn127290   4.867   5.661   2.811 -0.0180  0.0969  0.3911
 5600ntf    fn427291   5.302   5.705   3.055  0.0471  0.1345 -0.2543
 5600ntf    fn427292   5.330   5.560   2.902 -0.8346  0.4020 -0.4439
 5600ntf    fn427293   5.468   5.730   2.924  0.0419  0.0645 -0.3443
 5600ntf    on527294   5.274   5.938   2.863  0.2566  0.0096  0.4495
 5600ntf    on527295   5.275   5.763   2.696  0.5641  0.4349  0.2466
 5600ntf    on527296   5.000   5.580   3.013  0.1739  0.1142  0.1506
 5600ntf    on527297   5.091   5.526   2.789  0.2250  0.2146  0.0419
 5600ntf    fn427298   4.806   5.552   2.766  0.2803 -0.0220  0.2706
 5600ntf    fn427299   4.784   5.714   2.899 -0.3855  0.8085 -0.3754
 5600ntf    fn427300   4.873   5.744   2.708 -0.1076  0.4879  0.7022
 5601ntf    cn127301   2.840   1.787   7.293  0.3957  0.1914  0.2351
 5601ntf    sn227302   2.970   1.781   7.420  0.4501 -0.1299  0.1649
 5601ntf    nn327303   3.047   1.914   7.389  0.7467 -0.2349  0.4403
 5601ntf    sn227304   3.074   2.039   7.481 -0.1189  0.1425  0.1982
 5601ntf    cn127305   3.182   2.145   7.379 -0.1154 -0.0344  0.0167
 5601ntf    fn427306   2.904   1.796   7.177 -0.4378 -0.1108 -0.2547
 5601ntf    fn427307   2.768   1.677   7.290  0.1567  0.3485  0.2150
 5601ntf    fn427308   2.756   1.889   7.292 -0.0464 -0.1693 -0.2814
 5601ntf    on527309   2.889   1.789   7.540 -0.4048 -0.0239 -0.4122
 5601ntf    on527310   3.047   1.661   7.401  0.3916 -0.2339  0.5752
 5601ntf    on527311   3.149   2.018   7.602  0.4272 -0.5622 -0.2522
 5601ntf    on527312   2.956   2.120   7.488 -0.1826  0.0247  0.5058
 5601ntf    fn427313   3.104   2.216   7.299 -0.1692 -0.3568 -0.2196
 5601ntf    fn427314   3.249   2.239   7.442 -0.3546 -0.2047  0.5349
 5601ntf    fn427315   3.261   2.078   7.297 -0.3253 -0.6582  0.3176
 5602ntf    cn127316   6.536   3.713   0.725  0.1176  0.0818 -0.1550
 5602ntf    sn227317   6.626   3.685   0.880 -0.5607  0.2082  0.2640
 5602ntf    nn327318   6.773   3.674   0.826 -0.5915 -0.3327  0.2883
 5602ntf    sn227319   6.877   3.570   0.880 -0.0947 -0.0851 -0.1763
 5602ntf    cn127320   7.021   3.635   0.790  0.3115 -0.2446  0.3456
 5602ntf    fn427321   6.417   3.767   0.743  0.1056  0.0147 -0.0348
 5602ntf    fn427322   6.594   3.807   0.652  0.8381  0.1943  0.5434
 5602ntf    fn427323   6.528   3.598   0.659 -0.5683 -0.1463  0.3095
 5602ntf    on527324   6.606   3.814   0.942  0.5232  0.4658  0.1076
 5602ntf    on527325   6.569   3.568   0.941 -0.4455  0.2064  0.3697
 5602ntf    on527326   6.870   3.433   0.837  0.1770  0.2029 -1.1413
 5602ntf    on527327   6.922   3.592   1.016  0.4165  0.2630 -0.3978
 5602ntf    fn427328   7.140   3.592   0.828  0.4879  0.3320  0.4514
 5602ntf    fn427329   7.013   3.620   0.658 -0.2051 -0.0561  0.3545
 5602ntf    fn427330   7.028   3.765   0.810 -0.0706 -0.1185 -0.2746
 5603ntf    cn127331   7.064   6.377   0.406 -0.1329  0.0217  0.1895
 5603ntf    sn227332   7.135   6.409   0.571  0.2579 -0.2623  0.0768
 5603ntf    nn327333   7.024   6.492   0.644  0.0418  0.1166 -0.6670
 5603ntf    sn227334   7.005   6.648   0.644 -0.0351  0.1138  0.2978
 5603ntf    cn127335   7.083   6.680   0.805  0.1427  0.2189  0.1921
 5603ntf    fn427336   6.969   6.285   0.409 -0.3804  0.2806  0.3471
 5603ntf    fn427337   7.007   6.484   0.353  0.0817 -0.1000 -0.2886
 5603ntf    fn427338   7.157   6.336   0.322 -0.2393 -0.1284  0.1443
 5603ntf    on527339   7.152   6.287   0.645  0.2827 -0.3035  0.0043
 5603ntf    on527340   7.259   6.477   0.542  0.2011 -0.1192  0.1736
 5603ntf    on527341   6.865   6.676   0.663 -0.1719 -0.3103 -0.0696
 5603ntf    on527342   7.074   6.723   0.541  0.1644 -0.1343  0.2500
 5603ntf    fn427343   7.084   6.812   0.820 -0.0535  0.3276 -0.7303
 5603ntf    fn427344   7.015   6.616   0.899  0.2244  0.1588  0.2093
 5603ntf    fn427345   7.208   6.639   0.796  0.2965  0.7079  0.0379
 5604ntf    cn127346   0.485   4.351   2.685  0.2279 -0.8574  0.0711
 5604ntf    sn227347   0.614   4.458   2.616 -0.3601  0.0044  0.2933
 5604ntf    nn327348   0.546   4.599   2.630 -0.7549 -0.2219  0.6626
 5604ntf    sn227349   0.554   4.702   2.748  0.1879  0.1459  0.2862
 5604ntf    cn127350   0.688   4.808   2.687 -0.1333  0.3714 -0.0381
 5604ntf    fn427351   0.361   4.354   2.639  0.0584 -0.6386  0.5444
 5604ntf    fn427352   0.530   4.227   2.675  0.8659 -0.5856 -0.4887
 5604ntf    fn427353   0.471   4.366   2.815  0.0736 -0.4475  0.0092
 5604ntf    on527354   0.725   4.429   2.704  0.3971 -0.0281 -0.6534
 5604ntf    on527355   0.625   4.417   2.478 -0.6197 -0.3641  0.3819
 5604ntf    on527356   0.583   4.656   2.881 -0.4275 -0.0229  0.3654
 5604ntf    on527357   0.439   4.787   2.731 -0.1256 -0.3606 -0.1673
 5604ntf    fn427358   0.677   4.826   2.557 -0.4129  0.6018  0.0165
 5604ntf    fn427359   0.694   4.916   2.763  0.3966  0.6553 -0.4723
 5604ntf    fn427360   0.804   4.749   2.710 -0.0845  0.3963 -0.2226
 5605ntf    cn127361   2.423   2.817   6.873  0.0425  0.0088  0.1447
 5605ntf    sn227362   2.428   2.677   6.756  0.0274  0.1930 -0.0769
 5605ntf    nn327363   2.336   2.731   6.640  0.0384 -0.3175 -0.3246
 5605ntf    sn227364   2.377   2.784   6.498  0.3011  0.1964 -0.0592
 5605ntf    cn127365   2.323   2.643   6.397 -0.4929  0.1990  0.3530
 5605ntf    fn427366   2.300   2.863   6.880  0.1246  0.2197  0.1961
 5605ntf    fn427367   2.461   2.795   6.997 -0.1516  0.6127  0.3113
 5605ntf    fn427368   2.481   2.923   6.819 -0.6080  0.7091  0.8026
 5605ntf    on527369   2.569   2.660   6.735 -0.0876 -0.5813 -0.2325
 5605ntf    on527370   2.353   2.571   6.819 -0.3621  0.2501 -0.4398
 5605ntf    on527371   2.519   2.803   6.481  0.3114 -0.0387 -0.2459
 5605ntf    on527372   2.280   2.886   6.467  0.3946  0.3084  0.0151
 5605ntf    fn427373   2.381   2.652   6.278 -0.1350  0.6039  0.5551
 5605ntf    fn427374   2.354   2.524   6.445 -0.5015 -0.0976 -0.3609
 5605ntf    fn427375   2.193   2.655   6.378 -0.5103  0.2824  0.5229
 5606ntf    cn127376   5.545   2.867   6.319  0.0422  0.7301  0.0936
 5606ntf    sn227377   5.384   2.854   6.402  0.0612 -0.0504  0.0149
 5606ntf    nn327378   5.298   2.760   6.309  0.8110 -0.5630 -0.1656
 5606ntf    sn227379   5.177   2.675   6.361  0.3471  0.3117  0.2058
 5606ntf    cn127380   5.039   2.787   6.322  0.0608  0.0805  0.5473
 5606ntf    fn427381   5.627   2.959   6.364  0.3293  0.4827  0.0786
 5606ntf    fn427382   5.612   2.753   6.323 -0.0819  0.6690  0.4058
 5606ntf    fn427383   5.520   2.888   6.190 -0.1481 -0.2280 -0.0338
 5606ntf    on527384   5.424   2.797   6.528 -0.1152 -0.3203 -0.0502
 5606ntf    on527385   5.348   2.993   6.401  0.6189  0.0950 -0.4472
 5606ntf    on527386   5.165   2.661   6.504  0.0087  1.1787  0.2662
 5606ntf    on527387   5.152   2.558   6.280  0.2833  0.5764 -0.1607
 5606ntf    fn427388   5.028   2.886   6.408 -0.7446 -0.1648  0.7331
 5606ntf    fn427389   5.055   2.839   6.201 -0.4428 -0.2641  0.3259
 5606ntf    fn427390   4.922   2.726   6.325  0.0582  0.0330 -0.2598
 5607ntf    cn127391   5.790   4.233   5.637  0.0867 -0.2459 -0.2314
 5607ntf    sn227392   5.736   4.060   5.650  0.1185 -0.1842  0.8264
 5607ntf    nn327393   5.827   3.993   5.541 -0.3670  0.6973 -0.1379
 5607ntf    sn227394   5.798   3.890   5.427  0.3172  0.0178  0.2865
 5607ntf    cn127395   5.685   3.767   5.498 -0.0837  0.0951 -0.2065
 5607ntf    fn427396   5.710   4.310   5.710  0.3401  0.1291 -0.3459
 5607ntf    fn427397   5.915   4.240   5.681  0.1136 -0.4778 -0.2720
 5607ntf    fn427398   5.777   4.271   5.511 -0.8423 -0.4081 -0.1869
 5607ntf    on527399   5.774   4.030   5.786 -0.2223 -0.4074  0.8724
 5607ntf    on527400   5.597   4.060   5.612  0.3186 -0.2699  0.0956
 5607ntf    on527401   5.916   3.812   5.401  0.6322  0.7192 -0.4623
 5607ntf    on527402   5.739   3.945   5.307 -0.2593 -0.2106  0.4637
 5607ntf    fn427403   5.738   3.725   5.612 -0.0598 -1.0559 -0.6254
 5607ntf    fn427404   5.567   3.812   5.535  0.0628  0.4954 -0.2276
 5607ntf    fn427405   5.667   3.659   5.423  0.2086  0.1731 -0.3930
 5608ntf    cn127406   7.618   5.472   4.702 -0.0157 -0.5334  0.2001
 5608ntf    sn227407   7.726   5.456   4.848  0.3365  0.0092  0.0026
 5608ntf    nn327408   7.836   5.360   4.791 -0.1456 -0.1976 -0.5982
 5608ntf    sn227409   7.991   5.371   4.769 -0.1321  0.2020 -0.3261
 5608ntf    cn127410   8.046   5.301   4.928 -0.2378 -0.2034 -0.4660
 5608ntf    fn427411   7.488   5.474   4.722 -0.0345 -0.5564  0.0814
 5608ntf    fn427412   7.648   5.581   4.633 -0.1170 -0.3825  0.3926
 5608ntf    fn427413   7.633   5.370   4.619 -0.4302 -0.7816  0.4278
 5608ntf    on527414   7.775   5.587   4.885  0.3336  0.1136 -0.3620
 5608ntf    on527415   7.632   5.391   4.936 -0.0658  0.1847 -0.2933
 5608ntf    on527416   8.043   5.505   4.765  0.7707 -0.1144  0.3626
 5608ntf    on527417   8.040   5.273   4.675  0.2709  0.0451  0.0448
 5608ntf    fn427418   8.015   5.377   5.031 -0.7780 -0.3628 -0.5064
 5608ntf    fn427419   8.001   5.179   4.949 -0.2087 -0.1431 -0.0445
 5608ntf    fn427420   8.178   5.291   4.934 -0.2640 -0.4856 -0.3551
 5609ntf    cn127421   5.226   1.745   0.004 -0.5087 -0.1096  0.1001
 5609ntf    sn227422   5.159   1.786   0.167 -0.1205  0.1348  0.1985
 5609ntf    nn327423   5.105   1.644   0.206  0.0270 -0.0796 -0.3749
 5609ntf    sn227424   5.181   1.526   0.277 -0.3259 -0.0644  0.0346
 5609ntf    cn127425   5.156   1.576   0.450  0.1191  0.4798 -0.0570
 5609ntf    fn427426   5.140   1.720  -0.094 -0.1068 -0.7396 -0.1031
 5609ntf    fn427427   5.295   1.848  -0.041 -0.5725  0.1610  0.6252
 5609ntf    fn427428   5.312   1.645  -0.001 -0.0374  0.3147 -0.4076
 5609ntf    on527429   5.276   1.833   0.236  0.2313  0.1101 -0.3793
 5609ntf    on527430   5.043   1.872   0.157 -0.2161 -0.0518 -0.3145
 5609ntf    on527431   5.323   1.516   0.252 -0.2751  0.5503  0.0573
 5609ntf    on527432   5.099   1.408   0.262 -0.2961 -0.0171 -0.5225
 5609ntf    fn427433   5.215   1.490   0.531  0.0946  0.7525  0.2503
 5609ntf    fn427434   5.187   1.701   0.480  0.3690  0.3484  0.2396
 5609ntf    fn427435   5.030   1.580   0.487  0.0639  0.4820 -0.2440
 5610ntf    cn127436   1.036   5.847   0.017 -0.1771  0.1057 -0.6934
 5610ntf    sn227437   0.856   5.828   0.029 -0.0739 -0.3398  0.2587
 5610ntf    nn327438   0.818   5.824   0.181  0.9450  0.0212  0.5256
 5610ntf    sn227439   0.833   5.949   0.276 -0.1089  0.4486  0.1401
 5610ntf    cn127440   0.658   6.000   0.283 -0.2505 -0.0643  0.4333
 5610ntf    fn427441   1.108   5.736   0.023 -0.5546 -0.1276 -0.4489
 5610ntf    fn427442   1.072   5.905  -0.096 -0.3909  0.2357 -0.6952
 5610ntf    fn427443   1.081   5.933   0.108 -0.5073  0.0501 -0.4746
 5610ntf    on527444   0.800   5.942  -0.040 -0.5491 -0.1695  0.9140
 5610ntf    on527445   0.842   5.696  -0.027 -1.1965 -0.0874 -0.0940
 5610ntf    on527446   0.908   6.062   0.229  0.1522  0.0930 -0.3058
 5610ntf    on527447   0.859   5.905   0.411 -0.1951  0.2004  0.0773
 5610ntf    fn427448   0.589   5.919   0.361 -0.5199  0.3171  0.5884
 5610ntf    fn427449   0.632   6.116   0.340 -0.7946  0.0271  0.0097
 5610ntf    fn427450   0.594   5.992   0.167 -0.2328 -0.7975  0.4659
 5611ntf    cn127451   6.106   2.209   4.652 -0.2525  0.8620  0.2541
 5611ntf    sn227452   6.088   2.214   4.833  0.2463  0.0497  0.3313
 5611ntf    nn327453   5.941   2.163   4.849  0.2563 -0.0436  0.1269
 5611ntf    sn227454   5.891   2.014   4.860  0.1333 -0.0466 -0.4479
 5611ntf    cn127455   5.876   1.989   5.039 -0.2145 -0.0388 -0.4762
 5611ntf    fn427456   6.219   2.258   4.603  0.0957 -0.3955 -0.2368
 5611ntf    fn427457   6.109   2.084   4.609 -0.3037  0.8610  0.2538
 5611ntf    fn427458   6.009   2.265   4.581 -0.4580 -0.0023 -0.1603
 5611ntf    on527459   6.192   2.129   4.886  0.5527 -0.3089 -0.8031
 5611ntf    on527460   6.103   2.356   4.853 -0.0473  0.1233  0.0351
 5611ntf    on527461   5.983   1.911   4.817 -0.4612 -0.3633 -0.9858
 5611ntf    on527462   5.756   1.996   4.814 -0.3521 -0.6658  1.1633
 5611ntf    fn427463   5.818   2.089   5.105  0.2065 -0.0677 -0.0565
 5611ntf    fn427464   5.823   1.874   5.076 -0.0108  0.2339  0.6970
 5611ntf    fn427465   5.998   1.991   5.091 -0.4855  0.0229  0.1687
 5612ntf    cn127466   7.064   2.376   3.202  0.3885  0.4998  0.3964
 5612ntf    sn227467   6.943   2.277   3.295  0.3061  0.0937 -0.1411
 5612ntf    nn327468   6.966   2.128   3.253 -0.0466  0.1715 -0.6206
 5612ntf    sn227469   6.861   2.011   3.246  0.1309 -0.0135 -0.2244
 5612ntf    cn127470   6.799   2.013   3.075  0.4925 -0.1197 -0.3579
 5612ntf    fn427471   7.183   2.321   3.183  0.3583  0.7168 -0.4635
 5612ntf    fn427472   7.023   2.411   3.082  0.9120 -0.0797  0.0441
 5612ntf    fn427473   7.092   2.493   3.257  0.2809  0.6135  0.2102
 5612ntf    on527474   6.985   2.295   3.432  0.4933  0.3181 -0.2265
 5612ntf    on527475   6.816   2.330   3.253  0.3104 -0.0021 -0.2778
 5612ntf    on527476   6.748   2.029   3.333  0.2172 -0.7868  0.0571
 5612ntf    on527477   6.923   1.882   3.262  0.5739  0.1856 -0.3081
 5612ntf    fn427478   6.902   2.001   2.993  0.1766  0.1685 -0.7990
 5612ntf    fn427479   6.717   1.914   3.041  0.1765 -0.0472  0.1771
 5612ntf    fn427480   6.746   2.129   3.041 -0.8494 -0.4269  0.6118
 5613ntf    cn127481   1.144   3.199   5.841 -0.1788 -0.2442  0.0149
 5613ntf    sn227482   1.165   3.105   5.994  0.2713 -0.2794 -0.0685
 5613ntf    nn327483   1.183   2.955   5.950  0.0949 -0.4166  0.3174
 5613ntf    sn227484   1.312   2.866   5.958  0.1956 -0.2886  0.1383
 5613ntf    cn127485   1.303   2.825   6.135  0.3419 -0.2423  0.1562
 5613ntf    fn427486   1.045   3.160   5.762 -0.3927 -0.1842  0.2534
 5613ntf    fn427487   1.124   3.327   5.868 -0.3933 -0.3250  0.2420
 5613ntf    fn427488   1.250   3.192   5.763  0.3030 -0.0058  0.6436
 5613ntf    on527489   1.286   3.160   6.050  0.1888 -0.4339  0.2649
 5613ntf    on527490   1.050   3.134   6.076  0.5720 -0.3454  0.3850
 5613ntf    on527491   1.433   2.936   5.922 -0.3180  0.3877 -0.2926
 5613ntf    on527492   1.290   2.745   5.882 -0.1021  0.1377 -0.4650
 5613ntf    fn427493   1.380   2.724   6.173  0.1869 -0.2793  0.3717
 5613ntf    fn427494   1.336   2.926   6.214 -0.0498  0.3541 -0.4330
 5613ntf    fn427495   1.180   2.794   6.171  0.2821  0.2401  0.3843
 5614ntf    cn127496   2.079   6.558   5.144 -0.3156  0.2867  0.5539
 5614ntf    sn227497   2.004   6.400   5.093  0.0677  0.3113 -0.0877
 5614ntf    nn327498   1.876   6.452   5.018 -0.0947  0.4729  0.3030
 5614ntf    sn227499   1.822   6.413   4.876 -0.0519 -0.0548  0.4293
 5614ntf    cn127500   1.845   6.569   4.785  0.0943 -0.3780 -0.0890
 5614ntf    fn427501   2.150   6.551   5.256  0.7218  0.6826 -0.0596
 5614ntf    fn427502   2.167   6.597   5.053 -0.0515 -0.5250  0.4509
 5614ntf    fn427503   1.988   6.652   5.163 -0.6573 -0.0423  0.5521
 5614ntf    on527504   2.114   6.347   5.016  0.0779 -0.2972  0.3426
 5614ntf    on527505   1.985   6.334   5.220  0.7278  0.4375  0.0829
 5614ntf    on527506   1.682   6.382   4.872 -0.1023  0.2201 -0.0375
 5614ntf    on527507   1.909   6.333   4.793 -0.6264 -0.0351 -0.1990
 5614ntf    fn427508   1.772   6.667   4.834  0.1645  0.0606 -0.8535
 5614ntf    fn427509   1.973   6.599   4.797 -0.0970  0.3795  0.0576
 5614ntf    fn427510   1.816   6.546   4.658 -0.2260 -0.3215 -0.0277
 5615ntf    cn127511   5.368   3.852   1.743 -0.0270 -0.5065  0.0746
 5615ntf    sn227512   5.529   3.924   1.788 -0.2472  0.1078 -0.1190
 5615ntf    nn327513   5.542   3.875   1.937 -0.9988 -0.2057 -0.1503
 5615ntf    sn227514   5.543   3.960   2.069  0.0426 -0.0410 -0.2570
 5615ntf    cn127515   5.711   4.029   2.065 -0.0649  0.2078 -0.4654
 5615ntf    fn427516   5.276   3.867   1.837 -0.4985 -0.3460 -0.4064
 5615ntf    fn427517   5.318   3.903   1.632  0.6782 -0.3342 -0.1672
 5615ntf    fn427518   5.361   3.720   1.731 -0.5422 -0.4949  0.2110
 5615ntf    on527519   5.622   3.857   1.702  0.2381 -0.0475  0.5216
 5615ntf    on527520   5.508   4.066   1.770 -0.1480  0.0802 -0.4590
 5615ntf    on527521   5.541   3.866   2.179 -0.2175  0.0425 -0.1914
 5615ntf    on527522   5.449   4.069   2.073 -0.1350 -0.2025  0.0008
 5615ntf    fn427523   5.764   4.051   2.184 -0.3331  0.6299 -0.4196
 5615ntf    fn427524   5.799   3.957   1.997  0.2537  0.1200  0.0353
 5615ntf    fn427525   5.718   4.149   2.009  0.1030  0.4737  0.1203
 5616ntf    cn127526   0.715   5.439   4.349  0.0747  0.3046  0.2902
 5616ntf    sn227527   0.840   5.527   4.251  0.0050 -0.0050 -0.0813
 5616ntf    nn327528   0.930   5.411   4.195  0.1812  0.1311 -0.0805
 5616ntf    sn227529   1.042   5.413   4.085  0.1386  0.2224 -0.1233
 5616ntf    cn127530   0.974   5.319   3.945  0.0321  0.1337 -0.0123
 5616ntf    fn427531   0.631   5.525   4.405 -0.1753 -0.2054  0.7061
 5616ntf    fn427532   0.653   5.353   4.269  0.2068 -0.1157  0.6372
 5616ntf    fn427533   0.766   5.357   4.439 -0.2026  0.3647  0.5048
 5616ntf    on527534   0.760   5.596   4.152  0.0289  0.0470 -0.0643
 5616ntf    on527535   0.911   5.605   4.350  0.6544 -0.6532 -0.0277
 5616ntf    on527536   1.155   5.333   4.128 -0.0895 -0.2306 -0.3595
 5616ntf    on527537   1.075   5.545   4.040 -0.4598  0.3867 -0.0866
 5616ntf    fn427538   1.062   5.310   3.847  0.2035 -0.2757  0.1793
 5616ntf    fn427539   0.934   5.196   3.971  0.2190  0.2675  0.9585
 5616ntf    fn427540   0.874   5.381   3.885 -0.1238 -0.6626 -0.5943
 5617ntf    cn127541   3.161   6.257   7.171 -0.1778  0.4138 -0.8421
 5617ntf    sn227542   3.024   6.151   7.227  0.1939  0.1398 -0.4437
 5617ntf    nn327543   3.096   6.071   7.341  0.7279  0.2607 -0.6950
 5617ntf    sn227544   3.119   5.916   7.353  0.0058  0.1778 -0.3033
 5617ntf    cn127545   3.283   5.927   7.431 -0.1116 -0.2491  0.0059
 5617ntf    fn427546   3.114   6.362   7.105  0.2430  0.6354 -0.7905
 5617ntf    fn427547   3.234   6.301   7.272 -0.4585  0.2799 -0.5790
 5617ntf    fn427548   3.246   6.185   7.100  0.1851 -0.0651  0.0591
 5617ntf    on527549   2.924   6.241   7.278  0.8665  0.3230  0.5812
 5617ntf    on527550   2.993   6.078   7.107  0.7586 -0.0665 -0.4673
 5617ntf    on527551   3.163   5.850   7.232  0.1340 -0.1708 -0.0655
 5617ntf    on527552   3.046   5.842   7.452  0.0823  0.6637  0.1220
 5617ntf    fn427553   3.351   5.813   7.431 -0.1246 -0.2604  0.6627
 5617ntf    fn427554   3.360   6.013   7.366  0.0443 -0.3358  0.0766
 5617ntf    fn427555   3.278   5.958   7.559 -0.6577  0.2896 -0.1391
 5618ntf    cn127556   6.355   2.997   5.571  0.1945  0.0634 -0.0238
 5618ntf    sn227557   6.498   2.986   5.683 -0.0249 -0.2034  0.2298
 5618ntf    nn327558   6.614   2.966   5.579 -0.1518 -0.2105  0.0888
 5618ntf    sn227559   6.688   2.833   5.544  0.1981 -0.0384  0.1670
 5618ntf    cn127560   6.838   2.900   5.466  0.0105  0.1880 -0.0008
 5618ntf    fn427561   6.372   3.112   5.508 -0.1823  0.2846  0.2738
 5618ntf    fn427562   6.345   2.900   5.481  0.2827 -0.2671  0.3210
 5618ntf    fn427563   6.234   2.997   5.624 -0.2528  0.1491 -1.0171
 5618ntf    on527564   6.505   3.112   5.753 -0.9072  0.0534 -0.1306
 5618ntf    on527565   6.461   2.876   5.769 -0.5043 -0.0660  0.2026
 5618ntf    on527566   6.630   2.752   5.439  0.7821  0.0493 -0.2305
 5618ntf    on527567   6.740   2.765   5.660  0.4455  0.5288  0.3892
 5618ntf    fn427568   6.891   2.797   5.402  0.7768  0.7242 -0.2475
 5618ntf    fn427569   6.812   2.999   5.383  0.3056  0.5702  0.3602
 5618ntf    fn427570   6.933   2.944   5.546  0.4281  0.1374 -0.4617
 5619ntf    cn127571   7.271   0.640   1.940 -0.0995 -0.2586  0.0250
 5619ntf    sn227572   7.093   0.651   1.979 -0.1025 -0.1401 -0.0230
 5619ntf    nn327573   7.074   0.503   2.026 -0.1732 -0.1527 -0.0925
 5619ntf    sn227574   7.126   0.433   2.156  0.2827 -0.0537 -0.2219
 5619ntf    cn127575   6.979   0.416   2.261  0.2963  0.2667 -0.1486
 5619ntf    fn427576   7.298   0.755   1.880 -0.0171  0.1089  0.7473
 5619ntf    fn427577   7.364   0.632   2.033 -0.0502 -0.4923 -0.0451
 5619ntf    fn427578   7.296   0.551   1.846 -0.8101 -0.0763 -0.3443
 5619ntf    on527579   7.067   0.746   2.084  0.2077 -0.4282  0.3164
 5619ntf    on527580   7.023   0.669   1.854  0.5165  1.1517 -0.2080
 5619ntf    on527581   7.208   0.515   2.243  0.2005 -0.3672  0.1534
 5619ntf    on527582   7.162   0.296   2.132 -0.4379 -0.2060 -0.4511
 5619ntf    fn427583   6.859   0.403   2.206  0.1237 -0.0939  0.3058
 5619ntf    fn427584   6.987   0.313   2.344  0.1539  0.2203 -0.1916
 5619ntf    fn427585   6.969   0.524   2.337 -0.0430 -0.1830  0.4602
 5620ntf    cn127586   1.275   1.692   6.685  0.2609  0.1512 -0.1906
 5620ntf    sn227587   1.435   1.724   6.605  0.0883  0.4436 -0.4215
 5620ntf    nn327588   1.499   1.845   6.682 -0.3734  0.2068  0.3443
 5620ntf    sn227589   1.585   1.854   6.813  0.3335  0.1044 -0.1078
 5620ntf    cn127590   1.737   1.943   6.765  0.2158  0.4130  0.0857
 5620ntf    fn427591   1.181   1.764   6.627  0.0202 -0.3835 -0.4646
 5620ntf    fn427592   1.229   1.569   6.673 -0.0212  0.2221  0.1390
 5620ntf    fn427593   1.254   1.715   6.814  0.1597  0.3162 -0.2373
 5620ntf    on527594   1.506   1.598   6.596  0.0154  0.3123  0.6795
 5620ntf    on527595   1.392   1.777   6.478 -0.4312  0.4097 -0.2621
 5620ntf    on527596   1.632   1.724   6.854 -0.3320 -0.3238 -0.6754
 5620ntf    on527597   1.523   1.932   6.918  0.2062 -0.0944 -0.0347
 5620ntf    fn427598   1.838   1.896   6.838 -0.1407 -0.1339  0.2390
 5620ntf    fn427599   1.774   1.937   6.639 -0.3349  0.5730 -0.0837
 5620ntf    fn427600   1.724   2.071   6.796 -0.3002  0.2031  0.7709
 5621ntf    cn127601   3.902   3.217   1.030 -0.2442 -0.5077 -0.0415
 5621ntf    sn227602   3.748   3.191   0.937 -0.0268 -0.0959 -0.5181
 5621ntf    nn327603   3.725   3.038   0.957 -0.1517 -0.0239 -0.1014
 5621ntf    sn227604   3.794   2.921   0.878  0.1117  0.0177  0.0646
 5621ntf    cn127605   3.694   2.922   0.726  0.2872 -0.3620 -0.0557
 5621ntf    fn427606   4.001   3.147   0.977  0.6834  0.3345  0.5403
 5621ntf    fn427607   3.944   3.342   1.033 -0.2885 -0.4907 -0.1243
 5621ntf    fn427608   3.892   3.176   1.156  0.4043 -0.5661 -0.0037
 5621ntf    on527609   3.648   3.267   1.008  0.5609  0.2937 -0.0907
 5621ntf    on527610   3.781   3.236   0.804 -0.2138  0.4774 -0.3746
 5621ntf    on527611   3.764   2.793   0.937 -0.3026 -0.0652 -0.3101
 5621ntf    on527612   3.925   2.951   0.827  0.2165 -0.3286  0.1288
 5621ntf    fn427613   3.591   3.005   0.735  0.1050 -0.6316  0.3362
 5621ntf    fn427614   3.754   2.975   0.620 -0.4699 -0.1504 -0.3915
 5621ntf    fn427615   3.655   2.799   0.695 -0.2111 -0.3431  0.4889
 5622ntf    cn127616   4.865   1.174   3.115  0.2689 -0.1161  0.2060
 5622ntf    sn227617   4.866   0.994   3.136 -0.0814 -0.1757 -0.2787
 5622ntf    nn327618   4.812   0.949   2.995 -0.3714  0.8565 -0.5034
 5622ntf    sn227619   4.663   0.914   2.960 -0.2659  0.0066 -0.1280
 5622ntf    cn127620   4.675   0.894   2.780  0.3111  0.3202 -0.1291
 5622ntf    fn427621   4.763   1.217   3.043  0.2556  0.8116  0.7531
 5622ntf    fn427622   4.884   1.252   3.220 -0.1611  0.1652  0.0761
 5622ntf    fn427623   4.966   1.199   3.032  0.2183 -0.1991  0.1199
 5622ntf    on527624   5.008   0.972   3.152 -0.0292  0.4227  0.0606
 5622ntf    on527625   4.774   0.961   3.242  0.0079  0.0390 -0.1350
 5622ntf    on527626   4.574   1.027   2.964  0.2091  0.4058 -0.5461
 5622ntf    on527627   4.619   0.785   3.007  1.0267 -0.3845  0.0708
 5622ntf    fn427628   4.748   0.786   2.760 -0.1717 -0.1201  0.4506
 5622ntf    fn427629   4.559   0.862   2.725  0.7120 -0.4099 -0.5618
 5622ntf    fn427630   4.729   0.991   2.708 -0.1999  0.1077 -0.8163
 5623ntf    cn127631   5.154   6.362   4.884 -0.1517 -0.1070 -0.0191
 5623ntf    sn227632   5.147   6.290   5.051  0.3599 -0.2617 -0.0639
 5623ntf    nn327633   5.293   6.313   5.104  0.4350  0.1397 -0.4383
 5623ntf    sn227634   5.337   6.364   5.246  0.3397 -0.1424 -0.3061
 5623ntf    cn127635   5.345   6.544   5.217 -0.1400 -0.0550  0.0952
 5623ntf    fn427636   5.204   6.278   4.795 -0.1002 -0.1276  0.0282
 5623ntf    fn427637   5.032   6.391   4.843  0.0124  0.1521 -0.3317
 5623ntf    fn427638   5.231   6.469   4.877 -0.2221 -0.0299  0.3898
 5623ntf    on527639   5.037   6.363   5.108  0.3410 -0.6859  0.4558
 5623ntf    on527640   5.125   6.150   5.024  0.0166 -0.0795 -0.7553
 5623ntf    on527641   5.469   6.315   5.279  0.3321  0.1018  0.0948
 5623ntf    on527642   5.235   6.348   5.346  0.5038 -0.7534 -0.2346
 5623ntf    fn427643   5.413   6.577   5.109 -0.7270  0.4724 -0.1189
 5623ntf    fn427644   5.223   6.594   5.212 -0.1429 -0.0283  0.4180
 5623ntf    fn427645   5.403   6.603   5.320 -0.2822  0.4420 -0.1057
 5624ntf    cn127646   2.806   0.039   3.835  0.0544 -0.3953 -0.1584
 5624ntf    sn227647   2.659   0.141   3.804  0.2157  0.0128  0.4012
 5624ntf    nn327648   2.717   0.284   3.833  0.4687  0.0932 -0.4792
 5624ntf    sn227649   2.671   0.403   3.923  0.3746 -0.0958 -0.2756
 5624ntf    cn127650   2.628   0.521   3.791 -0.0097  0.1038  0.0238
 5624ntf    fn427651   2.912   0.077   3.764 -0.0581  0.2476  0.0142
 5624ntf    fn427652   2.848   0.039   3.960 -0.4135  0.0305 -0.0008
 5624ntf    fn427653   2.794  -0.089   3.803 -0.5360 -0.2974 -0.3300
 5624ntf    on527654   2.626   0.115   3.666  0.1302 -0.6133  0.5372
 5624ntf    on527655   2.559   0.097   3.898 -0.3599  0.3351 -0.0594
 5624ntf    on527656   2.777   0.466   3.997 -0.2152  0.0244  0.4817
 5624ntf    on527657   2.548   0.396   3.998  0.6148 -0.6159  0.0717
 5624ntf    fn427658   2.573   0.634   3.832 -0.1360  0.0879 -0.1009
 5624ntf    fn427659   2.740   0.549   3.727  0.2696 -0.1641  0.3871
 5624ntf    fn427660   2.537   0.469   3.710  0.1382  0.2030 -0.2082
 5625ntf    cn127661   4.051   1.993   7.274 -0.1445  0.2748  0.0258
 5625ntf    sn227662   3.954   1.896   7.155 -0.1334 -0.0420  0.2732
 5625ntf    nn327663   3.958   1.757   7.229  0.6924 -0.2414 -0.1286
 5625ntf    sn227664   3.902   1.624   7.168 -0.0074  0.0550 -0.1428
 5625ntf    cn127665   3.786   1.578   7.300  0.5641  0.1981  0.4115
 5625ntf    fn427666   4.052   2.122   7.244  0.0178  0.3925  0.5393
 5625ntf    fn427667   3.991   1.990   7.392 -0.6467  0.0899 -0.2265
 5625ntf    fn427668   4.177   1.959   7.294 -0.1724 -0.0197 -0.2932
 5625ntf    on527669   3.828   1.965   7.144  0.0909  0.2779 -0.3409
 5625ntf    on527670   4.030   1.896   7.032  0.7251  0.0417  0.8004
 5625ntf    on527671   3.996   1.515   7.174 -0.7670 -0.5875  0.3236
 5625ntf    on527672   3.823   1.637   7.048  0.1725  0.6327 -0.2020
 5625ntf    fn427673   3.698   1.673   7.330  0.7121  0.3716  0.2977
 5625ntf    fn427674   3.724   1.465   7.270 -0.0665  0.6199  0.1134
 5625ntf    fn427675   3.849   1.561   7.415 -0.1927 -0.0991  0.7882
 5626ntf    cn127676   0.552   5.068   5.221 -0.3812 -0.0606 -0.2070
 5626ntf    sn227677   0.707   4.996   5.160 -0.1424  0.1242  0.1788
 5626ntf    nn327678   0.814   5.100   5.209  0.0908  0.1617 -0.3997
 5626ntf    sn227679   0.965   5.084   5.250 -0.1119 -0.0603  0.2679
 5626ntf    cn127680   0.952   5.073   5.431 -0.1808  0.1880  0.2774
 5626ntf    fn427681   0.577   5.144   5.326 -0.2019 -0.4767  0.0524
 5626ntf    fn427682   0.511   5.149   5.124 -0.0840  0.9395  0.4887
 5626ntf    fn427683   0.455   4.982   5.249 -0.6125  0.6150  1.1268
 5626ntf    on527684   0.714   4.863   5.214  0.1325 -0.2356 -0.7165
 5626ntf    on527685   0.694   5.018   5.018  0.3485 -0.2973  0.0641
 5626ntf    on527686   1.027   5.214   5.240 -0.3256  0.0348  0.1787
 5626ntf    on527687   1.037   4.962   5.221  0.0417  0.0291  0.2767
 5626ntf    fn427688   0.897   5.181   5.486 -0.3754 -0.1644  0.7834
 5626ntf    fn427689   0.886   4.963   5.464 -0.1554  0.0100 -0.2586
 5626ntf    fn427690   1.066   5.066   5.497 -0.4390  0.2209  0.7317
 5627ntf    cn127691   6.624   5.768   6.021  0.5631  0.2516  0.0040
 5627ntf    sn227692   6.493   5.852   6.113  0.2815 -0.0010 -0.1612
 5627ntf    nn327693   6.455   5.730   6.204 -0.3335  0.2655 -0.0476
 5627ntf    sn227694   6.370   5.602   6.173  0.1051 -0.0092 -0.1364
 5627ntf    cn127695   6.207   5.656   6.235  0.0216 -0.0159 -0.3469
 5627ntf    fn427696   6.592   5.646   5.979  0.0079  0.1849  0.6032
 5627ntf    fn427697   6.657   5.833   5.911  0.3534  0.2239 -0.0771
 5627ntf    fn427698   6.731   5.751   6.096  0.3323  0.2858  0.3389
 5627ntf    on527699   6.575   5.954   6.174  0.0968  0.2901 -0.3991
 5627ntf    on527700   6.390   5.899   6.024  0.0514 -0.1639  0.0168
 5627ntf    on527701   6.403   5.494   6.262  0.1216  0.1095  0.0018
 5627ntf    on527702   6.361   5.577   6.031 -0.2370 -0.3854 -0.0514
 5627ntf    fn427703   6.202   5.665   6.367  0.1647 -0.2408 -0.3251
 5627ntf    fn427704   6.182   5.775   6.185 -0.0408  0.1551  0.0836
 5627ntf    fn427705   6.101   5.587   6.197  0.0422 -0.3385  0.1730
 5628ntf    cn127706   1.363   1.398   5.479  0.0833 -0.2202 -0.0164
 5628ntf    sn227707   1.247   1.495   5.378  0.1484 -0.0809  0.0423
 5628ntf    nn327708   1.127   1.395   5.388  0.2747 -0.2412 -0.0370
 5628ntf    sn227709   1.109   1.270   5.294 -0.2471 -0.0979 -0.1317
 5628ntf    cn127710   1.076   1.139   5.416 -0.0214 -0.2127 -0.1926
 5628ntf    fn427711   1.449   1.476   5.542 -0.2825  0.0018  0.2128
 5628ntf    fn427712   1.305   1.330   5.577  0.1123 -0.3773 -0.1084
 5628ntf    fn427713   1.426   1.301   5.416 -0.3425 -0.1551 -0.5490
 5628ntf    on527714   1.228   1.621   5.445  0.2132 -0.3061  0.4919
 5628ntf    on527715   1.313   1.503   5.249 -0.2361 -0.2912 -0.1682
 5628ntf    on527716   1.227   1.222   5.227  0.0509 -0.5106  0.6769
 5628ntf    on527717   0.998   1.286   5.204 -0.3268  0.3064  0.0345
 5628ntf    fn427718   1.173   1.137   5.506 -0.1634  0.0504 -0.0283
 5628ntf    fn427719   0.961   1.151   5.481  0.0787  0.8982 -0.1974
 5628ntf    fn427720   1.078   1.014   5.372 -0.0943 -0.1683 -0.3234
 5629ntf    cn127721   6.493   0.126   3.591  0.0501 -0.0742 -0.0726
 5629ntf    sn227722   6.540   0.171   3.422 -0.0148  0.1177 -0.0403
 5629ntf    nn327723   6.631   0.051   3.378 -0.2359  0.0841 -0.4094
 5629ntf    sn227724   6.787   0.044   3.375 -0.2309  0.0642 -0.0996
 5629ntf    cn127725   6.837  -0.125   3.329 -0.1091  0.1240 -0.1873
 5629ntf    fn427726   6.596   0.097   3.669  0.0591  0.4836  0.1285
 5629ntf    fn427727   6.440   0.228   3.658  0.2402 -0.0829  0.0957
 5629ntf    fn427728   6.406   0.027   3.599  0.0087 -0.0432 -0.1371
 5629ntf    on527729   6.412   0.169   3.355 -0.0891 -0.0484  0.1070
 5629ntf    on527730   6.612   0.294   3.445  0.6461 -0.2436 -0.1481
 5629ntf    on527731   6.845   0.064   3.506 -0.5124 -0.2909  0.0813
 5629ntf    on527732   6.837   0.122   3.265 -0.2700 -0.1269 -0.2532
 5629ntf    fn427733   6.967  -0.143   3.318 -0.1836 -0.1816 -0.5933
 5629ntf    fn427734   6.798  -0.209   3.424 -0.0814  0.0371 -0.2520
 5629ntf    fn427735   6.789  -0.164   3.212 -0.0959 -0.4547 -0.0059
 5630ntf    cn127736   0.233   6.279   0.864 -0.5175  0.0610 -0.1968
 5630ntf    sn227737   0.089   6.245   0.758 -0.3797  0.3527 -0.4790
 5630ntf    nn327738   0.166   6.183   0.637  0.2662  0.5534 -0.1782
 5630ntf    sn227739   0.169   6.028   0.611 -0.2572  0.4829  0.1565
 5630ntf    cn127740   0.332   6.030   0.530 -0.4610  0.0969 -0.2665
 5630ntf    fn427741   0.332   6.337   0.800 -0.1549 -0.4096 -0.0680
 5630ntf    fn427742   0.203   6.356   0.968 -0.8965 -0.1626 -0.1371
 5630ntf    fn427743   0.288   6.171   0.916 -0.3000  0.2155 -0.1066
 5630ntf    on527744   0.002   6.171   0.847 -0.0989 -0.5931 -0.9827
 5630ntf    on527745   0.046   6.378   0.721 -0.2681  0.6457  0.4054
 5630ntf    on527746   0.075   5.981   0.513  0.3025 -1.3673  0.4684
 5630ntf    on527747   0.208   5.950   0.726  0.4163  0.1939 -0.2602
 5630ntf    fn427748   0.398   5.918   0.554 -0.3956  0.1678 -0.1119
 5630ntf    fn427749   0.328   6.050   0.399  0.3155 -0.6310 -0.4058
 5630ntf    fn427750   0.407   6.132   0.569 -0.0323 -0.0393 -0.7142
 5631ntf    cn127751   6.040   2.343   0.556 -0.3823 -0.2692  0.0182
 5631ntf    sn227752   6.116   2.284   0.402 -0.0625  0.3888 -0.0799
 5631ntf    nn327753   6.254   2.231   0.454  0.1309  0.3726 -0.6067
 5631ntf    sn227754   6.396   2.296   0.444  0.4737 -0.2783 -0.0934
 5631ntf    cn127755   6.471   2.220   0.591 -0.0937 -0.3392  0.1654
 5631ntf    fn427756   6.101   2.451   0.603 -0.2392 -0.2515 -0.2066
 5631ntf    fn427757   5.913   2.378   0.549 -0.2638  0.2084  0.2307
 5631ntf    fn427758   6.047   2.251   0.651  0.2908 -0.2288  0.0162
 5631ntf    on527759   6.033   2.176   0.354 -0.4152  0.3695  0.5663
 5631ntf    on527760   6.120   2.400   0.316 -0.7886  0.2947 -0.2478
 5631ntf    on527761   6.402   2.439   0.462 -0.0076 -0.3087  0.3139
 5631ntf    on527762   6.458   2.241   0.326 -0.5514 -0.7367 -0.4239
 5631ntf    fn427763   6.477   2.088   0.579 -0.2227 -0.3112 -0.2218
 5631ntf    fn427764   6.596   2.263   0.604 -0.0015 -0.5501 -0.0121
 5631ntf    fn427765   6.406   2.246   0.703  0.1309  0.2340  0.1657
 5632ntf    cn127766   6.434   3.976   2.350  0.1471 -0.3425 -0.1591
 5632ntf    sn227767   6.592   3.907   2.291  0.2092  0.0155 -0.4111
 5632ntf    nn327768   6.656   3.861   2.426 -0.3228  0.8466  0.1370
 5632ntf    sn227769   6.768   3.940   2.503  0.1062  0.1605  0.2303
 5632ntf    cn127770   6.758   3.852   2.662  0.2405 -0.1895  0.0478
 5632ntf    fn427771   6.453   4.081   2.428  0.1386 -0.3846 -0.1000
 5632ntf    fn427772   6.355   4.007   2.248 -0.1738 -0.7268 -0.0326
 5632ntf    fn427773   6.379   3.879   2.422 -0.4096 -0.3026 -0.5227
 5632ntf    on527774   6.542   3.792   2.220  0.4095 -0.4864  0.2574
 5632ntf    on527775   6.652   4.017   2.219  0.3347 -0.2187 -0.6656
 5632ntf    on527776   6.744   4.076   2.542  0.1827  0.1834  0.1972
 5632ntf    on527777   6.900   3.908   2.456 -0.0621  0.4737 -0.4852
 5632ntf    fn427778   6.820   3.736   2.660  0.4156 -0.1081  0.6274
 5632ntf    fn427779   6.818   3.922   2.757 -0.0066  0.5643 -0.3401
 5632ntf    fn427780   6.632   3.837   2.701  0.1337 -0.5323 -0.4163
 5633ntf    cn127781   3.479   6.425   3.995  0.1993  0.0906 -0.5049
 5633ntf    sn227782   3.649   6.444   3.934  0.3889 -0.1361 -0.0584
 5633ntf    nn327783   3.695   6.559   4.030  0.0256  0.2365 -0.3222
 5633ntf    sn227784   3.762   6.558   4.172 -0.1612  0.1687 -0.2347
 5633ntf    cn127785   3.910   6.654   4.129  0.0596 -0.0263  0.0816
 5633ntf    fn427786   3.472   6.329   4.086 -0.1456  0.4900 -0.0998
 5633ntf    fn427787   3.429   6.533   4.053 -0.5902 -0.1378 -0.7476
 5633ntf    fn427788   3.389   6.394   3.903  0.1533 -0.2518 -0.3466
 5633ntf    on527789   3.707   6.314   3.954 -0.2266 -0.4041  0.0080
 5633ntf    on527790   3.643   6.493   3.798 -0.3833  0.0072  0.0188
 5633ntf    on527791   3.810   6.428   4.211  0.6798  0.6033  0.2099
 5633ntf    on527792   3.687   6.643   4.262 -0.4472 -0.3317  0.0051
 5633ntf    fn427793   3.895   6.786   4.129 -0.4538 -0.0808  0.0828
 5633ntf    fn427794   4.011   6.628   4.209 -0.0091 -0.0035  0.1760
 5633ntf    fn427795   3.942   6.619   4.005 -0.1801 -0.2581  0.0842
 5634ntf    cn127796   3.303   0.784   6.577 -0.0289 -0.5038 -0.2304
 5634ntf    sn227797   3.379   0.689   6.442  0.0732 -0.3683 -0.2682
 5634ntf    nn327798   3.525   0.748   6.447  0.1262 -0.5009 -0.2638
 5634ntf    sn227799   3.604   0.798   6.321  0.2859 -0.0609  0.0125
 5634ntf    cn127800   3.548   0.971   6.331  0.1869 -0.0785 -0.2597
 5634ntf    fn427801   3.202   0.860   6.536  0.0935 -0.2127 -0.0001
 5634ntf    fn427802   3.241   0.706   6.664  0.1924 -0.4144  0.0064
 5634ntf    fn427803   3.389   0.860   6.643 -0.1454 -0.2927 -0.3184
 5634ntf    on527804   3.369   0.559   6.503 -0.1417 -0.2574 -0.0636
 5634ntf    on527805   3.296   0.721   6.328  0.1669  0.3284 -0.1446
 5634ntf    on527806   3.566   0.751   6.191 -0.7461 -0.5192  0.4723
 5634ntf    on527807   3.746   0.801   6.351  0.2942 -0.4966  0.0221
 5634ntf    fn427808   3.425   0.976   6.283  0.1556 -0.2664 -0.2010
 5634ntf    fn427809   3.535   1.015   6.455 -0.3911 -1.4305  0.1802
 5634ntf    fn427810   3.619   1.056   6.258  0.2387  0.0853 -0.0178
 5635ntf    cn127811   4.201   1.366   5.655  0.2173 -0.4294 -0.3449
 5635ntf    sn227812   4.119   1.493   5.554  0.1678 -0.1907 -0.0095
 5635ntf    nn327813   4.070   1.581   5.674  0.3228  0.2507 -0.2654
 5635ntf    sn227814   3.957   1.690   5.678 -0.0724 -0.1520 -0.3348
 5635ntf    cn127815   4.013   1.776   5.828 -0.3465 -0.1430 -0.2366
 5635ntf    fn427816   4.319   1.410   5.697 -0.1194  0.0302  0.1338
 5635ntf    fn427817   4.131   1.341   5.765  0.1839  0.2243 -0.2119
 5635ntf    fn427818   4.223   1.250   5.596 -0.0480 -0.9268  0.5048
 5635ntf    on527819   4.231   1.550   5.483 -0.2313 -0.0137 -0.4983
 5635ntf    on527820   4.029   1.408   5.481  0.3155 -0.2929 -0.0743
 5635ntf    on527821   3.826   1.644   5.715 -0.0802  0.1122 -0.0364
 5635ntf    on527822   3.967   1.790   5.574  0.2191 -0.2184 -0.3705
 5635ntf    fn427823   4.140   1.815   5.832 -0.6294  0.8429 -0.4471
 5635ntf    fn427824   3.937   1.879   5.861  0.0325  0.0045  0.1816
 5635ntf    fn427825   3.994   1.698   5.933  0.5404  0.3067  0.2633
 5636ntf    cn127826   1.866   3.996   5.512 -0.4719  0.4631  0.2714
 5636ntf    sn227827   1.726   3.962   5.402  0.0352  0.3328 -0.3363
 5636ntf    nn327828   1.799   3.978   5.264  0.0583  0.0778 -0.3537
 5636ntf    sn227829   1.736   3.975   5.120  0.0425  0.1491 -0.3489
 5636ntf    cn127830   1.854   3.876   5.024  0.1892  0.1357 -0.1566
 5636ntf    fn427831   1.884   4.127   5.527  0.1954  0.3364  0.6111
 5636ntf    fn427832   1.850   3.948   5.634  0.1256 -0.1181  0.1204
 5636ntf    fn427833   1.981   3.955   5.462 -0.5826  0.1004  0.3152
 5636ntf    on527834   1.686   3.830   5.442  0.4307  0.3737  0.1944
 5636ntf    on527835   1.637   4.070   5.438 -0.0051  0.1938 -0.0187
 5636ntf    on527836   1.746   4.107   5.063  0.2212  0.0008 -0.6587
 5636ntf    on527837   1.603   3.919   5.110  0.1788 -0.2117 -0.1415
 5636ntf    fn427838   1.812   3.861   4.899  0.3608  0.0005 -0.1978
 5636ntf    fn427839   1.974   3.930   5.017  0.2513 -0.0722 -0.7665
 5636ntf    fn427840   1.860   3.754   5.073  0.1395  0.3528  0.3880
 5637ntf    cn127841   1.950   0.554   4.579 -0.2101 -0.1112  0.1933
 5637ntf    sn227842   2.025   0.692   4.487  0.1750 -0.2579  0.2842
 5637ntf    nn327843   1.966   0.809   4.574  0.6692  0.1634  0.0646
 5637ntf    sn227844   2.023   0.881   4.701 -0.0581 -0.2609  0.6409
 5637ntf    cn127845   1.856   0.906   4.770 -0.3100 -0.4252  0.0943
 5637ntf    fn427846   1.977   0.555   4.708 -0.1002  0.4563  0.1692
 5637ntf    fn427847   1.819   0.549   4.563 -0.1806 -0.1050 -0.0507
 5637ntf    fn427848   2.000   0.440   4.534 -0.5356  0.0517 -0.5944
 5637ntf    on527849   2.166   0.660   4.483  0.2690  0.2224 -0.6519
 5637ntf    on527850   1.964   0.677   4.358  0.0387 -0.3065  0.3551
 5637ntf    on527851   2.069   1.016   4.679 -0.4473 -0.3262 -0.6468
 5637ntf    on527852   2.097   0.801   4.795  0.2320  0.1740  0.7888
 5637ntf    fn427853   1.800   0.790   4.801  0.3209 -0.6759  0.3142
 5637ntf    fn427854   1.854   0.976   4.882 -0.2707 -0.5935  0.2003
 5637ntf    fn427855   1.765   0.965   4.694 -0.5390 -0.2851  0.4732
 5638ntf    cn127856   1.754   1.269   3.562  0.1344  0.0444  0.4295
 5638ntf    sn227857   1.824   1.316   3.723  0.1676  0.0723  0.4070
 5638ntf    nn327858   1.709   1.403   3.786 -0.0007  0.2092 -0.0783
 5638ntf    sn227859   1.710   1.557   3.814 -0.1295  0.2127 -0.0939
 5638ntf    cn127860   1.554   1.589   3.727 -0.2178 -0.3084 -0.1255
 5638ntf    fn427861   1.745   1.380   3.490  1.1327  0.1097  0.3962
 5638ntf    fn427862   1.835   1.186   3.498 -0.0649  0.1640  0.0170
 5638ntf    fn427863   1.630   1.224   3.570  0.2190 -0.3095 -0.1287
 5638ntf    on527864   1.832   1.190   3.792  0.2382 -0.3412 -0.3400
 5638ntf    on527865   1.957   1.368   3.706  0.2316 -0.0602  0.5116
 5638ntf    on527866   1.808   1.629   3.737 -0.0765 -0.2367 -0.4465
 5638ntf    on527867   1.690   1.584   3.955  0.0928  0.4253 -0.1012
 5638ntf    fn427868   1.457   1.499   3.738 -0.0852 -0.4703 -0.2728
 5638ntf    fn427869   1.496   1.695   3.782 -0.1569 -0.4458  0.2095
 5638ntf    fn427870   1.574   1.617   3.600  0.0473  0.0670 -0.0026
 5639ntf    cn127871   7.280   2.354   2.463 -0.1499  0.0518  0.0482
 5639ntf    sn227872   7.300   2.521   2.392  0.0356 -0.0721 -0.1929
 5639ntf    nn327873   7.151   2.568   2.387  0.0205 -0.1179 -0.1628
 5639ntf    sn227874   7.088   2.707   2.425 -0.1629 -0.2856  0.1572
 5639ntf    cn127875   7.051   2.685   2.601 -0.1729 -0.2692  0.1569
 5639ntf    fn427876   7.211   2.358   2.575 -0.7475  0.3772 -0.3236
 5639ntf    fn427877   7.209   2.270   2.389 -0.4347  0.7958 -0.5420
 5639ntf    fn427878   7.392   2.287   2.484  0.1325  0.3992 -0.3084
 5639ntf    on527879   7.374   2.577   2.503  0.0178 -0.0352 -0.2000
 5639ntf    on527880   7.374   2.506   2.269 -0.4686 -0.1721 -0.4844
 5639ntf    on527881   6.958   2.724   2.364  0.1340 -0.0293 -0.4073
 5639ntf    on527882   7.161   2.831   2.426 -0.7318  0.0543 -0.0103
 5639ntf    fn427883   6.958   2.592   2.617 -0.5677  0.1079  0.0546
 5639ntf    fn427884   7.157   2.638   2.665 -0.1014  0.1271  0.3336
 5639ntf    fn427885   7.007   2.793   2.663 -0.3530 -0.5690  0.5568
 5640ntf    cn127886   1.774   5.931   6.955 -0.3783 -0.0774  0.1709
 5640ntf    sn227887   1.772   6.084   7.053  0.0334  0.0427 -0.0062
 5640ntf    nn327888   1.908   6.074   7.130  0.2478 -0.3678 -0.4290
 5640ntf    sn227889   1.944   6.025   7.275 -0.2103  0.2153 -0.1113
 5640ntf    cn127890   1.971   6.187   7.353  0.1452  0.0793  0.0547
 5640ntf    fn427891   1.898   5.898   6.922 -0.4363  0.1103 -0.2327
 5640ntf    fn427892   1.731   5.826   7.024 -0.3355 -0.2511 -0.0628
 5640ntf    fn427893   1.697   5.934   6.848  0.0675  0.1548 -0.1442
 5640ntf    on527894   1.773   6.187   6.952  0.7859  0.3068  0.2611
 5640ntf    on527895   1.647   6.075   7.123  0.1210 -0.4090  0.0919
 5640ntf    on527896   2.073   5.959   7.280 -0.3711 -0.1205 -0.3604
 5640ntf    on527897   1.834   5.967   7.348 -0.1019 -0.3646 -0.4050
 5640ntf    fn427898   2.059   6.267   7.295 -0.0690  0.1746 -0.1454
 5640ntf    fn427899   1.857   6.252   7.334 -0.1614 -0.1959  0.9475
 5640ntf    fn427900   1.999   6.174   7.481 -0.7501  0.0688  0.2559
 5641ntf    cn127901   3.419   3.932   3.584  0.1689  0.2654 -0.4295
 5641ntf    sn227902   3.281   4.045   3.553  0.0021  0.1968  0.0593
 5641ntf    nn327903   3.241   3.981   3.416 -0.0313  0.3709 -0.0121
 5641ntf    sn227904   3.095   3.952   3.366  0.0152  0.0529  0.0330
 5641ntf    cn127905   3.064   3.792   3.446 -0.0083  0.0558  0.0298
 5641ntf    fn427906   3.385   3.804   3.574 -0.0068  0.2736  0.0456
 5641ntf    fn427907   3.517   3.929   3.496  0.5581  0.3749 -0.0066
 5641ntf    fn427908   3.467   3.934   3.708 -0.5809  0.0219 -0.1286
 5641ntf    on527909   3.186   4.031   3.661 -0.0351 -0.2651 -0.0313
 5641ntf    on527910   3.343   4.173   3.533  0.1350  0.1322  0.0629
 5641ntf    on527911   3.091   3.927   3.224 -0.5592  0.4920 -0.0324
 5641ntf    on527912   2.998   4.043   3.422 -0.3851 -0.0468 -0.4938
 5641ntf    fn427913   3.173   3.717   3.454 -0.0645  0.0149  0.4067
 5641ntf    fn427914   3.027   3.810   3.572  0.2342 -0.5339  0.1866
 5641ntf    fn427915   2.971   3.716   3.389  0.2998 -0.4063  0.1373
 5642ntf    cn127916   5.143   6.839   4.952 -0.4954  0.2174  0.0483
 5642ntf    sn227917   5.298   6.918   4.902 -0.2790 -0.1459  0.1397
 5642ntf    nn327918   5.287   6.940   4.747  0.6011 -0.2728  0.0509
 5642ntf    sn227919   5.372   7.038   4.659  0.1568  0.3390  0.2993
 5642ntf    cn127920   5.399   6.939   4.509 -0.1019  0.4717  0.1634
 5642ntf    fn427921   5.164   6.710   4.929  0.4979  0.3398  0.2543
 5642ntf    fn427922   5.098   6.857   5.076  0.1258  0.3771  0.2555
 5642ntf    fn427923   5.043   6.869   4.871  0.4955  0.1556 -1.2110
 5642ntf    on527924   5.307   7.037   4.983  0.3117 -0.1762  0.1239
 5642ntf    on527925   5.397   6.820   4.938  0.2391  0.4743  0.4330
 5642ntf    on527926   5.501   7.073   4.714  0.2212  0.5356  0.0269
 5642ntf    on527927   5.290   7.147   4.611  0.3772  0.6004  0.5149
 5642ntf    fn427928   5.312   6.966   4.413  0.4368  0.6206 -0.2910
 5642ntf    fn427929   5.513   6.979   4.453  0.1686 -0.3498  0.1240
 5642ntf    fn427930   5.417   6.809   4.524 -0.0313  0.4614 -0.0102
 5643ntf    cn127931   7.575   2.455   4.178  0.2018  0.4588 -0.8501
 5643ntf    sn227932   7.498   2.369   4.037  0.0566 -0.0475 -0.4644
 5643ntf    nn327933   7.485   2.499   3.949  0.0714  0.0889 -0.2672
 5643ntf    sn227934   7.358   2.590   3.940 -0.0802 -0.1292 -0.3572
 5643ntf    cn127935   7.275   2.542   3.786  0.0128 -0.2358 -0.3736
 5643ntf    fn427936   7.693   2.510   4.151  0.5041  0.4038  0.2996
 5643ntf    fn427937   7.503   2.556   4.224 -0.0055  0.0846 -0.3449
 5643ntf    fn427938   7.583   2.369   4.278 -0.5112  0.4046 -0.8359
 5643ntf    on527939   7.602   2.288   3.980  0.2495 -0.3259  0.2733
 5643ntf    on527940   7.385   2.307   4.101 -0.0894  0.3301 -0.3487
 5643ntf    on527941   7.399   2.726   3.913 -0.3838 -0.0211 -0.2864
 5643ntf    on527942   7.260   2.579   4.045 -0.0487  0.0067 -0.3136
 5643ntf    fn427943   7.266   2.410   3.782 -0.1721 -0.2446  0.2793
 5643ntf    fn427944   7.154   2.590   3.765 -0.1800 -0.4559  0.2186
 5643ntf    fn427945   7.336   2.583   3.676  0.1719  0.3888 -0.0566
 5644ntf    cn127946   3.801   6.305   4.900  0.2349 -0.1941 -0.4068
 5644ntf    sn227947   3.645   6.215   4.878  0.0164 -0.0221  0.3922
 5644ntf    nn327948   3.643   6.214   4.721 -0.0071  0.0661  0.3917
 5644ntf    sn227949   3.591   6.322   4.620  0.1997 -0.2739 -0.0830
 5644ntf    cn127950   3.414   6.279   4.612  0.1217  0.0453 -0.0989
 5644ntf    fn427951   3.784   6.436   4.901 -0.2646 -0.2563  0.1098
 5644ntf    fn427952   3.866   6.268   5.010  0.0001  0.5348 -0.0153
 5644ntf    fn427953   3.890   6.291   4.803  0.6237  0.6854 -0.1842
 5644ntf    on527954   3.667   6.082   4.930  0.5250 -0.0726  0.0500
 5644ntf    on527955   3.544   6.295   4.944  0.1938  0.2287  0.3603
 5644ntf    on527956   3.645   6.304   4.487  0.2734 -0.2504 -0.0554
 5644ntf    on527957   3.584   6.456   4.673  0.1568 -0.2539 -0.1382
 5644ntf    fn427958   3.370   6.339   4.503 -0.2336  0.4588  0.2679
 5644ntf    fn427959   3.382   6.151   4.598 -0.1917  0.1549 -0.3880
 5644ntf    fn427960   3.343   6.326   4.713 -0.1340  0.1062 -0.3048
 5645ntf    cn127961   1.384   4.013   4.501  0.3271  0.1651 -0.2550
 5645ntf    sn227962   1.226   3.973   4.421  0.2886 -0.2397  0.0239
 5645ntf    nn327963   1.173   4.114   4.377 -0.0987 -0.3035  0.2814
 5645ntf    sn227964   1.222   4.209   4.262  0.0622 -0.4897  0.1963
 5645ntf    cn127965   1.103   4.169   4.130 -0.0202  0.4909 -0.0360
 5645ntf    fn427966   1.370   4.116   4.584 -0.4006 -0.1750  0.0504
 5645ntf    fn427967   1.435   3.912   4.569 -0.3543 -0.4723 -0.6755
 5645ntf    fn427968   1.480   4.045   4.415  0.6704  0.1928  0.1384
 5645ntf    on527969   1.260   3.880   4.317 -0.2479  0.0245 -0.3936
 5645ntf    on527970   1.140   3.923   4.526 -0.2140 -0.0474 -0.2912
 5645ntf    on527971   1.350   4.178   4.203  0.0998 -0.0710  0.0538
 5645ntf    on527972   1.193   4.348   4.289  0.4441 -0.4613  0.4622
 5645ntf    fn427973   1.100   4.252   4.027  0.4360  0.6447  0.0742
 5645ntf    fn427974   1.126   4.050   4.077 -0.0705  0.4158  0.1101
 5645ntf    fn427975   0.986   4.151   4.189 -0.0405 -0.4391 -0.3450
 5646ntf    cn127976   3.409   5.205   2.037  0.1307  0.3506 -0.3652
 5646ntf    sn227977   3.586   5.246   2.037  0.1776  0.1596 -0.0344
 5646ntf    nn327978   3.599   5.353   1.922 -0.1635 -0.1696 -0.3852
 5646ntf    sn227979   3.605   5.510   1.927 -0.2926 -0.1779  0.1647
 5646ntf    cn127980   3.467   5.559   1.819  0.2076  0.7156 -0.0753
 5646ntf    fn427981   3.386   5.141   1.923 -0.2355  0.0292 -0.1138
 5646ntf    fn427982   3.382   5.116   2.131  0.0639  0.3788 -0.3570
 5646ntf    fn427983   3.324   5.306   2.045  0.0365  0.2368  0.1156
 5646ntf    on527984   3.610   5.288   2.172 -0.0960  0.1458  0.0198
 5646ntf    on527985   3.652   5.125   1.996  0.1276  0.1038  0.0521
 5646ntf    on527986   3.709   5.565   1.844 -0.4386 -0.2980 -0.1007
 5646ntf    on527987   3.575   5.574   2.053 -0.1300  0.0865  0.0685
 5646ntf    fn427988   3.494   5.560   1.689  0.1590  0.0594 -0.0901
 5646ntf    fn427989   3.358   5.489   1.844  0.1753  0.7784 -0.0400
 5646ntf    fn427990   3.435   5.683   1.851 -0.1542  0.4470  0.6208
 5647ntf    cn127991   4.938   3.397   3.306  0.1218  0.1439 -0.0331
 5647ntf    sn227992   5.026   3.543   3.243  0.1620  0.1419  0.0189
 5647ntf    nn327993   4.925   3.582   3.129  0.0118  0.8377  0.3773
 5647ntf    sn227994   4.773   3.620   3.137 -0.2188  0.0554 -0.1740
 5647ntf    cn127995   4.793   3.784   3.062  0.1123 -0.0424 -0.3019
 5647ntf    fn427996   4.890   3.319   3.211  0.5532  0.1981 -0.2947
 5647ntf    fn427997   5.010   3.313   3.379  0.1822 -0.1005 -0.3732
 5647ntf    fn427998   4.832   3.435   3.377  0.0174 -0.4002  0.1019
 5647ntf    on527999   5.039   3.640   3.350  0.5454 -0.0851  0.1785
 5647ntf    on528000   5.145   3.500   3.175  0.3262  0.2426  0.2421
 5647ntf    on528001   4.730   3.640   3.273  0.0710 -0.5767  0.0149
 5647ntf    on528002   4.685   3.549   3.047 -0.4133  0.1221 -0.0358
 5647ntf    fn428003   4.887   3.859   3.118  0.3624 -0.3303 -0.3354
 5647ntf    fn428004   4.842   3.781   2.939 -0.3230 -0.0151 -0.4762
 5647ntf    fn428005   4.684   3.856   3.044  0.1354  0.0953  0.0844
 5648ntf    cn128006   3.471   0.655   4.505  0.0772  0.3304 -0.2976
 5648ntf    sn228007   3.375   0.588   4.643  0.1193  0.5363 -0.1687
 5648ntf    nn328008   3.254   0.540   4.555  0.4763  0.4307 -0.5990
 5648ntf    sn228009   3.253   0.432   4.441  0.2543 -0.1058 -0.0955
 5648ntf    cn128010   3.127   0.505   4.332 -0.0423 -0.5800 -0.0737
 5648ntf    fn428011   3.390   0.693   4.408 -0.0367 -0.0068 -0.3336
 5648ntf    fn428012   3.525   0.770   4.543  0.1726  0.2160 -0.0858
 5648ntf    fn428013   3.571   0.573   4.476  0.1763  0.2041  0.3809
 5648ntf    on528014   3.461   0.486   4.697  0.2708  0.4142 -0.6390
 5648ntf    on528015   3.342   0.698   4.732  0.1193  0.4135 -0.0161
 5648ntf    on528016   3.199   0.307   4.487 -0.4344  0.3125  0.2408
 5648ntf    on528017   3.369   0.430   4.354  0.1423 -0.3039 -0.2425
 5648ntf    fn428018   3.095   0.424   4.232  0.1078 -0.5352 -0.1587
 5648ntf    fn428019   3.009   0.521   4.389  0.2103  1.0264  0.0577
 5648ntf    fn428020   3.154   0.623   4.277 -0.0562 -0.3309  0.4421
 5649ntf    cn128021   1.265   3.221   2.514  0.5827  0.0230 -0.1375
 5649ntf    sn228022   1.307   3.165   2.346  0.0019  0.2194 -0.3508
 5649ntf    nn328023   1.424   3.064   2.371 -0.1578  0.1143 -0.0154
 5649ntf    sn228024   1.447   2.920   2.313  0.4760  0.0930  0.2772
 5649ntf    cn128025   1.619   2.939   2.258  0.3361 -0.2060 -0.2722
 5649ntf    fn428026   1.252   3.122   2.601  0.2010  0.1397 -0.0564
 5649ntf    fn428027   1.342   3.316   2.565 -0.4755  0.4321  0.7534
 5649ntf    fn428028   1.144   3.273   2.505  0.4786 -0.1917  0.0146
 5649ntf    on528029   1.187   3.109   2.290 -0.1208  0.3044 -0.1747
 5649ntf    on528030   1.347   3.294   2.294  0.9786  0.0419 -0.0575
 5649ntf    on528031   1.371   2.887   2.195  0.1062 -0.0794  0.5605
 5649ntf    on528032   1.457   2.821   2.417  0.1233 -0.3119 -0.0701
 5649ntf    fn428033   1.703   2.932   2.359  0.0280 -0.6132 -0.0419
 5649ntf    fn428034   1.660   2.838   2.183  0.8336  0.0715 -0.3775
 5649ntf    fn428035   1.650   3.049   2.190 -0.7371  0.0363 -0.3894
 5650ntf    cn128036   3.208   3.186   3.694  0.0895 -0.2965 -0.0666
 5650ntf    sn228037   3.229   3.026   3.610 -0.4027 -0.4389  0.0771
 5650ntf    nn328038   3.220   2.925   3.730 -0.2988 -0.1290  0.3480
 5650ntf    sn228039   3.155   2.781   3.736  0.0908 -0.3398 -0.4477
 5650ntf    cn128040   3.294   2.694   3.814  0.1657  0.2140  0.0413
 5650ntf    fn428041   3.302   3.204   3.784 -0.3811  0.0780  0.3564
 5650ntf    fn428042   3.214   3.286   3.608  0.4966 -0.0497  0.2470
 5650ntf    fn428043   3.088   3.199   3.749  0.1548 -0.0774  0.0234
 5650ntf    on528044   3.113   3.023   3.525 -0.2503  0.0650 -0.1503
 5650ntf    on528045   3.359   3.032   3.547 -0.4424 -0.4036 -0.0006
 5650ntf    on528046   3.147   2.710   3.611 -0.0416 -0.5404 -0.3247
 5650ntf    on528047   3.043   2.762   3.824  0.3034 -0.3803 -0.1830
 5650ntf    fn428048   3.403   2.742   3.755  0.1743  0.1594  0.0126
 5650ntf    fn428049   3.303   2.713   3.945  0.3132 -0.3019  0.1075
 5650ntf    fn428050   3.288   2.564   3.792 -0.0003  0.0799  0.8281
 5651ntf    cn128051   3.436   6.292   3.137 -0.3628  0.2485 -0.2344
 5651ntf    sn228052   3.266   6.319   3.194 -0.2289  0.1825  0.2003
 5651ntf    nn328053   3.276   6.236   3.327 -0.3805  0.1515  0.1930
 5651ntf    sn228054   3.205   6.099   3.354  0.4759 -0.2963  0.1932
 5651ntf    cn128055   3.056   6.178   3.421  0.5729 -0.0050  0.0680
 5651ntf    fn428056   3.461   6.163   3.119 -0.0447  0.3062 -0.2145
 5651ntf    fn428057   3.455   6.360   3.025  0.0681 -0.0712 -0.3590
 5651ntf    fn428058   3.530   6.335   3.219 -0.4798  0.5950 -0.2793
 5651ntf    on528059   3.249   6.461   3.217 -0.8246  0.1910 -0.2479
 5651ntf    on528060   3.185   6.266   3.087 -0.0627  1.1461 -0.4208
 5651ntf    on528061   3.257   6.034   3.472  0.4445 -0.2105  0.2543
 5651ntf    on528062   3.158   6.012   3.250  0.2547  0.2314 -0.1504
 5651ntf    fn428063   2.961   6.090   3.449  0.1884  0.4575  0.2395
 5651ntf    fn428064   3.084   6.253   3.527  0.1222  0.1058  0.1113
 5651ntf    fn428065   3.018   6.261   3.326 -0.2286 -0.4256  0.0066
 5652ntf    cn128066   7.446   6.480   1.491  0.3571 -0.0796 -0.0224
 5652ntf    sn228067   7.357   6.352   1.585 -0.0311 -0.0974 -0.4118
 5652ntf    nn328068   7.489   6.281   1.632 -0.1439  0.5664  0.9526
 5652ntf    sn228069   7.506   6.126   1.651 -0.2371  0.4389  0.0761
 5652ntf    cn128070   7.583   6.083   1.492 -0.0638  0.1759  0.2307
 5652ntf    fn428071   7.368   6.562   1.423  0.0179 -0.5434 -0.1987
 5652ntf    fn428072   7.536   6.552   1.557 -0.2075  0.6507 -0.0308
 5652ntf    fn428073   7.525   6.416   1.407 -0.2281 -0.2275 -0.4680
 5652ntf    on528074   7.300   6.437   1.686  0.3922  0.1529 -0.3807
 5652ntf    on528075   7.270   6.291   1.487 -0.3718 -0.3522  0.0486
 5652ntf    on528076   7.390   6.043   1.669  0.1523 -0.0820  0.2044
 5652ntf    on528077   7.612   6.105   1.747 -0.1732 -0.4957 -0.1973
 5652ntf    fn428078   7.703   6.131   1.463 -0.1376 -0.1615 -0.6616
 5652ntf    fn428079   7.596   5.953   1.474  0.1417  0.2404 -0.0913
 5652ntf    fn428080   7.513   6.123   1.388 -0.2504  0.5242  0.4868
 5653ntf    cn128081   3.572   3.795   2.005  0.0311  0.4923 -0.0415
 5653ntf    sn228082   3.709   3.831   1.891  0.0975 -0.1394 -0.1654
 5653ntf    nn328083   3.647   3.941   1.797 -0.9594 -0.3855  0.2341
 5653ntf    sn228084   3.548   3.928   1.676 -0.0049 -0.0012 -0.6014
 5653ntf    cn128085   3.670   3.928   1.541  0.5544  0.0827 -0.1019
 5653ntf    fn428086   3.514   3.908   2.041  0.3014  0.6448 -0.0761
 5653ntf    fn428087   3.470   3.725   1.958  0.3250 -0.3963  0.6190
 5653ntf    fn428088   3.605   3.736   2.118 -0.0677  0.2704 -0.1271
 5653ntf    on528089   3.814   3.880   1.977  0.3537 -0.5257 -0.2553
 5653ntf    on528090   3.743   3.704   1.833  0.5351  0.1862 -0.6336
 5653ntf    on528091   3.477   4.053   1.660 -0.5279 -0.1606  0.3784
 5653ntf    on528092   3.473   3.806   1.668  0.1799 -0.1850  0.2925
 5653ntf    fn428093   3.737   4.042   1.537  0.3890  0.1613 -0.6524
 5653ntf    fn428094   3.768   3.841   1.561 -0.1409 -0.7700 -0.3060
 5653ntf    fn428095   3.618   3.903   1.422 -0.0097 -0.1651  0.1908
 5654ntf    cn128096   4.975   7.622   6.240 -0.3921 -0.2326  0.1565
 5654ntf    sn228097   4.834   7.585   6.131 -0.1564  0.0368 -0.2438
 5654ntf    nn328098   4.763   7.471   6.212 -0.4461  0.1617 -0.3201
 5654ntf    sn228099   4.719   7.330   6.159 -0.0037 -0.0641 -0.0926
 5654ntf    cn128100   4.538   7.350   6.170 -0.0058  0.1134 -0.4652
 5654ntf    fn428101   5.087   7.575   6.188 -0.3616 -0.2068  0.1985
 5654ntf    fn428102   4.994   7.752   6.257 -0.1690 -0.1928 -0.3833
 5654ntf    fn428103   4.965   7.562   6.357  0.1257 -0.7074 -0.0376
 5654ntf    on528104   4.766   7.712   6.134  0.9020  0.6301 -0.8273
 5654ntf    on528105   4.902   7.555   6.008  0.0863  0.2382 -0.1587
 5654ntf    on528106   4.756   7.233   6.260  0.0582 -0.1140 -0.1632
 5654ntf    on528107   4.740   7.290   6.022  0.2232 -0.2326 -0.0090
 5654ntf    fn428108   4.476   7.238   6.138  0.4513 -0.3031  0.0998
 5654ntf    fn428109   4.511   7.381   6.295 -0.4775  0.4693 -0.6522
 5654ntf    fn428110   4.480   7.439   6.090 -0.2203  0.4456  0.0572
 5655ntf    cn128111   2.260   4.689   2.031 -0.1879  0.1702 -0.2089
 5655ntf    sn228112   2.293   4.862   1.985  0.0494  0.2418  0.2314
 5655ntf    nn328113   2.148   4.897   1.936 -0.0637 -0.6891 -0.1141
 5655ntf    sn228114   2.044   4.980   2.019  0.4337 -0.2289  0.0561
 5655ntf    cn128115   1.889   4.896   1.975  0.4633 -0.1414 -0.2152
 5655ntf    fn428116   2.369   4.621   2.059  0.0920  0.4683 -0.5556
 5655ntf    fn428117   2.177   4.673   2.133 -0.2171  0.2965 -0.2118
 5655ntf    fn428118   2.195   4.626   1.935 -0.3506  0.1064 -0.0581
 5655ntf    on528119   2.340   4.930   2.104  0.5886 -0.0838  0.2079
 5655ntf    on528120   2.383   4.860   1.873 -0.8360  0.5799 -0.4944
 5655ntf    on528121   2.031   5.116   1.971 -0.7712 -0.4287 -0.2170
 5655ntf    on528122   2.052   4.971   2.163  0.2548 -0.4889  0.0491
 5655ntf    fn428123   1.843   4.921   1.853 -0.6897 -0.5968  0.1142
 5655ntf    fn428124   1.903   4.764   1.977 -0.0212 -0.1943 -0.2024
 5655ntf    fn428125   1.798   4.927   2.065  0.1916 -0.6446 -0.3083
 5656ntf    cn128126   1.952   4.147   6.397  0.2079  0.0653  0.0034
 5656ntf    sn228127   1.980   3.975   6.446 -0.1403  0.1135  0.3717
 5656ntf    nn328128   1.994   3.990   6.601 -0.4257 -0.8776  0.5042
 5656ntf    sn228129   2.128   3.989   6.684 -0.2067  0.0928  0.1748
 5656ntf    cn128130   2.117   4.136   6.791 -0.2155  0.2858 -0.0893
 5656ntf    fn428131   2.053   4.222   6.440 -0.3530  0.7719  0.1058
 5656ntf    fn428132   1.935   4.168   6.267 -0.0332 -0.1877 -0.0055
 5656ntf    fn428133   1.852   4.191   6.471 -0.1946 -0.1543 -0.4051
 5656ntf    on528134   1.853   3.915   6.411  0.5411 -0.7145 -0.7472
 5656ntf    on528135   2.095   3.926   6.374 -0.1278  0.0772  0.4167
 5656ntf    on528136   2.247   4.008   6.604 -0.3963  0.0908 -0.1084
 5656ntf    on528137   2.131   3.881   6.779 -0.1720  0.0577  0.1334
 5656ntf    fn428138   2.058   4.236   6.728 -0.0864  0.7054  0.4542
 5656ntf    fn428139   2.052   4.102   6.901  0.3097 -0.0294  0.1269
 5656ntf    fn428140   2.230   4.191   6.831 -0.0597  0.1111 -0.2862
 5657ntf    cn128141   4.016   7.046   0.407 -0.1250 -0.6816 -0.0074
 5657ntf    sn228142   3.868   7.146   0.373  0.1936 -0.2231 -0.0487
 5657ntf    nn328143   3.946   7.277   0.335 -0.9879  0.3154 -0.6726
 5657ntf    sn228144   4.043   7.273   0.211  0.1129 -0.4434  0.1907
 5657ntf    cn128145   3.991   7.437   0.151 -0.1618 -0.6253 -0.0710
 5657ntf    fn428146   4.128   7.074   0.343 -0.2778 -0.0372  0.0074
 5657ntf    fn428147   4.058   7.056   0.532  0.1988 -0.9592 -0.0916
 5657ntf    fn428148   3.988   6.918   0.383  0.3030 -0.8116  0.1838
 5657ntf    on528149   3.793   7.077   0.271 -0.1711 -0.1147  0.1474
 5657ntf    on528150   3.804   7.160   0.501 -0.1974 -0.1474 -0.2510
 5657ntf    on528151   4.019   7.181   0.103 -0.6582 -0.3599  0.2840
 5657ntf    on528152   4.181   7.296   0.245  0.0448 -0.3708  0.4259
 5657ntf    fn428153   3.866   7.448   0.108 -0.0339 -0.2028 -0.3363
 5657ntf    fn428154   3.995   7.537   0.238 -1.1644 -0.4172 -0.2480
 5657ntf    fn428155   4.068   7.486   0.056  0.0831  0.0756  0.4825
 5658ntf    cn128156   5.383   3.279   3.517  0.1047 -0.2861  0.3068
 5658ntf    sn228157   5.557   3.260   3.568  0.2864  0.0902 -0.1700
 5658ntf    nn328158   5.563   3.105   3.589 -0.4146  0.0986  0.1144
 5658ntf    sn228159   5.555   2.992   3.480  0.2003  0.3531 -0.1983
 5658ntf    cn128160   5.724   2.926   3.487 -0.0386 -0.2030  0.4424
 5658ntf    fn428161   5.361   3.294   3.388  0.4463 -0.4122  0.2324
 5658ntf    fn428162   5.305   3.180   3.557  0.1924 -0.4758  0.0112
 5658ntf    fn428163   5.333   3.380   3.586 -0.1906 -0.1429 -0.1148
 5658ntf    on528164   5.640   3.308   3.460 -0.0092 -0.1942 -0.5289
 5658ntf    on528165   5.556   3.337   3.690  0.1398 -0.1905  0.0078
 5658ntf    on528166   5.531   3.035   3.344 -0.4209  0.4784 -0.0537
 5658ntf    on528167   5.475   2.879   3.521 -0.0949  0.6894  0.1659
 5658ntf    fn428168   5.760   2.855   3.381  0.4144  0.3049  0.2516
 5658ntf    fn428169   5.812   3.025   3.486  0.6771 -0.8275  0.5318
 5658ntf    fn428170   5.754   2.862   3.598  0.6951  0.0833  0.4143
 5659ntf    cn128171   6.043   2.497   1.398 -0.3667  0.0332 -0.4486
 5659ntf    sn228172   6.211   2.446   1.446 -0.4298  0.3111  0.0715
 5659ntf    nn328173   6.217   2.306   1.376  0.5065  0.2715  0.2234
 5659ntf    sn228174   6.266   2.161   1.411 -0.7031 -0.1959  0.0131
 5659ntf    cn128175   6.119   2.056   1.385 -0.6265 -0.3009  0.0017
 5659ntf    fn428176   6.003   2.602   1.467  0.3137 -0.2020  0.3188
 5659ntf    fn428177   6.020   2.518   1.269  0.3011  0.3363 -0.5235
 5659ntf    fn428178   5.950   2.411   1.436  0.1290 -0.4182 -0.2520
 5659ntf    on528179   6.287   2.549   1.380 -0.1293 -0.6039 -1.0359
 5659ntf    on528180   6.196   2.448   1.589 -0.3405  0.2764  0.0810
 5659ntf    on528181   6.297   2.134   1.550 -1.0019  0.0982  0.1386
 5659ntf    on528182   6.362   2.109   1.318  0.0653  0.2074  0.5746
 5659ntf    fn428183   6.016   2.101   1.455 -0.4384  0.2665 -0.0826
 5659ntf    fn428184   6.086   2.048   1.257  0.2778  0.2129 -0.2731
 5659ntf    fn428185   6.126   1.929   1.419 -0.8327 -0.2239  0.3354
 5660ntf    cn128186   6.497   2.843   3.631 -0.8669 -0.4163 -0.3089
 5660ntf    sn228187   6.609   2.819   3.772 -0.4810  0.1571 -0.5156
 5660ntf    nn328188   6.717   2.931   3.753 -0.0787 -0.0908  0.2517
 5660ntf    sn228189   6.869   2.935   3.795  0.1044 -0.2518 -0.3777
 5660ntf    cn128190   6.944   2.952   3.631  0.4533 -0.1016 -0.2029
 5660ntf    fn428191   6.457   2.966   3.607 -0.2661 -0.0938  0.3112
 5660ntf    fn428192   6.551   2.797   3.519 -0.1639 -0.2073 -0.0628
 5660ntf    fn428193   6.386   2.772   3.644 -1.1059 -0.1275 -0.7548
 5660ntf    on528194   6.537   2.841   3.895  0.0697  0.2683 -0.2061
 5660ntf    on528195   6.659   2.686   3.748 -0.0762  0.2864 -0.4018
 5660ntf    on528196   6.930   2.818   3.853 -0.1742 -0.3750 -0.3313
 5660ntf    on528197   6.903   3.059   3.861  0.2318 -0.4506 -0.0651
 5660ntf    fn428198   7.069   2.908   3.626  0.5405  0.1614 -0.3485
 5660ntf    fn428199   6.874   2.891   3.537 -0.0007  0.0957  0.0046
 5660ntf    fn428200   6.952   3.081   3.603 -0.6974 -0.1031 -0.5784
 5661ntf    cn128201   0.001   1.985   4.460  0.1034  0.1303  0.5163
 5661ntf    sn228202  -0.072   1.974   4.626 -0.6085 -0.3199  0.1816
 5661ntf    nn328203  -0.050   1.822   4.656 -0.3664 -0.4143 -0.4675
 5661ntf    sn228204  -0.089   1.749   4.789 -0.0472  0.1921 -0.0417
 5661ntf    cn128205   0.024   1.608   4.771 -0.0808  0.1232  0.2711
 5661ntf    fn428206  -0.000   2.105   4.403  0.4673  0.1405  0.5304
 5661ntf    fn428207   0.130   1.958   4.463  0.1121  0.1003  0.0571
 5661ntf    fn428208  -0.060   1.906   4.373  0.5028  0.2979  0.0823
 5661ntf    on528209   0.007   2.069   4.700 -0.0596 -0.2248 -0.5162
 5661ntf    on528210  -0.213   1.998   4.610 -0.5162  0.2624  0.2264
 5661ntf    on528211  -0.213   1.678   4.774  0.0745 -0.0026 -0.1228
 5661ntf    on528212  -0.056   1.819   4.911 -0.0184  0.1593 -0.0313
 5661ntf    fn428213   0.006   1.540   4.659 -0.4284 -0.1795  0.5076
 5661ntf    fn428214   0.152   1.641   4.776 -0.0389 -0.1178  0.8605
 5661ntf    fn428215   0.001   1.528   4.874  0.0585 -0.1234  0.1111
 5662ntf    cn128216   5.372   0.604   1.620 -0.0498  0.0857 -0.8942
 5662ntf    sn228217   5.277   0.452   1.588 -0.2043  0.0714 -0.3672
 5662ntf    nn328218   5.177   0.425   1.706 -0.2861 -0.0528 -0.4646
 5662ntf    sn228219   5.043   0.498   1.743 -0.1371 -0.0913  0.1647
 5662ntf    cn128220   4.942   0.347   1.755  0.0733 -0.2593 -0.1681
 5662ntf    fn428221   5.300   0.709   1.655 -0.0148 -0.3278  0.4831
 5662ntf    fn428222   5.456   0.590   1.720 -0.5506 -0.3199 -0.5241
 5662ntf    fn428223   5.434   0.639   1.508  1.0765  0.5792 -0.1264
 5662ntf    on528224   5.214   0.480   1.462 -0.4724  0.3718 -0.1679
 5662ntf    on528225   5.376   0.347   1.584  0.1742  0.3899  0.2981
 5662ntf    on528226   4.966   0.564   1.641 -0.6613 -0.9561 -0.0060
 5662ntf    on528227   5.032   0.545   1.879 -0.2583 -0.4253  0.2734
 5662ntf    fn428228   4.893   0.296   1.643  0.5688  0.5838 -0.7795
 5662ntf    fn428229   5.023   0.254   1.804  0.6884  0.4738  0.2216
 5662ntf    fn428230   4.835   0.355   1.833 -0.6520 -0.3662 -1.1382
 5663ntf    cn128231   0.080   6.346   6.905  0.4451  0.3652 -0.3792
 5663ntf    sn228232  -0.064   6.246   6.857  0.3910  0.2071  0.1065
 5663ntf    nn328233  -0.009   6.174   6.729  0.0629  0.4209 -0.1554
 5663ntf    sn228234  -0.046   6.035   6.666  0.0630  0.1572  0.4249
 5663ntf    cn128235  -0.046   6.080   6.490 -0.2314 -0.2217  0.3270
 5663ntf    fn428236   0.195   6.280   6.900  0.3518  0.0955  0.7554
 5663ntf    fn428237   0.093   6.455   6.831 -0.3516  0.3144 -0.5945
 5663ntf    fn428238   0.085   6.383   7.032 -0.4537 -0.7609 -0.0024
 5663ntf    on528239  -0.087   6.168   6.976 -0.4512  0.2446 -0.0233
 5663ntf    on528240  -0.168   6.336   6.814  0.1788  0.0974  0.3882
 5663ntf    on528241  -0.182   5.989   6.680  0.2566 -0.7123 -0.4084
 5663ntf    on528242   0.059   5.935   6.670  0.1949  0.2669 -0.2165
 5663ntf    fn428243   0.078   6.106   6.454 -0.2789  0.2822  0.5231
 5663ntf    fn428244  -0.091   5.988   6.406 -0.0160  0.3543 -0.4355
 5663ntf    fn428245  -0.113   6.191   6.463  0.7435  0.1876 -0.4436
 5664ntf    cn128246   2.117   2.635   4.960 -0.5469  0.0140  0.1267
 5664ntf    sn228247   1.967   2.553   4.899 -0.4466 -0.0683 -0.0067
 5664ntf    nn328248   1.906   2.649   4.791 -0.0542 -0.0361 -0.2024
 5664ntf    sn228249   1.801   2.765   4.810 -0.1864 -0.1675 -0.1279
 5664ntf    cn128250   1.643   2.676   4.808 -0.0471 -0.4166 -0.1760
 5664ntf    fn428251   2.130   2.755   4.906 -0.0427 -0.2285 -0.2938
 5664ntf    fn428252   2.114   2.645   5.092  0.3994 -0.2200  0.1759
 5664ntf    fn428253   2.226   2.569   4.926 -0.6975 -0.0522 -0.2229
 5664ntf    on528254   2.009   2.432   4.831  0.4384  0.3983 -0.3123
 5664ntf    on528255   1.887   2.539   5.018 -0.3154  0.5307  0.1512
 5664ntf    on528256   1.808   2.849   4.693  0.6184  0.1572  0.1441
 5664ntf    on528257   1.810   2.829   4.938  0.0464 -0.1906 -0.1318
 5664ntf    fn428258   1.630   2.603   4.698  0.1622 -0.2743 -0.2955
 5664ntf    fn428259   1.633   2.596   4.913 -0.0525 -0.3884 -0.1557
 5664ntf    fn428260   1.541   2.760   4.820  0.1160 -0.3381  0.6745
 5665ntf    cn128261   4.842   2.317   4.646  0.8247  0.4104  0.0777
 5665ntf    sn228262   4.898   2.271   4.480 -0.1141  0.3364 -0.2219
 5665ntf    nn328263   4.765   2.296   4.400  0.0007 -0.0132 -0.5236
 5665ntf    sn228264   4.629   2.218   4.390  0.1578 -0.3542 -0.0346
 5665ntf    cn128265   4.650   2.116   4.240  0.3440 -0.1786 -0.1293
 5665ntf    fn428266   4.821   2.447   4.659 -0.6756  0.1720  0.1603
 5665ntf    fn428267   4.727   2.265   4.684  0.4802  0.4122 -0.9419
 5665ntf    fn428268   4.934   2.281   4.734  0.4309 -0.8094  0.0120
 5665ntf    on528269   4.999   2.370   4.449 -0.4507  0.4977 -0.8182
 5665ntf    on528270   4.932   2.131   4.489 -0.0853  0.3479 -0.1527
 5665ntf    on528271   4.521   2.306   4.352  0.1069 -0.1936  0.4825
 5665ntf    on528272   4.607   2.114   4.487  0.3272  0.0371  0.4245
 5665ntf    fn428273   4.554   2.026   4.227  0.0041  0.1132  0.3105
 5665ntf    fn428274   4.657   2.190   4.131 -0.3938 -0.1060 -0.1340
 5665ntf    fn428275   4.767   2.059   4.261 -0.0566 -1.0855 -0.3316
 5666ntf    cn128276   4.764   2.914   0.568  0.0926 -0.2516 -0.5279
 5666ntf    sn228277   4.707   2.836   0.721 -0.1239  0.3370 -0.3055
 5666ntf    nn328278   4.831   2.881   0.806  0.0768 -0.3081 -0.2532
 5666ntf    sn228279   4.891   2.802   0.928 -0.2583 -0.0382  0.0902
 5666ntf    cn128280   4.919   2.938   1.044  0.2232 -0.2538  0.2320
 5666ntf    fn428281   4.891   2.897   0.536  0.2654  0.2113 -0.1006
 5666ntf    fn428282   4.700   2.882   0.457 -0.6452 -0.2737 -0.1022
 5666ntf    fn428283   4.755   3.046   0.575 -0.0363 -0.2805 -0.1793
 5666ntf    on528284   4.589   2.909   0.761  0.1234  0.5086  0.1189
 5666ntf    on528285   4.691   2.698   0.682 -0.1179  0.2243  0.0754
 5666ntf    on528286   5.029   2.765   0.907 -0.2303  0.0835  0.0574
 5666ntf    on528287   4.798   2.711   0.990 -0.0859 -0.0171  0.3775
 5666ntf    fn428288   4.802   2.987   1.082  0.1648 -0.2544  0.0519
 5666ntf    fn428289   4.979   2.914   1.160  0.7630  0.3636  0.0862
 5666ntf    fn428290   4.989   3.032   0.981  0.0689 -0.3929 -0.1479
 5667ntf    cn128291   5.990   3.409   4.637 -0.3020 -0.1636 -0.3224
 5667ntf    sn228292   6.003   3.314   4.483  0.1133 -0.0233 -0.3769
 5667ntf    nn328293   5.857   3.254   4.475  0.1027  0.0410 -0.6417
 5667ntf    sn228294   5.808   3.114   4.425 -0.3691 -0.0890  0.1877
 5667ntf    cn128295   5.644   3.178   4.378 -0.4053  0.0111  0.4499
 5667ntf    fn428296   6.093   3.490   4.651 -0.3122 -0.1908 -0.0831
 5667ntf    fn428297   5.880   3.482   4.645 -0.1007  0.1060  0.0401
 5667ntf    fn428298   5.988   3.327   4.741 -0.5723  0.3618  0.0947
 5667ntf    on528299   6.017   3.415   4.382  0.4352 -0.0515 -0.3586
 5667ntf    on528300   6.107   3.216   4.505  0.0326  0.0528  0.3693
 5667ntf    on528301   5.771   3.025   4.533  0.0114 -0.4887 -0.0114
 5667ntf    on528302   5.866   3.070   4.301 -0.8890 -0.5948  0.1150
 5667ntf    fn428303   5.538   3.099   4.375 -0.4943  0.1151  0.8336
 5667ntf    fn428304   5.616   3.263   4.476 -0.1308  0.5693  0.0443
 5667ntf    fn428305   5.652   3.256   4.272 -0.1493 -0.1144  0.3745
 5668ntf    cn128306   6.793   3.745   3.735 -0.3912  0.0341  0.3973
 5668ntf    sn228307   6.947   3.838   3.767 -0.2861  0.1223 -0.3552
 5668ntf    nn328308   6.904   3.950   3.868  0.0233 -0.1265  0.0549
 5668ntf    sn228309   6.880   4.103   3.841 -0.0228 -0.1035  0.2244
 5668ntf    cn128310   6.775   4.138   3.985 -0.1251 -0.3190  0.2030
 5668ntf    fn428311   6.744   3.689   3.845  0.2763 -0.4274  0.4689
 5668ntf    fn428312   6.698   3.815   3.676  0.2193  0.0593 -0.5817
 5668ntf    fn428313   6.824   3.642   3.658  0.2582  0.5012  0.0252
 5668ntf    on528314   7.033   3.740   3.828  0.1288  0.7561  0.0851
 5668ntf    on528315   6.983   3.881   3.634  0.2729  0.1475 -0.1966
 5668ntf    on528316   6.806   4.137   3.722  0.2143  0.4543  0.2349
 5668ntf    on528317   6.998   4.184   3.861  0.0015 -0.1556  0.2870
 5668ntf    fn428318   6.847   4.158   4.094 -0.4038  0.9850  0.1710
 5668ntf    fn428319   6.724   4.258   3.963  0.3529 -0.1475  0.0012
 5668ntf    fn428320   6.676   4.052   4.002 -0.1719 -0.3162 -0.0546
 5669ntf    cn128321   3.371   7.508   7.299  0.0276  0.1710  0.1969
 5669ntf    sn228322   3.513   7.569   7.394  0.0792  0.3179  0.0248
 5669ntf    nn328323   3.470   7.536   7.541  0.6780  0.1400  0.1633
 5669ntf    sn228324   3.382   7.617   7.643  0.6775  0.1170  0.1807
 5669ntf    cn128325   3.496   7.727   7.732  0.5567  0.4685 -0.0998
 5669ntf    fn428326   3.364   7.376   7.289 -0.1020  0.1599  0.4310
 5669ntf    fn428327   3.252   7.549   7.340 -0.0701 -0.0719  0.1589
 5669ntf    fn428328   3.374   7.538   7.170 -0.2117  0.1873  0.1928
 5669ntf    on528329   3.613   7.473   7.357 -0.1806 -0.1558  0.5480
 5669ntf    on528330   3.529   7.705   7.348  0.0749  0.1674 -0.4283
 5669ntf    on528331   3.334   7.528   7.747 -0.3306 -0.0286 -0.3936
 5669ntf    on528332   3.286   7.708   7.584  0.4377 -0.4682 -0.3452
 5669ntf    fn428333   3.442   7.802   7.826 -0.4096  0.1519 -0.3890
 5669ntf    fn428334   3.603   7.664   7.777  0.0647 -0.1680  0.1953
 5669ntf    fn428335   3.544   7.813   7.643 -0.2504  0.0058 -1.0029
 5670ntf    cn128336   7.577   1.338   3.549  0.0322 -0.0266 -0.1110
 5670ntf    sn228337   7.526   1.419   3.703  0.3737  0.0843 -0.0572
 5670ntf    nn328338   7.443   1.541   3.649 -0.7179 -0.1563  1.0409
 5670ntf    sn228339   7.297   1.557   3.594 -0.2824  0.0353 -0.0886
 5670ntf    cn128340   7.336   1.676   3.462 -0.2039  0.2254  0.1054
 5670ntf    fn428341   7.640   1.229   3.590 -0.2913 -0.0269  0.3942
 5670ntf    fn428342   7.482   1.301   3.464 -0.0266 -0.4022  0.1146
 5670ntf    fn428343   7.659   1.410   3.475  0.0614 -0.3639 -0.4120
 5670ntf    on528344   7.454   1.315   3.771 -0.1550  0.0906 -0.6003
 5670ntf    on528345   7.651   1.463   3.760  0.4149  0.3803 -0.3701
 5670ntf    on528346   7.206   1.630   3.679  0.0125 -0.4194  0.6238
 5670ntf    on528347   7.245   1.440   3.528 -0.0184  0.0859 -0.3873
 5670ntf    fn428348   7.443   1.640   3.394 -0.2015 -0.4755  0.4640
 5670ntf    fn428349   7.242   1.705   3.374 -0.0766 -0.3771 -0.2321
 5670ntf    fn428350   7.360   1.795   3.515 -0.2011  0.3750 -0.2303
 5671ntf    cn128351   0.730   2.710   2.339  0.2583  0.2004  0.2777
 5671ntf    sn228352   0.696   2.563   2.238 -0.0090  0.2920  0.2347
 5671ntf    nn328353   0.633   2.634   2.113 -0.3223 -0.4454 -0.0314
 5671ntf    sn228354   0.631   2.575   1.968  0.0471 -0.1550 -0.1557
 5671ntf    cn128355   0.485   2.653   1.893 -0.0021 -0.2137 -0.1210
 5671ntf    fn428356   0.622   2.779   2.373  0.1835  0.1336  0.1757
 5671ntf    fn428357   0.778   2.678   2.459  0.4315  0.0625  0.1727
 5671ntf    fn428358   0.817   2.788   2.278  0.3341 -0.4825 -0.4944
 5671ntf    on528359   0.826   2.504   2.217  0.1315  0.6550  0.0733
 5671ntf    on528360   0.598   2.494   2.319  0.3841 -0.4136  0.1121
 5671ntf    on528361   0.619   2.433   1.948  0.1934 -0.1074 -0.6096
 5671ntf    on528362   0.744   2.624   1.892 -0.4985  0.0002 -0.8797
 5671ntf    fn428363   0.374   2.641   1.965 -0.1501  0.0692 -0.3002
 5671ntf    fn428364   0.498   2.784   1.877 -0.2848 -0.1339  0.2804
 5671ntf    fn428365   0.464   2.603   1.772 -0.0228 -0.6284  0.0523
 5672ntf    cn128366   4.074   2.010   2.872 -0.3503  0.0173  0.2726
 5672ntf    sn228367   4.253   2.025   2.899 -0.3017 -0.1043  0.0310
 5672ntf    nn328368   4.264   1.893   2.983  0.2882 -0.2248 -0.2322
 5672ntf    sn228369   4.342   1.868   3.118  0.0964  0.0881 -0.0623
 5672ntf    cn128370   4.206   1.867   3.239  0.1846 -0.2573  0.0328
 5672ntf    fn428371   4.046   1.897   2.809  0.3440  0.1554 -0.2985
 5672ntf    fn428372   4.019   2.007   2.992 -0.2116  0.0628  0.3371
 5672ntf    fn428373   4.017   2.109   2.804 -0.0108  0.0156 -0.0186
 5672ntf    on528374   4.315   2.022   2.769  0.1927 -0.2522  0.2684
 5672ntf    on528375   4.265   2.145   2.978 -0.1854 -0.1098  0.0221
 5672ntf    on528376   4.428   1.979   3.150 -1.1123  0.9563  0.2359
 5672ntf    on528377   4.381   1.730   3.120 -0.7116 -0.1415  0.3701
 5672ntf    fn428378   4.240   1.812   3.354  0.4958  0.2319  0.1795
 5672ntf    fn428379   4.159   1.987   3.266 -0.0540 -0.3265 -0.0742
 5672ntf    fn428380   4.102   1.799   3.193 -0.0072  0.2443 -0.2864
 5673ntf    cn128381   4.390   3.104   2.083 -0.0143  0.3668 -0.0725
 5673ntf    sn228382   4.479   3.045   1.935  0.0331  0.5168 -0.1032
 5673ntf    nn328383   4.371   3.027   1.824 -0.1208  0.0681  0.1206
 5673ntf    sn228384   4.313   3.140   1.732  0.2361  0.2343  0.1017
 5673ntf    cn128385   4.421   3.107   1.589 -0.0211  0.0271 -0.0463
 5673ntf    fn428386   4.311   3.206   2.055 -0.2767  0.2774  0.3361
 5673ntf    fn428387   4.303   3.014   2.126 -0.3193  0.4240 -0.5605
 5673ntf    fn428388   4.472   3.136   2.182  0.2746  0.3907 -0.3172
 5673ntf    on528389   4.582   3.142   1.905  0.6952 -0.0774  0.2101
 5673ntf    on528390   4.524   2.918   1.986 -0.1792  0.6248  0.3659
 5673ntf    on528391   4.345   3.278   1.757  0.6118  0.1292  0.2160
 5673ntf    on528392   4.184   3.105   1.677  0.2749  0.4253 -0.1143
 5673ntf    fn428393   4.550   3.123   1.616 -0.1778 -0.0440  0.7613
 5673ntf    fn428394   4.410   2.986   1.537  0.1969  0.1378 -0.3517
 5673ntf    fn428395   4.392   3.184   1.485  0.1862  0.7582  0.4283
 5674ntf    cn128396   6.586   5.278   7.095  0.0647  0.2236  0.2533
 5674ntf    sn228397   6.597   5.150   7.224 -0.1646  0.0697  0.1212
 5674ntf    nn328398   6.750   5.124   7.244 -0.1855  0.0519  0.2639
 5674ntf    sn228399   6.853   5.211   7.326 -0.0053  0.2139 -0.1290
 5674ntf    cn128400   6.971   5.090   7.392 -0.2262  0.0872  0.0340
 5674ntf    fn428401   6.672   5.377   7.115  0.4125 -0.0634  0.1811
 5674ntf    fn428402   6.612   5.233   6.974  0.1257  0.2527  0.2552
 5674ntf    fn428403   6.465   5.332   7.094 -0.3383 -0.6587  0.0867
 5674ntf    on528404   6.523   5.210   7.332 -0.4214 -0.1132  0.0473
 5674ntf    on528405   6.530   5.035   7.170 -0.1363 -0.1264  0.5019
 5674ntf    on528406   6.790   5.260   7.446 -0.8886  0.4758 -0.6799
 5674ntf    on528407   6.934   5.300   7.247  0.1096  0.1422 -0.0918
 5674ntf    fn428408   7.043   5.025   7.303 -0.8159 -0.0320 -0.3613
 5674ntf    fn428409   7.059   5.137   7.479 -0.1613  0.1783 -0.0819
 5674ntf    fn428410   6.910   4.991   7.456 -0.4528  0.3405  0.2146
 5675ntf    cn128411   3.199   1.097   1.354 -0.1919  0.2388  0.4424
 5675ntf    sn228412   3.044   1.135   1.440 -0.3211  0.1352  0.2560
 5675ntf    nn328413   3.021   1.285   1.401 -0.0272  0.1414  0.1068
 5675ntf    sn228414   2.896   1.350   1.332  0.0170  0.0610 -0.0481
 5675ntf    cn128415   2.921   1.303   1.158 -0.4392  0.0982 -0.1236
 5675ntf    fn428416   3.260   1.214   1.340 -0.1862  0.1651 -0.2044
 5675ntf    fn428417   3.287   1.019   1.414 -0.5308 -0.3738  0.1487
 5675ntf    fn428418   3.177   1.048   1.233 -0.2130  0.2304  0.4495
 5675ntf    on528419   2.952   1.040   1.383 -0.6233  0.4182  0.2703
 5675ntf    on528420   3.077   1.122   1.580 -0.1203  0.2600  0.2195
 5675ntf    on528421   2.899   1.493   1.319  0.3227  0.0607  0.0083
 5675ntf    on528422   2.773   1.292   1.379 -0.1390  0.3948 -0.0417
 5675ntf    fn428423   2.889   1.178   1.129 -0.0868  0.1084 -0.5632
 5675ntf    fn428424   2.866   1.372   1.059 -0.0410  0.5083 -0.0625
 5675ntf    fn428425   3.050   1.310   1.133 -0.3306 -0.8849  0.1308
 5676ntf    cn128426   2.206   3.647   3.548  0.1669  0.2122 -0.2594
 5676ntf    sn228427   2.335   3.537   3.482  0.0861 -0.1770  0.2273
 5676ntf    nn328428   2.470   3.604   3.527  0.3307 -0.2751 -0.3512
 5676ntf    sn228429   2.558   3.583   3.655 -0.1322  0.1722  0.0492
 5676ntf    cn128430   2.646   3.425   3.631 -0.0365  0.1844  0.3181
 5676ntf    fn428431   2.229   3.773   3.515  0.0420  0.3575  0.1956
 5676ntf    fn428432   2.092   3.607   3.494 -0.2464  0.1078  0.6716
 5676ntf    fn428433   2.209   3.636   3.680 -0.1320  0.2815 -0.2453
 5676ntf    on528434   2.307   3.414   3.551  0.5445 -0.4614 -0.0922
 5676ntf    on528435   2.312   3.546   3.340 -0.1164 -0.5807  0.2350
 5676ntf    on528436   2.482   3.556   3.774 -0.2014 -0.2108 -0.0802
 5676ntf    on528437   2.666   3.677   3.670 -0.3216  0.3027  0.6252
 5676ntf    fn428438   2.564   3.321   3.630 -0.1438  0.2711 -0.1160
 5676ntf    fn428439   2.710   3.423   3.515  0.3480 -0.3056  0.5384
 5676ntf    fn428440   2.742   3.401   3.719 -0.0260 -0.1821  0.2039
 5677ntf    cn128441   4.705   7.121   1.012  0.6021 -0.0026 -0.0364
 5677ntf    sn228442   4.785   7.280   1.047  0.0811  0.2245  0.1227
 5677ntf    nn328443   4.933   7.228   1.052  0.2609  0.7422  0.2647
 5677ntf    sn228444   5.006   7.145   1.164 -0.7200 -0.3767  0.0940
 5677ntf    cn128445   5.179   7.190   1.134 -0.7217 -0.4213  0.0149
 5677ntf    fn428446   4.771   7.044   0.926  0.1905 -0.6914  0.2601
 5677ntf    fn428447   4.713   7.046   1.120  0.3478  0.0271  0.0026
 5677ntf    fn428448   4.581   7.149   0.975  0.5591  0.0914  0.1814
 5677ntf    on528449   4.754   7.359   0.930  0.3931  0.0910 -0.0533
 5677ntf    on528450   4.734   7.318   1.176  0.1922 -0.4352  0.3606
 5677ntf    on528451   4.996   7.004   1.137  0.4541 -0.4039 -0.2429
 5677ntf    on528452   4.991   7.185   1.302 -0.5622 -0.0558  0.0186
 5677ntf    fn428453   5.216   7.314   1.164 -0.9167 -0.3477 -0.0490
 5677ntf    fn428454   5.267   7.112   1.194  0.1049  0.3540 -0.1528
 5677ntf    fn428455   5.206   7.170   1.006 -0.3547  0.0014  0.0215
 5678ntf    cn128456   4.738   3.294   1.404 -0.1154  0.2649  0.1662
 5678ntf    sn228457   4.866   3.166   1.422 -0.1649  0.1658 -0.1749
 5678ntf    nn328458   4.972   3.234   1.329 -0.1070  0.5699  0.1843
 5678ntf    sn228459   5.126   3.262   1.339  0.0511 -0.2277  0.0058
 5678ntf    cn128460   5.186   3.149   1.209  0.0195 -0.3041  0.0570
 5678ntf    fn428461   4.761   3.407   1.467  0.1923  0.0360  0.4660
 5678ntf    fn428462   4.732   3.331   1.277  0.3516 -0.6432 -0.1306
 5678ntf    fn428463   4.616   3.258   1.441  0.1127 -0.4495  0.2362
 5678ntf    on528464   4.912   3.173   1.558 -0.0854 -0.4748 -0.1673
 5678ntf    on528465   4.808   3.041   1.378 -0.2060  0.0790  0.1257
 5678ntf    on528466   5.189   3.203   1.455  0.1936  0.1451  0.1184
 5678ntf    on528467   5.160   3.395   1.296 -0.2580 -0.1714 -0.0666
 5678ntf    fn428468   5.311   3.180   1.176 -0.1201 -0.1614 -0.3428
 5678ntf    fn428469   5.177   3.021   1.240  0.6326 -0.2919  0.3151
 5678ntf    fn428470   5.118   3.173   1.099  0.4008  0.1723 -0.0813
 5679ntf    cn128471   4.284   6.927   0.795 -0.1717 -0.1929  0.4039
 5679ntf    sn228472   4.299   6.797   0.669 -0.0027  0.3060 -0.0913
 5679ntf    nn328473   4.175   6.713   0.715  0.7111 -0.5232  0.3614
 5679ntf    sn228474   4.055   6.656   0.632  0.4887  0.0913  0.2527
 5679ntf    cn128475   4.067   6.490   0.704  0.6689  0.1077  0.2604
 5679ntf    fn428476   4.399   6.990   0.817 -0.2044 -0.1569  0.4728
 5679ntf    fn428477   4.197   7.018   0.757 -0.1345 -0.3850 -0.1472
 5679ntf    fn428478   4.244   6.880   0.913 -0.6757 -0.4925  0.1140
 5679ntf    on528479   4.292   6.866   0.542 -0.2564  0.0924 -0.1941
 5679ntf    on528480   4.426   6.737   0.700 -0.1305  0.2957  0.4202
 5679ntf    on528481   4.072   6.635   0.490 -0.8574  0.2858  0.0501
 5679ntf    on528482   3.927   6.703   0.680  0.2714  0.1882 -0.4011
 5679ntf    fn428483   3.971   6.409   0.662  0.3111  0.5225  0.2729
 5679ntf    fn428484   4.186   6.447   0.664  0.3089 -0.5554 -0.1356
 5679ntf    fn428485   4.067   6.482   0.836  0.1197 -0.0578  0.2531
 5680ntf    cn128486   4.437   5.773   1.375  0.0161 -0.0665  0.1453
 5680ntf    sn228487   4.311   5.766   1.507 -0.0020 -0.0526  0.1284
 5680ntf    nn328488   4.182   5.758   1.418 -0.1745 -0.8038  0.4367
 5680ntf    sn228489   4.039   5.739   1.479 -0.3148 -0.4635  0.2177
 5680ntf    cn128490   3.939   5.837   1.363  0.1236 -0.2633  0.0093
 5680ntf    fn428491   4.396   5.854   1.279  0.0173 -0.3433 -0.0877
 5680ntf    fn428492   4.551   5.829   1.411 -0.1748  0.5454 -0.1949
 5680ntf    fn428493   4.472   5.659   1.319  0.0287 -0.1473  0.3170
 5680ntf    on528494   4.339   5.644   1.579  0.8126  0.2708  0.3663
 5680ntf    on528495   4.339   5.892   1.571 -0.0602 -0.2254  0.4964
 5680ntf    on528496   4.013   5.804   1.605 -0.1544 -0.2503  0.1403
 5680ntf    on528497   3.984   5.605   1.475 -0.2985 -0.4833  0.6043
 5680ntf    fn428498   3.934   5.783   1.243  0.9462  0.5860 -0.4203
 5680ntf    fn428499   3.811   5.833   1.397  0.0671 -0.1448 -0.1875
 5680ntf    fn428500   3.985   5.959   1.343  0.5319 -0.3148  0.6052
 5681ntf    cn128501   1.958   6.876   0.781 -0.1833 -0.2133 -0.0194
 5681ntf    sn228502   1.808   6.823   0.692 -0.1145 -0.1523 -0.1711
 5681ntf    nn328503   1.716   6.950   0.689  0.0106 -0.0578  0.0345
 5681ntf    sn228504   1.711   7.062   0.579 -0.0266  0.0239  0.1184
 5681ntf    cn128505   1.634   7.197   0.672  0.0810  0.2011 -0.0494
 5681ntf    fn428506   2.061   6.794   0.775  0.1166  0.1773 -0.2411
 5681ntf    fn428507   1.999   6.995   0.740 -0.0595 -0.2887 -0.1148
 5681ntf    fn428508   1.936   6.900   0.909  0.2514 -0.3588  0.0825
 5681ntf    on528509   1.854   6.775   0.564  0.3942 -0.4818  0.1326
 5681ntf    on528510   1.739   6.727   0.774 -0.5393  0.5019  0.2480
 5681ntf    on528511   1.623   7.037   0.467  0.8835 -0.1231 -0.5750
 5681ntf    on528512   1.841   7.117   0.552  0.1562 -0.5063 -0.1040
 5681ntf    fn428513   1.509   7.164   0.699  0.1150 -0.0235 -0.1704
 5681ntf    fn428514   1.696   7.237   0.782 -0.1287  0.0905  0.1089
 5681ntf    fn428515   1.627   7.304   0.593  0.4779  0.3821  0.1576
 5682ntf    cn128516   0.427   3.634   5.715 -0.0511  0.3373 -0.0054
 5682ntf    sn228517   0.504   3.533   5.845  0.1867  0.1043 -0.3242
 5682ntf    nn328518   0.644   3.502   5.782  0.2451 -0.1513 -0.0665
 5682ntf    sn228519   0.761   3.605   5.771  0.1367 -0.0134  0.0640
 5682ntf    cn128520   0.863   3.529   5.901 -0.1223 -0.0389  0.2514
 5682ntf    fn428521   0.314   3.688   5.759 -0.1143  0.0559  0.1813
 5682ntf    fn428522   0.511   3.728   5.675  0.5485  0.0289  0.5237
 5682ntf    fn428523   0.389   3.574   5.602  0.0560  0.2219  0.0200
 5682ntf    on528524   0.515   3.619   5.961  0.4687 -0.5168  0.1110
 5682ntf    on528525   0.414   3.420   5.854  0.1245  0.2128  0.4760
 5682ntf    on528526   0.749   3.740   5.820 -0.1283  0.1094 -0.3344
 5682ntf    on528527   0.841   3.590   5.651 -0.4999 -0.1040 -0.3522
 5682ntf    fn428528   0.987   3.574   5.901 -0.1260 -0.0248 -0.3380
 5682ntf    fn428529   0.817   3.553   6.023 -0.3453  0.0099  0.1586
 5682ntf    fn428530   0.866   3.399   5.881 -0.3239  0.0726 -0.5211
 5683ntf    cn128531   3.784   5.949   0.920 -0.3869  0.1424 -0.4921
 5683ntf    sn228532   3.854   5.815   0.818 -0.2490 -0.1503 -0.0129
 5683ntf    nn328533   3.777   5.837   0.683  0.0378 -0.4064 -0.2191
 5683ntf    sn228534   3.829   5.850   0.536 -0.0770  0.2239 -0.2063
 5683ntf    cn128535   3.693   5.941   0.457 -0.1722 -0.0438 -0.3516
 5683ntf    fn428536   3.800   6.067   0.861 -0.5056  0.6538  0.4794
 5683ntf    fn428537   3.666   5.931   0.977 -0.3250 -0.2617 -0.4883
 5683ntf    fn428538   3.868   5.952   1.022  0.3293  0.7117 -1.0800
 5683ntf    on528539   3.993   5.850   0.814 -0.2435 -0.1357  0.2982
 5683ntf    on528540   3.820   5.691   0.883  1.0375 -0.3640  0.2692
 5683ntf    on528541   3.830   5.733   0.452 -0.6736  0.3599 -0.4068
 5683ntf    on528542   3.939   5.943   0.523  0.0782  0.1369  0.4808
 5683ntf    fn428543   3.585   5.865   0.462 -0.3832  0.2518 -0.4175
 5683ntf    fn428544   3.661   6.055   0.516 -0.0735 -0.1346 -0.1222
 5683ntf    fn428545   3.718   5.968   0.330  0.6342  0.2240 -0.1441
 5684ntf    cn128546   1.632   3.486   1.583  0.1589  0.0384 -0.0670
 5684ntf    sn228547   1.597   3.539   1.754 -0.1329  0.0382 -0.1272
 5684ntf    nn328548   1.643   3.411   1.833 -0.0131  0.2157  0.0903
 5684ntf    sn228549   1.782   3.385   1.900 -0.0318  0.1686  0.1110
 5684ntf    cn128550   1.752   3.428   2.074  0.0024  0.0215  0.1526
 5684ntf    fn428551   1.639   3.586   1.497 -0.2903 -0.3363 -0.5444
 5684ntf    fn428552   1.749   3.423   1.573 -0.3390 -0.8886 -0.1681
 5684ntf    fn428553   1.534   3.406   1.546  0.1500 -0.0444  0.1352
 5684ntf    on528554   1.685   3.652   1.767  0.0697 -0.1948  0.5654
 5684ntf    on528555   1.454   3.557   1.750 -0.1474  0.0697  0.4550
 5684ntf    on528556   1.893   3.470   1.863  0.2115  0.0415  0.5420
 5684ntf    on528557   1.809   3.244   1.910 -0.3894  0.0735 -0.2432
 5684ntf    fn428558   1.693   3.325   2.133  0.5216 -0.5438 -0.2982
 5684ntf    fn428559   1.868   3.435   2.137  0.2335 -0.5031 -0.2108
 5684ntf    fn428560   1.688   3.539   2.105  0.4266  0.1731  0.4970
 5685ntf    cn128561   5.714   6.926   3.814  0.0359  0.1185  0.6010
 5685ntf    sn228562   5.723   7.075   3.711 -0.0655 -0.2478  0.0566
 5685ntf    nn328563   5.837   7.017   3.620 -0.2441  0.4425 -0.6250
 5685ntf    sn228564   5.989   7.056   3.612 -0.0791 -0.0932 -0.1538
 5685ntf    cn128565   6.055   6.897   3.554  0.1196  0.0960 -0.4446
 5685ntf    fn428566   5.679   6.823   3.738  0.1120  0.0766  0.6222
 5685ntf    fn428567   5.828   6.910   3.879  0.2778  0.0029  0.1504
 5685ntf    fn428568   5.624   6.931   3.911 -0.5157  0.3974  0.0861
 5685ntf    on528569   5.603   7.097   3.634 -0.2412  0.5526  0.5357
 5685ntf    on528570   5.759   7.180   3.803  0.2539 -0.6585  0.4018
 5685ntf    on528571   6.056   7.073   3.739 -0.0655  0.0497 -0.1805
 5685ntf    on528572   6.012   7.148   3.504  0.2375  0.5001  0.4058
 5685ntf    fn428573   6.186   6.890   3.565  0.0536  0.1442  0.4116
 5685ntf    fn428574   6.013   6.793   3.624  0.3593  0.1702 -0.1903
 5685ntf    fn428575   6.027   6.872   3.427  0.5060  0.2495 -0.5606
 5686ntf    cn128576   5.840   1.819   6.633 -0.3509 -0.3686  0.2918
 5686ntf    sn228577   5.731   1.673   6.628  0.0006 -0.6311  0.1865
 5686ntf    nn328578   5.592   1.743   6.657  0.2028 -0.0691 -0.1792
 5686ntf    sn228579   5.485   1.790   6.553 -0.2048 -0.4228  0.0766
 5686ntf    cn128580   5.399   1.923   6.643  0.4552  0.1457 -0.1169
 5686ntf    fn428581   5.828   1.892   6.524  0.1985 -0.1595  0.3670
 5686ntf    fn428582   5.810   1.904   6.730  0.1347 -0.1931  0.2889
 5686ntf    fn428583   5.969   1.791   6.643 -0.2573 -0.2799 -0.5905
 5686ntf    on528584   5.760   1.613   6.500  0.2495 -0.0604 -0.0283
 5686ntf    on528585   5.758   1.582   6.736  0.3809 -0.8349 -0.0843
 5686ntf    on528586   5.384   1.694   6.517 -0.0441 -0.4915 -0.1982
 5686ntf    on528587   5.550   1.859   6.444 -0.6695  0.3069  0.2519
 5686ntf    fn428588   5.460   2.040   6.645  0.6713  0.0281  0.1242
 5686ntf    fn428589   5.277   1.944   6.596  0.3319 -0.6883 -0.1859
 5686ntf    fn428590   5.369   1.890   6.768 -0.2878  0.1309 -0.2920
 5687ntf    cn128591   6.008   5.784   6.953  0.4533  0.0996 -0.0565
 5687ntf    sn228592   6.044   5.889   6.809  0.0818  0.2306 -0.0567
 5687ntf    nn328593   6.161   5.967   6.877 -0.1079  0.1286  0.3901
 5687ntf    sn228594   6.310   5.981   6.829 -0.1382  0.1664  0.3066
 5687ntf    cn128595   6.387   5.868   6.949  0.0081  0.1998  0.2447
 5687ntf    fn428596   6.111   5.708   6.986  0.0996 -0.4183 -0.1327
 5687ntf    fn428597   5.990   5.868   7.054 -0.1795 -0.1883  0.0741
 5687ntf    fn428598   5.899   5.711   6.931  0.2852  0.4047 -0.2503
 5687ntf    on528599   6.073   5.788   6.709  0.3378  0.1615  0.0853
 5687ntf    on528600   5.923   5.967   6.799 -0.3136 -0.3011  0.5164
 5687ntf    on528601   6.364   6.112   6.859  0.1308 -0.1188  1.0871
 5687ntf    on528602   6.342   5.924   6.701 -0.3398  0.5929  0.0645
 5687ntf    fn428603   6.517   5.887   6.963  0.0246 -0.0514  0.4372
 5687ntf    fn428604   6.329   5.891   7.066  0.0143  0.0423  0.2788
 5687ntf    fn428605   6.374   5.741   6.916  0.0244  0.2874 -0.1047
 5688ntf    cn128606   0.709   5.594   7.114  0.2826 -0.1148  0.1658
 5688ntf    sn228607   0.569   5.492   7.170  0.2476 -0.1507  0.0144
 5688ntf    nn328608   0.451   5.571   7.103 -0.0072 -0.1836  0.4198
 5688ntf    sn228609   0.387   5.707   7.146  0.2033  0.0370  0.0462
 5688ntf    cn128610   0.382   5.802   6.991 -0.2272 -0.2976 -0.1475
 5688ntf    fn428611   0.715   5.712   7.173 -0.6436  0.0614 -0.0843
 5688ntf    fn428612   0.821   5.527   7.138  0.5144  0.3235  0.3209
 5688ntf    fn428613   0.702   5.616   6.984 -0.2731 -0.7680  0.0777
 5688ntf    on528614   0.599   5.362   7.115 -0.3307 -0.3701  0.2121
 5688ntf    on528615   0.578   5.504   7.314  0.0826 -0.1291  0.0224
 5688ntf    on528616   0.477   5.791   7.222 -0.2900  0.5709  0.0487
 5688ntf    on528617   0.247   5.702   7.179  0.2798  0.6750  0.5017
 5688ntf    fn428618   0.498   5.807   6.927 -0.0016 -0.7573  0.2226
 5688ntf    fn428619   0.285   5.752   6.917 -0.2351 -0.3483 -0.1038
 5688ntf    fn428620   0.336   5.923   7.018  0.1904 -0.1509 -0.0878
 5689ntf    cn128621   1.860   2.538   6.388 -0.0209 -0.0058 -0.3039
 5689ntf    sn228622   1.698   2.516   6.307 -0.1848  0.3762 -0.0824
 5689ntf    nn328623   1.654   2.375   6.362  0.3868  0.2654  0.1011
 5689ntf    sn228624   1.643   2.230   6.302  0.2545  0.3831 -0.1639
 5689ntf    cn128625   1.698   2.145   6.453 -0.0431  0.3595 -0.0682
 5689ntf    fn428626   1.851   2.466   6.499 -0.0126 -0.1014 -0.3649
 5689ntf    fn428627   1.962   2.489   6.320  0.1261  0.1829 -0.2208
 5689ntf    fn428628   1.888   2.666   6.408  0.0236 -0.0533 -0.0675
 5689ntf    on528629   1.629   2.631   6.360 -0.1838  0.2214  0.2576
 5689ntf    on528630   1.738   2.524   6.169 -0.1496 -0.3485 -0.1173
 5689ntf    on528631   1.747   2.192   6.209  0.4313 -0.3888  0.3421
 5689ntf    on528632   1.510   2.186   6.272  0.4275 -0.2949  0.0448
 5689ntf    fn428633   1.806   2.207   6.498  0.2313  0.0316 -0.2646
 5689ntf    fn428634   1.602   2.133   6.543  0.1888 -0.4519  0.0810
 5689ntf    fn428635   1.739   2.021   6.433 -0.2806  0.2803 -0.0621
 5690ntf    cn128636   4.731   7.438   4.691 -0.3093  0.1058  0.0869
 5690ntf    sn228637   4.646   7.527   4.557 -0.1389 -0.2079 -0.2295
 5690ntf    nn328638   4.711   7.669   4.565 -0.3089 -0.1191 -0.4298
 5690ntf    sn228639   4.737   7.759   4.691 -0.0134 -0.5045 -0.2175
 5690ntf    cn128640   4.752   7.920   4.609  0.0205 -0.4969 -0.1957
 5690ntf    fn428641   4.860   7.466   4.703 -0.1821 -0.1420 -0.6738
 5690ntf    fn428642   4.668   7.460   4.805  0.2234  0.2477  0.3590
 5690ntf    fn428643   4.733   7.308   4.669 -0.7384  0.1014  0.0696
 5690ntf    on528644   4.695   7.456   4.441 -0.2037  0.3244 -0.5838
 5690ntf    on528645   4.508   7.516   4.599  0.0254 -0.4865  0.2407
 5690ntf    on528646   4.868   7.734   4.746 -0.4989 -0.7397  0.8698
 5690ntf    on528647   4.632   7.796   4.782  0.1694 -0.4033 -0.0467
 5690ntf    fn428648   4.649   7.967   4.540  0.6071  0.7148 -0.2792
 5690ntf    fn428649   4.783   8.019   4.691 -0.2217 -0.1464 -0.5254
 5690ntf    fn428650   4.842   7.928   4.512 -0.4104 -0.7716 -0.6202
 5691ntf    cn128651   5.092   1.975   2.049 -0.0130 -0.1430 -0.4141
 5691ntf    sn228652   5.008   1.919   2.200  0.2680 -0.0800 -0.2338
 5691ntf    nn328653   4.862   1.973   2.185  0.5018  0.5471 -0.2926
 5691ntf    sn228654   4.756   1.931   2.077 -0.1066 -0.2745  0.6051
 5691ntf    cn128655   4.600   1.963   2.165 -0.2764  0.0356  0.1976
 5691ntf    fn428656   5.220   1.941   2.057  0.0523  0.1654 -0.1150
 5691ntf    fn428657   5.039   1.938   1.934 -0.0083 -0.0729 -0.4391
 5691ntf    fn428658   5.102   2.107   2.044  0.1264 -0.1055  0.5755
 5691ntf    on528659   5.031   1.777   2.198  0.2330 -0.0923  0.1587
 5691ntf    on528660   5.079   1.979   2.311 -0.1361 -0.2606  0.1273
 5691ntf    on528661   4.758   1.790   2.049  0.0805 -0.1060 -0.2477
 5691ntf    on528662   4.752   2.014   1.959  0.1599 -0.0889  0.7280
 5691ntf    fn428663   4.608   2.072   2.238  0.6840 -0.4620  0.8569
 5691ntf    fn428664   4.511   2.001   2.075  0.1894  0.6834  0.0110
 5691ntf    fn428665   4.548   1.869   2.243 -0.3013  0.3494  0.5578
 5692ntf    cn128666   5.370   6.719   0.180  0.4544  0.7570  0.3609
 5692ntf    sn228667   5.214   6.687   0.267  0.3473 -0.1193 -0.1383
 5692ntf    nn328668   5.122   6.772   0.172 -0.0314 -0.1607  0.1878
 5692ntf    sn228669   5.020   6.743   0.056  0.0870 -0.0956  0.0677
 5692ntf    cn128670   5.128   6.720  -0.089 -0.1845 -0.1630 -0.1255
 5692ntf    fn428671   5.391   6.848   0.159  0.5391  0.7221  0.2238
 5692ntf    fn428672   5.468   6.658   0.244  0.1952  0.1521  0.1864
 5692ntf    fn428673   5.368   6.673   0.055  0.1338  0.7267  0.3759
 5692ntf    on528674   5.197   6.544   0.261  0.1991 -0.0848 -0.5510
 5692ntf    on528675   5.225   6.745   0.399 -0.8522  0.0779 -0.1127
 5692ntf    on528676   4.941   6.856   0.014 -0.3814 -0.2614  0.5037
 5692ntf    on528677   4.948   6.618   0.060  0.2233 -0.1548  0.8419
 5692ntf    fn428678   5.048   6.685  -0.188 -0.4524  0.3227 -0.0800
 5692ntf    fn428679   5.189   6.830  -0.130 -0.0191 -0.1375  0.1838
 5692ntf    fn428680   5.207   6.614  -0.075 -0.5502 -0.4220  0.0022
 5693ntf    cn128681   7.585   6.102   4.466  0.3526  0.2636 -0.0099
 5693ntf    sn228682   7.692   6.081   4.321  0.0103 -0.4371 -0.1639
 5693ntf    nn328683   7.607   6.168   4.222 -0.0218 -0.2003  0.0734
 5693ntf    sn228684   7.628   6.309   4.155 -0.0589 -0.2061  0.0486
 5693ntf    cn128685   7.517   6.416   4.251 -0.3165 -0.5532  0.1401
 5693ntf    fn428686   7.486   6.014   4.468 -0.1729  0.8479  1.0512
 5693ntf    fn428687   7.650   6.074   4.578  0.0488 -0.4269 -0.0011
 5693ntf    fn428688   7.529   6.219   4.490 -0.2789 -0.0219 -0.0724
 5693ntf    on528689   7.811   6.137   4.378 -0.0881 -0.2877 -0.1053
 5693ntf    on528690   7.691   5.940   4.290  0.5291 -0.6033  0.5753
 5693ntf    on528691   7.583   6.312   4.018  0.2790 -0.4240 -0.0696
 5693ntf    on528692   7.760   6.362   4.177  0.0494 -0.5463  0.2272
 5693ntf    fn428693   7.557   6.426   4.377 -0.1128  0.9588 -0.0319
 5693ntf    fn428694   7.518   6.535   4.193 -0.0805 -0.2248  0.7978
 5693ntf    fn428695   7.392   6.374   4.248 -0.6087  0.2746  0.5112
 5694ntf    cn128696   6.744   7.050   1.501  0.0788 -0.0954 -0.6406
 5694ntf    sn228697   6.766   7.229   1.526 -0.0105 -0.1576 -0.1066
 5694ntf    nn328698   6.755   7.255   1.372  0.1882 -0.6662 -0.2102
 5694ntf    sn228699   6.628   7.306   1.295 -0.0168 -0.3665  0.3220
 5694ntf    cn128700   6.640   7.486   1.316 -0.0904 -0.2965 -0.2214
 5694ntf    fn428701   6.751   6.982   1.615  0.0475  0.3590 -0.3670
 5694ntf    fn428702   6.626   7.017   1.450 -0.0341  0.1603 -0.5436
 5694ntf    fn428703   6.834   6.995   1.422  0.4222 -0.0217 -0.3017
 5694ntf    on528704   6.651   7.256   1.609  0.0179  0.1010 -0.1511
 5694ntf    on528705   6.896   7.236   1.587 -0.1717  0.0116  0.2187
 5694ntf    on528706   6.507   7.252   1.351 -0.4088 -0.3359 -0.4737
 5694ntf    on528707   6.638   7.287   1.152 -0.1626  0.6166  0.1764
 5694ntf    fn428708   6.606   7.520   1.439  0.1372 -0.2064 -0.1832
 5694ntf    fn428709   6.759   7.539   1.293 -0.6786  1.1617 -0.0549
 5694ntf    fn428710   6.553   7.544   1.234 -0.1599  0.1704  0.1795
 5695ntf    cn128711   5.278   1.334   4.093 -0.2013  0.2407 -0.1264
 5695ntf    sn228712   5.247   1.157   4.123  0.4716 -0.0175 -0.8931
 5695ntf    nn328713   5.122   1.151   4.029 -0.2031 -0.0482 -0.0161
 5695ntf    sn228714   5.111   1.107   3.878  0.2582 -0.3955  0.0488
 5695ntf    cn128715   5.024   0.948   3.892  0.2771 -0.4185 -0.0948
 5695ntf    fn428716   5.303   1.362   3.966 -0.5666  0.6271 -0.1154
 5695ntf    fn428717   5.176   1.405   4.137 -0.0484  0.0361  0.5578
 5695ntf    fn428718   5.388   1.384   4.147  0.2470  0.0232 -0.8181
 5695ntf    on528719   5.374   1.106   4.077  0.6299 -0.7109  0.2614
 5695ntf    on528720   5.230   1.156   4.267  1.1258 -0.1673 -0.8142
 5695ntf    on528721   5.232   1.082   3.804  0.3185  0.1671 -0.0442
 5695ntf    on528722   5.015   1.195   3.816  0.2445 -0.6071 -0.2333
 5695ntf    fn428723   4.901   0.976   3.931  0.2927 -0.4282 -0.0397
 5695ntf    fn428724   5.015   0.870   3.786 -0.4703  0.2537 -0.5386
 5695ntf    fn428725   5.085   0.874   3.983  0.3732  0.0840  0.2558
 5696ntf    cn128726   2.820   2.015   5.418 -0.2595  0.6107 -0.5287
 5696ntf    sn228727   2.688   2.027   5.294 -0.1070  0.5149 -0.7005
 5696ntf    nn328728   2.771   2.065   5.166  0.2814  0.5718 -0.4329
 5696ntf    sn228729   2.708   2.104   5.028  0.0711  0.3731 -0.3939
 5696ntf    cn128730   2.722   1.951   4.929  0.1573  0.0127  0.1704
 5696ntf    fn428731   2.787   2.005   5.546 -0.1071  0.9392 -0.4615
 5696ntf    fn428732   2.902   1.915   5.391  0.0551  0.8583 -0.5043
 5696ntf    fn428733   2.906   2.115   5.404 -0.1360  0.4766 -0.7285
 5696ntf    on528734   2.636   1.892   5.294  0.9045  0.1139  0.2031
 5696ntf    on528735   2.601   2.129   5.348 -0.1323  0.3067 -0.3448
 5696ntf    on528736   2.800   2.193   4.962  0.2167  0.6364  0.1648
 5696ntf    on528737   2.570   2.144   5.020 -0.1655 -0.3476 -0.0417
 5696ntf    fn428738   2.616   1.875   4.950 -0.0632  0.4048  0.5063
 5696ntf    fn428739   2.730   1.976   4.800  0.4710  0.3846  0.2569
 5696ntf    fn428740   2.822   1.867   4.951  0.3444  0.2634  0.2983
 5697ntf    cn128741   7.093   4.595   1.332 -0.2797  0.1694 -0.0114
 5697ntf    sn228742   6.924   4.640   1.382 -0.2330  0.2019  0.1205
 5697ntf    nn328743   6.921   4.789   1.331  0.3708  0.0220 -0.4613
 5697ntf    sn228744   6.930   4.925   1.409  0.3818  0.1791 -0.7374
 5697ntf    cn128745   7.106   4.971   1.410  0.3801  0.1837  0.1358
 5697ntf    fn428746   7.165   4.540   1.429  0.2571  1.0564  0.0984
 5697ntf    fn428747   7.096   4.508   1.232  0.7767  0.2539 -0.0602
 5697ntf    fn428748   7.159   4.701   1.290 -0.1416  0.1032  0.0410
 5697ntf    on528749   6.842   4.562   1.292  0.5866 -0.4944 -0.0329
 5697ntf    on528750   6.915   4.606   1.521  0.9181  0.1187  0.1778
 5697ntf    on528751   6.893   4.917   1.548  0.3656  0.1492 -0.7431
 5697ntf    on528752   6.876   5.028   1.323 -0.2900  0.2166 -0.2827
 5697ntf    fn428753   7.183   4.883   1.471  0.1842  0.3641  0.6503
 5697ntf    fn428754   7.146   5.010   1.290 -0.5792  0.0027 -0.2589
 5697ntf    fn428755   7.115   5.080   1.484  0.0186  0.3422 -0.0490
 5698ntf    cn128756   4.766   3.321   5.415  0.1838  0.1100 -0.0496
 5698ntf    sn228757   4.843   3.374   5.571  0.2366  0.1622 -0.0927
 5698ntf    nn328758   4.983   3.304   5.586  0.3153  0.3813  0.2162
 5698ntf    sn228759   5.115   3.315   5.501  0.1681 -0.2862 -0.1035
 5698ntf    cn128760   5.149   3.139   5.469  0.1645 -0.2911 -0.0815
 5698ntf    fn428761   4.645   3.364   5.387 -0.0122 -0.2008  0.3117
 5698ntf    fn428762   4.836   3.355   5.308  0.0783  0.3201 -0.0517
 5698ntf    fn428763   4.759   3.189   5.410 -0.1730  0.1354 -0.2295
 5698ntf    on528764   4.858   3.517   5.564 -0.0902  0.2158  0.2370
 5698ntf    on528765   4.745   3.332   5.667 -0.5699  0.6159 -0.7057
 5698ntf    on528766   5.234   3.351   5.574 -0.3447  0.1741  0.5201
 5698ntf    on528767   5.099   3.379   5.373  0.1045  0.4588  0.2735
 5698ntf    fn428768   5.253   3.126   5.388 -0.0192 -0.8062 -0.2341
 5698ntf    fn428769   5.185   3.074   5.579  0.4977  0.3128  0.1772
 5698ntf    fn428770   5.051   3.077   5.406  0.1993  0.0944 -0.5216
 5699ntf    cn128771   6.124   2.737   6.546  0.0077  0.0223  0.1202
 5699ntf    sn228772   6.295   2.703   6.598  0.0837  0.1954 -0.0148
 5699ntf    nn328773   6.266   2.599   6.712 -0.7677  0.6275  0.1779
 5699ntf    sn228774   6.360   2.530   6.818 -0.1186  0.5629 -0.4309
 5699ntf    cn128775   6.309   2.604   6.976 -0.1856 -0.0152 -0.1800
 5699ntf    fn428776   6.119   2.850   6.477  0.5375 -0.3533 -0.5442
 5699ntf    fn428777   6.066   2.651   6.465  0.5609 -0.4089  0.1770
 5699ntf    fn428778   6.043   2.746   6.651  0.2623  0.3685  0.2916
 5699ntf    on528779   6.351   2.653   6.476  0.1666 -0.1624  0.1698
 5699ntf    on528780   6.333   2.833   6.648 -0.6463  0.1818  0.5894
 5699ntf    on528781   6.501   2.556   6.801  0.1045 -0.5729 -0.4290
 5699ntf    on528782   6.320   2.393   6.834 -0.4081  0.6829 -0.1286
 5699ntf    fn428783   6.355   2.725   7.005 -0.3222 -0.0610  0.2305
 5699ntf    fn428784   6.177   2.602   6.985 -0.1753 -0.0252 -0.0198
 5699ntf    fn428785   6.347   2.530   7.078 -0.7225  0.6222  0.4947
 5700ntf    cn128786   4.312   4.998   3.806  0.3204  0.0665 -0.2772
 5700ntf    sn228787   4.203   5.139   3.770 -0.1841 -0.2561 -0.0266
 5700ntf    nn328788   4.221   5.147   3.614 -0.0259 -0.0212  0.0042
 5700ntf    sn228789   4.340   5.200   3.525 -0.1120 -0.1268 -0.1733
 5700ntf    cn128790   4.261   5.351   3.461  0.1277  0.0549 -0.0405
 5700ntf    fn428791   4.322   4.971   3.935 -0.0172  0.0550 -0.2518
 5700ntf    fn428792   4.281   4.889   3.737 -0.3822 -0.1418  0.3537
 5700ntf    fn428793   4.435   5.033   3.773  0.2734  0.2888 -0.2164
 5700ntf    on528794   4.073   5.082   3.796  0.0744 -0.7214  0.2605
 5700ntf    on528795   4.244   5.247   3.856 -0.5339  0.3824 -0.6532
 5700ntf    on528796   4.354   5.123   3.404  0.1131 -0.5708  0.1311
 5700ntf    on528797   4.465   5.236   3.587 -0.1208 -0.2105 -0.1068
 5700ntf    fn428798   4.184   5.407   3.553 -0.0901 -0.6384  0.2051
 5700ntf    fn428799   4.346   5.444   3.423 -0.2949  0.0720 -0.9735
 5700ntf    fn428800   4.173   5.326   3.365 -0.2158  0.1961  0.2340
 5701ntf    cn128801   3.341   6.160   5.894 -0.3272 -0.2470 -0.2959
 5701ntf    sn228802   3.295   6.326   5.951 -0.2656 -0.2935 -0.1123
 5701ntf    nn328803   3.319   6.309   6.106 -0.3256  0.6101  0.0026
 5701ntf    sn228804   3.416   6.387   6.201 -0.2041  0.3049  0.1309
 5701ntf    cn128805   3.308   6.524   6.252 -0.1985  0.2111  0.4003
 5701ntf    fn428806   3.302   6.129   5.772  0.0435  0.2662 -0.5501
 5701ntf    fn428807   3.471   6.138   5.911 -0.4679 -0.3894  0.6112
 5701ntf    fn428808   3.280   6.066   5.965 -0.0968  0.0480  0.2966
 5701ntf    on528809   3.376   6.421   5.878 -0.5855 -0.0841 -0.1943
 5701ntf    on528810   3.156   6.321   5.915  0.0463 -0.2131 -1.3826
 5701ntf    on528811   3.526   6.455   6.137  0.1193  0.0754  0.4393
 5701ntf    on528812   3.444   6.323   6.327 -0.3124  0.5504  0.2818
 5701ntf    fn428813   3.362   6.602   6.343  0.0240  0.4098  0.0998
 5701ntf    fn428814   3.276   6.603   6.150  0.1864  0.1168  0.2064
 5701ntf    fn428815   3.191   6.490   6.304 -0.3630  0.3182  0.1095
 5702ntf    cn128816   2.309   4.447   1.512 -0.3093 -0.1413  0.1697
 5702ntf    sn228817   2.163   4.382   1.425 -0.0591 -0.0376 -0.3354
 5702ntf    nn328818   2.086   4.512   1.383 -0.1664  0.0412  0.1001
 5702ntf    sn228819   2.103   4.591   1.249  0.4117  0.2239  0.2774
 5702ntf    cn128820   2.103   4.762   1.308  0.0637  0.2534  0.1943
 5702ntf    fn428821   2.278   4.532   1.609 -0.2747 -0.1838  0.2172
 5702ntf    fn428822   2.378   4.352   1.572 -0.6670 -0.2863  0.3576
 5702ntf    fn428823   2.392   4.510   1.430 -0.2684  0.2726  0.5231
 5702ntf    on528824   2.224   4.309   1.317 -0.3400 -0.3704 -0.2709
 5702ntf    on528825   2.089   4.309   1.526 -0.0042  0.5160  0.1080
 5702ntf    on528826   1.981   4.588   1.173  0.6833  0.6889 -0.1901
 5702ntf    on528827   2.228   4.583   1.177  0.0057  0.0677 -0.4204
 5702ntf    fn428828   2.222   4.797   1.356  0.3121 -0.1737 -0.1011
 5702ntf    fn428829   2.074   4.860   1.224 -0.1848 -0.0069 -0.0220
 5702ntf    fn428830   2.014   4.777   1.404 -0.0106  0.3382  0.1126
 5703ntf    cn128831   1.230   0.418   5.328  0.3320 -0.2367 -0.1628
 5703ntf    sn228832   1.343   0.359   5.458  0.1487 -0.1177  0.0525
 5703ntf    nn328833   1.326   0.458   5.578  0.6258 -0.0683  0.0835
 5703ntf    sn228834   1.322   0.615   5.583  0.1774 -0.0610 -0.4185
 5703ntf    cn128835   1.180   0.645   5.691  0.0437 -0.5361 -0.4598
 5703ntf    fn428836   1.111   0.439   5.381  0.4106  0.3065 -0.1984
 5703ntf    fn428837   1.271   0.527   5.265  0.2610 -0.3845 -0.4641
 5703ntf    fn428838   1.195   0.321   5.246 -0.6088  0.0351 -0.0907
 5703ntf    on528839   1.295   0.231   5.501 -0.4125 -0.0309 -0.3098
 5703ntf    on528840   1.466   0.363   5.382  0.1123  0.6194  0.0193
 5703ntf    on528841   1.279   0.676   5.460  0.0113  0.2325 -0.2149
 5703ntf    on528842   1.432   0.682   5.648  0.3284 -0.6136 -0.0997
 5703ntf    fn428843   1.187   0.568   5.799  0.4866 -0.4439 -0.4199
 5703ntf    fn428844   1.169   0.768   5.740  0.8009 -0.6253 -0.0480
 5703ntf    fn428845   1.064   0.614   5.635 -0.1315 -0.2692 -0.2534
 5704ntf    cn128846   5.477   4.862   0.632 -0.3866  0.2514 -0.3636
 5704ntf    sn228847   5.308   4.916   0.594 -0.4898  0.2903  0.1363
 5704ntf    nn328848   5.296   4.830   0.463 -0.1418  0.3442  0.0662
 5704ntf    sn228849   5.312   4.854   0.309  0.4993  0.1587  0.1030
 5704ntf    cn128850   5.437   4.724   0.282  0.0681 -0.2302 -0.0246
 5704ntf    fn428851   5.483   4.730   0.621 -0.0373  0.2409 -0.0708
 5704ntf    fn428852   5.572   4.906   0.550  0.0435 -0.3681 -0.2092
 5704ntf    fn428853   5.512   4.898   0.755  0.4958  0.4696 -0.6718
 5704ntf    on528854   5.247   4.865   0.714 -0.6561 -0.3633 -0.2211
 5704ntf    on528855   5.321   5.058   0.567  0.0769  0.3102  0.4884
 5704ntf    on528856   5.379   4.976   0.271 -0.2875  0.4400 -0.3903
 5704ntf    on528857   5.196   4.812   0.234  0.0513  0.2577  0.7393
 5704ntf    fn428858   5.388   4.601   0.285 -0.0358 -0.1933 -0.1728
 5704ntf    fn428859   5.500   4.734   0.166 -0.5120  0.3094 -0.2994
 5704ntf    fn428860   5.528   4.717   0.378 -0.4621  0.3274  0.5259
 5705ntf    cn128861   6.048   4.675   0.442  0.3094 -0.0869  0.0342
 5705ntf    sn228862   6.026   4.505   0.503 -0.0811 -0.0942 -0.1253
 5705ntf    nn328863   6.174   4.452   0.499 -0.1666 -0.3149 -0.4036
 5705ntf    sn228864   6.247   4.335   0.424 -0.0459 -0.6106  0.1720
 5705ntf    cn128865   6.333   4.256   0.563  0.2736 -0.1743  0.2223
 5705ntf    fn428866   6.153   4.692   0.364 -0.2953 -0.1738 -0.8134
 5705ntf    fn428867   5.939   4.715   0.379  0.2801 -0.4627 -0.1549
 5705ntf    fn428868   6.068   4.769   0.534  0.0464  0.0817 -0.0775
 5705ntf    on528869   5.970   4.526   0.634 -0.4211  0.0211 -0.2887
 5705ntf    on528870   5.948   4.445   0.397 -0.2526 -0.2174  0.0697
 5705ntf    on528871   6.360   4.381   0.347 -0.8620  0.3893 -0.4637
 5705ntf    on528872   6.172   4.221   0.378  0.1861 -0.6740 -0.0531
 5705ntf    fn428873   6.415   4.342   0.621 -0.2073  0.1879  0.3710
 5705ntf    fn428874   6.248   4.215   0.654  0.4348 -0.4215  0.2633
 5705ntf    fn428875   6.414   4.159   0.522 -0.0671 -0.1756 -0.4657
 5706ntf    cn128876   4.507   7.074   4.903 -0.1862  0.7310 -0.0442
 5706ntf    sn228877   4.464   6.904   4.953  0.0309  0.7728  0.2900
 5706ntf    nn328878   4.364   6.933   5.070 -0.5133  0.4258 -0.0842
 5706ntf    sn228879   4.250   6.838   5.122 -0.1920 -0.0786 -0.2911
 5706ntf    cn128880   4.111   6.911   5.031 -0.3294  0.1132  0.0714
 5706ntf    fn428881   4.615   7.111   4.969 -0.0652 -0.1826  0.2819
 5706ntf    fn428882   4.536   7.088   4.775  0.4682  0.0809  0.0263
 5706ntf    fn428883   4.406   7.154   4.934 -0.5280  0.1282  0.4339
 5706ntf    on528884   4.405   6.855   4.831  0.0648 -0.1828  0.6508
 5706ntf    on528885   4.589   6.844   4.993 -0.2292  0.4820  0.6711
 5706ntf    on528886   4.205   6.856   5.258 -0.0788  0.2614 -0.2967
 5706ntf    on528887   4.256   6.700   5.080  0.7138 -0.1743  0.1182
 5706ntf    fn428888   4.097   7.043   5.031  0.1357  0.1647  0.1324
 5706ntf    fn428889   4.116   6.886   4.902 -0.0531  0.1148  0.0811
 5706ntf    fn428890   3.997   6.862   5.077 -0.5054  0.0586 -0.4226
 5707ntf    cn128891   0.591   2.517   1.362 -0.0122 -0.5787  0.0050
 5707ntf    sn228892   0.718   2.487   1.236  0.1066 -0.2423  0.0418
 5707ntf    nn328893   0.663   2.346   1.193 -0.1766 -0.2022  0.2661
 5707ntf    sn228894   0.702   2.257   1.069  0.1920  0.0257  0.2156
 5707ntf    cn128895   0.719   2.102   1.161 -0.3199 -0.0589  0.1729
 5707ntf    fn428896   0.480   2.565   1.307  0.3060  0.4570  0.2505
 5707ntf    fn428897   0.548   2.409   1.425 -0.3484  0.0386  0.8675
 5707ntf    fn428898   0.616   2.606   1.456 -0.2830 -0.3086 -0.1746
 5707ntf    on528899   0.705   2.588   1.134 -0.6057 -0.3899 -0.0190
 5707ntf    on528900   0.837   2.486   1.317  0.2062  0.2008 -0.0957
 5707ntf    on528901   0.831   2.281   1.010 -0.1492  1.1164 -0.1300
 5707ntf    on528902   0.582   2.243   0.989  0.6557 -0.3607 -0.4124
 5707ntf    fn428903   0.811   2.112   1.256 -0.0997 -0.0228 -0.0432
 5707ntf    fn428904   0.613   2.072   1.234 -0.0761 -0.3122  0.4242
 5707ntf    fn428905   0.743   2.001   1.079 -0.0743 -0.2369  0.4595
 5708ntf    cn128906   2.018   0.768   5.635 -0.5557 -0.1165 -0.5921
 5708ntf    sn228907   2.132   0.701   5.511  0.1448 -0.0258 -0.0040
 5708ntf    nn328908   2.045   0.727   5.383  0.2792  0.4851  0.0082
 5708ntf    sn228909   2.066   0.823   5.260  0.0851 -0.0182 -0.4204
 5708ntf    cn128910   1.930   0.776   5.149 -0.4365 -0.3321  0.3370
 5708ntf    fn428911   1.899   0.709   5.637 -0.4648 -0.3025 -0.6908
 5708ntf    fn428912   2.059   0.766   5.761 -0.5963 -0.1309 -0.5791
 5708ntf    fn428913   1.994   0.896   5.608  0.0959  0.2028  0.2581
 5708ntf    on528914   2.249   0.784   5.524  0.3197 -0.2840  0.0826
 5708ntf    on528915   2.139   0.563   5.553  0.3213 -0.2698 -0.8198
 5708ntf    on528916   2.183   0.786   5.185  0.0753  0.7501 -0.8216
 5708ntf    on528917   2.041   0.962   5.291 -0.3082 -0.1547 -0.1090
 5708ntf    fn428918   1.971   0.804   5.026 -0.1649  0.9190  0.6935
 5708ntf    fn428919   1.904   0.647   5.164 -0.2828 -0.4046  0.0057
 5708ntf    fn428920   1.820   0.847   5.167 -0.1803  0.2296 -0.2402
 5709ntf    cn128921   4.136   7.581   3.435  0.0491 -0.1065 -0.2592
 5709ntf    sn228922   4.068   7.734   3.363 -0.2527 -0.0502  0.1465
 5709ntf    nn328923   3.915   7.724   3.400 -0.2549 -0.4389  0.0345
 5709ntf    sn228924   3.842   7.768   3.532 -0.2108 -0.1649 -0.0327
 5709ntf    cn128925   3.694   7.663   3.519  0.0037 -0.4269 -0.3706
 5709ntf    fn428926   4.105   7.474   3.365 -0.2153 -0.1243 -0.1144
 5709ntf    fn428927   4.268   7.591   3.436  0.0593 -0.2382  0.5330
 5709ntf    fn428928   4.099   7.547   3.557 -0.5170 -0.1849 -0.4494
 5709ntf    on528929   4.131   7.849   3.422 -0.0851 -0.3258  0.5076
 5709ntf    on528930   4.086   7.717   3.221 -0.1672  0.6726  0.0694
 5709ntf    on528931   3.783   7.899   3.537 -0.2388 -0.1933  0.3733
 5709ntf    on528932   3.909   7.722   3.651 -0.2374  0.0177  0.0529
 5709ntf    fn428933   3.738   7.539   3.536  0.2031 -0.2893  0.1162
 5709ntf    fn428934   3.600   7.678   3.610  0.3303  0.0173 -0.1036
 5709ntf    fn428935   3.637   7.670   3.400 -0.6198  0.1379 -0.0427
 5710ntf    cn128936   0.173   1.955   1.881 -0.0994 -0.2622  0.1700
 5710ntf    sn228937   0.347   1.926   1.838 -0.1460 -0.0308 -0.1825
 5710ntf    nn328938   0.353   1.771   1.864 -0.2738  0.0207  0.1572
 5710ntf    sn228939   0.285   1.663   1.773  0.1751 -0.1909  0.0714
 5710ntf    cn128940   0.412   1.628   1.647  0.3899  0.3023  0.1491
 5710ntf    fn428941   0.149   2.061   1.957 -0.3081 -0.4745  0.3988
 5710ntf    fn428942   0.107   1.982   1.770 -0.0714 -0.2263  0.1620
 5710ntf    fn428943   0.120   1.852   1.943 -0.5423 -0.2379 -0.1625
 5710ntf    on528944   0.359   1.957   1.697  0.4969  0.5616 -0.0025
 5710ntf    on528945   0.417   2.007   1.934 -0.0849 -0.2254 -0.0624
 5710ntf    on528946   0.171   1.702   1.694  0.5828  0.7953 -0.0421
 5710ntf    on528947   0.275   1.536   1.842 -0.2979 -0.0398  0.2816
 5710ntf    fn428948   0.391   1.511   1.588 -0.3369  0.1201  0.7496
 5710ntf    fn428949   0.414   1.720   1.552 -0.4831 -0.2181 -0.3935
 5710ntf    fn428950   0.535   1.626   1.694  0.5772  0.0251 -0.3444
 5711ntf    cn128951   0.565   7.084   7.317 -0.0677  0.0895 -0.2668
 5711ntf    sn228952   0.385   7.064   7.325 -0.0006 -0.4384 -0.0551
 5711ntf    nn328953   0.340   7.190   7.243 -0.2264 -0.2516  0.3535
 5711ntf    sn228954   0.212   7.216   7.156 -0.2886  0.1300  0.5571
 5711ntf    cn128955   0.267   7.206   6.983 -0.3196 -0.1449  0.5618
 5711ntf    fn428956   0.595   7.107   7.190  0.0423 -0.0635 -0.2695
 5711ntf    fn428957   0.607   7.177   7.401 -0.0658 -0.0188 -0.1473
 5711ntf    fn428958   0.633   6.978   7.358 -0.2209  0.2674  0.4557
 5711ntf    on528959   0.371   6.937   7.257 -0.0187 -0.6907  0.4126
 5711ntf    on528960   0.354   7.069   7.466  0.1517  0.3048 -0.0432
 5711ntf    on528961   0.158   7.348   7.177 -0.8790  0.0485 -0.3944
 5711ntf    on528962   0.113   7.111   7.163  0.0922 -0.3334 -0.6619
 5711ntf    fn428963   0.178   7.241   6.892 -0.1944 -0.0482  0.4765
 5711ntf    fn428964   0.360   7.294   6.951  0.2622 -0.8852  0.2027
 5711ntf    fn428965   0.311   7.086   6.949 -0.6945 -0.1127 -0.0604
 5712ntf    cn128966   3.265   3.218   4.479 -0.2279  0.2402  0.0664
 5712ntf    sn228967   3.085   3.241   4.480 -0.3001 -0.3073 -0.0368
 5712ntf    nn328968   3.032   3.097   4.513 -0.3825 -0.2878 -0.0816
 5712ntf    sn228969   2.910   3.021   4.451 -0.2947 -0.3656 -0.1598
 5712ntf    cn128970   3.004   2.938   4.320 -0.2372  0.3193 -0.5560
 5712ntf    fn428971   3.310   3.127   4.395  0.0834  0.4676 -0.0174
 5712ntf    fn428972   3.333   3.330   4.459 -0.3446  0.3582  0.3191
 5712ntf    fn428973   3.309   3.180   4.598 -0.4680 -0.2319  0.0051
 5712ntf    on528974   3.059   3.331   4.590  0.0054  0.2181 -0.3899
 5712ntf    on528975   3.072   3.285   4.344  0.4885 -0.4039 -0.1477
 5712ntf    on528976   2.816   3.101   4.376 -0.0791 -0.0648 -0.1097
 5712ntf    on528977   2.857   2.911   4.528 -0.4690  0.0044  0.2537
 5712ntf    fn428978   3.076   3.037   4.270 -0.0620  0.4636 -0.0200
 5712ntf    fn428979   3.084   2.842   4.364 -0.2156  0.2767 -0.6867
 5712ntf    fn428980   2.930   2.889   4.221 -0.3893 -0.8054  0.0976
 5713ntf    cn128981   1.452   4.094   2.582  0.3438  0.2393 -0.0976
 5713ntf    sn228982   1.398   3.961   2.692 -0.1412  0.1294 -0.4685
 5713ntf    nn328983   1.418   3.834   2.601 -0.2626 -0.0940 -0.1880
 5713ntf    sn228984   1.490   3.698   2.629 -0.5017 -0.1601  0.1149
 5713ntf    cn128985   1.665   3.748   2.618 -0.6071  0.1417 -0.2181
 5713ntf    fn428986   1.411   4.212   2.625  0.2867  0.4338 -0.6698
 5713ntf    fn428987   1.584   4.103   2.574  0.2898  0.2434 -1.0850
 5713ntf    fn428988   1.414   4.074   2.457 -0.0492 -0.2044  0.0935
 5713ntf    on528989   1.472   3.969   2.816  0.7511 -0.2252 -0.9699
 5713ntf    on528990   1.256   3.985   2.692 -0.2051 -0.2100  0.3024
 5713ntf    on528991   1.473   3.604   2.521 -0.4213  0.2604 -0.2675
 5713ntf    on528992   1.477   3.651   2.764  0.2675  0.1990  0.3187
 5713ntf    fn428993   1.686   3.801   2.499 -0.4661 -0.5293 -0.4979
 5713ntf    fn428994   1.705   3.832   2.712 -0.3877  0.1264 -0.2990
 5713ntf    fn428995   1.731   3.634   2.629  0.0372  0.5759  0.5091
 5714ntf    cn128996   3.056   7.449   4.438  0.0929  0.3884 -0.2382
 5714ntf    sn228997   3.187   7.492   4.320  0.2941  0.3604 -0.0267
 5714ntf    nn328998   3.215   7.350   4.258 -0.0758  0.3099 -0.0813
 5714ntf    sn228999   3.226   7.301   4.109  0.2848  0.2637 -0.0424
 5714ntf    cn129000   3.390   7.225   4.124  0.0940 -0.0746  0.3440
 5714ntf    fn429001   3.015   7.550   4.513 -0.4707 -0.0450  0.0374
 5714ntf    fn429002   2.946   7.409   4.377  0.1997 -0.2591 -0.0107
 5714ntf    fn429003   3.086   7.357   4.529  0.7188  0.2117 -0.6171
 5714ntf    on529004   3.136   7.591   4.228  0.1607  0.0869 -0.2500
 5714ntf    on529005   3.294   7.543   4.402  0.2468  0.3295  0.0539
 5714ntf    on529006   3.254   7.388   3.997  0.5935  0.2355  0.0137
 5714ntf    on529007   3.152   7.180   4.085  0.5361 -0.0079  0.5396
 5714ntf    fn429008   3.359   7.123   4.203 -0.2886 -0.4143 -0.2368
 5714ntf    fn429009   3.435   7.181   4.008  0.6173 -0.2601  0.6172
 5714ntf    fn429010   3.492   7.291   4.177  0.5852 -0.1655 -0.4700
 5715ntf    cn129011   3.802   0.031   6.236  0.5788  0.3387 -0.5786
 5715ntf    sn229012   3.901  -0.120   6.220  0.0463 -0.0574 -0.1340
 5715ntf    nn329013   4.047  -0.064   6.235 -0.0886  0.2117  0.2017
 5715ntf    sn229014   4.136  -0.033   6.360 -0.1980  0.3884  0.2363
 5715ntf    cn129015   4.236  -0.184   6.347 -0.0120  0.5476 -0.1758
 5715ntf    fn429016   3.841   0.108   6.336 -0.1187  0.2013 -0.1995
 5715ntf    fn429017   3.791   0.102   6.124  0.6508  0.3745 -0.5636
 5715ntf    fn429018   3.680  -0.006   6.271  0.8682  0.0347  0.1312
 5715ntf    on529019   3.859  -0.209   6.326  0.4715  0.0968  0.1684
 5715ntf    on529020   3.872  -0.163   6.086 -0.1835 -0.0071 -0.1004
 5715ntf    on529021   4.069  -0.040   6.488 -0.7230  0.3289 -0.0390
 5715ntf    on529022   4.229   0.074   6.335  0.1439  0.0196 -0.0925
 5715ntf    fn429023   4.296  -0.199   6.230 -0.1040  0.1787 -0.1747
 5715ntf    fn429024   4.337  -0.179   6.433 -0.1301  0.4787 -0.0338
 5715ntf    fn429025   4.168  -0.295   6.368  0.0174  0.5420 -0.1092
 5716ntf    cn129026   3.760   2.199   4.875  0.0525  0.2461 -0.0143
 5716ntf    sn229027   3.696   2.054   4.785  0.3409  0.2647 -0.2499
 5716ntf    nn329028   3.816   1.956   4.809 -0.1529 -0.2064  0.3291
 5716ntf    sn229029   3.873   1.841   4.718  0.4271  0.3093  0.0337
 5716ntf    cn129030   3.939   1.732   4.847 -0.1682 -0.1046 -0.0042
 5716ntf    fn429031   3.788   2.152   4.996 -0.6001  0.4254  0.2114
 5716ntf    fn429032   3.875   2.248   4.831  0.0438 -0.0746 -0.4017
 5716ntf    fn429033   3.674   2.300   4.881 -0.0122  0.1916 -0.0179
 5716ntf    on529034   3.578   2.017   4.858  0.1788 -0.0530 -0.6715
 5716ntf    on529035   3.677   2.103   4.651  0.5665  0.1652 -0.3177
 5716ntf    on529036   3.995   1.868   4.646  0.4017  0.2028 -0.0488
 5716ntf    on529037   3.781   1.760   4.642  0.0236  0.1381  0.7035
 5716ntf    fn429038   3.996   1.800   4.946  0.1683  0.1250 -0.3486
 5716ntf    fn429039   3.851   1.645   4.891 -0.2413  0.2540  0.5721
 5716ntf    fn429040   4.039   1.658   4.801 -0.3404 -0.3252 -0.0217
 5717ntf    cn129041   2.592   0.868   0.198 -0.2263 -0.3272  0.4352
 5717ntf    sn229042   2.713   0.997   0.153 -0.0850 -0.5749  0.1057
 5717ntf    nn329043   2.767   1.042   0.293 -0.4675  0.2654 -0.0117
 5717ntf    sn229044   2.741   1.181   0.361  0.0606  0.4184 -0.1168
 5717ntf    cn129045   2.586   1.151   0.451 -0.1228  0.1519 -0.5176
 5717ntf    fn429046   2.500   0.912   0.282 -0.3586 -0.2535  0.2514
 5717ntf    fn429047   2.529   0.835   0.087  0.3752  0.5883 -0.1948
 5717ntf    fn429048   2.639   0.757   0.253  0.1602 -0.3278  0.1072
 5717ntf    on529049   2.808   0.928   0.069  0.0725  0.0558 -0.2370
 5717ntf    on529050   2.627   1.091   0.086  0.2356  0.0626  0.5831
 5717ntf    on529051   2.705   1.287   0.271  0.0198  0.5071  0.0031
 5717ntf    on529052   2.832   1.212   0.469 -0.0154 -0.1331  0.1091
 5717ntf    fn429053   2.541   1.263   0.507 -0.0447 -0.3004  0.4770
 5717ntf    fn429054   2.481   1.114   0.380 -0.0321  0.1827 -0.6665
 5717ntf    fn429055   2.598   1.058   0.545 -0.4043  0.6743  0.0423
 5718ntf    cn129056   2.300   5.084   3.662  0.3597 -0.1850  0.3002
 5718ntf    sn229057   2.243   5.255   3.640 -0.2810 -0.3781  0.4291
 5718ntf    nn329058   2.161   5.279   3.772 -0.0170 -0.3295  0.5856
 5718ntf    sn229059   2.211   5.348   3.904  0.2029 -0.0401  0.3515
 5718ntf    cn129060   2.061   5.311   4.001 -0.0566 -0.1945 -0.1031
 5718ntf    fn429061   2.359   5.033   3.556  0.7113  0.5480  0.1397
 5718ntf    fn429062   2.392   5.067   3.756  0.4909  0.3111  0.2611
 5718ntf    fn429063   2.206   4.995   3.691  0.2372 -0.1525  0.0073
 5718ntf    on529064   2.364   5.332   3.627 -0.2814 -0.5777 -0.8350
 5718ntf    on529065   2.164   5.246   3.520  0.6155  0.0879 -0.2068
 5718ntf    on529066   2.231   5.491   3.894 -0.0877 -0.0269 -0.0874
 5718ntf    on529067   2.314   5.266   3.961  0.4981  0.1165  0.0517
 5718ntf    fn429068   2.015   5.189   3.983  0.0467 -0.2416 -0.0498
 5718ntf    fn429069   2.076   5.322   4.132 -0.0657  0.0010 -0.1182
 5718ntf    fn429070   1.957   5.387   3.970  0.0859  0.0619  0.0391
 5719ntf    cn129071   1.230   3.171   6.591 -0.3499 -0.3491 -0.0355
 5719ntf    sn229072   1.155   3.006   6.605 -0.5329 -0.2693 -0.0767
 5719ntf    nn329073   1.003   3.044   6.611 -0.3727  0.3416  0.1046
 5719ntf    sn229074   0.924   3.091   6.738 -0.0819 -0.1142  0.4573
 5719ntf    cn129075   0.882   3.264   6.700 -0.3270 -0.2234  0.2243
 5719ntf    fn429076   1.182   3.247   6.494  0.0610  0.1545  0.1528
 5719ntf    fn429077   1.202   3.239   6.701 -0.2729 -0.1806 -0.1206
 5719ntf    fn429078   1.361   3.166   6.575 -0.3048  0.1019  0.1854
 5719ntf    on529079   1.183   2.946   6.477  1.1433 -0.4469  0.3593
 5719ntf    on529080   1.222   2.946   6.717  0.0281  0.7108  0.1206
 5719ntf    on529081   1.001   3.112   6.858 -0.4084 -0.1852  0.6827
 5719ntf    on529082   0.794   3.029   6.749 -0.3019  0.2168 -0.1971
 5719ntf    fn429083   0.836   3.333   6.804  0.1022 -0.3861  0.5264
 5719ntf    fn429084   0.982   3.336   6.651  0.3640 -1.0580  0.3864
 5719ntf    fn429085   0.787   3.270   6.609  0.1195  0.4912 -0.2062
 5720ntf    cn129086   4.949   2.622   3.584 -0.5621  0.2863 -0.0635
 5720ntf    sn229087   5.025   2.519   3.455 -0.1251  0.2260  0.2403
 5720ntf    nn329088   4.920   2.407   3.422  0.4401 -0.3847  0.4977
 5720ntf    sn229089   4.916   2.251   3.442 -0.0171 -0.4342  0.0495
 5720ntf    cn129090   4.845   2.229   3.607  0.3094 -0.1893  0.2256
 5720ntf    fn429091   5.040   2.699   3.640  0.0488 -0.3238 -0.2064
 5720ntf    fn429092   4.849   2.691   3.530 -0.6434  0.4124  0.2455
 5720ntf    fn429093   4.895   2.547   3.679  0.0542 -0.2155 -0.1027
 5720ntf    on529094   5.031   2.618   3.350 -0.2120  0.0175  0.0391
 5720ntf    on529095   5.150   2.475   3.512  0.1074  0.0522 -0.3972
 5720ntf    on529096   5.051   2.201   3.443  0.3258  0.4074 -1.1368
 5720ntf    on529097   4.832   2.188   3.344 -0.4463 -0.1435  0.2297
 5720ntf    fn429098   4.804   2.105   3.633  0.9054 -0.3623  0.3600
 5720ntf    fn429099   4.940   2.259   3.694 -0.0477  0.5161  0.3760
 5720ntf    fn429100   4.749   2.315   3.634 -0.1329 -0.6248  0.0664
 5721ntf    cn129101   0.656   4.105   4.894  0.0530 -0.0730  0.0860
 5721ntf    sn229102   0.773   4.207   4.799 -0.0840  0.0534  0.0537
 5721ntf    nn329103   0.886   4.101   4.775 -0.2033 -0.0523 -0.0419
 5721ntf    sn229104   0.988   4.035   4.874 -0.3017 -0.1112  0.0207
 5721ntf    cn129105   1.136   4.135   4.842 -0.2068 -0.0963  0.5049
 5721ntf    fn429106   0.693   4.097   5.021 -0.3015 -0.2083  0.1818
 5721ntf    fn429107   0.532   4.148   4.882  0.1100  0.0320 -0.1434
 5721ntf    fn429108   0.658   3.981   4.849  0.5664 -0.1060  0.1949
 5721ntf    on529109   0.699   4.248   4.681 -0.0501 -0.7162 -0.2399
 5721ntf    on529110   0.816   4.314   4.886  0.1491 -0.4916  0.6125
 5721ntf    on529111   1.020   3.900   4.833 -0.2161 -0.2105  0.4088
 5721ntf    on529112   0.964   4.052   5.015  0.2325  0.5247  0.0347
 5721ntf    fn429113   1.255   4.086   4.875  0.3867  0.9960  0.0158
 5721ntf    fn429114   1.150   4.172   4.716 -0.3190  0.6413  0.7067
 5721ntf    fn429115   1.126   4.256   4.894 -0.6390 -0.1854  0.6345
 5722ntf    cn129116   2.188   7.372   7.022  0.3255 -0.0174  0.7429
 5722ntf    sn229117   2.347   7.453   7.056  0.3795  0.0891  0.2560
 5722ntf    nn329118   2.310   7.605   7.051 -0.3164 -0.0763  0.2599
 5722ntf    sn229119   2.178   7.675   7.099 -0.1691  0.3011  0.1164
 5722ntf    cn129120   2.248   7.819   7.187  0.2724 -0.0288  0.3103
 5722ntf    fn429121   2.115   7.440   6.935  0.0133 -0.5389  0.5884
 5722ntf    fn429122   2.202   7.246   6.984 -0.6841  0.0771  0.0221
 5722ntf    fn429123   2.114   7.356   7.130  0.5465 -0.3460  0.8490
 5722ntf    on529124   2.379   7.415   7.192 -0.4396 -0.1560  0.3912
 5722ntf    on529125   2.429   7.413   6.945 -0.0414  0.3559 -0.1543
 5722ntf    on529126   2.097   7.607   7.197 -0.1227 -0.1276 -0.1429
 5722ntf    on529127   2.102   7.735   6.992 -0.0529  0.1266 -0.0640
 5722ntf    fn429128   2.159   7.862   7.275 -0.1793 -0.3021 -0.0015
 5722ntf    fn429129   2.356   7.793   7.259  0.0445 -0.6142  0.4471
 5722ntf    fn429130   2.285   7.912   7.100  0.3926 -0.5438 -0.1934
 5723ntf    cn129131   2.927   1.566   6.705  0.1088 -0.0051 -0.0746
 5723ntf    sn229132   2.747   1.548   6.703  0.1212 -0.1623  0.1136
 5723ntf    nn329133   2.713   1.648   6.587 -0.0140 -0.3885 -0.0443
 5723ntf    sn229134   2.574   1.652   6.513 -0.0439 -0.0281  0.0306
 5723ntf    cn129135   2.648   1.574   6.366 -0.2200 -0.2861  0.0790
 5723ntf    fn429136   2.974   1.688   6.726  0.2602 -0.0464 -0.1681
 5723ntf    fn429137   2.992   1.498   6.799 -0.6864 -0.3035  0.2610
 5723ntf    fn429138   2.979   1.519   6.592 -0.0271 -0.0646 -0.1123
 5723ntf    on529139   2.725   1.410   6.666  0.6624 -0.1395 -0.3084
 5723ntf    on529140   2.705   1.587   6.835 -0.1491 -0.2983  0.0687
 5723ntf    on529141   2.522   1.779   6.468 -0.1127  0.0849  0.4250
 5723ntf    on529142   2.474   1.554   6.546 -0.2941  0.2636  0.1371
 5723ntf    fn429143   2.558   1.556   6.270 -0.2973 -0.1548  0.1261
 5723ntf    fn429144   2.746   1.645   6.314 -0.0897 -0.3180  0.2782
 5723ntf    fn429145   2.697   1.453   6.383 -0.3110 -0.3449 -0.0757
 5724ntf    cn129146   3.452   4.570   5.501 -0.0057  0.3583 -0.0630
 5724ntf    sn229147   3.633   4.587   5.500  0.0111  0.1760 -0.1345
 5724ntf    nn329148   3.650   4.729   5.565  0.6352  0.2941 -0.5468
 5724ntf    sn229149   3.690   4.764   5.713 -0.4558 -0.1807 -0.1298
 5724ntf    cn129150   3.564   4.891   5.751  0.0576  0.3317 -0.1257
 5724ntf    fn429151   3.397   4.550   5.620 -0.6774  0.4275 -0.3579
 5724ntf    fn429152   3.386   4.669   5.444 -0.0412  0.6712  0.5156
 5724ntf    fn429153   3.423   4.457   5.438  0.0101  0.3179  0.0010
 5724ntf    on529154   3.684   4.472   5.570 -0.2490  0.1900  0.0791
 5724ntf    on529155   3.655   4.598   5.358 -0.4925  0.6184 -0.1822
 5724ntf    on529156   3.817   4.830   5.722 -0.3440 -0.3652 -0.3413
 5724ntf    on529157   3.653   4.666   5.811  0.4878  0.8532  1.2959
 5724ntf    fn429158   3.445   4.867   5.699 -0.0105 -0.3854  0.3409
 5724ntf    fn429159   3.544   4.891   5.881 -0.2737  0.5080 -0.1782
 5724ntf    fn429160   3.593   5.015   5.715  0.2706  0.4442  0.4362
 5725ntf    cn129161   3.313   2.281   1.819 -0.4205  0.1323  0.3653
 5725ntf    sn229162   3.287   2.378   1.970  0.0262  0.3103  0.3298
 5725ntf    nn329163   3.427   2.345   2.032 -0.0227  0.1338  0.3473
 5725ntf    sn229164   3.539   2.434   2.095  0.3318  0.1819 -0.3390
 5725ntf    cn129165   3.531   2.364   2.262  0.1502  0.3963 -0.2583
 5725ntf    fn429166   3.387   2.350   1.735 -0.3681 -0.3387  0.0190
 5725ntf    fn429167   3.373   2.164   1.838 -0.3479  0.1434  0.2060
 5725ntf    fn429168   3.203   2.262   1.747  0.3144  0.0134 -0.7379
 5725ntf    on529169   3.281   2.515   1.926  0.3970  0.3588  0.4330
 5725ntf    on529170   3.176   2.319   2.042 -0.1762 -0.0123 -0.2416
 5725ntf    on529171   3.497   2.570   2.118 -0.7965 -0.2319  0.0659
 5725ntf    on529172   3.674   2.410   2.049  0.2832  0.2325 -0.5090
 5725ntf    fn429173   3.538   2.232   2.258 -0.1667  0.3594  0.2484
 5725ntf    fn429174   3.625   2.412   2.341 -0.1046  0.3999  0.0472
 5725ntf    fn429175   3.422   2.406   2.325  0.1797 -0.1687  0.1820
 5726ntf    cn129176   0.433   2.093   3.313 -0.1889  0.0553  0.5225
 5726ntf    sn229177   0.326   2.169   3.187 -0.3170  0.0750  0.6424
 5726ntf    nn329178   0.339   2.322   3.216  0.2208  0.1898 -0.1551
 5726ntf    sn229179   0.323   2.393   3.356  0.0593 -0.3304  0.0911
 5726ntf    cn129180   0.245   2.550   3.306 -0.2115 -0.3163  0.5537
 5726ntf    fn429181   0.376   2.078   3.431 -0.3563 -0.1834  0.4123
 5726ntf    fn429182   0.483   1.978   3.271 -0.4065  0.2696 -0.3380
 5726ntf    fn429183   0.540   2.167   3.339 -0.2689  0.2555  0.2924
 5726ntf    on529184   0.374   2.122   3.059  0.0591 -0.1826  0.8772
 5726ntf    on529185   0.197   2.116   3.221 -0.5400 -0.1779 -0.5577
 5726ntf    on529186   0.449   2.434   3.412  0.0653  0.1635 -0.2768
 5726ntf    on529187   0.229   2.335   3.449 -0.2412  0.3275  0.2001
 5726ntf    fn429188   0.117   2.544   3.274 -0.1980  0.2206  0.3878
 5726ntf    fn429189   0.265   2.647   3.394 -0.0913 -0.2053  0.4049
 5726ntf    fn429190   0.303   2.601   3.199 -0.5171  0.2189  0.6395
 5727ntf    cn129191   0.365   2.874   3.142  0.1700 -0.0375  0.4297
 5727ntf    sn229192   0.537   2.823   3.111  0.0802 -0.0945  0.0150
 5727ntf    nn329193   0.502   2.726   2.992 -0.0522  0.1454 -0.1423
 5727ntf    sn229194   0.609   2.672   2.892  0.1545 -0.4159  0.3759
 5727ntf    cn129195   0.643   2.508   2.962  0.0458 -0.4793  0.2802
 5727ntf    fn429196   0.326   2.833   3.261 -0.5608  0.1642  0.2634
 5727ntf    fn429197   0.357   3.006   3.136  0.0526 -0.0632 -0.0394
 5727ntf    fn429198   0.278   2.836   3.050  0.2064 -0.0975  0.4198
 5727ntf    on529199   0.617   2.940   3.087  0.0057 -0.1375 -0.4445
 5727ntf    on529200   0.567   2.747   3.230  0.7441 -0.0847 -0.1406
 5727ntf    on529201   0.744   2.724   2.894  0.0668 -0.1783  0.1155
 5727ntf    on529202   0.551   2.643   2.763  0.4313 -0.0685  0.1702
 5727ntf    fn429203   0.727   2.517   3.064  0.4292  0.2776 -0.1014
 5727ntf    fn429204   0.532   2.444   2.994 -0.1081 -0.4535 -0.2009
 5727ntf    fn429205   0.708   2.434   2.874  0.3546 -0.0972  0.1855
 5728ntf    cn129206   7.499   3.421   4.985  0.4285 -0.0409 -0.0322
 5728ntf    sn229207   7.560   3.444   5.155  0.1159  0.1667  0.0543
 5728ntf    nn329208   7.565   3.601   5.160 -0.0020  0.1672  0.1664
 5728ntf    sn229209   7.683   3.697   5.124  0.3833 -0.2414  0.3345
 5728ntf    cn129210   7.645   3.840   5.229 -0.0679  0.2096 -0.4335
 5728ntf    fn429211   7.417   3.318   4.975 -0.4243  0.5747  0.4917
 5728ntf    fn429212   7.430   3.527   4.945  0.4736 -0.1040 -0.2730
 5728ntf    fn429213   7.596   3.407   4.896  0.4571  0.2647 -0.0482
 5728ntf    on529214   7.456   3.400   5.245  0.4385 -0.1683  0.2652
 5728ntf    on529215   7.686   3.374   5.153 -0.0938 -0.2075 -0.0765
 5728ntf    on529216   7.674   3.744   4.988 -0.0418  0.6537  0.6647
 5728ntf    on529217   7.812   3.648   5.168  0.6129  0.7310  0.7854
 5728ntf    fn429218   7.748   3.922   5.235 -0.0503  0.1417  0.2907
 5728ntf    fn429219   7.554   3.919   5.175  0.1884  0.4231 -0.5541
 5728ntf    fn429220   7.594   3.815   5.349  0.2944  0.8713 -0.1357
 5729ntf    cn129221   0.560   7.430   5.245 -0.2109  0.4084  0.3842
 5729ntf    sn229222   0.650   7.283   5.188 -0.5500  0.2595  0.2285
 5729ntf    nn329223   0.657   7.196   5.319 -0.3586  0.1669  0.1576
 5729ntf    sn229224   0.719   7.053   5.335  0.2528  0.4031 -0.0765
 5729ntf    cn129225   0.853   7.101   5.449 -0.0826  0.1361  0.4303
 5729ntf    fn429226   0.626   7.500   5.336  0.2316 -0.3117  0.6279
 5729ntf    fn429227   0.532   7.511   5.144 -0.0773  0.2858  0.2486
 5729ntf    fn429228   0.443   7.389   5.291  0.0501 -0.4020  0.3315
 5729ntf    on529229   0.566   7.234   5.082  0.2926 -0.0846 -0.2897
 5729ntf    on529230   0.785   7.324   5.154 -0.5064 -0.5528 -0.5913
 5729ntf    on529231   0.781   7.014   5.211  0.1030 -0.2312  0.0444
 5729ntf    on529232   0.634   6.960   5.405  0.2805  0.7283  0.3887
 5729ntf    fn429233   0.917   6.999   5.504  0.4994  0.1330 -0.2473
 5729ntf    fn429234   0.944   7.175   5.389 -0.0830 -0.0805  0.1585
 5729ntf    fn429235   0.809   7.173   5.551 -0.3126  0.4238  0.1327
 5730ntf    cn129236   6.521   4.605   2.361 -0.2119 -0.1750  0.4832
 5730ntf    sn229237   6.682   4.561   2.288 -0.4490 -0.0373 -0.1345
 5730ntf    nn329238   6.648   4.587   2.137  0.0537 -0.4022 -0.3134
 5730ntf    sn229239   6.746   4.618   2.019  0.5225  0.3810  0.2719
 5730ntf    cn129240   6.645   4.562   1.878  0.3762  0.5848  0.2957
 5730ntf    fn429241   6.478   4.721   2.314 -0.1025 -0.2530  0.1845
 5730ntf    fn429242   6.429   4.521   2.317 -0.1308 -0.2816  0.5161
 5730ntf    fn429243   6.524   4.606   2.493 -0.0748  0.3577  0.4768
 5730ntf    on529244   6.771   4.655   2.352  0.1178 -0.2447 -0.6156
 5730ntf    on529245   6.701   4.423   2.326  0.0935  0.2915  0.8441
 5730ntf    on529246   6.862   4.533   2.015  0.1142 -0.2145  0.9232
 5730ntf    on529247   6.766   4.760   2.005 -0.3912  0.4885 -0.0292
 5730ntf    fn429248   6.515   4.582   1.892  0.2254 -0.0853 -0.1584
 5730ntf    fn429249   6.684   4.629   1.771 -0.3968 -0.0215 -0.3692
 5730ntf    fn429250   6.668   4.434   1.858 -0.4767  0.5777 -0.6801
 5731ntf    cn129251   3.569   0.861   2.235 -0.0398  0.3338 -0.2236
 5731ntf    sn229252   3.523   0.836   2.061 -0.0601  0.0104 -0.1736
 5731ntf    nn329253   3.366   0.826   2.071 -0.0334 -0.3781 -0.1516
 5731ntf    sn229254   3.264   0.942   2.044  0.3369  0.0594  0.3233
 5731ntf    cn129255   3.121   0.836   2.009  0.0535  0.4663  0.2501
 5731ntf    fn429256   3.498   0.959   2.288 -0.6777 -0.2273 -0.0294
 5731ntf    fn429257   3.536   0.755   2.307 -0.1123  0.1167 -0.5724
 5731ntf    fn429258   3.695   0.886   2.267 -0.3017  0.6134  0.6152
 5731ntf    on529259   3.583   0.955   2.005 -0.4190  0.1092 -0.3579
 5731ntf    on529260   3.582   0.713   2.017 -0.0530 -0.0984  0.1408
 5731ntf    on529261   3.271   1.013   1.918  0.0443  0.2282  0.4011
 5731ntf    on529262   3.228   1.023   2.158  0.2531 -0.3561  0.5940
 5731ntf    fn429263   3.015   0.910   1.979 -0.1299  0.0019 -0.2698
 5731ntf    fn429264   3.140   0.761   1.902 -0.5588  0.4505  0.1461
 5731ntf    fn429265   3.080   0.754   2.104 -1.3931  0.3520 -0.4392
 5732ntf    cn129266   5.016   0.244   7.062 -0.0299 -0.4543 -0.0304
 5732ntf    sn229267   5.015   0.425   7.074  0.2168 -0.4684  0.2049
 5732ntf    nn329268   5.071   0.464   7.216 -0.0824  0.1895  0.1450
 5732ntf    sn229269   4.980   0.475   7.344 -0.1018  0.3120  0.1203
 5732ntf    cn129270   4.892   0.632   7.315 -0.5156 -0.0499 -0.6062
 5732ntf    fn429271   4.928   0.179   7.138  0.4742 -0.6630  0.3804
 5732ntf    fn429272   4.996   0.206   6.937  0.0765  0.2422 -0.2624
 5732ntf    fn429273   5.131   0.196   7.106  0.1092 -0.3180 -0.2445
 5732ntf    on529274   5.104   0.473   6.971  0.0683 -0.4901  0.0669
 5732ntf    on529275   4.876   0.457   7.056  0.4167  0.0997 -0.3706
 5732ntf    on529276   5.067   0.506   7.455  0.2382  0.0937 -0.0808
 5732ntf    on529277   4.878   0.376   7.367  0.2344 -0.0433  0.0869
 5732ntf    fn429278   4.865   0.700   7.425 -0.0960 -1.0644  0.1404
 5732ntf    fn429279   4.960   0.716   7.239  0.1336 -0.0571 -0.0394
 5732ntf    fn429280   4.772   0.615   7.262 -0.4336 -0.0318 -0.7969
 5733ntf    cn129281   5.898   2.364   3.757 -0.2253 -0.0446 -0.1654
 5733ntf    sn229282   6.065   2.295   3.780 -0.1686  0.0843 -0.1889
 5733ntf    nn329283   6.091   2.375   3.913 -0.1209  0.2039 -0.2703
 5733ntf    sn229284   6.203   2.466   3.975 -0.0495 -0.1340  0.0936
 5733ntf    cn129285   6.144   2.625   3.912  0.1111 -0.2263 -0.2902
 5733ntf    fn429286   5.901   2.494   3.782 -0.4637  0.0057 -0.3907
 5733ntf    fn429287   5.840   2.337   3.641 -0.4533  0.1987 -0.1090
 5733ntf    fn429288   5.817   2.316   3.850  0.0523 -0.9606 -0.3824
 5733ntf    on529289   6.055   2.153   3.800  0.1729  0.1358  0.3831
 5733ntf    on529290   6.132   2.334   3.659  0.0171 -0.1895 -0.1739
 5733ntf    on529291   6.334   2.439   3.921  0.2034  0.3287  0.4704
 5733ntf    on529292   6.191   2.476   4.119 -0.3296 -0.2542  0.0801
 5733ntf    fn429293   6.165   2.638   3.782  0.4475  0.5924 -0.1619
 5733ntf    fn429294   6.017   2.652   3.936  0.2844  0.0987  0.2692
 5733ntf    fn429295   6.202   2.734   3.960  0.0288 -0.3559  0.1020
 5734ntf    cn129296   0.824   3.946   6.910 -0.1337 -0.1251  0.1149
 5734ntf    sn229297   0.910   4.065   7.018 -0.1689 -0.1290  0.1474
 5734ntf    nn329298   1.057   4.020   6.989 -0.2091 -0.2564  0.1424
 5734ntf    sn229299   1.185   4.004   7.079  0.1282  0.0652 -0.2777
 5734ntf    cn129300   1.220   3.828   7.048  0.4511  0.0500  0.1678
 5734ntf    fn429301   0.874   3.939   6.787  0.8893  0.6011  0.4705
 5734ntf    fn429302   0.825   3.821   6.953 -0.4102 -0.2727 -0.3087
 5734ntf    fn429303   0.695   3.971   6.894 -0.2076 -0.5943 -0.0229
 5734ntf    on529304   0.878   4.196   6.966 -0.4802 -0.2319  0.0776
 5734ntf    on529305   0.855   4.023   7.144 -0.4031  0.3930  0.2225
 5734ntf    on529306   1.170   4.022   7.221  0.0603 -0.4977 -0.2098
 5734ntf    on529307   1.300   4.059   7.011  0.0586  0.3581 -0.1592
 5734ntf    fn429308   1.326   3.791   7.117  0.0581 -0.6719  0.3889
 5734ntf    fn429309   1.128   3.748   7.098  0.4152  0.1171  0.2102
 5734ntf    fn429310   1.233   3.793   6.921 -0.0677 -0.2705  0.2002
 5735ntf    cn129311   2.654   3.105   7.269  0.2253  0.4867 -0.2232
 5735ntf    sn229312   2.813   3.021   7.293  0.1076  0.3060 -0.0753
 5735ntf    nn329313   2.777   2.873   7.255  0.2909  0.1671  0.2841
 5735ntf    sn229314   2.827   2.757   7.161 -0.0383  0.1477  0.1303
 5735ntf    cn129315   2.955   2.680   7.265  0.0767 -0.0576 -0.1617
 5735ntf    fn429316   2.645   3.230   7.310 -0.2508  0.3991 -0.0581
 5735ntf    fn429317   2.626   3.117   7.140 -0.1631 -0.0313 -0.1892
 5735ntf    fn429318   2.547   3.041   7.314  0.5385  0.5569  0.6232
 5735ntf    on529319   2.901   3.087   7.200  0.1611  0.0879 -0.1804
 5735ntf    on529320   2.842   3.037   7.433 -0.8031 -0.3205  0.1974
 5735ntf    on529321   2.896   2.799   7.042 -0.3325  0.3930  0.0435
 5735ntf    on529322   2.720   2.664   7.136  0.2467 -0.1501  0.0045
 5735ntf    fn429323   3.055   2.764   7.286 -0.3596  0.3941  0.1433
 5735ntf    fn429324   2.907   2.646   7.384  0.5945 -0.1455  0.0230
 5735ntf    fn429325   3.009   2.570   7.215 -0.3928 -0.6106  0.5291
 5736ntf    cn129326   6.959   7.578   4.424  0.2678  0.3718  0.1697
 5736ntf    sn229327   7.067   7.707   4.355  0.0136  0.3555 -0.2647
 5736ntf    nn329328   7.077   7.801   4.481 -0.0513 -0.3659  0.2825
 5736ntf    sn229329   7.198   7.851   4.568 -0.3261  0.2101  0.3324
 5736ntf    cn129330   7.138   8.009   4.635  0.0025  0.3269  0.3544
 5736ntf    fn429331   7.030   7.486   4.488  0.1247  0.0928 -0.0658
 5736ntf    fn429332   6.871   7.627   4.509 -0.0677  0.0333  0.0209
 5736ntf    fn429333   6.898   7.515   4.324  0.0384  0.9978 -0.0902
 5736ntf    on529334   7.182   7.640   4.300  0.1695 -0.2888  0.8155
 5736ntf    on529335   6.985   7.768   4.253 -0.8487 -0.4342 -0.0477
 5736ntf    on529336   7.316   7.892   4.494 -0.6482  0.2490 -0.1648
 5736ntf    on529337   7.213   7.780   4.692 -0.1240 -0.0030  0.1861
 5736ntf    fn429338   7.115   8.099   4.541 -0.8041 -0.5764 -0.3290
 5736ntf    fn429339   7.023   7.996   4.698 -0.2597  0.1643 -0.1512
 5736ntf    fn429340   7.217   8.067   4.724  0.3736 -0.0951  0.3011
 5737ntf    cn129341   5.712   3.322   5.360 -0.2499 -0.3525 -0.0679
 5737ntf    sn229342   5.883   3.338   5.421 -0.3161 -0.1169  0.0555
 5737ntf    nn329343   5.916   3.216   5.514  0.1372  0.2985  0.4425
 5737ntf    sn229344   5.827   3.137   5.616 -0.5419  0.1042 -0.2956
 5737ntf    cn129345   5.920   3.172   5.768 -0.4797 -0.4081 -0.2150
 5737ntf    fn429346   5.678   3.195   5.344 -0.0776 -0.4065 -0.0062
 5737ntf    fn429347   5.623   3.377   5.441  0.1249 -0.1410  0.2073
 5737ntf    fn429348   5.694   3.380   5.243  0.3621 -0.4506 -0.2140
 5737ntf    on529349   5.962   3.331   5.301 -0.2630 -0.3240  0.1024
 5737ntf    on529350   5.884   3.459   5.500  0.6223 -0.0800 -0.0081
 5737ntf    on529351   5.841   2.994   5.599 -0.8275  0.0286  0.0850
 5737ntf    on529352   5.693   3.187   5.638 -0.4344  0.3780 -0.2575
 5737ntf    fn429353   6.026   3.095   5.788 -0.5518 -0.5791 -0.4829
 5737ntf    fn429354   5.969   3.295   5.769 -0.1142 -0.5520 -0.1139
 5737ntf    fn429355   5.842   3.157   5.874  0.3190  0.2780  0.4860
 5738ntf    cn129356   2.781   5.507   7.165 -0.0662 -0.1127 -0.2799
 5738ntf    sn229357   2.791   5.441   6.996  0.3531 -0.1199 -0.2539
 5738ntf    nn329358   2.696   5.317   7.009 -0.3214  0.4294  0.0916
 5738ntf    sn229359   2.553   5.292   6.949 -0.4495 -0.0696  0.5891
 5738ntf    cn129360   2.490   5.159   7.055 -0.0249 -0.4425  0.3749
 5738ntf    fn429361   2.851   5.434   7.250 -0.0331 -0.0293 -0.2355
 5738ntf    fn429362   2.837   5.627   7.178  0.0495 -0.1821 -0.1224
 5738ntf    fn429363   2.660   5.517   7.216  0.1722  0.2291  0.2254
 5738ntf    on529364   2.740   5.548   6.914 -0.0223  0.4781  0.7436
 5738ntf    on529365   2.927   5.397   6.974  0.5991  0.3129  0.3889
 5738ntf    on529366   2.559   5.232   6.818  0.7038  0.0791  0.5585
 5738ntf    on529367   2.466   5.403   6.980  0.6357  0.7550  0.7359
 5738ntf    fn429368   2.400   5.080   6.999 -0.4693  0.0353  0.4126
 5738ntf    fn429369   2.589   5.075   7.083  0.5432 -0.0227 -0.3201
 5738ntf    fn429370   2.448   5.184   7.177  0.4006 -0.1483  0.4635
 5739ntf    cn129371   1.749   1.485   5.191  0.0558 -0.0118 -0.4740
 5739ntf    sn229372   1.806   1.570   5.040  0.1593  0.5954 -0.0955
 5739ntf    nn329373   1.914   1.665   5.102  0.0567  0.6900 -0.0626
 5739ntf    sn229374   1.893   1.820   5.119 -0.1137  0.6511  0.0847
 5739ntf    cn129375   1.969   1.879   4.965 -0.2780  0.4770 -0.0656
 5739ntf    fn429376   1.669   1.384   5.161 -0.3745  0.2026 -0.0615
 5739ntf    fn429377   1.850   1.428   5.254 -0.1030 -0.0586 -0.2595
 5739ntf    fn429378   1.686   1.569   5.271  0.1803 -0.0445 -0.3416
 5739ntf    on529379   1.878   1.471   4.964 -0.0588  0.4846 -0.1597
 5739ntf    on529380   1.684   1.614   4.976 -0.2261  0.1404  0.3144
 5739ntf    on529381   1.978   1.864   5.226  0.1639  0.8259 -0.2075
 5739ntf    on529382   1.762   1.879   5.103 -0.7230 -0.8995 -0.9504
 5739ntf    fn429383   2.080   1.811   4.939 -0.3146  0.3173  0.1893
 5739ntf    fn429384   1.894   1.871   4.857 -0.3381 -0.1977  0.0275
 5739ntf    fn429385   2.017   2.002   4.984  0.4492  0.2436 -0.3432
 5740ntf    cn129386   1.662   5.189   5.917  0.0802 -0.0588  0.1400
 5740ntf    sn229387   1.714   5.335   5.821 -0.2590 -0.0013  0.0433
 5740ntf    nn329388   1.643   5.314   5.683  0.1369  0.0197 -0.1642
 5740ntf    sn229389   1.538   5.403   5.607 -0.0609  0.0546  0.1483
 5740ntf    cn129390   1.392   5.332   5.689 -0.1811 -0.2231 -0.3002
 5740ntf    fn429391   1.722   5.079   5.874 -0.0385 -0.0376 -0.0818
 5740ntf    fn429392   1.689   5.198   6.046  0.3513  0.1546  0.0700
 5740ntf    fn429393   1.533   5.162   5.908  0.1270 -0.2180 -0.0586
 5740ntf    on529394   1.659   5.442   5.900  0.0382  0.1311  0.0736
 5740ntf    on529395   1.857   5.316   5.809 -0.2455 -0.2298  0.5345
 5740ntf    on529396   1.513   5.356   5.472  0.3814  0.4506 -0.0748
 5740ntf    on529397   1.537   5.546   5.623  0.5287  0.0757  0.0320
 5740ntf    fn429398   1.398   5.380   5.812 -0.4979 -0.0924 -0.3363
 5740ntf    fn429399   1.280   5.380   5.638 -0.0746 -0.4285 -0.7324
 5740ntf    fn429400   1.390   5.200   5.684 -0.4434 -0.2246 -0.1497
 5741ntf    cn129401   7.092   1.144   2.574 -0.0008 -0.1632  0.5365
 5741ntf    sn229402   7.133   1.073   2.736 -0.1245 -0.2542  0.5278
 5741ntf    nn329403   6.995   1.013   2.782 -0.3026 -0.1801  0.1006
 5741ntf    sn229404   6.955   0.865   2.818 -0.2811 -0.1882  0.0922
 5741ntf    cn129405   6.885   0.813   2.658 -0.1940 -0.1899  0.0544
 5741ntf    fn429406   7.008   1.064   2.510  0.4950 -0.2373 -0.0330
 5741ntf    fn429407   7.039   1.265   2.587 -0.4778 -0.2740 -0.2664
 5741ntf    fn429408   7.194   1.167   2.493 -0.0579  0.8840  0.7505
 5741ntf    on529409   7.233   0.977   2.696 -0.1421 -0.0611  0.0153
 5741ntf    on529410   7.180   1.189   2.807 -0.2430  0.2205 -0.1603
 5741ntf    on529411   6.844   0.863   2.909  0.4177 -0.0134  0.9580
 5741ntf    on529412   7.051   0.759   2.839  0.0401  0.0071 -0.3459
 5741ntf    fn429413   6.966   0.823   2.554  0.0052  0.8972  0.3074
 5741ntf    fn429414   6.848   0.686   2.664 -0.1220 -0.2207 -0.1493
 5741ntf    fn429415   6.778   0.884   2.630  0.0993  0.3548  0.2967
 5742ntf    cn129416   4.275   3.732   4.348  0.3039  0.1468 -0.0593
 5742ntf    sn229417   4.412   3.616   4.380  0.1175 -0.0645 -0.0235
 5742ntf    nn329418   4.505   3.698   4.477  0.1158  0.2273 -0.2650
 5742ntf    sn229419   4.504   3.715   4.634  0.2460  0.1496 -0.2559
 5742ntf    cn129420   4.584   3.876   4.662  0.0664  0.2288 -0.2008
 5742ntf    fn429421   4.326   3.851   4.319  0.1457  0.2017 -0.1105
 5742ntf    fn429422   4.194   3.692   4.252  0.3732 -0.3634  0.0905
 5742ntf    fn429423   4.200   3.749   4.456 -0.2360 -0.0799 -0.3995
 5742ntf    on529424   4.358   3.500   4.446  0.0772 -0.0407 -0.0143
 5742ntf    on529425   4.476   3.604   4.252  0.1899  0.7316 -0.0675
 5742ntf    on529426   4.586   3.623   4.709 -0.4975  0.0809  0.4785
 5742ntf    on529427   4.372   3.736   4.687  0.4074 -0.0984  0.2483
 5742ntf    fn429428   4.559   3.927   4.781  0.0499  0.0599 -0.1322
 5742ntf    fn429429   4.716   3.882   4.654  0.1136  0.0865  0.4328
 5742ntf    fn429430   4.538   3.964   4.574  0.1117  0.1640 -0.2903
 5743ntf    cn129431   4.196   6.982   6.969  0.1206 -0.2409  0.0041
 5743ntf    sn229432   4.100   6.901   6.838  0.0040 -0.3399  0.1504
 5743ntf    nn329433   3.987   6.838   6.928 -0.0322 -0.1272  0.2557
 5743ntf    sn229434   3.874   6.908   7.011 -0.2190  0.2734 -0.3235
 5743ntf    cn129435   3.801   6.772   7.107  0.4504 -0.1000 -0.3371
 5743ntf    fn429436   4.207   6.908   7.079 -0.0274 -0.1734  0.0657
 5743ntf    fn429437   4.324   7.007   6.948  0.1831 -0.0286  0.6120
 5743ntf    fn429438   4.135   7.092   7.011 -0.1636 -0.5915  0.5243
 5743ntf    on529439   4.057   7.017   6.764 -0.0143 -0.0518  0.6060
 5743ntf    on529440   4.183   6.797   6.782 -0.2604 -0.6248  0.2777
 5743ntf    on529441   3.774   6.960   6.921 -0.4747  0.5632  0.1245
 5743ntf    on529442   3.920   7.000   7.112  0.0369 -0.0897 -0.1048
 5743ntf    fn429443   3.745   6.679   7.031 -0.5914  0.3626 -0.1514
 5743ntf    fn429444   3.886   6.709   7.187  0.0454 -0.1082  0.0936
 5743ntf    fn429445   3.705   6.817   7.186  0.1024 -0.9386 -0.2698
 5744ntf    cn129446   0.024   2.294   5.563 -0.1787 -0.3160  0.6511
 5744ntf    sn229447  -0.155   2.323   5.558 -0.0504  0.3808 -0.1171
 5744ntf    nn329448  -0.209   2.219   5.662  0.2832  0.4668  0.1420
 5744ntf    sn229449  -0.338   2.131   5.649  0.1543  0.6614  0.1182
 5744ntf    cn129450  -0.278   2.012   5.527 -0.2835  0.4957  0.0632
 5744ntf    fn429451   0.102   2.370   5.488 -0.0105 -0.5454  0.5898
 5744ntf    fn429452   0.075   2.298   5.685 -0.2564  0.2008  0.6670
 5744ntf    fn429453   0.052   2.170   5.525 -0.5148 -0.5898  1.2936
 5744ntf    on529454  -0.162   2.460   5.603  0.6176  0.4826 -0.3153
 5744ntf    on529455  -0.198   2.313   5.421 -0.3134 -0.7635  0.0393
 5744ntf    on529456  -0.455   2.187   5.586 -0.1046  0.5219  0.4715
 5744ntf    on529457  -0.355   2.058   5.772 -0.0826  0.5029 -0.0087
 5744ntf    fn429458  -0.162   1.958   5.559 -0.2051  0.4151 -0.3470
 5744ntf    fn429459  -0.363   1.912   5.509  0.0899  0.1065  0.4287
 5744ntf    fn429460  -0.246   2.064   5.409 -0.2396 -0.4550 -0.3571
 5745ntf    cn129461   4.974   5.430   5.417  0.0388 -0.0810  0.3874
 5745ntf    sn229462   4.891   5.548   5.528 -0.2717 -0.0745  0.1496
 5745ntf    nn329463   4.955   5.514   5.667  0.1068  0.0291  0.0020
 5745ntf    sn229464   4.917   5.562   5.811  0.0949  0.2175 -0.0642
 5745ntf    cn129465   5.030   5.701   5.840 -0.3442  0.4846  0.4019
 5745ntf    fn429466   4.943   5.310   5.462  0.5542 -0.5555 -0.5014
 5745ntf    fn429467   4.923   5.436   5.295 -0.2613  0.1883  0.5255
 5745ntf    fn429468   5.106   5.441   5.413  0.0058  0.3501  0.3947
 5745ntf    on529469   4.933   5.678   5.482 -0.4065 -0.0460  0.1057
 5745ntf    on529470   4.751   5.512   5.522 -0.1189 -0.5724 -0.5513
 5745ntf    on529471   4.974   5.473   5.910 -0.5079 -0.0284  0.0677
 5745ntf    on529472   4.787   5.621   5.834 -0.0382  0.1572 -0.6494
 5745ntf    fn429473   4.998   5.789   5.747 -0.8822 -0.0858  0.0391
 5745ntf    fn429474   5.025   5.757   5.959  0.6266  0.2355  0.5695
 5745ntf    fn429475   5.157   5.671   5.819 -0.5767  0.1968 -0.6782
 5746ntf    cn129476   5.977   6.776   5.604 -0.1253  0.1896  0.3773
 5746ntf    sn229477   6.015   6.947   5.651  0.1311  0.2250  0.0473
 5746ntf    nn329478   5.948   7.019   5.529  0.0445 -0.2680 -0.1983
 5746ntf    sn229479   5.804   7.078   5.510  0.1700  0.0438 -0.1825
 5746ntf    cn129480   5.785   7.055   5.330  0.1776 -0.2121 -0.1510
 5746ntf    fn429481   5.847   6.755   5.592 -0.0309 -0.2165  0.0036
 5746ntf    fn429482   6.023   6.739   5.485  0.3902  0.1505  0.5837
 5746ntf    fn429483   6.010   6.688   5.697 -0.8276  0.0440  0.4937
 5746ntf    on529484   5.948   6.952   5.778 -0.4228  0.6947 -0.2580
 5746ntf    on529485   6.159   6.957   5.652  0.1888 -0.4302 -0.6274
 5746ntf    on529486   5.797   7.222   5.523 -0.9809  0.0236 -0.4759
 5746ntf    on529487   5.699   6.998   5.567  0.0563  0.3448  0.0353
 5746ntf    fn429488   5.690   7.132   5.282 -0.0676 -0.6032 -0.2919
 5746ntf    fn429489   5.900   7.060   5.265  0.0694  0.5053 -0.2964
 5746ntf    fn429490   5.753   6.928   5.311  0.0754 -0.2381  0.1749
 5747ntf    cn129491   6.515   4.415   6.462  0.0697  0.1891 -0.3551
 5747ntf    sn229492   6.540   4.559   6.571 -0.2522  0.1126 -0.1798
 5747ntf    nn329493   6.693   4.538   6.601 -0.2384  0.3618 -0.0800
 5747ntf    sn229494   6.758   4.604   6.728 -0.0434 -0.0733  0.0483
 5747ntf    cn129495   6.900   4.667   6.631 -0.1693  0.3538  0.1384
 5747ntf    fn429496   6.387   4.402   6.434 -0.1572 -0.0364  0.7436
 5747ntf    fn429497   6.583   4.435   6.350  0.1093  0.2300 -0.3238
 5747ntf    fn429498   6.561   4.307   6.522  0.6166  0.5882 -0.0474
 5747ntf    on529499   6.507   4.669   6.485 -0.5873  0.1894  0.0464
 5747ntf    on529500   6.456   4.512   6.678  0.1598 -0.2822 -0.0247
 5747ntf    on529501   6.814   4.513   6.825 -0.2262 -0.4245 -0.1727
 5747ntf    on529502   6.697   4.725   6.777 -0.0165  0.0795 -0.2882
 5747ntf    fn429503   6.981   4.568   6.598 -0.3202  0.3673 -0.2853
 5747ntf    fn429504   6.860   4.724   6.519 -0.1824  0.5295  0.2321
 5747ntf    fn429505   6.974   4.756   6.695 -0.2528  0.3682  0.2157
 5748ntf    cn129506   2.362   7.333   5.602  0.1511  0.4859  0.0693
 5748ntf    sn229507   2.421   7.320   5.431  0.1995  0.0328  0.1197
 5748ntf    nn329508   2.425   7.473   5.396  0.0591  0.1517  0.6154
 5748ntf    sn229509   2.533   7.574   5.449  0.0912  0.4302  0.0349
 5748ntf    cn129510   2.422   7.707   5.507 -0.1645  0.2003  0.0776
 5748ntf    fn429511   2.444   7.272   5.686  0.2798  0.7346  0.1271
 5748ntf    fn429512   2.358   7.458   5.646 -0.5705  0.5364 -0.1261
 5748ntf    fn429513   2.244   7.285   5.636  0.5388 -0.6860 -0.2121
 5748ntf    on529514   2.544   7.249   5.456  0.0937 -0.0322  0.4481
 5748ntf    on529515   2.308   7.248   5.378  0.6177 -0.3521 -0.2659
 5748ntf    on529516   2.614   7.629   5.344  0.1059 -0.3640 -0.3715
 5748ntf    on529517   2.603   7.535   5.569 -0.0222  0.6952  0.1877
 5748ntf    fn429518   2.496   7.795   5.573 -0.1525  0.5470 -0.3993
 5748ntf    fn429519   2.362   7.773   5.410  0.2708  0.4116 -0.0544
 5748ntf    fn429520   2.335   7.669   5.599  0.2708 -0.0634  0.3842
 5749ntf    cn129521   5.841   6.419   3.676  0.4330 -0.1940  0.0621
 5749ntf    sn229522   5.820   6.248   3.620  0.0347 -0.0076 -0.3614
 5749ntf    nn329523   5.959   6.207   3.560  0.0405 -0.0516 -0.3177
 5749ntf    sn229524   6.090   6.184   3.643 -0.4176 -0.2140  0.3719
 5749ntf    cn129525   6.085   6.002   3.653 -0.2066 -0.2345  0.1075
 5749ntf    fn429526   5.915   6.425   3.786  0.4268  0.2260  0.0476
 5749ntf    fn429527   5.906   6.490   3.585 -0.6237  0.3928 -0.2580
 5749ntf    fn429528   5.725   6.477   3.704  0.1522 -0.6191 -0.2142
 5749ntf    on529529   5.800   6.172   3.741  0.0323 -0.0892 -0.4123
 5749ntf    on529530   5.710   6.250   3.526  0.3258 -0.0433 -0.7043
 5749ntf    on529531   6.087   6.232   3.779 -0.3910 -0.1842  0.3621
 5749ntf    on529532   6.214   6.196   3.570 -0.4515 -0.0256  0.3452
 5749ntf    fn429533   6.090   5.943   3.535 -0.0606  0.2041 -0.1094
 5749ntf    fn429534   6.176   5.951   3.734 -0.1160 -0.2975 -0.0328
 5749ntf    fn429535   5.969   5.969   3.706 -0.2499 -0.1963  0.0390
 5750ntf    cn129536   6.787   1.959   0.488  0.2523 -0.2387  0.5368
 5750ntf    sn229537   6.768   1.873   0.647 -0.4190 -0.0203  0.5737
 5750ntf    nn329538   6.918   1.863   0.690 -0.3877 -0.0255  0.4610
 5750ntf    sn229539   6.985   1.743   0.766  0.1000 -0.1918 -0.2188
 5750ntf    cn129540   7.062   1.837   0.901 -0.2695  0.1113 -0.2203
 5750ntf    fn429541   6.680   1.938   0.413  0.5101  0.8632 -0.1737
 5750ntf    fn429542   6.795   2.090   0.502 -0.1972 -0.2328  0.7417
 5750ntf    fn429543   6.896   1.930   0.418  0.1771  0.1773  0.2434
 5750ntf    on529544   6.693   1.966   0.729 -0.8407  0.8531 -0.7617
 5750ntf    on529545   6.699   1.752   0.611  0.0466 -0.0367 -0.2739
 5750ntf    on529546   7.098   1.683   0.698  0.5947  0.3585  0.1058
 5750ntf    on529547   6.892   1.653   0.830 -0.0022  0.5271  0.6624
 5750ntf    fn429548   7.164   1.912   0.861  0.4372 -0.4645  0.4834
 5750ntf    fn429549   6.976   1.910   0.970 -0.4647 -0.0739 -0.2677
 5750ntf    fn429550   7.122   1.761   0.990 -0.5748 -0.0734 -0.1711
 5751ntf    cn129551   1.834   3.729   7.374  0.2452  0.1469  0.1156
 5751ntf    sn229552   1.888   3.901   7.355  0.3747  0.0749 -0.1860
 5751ntf    nn329553   1.756   3.976   7.396  0.0164 -0.4247 -0.4209
 5751ntf    sn229554   1.607   3.945   7.357 -0.0627  0.0740 -0.5197
 5751ntf    cn129555   1.520   4.105   7.370  0.0735  0.0967  0.1491
 5751ntf    fn429556   1.778   3.700   7.490 -0.4988  0.5958 -0.1258
 5751ntf    fn429557   1.739   3.711   7.283  0.3103 -0.1180  0.1005
 5751ntf    fn429558   1.931   3.643   7.347  0.3171  0.4552 -0.6483
 5751ntf    on529559   1.992   3.918   7.454  0.5058 -0.4766 -0.2251
 5751ntf    on529560   1.929   3.906   7.217 -0.7162 -0.2817 -0.5313
 5751ntf    on529561   1.538   3.861   7.451 -0.2518 -0.3100 -0.9976
 5751ntf    on529562   1.589   3.910   7.218  0.1121 -0.8165 -0.3219
 5751ntf    fn429563   1.390   4.083   7.378  0.1352 -0.5794 -0.5615
 5751ntf    fn429564   1.549   4.164   7.484  0.2142  0.2211  0.0487
 5751ntf    fn429565   1.541   4.190   7.272 -0.3395  0.1350  0.0936
 5752ntf    cn129566   2.158   7.241   4.521 -0.0016  0.0315  0.4027
 5752ntf    sn229567   2.075   7.396   4.566  0.0528  0.1936 -0.0535
 5752ntf    nn329568   1.971   7.419   4.450  0.0057  0.2711  0.0035
 5752ntf    sn229569   1.960   7.513   4.325  0.0114  0.1865 -0.0607
 5752ntf    cn129570   1.852   7.407   4.225  0.1948  0.1219 -0.1887
 5752ntf    fn429571   2.245   7.206   4.615 -0.1260  0.0279  0.5168
 5752ntf    fn429572   2.069   7.146   4.497  0.2031  0.1067 -0.6751
 5752ntf    fn429573   2.231   7.256   4.412 -0.6093 -0.4056 -0.0666
 5752ntf    on529574   2.008   7.359   4.688  0.3901 -0.4061 -0.0500
 5752ntf    on529575   2.176   7.499   4.571  0.1512  0.1696 -1.2640
 5752ntf    on529576   2.081   7.510   4.247  0.3441  0.0421  0.4567
 5752ntf    on529577   1.897   7.640   4.352  0.5134  0.3347  0.4456
 5752ntf    fn429578   1.814   7.462   4.111  0.5914  0.2126 -0.2798
 5752ntf    fn429579   1.917   7.297   4.189  0.1859 -0.1413  0.5869
 5752ntf    fn429580   1.745   7.370   4.293  0.5102 -0.5255 -0.0367
 5753ntf    cn129581   1.510   5.171   5.156 -0.0503  0.2975  0.2847
 5753ntf    sn229582   1.480   5.098   4.992 -0.2969  0.0983  0.4185
 5753ntf    nn329583   1.614   5.148   4.928 -0.3328  0.1149  0.3575
 5753ntf    sn229584   1.642   5.274   4.838  0.1132 -0.0201  0.3073
 5753ntf    cn129585   1.642   5.193   4.675  0.1511  0.0050  0.2947
 5753ntf    fn429586   1.558   5.295   5.155 -0.3951  0.4356 -0.6771
 5753ntf    fn429587   1.391   5.184   5.214  0.1212  0.4118  0.6099
 5753ntf    fn429588   1.579   5.097   5.240 -0.2622 -0.1698  0.0537
 5753ntf    on529589   1.472   4.958   5.026 -0.1616  0.0164  0.1132
 5753ntf    on529590   1.355   5.162   4.960 -0.3677 -0.0140  0.4678
 5753ntf    on529591   1.774   5.329   4.855  0.2322 -0.2232  0.0551
 5753ntf    on529592   1.540   5.375   4.833  0.0392 -0.1007  0.1678
 5753ntf    fn429593   1.537   5.113   4.673  0.1706 -0.0216  0.2971
 5753ntf    fn429594   1.649   5.274   4.571  0.2502 -0.2834  0.0757
 5753ntf    fn429595   1.750   5.116   4.675  0.1547  0.0093  0.3646
 5754ntf    cn129596   5.468   0.545   5.445  0.2987 -0.0205 -0.3331
 5754ntf    sn229597   5.445   0.660   5.584  0.0331 -0.3232 -0.1240
 5754ntf    nn329598   5.369   0.560   5.678 -0.0156 -0.0342  0.1445
 5754ntf    sn229599   5.388   0.550   5.834  0.0247 -0.3249  0.1211
 5754ntf    cn129600   5.508   0.413   5.834  0.1119 -0.2487  0.2400
 5754ntf    fn429601   5.552   0.584   5.350  0.2160  0.2279 -0.3064
 5754ntf    fn429602   5.514   0.427   5.483 -0.1945 -0.1050  0.0033
 5754ntf    fn429603   5.351   0.511   5.393 -0.0016  0.1275  0.2338
 5754ntf    on529604   5.581   0.690   5.624  0.0085 -0.1488 -0.1678
 5754ntf    on529605   5.362   0.769   5.539  0.1842 -0.2687 -0.2752
 5754ntf    on529606   5.276   0.501   5.911 -0.1625 -0.2058 -0.0734
 5754ntf    on529607   5.455   0.657   5.902 -0.3046 -0.2030  0.2554
 5754ntf    fn429608   5.631   0.459   5.846 -0.0041 -0.0623  0.7342
 5754ntf    fn429609   5.484   0.318   5.923  0.5699 -0.8422 -0.2600
 5754ntf    fn429610   5.491   0.348   5.720 -0.3530  0.8644 -0.3490
 5755ntf    cn129611   3.228   5.369   3.360 -0.2493  0.3212 -0.2343
 5755ntf    sn229612   3.376   5.282   3.419 -0.4744  0.0117 -0.1179
 5755ntf    nn329613   3.328   5.236   3.561  0.2854 -0.6388 -0.0647
 5755ntf    sn229614   3.369   5.274   3.708 -0.2958 -0.2237 -0.0086
 5755ntf    cn129615   3.450   5.121   3.761  0.1012 -0.0250 -0.0411
 5755ntf    fn429616   3.220   5.494   3.401 -0.0800  0.2876 -0.1035
 5755ntf    fn429617   3.222   5.368   3.227 -0.4164  0.1474 -0.2277
 5755ntf    fn429618   3.121   5.299   3.396  0.3688 -0.4506  0.1243
 5755ntf    on529619   3.385   5.169   3.330 -0.5785  0.2486 -0.4307
 5755ntf    on529620   3.483   5.379   3.419 -0.2115 -0.2700  0.4653
 5755ntf    on529621   3.253   5.291   3.793  0.1454  0.3339  0.4879
 5755ntf    on529622   3.465   5.381   3.719 -0.1460 -0.3663  0.0686
 5755ntf    fn429623   3.564   5.108   3.695  0.2356  0.8401  0.0085
 5755ntf    fn429624   3.474   5.109   3.890  0.3740 -0.0450 -0.0933
 5755ntf    fn429625   3.378   5.013   3.737  0.5117 -0.3057 -0.0305
 5756ntf    cn129626   1.178   3.284   0.548  0.1902  0.0298 -0.0649
 5756ntf    sn229627   1.289   3.143   0.577  0.2235  0.0563 -0.0639
 5756ntf    nn329628   1.300   3.138   0.733  0.0464  0.0644 -0.0510
 5756ntf    sn229629   1.399   3.195   0.841  0.1423 -0.0392 -0.0835
 5756ntf    cn129630   1.497   3.043   0.849  0.0620 -0.1069 -0.3797
 5756ntf    fn429631   1.137   3.283   0.423  0.2097  0.1817 -0.0726
 5756ntf    fn429632   1.069   3.274   0.623  0.4462 -0.0613  0.2951
 5756ntf    fn429633   1.229   3.403   0.575 -0.3664  0.1628  0.4305
 5756ntf    on529634   1.208   3.030   0.539  0.3569 -0.1273  0.1992
 5756ntf    on529635   1.404   3.173   0.494 -0.1275  0.6599 -0.3414
 5756ntf    on529636   1.348   3.222   0.973  0.0954 -0.3493 -0.0381
 5756ntf    on529637   1.485   3.296   0.784 -0.1151  0.1278 -0.1837
 5756ntf    fn429638   1.435   2.931   0.815 -0.4175 -0.1395  0.5805
 5756ntf    fn429639   1.611   3.049   0.780  0.4570  0.0931  0.2808
 5756ntf    fn429640   1.547   3.030   0.971  0.1739 -0.9179 -0.5062
 5757ntf    cn129641   4.295   5.019   0.898  0.2334 -0.2478  0.0596
 5757ntf    sn229642   4.256   5.188   0.845  0.2810 -0.1796  0.2384
 5757ntf    nn329643   4.322   5.280   0.953  0.2799 -0.1515  0.2151
 5757ntf    sn229644   4.399   5.417   0.951  0.0276 -0.0107  0.1258
 5757ntf    cn129645   4.274   5.512   1.043  0.0932  0.3165 -0.1213
 5757ntf    fn429646   4.280   4.928   0.803 -0.2963 -0.1235  0.0215
 5757ntf    fn429647   4.416   5.014   0.951  0.2808  0.0565 -0.0205
 5757ntf    fn429648   4.213   4.980   0.994  0.2725 -0.5757 -0.0377
 5757ntf    on529649   4.313   5.201   0.713 -0.3138  0.6107  0.0534
 5757ntf    on529650   4.113   5.204   0.849  0.2529 -0.3206 -0.1567
 5757ntf    on529651   4.415   5.483   0.824  0.8890 -0.3013  0.0775
 5757ntf    on529652   4.510   5.414   1.043 -0.0416  0.1996  0.2174
 5757ntf    fn429653   4.160   5.528   0.977  0.1958  0.4735 -0.2615
 5757ntf    fn429654   4.234   5.445   1.150  0.0484 -0.0802 -0.3817
 5757ntf    fn429655   4.315   5.633   1.077  0.2992  0.2486 -0.1236
 5758ntf    cn129656   0.186   0.985   5.838  0.0055  0.1149 -0.0151
 5758ntf    sn229657   0.323   1.052   5.740  0.2197 -0.4271 -0.0916
 5758ntf    nn329658   0.257   1.174   5.667  0.0367 -0.3815  0.1501
 5758ntf    sn229659   0.321   1.309   5.619  0.0917 -0.3627  0.2760
 5758ntf    cn129660   0.217   1.436   5.696  0.3399  0.1527 -0.2254
 5758ntf    fn429661   0.194   0.853   5.847 -0.3544  0.0830 -0.1299
 5758ntf    fn429662   0.167   1.040   5.956 -0.5771 -0.5350  0.2008
 5758ntf    fn429663   0.069   1.003   5.777 -0.2142 -0.4396  0.2311
 5758ntf    on529664   0.420   1.089   5.841 -0.3098  0.7983 -0.0041
 5758ntf    on529665   0.347   0.945   5.647  0.2948 -0.8034  0.3551
 5758ntf    on529666   0.303   1.330   5.477  0.6265  0.6322  0.3492
 5758ntf    on529667   0.448   1.340   5.680 -0.1568  0.1446  0.5387
 5758ntf    fn429668   0.236   1.441   5.827 -0.1227 -0.2071 -0.1415
 5758ntf    fn429669   0.244   1.558   5.655  0.2402  0.3228  0.2034
 5758ntf    fn429670   0.087   1.416   5.680  0.3870 -0.3295 -0.0270
 5759ntf    cn129671   6.955   6.708   5.449  0.1828 -0.0128  0.3362
 5759ntf    sn229672   6.897   6.622   5.599 -0.3542 -0.3067 -0.0357
 5759ntf    nn329673   6.893   6.753   5.685  0.1884 -0.3601  0.0767
 5759ntf    sn229674   6.989   6.799   5.800 -0.1097 -0.0449  0.2015
 5759ntf    cn129675   6.928   6.691   5.933 -0.2905  0.1539  0.2826
 5759ntf    fn429676   6.876   6.809   5.418 -0.0052 -0.1450  0.3838
 5759ntf    fn429677   7.071   6.770   5.455  0.1279  0.0880  0.3573
 5759ntf    fn429678   6.971   6.632   5.341 -0.1827  0.2577  0.0889
 5759ntf    on529679   6.770   6.564   5.564 -0.7240  0.7130 -0.4397
 5759ntf    on529680   7.002   6.532   5.638  0.3868  0.6046  0.1210
 5759ntf    on529681   6.959   6.928   5.858  0.2863  0.0360  0.2282
 5759ntf    on529682   7.125   6.758   5.775 -0.0998 -0.1127  0.3638
 5759ntf    fn429683   6.804   6.652   5.908 -0.1524  0.2531 -0.5817
 5759ntf    fn429684   7.004   6.583   5.948 -0.2121  0.1914  0.1661
 5759ntf    fn429685   6.920   6.756   6.047  0.1991 -0.2040  0.5281
 5760ntf    cn129686   0.624   1.939   0.364 -0.2267  0.3260  0.1760
 5760ntf    sn229687   0.506   1.979   0.231 -0.2981 -0.1229  0.1030
 5760ntf    nn329688   0.385   2.055   0.296 -0.5510 -0.4901  0.0620
 5760ntf    sn229689   0.355   2.207   0.315  0.3718 -0.3246  0.2415
 5760ntf    cn129690   0.360   2.219   0.497  0.4416 -0.0210  0.2206
 5760ntf    fn429691   0.565   1.892   0.473 -0.2218  0.0837  0.0745
 5760ntf    fn429692   0.710   1.845   0.328 -0.7933 -0.2196  0.2263
 5760ntf    fn429693   0.696   2.042   0.406  0.6753  0.0957 -0.7775
 5760ntf    on529694   0.580   2.056   0.135 -0.5258  0.7732  0.6362
 5760ntf    on529695   0.468   1.847   0.188 -0.6158 -0.1392  0.4262
 5760ntf    on529696   0.218   2.246   0.290  0.4707 -0.1386 -0.0096
 5760ntf    on529697   0.456   2.306   0.287  0.8718 -0.9635 -0.2168
 5760ntf    fn429698   0.467   2.161   0.548  0.8544  0.0871 -0.4986
 5760ntf    fn429699   0.373   2.345   0.534  0.0043 -0.0410  0.4457
 5760ntf    fn429700   0.259   2.168   0.565  0.2269 -0.1794 -0.2083
 5761ntf    cn129701   4.279   3.248   5.218 -0.1252 -0.0700  0.2824
 5761ntf    sn229702   4.261   3.172   5.054  0.1377 -0.0032  0.2230
 5761ntf    nn329703   4.166   3.272   4.980  0.2516  0.1312  0.2577
 5761ntf    sn229704   4.050   3.244   4.878  0.2872  0.6051  0.0839
 5761ntf    cn129705   3.921   3.220   5.005 -0.0871 -0.3277 -0.4642
 5761ntf    fn429706   4.314   3.375   5.209  0.2003 -0.2076 -0.4732
 5761ntf    fn429707   4.163   3.259   5.280 -0.2092 -0.4120  0.1852
 5761ntf    fn429708   4.363   3.188   5.301 -0.0469 -0.6391 -0.2065
 5761ntf    on529709   4.395   3.178   5.000 -0.0485 -0.1656 -0.2630
 5761ntf    on529710   4.211   3.044   5.097 -0.3400 -0.1156 -0.6636
 5761ntf    on529711   4.046   3.115   4.815  0.1660  0.4930  0.3208
 5761ntf    on529712   4.018   3.361   4.800 -0.0734  0.1763 -0.4137
 5761ntf    fn429713   3.913   3.318   5.094  0.2165 -0.1352 -0.6426
 5761ntf    fn429714   3.810   3.191   4.941 -0.6325 -0.7550  0.6571
 5761ntf    fn429715   3.944   3.105   5.066 -0.1510  0.0717  0.3198
 5762ntf    cn129716   4.705   4.344   0.288 -0.3201 -0.3744  0.0535
 5762ntf    sn229717   4.869   4.266   0.300 -0.1200 -0.0667 -0.6325
 5762ntf    nn329718   4.867   4.225   0.451  0.5499 -0.0652 -0.6202
 5762ntf    sn229719   4.984   4.247   0.555 -0.3470  0.0023  0.3902
 5762ntf    cn129720   4.954   4.417   0.609 -0.0474  0.2012 -0.0643
 5762ntf    fn429721   4.604   4.259   0.298 -0.5247 -0.1998 -0.4782
 5762ntf    fn429722   4.685   4.435   0.381  0.0603  0.2077 -0.4215
 5762ntf    fn429723   4.688   4.395   0.167  0.5982 -0.8147 -0.2812
 5762ntf    on529724   4.870   4.151   0.213 -0.4602 -0.6232  0.0871
 5762ntf    on529725   4.968   4.365   0.263 -0.1201  0.2297  0.1389
 5762ntf    on529726   5.113   4.242   0.492 -0.4204 -0.5188  0.2692
 5762ntf    on529727   4.964   4.164   0.671 -0.1586 -0.3126  0.1977
 5762ntf    fn429728   5.042   4.464   0.695 -0.2648  0.5484 -0.0285
 5762ntf    fn429729   4.961   4.503   0.509  0.3572  0.1322 -0.0960
 5762ntf    fn429730   4.839   4.432   0.674 -0.3908 -0.3622 -0.5382
 5763ntf    cn129731   5.553   0.469   4.553  0.0258 -0.2567 -0.1587
 5763ntf    sn229732   5.481   0.460   4.719 -0.1123 -0.2248 -0.2161
 5763ntf    nn329733   5.598   0.368   4.770 -0.0371 -0.1766 -0.3019
 5763ntf    sn229734   5.609   0.299   4.911 -0.3797 -0.3742 -0.3688
 5763ntf    cn129735   5.684   0.438   5.002 -0.0366 -0.4498 -0.5303
 5763ntf    fn429736   5.529   0.359   4.484  0.0299 -0.3251 -0.0499
 5763ntf    fn429737   5.511   0.574   4.483  0.0572 -0.2299 -0.1375
 5763ntf    fn429738   5.685   0.478   4.559 -0.0066  0.1484 -0.0017
 5763ntf    on529739   5.490   0.590   4.781  0.3345 -0.5177  0.3411
 5763ntf    on529740   5.353   0.393   4.710 -0.1472 -0.2624  0.4458
 5763ntf    on529741   5.719   0.207   4.923 -0.1554 -0.0314  0.2519
 5763ntf    on529742   5.480   0.273   4.970 -0.1873  0.0493  0.2557
 5763ntf    fn429743   5.728   0.395   5.119 -0.4087 -0.1080 -0.2594
 5763ntf    fn429744   5.791   0.474   4.934  0.1353 -0.3981 -0.2335
 5763ntf    fn429745   5.605   0.541   5.029 -0.0147 -0.4983 -0.2762
 5764ntf    cn129746   5.142   4.538   6.083  0.2115 -0.2794 -0.1104
 5764ntf    sn229747   5.119   4.623   5.924 -0.0017  0.2291  0.1895
 5764ntf    nn329748   4.979   4.575   5.870  0.1185  0.2682 -0.1626
 5764ntf    sn229749   4.834   4.627   5.904 -0.0090 -0.1841 -0.0038
 5764ntf    cn129750   4.751   4.466   5.900 -0.0260 -0.1771  0.1149
 5764ntf    fn429751   5.067   4.598   6.174 -0.4096 -0.3166 -0.5866
 5764ntf    fn429752   5.105   4.411   6.083 -0.2506 -0.1482 -0.0363
 5764ntf    fn429753   5.268   4.533   6.124  0.1104 -0.8432  0.1423
 5764ntf    on529754   5.131   4.764   5.952  0.2894  0.1587  0.4137
 5764ntf    on529755   5.216   4.568   5.833 -0.5005 -0.3262 -0.0196
 5764ntf    on529756   4.784   4.702   5.791 -0.5190 -0.6826 -0.1077
 5764ntf    on529757   4.807   4.671   6.039  0.2730  0.3254 -0.1074
 5764ntf    fn429758   4.728   4.422   5.778  0.1382 -0.1164  0.0616
 5764ntf    fn429759   4.821   4.368   5.955 -0.1258 -0.2560  0.1011
 5764ntf    fn429760   4.637   4.462   5.967 -0.2742 -0.3886 -0.3167
 5765ntf    cn129761   7.176   7.021   4.933  0.1106 -0.5045 -0.2581
 5765ntf    sn229762   7.125   6.984   5.104  0.1862  0.0633 -0.1086
 5765ntf    nn329763   7.100   7.133   5.145 -0.0182 -0.2223  0.8256
 5765ntf    sn229764   7.199   7.244   5.196  0.1615  0.1623 -0.3299
 5765ntf    cn129765   7.201   7.208   5.374  0.0470 -0.7093 -0.5043
 5765ntf    fn429766   7.116   7.128   4.882  0.4945 -0.2038 -0.0843
 5765ntf    fn429767   7.301   7.063   4.927 -0.0771  0.0919 -0.1302
 5765ntf    fn429768   7.174   6.916   4.854 -0.6372 -0.7609  0.0909
 5765ntf    on529769   7.007   6.902   5.094  0.4996 -0.3462 -0.5697
 5765ntf    on529770   7.247   6.937   5.164  0.5019  0.7380 -0.2090
 5765ntf    on529771   7.135   7.373   5.181  0.3342  0.3255  0.2989
 5765ntf    on529772   7.333   7.241   5.144  0.2307 -0.1138 -0.1393
 5765ntf    fn429773   7.277   7.293   5.440 -0.0085 -0.7346 -0.4065
 5765ntf    fn429774   7.078   7.220   5.422  0.0484  0.1864 -0.7211
 5765ntf    fn429775   7.247   7.085   5.393  0.3676 -0.4434  0.4925
 5766ntf    cn129776   7.408   2.932   0.476  0.2128  0.0056 -0.7931
 5766ntf    sn229777   7.337   2.764   0.475  0.3129 -0.0413 -0.3858
 5766ntf    nn329778   7.195   2.788   0.536  0.3217  0.2060 -0.4585
 5766ntf    sn229779   7.050   2.746   0.492  0.2478 -0.4156  0.3435
 5766ntf    cn129780   7.004   2.912   0.433  0.4760 -0.4446  0.0861
 5766ntf    fn429781   7.332   3.022   0.417 -0.7128  0.0283  0.3952
 5766ntf    fn429782   7.427   2.978   0.599 -0.3194  0.4486 -0.8744
 5766ntf    fn429783   7.523   2.940   0.412  0.5566  0.4824 -0.1347
 5766ntf    on529784   7.343   2.718   0.338  0.7883  0.1082 -0.4162
 5766ntf    on529785   7.425   2.704   0.572 -0.4031  0.1414  0.3826
 5766ntf    on529786   6.949   2.737   0.595 -0.3285  0.0944 -0.1614
 5766ntf    on529787   7.044   2.665   0.373 -0.0737  0.0336  0.0495
 5766ntf    fn429788   6.887   2.905   0.371  0.5970 -0.0804 -0.1883
 5766ntf    fn429789   6.990   2.995   0.534 -0.6646 -0.3033 -0.1716
 5766ntf    fn429790   7.098   2.957   0.351  0.1235 -0.5200 -0.3637
 5767ntf    cn129791   2.968   1.728   0.854  0.1366 -0.0389  0.4671
 5767ntf    sn229792   3.134   1.740   0.781 -0.1022 -0.1690 -0.1004
 5767ntf    nn329793   3.217   1.642   0.871  0.1962  0.2697  0.1021
 5767ntf    sn229794   3.297   1.673   1.003  0.0689  0.2209  0.1908
 5767ntf    cn129795   3.255   1.520   1.091 -0.0344  0.3051  0.2886
 5767ntf    fn429796   2.876   1.797   0.789  0.4850  0.1068  0.1212
 5767ntf    fn429797   2.941   1.598   0.854 -0.3840  0.0615 -0.5845
 5767ntf    fn429798   2.967   1.760   0.982 -0.0602  0.0124  0.4530
 5767ntf    on529799   3.105   1.688   0.649 -0.7038 -0.7488  0.2536
 5767ntf    on529800   3.180   1.876   0.790 -0.9015  0.1490 -0.6293
 5767ntf    on529801   3.229   1.770   1.086 -0.3538  0.0828  0.0095
 5767ntf    on529802   3.441   1.664   0.995 -0.0016 -0.8098 -0.0258
 5767ntf    fn429803   3.320   1.510   1.206 -0.1404  0.0595  0.3291
 5767ntf    fn429804   3.128   1.521   1.129 -0.3308 -0.8926 -0.5944
 5767ntf    fn429805   3.277   1.413   1.016  0.5122  0.2962  0.4568
 5768ntf    cn129806   4.211   0.562   5.797 -0.2613  0.0335  0.0202
 5768ntf    sn229807   4.356   0.455   5.818 -0.2566  0.0156 -0.0965
 5768ntf    nn329808   4.305   0.308   5.793  0.3055 -0.2927  0.5197
 5768ntf    sn229809   4.244   0.209   5.898 -0.2812 -0.1963  0.2743
 5768ntf    cn129810   4.402   0.145   5.961  0.0625 -0.0131 -0.3957
 5768ntf    fn429811   4.237   0.683   5.843 -0.0218 -0.0471  0.0965
 5768ntf    fn429812   4.164   0.576   5.674  0.0708 -0.0229 -0.1152
 5768ntf    fn429813   4.113   0.514   5.871  0.1674 -0.3978  0.3115
 5768ntf    on529814   4.460   0.498   5.729  0.3980 -0.8141  0.2493
 5768ntf    on529815   4.397   0.471   5.955 -0.7398  0.0786  0.0426
 5768ntf    on529816   4.187   0.096   5.829  0.2934 -0.4329  0.1866
 5768ntf    on529817   4.173   0.266   6.010  0.1803  0.5510  0.1897
 5768ntf    fn429818   4.494   0.238   5.982  0.1775 -0.2202  0.0407
 5768ntf    fn429819   4.387   0.077   6.073  0.1661  0.5121 -0.0554
 5768ntf    fn429820   4.454   0.054   5.881  0.7890  0.1320 -0.0979
 5769ntf    cn129821   2.036   4.036   2.912 -0.2712 -0.5211 -0.0382
 5769ntf    sn229822   2.150   4.067   3.050 -0.1599 -0.2235 -0.1953
 5769ntf    nn329823   2.284   3.994   3.010  0.0338  0.1838 -0.2905
 5769ntf    sn229824   2.401   4.051   2.922  0.1346 -0.0839 -0.3293
 5769ntf    cn129825   2.473   3.899   2.852  0.4575  0.0002 -0.1844
 5769ntf    fn429826   1.912   4.063   2.951 -0.3376 -0.3130 -0.3851
 5769ntf    fn429827   2.064   4.115   2.810  0.2767  0.0783  0.5695
 5769ntf    fn429828   2.046   3.912   2.868 -0.0461 -0.4301 -0.2451
 5769ntf    on529829   2.162   4.210   3.056 -0.0027 -0.2783  0.8405
 5769ntf    on529830   2.101   4.005   3.170  0.3084 -0.3230 -0.0524
 5769ntf    on529831   2.520   4.107   2.981  0.0167  0.0159 -0.1849
 5769ntf    on529832   2.357   4.118   2.803  0.2043  0.2175 -0.1877
 5769ntf    fn429833   2.575   3.916   2.770  0.7683 -0.0545  0.1909
 5769ntf    fn429834   2.517   3.828   2.954 -1.0385 -0.0820  0.4322
 5769ntf    fn429835   2.395   3.822   2.777  0.2592  0.4648 -0.4677
 5770ntf    cn129836   3.067   4.329   0.087 -0.2797 -0.0300  0.3519
 5770ntf    sn229837   2.893   4.286   0.117 -0.2644 -0.0890  0.3568
 5770ntf    nn329838   2.858   4.427   0.177  0.4118  0.3171 -0.1777
 5770ntf    sn229839   2.754   4.461   0.290  0.2385 -0.2229 -0.1711
 5770ntf    cn129840   2.844   4.418   0.442  0.3867 -0.0470 -0.2087
 5770ntf    fn429841   3.139   4.339   0.198 -0.0343  0.2349  0.1702
 5770ntf    fn429842   3.121   4.235   0.012  0.6058  0.7333  0.0097
 5770ntf    fn429843   3.085   4.441   0.020  0.2405 -0.4345 -0.1947
 5770ntf    on529844   2.835   4.264  -0.013  0.6910 -0.1639 -0.0687
 5770ntf    on529845   2.898   4.176   0.210 -0.4716  0.0161  0.4911
 5770ntf    on529846   2.629   4.389   0.287  0.0478  0.1136 -0.2595
 5770ntf    on529847   2.746   4.603   0.314  0.3038 -0.2100 -0.2277
 5770ntf    fn429848   2.771   4.449   0.548  0.3133  0.6122 -0.4476
 5770ntf    fn429849   2.863   4.287   0.454 -0.0701 -0.1338 -0.4176
 5770ntf    fn429850   2.962   4.477   0.444  0.2677  0.1812  0.0086
 5771ntf    cn129851   2.349   0.685   7.514  0.6143  0.0082 -0.1468
 5771ntf    sn229852   2.265   0.543   7.439  0.1437  0.0898  0.2173
 5771ntf    nn329853   2.335   0.428   7.520 -0.5185 -0.5140 -0.0568
 5771ntf    sn229854   2.298   0.372   7.661 -0.1037  0.0138  0.2678
 5771ntf    cn129855   2.267   0.199   7.615  0.0237 -0.0134  0.2851
 5771ntf    fn429856   2.281   0.790   7.472  0.4036 -0.2290 -0.3956
 5771ntf    fn429857   2.349   0.680   7.647  0.2290 -0.1464 -0.1524
 5771ntf    fn429858   2.479   0.694   7.486  0.5535 -0.5000 -0.5949
 5771ntf    on529859   2.126   0.573   7.462  0.1400 -0.1168  0.4592
 5771ntf    on529860   2.311   0.548   7.302 -0.5274 -0.2776 -0.0236
 5771ntf    on529861   2.171   0.400   7.724  0.1593  0.1619  0.7361
 5771ntf    on529862   2.418   0.365   7.741  0.5467  0.7978 -0.6182
 5771ntf    fn429863   2.378   0.136   7.579  0.0023  0.1565 -0.0837
 5771ntf    fn429864   2.208   0.137   7.716 -0.1352 -0.3633 -0.0154
 5771ntf    fn429865   2.186   0.177   7.512  0.1938  0.0327  0.1416
 5772ntf    cn129866   4.594   3.364   6.358 -0.1500 -0.0467 -0.1911
 5772ntf    sn229867   4.552   3.308   6.190 -0.0964 -0.3398 -0.1062
 5772ntf    nn329868   4.400   3.282   6.223 -0.1603  0.3992  0.1964
 5772ntf    sn229869   4.335   3.141   6.247  0.3984  0.0683 -0.2046
 5772ntf    cn129870   4.204   3.182   6.366  0.3944 -0.1636 -0.1305
 5772ntf    fn429871   4.521   3.469   6.394  0.2436  0.3064 -0.4074
 5772ntf    fn429872   4.559   3.269   6.443  0.5048  0.1005  0.2484
 5772ntf    fn429873   4.721   3.396   6.378 -0.0489 -0.8370  0.4680
 5772ntf    on529874   4.583   3.416   6.101 -0.3360 -0.1181  0.0783
 5772ntf    on529875   4.632   3.191   6.164 -0.1900 -0.4200 -0.0372
 5772ntf    on529876   4.417   3.048   6.320  0.1990  0.5206  0.6074
 5772ntf    on529877   4.248   3.092   6.144  0.2114  0.7870 -0.3956
 5772ntf    fn429878   4.250   3.209   6.487 -0.0129  0.0897 -0.0296
 5772ntf    fn429879   4.132   3.283   6.321  0.1045 -0.4669 -0.3584
 5772ntf    fn429880   4.120   3.083   6.394 -0.2609  0.2907 -0.4404
 5773ntf    cn129881   4.790   6.764   1.741  0.0864 -0.0389 -0.2289
 5773ntf    sn229882   4.824   6.591   1.695 -0.0662 -0.0454 -0.3212
 5773ntf    nn329883   4.778   6.585   1.545  0.3023  0.4196 -0.4578
 5773ntf    sn229884   4.849   6.613   1.408  0.4943 -0.1157 -0.4697
 5773ntf    cn129885   4.796   6.783   1.374 -0.2991 -0.1932  0.3342
 5773ntf    fn429886   4.869   6.786   1.845 -0.3996 -0.3957  0.2223
 5773ntf    fn429887   4.812   6.853   1.645 -0.3880 -0.1347 -0.4301
 5773ntf    fn429888   4.666   6.780   1.785  0.2699 -0.5325  0.4817
 5773ntf    on529889   4.964   6.582   1.730 -0.1171  0.4337  0.0258
 5773ntf    on529890   4.733   6.512   1.774 -0.3946  0.0636 -0.5873
 5773ntf    on529891   4.789   6.537   1.300 -0.3123 -0.6755  0.3521
 5773ntf    on529892   4.992   6.632   1.403  0.3577  0.8455 -0.9241
 5773ntf    fn429893   4.862   6.884   1.429 -0.8657  0.4740 -0.1819
 5773ntf    fn429894   4.802   6.796   1.242 -0.0312 -0.4875  0.3170
 5773ntf    fn429895   4.672   6.797   1.417 -0.3189  0.2157  0.1514
 5774ntf    cn129896   6.086   0.283   7.597 -0.1065 -0.0304 -0.1988
 5774ntf    sn229897   6.190   0.275   7.448  0.4249 -0.1138  0.1755
 5774ntf    nn329898   6.076   0.291   7.341  0.5138  0.2180  0.1319
 5774ntf    sn229899   6.092   0.347   7.195  0.2944 -0.3072 -0.0937
 5774ntf    cn129900   6.079   0.188   7.107 -0.1076 -0.6097  0.5054
 5774ntf    fn429901   6.156   0.318   7.703 -0.0043  0.3194 -0.3831
 5774ntf    fn429902   5.994   0.378   7.586 -0.0803  0.0079 -0.0831
 5774ntf    fn429903   6.015   0.172   7.617  0.1207 -0.1272  0.0665
 5774ntf    on529904   6.276   0.389   7.466  0.0436  0.0830  0.7722
 5774ntf    on529905   6.255   0.146   7.440  0.6002  0.0128 -0.4671
 5774ntf    on529906   6.222   0.392   7.150  0.1323  0.4565  0.1882
 5774ntf    on529907   5.975   0.421   7.156  0.0629 -0.5520  0.1376
 5774ntf    fn429908   6.083   0.197   6.975 -0.4152  0.2994  0.5493
 5774ntf    fn429909   6.179   0.109   7.140  0.2174 -0.1623  0.6071
 5774ntf    fn429910   5.965   0.128   7.136 -0.1744 -0.3503  0.7835
 5775ntf    cn129911   2.481   0.978   7.328 -0.6615  0.2405 -0.0049
 5775ntf    sn229912   2.478   1.154   7.282  0.0479  0.1699 -0.3404
 5775ntf    nn329913   2.473   1.150   7.125 -0.1383 -0.1911 -0.3277
 5775ntf    sn229914   2.365   1.217   7.032  0.0283  0.3035 -0.1701
 5775ntf    cn129915   2.411   1.390   7.003  0.5172  0.2013 -0.0212
 5775ntf    fn429916   2.604   0.945   7.290 -0.5067 -0.1202  0.7986
 5775ntf    fn429917   2.459   0.957   7.457 -0.3264  0.2272  0.0528
 5775ntf    fn429918   2.394   0.902   7.264  0.1826 -0.7326 -0.0224
 5775ntf    on529919   2.369   1.211   7.358  0.1748 -0.4238  0.2939
 5775ntf    on529920   2.607   1.206   7.320 -0.0589  0.7521 -0.7495
 5775ntf    on529921   2.232   1.241   7.080 -0.1640 -0.2008 -0.4424
 5775ntf    on529922   2.369   1.174   6.894  0.4514 -0.3446  0.0389
 5775ntf    fn429923   2.404   1.466   7.111  0.0614 -0.3190  0.3178
 5775ntf    fn429924   2.534   1.394   6.954  0.3321 -0.3015 -0.5422
 5775ntf    fn429925   2.343   1.463   6.916  0.2294  0.0850  0.1049
 5776ntf    cn129926   7.497   6.106   3.676 -0.3227  0.9060 -0.1356
 5776ntf    sn229927   7.511   6.070   3.499 -0.0608 -0.2678  0.1141
 5776ntf    nn329928   7.667   6.085   3.482 -0.0741  0.1207  0.3189
 5776ntf    sn229929   7.743   6.205   3.415 -0.1539  0.0441  0.0918
 5776ntf    cn129930   7.727   6.157   3.240 -0.0754  0.2036  0.0413
 5776ntf    fn429931   7.369   6.104   3.710 -0.1613 -0.1376  0.4672
 5776ntf    fn429932   7.556   6.012   3.748 -0.7047  0.6987 -0.0885
 5776ntf    fn429933   7.564   6.217   3.704  0.8957  0.3286 -0.7048
 5776ntf    on529934   7.472   5.933   3.482  0.5496 -0.4653  0.2804
 5776ntf    on529935   7.428   6.167   3.431  0.1792 -0.1866 -0.0655
 5776ntf    on529936   7.884   6.198   3.441 -0.1314  0.3004  0.0398
 5776ntf    on529937   7.681   6.334   3.431 -0.0920  0.0237  0.5163
 5776ntf    fn429938   7.602   6.131   3.205 -0.0782 -0.0652  0.2472
 5776ntf    fn429939   7.772   6.252   3.159 -0.2770  0.1747 -0.1052
 5776ntf    fn429940   7.793   6.046   3.214 -0.5994 -0.0995 -0.0006
 5777ntf    cn129941   5.641   2.410   2.933  0.3616 -0.1622 -0.5886
 5777ntf    sn229942   5.569   2.246   2.962 -0.1951  0.1428 -0.2222
 5777ntf    nn329943   5.521   2.197   2.821 -0.0732 -0.1201 -0.1742
 5777ntf    sn229944   5.409   2.252   2.725 -0.0209 -0.1082 -0.2281
 5777ntf    cn129945   5.515   2.339   2.605  0.4552 -0.3527  0.0114
 5777ntf    fn429946   5.685   2.460   3.047  0.3645  1.4128 -1.2435
 5777ntf    fn429947   5.737   2.418   2.842  0.5541 -0.4192 -0.4087
 5777ntf    fn429948   5.554   2.504   2.898  0.1494  0.0340  0.4432
 5777ntf    on529949   5.677   2.166   3.016 -0.7303 -0.3744  0.0973
 5777ntf    on529950   5.459   2.265   3.053  0.7068  1.4695  0.6445
 5777ntf    on529951   5.326   2.357   2.779  0.1335 -0.2247  0.2404
 5777ntf    on529952   5.333   2.162   2.643  0.2933 -0.2959 -0.3149
 5777ntf    fn429953   5.457   2.339   2.486 -0.2193  0.0490  0.3338
 5777ntf    fn429954   5.543   2.464   2.635  0.0566 -0.4698  0.9211
 5777ntf    fn429955   5.629   2.274   2.588  0.5644 -0.2276  0.2666
 5778ntf    cn129956   7.167   0.640   7.193 -0.2240 -0.0845  0.4424
 5778ntf    sn229957   7.291   0.512   7.156 -0.3724 -0.0341 -0.2286
 5778ntf    nn329958   7.268   0.412   7.275  0.6678 -0.0533 -0.0322
 5778ntf    sn229959   7.224   0.262   7.271  0.1664  0.0916 -0.0694
 5778ntf    cn129960   7.045   0.292   7.258  0.1370  0.1803  0.5086
 5778ntf    fn429961   7.199   0.757   7.142  0.0893 -0.3272  0.0809
 5778ntf    fn429962   7.052   0.612   7.133 -0.0563  0.5207 -0.1700
 5778ntf    fn429963   7.133   0.662   7.319 -0.3651  0.3822  0.3245
 5778ntf    on529964   7.244   0.466   7.027  0.0849 -0.0881 -0.3793
 5778ntf    on529965   7.414   0.588   7.164 -0.1575 -0.3366 -0.6108
 5778ntf    on529966   7.254   0.200   7.398  0.1251 -0.2314 -0.2162
 5778ntf    on529967   7.262   0.182   7.157  1.0355  0.3765  0.0111
 5778ntf    fn429968   6.998   0.364   7.358  0.4089  0.2765  0.5689
 5778ntf    fn429969   7.017   0.352   7.143  0.5249 -0.2967  0.1594
 5778ntf    fn429970   6.971   0.183   7.271  0.0171  0.1200 -0.5588
 5779ntf    cn129971   7.003   6.577   6.854  0.3945  0.3520 -0.2078
 5779ntf    sn229972   6.899   6.597   6.706  0.1836 -0.4302 -0.1680
 5779ntf    nn329973   6.820   6.461   6.704 -0.1490 -0.2413  0.0843
 5779ntf    sn229974   6.751   6.391   6.581 -0.1495  0.1592 -0.1462
 5779ntf    cn129975   6.628   6.280   6.655 -0.4318  0.0783 -0.7313
 5779ntf    fn429976   6.921   6.575   6.958  0.0472  0.0290 -0.4821
 5779ntf    fn429977   7.071   6.464   6.859 -0.6400 -0.2679  0.1417
 5779ntf    fn429978   7.093   6.673   6.869  0.3863  0.4067 -0.4933
 5779ntf    on529979   6.815   6.709   6.741  0.2496 -0.4677  0.1119
 5779ntf    on529980   6.993   6.617   6.598 -0.6991  0.9352 -0.7191
 5779ntf    on529981   6.838   6.302   6.508 -0.1393 -0.4937  0.6442
 5779ntf    on529982   6.663   6.468   6.497 -0.7017  0.4745  0.7023
 5779ntf    fn429983   6.564   6.313   6.766  0.2542 -0.3726 -0.1913
 5779ntf    fn429984   6.532   6.241   6.572 -0.7138 -0.0225 -0.3622
 5779ntf    fn429985   6.680   6.161   6.681 -0.3538  0.2226 -0.2126
 5780ntf    cn129986   3.959   1.709   3.833 -0.1223 -0.2067  0.2898
 5780ntf    sn229987   3.996   1.866   3.748 -0.1947 -0.3335  0.0220
 5780ntf    nn329988   3.856   1.902   3.686 -0.0045  0.5059  0.0802
 5780ntf    sn229989   3.805   1.886   3.539  0.0109 -0.1137  0.1429
 5780ntf    cn129990   3.690   1.746   3.558  0.2201 -0.3064 -0.0025
 5780ntf    fn429991   4.050   1.675   3.922  0.4279  0.0096 -0.1845
 5780ntf    fn429992   3.840   1.694   3.889 -0.1943  0.1772  0.2400
 5780ntf    fn429993   3.969   1.613   3.742  0.2348  0.6040 -0.5423
 5780ntf    on529994   4.028   1.955   3.857  0.4470  0.2015 -0.5948
 5780ntf    on529995   4.099   1.823   3.657  0.4443  0.0690  0.5515
 5780ntf    on529996   3.909   1.845   3.448  0.3934  0.1998  0.4388
 5780ntf    on529997   3.709   1.985   3.498  0.0581 -0.4702 -0.8727
 5780ntf    fn429998   3.630   1.722   3.443 -0.7278  0.9029  0.2227
 5780ntf    fn429999   3.754   1.635   3.593  0.5323 -0.1495 -0.0713
 5780ntf    fn430000   3.596   1.766   3.649  0.2092  0.5758 -0.2024
 5781ntf    cn130001   3.185   3.410   6.626  0.2882 -0.0066 -0.0308
 5781ntf    sn230002   3.123   3.239   6.631  0.2349  0.0220  0.3363
 5781ntf    nn330003   3.033   3.240   6.502  0.3121  0.2666  0.2840
 5781ntf    sn230004   2.916   3.145   6.460  0.1517  0.4041  0.4188
 5781ntf    cn130005   2.793   3.235   6.559 -0.3378 -0.0306  0.2114
 5781ntf    fn430006   3.262   3.417   6.518 -0.0313 -0.3871 -0.2852
 5781ntf    fn430007   3.089   3.501   6.617  0.1149 -0.2306 -0.4347
 5781ntf    fn430008   3.254   3.445   6.734  0.5757  0.5467 -0.3899
 5781ntf    on530009   3.243   3.161   6.614 -0.0109 -0.1268 -0.7964
 5781ntf    on530010   3.059   3.223   6.759 -0.0152 -0.2229  0.1825
 5781ntf    on530011   2.918   3.012   6.516 -0.0240 -0.0918 -0.7372
 5781ntf    on530012   2.880   3.165   6.322  0.6189 -0.2099  0.2039
 5781ntf    fn430013   2.789   3.362   6.523 -0.6115 -0.0224  0.2683
 5781ntf    fn430014   2.669   3.191   6.544 -0.6154  0.7777  0.0747
 5781ntf    fn430015   2.816   3.226   6.689  0.2163  0.6826  0.1673
 5782ntf    cn130016   6.049   1.365   2.101  0.1468  0.3794 -0.0664
 5782ntf    sn230017   6.227   1.387   2.070  0.1349 -0.1559 -0.5330
 5782ntf    nn330018   6.220   1.428   1.919  0.1459  0.1105 -0.4619
 5782ntf    sn230019   6.187   1.568   1.856 -0.1339  0.1642 -0.1986
 5782ntf    cn130020   6.029   1.524   1.778 -0.0557 -0.1170 -0.1995
 5782ntf    fn430021   6.007   1.254   2.042  0.3106  0.0344  0.4543
 5782ntf    fn430022   6.027   1.338   2.228 -0.3723  0.6505 -0.0995
 5782ntf    fn430023   5.979   1.472   2.067 -0.1869  0.1149 -0.2257
 5782ntf    on530024   6.267   1.488   2.164 -0.1571 -0.3436 -0.2044
 5782ntf    on530025   6.274   1.252   2.092  0.7909  0.1296 -0.1354
 5782ntf    on530026   6.268   1.599   1.741  0.1809 -0.4841 -0.1590
 5782ntf    on530027   6.151   1.667   1.953 -0.3618  0.0656 -0.1811
 5782ntf    fn430028   6.058   1.426   1.694  0.2566 -0.0317 -0.1941
 5782ntf    fn430029   5.942   1.472   1.863  0.0307  0.0391 -0.0165
 5782ntf    fn430030   5.971   1.611   1.697  0.1726 -0.0510 -0.2951
 5783ntf    cn130031   4.980   5.293   1.871  0.0272  0.2353 -0.1418
 5783ntf    sn230032   5.044   5.242   2.033  0.2028  0.3091 -0.1882
 5783ntf    nn330033   5.077   5.388   2.081  0.2061  0.2500 -0.0089
 5783ntf    sn230034   5.012   5.482   2.189 -0.3233 -0.2300  0.0960
 5783ntf    cn130035   5.136   5.459   2.320 -0.3872  0.2744  0.2461
 5783ntf    fn430036   4.963   5.200   1.779  0.8236  0.1083 -0.1688
 5783ntf    fn430037   4.865   5.355   1.892  0.1651  0.3996  0.1430
 5783ntf    fn430038   5.052   5.380   1.802 -0.4939 -0.0731 -1.0802
 5783ntf    on530039   4.935   5.168   2.092  0.4262  0.2922  0.2088
 5783ntf    on530040   5.158   5.174   1.976  0.0559 -0.1865  0.1048
 5783ntf    on530041   4.889   5.444   2.252 -0.7444  0.1910 -0.4580
 5783ntf    on530042   5.023   5.623   2.158 -0.0694 -0.2154  0.2453
 5783ntf    fn430043   5.250   5.521   2.293 -0.2879 -0.2696 -0.6332
 5783ntf    fn430044   5.091   5.493   2.439  0.1638 -0.2346  0.6027
 5783ntf    fn430045   5.169   5.331   2.320  0.3299  0.4501 -0.2019
 5784ntf    cn130046   6.941   6.106   2.640  0.1122  0.2942  0.0087
 5784ntf    sn230047   7.033   6.149   2.490  0.2623 -0.0114  0.0118
 5784ntf    nn330048   7.142   6.037   2.484  0.1447 -0.1127 -0.2537
 5784ntf    sn230049   7.209   5.957   2.366 -0.1385 -0.1338 -0.4008
 5784ntf    cn130050   7.151   5.789   2.402  0.1137 -0.1608 -0.1197
 5784ntf    fn430051   6.872   5.993   2.630  0.0677  0.3328 -0.1188
 5784ntf    fn430052   7.018   6.090   2.747 -0.3271  0.9169  0.4267
 5784ntf    fn430053   6.847   6.194   2.673 -0.2657  0.1158 -0.5813
 5784ntf    on530054   6.936   6.134   2.383 -0.0802 -0.0475  0.3251
 5784ntf    on530055   7.076   6.283   2.520 -0.0961  0.1934 -0.3832
 5784ntf    on530056   7.352   5.950   2.379 -0.1307  0.4832 -0.1289
 5784ntf    on530057   7.162   5.970   2.230  0.1279 -0.7962 -0.5583
 5784ntf    fn430058   7.227   5.694   2.350  0.0743  0.1588 -0.7644
 5784ntf    fn430059   7.147   5.773   2.534 -0.1873 -0.3690 -0.1540
 5784ntf    fn430060   7.025   5.778   2.365 -0.0965  0.4586  0.4000
 5785ntf    cn130061   5.230   4.670   4.016 -0.1301  0.1149  0.6105
 5785ntf    sn230062   5.184   4.497   4.048 -0.3978  0.0871  0.0900
 5785ntf    nn330063   5.154   4.451   3.901  0.0410  0.1158 -0.0118
 5785ntf    sn230064   5.034   4.501   3.813 -0.1446 -0.0854  0.1263
 5785ntf    cn130065   4.914   4.366   3.830  0.0031 -0.3070 -0.5418
 5785ntf    fn430066   5.122   4.746   4.014  0.2365  0.6340 -0.5797
 5785ntf    fn430067   5.308   4.733   4.102  0.4236 -0.0173  0.2191
 5785ntf    fn430068   5.287   4.692   3.898 -0.6869  0.1873  0.3518
 5785ntf    on530069   5.313   4.439   4.080 -0.5071 -0.3367 -0.2191
 5785ntf    on530070   5.079   4.487   4.146 -0.8191  0.1198 -0.3564
 5785ntf    on530071   5.063   4.499   3.671 -0.5131 -0.2357  0.0523
 5785ntf    on530072   4.947   4.608   3.856 -0.6025 -0.2477 -0.3754
 5785ntf    fn430073   4.954   4.246   3.789 -0.0783 -0.7321  0.5732
 5785ntf    fn430074   4.877   4.350   3.956 -0.4044 -0.4773 -0.6817
 5785ntf    fn430075   4.801   4.388   3.765 -0.2812  0.2874  0.1417
 5786ntf    cn130076   2.536   6.563   0.758  0.3776 -0.2129  0.0309
 5786ntf    sn230077   2.590   6.594   0.929 -0.1301  0.0775  0.1410
 5786ntf    nn330078   2.456   6.570   1.008 -0.3449 -0.2741 -0.3200
 5786ntf    sn230079   2.352   6.670   1.069 -0.0946 -0.0276 -0.2958
 5786ntf    cn130080   2.276   6.549   1.181 -0.5637  0.1667 -0.4038
 5786ntf    fn430081   2.629   6.597   0.671  0.0679  0.2659 -0.1130
 5786ntf    fn430082   2.515   6.434   0.732  0.1767 -0.1866  0.0617
 5786ntf    fn430083   2.427   6.628   0.720 -0.0398 -0.9021  0.0281
 5786ntf    on530084   2.688   6.492   0.957 -0.1317 -0.0064 -0.1493
 5786ntf    on530085   2.638   6.729   0.933 -0.5012  0.2140  0.0595
 5786ntf    on530086   2.250   6.699   0.971 -0.4490 -0.0940  0.0502
 5786ntf    on530087   2.406   6.774   1.153 -0.4390 -0.4558  0.4614
 5786ntf    fn430088   2.168   6.595   1.242 -0.2810 -0.2886  0.4437
 5786ntf    fn430089   2.242   6.436   1.120  0.0174 -0.2175 -0.0282
 5786ntf    fn430090   2.361   6.508   1.273  0.0821 -0.4508 -1.2589
 5787ntf    cn130091   4.121   2.125   5.757  0.1126  0.3194  0.4490
 5787ntf    sn230092   4.172   2.298   5.735  0.0007  0.2663 -0.2576
 5787ntf    nn330093   4.168   2.342   5.886  0.0274  0.5192 -0.3302
 5787ntf    sn230094   4.070   2.433   5.968 -0.1904  0.1983 -0.2319
 5787ntf    cn130095   4.192   2.496   6.087 -0.1063 -0.4108  0.0056
 5787ntf    fn430096   4.205   2.060   5.837  0.0236 -0.2309  0.0998
 5787ntf    fn430097   3.999   2.109   5.804 -0.0585 -0.1875 -0.1523
 5787ntf    fn430098   4.124   2.057   5.643 -0.1146  0.2544  0.4815
 5787ntf    on530099   4.303   2.285   5.678 -0.0661 -0.3624 -0.2776
 5787ntf    on530100   4.062   2.347   5.655 -0.8412 -0.4374  0.4369
 5787ntf    on530101   3.973   2.357   6.043 -0.1573  0.2203 -0.1666
 5787ntf    on530102   4.015   2.547   5.899  0.1737  0.2158 -0.5003
 5787ntf    fn430103   4.285   2.569   6.028 -0.1696 -0.1794  0.1889
 5787ntf    fn430104   4.132   2.562   6.185 -0.0162 -0.7197  0.2704
 5787ntf    fn430105   4.265   2.403   6.147 -0.2312 -0.2979  0.3392
 5788ntf    cn130106   3.007   6.074   2.324 -0.0786  0.0145 -0.1586
 5788ntf    sn230107   2.829   6.075   2.361 -0.0126 -0.0515  0.1670
 5788ntf    nn330108   2.784   5.929   2.322  0.6577 -0.1404 -0.2869
 5788ntf    sn230109   2.741   5.814   2.420  0.4634  0.2226  0.0586
 5788ntf    cn130110   2.566   5.859   2.443  0.3455 -0.2655  0.1147
 5788ntf    fn430111   3.036   6.042   2.199  0.2716  0.3115 -0.1530
 5788ntf    fn430112   3.061   6.192   2.347 -0.5024  0.2011 -0.1122
 5788ntf    fn430113   3.073   5.984   2.395 -0.0963  0.5049  0.4941
 5788ntf    on530114   2.804   6.107   2.499  0.1358  0.3834  0.0936
 5788ntf    on530115   2.783   6.174   2.266 -0.1995 -0.1686  0.1338
 5788ntf    on530116   2.809   5.809   2.547  0.1500 -0.4876  0.2025
 5788ntf    on530117   2.745   5.691   2.345  0.2106  0.2366  0.0204
 5788ntf    fn430118   2.539   5.887   2.569  0.5182  0.1623  0.0583
 5788ntf    fn430119   2.521   5.968   2.383 -0.9077 -0.6178  0.3845
 5788ntf    fn430120   2.483   5.761   2.410  0.1223 -0.2085  0.5111
 5789ntf    cn130121   5.282   6.010   6.493  0.4760  0.3714 -0.0478
 5789ntf    sn230122   5.279   6.118   6.348 -0.0905  0.2635 -0.1195
 5789ntf    nn330123   5.323   6.017   6.236  0.0012 -0.0643  0.2124
 5789ntf    sn230124   5.257   5.999   6.095  0.3373 -0.1749  0.0666
 5789ntf    cn130125   5.377   6.090   5.993  0.0523 -0.0798 -0.1863
 5789ntf    fn430126   5.249   6.074   6.604  0.4364 -0.0894  0.2116
 5789ntf    fn430127   5.186   5.919   6.485  0.5824  0.1639  0.8608
 5789ntf    fn430128   5.398   5.951   6.521  0.0586 -0.3577  0.1772
 5789ntf    on530129   5.143   6.162   6.335 -0.1516 -0.0506 -0.5717
 5789ntf    on530130   5.382   6.215   6.376  0.3098 -0.1664 -0.0856
 5789ntf    on530131   5.137   6.072   6.061  0.4044 -0.2257 -0.2844
 5789ntf    on530132   5.273   5.866   6.043  0.1806  0.1207 -0.7505
 5789ntf    fn430133   5.377   6.217   6.032  0.3215 -0.3208  0.6237
 5789ntf    fn430134   5.497   6.035   6.000  0.1038  0.0991  0.4643
 5789ntf    fn430135   5.332   6.093   5.869  0.0554  0.9310 -0.1733
 5790ntf    cn130136   3.065   1.200   4.979 -0.1637 -0.1094  0.2743
 5790ntf    sn230137   3.041   1.123   4.816 -0.3946 -0.0656  0.2873
 5790ntf    nn330138   2.901   1.179   4.774  0.2013  0.8588 -0.4953
 5790ntf    sn230139   2.763   1.113   4.739  0.2241  0.3946  0.2666
 5790ntf    cn130140   2.779   1.127   4.558 -0.0171  0.5852  0.2582
 5790ntf    fn430141   3.158   1.149   5.058  0.1045 -0.4106 -0.2253
 5790ntf    fn430142   3.105   1.324   4.957 -0.6003 -0.0795 -0.3783
 5790ntf    fn430143   2.952   1.209   5.046 -0.2205  0.2971  0.1252
 5790ntf    on530144   3.144   1.187   4.739 -0.6554 -0.1131 -0.1056
 5790ntf    on530145   3.047   0.981   4.843 -0.0296 -0.0902  0.0848
 5790ntf    on530146   2.649   1.197   4.770 -0.1154  0.1292 -0.2498
 5790ntf    on530147   2.757   0.970   4.755  0.2627  0.2506 -0.9027
 5790ntf    fn430148   2.868   1.043   4.508 -0.1620  0.2371  0.5734
 5790ntf    fn430149   2.660   1.106   4.504 -0.0067 -0.0782  0.4798
 5790ntf    fn430150   2.820   1.243   4.512  1.0602  0.2218  0.2749
 5791ntf    cn130151   5.256   1.176   1.846  0.1525 -0.2521 -0.0114
 5791ntf    sn230152   5.285   1.260   2.005 -0.0453 -0.4180  0.1125
 5791ntf    nn330153   5.341   1.397   1.954  0.0855 -0.4396  0.1981
 5791ntf    sn230154   5.483   1.464   1.957 -0.0652 -0.0945 -0.3467
 5791ntf    cn130155   5.454   1.594   2.081 -0.1053 -0.2591 -0.1833
 5791ntf    fn430156   5.370   1.145   1.786  0.1714  0.0257 -0.1195
 5791ntf    fn430157   5.193   1.060   1.863 -0.0419 -0.1621 -0.1216
 5791ntf    fn430158   5.179   1.251   1.770 -0.3262 -0.2916  0.4277
 5791ntf    on530159   5.155   1.282   2.065 -0.1419  0.3939 -0.3775
 5791ntf    on530160   5.377   1.169   2.068 -0.0806 -0.2768  0.3681
 5791ntf    on530161   5.506   1.536   1.834 -0.4619  0.0950 -0.3139
 5791ntf    on530162   5.588   1.380   2.008 -0.1966  0.1527  0.3310
 5791ntf    fn430163   5.555   1.680   2.080  0.0579 -0.4484  0.0346
 5791ntf    fn430164   5.343   1.660   2.053 -0.1092 -0.1811  0.0142
 5791ntf    fn430165   5.459   1.548   2.204  0.1121  0.2719  0.0114
 5792ntf    cn130166   0.873   6.744   3.390  0.0140  0.0656 -0.0156
 5792ntf    sn230167   0.694   6.715   3.404 -0.0254  0.3618  0.1120
 5792ntf    nn330168   0.666   6.618   3.284  0.0575  0.3284  0.1196
 5792ntf    sn230169   0.604   6.475   3.270  0.2123  0.2420  0.3246
 5792ntf    cn130170   0.429   6.508   3.236  0.3203 -0.0014 -0.4855
 5792ntf    fn430171   0.892   6.821   3.284  0.2127  0.1728  0.0956
 5792ntf    fn430172   0.915   6.823   3.489 -0.2717 -0.5800  0.6314
 5792ntf    fn430173   0.961   6.646   3.381  0.1142  0.1731 -0.2030
 5792ntf    on530174   0.662   6.660   3.533  0.0957 -0.6538 -0.2797
 5792ntf    on530175   0.643   6.847   3.377 -0.2404  0.1667 -0.4396
 5792ntf    on530176   0.612   6.398   3.392  0.0693 -0.5909 -0.1837
 5792ntf    on530177   0.630   6.401   3.149 -0.4053 -0.0681  0.3785
 5792ntf    fn430178   0.379   6.587   3.329  0.4712  0.1069 -0.4965
 5792ntf    fn430179   0.413   6.579   3.126 -1.0175  0.2250 -0.1693
 5792ntf    fn430180   0.356   6.399   3.218  0.2271  0.0381 -0.3484
 5793ntf    cn130181   5.909   5.354   3.129  0.2540  0.1203 -0.0988
 5793ntf    sn230182   5.736   5.361   3.076  0.1239  0.1451  0.3232
 5793ntf    nn330183   5.669   5.390   3.215 -0.6529 -0.5676  0.1112
 5793ntf    sn230184   5.620   5.527   3.275 -0.1270 -0.1409 -0.4203
 5793ntf    cn130185   5.676   5.496   3.445  0.1817  0.4096 -0.4206
 5793ntf    fn430186   5.924   5.278   3.236 -0.0025  0.1180 -0.0654
 5793ntf    fn430187   5.988   5.320   3.028 -0.1001  0.0968 -0.3668
 5793ntf    fn430188   5.942   5.478   3.164  0.1360  0.1497 -0.0933
 5793ntf    on530189   5.738   5.461   2.972  0.0175 -0.2158 -0.0318
 5793ntf    on530190   5.689   5.229   3.039 -0.5558  0.4082  0.2254
 5793ntf    on530191   5.476   5.523   3.285 -0.1514 -0.1456 -0.7445
 5793ntf    on530192   5.682   5.648   3.228  0.4501 -0.5582 -0.7508
 5793ntf    fn430193   5.649   5.599   3.523  0.5589  0.2720 -0.1056
 5793ntf    fn430194   5.602   5.399   3.496  0.1907  0.6142 -0.0191
 5793ntf    fn430195   5.806   5.468   3.451  0.0246 -0.2768 -0.1864
 5794ntf    cn130196   2.208   1.291   3.342  0.3013  0.4028 -0.4160
 5794ntf    sn230197   2.209   1.134   3.251  0.2240  0.2196 -0.1008
 5794ntf    nn330198   2.119   1.186   3.134  0.4049  0.0878 -0.2994
 5794ntf    sn230199   2.011   1.110   3.049  0.1771 -0.1128  0.1680
 5794ntf    cn130200   1.855   1.161   3.129  0.1676  0.1346 -0.0063
 5794ntf    fn430201   2.274   1.390   3.283  0.7003  0.6154  0.3694
 5794ntf    fn430202   2.084   1.330   3.369  0.5381  0.7605  0.1677
 5794ntf    fn430203   2.268   1.264   3.457 -0.5874 -0.2203 -0.0862
 5794ntf    on530204   2.346   1.128   3.206  0.3384 -0.9614  0.3430
 5794ntf    on530205   2.157   1.033   3.341  0.0039  0.4252  0.0030
 5794ntf    on530206   2.015   0.968   3.072  0.2222 -0.1113  0.1698
 5794ntf    on530207   2.001   1.149   2.910 -0.1811  0.0547  0.2393
 5794ntf    fn430208   1.772   1.058   3.120 -0.0094  0.2943 -0.1999
 5794ntf    fn430209   1.883   1.188   3.255 -0.0108 -0.8552  0.2572
 5794ntf    fn430210   1.795   1.268   3.080 -0.1314  0.1506  0.3962
 5795ntf    cn130211   3.563   7.579   4.908  0.0347 -0.1488  0.3279
 5795ntf    sn230212   3.499   7.532   5.071 -0.1044  0.1276  0.3543
 5795ntf    nn330213   3.375   7.625   5.094 -0.2287  0.0162  0.1418
 5795ntf    sn230214   3.230   7.621   5.034 -0.2203  0.3371  0.0951
 5795ntf    cn130215   3.129   7.648   5.182 -0.2378  0.3146  0.0876
 5795ntf    fn430216   3.504   7.687   4.860 -0.1475 -0.1457  0.5577
 5795ntf    fn430217   3.692   7.608   4.896 -0.0482  0.1757  0.1926
 5795ntf    fn430218   3.539   7.476   4.828 -1.0798  0.4341 -0.1024
 5795ntf    on530219   3.473   7.390   5.061 -0.2740  0.1992 -0.2876
 5795ntf    on530220   3.604   7.569   5.163 -0.2429 -0.0077  0.5690
 5795ntf    on530221   3.190   7.494   4.978  0.3653  0.0711  0.2702
 5795ntf    on530222   3.194   7.729   4.946  0.0521  0.2627 -0.1121
 5795ntf    fn430223   2.999   7.644   5.156 -0.3946  0.1596  0.8910
 5795ntf    fn430224   3.156   7.568   5.284 -0.5902  0.4506  0.2895
 5795ntf    fn430225   3.164   7.765   5.232 -0.3755  0.2882  0.2470
 5796ntf    cn130226   3.926   5.839   2.123 -0.3834 -0.1996 -0.4116
 5796ntf    sn230227   4.041   5.903   2.249 -0.0323 -0.2175 -0.7217
 5796ntf    nn330228   4.017   6.058   2.249 -0.6653 -0.3113  0.1293
 5796ntf    sn230229   4.056   6.153   2.130 -0.3840 -0.1008  0.3867
 5796ntf    cn130230   4.208   6.219   2.204 -0.1712 -0.5573  0.3586
 5796ntf    fn430231   3.947   5.904   2.010  0.4722  0.1033 -0.0876
 5796ntf    fn430232   3.947   5.709   2.110  0.0879 -0.0985 -0.7157
 5796ntf    fn430233   3.801   5.853   2.164  0.0510  0.0759  0.8804
 5796ntf    on530234   3.990   5.851   2.373  0.6683  0.1505 -0.2676
 5796ntf    on530235   4.169   5.844   2.216  0.3627  0.4217 -0.3528
 5796ntf    on530236   3.973   6.271   2.129 -0.4275 -0.1273  0.6614
 5796ntf    on530237   4.108   6.094   2.010 -0.0830  0.2037  0.3643
 5796ntf    fn430238   4.309   6.135   2.221  0.5225  0.1177 -0.2952
 5796ntf    fn430239   4.266   6.307   2.123 -0.0230 -0.6488  0.3658
 5796ntf    fn430240   4.185   6.276   2.321  0.2342 -0.1100  0.2240
 5797ntf    cn130241   7.539   6.312   4.880 -0.2313  0.3934  0.3728
 5797ntf    sn230242   7.654   6.254   5.008  0.0557  0.2038  0.0309
 5797ntf    nn330243   7.713   6.391   5.056  0.0784  0.0540  0.4365
 5797ntf    sn230244   7.789   6.416   5.191  0.2663  0.0895  0.3232
 5797ntf    cn130245   7.653   6.434   5.310  0.0003  0.2465 -0.0015
 5797ntf    fn430246   7.445   6.224   4.851  0.2118 -0.1036  0.4194
 5797ntf    fn430247   7.480   6.426   4.911  0.0646  0.7278 -0.2729
 5797ntf    fn430248   7.609   6.334   4.770  0.0864 -0.1372  0.4628
 5797ntf    on530249   7.564   6.191   5.102  0.2152 -0.2495 -0.1190
 5797ntf    on530250   7.749   6.170   4.939 -0.5115 -0.3414 -0.0916
 5797ntf    on530251   7.854   6.545   5.183 -0.3622  0.3953  0.0522
 5797ntf    on530252   7.880   6.315   5.238  0.1952  0.1130  0.5109
 5797ntf    fn430253   7.689   6.476   5.431  0.0448  0.1732  0.0106
 5797ntf    fn430254   7.568   6.523   5.263 -0.2735 -0.0989 -0.1660
 5797ntf    fn430255   7.593   6.318   5.329 -0.1051  0.2500 -0.3236
 5798ntf    cn130256   6.532   4.524   4.889 -0.5975  0.1148 -0.3284
 5798ntf    sn230257   6.384   4.487   4.988 -0.4837  0.1518 -0.1435
 5798ntf    nn330258   6.413   4.563   5.122  0.3387  0.1168 -0.2987
 5798ntf    sn230259   6.482   4.517   5.255 -0.3051 -0.1416 -0.0524
 5798ntf    cn130260   6.337   4.511   5.365 -0.0292  0.3729  0.3470
 5798ntf    fn430261   6.640   4.458   4.928 -0.3677  0.4523 -0.3876
 5798ntf    fn430262   6.520   4.508   4.758 -0.2621  0.0471 -0.3517
 5798ntf    fn430263   6.559   4.653   4.898 -0.5568  0.0838  0.0085
 5798ntf    on530264   6.274   4.557   4.926 -0.2868  0.0568 -0.6005
 5798ntf    on530265   6.376   4.344   5.001  0.2166  0.0327 -0.9819
 5798ntf    on530266   6.571   4.614   5.313  0.1038 -0.4821 -0.1044
 5798ntf    on530267   6.523   4.379   5.254 -0.3004 -0.1373 -0.5387
 5798ntf    fn430268   6.260   4.404   5.347  0.2796  0.2557 -0.3042
 5798ntf    fn430269   6.354   4.519   5.496 -0.4932  0.8280  0.3807
 5798ntf    fn430270   6.260   4.614   5.335 -0.1787  0.4398  0.9541
 5799ntf    cn130271   3.175   6.817   0.621  0.4176 -0.0985  0.3824
 5799ntf    sn230272   3.088   6.975   0.649  0.2188 -0.1205 -0.1032
 5799ntf    nn330273   2.958   6.954   0.564  0.0778  0.3964 -0.0207
 5799ntf    sn230274   2.936   7.000   0.416 -0.1034 -0.0842 -0.1472
 5799ntf    cn130275   2.834   7.151   0.429  0.0625 -0.0072  0.2554
 5799ntf    fn430276   3.164   6.788   0.492 -0.6621 -0.1277  0.4723
 5799ntf    fn430277   3.304   6.828   0.648  0.5509 -0.8472  0.0634
 5799ntf    fn430278   3.127   6.715   0.690  0.0993 -0.1343  0.1120
 5799ntf    on530279   3.064   6.968   0.791 -0.1898 -0.2517 -0.1768
 5799ntf    on530280   3.174   7.083   0.608  0.0750 -0.1119 -0.3845
 5799ntf    on530281   2.840   6.919   0.345 -0.4372  0.0823  0.1096
 5799ntf    on530282   3.057   7.039   0.348 -0.0267  0.1818  0.1372
 5799ntf    fn430283   2.727   7.137   0.506 -0.1092  0.1564  0.0447
 5799ntf    fn430284   2.899   7.258   0.474  0.0598 -0.0201  0.2910
 5799ntf    fn430285   2.780   7.185   0.314 -0.0250 -0.4152  0.1735
 5800ntf    cn130286   1.295   0.918   6.314  0.0880  0.3730  0.2853
 5800ntf    sn230287   1.139   0.877   6.230  0.4936 -0.2802 -0.1606
 5800ntf    nn330288   1.124   0.735   6.295  0.2027 -0.1856 -0.0205
 5800ntf    sn230289   1.025   0.692   6.409 -0.0049 -0.0888 -0.1628
 5800ntf    cn130290   1.111   0.542   6.465  0.1656  0.1060  0.1003
 5800ntf    fn430291   1.312   1.044   6.348  0.2289  0.3890  0.1528
 5800ntf    fn430292   1.315   0.844   6.422 -0.2902 -0.4621 -0.2012
 5800ntf    fn430293   1.396   0.882   6.236 -0.1006 -0.4523  0.4069
 5800ntf    on530294   1.054   0.982   6.280  0.3298 -0.5416  0.1105
 5800ntf    on530295   1.172   0.869   6.089 -0.0084  0.3587 -0.3220
 5800ntf    on530296   0.900   0.640   6.359 -0.2228  0.5264 -0.2675
 5800ntf    on530297   1.013   0.770   6.530  0.2887 -1.0873  0.5265
 5800ntf    fn430298   1.064   0.440   6.395 -0.2803  0.2138  0.2415
 5800ntf    fn430299   1.242   0.547   6.445  0.1051 -0.1776 -0.3680
 5800ntf    fn430300   1.097   0.520   6.595  0.9025 -0.2951  0.1182
 5801ntf    cn130301   6.026   0.261   6.344  0.0760 -0.0559 -0.1962
 5801ntf    sn230302   5.930   0.362   6.227 -0.0022 -0.0434 -0.1209
 5801ntf    nn330303   6.030   0.478   6.190 -0.1655  0.2302  0.2918
 5801ntf    sn230304   6.019   0.634   6.196 -0.0897  0.2562 -0.2217
 5801ntf    cn130305   6.067   0.651   6.371 -0.4111 -0.0276 -0.1049
 5801ntf    fn430306   6.152   0.246   6.306  0.0296 -0.4062 -0.2158
 5801ntf    fn430307   6.044   0.321   6.460 -0.4926 -0.3265  0.0354
 5801ntf    fn430308   5.980   0.139   6.363  0.1176 -0.0378  0.0193
 5801ntf    on530309   5.909   0.265   6.122 -0.1282 -0.3895  0.2226
 5801ntf    on530310   5.817   0.415   6.299 -0.1847  0.2002 -0.5768
 5801ntf    on530311   5.882   0.677   6.182 -0.2938 -0.1962  0.3544
 5801ntf    on530312   6.128   0.688   6.119  0.3376 -0.0086  0.1972
 5801ntf    fn430313   6.182   0.590   6.390 -0.2083  0.4703  0.2723
 5801ntf    fn430314   6.082   0.777   6.408  0.0538 -0.2561  0.4878
 5801ntf    fn430315   5.987   0.594   6.460 -0.3292  0.3314  0.2023
 5802ntf    cn130316   3.314   0.453   0.960 -0.2388  0.2433  0.1534
 5802ntf    sn230317   3.343   0.290   1.035  0.0197  0.3060  0.1905
 5802ntf    nn330318   3.236   0.306   1.149 -0.6075 -0.1109 -0.3269
 5802ntf    sn230319   3.082   0.276   1.150 -0.7073  0.3687 -0.5805
 5802ntf    cn130320   3.085   0.116   1.237 -0.2238  0.4523 -0.4377
 5802ntf    fn430321   3.385   0.470   0.850 -0.0250 -0.2442  0.2125
 5802ntf    fn430322   3.190   0.490   0.930 -0.2380  0.0741 -0.0649
 5802ntf    fn430323   3.358   0.540   1.049  0.4750  0.3630 -0.3058
 5802ntf    on530324   3.316   0.187   0.937  0.6212  0.3905 -0.0646
 5802ntf    on530325   3.474   0.303   1.093 -0.4636  0.1227  1.3544
 5802ntf    on530326   3.022   0.236   1.025 -0.0685 -0.5147 -0.6196
 5802ntf    on530327   3.012   0.361   1.242 -0.1840  0.0303  0.1432
 5802ntf    fn430328   3.159   0.122   1.347 -0.2174  0.1216 -0.4223
 5802ntf    fn430329   2.960   0.086   1.268 -0.1522  0.6165  0.0212
 5802ntf    fn430330   3.130   0.018   1.161  0.1485  0.4541 -0.2220
 5803ntf    cn130331   7.251   5.249   1.124 -0.3179 -0.1620  0.1239
 5803ntf    sn230332   7.253   5.375   0.994  0.2931 -0.1036  0.1855
 5803ntf    nn330333   7.119   5.336   0.921  0.5939 -0.7305 -0.0367
 5803ntf    sn230334   7.102   5.259   0.785  0.3001  0.0022 -0.4189
 5803ntf    cn130335   7.118   5.408   0.681 -0.1697 -0.1729 -0.7435
 5803ntf    fn430336   7.269   5.124   1.084 -0.1850 -0.3101  0.6264
 5803ntf    fn430337   7.344   5.263   1.218 -0.5148 -0.1180  0.3135
 5803ntf    fn430338   7.141   5.253   1.198 -0.3148 -0.1276  0.1273
 5803ntf    on530339   7.225   5.498   1.063 -0.2174  0.8892 -1.7097
 5803ntf    on530340   7.384   5.362   0.936  0.1122 -0.0793 -0.2356
 5803ntf    on530341   6.967   5.212   0.771  0.1392  0.4568 -0.4356
 5803ntf    on530342   7.205   5.164   0.751 -0.0889 -0.6854  0.2895
 5803ntf    fn430343   7.021   5.492   0.713  0.1352 -0.1056  0.0450
 5803ntf    fn430344   7.235   5.466   0.704 -0.5847  0.2765  0.2975
 5803ntf    fn430345   7.099   5.375   0.555  0.2691  0.0822 -0.8752
 5804ntf    cn130346   4.880   4.619   1.463 -0.6463 -0.4311 -0.3402
 5804ntf    sn230347   4.855   4.791   1.515  0.0206 -0.3366 -0.3255
 5804ntf    nn330348   4.703   4.773   1.551 -0.0845  0.0513 -0.5753
 5804ntf    sn230349   4.635   4.821   1.684 -0.0257 -0.1029 -0.4900
 5804ntf    cn130350   4.652   4.682   1.799  0.2002 -0.2132 -0.6563
 5804ntf    fn430351   5.004   4.585   1.434 -0.5210 -0.2995  0.0484
 5804ntf    fn430352   4.839   4.539   1.560  0.1268 -0.7847 -0.2980
 5804ntf    fn430353   4.808   4.577   1.359 -0.7858  0.7891 -0.7472
 5804ntf    on530354   4.941   4.794   1.630 -0.7850 -0.4269  0.2900
 5804ntf    on530355   4.901   4.858   1.396  0.3967  0.2272  0.1301
 5804ntf    on530356   4.492   4.834   1.666 -0.2279  0.0520  1.1228
 5804ntf    on530357   4.702   4.930   1.750 -0.3393 -0.3730  0.2847
 5804ntf    fn430358   4.570   4.699   1.901  0.2465  0.5735 -0.7432
 5804ntf    fn430359   4.632   4.559   1.755  0.4841 -0.5755  0.1960
 5804ntf    fn430360   4.774   4.685   1.851 -0.1021  0.2524  0.0387
 5805ntf    cn130361   1.920   7.355   2.319 -0.2075  0.0293 -0.0599
 5805ntf    sn230362   1.986   7.370   2.150 -0.1160  0.0030 -0.0264
 5805ntf    nn330363   2.121   7.444   2.184 -0.2383  0.2000  0.0309
 5805ntf    sn230364   2.147   7.598   2.202 -0.0590  0.2408 -0.5735
 5805ntf    cn130365   2.197   7.662   2.039  0.3463  0.0661 -0.5206
 5805ntf    fn430366   1.885   7.470   2.374 -0.2354 -0.0853  0.1620
 5805ntf    fn430367   1.813   7.277   2.328  0.1001 -0.4393 -0.4148
 5805ntf    fn430368   2.009   7.299   2.398 -0.3006  0.1000  0.0941
 5805ntf    on530369   2.001   7.232   2.114 -0.3535  0.0570 -0.3323
 5805ntf    on530370   1.877   7.439   2.086 -0.3337  0.2396  0.5906
 5805ntf    on530371   2.265   7.620   2.282 -0.5009 -0.3134  0.2445
 5805ntf    on530372   2.042   7.682   2.254 -0.0162  0.0791 -0.2254
 5805ntf    fn430373   2.202   7.561   1.954  0.2631 -0.0593 -0.3768
 5805ntf    fn430374   2.112   7.751   1.991 -0.5039 -0.4067  0.0711
 5805ntf    fn430375   2.316   7.719   2.037  0.4922 -0.2187 -0.1694
 5806ntf    cn130376   1.414   0.349   6.801  0.0514 -0.2159  0.2377
 5806ntf    sn230377   1.532   0.211   6.790 -0.0473 -0.3142  0.4183
 5806ntf    nn330378   1.536   0.193   6.634 -0.0270 -0.2534  0.4115
 5806ntf    sn230379   1.634   0.099   6.556  0.0614 -0.0577  0.2875
 5806ntf    cn130380   1.722   0.204   6.437  0.3033 -0.2019  0.3370
 5806ntf    fn430381   1.291   0.310   6.768 -0.0735 -0.1230  0.5909
 5806ntf    fn430382   1.410   0.394   6.925  0.4970  0.2200  0.0969
 5806ntf    fn430383   1.450   0.454   6.728 -0.0581 -0.2431  0.1431
 5806ntf    on530384   1.657   0.256   6.845 -0.1409 -0.2904  0.6115
 5806ntf    on530385   1.465   0.098   6.851 -0.1400 -0.4006  0.1565
 5806ntf    on530386   1.550   0.010   6.479 -0.0296  0.2311  0.0545
 5806ntf    on530387   1.738   0.033   6.631  0.1659  0.3382  0.4925
 5806ntf    fn430388   1.641   0.280   6.364  0.1813  0.0449  0.7239
 5806ntf    fn430389   1.818   0.277   6.492  0.2933 -0.5436  0.8151
 5806ntf    fn430390   1.789   0.129   6.351  0.2167 -0.6851  0.6884
 5807ntf    cn130391   7.115   7.260   0.787  0.1690 -0.0128 -0.2507
 5807ntf    sn230392   7.005   7.402   0.814  0.5760  0.2637 -0.0208
 5807ntf    nn330393   6.894   7.373   0.707  0.2920  0.1431  0.3040
 5807ntf    sn230394   6.902   7.427   0.559 -0.0885  0.2614  0.3237
 5807ntf    cn130395   6.825   7.591   0.569  0.0730  0.4148 -0.8490
 5807ntf    fn430396   7.076   7.148   0.846  0.6366 -0.0623 -0.0284
 5807ntf    fn430397   7.142   7.229   0.662  0.0828 -0.2202 -0.2172
 5807ntf    fn430398   7.238   7.279   0.834  0.1524  0.2361 -0.3079
 5807ntf    on530399   6.948   7.378   0.944  0.2612  0.1970 -0.1699
 5807ntf    on530400   7.087   7.520   0.802 -0.2876  0.8446 -0.3964
 5807ntf    on530401   6.810   7.355   0.475 -0.0355  0.9276 -0.3068
 5807ntf    on530402   7.034   7.454   0.507 -0.0399 -0.0134  0.3013
 5807ntf    fn430403   6.805   7.644   0.449 -0.0802  0.2551 -0.8958
 5807ntf    fn430404   6.714   7.587   0.642  0.1446  0.1818 -0.7513
 5807ntf    fn430405   6.904   7.675   0.632 -0.0616 -0.1657  0.1101
 5808ntf    cn130406   4.108   1.798   1.559  0.0961  0.0691 -0.3162
 5808ntf    sn230407   4.040   1.634   1.602  0.2915 -0.0232 -0.3590
 5808ntf    nn330408   4.129   1.584   1.721  0.2783 -0.2657 -0.4517
 5808ntf    sn230409   4.263   1.501   1.723  0.2929 -0.2333 -0.0195
 5808ntf    cn130410   4.361   1.615   1.825 -0.1024  0.2536 -0.1762
 5808ntf    fn430411   4.105   1.884   1.660 -0.2755 -0.0452 -0.2258
 5808ntf    fn430412   4.237   1.796   1.533  0.0929 -0.4074 -0.3140
 5808ntf    fn430413   4.048   1.862   1.460 -0.4233 -0.0942 -0.1124
 5808ntf    on530414   3.906   1.658   1.648  0.5548  0.0058  0.4083
 5808ntf    on530415   4.054   1.562   1.477 -0.0983  0.4081 -0.6555
 5808ntf    on530416   4.327   1.501   1.594  0.5778 -0.2710  0.1226
 5808ntf    on530417   4.247   1.375   1.792  0.1337 -0.0135  0.3494
 5808ntf    fn430418   4.315   1.608   1.949  0.5665  0.1953  0.0739
 5808ntf    fn430419   4.487   1.574   1.835 -0.1801 -0.1863 -0.8869
 5808ntf    fn430420   4.357   1.741   1.787 -0.2680  0.3254  0.0784
 5809ntf    cn130421   4.791   5.858   7.242 -0.3863 -0.2676 -0.0810
 5809ntf    sn230422   4.740   5.866   7.416  0.0046  0.0649  0.0193
 5809ntf    nn330423   4.706   6.019   7.422 -0.1034  0.0237  0.5372
 5809ntf    sn230424   4.807   6.124   7.481  0.3535 -0.2458  0.2434
 5809ntf    cn130425   4.762   6.271   7.383 -0.0714 -0.2849  0.3787
 5809ntf    fn430426   4.694   5.859   7.152 -0.7543 -0.3536  0.3059
 5809ntf    fn430427   4.891   5.939   7.211  0.0391 -0.5217  0.6073
 5809ntf    fn430428   4.833   5.734   7.221 -0.0337 -0.1522 -0.0593
 5809ntf    on530429   4.623   5.781   7.425  0.5254 -0.7556 -0.8862
 5809ntf    on530430   4.855   5.814   7.485 -0.5229 -0.5522  0.4527
 5809ntf    on530431   4.943   6.095   7.447  0.2841  0.0897 -0.3247
 5809ntf    on530432   4.777   6.161   7.617  0.1724 -0.2915  0.2173
 5809ntf    fn430433   4.636   6.312   7.387 -0.1082 -0.3021 -0.4260
 5809ntf    fn430434   4.846   6.368   7.413 -0.3887  0.1936 -0.2593
 5809ntf    fn430435   4.784   6.259   7.253  0.3760 -0.4905  0.4733
 5810ntf    cn130436   6.315   4.703   1.111  0.0422 -0.1162  0.0551
 5810ntf    sn230437   6.398   4.865   1.119 -0.0806 -0.0400 -0.2405
 5810ntf    nn330438   6.330   4.937   0.997 -1.0663  0.0896  0.3708
 5810ntf    sn230439   6.326   5.093   0.974  0.0032  0.1192  0.3378
 5810ntf    cn130440   6.156   5.129   1.026 -0.1871  0.0279 -0.2102
 5810ntf    fn430441   6.373   4.620   1.026 -0.3117 -0.6727  0.3476
 5810ntf    fn430442   6.310   4.641   1.228 -0.2714  0.2514  0.2376
 5810ntf    fn430443   6.188   4.706   1.077  0.0006  0.5872  0.2606
 5810ntf    on530444   6.348   4.913   1.245  0.5521  0.1968 -0.0793
 5810ntf    on530445   6.536   4.825   1.117  0.1357  0.6761  0.1504
 5810ntf    on530446   6.341   5.129   0.836  0.1607  0.0120  0.3258
 5810ntf    on530447   6.396   5.185   1.060 -0.0945 -0.1581  0.7207
 5810ntf    fn430448   6.070   5.145   0.927  0.0465 -0.1193 -0.4365
 5810ntf    fn430449   6.105   5.028   1.096  0.7402 -0.4577 -0.2192
 5810ntf    fn430450   6.142   5.236   1.103 -0.4480  0.0807 -0.3295
 5811ntf    cn130451   0.704   6.875   4.091  0.4137 -0.1920  0.1565
 5811ntf    sn230452   0.658   7.000   3.968 -0.2392 -0.2086  0.3765
 5811ntf    nn330453   0.712   7.129   4.039 -0.5527 -0.0248  0.2790
 5811ntf    sn230454   0.829   7.226   4.001 -0.2731 -0.3906  0.2042
 5811ntf    cn130455   0.738   7.383   4.014  0.0543 -0.1679 -0.1551
 5811ntf    fn430456   0.688   6.920   4.215  0.3296  0.3102 -0.0358
 5811ntf    fn430457   0.631   6.765   4.082  0.5586 -0.2375 -0.5057
 5811ntf    fn430458   0.829   6.831   4.087  0.3638 -0.2984 -0.2959
 5811ntf    on530459   0.707   6.956   3.839  0.5003 -0.0718  0.6029
 5811ntf    on530460   0.515   7.001   3.984 -0.3164  0.4610 -0.2891
 5811ntf    on530461   0.872   7.215   3.864 -0.0365  0.2275  0.2240
 5811ntf    on530462   0.926   7.219   4.108  0.5509 -0.0586 -0.5141
 5811ntf    fn430463   0.811   7.492   3.996  0.3378 -0.3718 -0.2491
 5811ntf    fn430464   0.623   7.384   3.949 -0.0815  0.6523  0.0810
 5811ntf    fn430465   0.706   7.397   4.142  0.0502  0.1035 -0.1840
 5812ntf    cn130466   3.892   3.620   5.723 -0.2807  0.0960  0.1190
 5812ntf    sn230467   3.851   3.790   5.671  0.1729  0.1252 -0.1436
 5812ntf    nn330468   3.729   3.748   5.582 -0.4809  0.6455  0.5056
 5812ntf    sn230469   3.578   3.750   5.626 -0.6476 -0.0434 -0.0051
 5812ntf    cn130470   3.487   3.689   5.481 -0.1179 -0.4600 -0.1628
 5812ntf    fn430471   3.813   3.577   5.820 -0.0334  0.4447  0.4817
 5812ntf    fn430472   3.889   3.537   5.621 -0.6901  0.5401 -0.2354
 5812ntf    fn430473   4.012   3.612   5.779 -0.1126 -0.3790 -0.3069
 5812ntf    on530474   3.821   3.849   5.798 -0.1175  0.2814 -0.2858
 5812ntf    on530475   3.960   3.837   5.588 -0.0190  0.5585 -0.1510
 5812ntf    on530476   3.534   3.887   5.644 -0.2789  0.2598 -1.3290
 5812ntf    on530477   3.548   3.660   5.735  0.1865  0.1417  0.3832
 5812ntf    fn430478   3.380   3.620   5.515  0.0749 -0.7092 -0.0566
 5812ntf    fn430479   3.449   3.786   5.399  0.2638  0.1890  0.4150
 5812ntf    fn430480   3.559   3.606   5.407 -0.2499 -0.3339 -0.4331
 5813ntf    cn130481   0.005   4.123   3.441  0.1028 -0.0681  0.1853
 5813ntf    sn230482  -0.153   4.037   3.423 -0.0043  0.1443  0.1077
 5813ntf    nn330483  -0.166   4.017   3.268  0.3183 -0.0316  0.1038
 5813ntf    sn230484  -0.089   3.902   3.192  0.1398  0.0336 -0.1781
 5813ntf    cn130485   0.028   4.000   3.093 -0.0444  0.3266 -0.1086
 5813ntf    fn430486   0.105   4.049   3.394  0.0104 -0.0409 -0.0543
 5813ntf    fn430487   0.015   4.233   3.367 -0.6805  0.2894  0.5966
 5813ntf    fn430488   0.031   4.156   3.567 -0.0016 -0.1346  0.2240
 5813ntf    on530489  -0.128   3.920   3.504  0.1493  0.1755  0.1048
 5813ntf    on530490  -0.250   4.131   3.474 -0.4178  0.1437 -0.6577
 5813ntf    on530491  -0.177   3.850   3.091 -0.6218  0.3056  0.3338
 5813ntf    on530492  -0.011   3.812   3.273  0.0645  0.2470  0.1390
 5813ntf    fn430493   0.131   4.042   3.165 -0.1137  0.2612  0.0293
 5813ntf    fn430494   0.081   3.941   2.987 -0.1159  1.0171 -0.5333
 5813ntf    fn430495  -0.026   4.111   3.047 -0.5942 -0.0320 -0.3314
 5814ntf    cn130496   2.257   3.501   5.159 -0.1364 -0.1886  0.0849
 5814ntf    sn230497   2.439   3.507   5.150 -0.1383 -0.1244  0.0825
 5814ntf    nn330498   2.467   3.549   5.298  0.1310  0.1384 -0.0447
 5814ntf    sn230499   2.499   3.450   5.416 -0.0432 -0.1192 -0.2153
 5814ntf    cn130500   2.415   3.534   5.554 -0.4143 -0.3779 -0.2826
 5814ntf    fn430501   2.199   3.433   5.061 -0.1830 -0.2162  0.1318
 5814ntf    fn430502   2.214   3.430   5.261 -0.0418 -0.7118 -0.2376
 5814ntf    fn430503   2.205   3.622   5.176 -0.4242 -0.2726 -0.1872
 5814ntf    on530504   2.480   3.373   5.114 -0.1017 -0.0087 -0.3147
 5814ntf    on530505   2.467   3.604   5.048 -0.4584  0.3818  0.4694
 5814ntf    on530506   2.638   3.441   5.452 -0.1014 -0.3136 -0.0396
 5814ntf    on530507   2.431   3.322   5.420  0.4916 -0.4208 -0.6337
 5814ntf    fn430508   2.436   3.664   5.548  0.0751 -0.4393  0.0268
 5814ntf    fn430509   2.285   3.511   5.552 -0.4563 -0.1662  0.1237
 5814ntf    fn430510   2.468   3.491   5.667  0.2441  0.0499 -0.4241
 5815ntf    cn130511   3.159   1.875   3.697  0.4869  0.0362 -0.2902
 5815ntf    sn230512   3.143   1.720   3.789  0.1390  0.2539  0.0221
 5815ntf    nn330513   2.993   1.733   3.832  0.1088  0.0484 -0.0191
 5815ntf    sn230514   2.937   1.727   3.979  0.2745  0.2102  0.0501
 5815ntf    cn130515   2.843   1.573   3.960  0.8910 -0.1080 -0.4413
 5815ntf    fn430516   3.282   1.900   3.657  0.3396  0.5953 -0.4130
 5815ntf    fn430517   3.088   1.882   3.586 -0.4215 -0.4001  0.2522
 5815ntf    fn430518   3.122   1.972   3.780  0.1621 -0.5370  0.2359
 5815ntf    on530519   3.157   1.631   3.676 -0.7357  0.4575 -0.2491
 5815ntf    on530520   3.254   1.732   3.881  0.2423 -0.2870 -0.0247
 5815ntf    on530521   2.829   1.821   3.998  0.0775 -0.1506  0.7166
 5815ntf    on530522   3.029   1.703   4.087 -0.0267 -0.4406  0.1667
 5815ntf    fn430523   2.776   1.528   4.065 -0.1664  0.4812 -0.8474
 5815ntf    fn430524   2.752   1.576   3.863 -0.2108 -0.4813  0.5585
 5815ntf    fn430525   2.918   1.470   3.924 -0.0466 -0.9999  0.1132
 5816ntf    cn130526   2.445   3.894   2.420 -0.5107  0.1949 -0.2487
 5816ntf    sn230527   2.307   3.939   2.310 -0.5204 -0.1205 -0.3640
 5816ntf    nn330528   2.200   3.849   2.380 -0.0387 -0.4906 -0.0981
 5816ntf    sn230529   2.072   3.881   2.465  0.0613 -0.0881 -0.0985
 5816ntf    cn130530   2.059   3.744   2.584  0.1891 -0.1540 -0.1610
 5816ntf    fn430531   2.402   3.906   2.545 -0.4186  0.0629 -0.2045
 5816ntf    fn430532   2.477   3.766   2.419  0.2566  0.3829 -0.1731
 5816ntf    fn430533   2.554   3.966   2.400 -0.5195  0.3382  0.2174
 5816ntf    on530534   2.298   4.082   2.319 -0.3408 -0.1583  0.4298
 5816ntf    on530535   2.340   3.889   2.178 -0.2207 -0.4051 -0.1841
 5816ntf    on530536   1.953   3.862   2.386  0.1065  0.3196 -0.2643
 5816ntf    on530537   2.075   3.992   2.557 -0.0377 -0.0395 -0.1548
 5816ntf    fn430538   1.937   3.735   2.634  0.1647  0.0203 -0.1915
 5816ntf    fn430539   2.074   3.629   2.520  0.1508 -0.2657  0.0306
 5816ntf    fn430540   2.154   3.742   2.675  0.5394 -0.1104 -0.5205
 5817ntf    cn130541   6.133   3.070   1.802  0.0176  0.2277  0.0462
 5817ntf    sn230542   6.251   3.035   1.668 -0.0044 -0.3652  0.1758
 5817ntf    nn330543   6.269   3.181   1.612 -0.1180 -0.3078  0.2883
 5817ntf    sn230544   6.400   3.253   1.564 -0.2828  0.0563  0.3788
 5817ntf    cn130545   6.403   3.221   1.385 -0.1976  0.0857  0.3749
 5817ntf    fn430546   6.197   3.138   1.895  0.3980  0.3124 -0.2799
 5817ntf    fn430547   6.019   3.131   1.775 -0.2463 -0.1291  0.3441
 5817ntf    fn430548   6.088   2.960   1.861  0.5441  0.2178  0.4336
 5817ntf    on530549   6.361   2.978   1.741 -0.2823 -1.2847 -0.1207
 5817ntf    on530550   6.181   2.955   1.571 -0.3482 -0.0628  0.1690
 5817ntf    on530551   6.527   3.207   1.614 -0.0230  0.0723 -0.2625
 5817ntf    on530552   6.381   3.395   1.569 -0.2028  0.0965 -0.2978
 5817ntf    fn430553   6.418   3.335   1.318  0.1648 -0.4762 -0.5245
 5817ntf    fn430554   6.509   3.146   1.358 -0.1522  0.4076 -0.3843
 5817ntf    fn430555   6.296   3.158   1.341 -0.1724  0.4762 -0.2662
 5818ntf    cn130556   5.950   3.140   6.373 -0.4089 -0.2091 -0.2695
 5818ntf    sn230557   6.008   3.302   6.432 -0.2995 -0.2657 -0.2217
 5818ntf    nn330558   5.878   3.357   6.501 -0.2116 -0.3153 -0.0147
 5818ntf    sn230559   5.766   3.456   6.451 -0.0530 -0.1829 -0.1115
 5818ntf    cn130560   5.633   3.339   6.409  0.1304 -0.3854 -0.1266
 5818ntf    fn430561   6.047   3.063   6.329 -0.4971 -0.4746  0.0011
 5818ntf    fn430562   5.892   3.077   6.474  0.5554 -0.1178  0.3577
 5818ntf    fn430563   5.853   3.143   6.283 -0.9307  0.0152  0.2941
 5818ntf    on530564   6.108   3.280   6.533 -0.2925  0.4069 -0.0735
 5818ntf    on530565   6.051   3.370   6.313 -0.0914  0.0365  0.0252
 5818ntf    on530566   5.787   3.535   6.333  0.0682  0.2110  0.1701
 5818ntf    on530567   5.701   3.539   6.550 -0.1594  0.0540 -0.3819
 5818ntf    fn430568   5.675   3.250   6.320  0.0691 -0.3872 -0.1538
 5818ntf    fn430569   5.590   3.277   6.518 -0.1335 -0.0758 -0.0510
 5818ntf    fn430570   5.521   3.390   6.361 -0.0010 -0.0309  0.5415
 5819ntf    cn130571   4.133   2.808   2.689 -0.6666  0.0019  0.1645
 5819ntf    sn230572   4.017   2.826   2.828  0.0671  0.1144  0.7627
 5819ntf    nn330573   3.945   2.688   2.813 -0.1360  0.3051 -0.0721
 5819ntf    sn230574   3.975   2.551   2.884  0.2121  0.3219 -0.1835
 5819ntf    cn130575   3.929   2.438   2.750  0.1696 -0.1955  0.2620
 5819ntf    fn430576   4.169   2.922   2.633 -0.6235 -0.2560 -0.3423
 5819ntf    fn430577   4.242   2.740   2.720 -0.0600  0.7357 -0.3198
 5819ntf    fn430578   4.085   2.738   2.586  1.0166 -0.5327 -0.2891
 5819ntf    on530579   4.109   2.855   2.936  0.6363  0.2072  0.2619
 5819ntf    on530580   3.935   2.939   2.792  0.3812  0.3392  0.7442
 5819ntf    on530581   3.897   2.517   3.001 -0.4258  0.0736 -0.6716
 5819ntf    on530582   4.117   2.540   2.908  0.1094  0.3258  0.4514
 5819ntf    fn430583   3.810   2.459   2.695  0.1111 -0.0058  0.4612
 5819ntf    fn430584   4.017   2.434   2.651 -0.4619  0.4121 -0.3391
 5819ntf    fn430585   3.913   2.314   2.793 -0.3687 -0.1942  0.0711
 5820ntf    cn130586   4.216   7.625   2.077  0.0314  0.0472  0.0880
 5820ntf    sn230587   4.277   7.793   2.042  0.1613  0.0371  0.2658
 5820ntf    nn330588   4.137   7.853   2.006  0.1816  0.0621  0.2280
 5820ntf    sn230589   4.076   7.940   1.890  0.2604 -0.0235  0.1223
 5820ntf    cn130590   3.927   7.996   1.978  0.4735  0.4048  0.2129
 5820ntf    fn430591   4.142   7.583   1.975  0.1825  0.0898 -0.0409
 5820ntf    fn430592   4.316   7.540   2.097  0.2031  0.3155  0.3736
 5820ntf    fn430593   4.140   7.612   2.184 -0.0235  0.5142  0.1078
 5820ntf    on530594   4.331   7.851   2.162  0.7322 -0.1969  0.1267
 5820ntf    on530595   4.368   7.770   1.932 -0.1206 -0.1369  0.0685
 5820ntf    on530596   4.016   7.877   1.775 -0.2270  0.0494  0.3362
 5820ntf    on530597   4.149   8.062   1.866  0.0539 -0.0217 -0.5121
 5820ntf    fn430598   3.863   7.898   2.040 -0.1915  0.4132 -0.4496
 5820ntf    fn430599   3.956   8.083   2.072 -0.7527  0.5014  0.5164
 5820ntf    fn430600   3.844   8.051   1.891 -0.1803 -0.5136  0.2401
 5821ntf    cn130601   4.335   4.339   3.472 -0.0966  0.1543 -0.0349
 5821ntf    sn230602   4.379   4.290   3.303  0.1481  0.1976  0.0165
 5821ntf    nn330603   4.494   4.187   3.331  0.0403 -0.0411 -0.4126
 5821ntf    sn230604   4.640   4.224   3.376 -0.0143 -0.2947 -0.0205
 5821ntf    cn130605   4.731   4.204   3.220 -0.2304 -0.1772 -0.1623
 5821ntf    fn430606   4.299   4.467   3.474  0.1298  0.2190 -0.0341
 5821ntf    fn430607   4.245   4.263   3.532  0.2728  0.0277  0.3615
 5821ntf    fn430608   4.439   4.337   3.554 -0.0449 -0.1699 -0.1091
 5821ntf    on530609   4.260   4.233   3.247  0.0218  0.2914  0.1875
 5821ntf    on530610   4.422   4.419   3.253  0.7929  0.0247  0.1092
 5821ntf    on530611   4.691   4.122   3.464  0.0522  0.0494  0.3388
 5821ntf    on530612   4.661   4.364   3.406  0.1276 -0.3718  0.2437
 5821ntf    fn430613   4.862   4.198   3.238 -0.3382 -0.0370  0.6843
 5821ntf    fn430614   4.697   4.094   3.155  0.2685 -0.1655 -0.4529
 5821ntf    fn430615   4.726   4.302   3.131  0.4324  0.1561  0.1594
 5822ntf    cn130616   3.262   2.523   6.294  0.3540 -0.0241  0.0083
 5822ntf    sn230617   3.330   2.669   6.210 -0.2246  0.1486 -0.1643
 5822ntf    nn330618   3.474   2.618   6.172 -0.3146  0.0364 -0.3555
 5822ntf    sn230619   3.605   2.607   6.257 -0.2707  0.2114 -0.4010
 5822ntf    cn130620   3.668   2.441   6.218  0.3818  0.2953  0.2739
 5822ntf    fn430621   3.325   2.497   6.408  0.0819 -0.0528  0.1533
 5822ntf    fn430622   3.134   2.542   6.321  0.5005  0.5281  0.3293
 5822ntf    fn430623   3.273   2.415   6.217  0.1586  0.2844 -0.4554
 5822ntf    on530624   3.240   2.678   6.098 -0.1328  0.1571 -0.2375
 5822ntf    on530625   3.319   2.777   6.305  0.2909 -0.0786  0.1574
 5822ntf    on530626   3.592   2.625   6.399 -0.0349 -0.5706 -0.2733
 5822ntf    on530627   3.713   2.689   6.205 -0.1020  0.3558  0.1717
 5822ntf    fn430628   3.796   2.422   6.245  0.2457 -0.1560  0.6036
 5822ntf    fn430629   3.614   2.342   6.287  0.3720 -0.4096 -0.7218
 5822ntf    fn430630   3.662   2.407   6.090  0.1761  0.1961  0.3094
 5823ntf    cn130631   2.115   2.742   7.111  0.1341 -0.0924 -0.0030
 5823ntf    sn230632   1.975   2.670   7.202 -0.0275  0.1612 -0.0504
 5823ntf    nn330633   1.968   2.751   7.337  0.8070  0.5002 -0.2074
 5823ntf    sn230634   1.874   2.871   7.372  0.3624  0.1614 -0.2308
 5823ntf    cn130635   1.753   2.790   7.481  0.6658  0.1555  0.1043
 5823ntf    fn430636   2.089   2.866   7.075  0.2592  0.0070  0.2496
 5823ntf    fn430637   2.216   2.760   7.194 -0.2432  0.1162  0.4192
 5823ntf    fn430638   2.159   2.677   7.005  0.5095 -0.3417  0.3029
 5823ntf    on530639   1.859   2.686   7.118  0.3484  0.1506 -0.5750
 5823ntf    on530640   2.013   2.536   7.238 -0.5016  0.1436  0.4024
 5823ntf    on530641   1.788   2.924   7.269 -0.1505 -0.3670 -0.0786
 5823ntf    on530642   1.932   2.962   7.468 -0.3014 -0.0484  0.3734
 5823ntf    fn430643   1.677   2.705   7.414  0.8519 -0.1331  0.2591
 5823ntf    fn430644   1.800   2.709   7.574  0.1170  0.2199  0.4392
 5823ntf    fn430645   1.673   2.876   7.541 -0.2007 -0.5046 -0.0943
 5824ntf    cn130646   6.911   0.276   6.162  0.3066 -0.0553 -0.1888
 5824ntf    sn230647   6.794   0.410   6.126  0.3052  0.0392  0.1581
 5824ntf    nn330648   6.670   0.315   6.117  0.1660  0.1914  0.4687
 5824ntf    sn230649   6.559   0.296   6.227 -0.2184 -0.3839 -0.0106
 5824ntf    cn130650   6.446   0.427   6.174  0.1495 -0.0710 -0.0261
 5824ntf    fn430651   6.921   0.184   6.068  0.2636 -0.5746  0.3114
 5824ntf    fn430652   7.032   0.323   6.188  0.1174  0.6768 -0.5977
 5824ntf    fn430653   6.866   0.215   6.271  0.6046  0.8769  0.4724
 5824ntf    on530654   6.797   0.502   6.236 -1.4300  0.0904  0.1923
 5824ntf    on530655   6.838   0.454   5.996 -0.1926 -0.1615 -0.0818
 5824ntf    on530656   6.612   0.322   6.358  0.2810  0.4565 -0.3698
 5824ntf    on530657   6.481   0.178   6.199  0.0273 -0.6517  0.4120
 5824ntf    fn430658   6.509   0.543   6.179  0.2546 -0.1204 -0.2029
 5824ntf    fn430659   6.392   0.416   6.054  0.1084  0.7817 -0.0918
 5824ntf    fn430660   6.340   0.439   6.253 -0.3197  0.0252 -0.6648
 5825ntf    cn130661   5.402   6.809   6.911 -0.1986 -0.5506  0.3243
 5825ntf    sn230662   5.319   6.674   6.823  0.0913 -0.3135 -0.3248
 5825ntf    nn330663   5.401   6.545   6.858 -0.5301 -0.5989  0.0893
 5825ntf    sn230664   5.536   6.501   6.791 -0.0773  0.5575  0.2236
 5825ntf    cn130665   5.490   6.427   6.632  0.3729  0.4438  0.1454
 5825ntf    fn430666   5.367   6.932   6.877  0.5736 -0.3794  0.1164
 5825ntf    fn430667   5.374   6.800   7.040 -0.2883 -0.1346  0.3360
 5825ntf    fn430668   5.534   6.806   6.902 -0.2052 -0.4657  0.1926
 5825ntf    on530669   5.181   6.684   6.865 -0.0206  0.3013 -0.8254
 5825ntf    on530670   5.333   6.722   6.688  0.2401  0.1009 -0.1631
 5825ntf    on530671   5.597   6.390   6.859 -0.2954  0.1655 -0.2139
 5825ntf    on530672   5.621   6.612   6.756  0.7746  0.0137  0.5574
 5825ntf    fn430673   5.588   6.399   6.548  0.9204 -0.0448  0.9378
 5825ntf    fn430674   5.432   6.311   6.657  0.2204  0.4598 -0.1194
 5825ntf    fn430675   5.409   6.505   6.563 -0.0568  0.0531  0.2003
 5826ntf    cn130676   5.137   2.938   4.843  0.1897 -0.0352 -0.0256
 5826ntf    sn230677   5.023   2.800   4.811  0.1114  0.0398 -0.0722
 5826ntf    nn330678   4.961   2.770   4.952 -0.1475  0.4072 -0.1071
 5826ntf    sn230679   4.817   2.716   4.986  0.2553 -0.5307  0.1334
 5826ntf    cn130680   4.867   2.587   5.104  0.1706 -0.4232  0.2883
 5826ntf    fn430681   5.141   3.024   4.742  0.2355 -0.1841 -0.1498
 5826ntf    fn430682   5.108   3.003   4.955 -0.0848  0.6301 -0.4730
 5826ntf    fn430683   5.264   2.902   4.838  0.1210 -0.2476 -0.2611
 5826ntf    on530684   4.932   2.867   4.721 -0.8531  0.0477  0.8977
 5826ntf    on530685   5.108   2.697   4.756  0.4443  0.3077 -0.0585
 5826ntf    on530686   4.752   2.639   4.884  0.0198 -0.1447 -0.0087
 5826ntf    on530687   4.738   2.816   5.054 -0.1620 -0.7016 -0.0958
 5826ntf    fn430688   4.956   2.512   5.042  0.0580 -0.4556  0.1645
 5826ntf    fn430689   4.923   2.631   5.215 -0.4212 -0.0595  0.4492
 5826ntf    fn430690   4.764   2.509   5.135 -0.1080 -0.2275 -0.1255
 5827ntf    cn130691   2.577   5.365   5.403  0.0155  0.5245 -0.0333
 5827ntf    sn230692   2.542   5.199   5.470  0.2236  0.3732 -0.2951
 5827ntf    nn330693   2.584   5.116   5.344 -0.3614 -0.1724 -0.1373
 5827ntf    sn230694   2.655   4.976   5.346 -0.0789 -0.0257  0.1248
 5827ntf    cn130695   2.825   5.041   5.354  0.0229 -0.2907  0.1088
 5827ntf    fn430696   2.708   5.378   5.390  0.0942 -0.4824 -0.3491
 5827ntf    fn430697   2.529   5.386   5.281  0.5640 -0.3347 -0.4134
 5827ntf    fn430698   2.533   5.462   5.481  0.0279  0.0893  0.5275
 5827ntf    on530699   2.631   5.202   5.584 -0.3737 -0.1402  0.1907
 5827ntf    on530700   2.398   5.192   5.484  0.1970 -0.1773 -0.8152
 5827ntf    on530701   2.655   4.900   5.224  0.3238 -0.0889  0.1626
 5827ntf    on530702   2.650   4.907   5.473 -0.0812  0.8589  0.6217
 5827ntf    fn430703   2.912   4.984   5.436  0.3875  0.4563  0.2533
 5827ntf    fn430704   2.884   5.041   5.236 -0.2140 -0.0710 -0.0107
 5827ntf    fn430705   2.820   5.164   5.401  0.4392 -0.2000 -0.0838
 5828ntf    cn130706   7.043   7.057   3.219  0.1268 -0.2878 -0.0169
 5828ntf    sn230707   6.963   6.950   3.342 -0.0086 -0.0627  0.0940
 5828ntf    nn330708   6.816   6.944   3.287  0.1018  0.1798 -0.2336
 5828ntf    sn230709   6.736   6.834   3.209  0.1235  0.0757 -0.1107
 5828ntf    cn130710   6.597   6.943   3.169 -0.2663 -0.3818 -0.0215
 5828ntf    fn430711   7.008   7.185   3.230  0.3719 -0.2078 -0.1627
 5828ntf    fn430712   7.173   7.042   3.235  0.1104  0.1531  0.5737
 5828ntf    fn430713   7.011   7.019   3.097 -0.2836 -0.2670  0.0813
 5828ntf    on530714   7.040   6.828   3.339 -0.2215 -0.2105  0.6011
 5828ntf    on530715   6.967   7.037   3.457  0.1473  0.5811 -0.3936
 5828ntf    on530716   6.676   6.728   3.286 -0.1883  0.1728 -0.2204
 5828ntf    on530717   6.807   6.797   3.089  0.3913  0.2062  0.0062
 5828ntf    fn430718   6.526   6.888   3.071 -0.4522 -0.6376  0.2569
 5828ntf    fn430719   6.520   6.968   3.273 -0.4073  0.0387 -0.2214
 5828ntf    fn430720   6.653   7.053   3.121 -0.4354  0.0388  0.7339
 5829ntf    cn130721   2.624   1.554   4.595 -0.0292  0.0825 -0.2668
 5829ntf    sn230722   2.681   1.717   4.651  0.0171 -0.1191  0.2825
 5829ntf    nn330723   2.544   1.774   4.702 -0.0799  0.3047 -0.4299
 5829ntf    sn230724   2.428   1.830   4.612  0.0619  0.5573 -0.4573
 5829ntf    cn130725   2.364   1.963   4.719 -0.0241  0.2652 -0.1414
 5829ntf    fn430726   2.730   1.476   4.588  0.2170  0.3352  0.4778
 5829ntf    fn430727   2.539   1.501   4.682  0.7751 -0.4908  0.1817
 5829ntf    fn430728   2.563   1.554   4.478 -0.0343  0.0206 -0.2642
 5829ntf    on530729   2.767   1.674   4.758  0.3649 -0.2281 -0.0375
 5829ntf    on530730   2.733   1.768   4.526 -0.3463  1.5902  0.7969
 5829ntf    on530731   2.319   1.736   4.602  0.3137  0.0628  1.0858
 5829ntf    on530732   2.457   1.889   4.484  0.6657 -0.1236 -0.6452
 5829ntf    fn430733   2.252   2.028   4.689 -0.2561  0.2447  0.6568
 5829ntf    fn430734   2.352   1.928   4.846 -0.3039 -0.9314 -0.4836
 5829ntf    fn430735   2.461   2.053   4.726  0.2178  0.0319 -0.4440
 5830ntf    cn130736   6.083   5.760   1.149 -0.0809  0.4892 -0.6352
 5830ntf    sn230737   6.165   5.820   0.999  0.0395  0.6190 -0.5180
 5830ntf    nn330738   6.304   5.851   1.066  0.1635  0.0350 -0.5011
 5830ntf    sn230739   6.444   5.783   1.046  0.1816 -0.0628 -0.0640
 5830ntf    cn130740   6.539   5.914   1.128 -0.5521  0.6015 -0.2597
 5830ntf    fn430741   5.969   5.694   1.134  0.4621 -0.8121  0.6603
 5830ntf    fn430742   6.159   5.683   1.226 -0.5418  0.9293  0.2843
 5830ntf    fn430743   6.046   5.856   1.232  0.3942  0.0824  0.0602
 5830ntf    on530744   6.172   5.701   0.918  0.0879 -0.1110  0.5331
 5830ntf    on530745   6.091   5.939   0.968 -0.0149  0.5775 -0.5487
 5830ntf    on530746   6.486   5.787   0.908  0.2432 -0.2542 -0.0502
 5830ntf    on530747   6.466   5.664   1.124 -0.2434 -0.2328 -0.2023
 5830ntf    fn430748   6.499   5.944   1.251  1.0343 -0.2204  0.5017
 5830ntf    fn430749   6.664   5.873   1.148 -0.5621  0.3356 -0.7358
 5830ntf    fn430750   6.534   6.022   1.051  0.5594  0.5114 -0.4854
 5831ntf    cn130751   5.836   1.815   1.226 -0.1008  0.1357 -0.0798
 5831ntf    sn230752   5.732   1.924   1.124 -0.2231 -0.0508 -0.1562
 5831ntf    nn330753   5.667   1.809   1.039 -0.0346 -0.1694 -0.1406
 5831ntf    sn230754   5.528   1.738   1.052 -0.1380  0.0697  0.0659
 5831ntf    cn130755   5.430   1.851   0.948 -0.0261  0.4764  0.4012
 5831ntf    fn430756   5.912   1.887   1.307  0.1632 -0.1747 -0.0479
 5831ntf    fn430757   5.755   1.737   1.296  0.4744 -0.1254  0.2984
 5831ntf    fn430758   5.916   1.732   1.162  0.0444 -0.0259  0.3043
 5831ntf    on530759   5.647   2.005   1.207 -0.7231 -0.5180 -0.2054
 5831ntf    on530760   5.834   1.987   1.044 -0.6765  0.0036 -0.6978
 5831ntf    on530761   5.473   1.745   1.185 -0.5237 -0.2752 -0.0739
 5831ntf    on530762   5.525   1.608   0.990  0.2042  0.0708  0.0418
 5831ntf    fn430763   5.393   1.962   1.009 -0.5103  0.2697  0.4917
 5831ntf    fn430764   5.491   1.889   0.837 -0.8603 -0.0667 -0.2520
 5831ntf    fn430765   5.320   1.791   0.908  0.5175  0.1125 -0.5773
 5832ntf    cn130766   6.537   3.487   0.289 -0.2360  0.1697  0.1555
 5832ntf    sn230767   6.478   3.367   0.166  0.0046 -0.1259  0.3276
 5832ntf    nn330768   6.446   3.457   0.041 -0.3270  0.4899  0.8474
 5832ntf    sn230769   6.310   3.529   0.011 -0.4379 -0.0553 -0.0199
 5832ntf    cn130770   6.221   3.408  -0.090 -0.2035 -0.1198 -0.1503
 5832ntf    fn430771   6.436   3.554   0.342  0.0688  0.2748  0.6062
 5832ntf    fn430772   6.608   3.440   0.390 -0.0156 -0.0896 -0.1184
 5832ntf    fn430773   6.626   3.575   0.245 -0.5218  0.4836  0.1931
 5832ntf    on530774   6.596   3.291   0.132 -0.3273 -0.3107 -0.4393
 5832ntf    on530775   6.372   3.296   0.232 -0.3280 -0.3724 -0.4662
 5832ntf    on530776   6.324   3.650  -0.067 -0.2486 -0.1085 -0.0690
 5832ntf    on530777   6.215   3.546   0.118 -0.6391 -0.1582 -0.1838
 5832ntf    fn430778   6.263   3.404  -0.216  1.1486 -0.4616  0.2998
 5832ntf    fn430779   6.228   3.285  -0.042 -0.3053 -0.0703 -0.0096
 5832ntf    fn430780   6.093   3.438  -0.100 -0.1476  0.1837  0.0385
 5833ntf    cn130781   1.631   4.186   5.836  0.2882 -0.2525 -0.1480
 5833ntf    sn230782   1.792   4.206   5.920  0.1284  0.0852  0.0791
 5833ntf    nn330783   1.756   4.310   6.032 -1.0401 -0.2282  0.0136
 5833ntf    sn230784   1.760   4.466   6.015  0.2173 -0.2899 -0.3923
 5833ntf    cn130785   1.580   4.490   6.004  0.3110  0.4615 -0.3413
 5833ntf    fn430786   1.545   4.137   5.923  0.4957  0.0572  0.2348
 5833ntf    fn430787   1.577   4.296   5.787  0.3809 -0.1884 -0.1067
 5833ntf    fn430788   1.641   4.094   5.742  0.2053  0.0521 -0.4547
 5833ntf    on530789   1.818   4.073   5.968 -0.2696 -0.2457 -0.5983
 5833ntf    on530790   1.884   4.247   5.817  0.0313  0.6355  0.2075
 5833ntf    on530791   1.805   4.526   5.892 -0.1559 -0.1424 -0.4602
 5833ntf    on530792   1.800   4.542   6.131 -1.1346 -0.6354  0.3272
 5833ntf    fn430793   1.517   4.376   5.982  0.0936  0.4764  0.1940
 5833ntf    fn430794   1.533   4.531   6.121  0.2606 -0.1435 -0.1473
 5833ntf    fn430795   1.542   4.584   5.918 -0.3973  0.4503 -0.0476
 5834ntf    cn130796   0.507   5.176   3.885 -0.1067 -0.4880 -0.0097
 5834ntf    sn230797   0.376   5.249   3.987  0.4065 -0.0608  0.3500
 5834ntf    nn330798   0.273   5.130   3.995  0.1472  0.1038 -0.4519
 5834ntf    sn230799   0.144   5.113   3.907 -0.2055  0.1568  0.0504
 5834ntf    cn130800   0.130   4.937   3.950 -0.3041  0.0701 -0.3400
 5834ntf    fn430801   0.619   5.247   3.878 -0.3738 -0.0134  0.4631
 5834ntf    fn430802   0.540   5.054   3.926  0.6869 -0.2632  0.0339
 5834ntf    fn430803   0.464   5.169   3.760 -0.1771 -0.7199  0.0268
 5834ntf    on530804   0.434   5.269   4.118  0.0391  0.3712  0.4522
 5834ntf    on530805   0.323   5.364   3.917  0.4793  0.1166  0.5840
 5834ntf    on530806   0.166   5.100   3.765 -0.5546 -0.7179  0.0717
 5834ntf    on530807   0.028   5.177   3.964 -0.5201 -0.4526  0.1047
 5834ntf    fn430808   0.035   4.868   3.888  0.1864 -0.4633 -0.5071
 5834ntf    fn430809   0.239   4.867   3.925 -0.2055  0.3098 -0.5879
 5834ntf    fn430810   0.106   4.920   4.079 -0.7023  0.2949 -0.3836
 5835ntf    cn130811   0.149   2.196   6.565  0.0321 -0.0464  0.3555
 5835ntf    sn230812   0.120   2.302   6.709 -0.2246  0.1592  0.1515
 5835ntf    nn330813   0.077   2.442   6.651 -0.0827  0.4745  0.7879
 5835ntf    sn230814   0.170   2.558   6.603 -0.1114  0.1362 -0.1202
 5835ntf    cn130815   0.225   2.648   6.751  0.5245  0.0757 -0.3178
 5835ntf    fn430816   0.254   2.239   6.497  0.1798 -0.2747  0.4362
 5835ntf    fn430817   0.175   2.069   6.595  0.3800 -0.0059  0.2390
 5835ntf    fn430818   0.047   2.201   6.481  0.0849 -0.7203  0.2420
 5835ntf    on530819   0.017   2.230   6.780 -0.1536  0.0506  0.1442
 5835ntf    on530820   0.247   2.302   6.777  0.0919 -0.0261 -0.4328
 5835ntf    on530821   0.097   2.667   6.542 -0.5181 -0.2720 -0.3660
 5835ntf    on530822   0.288   2.509   6.537  0.3692  0.6254  0.3616
 5835ntf    fn430823   0.292   2.760   6.728 -0.0739  0.4172 -0.4223
 5835ntf    fn430824   0.131   2.696   6.831  0.4700 -0.4536 -0.0620
 5835ntf    fn430825   0.298   2.572   6.831  0.3413  0.1700 -0.0599
 5836ntf    cn130826   6.801   1.082   6.832  0.2874  0.7826  0.0331
 5836ntf    sn230827   6.967   1.154   6.816  0.6696 -0.0565  0.1710
 5836ntf    nn330828   7.056   1.034   6.863  0.0893 -0.3535  0.5233
 5836ntf    sn230829   7.153   0.937   6.785 -0.2029 -0.2380  0.0071
 5836ntf    cn130830   7.304   1.003   6.862 -0.1609 -0.4783  0.1314
 5836ntf    fn430831   6.715   1.169   6.780 -0.0264  0.4812  0.0482
 5836ntf    fn430832   6.792   0.970   6.762 -0.6313  0.5270  0.5448
 5836ntf    fn430833   6.757   1.061   6.955 -0.2768  0.2867 -0.2497
 5836ntf    on530834   6.981   1.198   6.680  1.1160 -0.6693  0.0174
 5836ntf    on530835   6.976   1.256   6.918  0.1442 -0.5367  0.7010
 5836ntf    on530836   7.168   0.959   6.644  0.4309 -0.2262  0.0733
 5836ntf    on530837   7.133   0.800   6.826  0.4077 -0.3502 -0.0666
 5836ntf    fn430838   7.296   0.998   6.994 -0.5624  0.2640  0.1418
 5836ntf    fn430839   7.410   0.940   6.813 -0.0523 -0.1197 -0.1013
 5836ntf    fn430840   7.328   1.127   6.823 -0.9828 -0.2566  0.3155
 5837ntf    cn130841   1.063   6.418   6.763 -0.4683  0.0628 -0.1367
 5837ntf    sn230842   1.051   6.596   6.730 -0.2985  0.0921 -0.0445
 5837ntf    nn330843   0.909   6.623   6.791 -0.3338 -0.3073  0.0508
 5837ntf    sn230844   0.866   6.612   6.942  0.2383 -0.1600  0.2271
 5837ntf    cn130845   0.841   6.791   6.967  0.4704 -0.1189  0.1666
 5837ntf    fn430846   1.030   6.390   6.888 -0.2659 -0.0392 -0.1051
 5837ntf    fn430847   0.975   6.349   6.692  0.3018 -0.8135 -0.2623
 5837ntf    fn430848   1.182   6.364   6.739 -0.3119  0.2928  0.1102
 5837ntf    on530849   1.161   6.658   6.799  0.1423 -0.3566 -0.3429
 5837ntf    on530850   1.041   6.602   6.586 -0.3477  0.3409 -0.0318
 5837ntf    on530851   0.959   6.578   7.046  0.3348  0.4947  0.3582
 5837ntf    on530852   0.739   6.545   6.956  0.0054  0.1947 -0.1426
 5837ntf    fn430853   0.950   6.861   6.941  0.7114 -0.5804 -0.0821
 5837ntf    fn430854   0.754   6.837   6.878  0.1425 -0.6809  0.1913
 5837ntf    fn430855   0.801   6.825   7.088  0.2091  0.0738  0.0247
 5838ntf    cn130856   3.207   3.844   2.346 -0.0634  0.0274  0.5646
 5838ntf    sn230857   3.294   4.004   2.346  0.3507 -0.1956  0.0087
 5838ntf    nn330858   3.410   3.955   2.441  0.4737 -0.1099 -0.0969
 5838ntf    sn230859   3.506   4.043   2.529 -0.0319  0.2342  0.1208
 5838ntf    cn130860   3.663   3.954   2.506 -0.3160 -0.2193 -0.0993
 5838ntf    fn430861   3.094   3.855   2.278  0.1199 -0.1458  0.2265
 5838ntf    fn430862   3.271   3.746   2.284 -0.0952  0.3792 -0.0355
 5838ntf    fn430863   3.170   3.812   2.469  0.3329 -0.5107  0.5433
 5838ntf    on530864   3.329   4.021   2.207  0.5200  0.7300  0.1628
 5838ntf    on530865   3.210   4.105   2.404  0.6342 -0.1226  0.3020
 5838ntf    on530866   3.487   4.025   2.671 -0.3677  0.0559  0.0548
 5838ntf    on530867   3.532   4.180   2.492 -0.1084  0.2225  0.0227
 5838ntf    fn430868   3.750   3.979   2.603 -0.6021  0.1478  0.0673
 5838ntf    fn430869   3.648   3.823   2.504 -0.3597 -0.2166  0.0202
 5838ntf    fn430870   3.716   4.000   2.394  0.2907 -0.3170  0.1414
 5839ntf    cn130871   4.661   7.003   2.467 -0.2823  0.0109  0.5696
 5839ntf    sn230872   4.731   6.938   2.622  0.3933 -0.2692  0.1481
 5839ntf    nn330873   4.599   6.929   2.707  0.3385 -0.0471  0.0874
 5839ntf    sn230874   4.487   6.820   2.696 -0.2005  0.5334 -0.2328
 5839ntf    cn130875   4.359   6.904   2.598 -0.2974  0.5499 -0.0944
 5839ntf    fn430876   4.577   7.102   2.493  0.0506  0.4378  0.0281
 5839ntf    fn430877   4.750   7.067   2.394 -0.4563  0.4277  0.7150
 5839ntf    fn430878   4.592   6.918   2.393  0.0695  0.2634 -0.0563
 5839ntf    on530879   4.800   6.815   2.594 -0.3724 -0.5345 -0.6202
 5839ntf    on530880   4.820   7.040   2.673 -0.2841  0.1895  0.4202
 5839ntf    on530881   4.435   6.797   2.829 -0.6106 -0.3001 -0.5327
 5839ntf    on530882   4.502   6.698   2.621  0.1222  0.7086 -0.4552
 5839ntf    fn430883   4.235   6.882   2.637  0.2111 -0.8588  0.7853
 5839ntf    fn430884   4.376   7.035   2.586  0.0266  0.5251  0.0727
 5839ntf    fn430885   4.372   6.871   2.471  0.1269 -0.1007  0.1174
 5840ntf    cn130886   2.859   7.361   2.880  0.2612  0.2600  0.2448
 5840ntf    sn230887   2.871   7.195   2.808 -0.2986  0.2275  0.2209
 5840ntf    nn330888   2.747   7.123   2.870  0.0449 -1.0136 -0.4985
 5840ntf    sn230889   2.602   7.101   2.815 -0.3460 -0.3164  0.2342
 5840ntf    cn130890   2.610   6.943   2.726 -0.4931 -0.2106  0.0318
 5840ntf    fn430891   2.740   7.412   2.855 -0.0226 -0.3375  0.3582
 5840ntf    fn430892   2.864   7.361   3.013 -0.0956  0.2234  0.2580
 5840ntf    fn430893   2.950   7.448   2.839  0.6102 -0.3300 -0.2432
 5840ntf    on530894   2.872   7.216   2.665  0.1021  0.4044  0.2477
 5840ntf    on530895   2.996   7.147   2.862 -0.3472  0.0417  0.1676
 5840ntf    on530896   2.564   7.188   2.706 -0.8487 -0.0571  0.6137
 5840ntf    on530897   2.510   7.064   2.920 -0.8295  0.7320  0.1900
 5840ntf    fn430898   2.530   6.933   2.621  0.0324 -0.0598 -0.3862
 5840ntf    fn430899   2.730   6.927   2.672 -0.4144 -0.0214  0.1500
 5840ntf    fn430900   2.596   6.838   2.805 -0.0237 -0.0983  0.2654
 5841ntf    cn130901   2.030   5.048   0.784  0.3975  0.0273 -0.4118
 5841ntf    sn230902   2.129   4.896   0.774  0.0289 -0.2486  0.0379
 5841ntf    nn330903   2.167   4.904   0.622  0.1871  0.0908  0.0938
 5841ntf    sn230904   2.303   4.929   0.547  0.2788 -0.1568  0.1767
 5841ntf    cn130905   2.289   5.102   0.494  0.1343 -0.2044  0.0566
 5841ntf    fn430906   2.080   5.139   0.703  0.0294  0.4076 -0.2178
 5841ntf    fn430907   1.907   5.018   0.745  0.1695  0.7055 -0.2262
 5841ntf    fn430908   2.017   5.104   0.903  0.0784 -0.3109 -0.2837
 5841ntf    on530909   2.241   4.905   0.865  0.3099  0.8444 -0.3935
 5841ntf    on530910   2.047   4.785   0.813 -0.5432  0.0361 -0.3467
 5841ntf    on530911   2.299   4.863   0.419 -0.5402 -0.3799  0.3103
 5841ntf    on530912   2.429   4.927   0.616 -0.0987 -0.1094  0.8748
 5841ntf    fn430913   2.279   5.178   0.603  0.6653  0.4695 -0.3572
 5841ntf    fn430914   2.381   5.144   0.409  0.2132 -0.9963 -0.2492
 5841ntf    fn430915   2.173   5.122   0.434 -0.0048 -0.2504  0.3064
 5842ntf    cn130916   4.270   3.942   5.733 -0.5976 -0.2312 -0.0528
 5842ntf    sn230917   4.441   3.983   5.779 -0.6310  0.1339 -0.2549
 5842ntf    nn330918   4.421   3.980   5.934  0.6575  0.2511 -0.0697
 5842ntf    sn230919   4.520   3.926   6.043 -0.2674 -0.1793  0.5728
 5842ntf    cn130920   4.616   4.078   6.067 -0.0431 -0.2038 -0.1532
 5842ntf    fn430921   4.202   4.054   5.742  0.1494  0.1941  0.4514
 5842ntf    fn430922   4.261   3.885   5.614  0.5613  0.1839 -0.3570
 5842ntf    fn430923   4.213   3.854   5.813 -0.6128 -0.3850 -0.2298
 5842ntf    on530924   4.517   3.875   5.721 -0.2829  0.2325  0.0128
 5842ntf    on530925   4.462   4.115   5.725  0.0215  0.0691 -0.1762
 5842ntf    on530926   4.615   3.827   5.997 -0.4662 -0.3216  0.4626
 5842ntf    on530927   4.457   3.903   6.170 -0.0713  0.1239  0.7261
 5842ntf    fn430928   4.664   4.130   5.955 -0.1828  0.2097 -0.0242
 5842ntf    fn430929   4.545   4.172   6.126 -0.1649 -0.3186 -0.1172
 5842ntf    fn430930   4.718   4.048   6.145 -0.3103 -0.0781  0.2443
 5843ntf    cn130931   5.827   4.853   1.379  0.4446 -0.2446 -0.1617
 5843ntf    sn230932   5.751   4.811   1.539 -0.0335 -0.0924 -0.3487
 5843ntf    nn330933   5.727   4.954   1.598 -0.2701 -0.2594 -0.0376
 5843ntf    sn230934   5.600   5.000   1.679  0.1263  0.0436  0.4216
 5843ntf    cn130935   5.507   5.094   1.554  0.1536 -0.0806  0.3088
 5843ntf    fn430936   5.875   4.748   1.315  0.5964 -0.1144 -0.2612
 5843ntf    fn430937   5.745   4.914   1.295 -0.0289 -0.1553  0.3547
 5843ntf    fn430938   5.930   4.934   1.397 -0.1120  0.3884  0.2405
 5843ntf    on530939   5.637   4.732   1.497 -0.0945  0.0605 -0.4714
 5843ntf    on530940   5.857   4.749   1.614  0.0474  0.2333 -0.1959
 5843ntf    on530941   5.631   5.097   1.781  0.0364 -0.1561  0.6398
 5843ntf    on530942   5.519   4.889   1.723  0.0661 -0.1694 -0.2041
 5843ntf    fn430943   5.589   5.134   1.458 -0.5077  0.8132  0.1085
 5843ntf    fn430944   5.410   5.022   1.501  0.3122 -0.0659 -0.0067
 5843ntf    fn430945   5.454   5.202   1.609  0.2243  0.3121 -0.3770
 5844ntf    cn130946   2.534   4.409   6.656  0.2244  0.2944 -0.1105
 5844ntf    sn230947   2.508   4.436   6.834 -0.1471  0.3269 -0.1689
 5844ntf    nn330948   2.634   4.520   6.872 -0.0830  0.1412  0.0327
 5844ntf    sn230949   2.652   4.632   6.981 -0.0628  0.0673  0.1050
 5844ntf    cn130950   2.620   4.784   6.886 -0.2500 -0.0619 -0.0408
 5844ntf    fn430951   2.653   4.356   6.635  0.1744 -0.0766  0.4926
 5844ntf    fn430952   2.442   4.327   6.607  0.0119  0.6742 -0.3493
 5844ntf    fn430953   2.536   4.519   6.583  0.1451  0.2502 -0.1787
 5844ntf    on530954   2.380   4.503   6.838 -0.2286  0.1931 -0.4969
 5844ntf    on530955   2.508   4.300   6.882 -1.0477  0.4357  0.1601
 5844ntf    on530956   2.787   4.635   7.031 -0.1532 -0.9540  0.4385
 5844ntf    on530957   2.551   4.634   7.084 -0.4610  0.3908 -0.2899
 5844ntf    fn430958   2.495   4.812   6.856 -0.3258  0.1007  0.4156
 5844ntf    fn430959   2.668   4.885   6.956 -0.0809 -0.4253  0.3746
 5844ntf    fn430960   2.683   4.781   6.770  0.1112  0.0769  0.1498
 5845ntf    cn130961   2.381   6.569   0.396 -0.4908 -0.4570 -0.2399
 5845ntf    sn230962   2.513   6.517   0.282 -0.0266  0.0580  0.0591
 5845ntf    nn330963   2.434   6.408   0.202 -0.5026 -0.0622  0.6829
 5845ntf    sn230964   2.447   6.251   0.197 -0.0882 -0.0170  0.2143
 5845ntf    cn130965   2.563   6.238   0.057 -0.0887 -0.4836  0.2580
 5845ntf    fn430966   2.324   6.469   0.461 -0.3868 -0.1592  0.3148
 5845ntf    fn430967   2.430   6.650   0.488 -0.4695 -0.6374 -0.0922
 5845ntf    fn430968   2.285   6.632   0.330 -0.0303  0.5168  0.0044
 5845ntf    on530969   2.539   6.630   0.197  0.3167 -0.5211 -0.6161
 5845ntf    on530970   2.622   6.465   0.361  0.2198 -0.1976 -0.4416
 5845ntf    on530971   2.325   6.186   0.160 -0.1883  0.1606  0.2311
 5845ntf    on530972   2.521   6.204   0.312  0.2064 -0.1821 -0.0410
 5845ntf    fn430973   2.630   6.351   0.052  0.0606 -0.5417  0.7938
 5845ntf    fn430974   2.650   6.138   0.068  0.5251  0.0416  0.2282
 5845ntf    fn430975   2.499   6.224  -0.058  0.5549 -0.0520 -0.1540
 5846ntf    cn130976   5.807   4.969   6.284 -0.0186  0.0136 -0.4359
 5846ntf    sn230977   5.955   5.075   6.288  0.0928 -0.1411 -0.4220
 5846ntf    nn330978   6.059   4.981   6.218  0.4752 -0.2295  0.2495
 5846ntf    sn230979   6.090   4.960   6.065 -0.0382  0.0904  0.0948
 5846ntf    cn130980   6.076   4.779   6.061  0.2196  0.0662  0.2154
 5846ntf    fn430981   5.833   4.849   6.334  0.1812  0.1897 -0.1058
 5846ntf    fn430982   5.712   5.011   6.366  0.4950 -0.5859  0.4991
 5846ntf    fn430983   5.760   4.947   6.163 -0.2295  0.2001 -0.3873
 5846ntf    on530984   5.921   5.196   6.217  0.2983 -0.2417 -0.6896
 5846ntf    on530985   5.985   5.081   6.429  0.1257  0.6863 -0.4584
 5846ntf    on530986   6.229   4.978   6.032  0.0904 -0.7270  0.1652
 5846ntf    on530987   5.986   5.003   5.976 -0.2747 -0.6440  0.0083
 5846ntf    fn430988   6.176   4.707   6.108  0.0947  0.0309  0.4259
 5846ntf    fn430989   5.966   4.741   6.123 -0.1629  0.6526 -0.1013
 5846ntf    fn430990   6.062   4.740   5.935  0.3421  0.6616  0.0122
 5847ntf    cn130991   1.397   0.577   2.166 -0.2449  0.1013  0.1430
 5847ntf    sn230992   1.234   0.655   2.148 -0.2447  0.1452  0.3272
 5847ntf    nn330993   1.232   0.643   1.991  0.6421  0.0016  0.3214
 5847ntf    sn230994   1.265   0.748   1.879 -0.1107 -0.1203 -0.0228
 5847ntf    cn130995   1.404   0.664   1.797 -0.3051 -0.0316 -0.4428
 5847ntf    fn430996   1.497   0.652   2.124  0.0078 -0.3046  0.0161
 5847ntf    fn430997   1.422   0.542   2.291 -0.1261 -0.7546 -0.1197
 5847ntf    fn430998   1.412   0.467   2.096  0.0595 -0.4166  1.0069
 5847ntf    on530999   1.143   0.567   2.216 -0.3690 -0.3092 -0.4114
 5847ntf    on531000   1.247   0.787   2.206 -0.5086  0.2705  0.1066
 5847ntf    on531001   1.306   0.878   1.925 -0.7174 -0.0263  0.2646
 5847ntf    on531002   1.168   0.758   1.773 -0.2392 -0.4239  0.0660
 5847ntf    fn431003   1.507   0.640   1.876 -0.8319 -0.1908  0.2048
 5847ntf    fn431004   1.370   0.540   1.764 -0.6751  0.0428 -0.3445
 5847ntf    fn431005   1.452   0.725   1.689  0.3681 -0.0179 -0.1392
 5848ntf    cn131006   7.413   2.799   1.495  0.1287  0.2198  0.0115
 5848ntf    sn231007   7.490   2.891   1.631 -0.1788  0.3368  0.1061
 5848ntf    nn331008   7.612   2.963   1.564 -0.2330  0.3389  0.0102
 5848ntf    sn231009   7.756   2.904   1.544 -0.3746  0.0712 -0.2172
 5848ntf    cn131010   7.836   2.980   1.689 -0.6084 -0.1064  0.0051
 5848ntf    fn431011   7.488   2.699   1.452 -0.2044 -0.1879  0.3693
 5848ntf    fn431012   7.301   2.737   1.526  0.2799 -0.0740 -0.0280
 5848ntf    fn431013   7.385   2.870   1.386  0.1069 -0.0552 -0.1634
 5848ntf    on531014   7.399   2.998   1.667 -0.0461  0.7283 -0.7112
 5848ntf    on531015   7.512   2.794   1.736 -0.0255  0.0685 -0.1715
 5848ntf    on531016   7.826   2.964   1.433 -0.4332  0.1234 -0.2259
 5848ntf    on531017   7.780   2.763   1.561  0.3349  0.1938 -0.1693
 5848ntf    fn431018   7.760   2.957   1.795 -0.7934 -0.3766 -0.1817
 5848ntf    fn431019   7.955   2.931   1.720 -0.3292  0.5872  0.0485
 5848ntf    fn431020   7.849   3.111   1.676  0.0973 -0.1386  0.3661
 5849ntf    cn131021   7.446   1.392   2.504  0.2485 -0.3531 -0.1996
 5849ntf    sn231022   7.573   1.489   2.417  0.2561  0.0915  0.2974
 5849ntf    nn331023   7.480   1.604   2.366 -0.2127 -0.2815  0.2994
 5849ntf    sn231024   7.399   1.617   2.232  0.2422  0.1788  0.0626
 5849ntf    cn131025   7.432   1.789   2.185 -0.7469  0.3425 -0.0433
 5849ntf    fn431026   7.402   1.471   2.601  0.1370 -0.2830 -0.3084
 5849ntf    fn431027   7.343   1.363   2.426 -0.0899 -0.4890  0.2930
 5849ntf    fn431028   7.488   1.276   2.550  0.1039 -0.2196  0.2808
 5849ntf    on531029   7.658   1.525   2.528  0.4379 -0.7548  0.4413
 5849ntf    on531030   7.639   1.402   2.322 -0.2688 -0.5394  0.5000
 5849ntf    on531031   7.256   1.618   2.249  0.2295  0.3774 -0.0523
 5849ntf    on531032   7.447   1.554   2.111  0.0184 -0.0150  0.0735
 5849ntf    fn431033   7.355   1.801   2.078 -0.1125  0.2930 -0.5123
 5849ntf    fn431034   7.384   1.871   2.277 -0.2842  0.5959 -0.0289
 5849ntf    fn431035   7.557   1.818   2.153 -0.5597 -0.3085  0.0875
 5850ntf    cn131036   2.073   5.599   2.672  0.1926 -0.1772 -0.4681
 5850ntf    sn231037   1.938   5.673   2.576 -0.2213  0.1923  0.3882
 5850ntf    nn331038   1.832   5.559   2.552  0.1111 -0.2104  0.8219
 5850ntf    sn231039   1.866   5.419   2.490 -0.3593 -0.0039  0.0852
 5850ntf    cn131040   1.808   5.451   2.321  0.0830 -0.6604 -0.1981
 5850ntf    fn431041   2.028   5.507   2.755  0.5377 -0.0286 -0.1159
 5850ntf    fn431042   2.163   5.548   2.589  0.4266  0.0597 -0.3598
 5850ntf    fn431043   2.146   5.686   2.741 -0.1048 -0.0719 -0.2871
 5850ntf    on531044   1.892   5.773   2.668 -0.4173  0.2335  0.2489
 5850ntf    on531045   1.993   5.709   2.448  0.0108 -0.2613  0.3560
 5850ntf    on531046   1.786   5.311   2.543  0.1673 -0.7193 -0.5559
 5850ntf    on531047   2.006   5.389   2.477 -0.2902  0.4482 -0.2208
 5850ntf    fn431048   1.685   5.500   2.313  0.2961 -0.1375 -0.3804
 5850ntf    fn431049   1.888   5.543   2.268 -0.1157 -0.4276 -0.0994
 5850ntf    fn431050   1.811   5.348   2.238  0.2061 -0.5556 -0.3242
 5851ntf    cn131051   1.229   2.033   2.727 -0.2005 -0.4781  0.1735
 5851ntf    sn231052   1.223   1.973   2.556 -0.0884 -0.2749  0.0982
 5851ntf    nn331053   1.363   1.902   2.544  0.4161  0.6417  0.4310
 5851ntf    sn231054   1.453   1.900   2.415  0.3063  0.2183  0.3592
 5851ntf    cn131055   1.597   1.980   2.493  0.3444  0.5902 -0.0883
 5851ntf    fn431056   1.218   1.933   2.813 -0.9111 -0.3785  0.2121
 5851ntf    fn431057   1.339   2.097   2.763 -0.3561 -0.1463  0.0708
 5851ntf    fn431058   1.129   2.118   2.747  0.1390  0.0141 -0.1778
 5851ntf    on531059   1.118   1.875   2.561  0.0915 -0.4819 -0.1746
 5851ntf    on531060   1.203   2.098   2.487 -0.0723 -0.4958 -0.3082
 5851ntf    on531061   1.417   1.976   2.298  0.6283 -0.4225 -0.1628
 5851ntf    on531062   1.510   1.769   2.394 -0.2261  0.1093 -0.3958
 5851ntf    fn431063   1.709   1.974   2.424  0.4720 -0.2943  0.1816
 5851ntf    fn431064   1.583   2.108   2.522 -0.1962  0.5428 -0.1330
 5851ntf    fn431065   1.623   1.924   2.610  0.1999  0.1246 -0.2783
 5852ntf    cn131066   2.683   2.299   3.074 -0.0337 -0.1121 -0.2999
 5852ntf    sn231067   2.549   2.341   3.189  0.3830  0.1042  0.1128
 5852ntf    nn331068   2.598   2.269   3.319  0.3122  0.0010  0.0831
 5852ntf    sn231069   2.569   2.120   3.360 -0.2033  0.1813  0.3872
 5852ntf    cn131070   2.722   2.074   3.447  0.1852 -0.1274 -0.4481
 5852ntf    fn431071   2.797   2.333   3.133 -0.0980 -0.3133 -0.0595
 5852ntf    fn431072   2.688   2.170   3.044 -0.7578 -0.3183  0.4351
 5852ntf    fn431073   2.676   2.364   2.958 -0.1502  0.0288 -0.2150
 5852ntf    on531074   2.570   2.482   3.207  0.1891  0.1249  0.1777
 5852ntf    on531075   2.427   2.296   3.125  0.8617  0.1416 -0.8423
 5852ntf    on531076   2.559   2.021   3.256  0.0255  0.1562  0.3876
 5852ntf    on531077   2.469   2.108   3.463 -0.1396 -0.6374  0.3573
 5852ntf    fn431078   2.773   2.177   3.513 -0.3456 -0.3099  0.2592
 5852ntf    fn431079   2.715   1.983   3.543  0.1709  0.3828  0.0424
 5852ntf    fn431080   2.820   2.037   3.367  1.1612 -0.3921  0.8411
 5853ntf    cn131081   4.822   4.612   3.110  0.1591 -0.0045  0.6090
 5853ntf    sn231082   4.771   4.786   3.089 -0.0022 -0.1495 -0.2546
 5853ntf    nn331083   4.795   4.812   2.936  0.5615 -0.0335 -0.1475
 5853ntf    sn231084   4.707   4.761   2.817  0.2282 -0.0455  0.1029
 5853ntf    cn131085   4.727   4.905   2.708 -0.0369 -0.4778 -0.5240
 5853ntf    fn431086   4.953   4.602   3.093  0.0620 -0.1600 -0.0668
 5853ntf    fn431087   4.779   4.564   3.225 -0.3815  0.5672  0.6489
 5853ntf    fn431088   4.760   4.537   3.021 -0.1353  0.8164  0.1072
 5853ntf    on531089   4.633   4.783   3.128 -0.1301 -0.3515 -0.7154
 5853ntf    on531090   4.865   4.864   3.166 -0.2361 -0.2300  0.1177
 5853ntf    on531091   4.563   4.761   2.827  0.2061 -0.4535 -0.1752
 5853ntf    on531092   4.774   4.656   2.744 -0.3377 -0.2368 -0.1417
 5853ntf    fn431093   4.700   5.020   2.767  0.1420 -0.5095 -0.3785
 5853ntf    fn431094   4.853   4.915   2.668 -0.1437  0.4508 -0.6429
 5853ntf    fn431095   4.656   4.897   2.597 -0.3912 -0.5496 -0.2929
 5854ntf    cn131096   4.524   7.478   7.065 -0.0253 -0.1325  0.2387
 5854ntf    sn231097   4.447   7.358   7.179 -0.1806 -0.3382 -0.0817
 5854ntf    nn331098   4.400   7.459   7.290  0.3183  0.0273 -0.1961
 5854ntf    sn231099   4.260   7.526   7.310  0.1320 -0.2608 -0.5158
 5854ntf    cn131100   4.258   7.548   7.491 -0.1546 -0.0005 -0.5495
 5854ntf    fn431101   4.435   7.557   7.009 -0.2876 -0.3637  0.3285
 5854ntf    fn431102   4.611   7.557   7.125  0.1614  0.1865 -0.4465
 5854ntf    fn431103   4.581   7.420   6.961 -0.0731 -0.0121  0.1467
 5854ntf    on531104   4.345   7.304   7.092 -0.6411  0.0603  0.2090
 5854ntf    on531105   4.555   7.272   7.220 -0.1006  0.0949  0.6373
 5854ntf    on531106   4.148   7.437   7.289  0.4337 -0.9212  0.6021
 5854ntf    on531107   4.250   7.659   7.256 -0.0413  0.1571  0.5131
 5854ntf    fn431108   4.249   7.434   7.557 -0.1582 -0.2269 -0.9361
 5854ntf    fn431109   4.362   7.612   7.542  0.0707 -0.6675 -0.1724
 5854ntf    fn431110   4.154   7.619   7.532  0.1196  0.1575 -0.1221
 5855ntf    cn131111   6.812   6.839   7.394  0.1032 -0.5011 -0.1079
 5855ntf    sn231112   6.657   6.902   7.324  0.1940 -0.2726 -0.1018
 5855ntf    nn331113   6.569   6.779   7.365  0.3468 -0.1053  0.7412
 5855ntf    sn231114   6.513   6.658   7.282  0.2010  0.4254  0.0547
 5855ntf    cn131115   6.462   6.546   7.416  0.0664  0.3221 -0.0834
 5855ntf    fn431116   6.795   6.761   7.500 -0.1552  0.2311  0.3917
 5855ntf    fn431117   6.874   6.780   7.293  0.1140 -0.4272 -0.1445
 5855ntf    fn431118   6.900   6.928   7.436 -0.1656 -0.3395  0.1144
 5855ntf    on531119   6.621   7.021   7.398  0.2007 -0.1011 -0.3701
 5855ntf    on531120   6.677   6.919   7.182 -0.1153  0.1019 -0.1021
 5855ntf    on531121   6.613   6.581   7.213  0.1765  0.3824  0.0668
 5855ntf    on531122   6.387   6.674   7.213  0.0131  0.5215  0.4141
 5855ntf    fn431123   6.569   6.493   7.473 -0.3624 -0.2711  0.1770
 5855ntf    fn431124   6.395   6.602   7.516 -0.4169 -0.1528 -0.1356
 5855ntf    fn431125   6.390   6.443   7.374  0.2453 -0.0759  0.5781
 5856ntf    cn131126   6.125   0.281   4.937  0.1268 -0.0750 -0.2128
 5856ntf    sn231127   6.149   0.102   4.951  0.1261 -0.0344  0.3269
 5856ntf    nn331128   6.304   0.092   4.969  0.0446 -0.6360  0.7151
 5856ntf    sn231129   6.422   0.051   4.874 -0.0828  0.5608  0.0290
 5856ntf    cn131130   6.558   0.151   4.942  0.3247 -0.0535  0.1215
 5856ntf    fn431131   5.997   0.307   4.917  0.0658 -0.3394 -0.1658
 5856ntf    fn431132   6.158   0.351   5.045 -0.7920 -0.0311  0.0465
 5856ntf    fn431133   6.192   0.330   4.834  0.0875  0.2268 -0.0970
 5856ntf    on531134   6.083   0.068   5.075 -0.7050  0.6803  0.0915
 5856ntf    on531135   6.083   0.062   4.828  0.0831 -0.1355  0.3819
 5856ntf    on531136   6.412   0.090   4.735 -0.9397 -0.3536 -0.1797
 5856ntf    on531137   6.472  -0.082   4.897 -0.2738  0.3517 -0.7172
 5856ntf    fn431138   6.594   0.119   5.066 -0.6062  0.0534  0.4249
 5856ntf    fn431139   6.662   0.142   4.861  0.5338  0.0918  0.3712
 5856ntf    fn431140   6.520   0.277   4.940 -0.2094 -0.2057  0.5326
 5857ntf    cn131141   6.688   0.435   0.671 -0.0338 -0.0178 -0.2518
 5857ntf    sn231142   6.670   0.364   0.505  0.2813 -0.2757 -0.1761
 5857ntf    nn331143   6.622   0.497   0.437 -0.0593 -0.3528 -0.0870
 5857ntf    sn231144   6.471   0.531   0.411  0.0370  0.2245  0.0989
 5857ntf    cn131145   6.476   0.712   0.390 -0.6829  0.2713  0.2801
 5857ntf    fn431146   6.574   0.489   0.712  0.0333  0.0129 -0.1016
 5857ntf    fn431147   6.740   0.353   0.761 -0.1742  0.3324  0.1579
 5857ntf    fn431148   6.776   0.534   0.683 -0.3209  0.2278 -0.1457
 5857ntf    on531149   6.809   0.343   0.476  0.1174 -0.8122 -0.5815
 5857ntf    on531150   6.579   0.252   0.510 -0.1740  0.0850 -0.3578
 5857ntf    on531151   6.378   0.514   0.520  0.1597  0.0574  0.1781
 5857ntf    on531152   6.424   0.503   0.277  0.3213 -0.1414  0.0750
 5857ntf    fn431153   6.353   0.759   0.391 -0.6141  0.4916 -0.7035
 5857ntf    fn431154   6.540   0.780   0.484 -0.2014  0.6863 -0.3404
 5857ntf    fn431155   6.527   0.744   0.272 -0.0677  0.0558  0.4782
 5858ntf    cn131156   0.486   0.355   3.281 -0.5154  0.2350 -0.5326
 5858ntf    sn231157   0.526   0.357   3.458 -0.1463  0.1755 -0.6143
 5858ntf    nn331158   0.649   0.454   3.465 -0.2464  0.2664 -0.0806
 5858ntf    sn231159   0.805   0.435   3.459 -0.2459  0.1794  0.1780
 5858ntf    cn131160   0.850   0.463   3.633  0.3286 -0.1400  0.0836
 5858ntf    fn431161   0.404   0.252   3.262 -0.0235 -0.2868  0.1323
 5858ntf    fn431162   0.420   0.461   3.236 -0.2597  0.1713 -1.0684
 5858ntf    fn431163   0.592   0.342   3.203  0.0192  0.7870  0.0979
 5858ntf    on531164   0.407   0.419   3.511 -0.1921  0.2989 -0.8615
 5858ntf    on531165   0.552   0.222   3.504  0.5130  0.4166 -0.2664
 5858ntf    on531166   0.868   0.540   3.382 -0.0925  0.2250  0.3625
 5858ntf    on531167   0.859   0.303   3.439 -0.2808  0.0307  1.0399
 5858ntf    fn431168   0.978   0.488   3.650  0.3487 -0.2522  0.1014
 5858ntf    fn431169   0.784   0.569   3.677  0.1330 -0.4597  0.5766
 5858ntf    fn431170   0.812   0.353   3.697 -0.4216 -0.0296 -0.1612
 5859ntf    cn131171   2.894   5.470   5.656 -0.1918 -0.4925 -0.3663
 5859ntf    sn231172   2.796   5.602   5.734  0.2506 -0.2862 -0.1617
 5859ntf    nn331173   2.905   5.696   5.797  0.2286 -0.5123  0.2171
 5859ntf    sn231174   2.917   5.743   5.947 -0.0079  0.1770  0.0212
 5859ntf    cn131175   3.003   5.900   5.914 -0.0247  0.1746 -0.0326
 5859ntf    fn431176   2.969   5.415   5.750 -0.0198  0.7389  0.2356
 5859ntf    fn431177   2.814   5.383   5.596 -0.7124 -0.1829 -0.1294
 5859ntf    fn431178   2.984   5.512   5.569 -0.2860  0.3111 -0.0847
 5859ntf    on531179   2.719   5.660   5.627 -0.4601  0.4906  0.7466
 5859ntf    on531180   2.713   5.534   5.830 -0.5045 -0.5875 -1.0262
 5859ntf    on531181   3.014   5.660   6.013  0.0443 -0.1286 -0.4319
 5859ntf    on531182   2.795   5.781   6.014 -0.1805  0.0888 -0.2381
 5859ntf    fn431183   3.123   5.878   5.862 -0.0602  0.5640 -0.2824
 5859ntf    fn431184   2.937   5.990   5.843 -0.0895  0.3799  0.2859
 5859ntf    fn431185   3.030   5.954   6.032 -0.0091 -0.3740  0.2181
 5860ntf    cn131186   3.286   3.987   7.578  0.3275 -0.1628  0.0769
 5860ntf    sn231187   3.227   3.983   7.406  0.3098  0.3212  0.0712
 5860ntf    nn331188   3.132   3.859   7.405  0.3625  0.2802 -0.5036
 5860ntf    sn231189   3.162   3.730   7.320  0.1937 -0.0160 -0.1180
 5860ntf    cn131190   3.132   3.776   7.147 -0.1562 -0.5020 -0.1869
 5860ntf    fn431191   3.383   3.902   7.605 -0.0510 -0.5067  0.3688
 5860ntf    fn431192   3.335   4.107   7.603 -0.5377  0.0796  0.6613
 5860ntf    fn431193   3.192   3.969   7.669  0.1400 -0.2813 -0.1366
 5860ntf    on531194   3.150   4.104   7.388 -0.3602 -0.0529  0.4160
 5860ntf    on531195   3.351   3.976   7.332  0.0144 -0.5473 -0.3573
 5860ntf    on531196   3.059   3.631   7.340  0.4107 -0.2611 -0.2141
 5860ntf    on531197   3.298   3.681   7.312 -0.1172 -0.8817 -0.2185
 5860ntf    fn431198   3.143   3.672   7.066  0.4907 -0.3429 -0.3142
 5860ntf    fn431199   3.013   3.831   7.130  0.0408  0.0725  0.2629
 5860ntf    fn431200   3.219   3.866   7.105 -0.8218  0.4981  0.5341
 5861ntf    cn131201   5.804   6.637   2.691  0.0081  0.1553  0.1069
 5861ntf    sn231202   5.696   6.492   2.677  0.0918  0.0828  0.2130
 5861ntf    nn331203   5.780   6.377   2.741 -0.6927 -0.8301 -0.3711
 5861ntf    sn231204   5.888   6.288   2.669 -0.0666 -0.0633 -0.3869
 5861ntf    cn131205   5.924   6.166   2.799 -0.7666  0.3214  0.1799
 5861ntf    fn431206   5.861   6.632   2.810  0.2719 -0.7639 -0.0508
 5861ntf    fn431207   5.897   6.640   2.596 -0.5335  0.2769 -0.4287
 5861ntf    fn431208   5.745   6.756   2.690  0.4192  0.3621 -0.2958
 5861ntf    on531209   5.580   6.534   2.752 -0.7092 -0.1908 -0.8403
 5861ntf    on531210   5.673   6.478   2.535  0.4063  0.4611  0.1239
 5861ntf    on531211   6.014   6.350   2.638 -0.1075  0.6216  0.7578
 5861ntf    on531212   5.834   6.207   2.563 -0.5190 -0.4243  0.1117
 5861ntf    fn431213   6.020   6.078   2.775 -0.6376  0.5073  0.0005
 5861ntf    fn431214   5.959   6.232   2.908 -0.3321 -0.1547  0.3346
 5861ntf    fn431215   5.813   6.099   2.824 -0.3663 -0.1824  0.6201
 5862ntf    cn131216   4.377   1.590   4.731  0.1890  0.0213 -0.0678
 5862ntf    sn231217   4.483   1.568   4.877 -0.1994 -0.0623  0.2059
 5862ntf    nn331218   4.389   1.504   4.984 -0.0030 -0.3728  0.1945
 5862ntf    sn231219   4.389   1.516   5.141 -0.0490 -0.5352  0.2066
 5862ntf    cn131220   4.320   1.354   5.189 -0.7091 -0.5178 -0.6510
 5862ntf    fn431221   4.279   1.674   4.762  0.0666 -0.0236 -0.3306
 5862ntf    fn431222   4.449   1.636   4.630  0.2676 -0.0418 -0.0406
 5862ntf    fn431223   4.319   1.475   4.698 -0.6222  0.5291 -0.4534
 5862ntf    on531224   4.578   1.476   4.818  0.3621  0.5851  0.0780
 5862ntf    on531225   4.531   1.702   4.905  0.1756 -0.1853  0.1623
 5862ntf    on531226   4.299   1.621   5.183 -0.0979 -0.4045 -0.2198
 5862ntf    on531227   4.518   1.510   5.204 -0.1191  0.1569  0.4139
 5862ntf    fn431228   4.191   1.345   5.160 -0.8003 -0.5233 -0.2489
 5862ntf    fn431229   4.383   1.257   5.125 -0.3168 -0.2462 -0.6815
 5862ntf    fn431230   4.322   1.327   5.318  0.1560 -0.0013 -0.5478
 5863ntf    cn131231   6.380   6.556   1.318  0.4369 -0.1197 -0.1232
 5863ntf    sn231232   6.463   6.539   1.479  0.2945 -0.2195 -0.0602
 5863ntf    nn331233   6.564   6.424   1.441  0.0175 -0.5931  0.3242
 5863ntf    sn231234   6.710   6.401   1.495  0.1171 -0.3349  0.1693
 5863ntf    cn131235   6.820   6.446   1.358 -0.2567  0.1302  0.0172
 5863ntf    fn431236   6.460   6.548   1.213  0.9670  0.3276  0.2396
 5863ntf    fn431237   6.297   6.456   1.295  0.5765 -0.2966  0.1420
 5863ntf    fn431238   6.304   6.664   1.314  0.1629 -0.3065 -0.0275
 5863ntf    on531239   6.520   6.670   1.498  0.4533 -0.2639 -0.2235
 5863ntf    on531240   6.358   6.491   1.564  0.1836 -0.1783 -0.1744
 5863ntf    on531241   6.736   6.260   1.504  0.5202 -0.2470  0.3816
 5863ntf    on531242   6.763   6.472   1.609  0.3339 -0.1661 -0.0376
 5863ntf    fn431243   6.946   6.453   1.399 -0.1717  0.4656 -0.2890
 5863ntf    fn431244   6.806   6.357   1.261  0.6335  0.2848 -0.2620
 5863ntf    fn431245   6.794   6.565   1.307 -0.4985  0.1866  0.2711
 5864ntf    cn131246   3.939   4.827   0.162  0.0637  0.4037 -0.1233
 5864ntf    sn231247   4.105   4.873   0.105  0.1969 -0.0827 -0.1396
 5864ntf    nn331248   4.180   4.794   0.218 -0.1984 -0.2516  0.0071
 5864ntf    sn231249   4.246   4.652   0.214  0.1037 -0.1064 -0.2640
 5864ntf    cn131250   4.196   4.607   0.383 -0.2122 -0.0463 -0.3425
 5864ntf    fn431251   3.915   4.696   0.168 -0.3439  0.4843  0.0631
 5864ntf    fn431252   3.900   4.858   0.284  0.2112 -0.1562  0.0705
 5864ntf    fn431253   3.849   4.877   0.079  0.3522  0.0365 -0.6670
 5864ntf    on531254   4.116   4.810  -0.024 -0.0643  0.7148 -0.5599
 5864ntf    on531255   4.110   5.016   0.124  0.1086 -0.0564 -0.3100
 5864ntf    on531256   4.390   4.641   0.213  0.1677  0.6667 -0.0058
 5864ntf    on531257   4.172   4.555   0.137 -0.0656 -0.1137 -0.0927
 5864ntf    fn431258   4.222   4.481   0.414 -0.0761  0.1673  0.4387
 5864ntf    fn431259   4.240   4.685   0.480 -0.6120 -0.2370 -0.0040
 5864ntf    fn431260   4.064   4.615   0.396 -0.1463  0.2453  0.1835
 5865ntf    cn131261   3.655   5.828   5.727  0.1785 -0.1986  0.0299
 5865ntf    sn231262   3.763   5.896   5.598  0.3728  0.1522  0.3755
 5865ntf    nn331263   3.687   5.839   5.473 -0.1618  0.6828  0.4521
 5865ntf    sn231264   3.697   5.907   5.332 -0.2304  0.0416  0.1344
 5865ntf    cn131265   3.825   5.804   5.254 -0.1833 -0.1531  0.4668
 5865ntf    fn431266   3.696   5.860   5.848 -0.2106  0.4698 -0.0087
 5865ntf    fn431267   3.532   5.876   5.717  0.2599  0.0743  0.3225
 5865ntf    fn431268   3.653   5.696   5.728  0.5737 -0.2035  0.3463
 5865ntf    on531269   3.753   6.038   5.623 -0.5886  0.0583  0.5656
 5865ntf    on531270   3.888   5.826   5.612  0.5740  0.3706 -0.2646
 5865ntf    on531271   3.751   6.040   5.323 -0.2572  0.0325 -0.1727
 5865ntf    on531272   3.584   5.870   5.250 -0.0074  0.2733 -0.2796
 5865ntf    fn431273   3.932   5.793   5.330  0.3634  0.3916 -0.2051
 5865ntf    fn431274   3.787   5.679   5.232 -0.2051 -0.0556 -0.0654
 5865ntf    fn431275   3.871   5.847   5.137 -0.3970 -0.0689  0.4117
 5866ntf    cn131276   2.033   7.495   5.982  0.0956 -0.0166  0.0011
 5866ntf    sn231277   1.906   7.521   5.855 -0.0330 -0.0043  0.1322
 5866ntf    nn331278   1.838   7.379   5.853 -0.0010 -0.0191  0.1157
 5866ntf    sn231279   1.689   7.348   5.816 -0.0200  0.1088  0.0843
 5866ntf    cn131280   1.715   7.280   5.650  0.1603  0.0975  0.1168
 5866ntf    fn431281   2.093   7.604   6.028 -0.0232 -0.1954  0.5865
 5866ntf    fn431282   1.994   7.437   6.094 -0.0533  0.2458  0.0866
 5866ntf    fn431283   2.125   7.406   5.948 -0.1257  0.0170 -0.7026
 5866ntf    on531284   1.823   7.629   5.902  0.4585  0.1870  0.5588
 5866ntf    on531285   1.985   7.543   5.737 -0.8278  0.0126 -0.4070
 5866ntf    on531286   1.605   7.462   5.789 -0.2577 -0.0800  0.0232
 5866ntf    on531287   1.630   7.246   5.900  0.2240  0.0730  0.2144
 5866ntf    fn431288   1.796   7.175   5.653  0.0026 -0.0298  0.0013
 5866ntf    fn431289   1.603   7.240   5.593  0.0042 -0.5823  0.8839
 5866ntf    fn431290   1.776   7.366   5.570 -0.3310  0.2497 -0.0962
 5867ntf    cn131291   1.565   7.522   3.534 -0.2363  0.0057  0.2183
 5867ntf    sn231292   1.574   7.691   3.600 -0.2304  0.0454  0.1168
 5867ntf    nn331293   1.546   7.649   3.748  0.2425  0.0037  0.1953
 5867ntf    sn231294   1.629   7.674   3.880  0.2217  0.1975  0.1717
 5867ntf    cn131295   1.534   7.556   3.980  0.4846 -0.0195  0.1652
 5867ntf    fn431296   1.453   7.457   3.559  0.4859 -1.2082  0.3553
 5867ntf    fn431297   1.575   7.523   3.402  0.0352  0.4923  0.2381
 5867ntf    fn431298   1.661   7.438   3.565 -0.3623 -0.1536  0.1776
 5867ntf    on531299   1.704   7.744   3.568 -0.3380 -0.0036 -0.4217
 5867ntf    on531300   1.458   7.751   3.539 -0.3057 -0.2788 -0.0621
 5867ntf    on531301   1.604   7.807   3.929  0.1598  0.2162  0.0907
 5867ntf    on531302   1.767   7.635   3.893  0.3340  0.8262  0.9285
 5867ntf    fn431303   1.555   7.577   4.109  0.1969 -0.0669  0.2204
 5867ntf    fn431304   1.406   7.567   3.949  0.4910 -0.0211  0.1382
 5867ntf    fn431305   1.567   7.430   3.959  0.0514 -0.0232 -0.5157
 5868ntf    cn131306   7.338   3.948   4.830 -0.0868 -0.7782 -0.1640
 5868ntf    sn231307   7.183   3.919   4.739 -0.3440  0.0030  0.0186
 5868ntf    nn331308   7.227   3.813   4.633 -0.3882  0.0524 -0.0492
 5868ntf    sn231309   7.286   3.840   4.489 -0.2643  0.1032  0.0111
 5868ntf    cn131310   7.151   3.766   4.392  0.1123 -0.6239  0.0368
 5868ntf    fn431311   7.381   3.839   4.891  0.7151 -0.3202  0.1118
 5868ntf    fn431312   7.436   3.994   4.755 -0.4064 -0.4040 -0.3573
 5868ntf    fn431313   7.324   4.037   4.927  0.0677 -0.2449 -0.6260
 5868ntf    on531314   7.093   3.866   4.839 -0.2917 -0.0799  0.0214
 5868ntf    on531315   7.145   4.048   4.688  0.2600  0.0784 -0.2362
 5868ntf    on531316   7.392   3.752   4.446 -0.4736 -0.2587  0.2308
 5868ntf    on531317   7.282   3.979   4.449 -0.8475 -0.0199 -0.3586
 5868ntf    fn431318   7.177   3.729   4.268 -0.0065  0.0153 -0.1822
 5868ntf    fn431319   7.114   3.652   4.448 -0.6792 -0.0812  0.6342
 5868ntf    fn431320   7.043   3.842   4.387  0.5147 -0.0525 -0.1096
 5869ntf    cn131321   0.122   3.279   3.611 -0.2084 -0.0916  0.7399
 5869ntf    sn231322   0.158   3.287   3.789  0.0833  0.4021  0.6586
 5869ntf    nn331323   0.307   3.239   3.778 -0.1377 -0.2362  0.3655
 5869ntf    sn231324   0.442   3.316   3.805 -0.0856 -0.2120  0.0314
 5869ntf    cn131325   0.525   3.198   3.915 -0.6058 -0.5604  0.0537
 5869ntf    fn431326   0.131   3.151   3.576  0.1711  0.1798 -0.1821
 5869ntf    fn431327  -0.004   3.313   3.587  0.1091  0.0210 -0.8943
 5869ntf    fn431328   0.214   3.344   3.543 -0.4159 -0.9485 -0.3971
 5869ntf    on531329   0.138   3.421   3.839 -0.1618  0.4427  0.4529
 5869ntf    on531330   0.082   3.178   3.845 -0.4184  0.0905 -0.5950
 5869ntf    on531331   0.437   3.439   3.879  0.1594 -0.1434 -0.0672
 5869ntf    on531332   0.527   3.317   3.689 -0.0545  0.3680  0.0547
 5869ntf    fn431333   0.639   3.253   3.954 -0.3060 -0.2834 -1.1592
 5869ntf    fn431334   0.460   3.159   4.024 -0.6008 -0.2443  0.1699
 5869ntf    fn431335   0.564   3.087   3.855 -0.2115 -0.5069  0.2108
 5870ntf    cn131336   1.404   5.960   6.740 -0.5126  0.2686  0.1158
 5870ntf    sn231337   1.276   5.851   6.809  0.0533 -0.4215  0.0880
 5870ntf    nn331338   1.184   5.846   6.682 -0.2230 -0.1281  0.2726
 5870ntf    sn231339   1.084   5.956   6.632  0.2553  0.0933 -0.2089
 5870ntf    cn131340   0.937   5.908   6.727  0.2297  0.1474 -0.2214
 5870ntf    fn431341   1.358   6.033   6.639  0.0351  0.4037 -0.0408
 5870ntf    fn431342   1.454   6.032   6.839  0.2749  0.0177 -0.0892
 5870ntf    fn431343   1.512   5.900   6.694  0.0318  0.9678  0.4628
 5870ntf    on531344   1.339   5.726   6.841  0.8754  0.0783  0.4614
 5870ntf    on531345   1.218   5.925   6.918 -0.7446 -0.7211 -0.1287
 5870ntf    on531346   1.050   5.945   6.492  1.2164 -0.2371 -0.4242
 5870ntf    on531347   1.105   6.091   6.679  0.1356  0.1335 -0.2737
 5870ntf    fn431348   0.921   5.777   6.738 -0.0340  0.1850 -0.1278
 5870ntf    fn431349   0.936   5.950   6.853 -0.2926 -1.2070  0.2413
 5870ntf    fn431350   0.824   5.950   6.672  0.0885  0.2291  0.1277
 5871ntf    cn131351   1.129   0.130   4.943 -0.3424 -0.0740  0.3604
 5871ntf    sn231352   1.071  -0.025   4.868 -0.2338  0.0028  0.1132
 5871ntf    nn331353   1.190  -0.119   4.907 -0.3081  0.0046  0.3502
 5871ntf    sn231354   1.279  -0.208   4.813 -0.3915  0.3646 -0.0753
 5871ntf    cn131355   1.414  -0.091   4.780 -0.0986 -0.0161 -0.2333
 5871ntf    fn431356   1.046   0.230   4.922  0.1158  0.4006  0.7641
 5871ntf    fn431357   1.153   0.130   5.073  0.2228  0.0890  0.2608
 5871ntf    fn431358   1.242   0.172   4.887 -0.7139  0.2937 -0.1162
 5871ntf    on531359   0.953  -0.048   4.949  0.2365 -0.8408  0.5774
 5871ntf    on531360   1.049   0.009   4.730  0.3544 -0.3656 -0.0774
 5871ntf    on531361   1.228  -0.238   4.682  0.4325  0.5108 -0.4368
 5871ntf    on531362   1.341  -0.314   4.890  0.3472  0.5225 -0.4465
 5871ntf    fn431363   1.380   0.021   4.720 -0.2845  0.2572  0.3763
 5871ntf    fn431364   1.466  -0.064   4.899  0.0950 -0.6494 -0.1673
 5871ntf    fn431365   1.514  -0.139   4.707  0.1798  0.3043 -0.0648
 5872ntf    cn131366   3.809   4.263   4.801  0.2924  0.2659  0.4865
 5872ntf    sn231367   3.708   4.405   4.750 -0.1540 -0.1500  0.1995
 5872ntf    nn331368   3.660   4.366   4.606  0.3089 -0.6796  0.1832
 5872ntf    sn231369   3.534   4.283   4.563 -0.0583 -0.0462  0.0221
 5872ntf    cn131370   3.424   4.409   4.491  0.1806  0.3727  0.3816
 5872ntf    fn431371   3.729   4.160   4.821  0.1973  0.1522 -0.4422
 5872ntf    fn431372   3.885   4.216   4.703 -0.7035 -0.3616 -0.0029
 5872ntf    fn431373   3.872   4.283   4.916  0.2452  0.4469  0.4801
 5872ntf    on531374   3.600   4.419   4.844  0.0634  0.8305  0.3183
 5872ntf    on531375   3.804   4.513   4.738 -0.3824  0.0148 -0.1532
 5872ntf    on531376   3.454   4.222   4.665 -0.3483  1.3223  0.6333
 5872ntf    on531377   3.561   4.204   4.445 -0.0577  0.0223 -0.0241
 5872ntf    fn431378   3.398   4.511   4.570  0.0352  0.6471 -0.0202
 5872ntf    fn431379   3.469   4.451   4.374  0.3300  0.0401  0.3166
 5872ntf    fn431380   3.307   4.350   4.472  0.5391 -0.2453  0.0349
 5873ntf    cn131381   7.313   0.952   1.502  0.0336  0.3432  0.3085
 5873ntf    sn231382   7.433   0.933   1.367 -0.3464 -0.2823  0.0530
 5873ntf    nn331383   7.563   0.909   1.452 -0.3297  0.0213  0.1134
 5873ntf    sn231384   7.624   0.777   1.510  0.1120  0.0970 -0.1681
 5873ntf    cn131385   7.746   0.740   1.381 -0.2749 -0.3802 -0.4041
 5873ntf    fn431386   7.333   0.860   1.595 -0.7849 -0.1889 -0.0325
 5873ntf    fn431387   7.322   1.072   1.558  0.1294  0.4610  0.0432
 5873ntf    fn431388   7.188   0.934   1.461  0.0026  0.3815  0.3851
 5873ntf    on531389   7.382   0.822   1.292  0.1803 -0.2084 -0.4240
 5873ntf    on531390   7.425   1.060   1.300 -1.0657 -0.3079  0.0835
 5873ntf    on531391   7.543   0.657   1.508  0.1447  0.0819 -0.5383
 5873ntf    on531392   7.701   0.813   1.626  0.2967 -0.4820 -0.1051
 5873ntf    fn431393   7.689   0.713   1.265 -0.2088 -0.0447 -0.5168
 5873ntf    fn431394   7.829   0.842   1.361 -0.8631  0.2486  0.2865
 5873ntf    fn431395   7.812   0.635   1.427 -0.1974  0.0133  0.4017
 5874ntf    cn131396   4.901   1.545   2.780 -0.5062 -0.1359  0.6700
 5874ntf    sn231397   5.057   1.613   2.843  0.0417 -0.5584 -0.2104
 5874ntf    nn331398   5.013   1.738   2.928  0.3745 -0.1887 -0.5731
 5874ntf    sn231399   5.022   1.880   2.864  0.3784  0.2319  0.3427
 5874ntf    cn131400   4.887   1.970   2.945 -0.0071 -0.0032 -0.0389
 5874ntf    fn431401   4.920   1.434   2.710  0.6788  0.2000  0.4510
 5874ntf    fn431402   4.825   1.511   2.883 -0.6370 -0.4836  0.4591
 5874ntf    fn431403   4.830   1.632   2.710 -0.0693  0.1495  0.5811
 5874ntf    on531404   5.129   1.515   2.921  0.6292  0.0136 -0.0178
 5874ntf    on531405   5.131   1.631   2.721  0.7152  0.8121  0.3734
 5874ntf    on531406   4.987   1.889   2.724 -0.1236  0.3908  0.4774
 5874ntf    on531407   5.135   1.959   2.907  0.2739  1.0180 -0.7627
 5874ntf    fn431408   4.858   2.082   2.881 -0.2611  0.0789  0.2189
 5874ntf    fn431409   4.775   1.899   2.941 -0.1946  0.3087 -0.3151
 5874ntf    fn431410   4.914   1.996   3.072  0.1368  0.0733 -0.0856
 5875ntf    cn131411   1.004   4.344   1.143 -0.3297  0.2701 -0.0991
 5875ntf    sn231412   0.838   4.410   1.178 -0.2857  0.2282  0.1941
 5875ntf    nn331413   0.819   4.328   1.310  0.3978 -0.5597 -0.1874
 5875ntf    sn231414   0.834   4.358   1.463 -0.3836 -0.0035 -0.2123
 5875ntf    cn131415   0.959   4.229   1.492 -0.5737 -0.1575 -0.0709
 5875ntf    fn431416   1.094   4.390   1.228 -0.3838 -0.2532  0.2413
 5875ntf    fn431417   1.008   4.212   1.154 -0.2108  0.2724 -0.1244
 5875ntf    fn431418   1.045   4.389   1.025  0.0485  0.1010 -0.0333
 5875ntf    on531419   0.855   4.553   1.179  0.0464  0.1946 -0.1780
 5875ntf    on531420   0.760   4.354   1.070  0.3028 -0.7863  0.2881
 5875ntf    on531421   0.722   4.309   1.540 -0.7488  0.1560 -0.6381
 5875ntf    on531422   0.901   4.473   1.519 -0.5569  0.1679 -0.3600
 5875ntf    fn431423   1.027   4.233   1.606 -0.1876  0.6944 -0.3196
 5875ntf    fn431424   0.903   4.110   1.488 -0.3262 -0.2695 -0.2136
 5875ntf    fn431425   1.059   4.233   1.405 -0.3561  0.2013  0.1888
 5876ntf    cn131426   4.307   3.947   0.893  0.3890  0.2927  0.6525
 5876ntf    sn231427   4.138   3.996   0.935  0.1409  0.2602 -0.2862
 5876ntf    nn331428   4.120   3.946   1.083 -0.1198  0.2650 -0.3147
 5876ntf    sn231429   3.986   3.924   1.161  0.1792  0.0209  0.1378
 5876ntf    cn131430   3.967   3.747   1.123 -0.0140  0.1054 -0.1628
 5876ntf    fn431431   4.343   4.006   0.780  0.1777 -0.1999  0.3253
 5876ntf    fn431432   4.393   4.003   0.977  0.3284  0.7100  0.4400
 5876ntf    fn431433   4.340   3.820   0.877 -0.8083  0.0097  0.3379
 5876ntf    on531434   4.156   4.138   0.923 -0.2093  0.3209 -0.1158
 5876ntf    on531435   4.061   3.920   0.839  0.1750 -0.0537 -0.0683
 5876ntf    on531436   3.871   3.985   1.099  0.0478 -0.2135  0.1494
 5876ntf    on531437   3.992   3.944   1.303 -0.1713 -0.0684  0.1675
 5876ntf    fn431438   3.939   3.725   0.995 -0.2348  0.1048 -0.1147
 5876ntf    fn431439   4.084   3.690   1.143 -0.0017  0.1546 -0.0927
 5876ntf    fn431440   3.890   3.673   1.201  0.1705 -0.3796 -0.4354
 5877ntf    cn131441   0.543   6.044   5.900 -0.0566 -0.2222  0.0357
 5877ntf    sn231442   0.613   5.901   5.813  0.2683 -0.0108 -0.0545
 5877ntf    nn331443   0.637   5.807   5.937 -0.0272 -0.3626 -0.2640
 5877ntf    sn231444   0.756   5.714   5.979  0.2394  0.1550  0.1251
 5877ntf    cn131445   0.688   5.548   6.006  0.3715  0.1471  0.4177
 5877ntf    fn431446   0.486   6.133   5.821  0.1536 -0.0216  0.1057
 5877ntf    fn431447   0.445   6.012   5.983 -0.5206 -0.0200 -0.4367
 5877ntf    fn431448   0.633   6.109   5.972 -0.6348  0.5967  0.0311
 5877ntf    on531449   0.505   5.848   5.735  0.9119 -0.5087 -0.6217
 5877ntf    on531450   0.731   5.945   5.744 -0.2163 -0.0235 -0.9005
 5877ntf    on531451   0.791   5.738   6.117  0.8803 -0.1537  0.0219
 5877ntf    on531452   0.865   5.704   5.885 -0.2432  0.0294 -0.4232
 5877ntf    fn431453   0.575   5.549   6.076  0.3904 -0.2858  0.4545
 5877ntf    fn431454   0.670   5.476   5.896 -0.0608  0.2671  0.4080
 5877ntf    fn431455   0.772   5.474   6.075  0.4220  0.0398  0.2419
 5878ntf    cn131456   2.048   3.554   4.166  0.0542 -0.1751 -0.3526
 5878ntf    sn231457   1.881   3.581   4.233  0.1825  0.0793 -0.1339
 5878ntf    nn331458   1.873   3.471   4.344 -0.2062  0.6058  0.3681
 5878ntf    sn231459   1.792   3.337   4.334  0.1767  0.3851  0.2135
 5878ntf    cn131460   1.850   3.232   4.471  0.1663  0.1851  0.0669
 5878ntf    fn431461   2.076   3.649   4.078 -0.0292 -0.6568 -0.9006
 5878ntf    fn431462   2.134   3.562   4.267 -0.2794  0.2240 -0.0941
 5878ntf    fn431463   2.072   3.435   4.113  0.3704 -0.4193  0.3267
 5878ntf    on531464   1.889   3.703   4.310 -0.6591  0.1106 -0.0873
 5878ntf    on531465   1.788   3.566   4.125 -0.0875 -0.1069  0.1241
 5878ntf    on531466   1.823   3.249   4.223  0.1649  0.5388  0.0878
 5878ntf    on531467   1.652   3.361   4.359 -0.0256 -0.3495 -0.1681
 5878ntf    fn431468   1.982   3.219   4.475  0.1232 -0.3492 -0.2407
 5878ntf    fn431469   1.809   3.287   4.584  0.2163  0.5329 -0.0834
 5878ntf    fn431470   1.797   3.111   4.472  0.6119 -0.0136  0.1251
 5879ntf    cn131471   3.144   0.293   3.147 -0.1267 -0.5128  0.0857
 5879ntf    sn231472   3.148   0.307   3.328  0.0976 -0.0972  0.0480
 5879ntf    nn331473   2.995   0.282   3.351  0.0213  0.0148 -0.3363
 5879ntf    sn231474   2.888   0.395   3.332 -0.1724 -0.0953  0.0856
 5879ntf    cn131475   2.901   0.494   3.483 -0.1861  0.2595 -0.1453
 5879ntf    fn431476   3.100   0.404   3.090  0.5761 -0.4322 -0.3020
 5879ntf    fn431477   3.265   0.272   3.098  0.2233  0.2396  0.6145
 5879ntf    fn431478   3.056   0.205   3.101 -0.3194 -0.2045 -0.1407
 5879ntf    on531479   3.238   0.203   3.372  0.2759 -0.4955 -1.2267
 5879ntf    on531480   3.199   0.441   3.349  0.1947 -0.1091 -0.1102
 5879ntf    on531481   2.751   0.351   3.339 -0.1492 -0.0473  0.9247
 5879ntf    on531482   2.901   0.497   3.230  0.1603  0.5089  0.7263
 5879ntf    fn431483   2.827   0.604   3.482  0.0010  0.3857 -0.2182
 5879ntf    fn431484   2.867   0.425   3.590 -0.0987  0.0278 -0.2668
 5879ntf    fn431485   3.025   0.533   3.509 -0.2068  0.1602  0.1118
 5880ntf    cn131486   2.244   4.641   3.643  0.1756  0.0805  0.5876
 5880ntf    sn231487   2.409   4.665   3.571 -0.0620  0.2538  0.0992
 5880ntf    nn331488   2.436   4.516   3.529 -0.2793  0.2803 -0.1391
 5880ntf    sn231489   2.402   4.449   3.391  0.3152 -0.4690  0.0758
 5880ntf    cn131490   2.568   4.469   3.319  0.1814 -0.5319 -0.2497
 5880ntf    fn431491   2.249   4.576   3.758  0.6004 -0.3811  0.3065
 5880ntf    fn431492   2.164   4.743   3.670 -0.3842 -0.1717 -0.0988
 5880ntf    fn431493   2.173   4.571   3.557 -0.1497  0.4010  0.5886
 5880ntf    on531494   2.392   4.755   3.459 -0.2969  0.5866  0.4013
 5880ntf    on531495   2.491   4.710   3.680  0.2651  0.2494 -0.1450
 5880ntf    on531496   2.308   4.523   3.312  0.1524 -0.7928 -0.0358
 5880ntf    on531497   2.389   4.305   3.401  0.0626 -0.4317  0.2770
 5880ntf    fn431498   2.653   4.389   3.380  0.4811  0.0758  0.1384
 5880ntf    fn431499   2.582   4.446   3.190  0.5591  0.6628 -0.4332
 5880ntf    fn431500   2.618   4.589   3.344 -0.2841 -0.3097 -0.3663
 5881ntf    cn131501   3.172   0.342   2.733 -0.2920 -0.1362 -0.3001
 5881ntf    sn231502   3.167   0.515   2.678 -0.1583 -0.1444 -0.3394
 5881ntf    nn331503   3.015   0.509   2.639 -0.3461  0.2910  0.3037
 5881ntf    sn231504   2.952   0.511   2.495 -0.3858 -0.1422  0.3133
 5881ntf    cn131505   2.804   0.408   2.515 -0.4215 -0.1038  0.2487
 5881ntf    fn431506   3.281   0.317   2.804 -0.4683  0.7699  0.3128
 5881ntf    fn431507   3.067   0.307   2.805  0.1276 -0.1251  0.3200
 5881ntf    fn431508   3.183   0.266   2.625  0.0900 -0.4084 -0.0726
 5881ntf    on531509   3.193   0.595   2.796 -0.2709  0.2633 -0.5867
 5881ntf    on531510   3.255   0.537   2.566 -0.3231 -0.2037 -0.4816
 5881ntf    on531511   3.027   0.442   2.392 -0.5689 -0.1630  0.1946
 5881ntf    on531512   2.886   0.634   2.458 -0.4290 -0.0674  0.6386
 5881ntf    fn431513   2.741   0.386   2.401  0.6096 -0.3955 -0.2811
 5881ntf    fn431514   2.832   0.287   2.561  0.3011  0.0713  0.2781
 5881ntf    fn431515   2.723   0.466   2.602 -0.3142  0.4267 -0.0014
 5882ntf    cn131516   0.057   4.203   5.547 -0.2187  0.0034 -0.1610
 5882ntf    sn231517   0.235   4.238   5.552 -0.1741 -0.2504  0.0265
 5882ntf    nn331518   0.268   4.212   5.703 -0.1477 -0.7469 -0.0619
 5882ntf    sn231519   0.333   4.088   5.773  0.3433 -0.3901  0.1222
 5882ntf    cn131520   0.199   4.056   5.892  0.2566 -0.1970  0.0773
 5882ntf    fn431521  -0.010   4.252   5.650  0.2253  0.3980 -0.0562
 5882ntf    fn431522   0.003   4.252   5.436  0.3671  0.5700 -0.2035
 5882ntf    fn431523   0.034   4.074   5.538  0.2371 -0.0638 -0.4125
 5882ntf    on531524   0.291   4.147   5.455 -0.3961 -0.2471 -0.1050
 5882ntf    on531525   0.244   4.378   5.518  0.4597 -0.3431 -0.1976
 5882ntf    on531526   0.449   4.116   5.854 -0.1090 -0.4640  0.8145
 5882ntf    on531527   0.329   3.968   5.693  0.4207 -0.2965 -0.0213
 5882ntf    fn431528   0.080   4.060   5.835  0.4190 -0.3048 -0.2702
 5882ntf    fn431529   0.202   3.941   5.958  0.3673 -0.0754  0.2876
 5882ntf    fn431530   0.191   4.149   5.985 -0.1301 -0.0723 -0.0774
 5883ntf    cn131531   7.367   3.670   2.222 -0.2673 -0.1321 -0.3606
 5883ntf    sn231532   7.258   3.767   2.113 -0.3902  0.1404  0.0009
 5883ntf    nn331533   7.320   3.746   1.970 -0.1085 -0.1315  0.1605
 5883ntf    sn231534   7.275   3.651   1.854  0.0966 -0.1662  0.1082
 5883ntf    cn131535   7.198   3.774   1.744 -0.2191 -0.3200  0.1560
 5883ntf    fn431536   7.467   3.747   2.261 -0.2097 -0.1674 -0.4402
 5883ntf    fn431537   7.301   3.632   2.331 -0.1833  0.4930 -0.0870
 5883ntf    fn431538   7.425   3.563   2.171  0.2265  0.2208 -0.5431
 5883ntf    on531539   7.130   3.703   2.133  0.1445 -0.9127  0.1669
 5883ntf    on531540   7.280   3.901   2.160  0.2622  0.0622 -0.0645
 5883ntf    on531541   7.172   3.555   1.885 -0.1022 -0.0803 -0.2799
 5883ntf    on531542   7.388   3.604   1.779 -0.0457 -0.1004 -0.1474
 5883ntf    fn431543   7.097   3.842   1.794 -0.4939 -0.2752 -0.4481
 5883ntf    fn431544   7.292   3.853   1.696 -0.6225 -0.2505 -0.5257
 5883ntf    fn431545   7.147   3.712   1.638  0.4774 -0.1370 -0.2926
 5884ntf    cn131546   0.691   4.071   3.967  0.0873  0.1506 -0.4765
 5884ntf    sn231547   0.679   3.891   3.943 -0.5467  0.0914  0.2445
 5884ntf    nn331548   0.736   3.886   3.797 -0.3377  0.2696  0.3190
 5884ntf    sn231549   0.660   3.889   3.660  0.4188  0.1730 -0.1087
 5884ntf    cn131550   0.736   4.037   3.586  0.0497  0.5323  0.2266
 5884ntf    fn431551   0.808   4.123   4.002  0.3694 -0.4522 -0.5119
 5884ntf    fn431552   0.653   4.140   3.861 -0.3736  0.2758 -0.2340
 5884ntf    fn431553   0.602   4.107   4.058  0.3488  0.4090 -0.3197
 5884ntf    on531554   0.780   3.837   4.030  0.3383  0.2357 -0.6711
 5884ntf    on531555   0.539   3.866   3.965 -0.5734 -0.6118 -0.7050
 5884ntf    on531556   0.522   3.927   3.677  0.2144 -0.6604  0.1099
 5884ntf    on531557   0.676   3.784   3.563 -1.3211 -0.8156  0.6288
 5884ntf    fn431558   0.731   4.138   3.672  0.1217  0.5393  0.2221
 5884ntf    fn431559   0.859   4.018   3.542 -0.2360  0.1788 -0.4362
 5884ntf    fn431560   0.676   4.085   3.478 -0.5046 -0.4834  0.0760
 5885ntf    cn131561   4.022   6.770   1.309 -0.0741 -0.3086 -0.4364
 5885ntf    sn231562   3.907   6.759   1.449  0.2451  0.0761 -0.1425
 5885ntf    nn331563   3.785   6.838   1.392  0.7194  0.7278 -0.2682
 5885ntf    sn231564   3.727   6.976   1.442 -0.0459  0.3169 -0.0058
 5885ntf    cn131565   3.841   7.085   1.353  0.0787  0.2519  0.0743
 5885ntf    fn431566   3.986   6.696   1.205 -0.8147  0.0164 -0.4132
 5885ntf    fn431567   4.032   6.892   1.258  1.0077 -0.3051 -0.2456
 5885ntf    fn431568   4.143   6.730   1.344 -0.2145  0.2325  0.6875
 5885ntf    on531569   3.877   6.618   1.451  0.3089  0.0638  0.0299
 5885ntf    on531570   3.985   6.812   1.559  0.8138  0.1731 -0.5866
 5885ntf    on531571   3.743   7.000   1.583  0.4765 -0.2782  0.0438
 5885ntf    on531572   3.599   7.003   1.381 -0.4124  1.1206  1.0840
 5885ntf    fn431573   3.869   7.054   1.227  0.3447 -0.0996  0.2161
 5885ntf    fn431574   3.787   7.206   1.361 -0.1558  0.1815 -0.3974
 5885ntf    fn431575   3.955   7.103   1.418 -0.0184  0.0318  0.3044
 5886ntf    cn131576   2.401   6.007   4.495 -0.1999 -0.1324  0.3198
 5886ntf    sn231577   2.303   5.872   4.424 -0.0715 -0.1489  0.1742
 5886ntf    nn331578   2.191   5.969   4.373  0.6931  0.2787 -0.7332
 5886ntf    sn231579   2.089   5.936   4.258 -0.1492  0.3781 -0.0254
 5886ntf    cn131580   2.161   6.038   4.126 -0.1594  0.3584 -0.0457
 5886ntf    fn431581   2.438   6.099   4.407 -0.3503 -0.4137 -0.0372
 5886ntf    fn431582   2.336   6.069   4.592 -0.7426  0.0159 -0.1331
 5886ntf    fn431583   2.513   5.957   4.545  0.1441  0.0729 -0.2352
 5886ntf    on531584   2.384   5.795   4.333 -0.4119  0.4935 -0.6840
 5886ntf    on531585   2.271   5.803   4.547 -0.0079 -0.1001  0.2188
 5886ntf    on531586   1.958   5.993   4.280 -0.4088 -0.0476 -0.4383
 5886ntf    on531587   2.082   5.802   4.205  0.2418  0.2391  0.2707
 5886ntf    fn431588   2.289   6.007   4.114 -0.3485 -0.2619 -0.4911
 5886ntf    fn431589   2.113   6.034   4.003 -0.4104  0.0725  0.0587
 5886ntf    fn431590   2.149   6.163   4.168  0.0909  0.2624  0.3125
 5887ntf    cn131591   4.346   6.544   4.027  0.1434  0.1311 -0.1964
 5887ntf    sn231592   4.285   6.374   4.003 -0.0527  0.2301 -0.3948
 5887ntf    nn331593   4.384   6.302   4.101 -0.1528  0.0661 -0.4141
 5887ntf    sn231594   4.348   6.171   4.180 -0.2661  0.3373 -0.0107
 5887ntf    cn131595   4.512   6.094   4.199 -0.3632  0.0621 -0.2919
 5887ntf    fn431596   4.344   6.572   4.157  0.1900 -0.0551 -0.1553
 5887ntf    fn431597   4.468   6.563   3.982  0.0488  0.6450 -0.2360
 5887ntf    fn431598   4.270   6.635   3.969  0.0011  0.0554 -0.1296
 5887ntf    on531599   4.146   6.371   4.041  0.1111 -0.2297  0.1841
 5887ntf    on531600   4.316   6.337   3.867  0.7265 -0.4050 -0.0495
 5887ntf    on531601   4.271   6.070   4.112 -0.0028 -0.1584  0.4239
 5887ntf    on531602   4.314   6.205   4.316  0.4892 -0.7256  0.4572
 5887ntf    fn431603   4.573   6.165   4.293  0.2143 -0.1469 -0.5072
 5887ntf    fn431604   4.516   5.967   4.236 -0.4052  0.0960 -0.1688
 5887ntf    fn431605   4.584   6.097   4.088  0.0664  0.5251 -0.0019
 5888ntf    cn131606   2.330   6.755   3.916  0.1889  0.1552  0.3219
 5888ntf    sn231607   2.410   6.901   3.843 -0.1383  0.2946  0.2392
 5888ntf    nn331608   2.517   6.838   3.748 -0.1551  0.6206  0.0020
 5888ntf    sn231609   2.670   6.802   3.759 -0.2324  0.3732  0.2765
 5888ntf    cn131610   2.674   6.620   3.765  0.3745  0.3679 -0.1580
 5888ntf    fn431611   2.416   6.690   3.993  0.6005  0.4598  0.1210
 5888ntf    fn431612   2.232   6.791   3.997  0.0092 -0.0502  0.1963
 5888ntf    fn431613   2.281   6.668   3.829  0.2711  0.3268  0.1022
 5888ntf    on531614   2.300   6.972   3.783 -0.3821  0.4844  0.8952
 5888ntf    on531615   2.471   6.976   3.951 -0.2898  0.5673  0.1375
 5888ntf    on531616   2.745   6.833   3.878 -0.4087 -0.6165  0.6567
 5888ntf    on531617   2.741   6.827   3.636 -0.2506 -0.1783  0.1476
 5888ntf    fn431618   2.579   6.570   3.843  0.3532  0.4203 -0.1494
 5888ntf    fn431619   2.658   6.566   3.645  0.0549 -0.4054  0.2289
 5888ntf    fn431620   2.787   6.566   3.805  0.4579  0.6897  0.0450
 5889ntf    cn131621   2.222   5.873   0.968  0.3043 -0.2976  0.2976
 5889ntf    sn231622   2.241   5.811   1.138 -0.1485  0.0658  0.4837
 5889ntf    nn331623   2.244   5.947   1.216  0.1877  0.0060  0.5789
 5889ntf    sn231624   2.125   6.017   1.289 -0.1474  0.1621 -0.1059
 5889ntf    cn131625   2.175   6.191   1.271  0.1607  0.0618 -0.2118
 5889ntf    fn431626   2.111   5.944   0.972 -0.0998 -0.9176  0.2178
 5889ntf    fn431627   2.321   5.951   0.928 -0.0169  0.1293  0.3355
 5889ntf    fn431628   2.202   5.775   0.882 -0.4849  0.4428 -0.3791
 5889ntf    on531629   2.122   5.733   1.162  0.3134 -0.7301  0.2276
 5889ntf    on531630   2.372   5.750   1.140 -0.0390  0.2451 -0.7392
 5889ntf    on531631   2.149   6.014   1.431 -0.1147  0.2876 -0.1082
 5889ntf    on531632   1.985   6.017   1.252 -0.1575  0.0287 -0.0672
 5889ntf    fn431633   2.100   6.274   1.341  0.4385 -0.3211  0.5459
 5889ntf    fn431634   2.294   6.220   1.321  0.1940 -0.2012 -0.1389
 5889ntf    fn431635   2.171   6.231   1.145  0.3678  0.4549 -0.0951
 5890ntf    cn131636   4.650   1.316   0.953  0.0856 -0.0039 -0.2421
 5890ntf    sn231637   4.595   1.488   0.932 -0.2085 -0.0524  0.1086
 5890ntf    nn331638   4.441   1.475   0.905 -0.1607 -0.6205  0.1100
 5890ntf    sn231639   4.324   1.437   1.003 -0.3758  0.0893  0.1305
 5890ntf    cn131640   4.245   1.600   1.020 -0.0209  0.2463  0.2928
 5890ntf    fn431641   4.775   1.295   0.916  0.0934  0.3312 -0.4136
 5890ntf    fn431642   4.658   1.281   1.080 -0.3024  0.7843  0.0117
 5890ntf    fn431643   4.578   1.223   0.893  0.0935 -0.6954  0.7972
 5890ntf    on531644   4.641   1.561   1.047  0.5221  0.0621 -0.2491
 5890ntf    on531645   4.652   1.520   0.803 -0.8341 -0.2497 -0.2225
 5890ntf    on531646   4.365   1.394   1.134 -0.8713  0.2536  0.3402
 5890ntf    on531647   4.228   1.358   0.931  0.0230 -0.4048  0.1367
 5890ntf    fn431648   4.330   1.699   1.040  0.6129 -0.1913 -0.1935
 5890ntf    fn431649   4.178   1.630   0.910  0.1960 -0.0501  0.0769
 5890ntf    fn431650   4.161   1.595   1.122  0.1244 -0.3240  0.3874
 5891ntf    cn131651   5.282   0.397   3.764 -0.1375  0.1593  0.5863
 5891ntf    sn231652   5.400   0.369   3.900  0.5216  0.4707  0.0820
 5891ntf    nn331653   5.438   0.217   3.885  0.2504  0.3935  0.1726
 5891ntf    sn231654   5.541   0.155   3.784 -0.0474  0.1018  0.0461
 5891ntf    cn131655   5.694   0.154   3.882  0.0243  0.1080 -0.0647
 5891ntf    fn431656   5.221   0.514   3.755 -0.3470  0.0117  0.0678
 5891ntf    fn431657   5.339   0.385   3.646 -0.2511 -0.3407  0.5794
 5891ntf    fn431658   5.187   0.306   3.775  0.2015 -0.2657  0.0309
 5891ntf    on531659   5.504   0.469   3.891  1.0704 -0.0713  0.3304
 5891ntf    on531660   5.321   0.380   4.020 -0.0572 -0.6026 -0.1866
 5891ntf    on531661   5.592   0.230   3.672 -0.8620  0.2340 -0.2459
 5891ntf    on531662   5.517   0.016   3.757  1.0215 -0.1494  0.3629
 5891ntf    fn431663   5.646   0.095   3.991 -0.5875  0.1534 -0.3046
 5891ntf    fn431664   5.797   0.084   3.837 -0.0552 -0.2612  0.3244
 5891ntf    fn431665   5.729   0.276   3.918 -0.2221  0.1931 -0.1112
 5892ntf    cn131666   2.513   6.100   3.209  0.1742 -0.2739  0.1550
 5892ntf    sn231667   2.441   6.101   3.042 -0.0432 -0.0973  0.2495
 5892ntf    nn331668   2.351   5.972   3.050 -0.2796  0.0850  0.5726
 5892ntf    sn231669   2.366   5.837   2.971 -0.0548  0.1666  0.4756
 5892ntf    cn131670   2.336   5.880   2.797  0.2860  0.0006  0.3747
 5892ntf    fn431671   2.599   6.199   3.227  0.2209 -0.4132  0.7356
 5892ntf    fn431672   2.422   6.104   3.306 -0.0018  0.2543 -0.0298
 5892ntf    fn431673   2.587   5.992   3.230 -0.0308 -0.3559  0.4713
 5892ntf    on531674   2.352   6.214   3.036 -0.0413 -0.1135 -0.0649
 5892ntf    on531675   2.556   6.099   2.957 -0.2911  0.7471 -0.1141
 5892ntf    on531676   2.259   5.748   3.007  0.4166 -0.4967  0.2679
 5892ntf    on531677   2.499   5.781   2.966 -0.1973 -0.1170 -0.2613
 5892ntf    fn431678   2.356   5.772   2.723  0.3348 -0.0377  0.4438
 5892ntf    fn431679   2.214   5.924   2.772  0.3561  0.2437  0.4553
 5892ntf    fn431680   2.416   5.974   2.750  0.0393  0.0580  0.0668
 5893ntf    cn131681   1.263   2.776   4.418 -0.6387  0.6230  0.0224
 5893ntf    sn231682   1.361   2.877   4.302 -0.2270 -0.0095 -0.1910
 5893ntf    nn331683   1.265   2.845   4.182 -0.6691  0.1936  0.1053
 5893ntf    sn231684   1.291   2.757   4.055  0.0224  0.0420  0.3499
 5893ntf    cn131685   1.279   2.881   3.923  0.2829  0.1585  0.4337
 5893ntf    fn431686   1.296   2.784   4.546 -0.4005 -0.3124  0.0310
 5893ntf    fn431687   1.137   2.812   4.409 -0.6366  0.7154  0.3705
 5893ntf    fn431688   1.270   2.649   4.380  0.0321  0.5113  0.4839
 5893ntf    on531689   1.347   3.010   4.357  0.2717  0.1840 -0.5310
 5893ntf    on531690   1.489   2.814   4.319 -0.1639  0.2966  0.5058
 5893ntf    on531691   1.180   2.669   4.028  0.1991 -0.0720 -0.0071
 5893ntf    on531692   1.422   2.697   4.041 -0.1796 -0.3773  0.2306
 5893ntf    fn431693   1.242   2.820   3.811 -0.1782  0.3733  0.4659
 5893ntf    fn431694   1.175   2.962   3.934  0.2988  0.2579 -0.1070
 5893ntf    fn431695   1.386   2.953   3.897  0.1302  0.3913  0.4453
 5894ntf    cn131696   4.210   5.953   5.097  0.1027  0.2657  0.1250
 5894ntf    sn231697   4.378   5.885   5.113  0.0754  0.1263 -0.1743
 5894ntf    nn331698   4.349   5.816   5.251  0.2027  0.7440  0.1681
 5894ntf    sn231699   4.441   5.781   5.373 -0.1409  0.0708  0.2448
 5894ntf    cn131700   4.357   5.887   5.495 -0.1827  0.1723  0.1281
 5894ntf    fn431701   4.181   5.980   4.971 -0.5198 -0.1889  0.1688
 5894ntf    fn431702   4.109   5.881   5.143  0.0259  0.5392  0.3909
 5894ntf    fn431703   4.187   6.060   5.172  0.0544  0.2023  0.2014
 5894ntf    on531704   4.389   5.796   5.001  0.2010 -0.1388  0.0456
 5894ntf    on531705   4.468   5.998   5.118 -0.3145  0.4184  0.5426
 5894ntf    on531706   4.569   5.848   5.371 -0.2621  0.3106  0.3759
 5894ntf    on531707   4.422   5.656   5.441 -0.2289 -0.1047 -0.1036
 5894ntf    fn431708   4.226   5.873   5.494 -0.2825  1.0707 -0.6653
 5894ntf    fn431709   4.394   5.862   5.620  0.4284  0.2824 -0.0251
 5894ntf    fn431710   4.388   6.014   5.473  0.7230 -0.0366  0.1532
 5895ntf    cn131711   6.835   3.373   7.463 -0.0974 -0.0275 -0.2037
 5895ntf    sn231712   6.724   3.326   7.327 -0.1481  0.1001 -0.2061
 5895ntf    nn331713   6.822   3.221   7.262  0.0299 -0.2587  0.6241
 5895ntf    sn231714   6.815   3.065   7.260 -0.2465 -0.2445  0.3654
 5895ntf    cn131715   6.969   3.032   7.352  0.0991 -0.0375 -0.1354
 5895ntf    fn431716   6.955   3.402   7.416  0.0924 -0.0214  0.2786
 5895ntf    fn431717   6.800   3.479   7.535 -0.3231  0.0531 -0.4316
 5895ntf    fn431718   6.848   3.285   7.561  0.3692  0.4303  0.1541
 5895ntf    on531719   6.613   3.266   7.396  0.4908 -0.1930  0.5901
 5895ntf    on531720   6.703   3.434   7.234  0.1355  0.2169 -0.1375
 5895ntf    on531721   6.842   2.998   7.135 -0.2199  0.2385  0.1096
 5895ntf    on531722   6.707   3.010   7.338 -0.4249  0.0827  0.3503
 5895ntf    fn431723   6.972   3.098   7.467  0.6278 -0.0933 -0.1145
 5895ntf    fn431724   6.986   2.904   7.376 -0.0231 -0.0592 -0.1670
 5895ntf    fn431725   7.073   3.067   7.278 -0.0283  0.0256 -0.2868
 5896ntf    cn131726   7.584   2.057   7.178  0.2830  0.0082  0.3987
 5896ntf    sn231727   7.590   1.923   7.301  0.0366 -0.3888 -0.0142
 5896ntf    nn331728   7.706   1.829   7.254  0.1066 -0.0244 -0.5779
 5896ntf    sn231729   7.707   1.682   7.197  0.2699 -0.2751  0.0610
 5896ntf    cn131730   7.759   1.589   7.344  0.4403 -0.1791  0.0620
 5896ntf    fn431731   7.705   2.108   7.171  0.4132 -0.2910  0.4482
 5896ntf    fn431732   7.549   1.995   7.066 -0.0545  0.1366  0.4314
 5896ntf    fn431733   7.495   2.155   7.185 -0.1691 -0.3215 -0.4400
 5896ntf    on531734   7.623   2.001   7.418 -0.0167 -0.4635  0.0503
 5896ntf    on531735   7.457   1.868   7.302 -0.2712  0.3409 -0.0012
 5896ntf    on531736   7.818   1.674   7.106  0.1374 -0.6613 -0.0661
 5896ntf    on531737   7.584   1.623   7.151  0.1800  0.2540 -0.3852
 5896ntf    fn431738   7.855   1.658   7.404  0.2324  0.2804 -0.1287
 5896ntf    fn431739   7.672   1.555   7.438 -0.0653  0.2090 -0.2594
 5896ntf    fn431740   7.814   1.474   7.307  0.0993 -0.2796 -0.1392
 5897ntf    cn131741   5.715   2.675   2.198 -0.0607 -0.5651 -0.0466
 5897ntf    sn231742   5.607   2.707   2.055 -0.1733 -0.2717  0.1021
 5897ntf    nn331743   5.678   2.836   2.002 -0.5025  0.1469  0.6700
 5897ntf    sn231744   5.605   2.959   1.938  0.0634  0.1326 -0.0307
 5897ntf    cn131745   5.581   3.061   2.087  0.1014  0.3500 -0.1735
 5897ntf    fn431746   5.830   2.616   2.175  0.3727  0.0747  0.4378
 5897ntf    fn431747   5.744   2.788   2.260  0.0429 -0.6909  0.1362
 5897ntf    fn431748   5.662   2.598   2.292  0.2583 -0.1566  0.4724
 5897ntf    on531749   5.639   2.591   1.975  0.7840 -0.0976  0.2180
 5897ntf    on531750   5.478   2.725   2.116 -0.1743  0.2037 -0.0344
 5897ntf    on531751   5.469   2.940   1.894  0.2616 -0.4300 -0.3927
 5897ntf    on531752   5.692   3.038   1.855  0.1722  0.1964  0.1416
 5897ntf    fn431753   5.498   3.021   2.181 -0.0029  0.0563 -0.3923
 5897ntf    fn431754   5.696   3.093   2.145  0.0034  0.2160  0.0978
 5897ntf    fn431755   5.537   3.181   2.054 -0.3085  0.3034  0.2031
 5898ntf    cn131756   0.473   0.012   0.943 -0.0820  0.0939 -0.0305
 5898ntf    sn231757   0.468  -0.098   0.798  0.1078  0.0387  0.0056
 5898ntf    nn331758   0.371  -0.207   0.856  0.2328 -0.2193 -0.2719
 5898ntf    sn231759   0.397  -0.348   0.921  0.3853  0.0002  0.1404
 5898ntf    cn131760   0.371  -0.467   0.787 -0.1456  0.2582  0.0095
 5898ntf    fn431761   0.546  -0.037   1.041 -0.1081 -0.4032 -0.2573
 5898ntf    fn431762   0.524   0.131   0.913  0.2379  0.0615  0.3732
 5898ntf    fn431763   0.353   0.031   0.996 -0.1059  0.2997 -0.1573
 5898ntf    on531764   0.414   0.001   0.709  0.1732  0.4770  0.4443
 5898ntf    on531765   0.608  -0.131   0.785  0.2586  0.5002  0.3991
 5898ntf    on531766   0.296  -0.368   1.022 -0.0656  0.6908 -0.1627
 5898ntf    on531767   0.531  -0.378   0.965  0.2986 -0.0054  0.4056
 5898ntf    fn431768   0.416  -0.424   0.670 -0.4971  0.2298 -0.1364
 5898ntf    fn431769   0.432  -0.584   0.802  0.0168  0.3820  0.3191
 5898ntf    fn431770   0.240  -0.485   0.777 -0.0780 -0.0001 -0.4331
 5899ntf    cn131771   1.864   0.197   0.470  0.2170  0.2886 -0.2567
 5899ntf    sn231772   1.865   0.292   0.626  0.1051 -0.0356 -0.0562
 5899ntf    nn331773   1.978   0.221   0.708  0.2238  0.3075  0.0781
 5899ntf    sn231774   1.985   0.149   0.848  0.2243  0.1013 -0.0265
 5899ntf    cn131775   1.929  -0.016   0.798 -0.1085  0.3309 -0.4262
 5899ntf    fn431776   1.982   0.196   0.411  0.1433 -0.1318 -0.3961
 5899ntf    fn431777   1.833   0.072   0.500  0.3925  0.2788 -0.1145
 5899ntf    fn431778   1.778   0.238   0.379 -0.1245 -0.1317 -0.1289
 5899ntf    on531779   1.902   0.425   0.586 -0.0049  0.0385  0.0891
 5899ntf    on531780   1.730   0.274   0.673  0.2400 -0.2153  0.2594
 5899ntf    on531781   1.892   0.197   0.947  0.3839 -0.2032  0.2700
 5899ntf    on531782   2.120   0.123   0.892  0.2338  0.1568 -0.0229
 5899ntf    fn431783   2.018  -0.082   0.725 -0.0524 -0.2274  0.1397
 5899ntf    fn431784   1.911  -0.089   0.907 -0.4777 -0.3427 -0.9254
 5899ntf    fn431785   1.817  -0.017   0.729 -0.3099  0.2900 -0.1006
 5900ntf    cn131786   3.833   7.394   3.128 -0.2522 -0.3883  0.4220
 5900ntf    sn231787   3.857   7.237   3.039 -0.5667 -0.0530 -0.2684
 5900ntf    nn331788   3.968   7.269   2.934 -0.3455 -0.3284 -0.1205
 5900ntf    sn231789   3.959   7.312   2.783  0.2596  0.1914 -0.0092
 5900ntf    cn131790   3.973   7.491   2.811  0.0928  0.2208 -0.1166
 5900ntf    fn431791   3.792   7.378   3.252 -0.5897  0.6445  0.4549
 5900ntf    fn431792   3.943   7.467   3.135 -0.1255 -0.5114 -0.1692
 5900ntf    fn431793   3.746   7.471   3.064  0.1156 -0.0775  0.2891
 5900ntf    on531794   3.896   7.144   3.143 -0.2178  0.1547 -0.2113
 5900ntf    on531795   3.727   7.220   2.980 -0.5941  0.0718 -0.2434
 5900ntf    on531796   3.836   7.282   2.714  0.0943 -0.3025  0.4985
 5900ntf    on531797   4.082   7.270   2.720  0.5526 -0.1571  0.7769
 5900ntf    fn431798   3.855   7.548   2.832  0.0043 -0.0555  0.1415
 5900ntf    fn431799   4.049   7.516   2.916  0.2707 -0.1584 -0.1548
 5900ntf    fn431800   4.026   7.555   2.708 -0.3176  0.1307 -0.3839
 5901ntf    cn131801   5.750   3.113   7.455 -0.0680 -0.2454  0.0817
 5901ntf    sn231802   5.740   2.962   7.355 -0.0889 -0.1896 -0.0011
 5901ntf    nn331803   5.891   2.929   7.325 -0.1110 -0.1673 -0.1393
 5901ntf    sn231804   5.974   2.821   7.403 -0.0530  0.1392  0.2224
 5901ntf    cn131805   6.138   2.853   7.331 -0.2391  0.1018 -0.2191
 5901ntf    fn431806   5.636   3.138   7.519 -0.2829 -0.5230 -0.1897
 5901ntf    fn431807   5.845   3.096   7.545 -0.1713  0.0955  0.2591
 5901ntf    fn431808   5.787   3.224   7.393 -0.5597 -0.2190 -0.1736
 5901ntf    on531809   5.666   2.869   7.437 -0.1090 -0.0827  0.1017
 5901ntf    on531810   5.668   3.012   7.241 -0.2593 -0.4546 -0.0113
 5901ntf    on531811   5.954   2.682   7.372  0.4323  0.1305 -0.0534
 5901ntf    on531812   6.004   2.860   7.539 -0.6985  0.4341  0.2849
 5901ntf    fn431813   6.149   2.859   7.200  0.0006  0.4526 -0.1816
 5901ntf    fn431814   6.183   2.968   7.376  0.5721 -0.1684 -0.3262
 5901ntf    fn431815   6.228   2.763   7.365  0.0000  0.4731  0.1346
 5902ntf    cn131816   1.064   6.286   5.658  0.0051  0.3743  0.0308
 5902ntf    sn231817   0.970   6.380   5.535 -0.3584  0.1887  0.1669
 5902ntf    nn331818   0.887   6.480   5.623 -0.1127  0.6606 -0.1300
 5902ntf    sn231819   0.732   6.485   5.649 -0.1502 -0.4639 -0.0550
 5902ntf    cn131820   0.712   6.359   5.778 -0.1639 -0.1929  0.2090
 5902ntf    fn431821   1.011   6.293   5.779  0.7656  0.0857  0.3912
 5902ntf    fn431822   1.088   6.157   5.637 -0.4533  0.3201 -0.1726
 5902ntf    fn431823   1.180   6.349   5.671  0.5866 -0.5653 -0.4357
 5902ntf    on531824   1.079   6.445   5.466 -0.0474 -0.3944  0.0990
 5902ntf    on531825   0.903   6.278   5.458 -0.1108  0.3532 -0.2702
 5902ntf    on531826   0.642   6.442   5.544 -0.0970  0.3739 -0.4585
 5902ntf    on531827   0.702   6.609   5.717  0.9424  0.0183 -0.4226
 5902ntf    fn431828   0.601   6.372   5.848 -0.1363  0.3223  0.1641
 5902ntf    fn431829   0.720   6.236   5.729  0.1570 -0.4071  0.7899
 5902ntf    fn431830   0.811   6.378   5.863  0.1927 -0.6599 -0.0959
 5903ntf    cn131831   7.201   2.493   1.478 -0.1592 -0.4303  0.1830
 5903ntf    sn231832   7.033   2.437   1.436 -0.2943  0.0494  0.0806
 5903ntf    nn331833   7.051   2.289   1.386  0.5215  0.0912  0.2492
 5903ntf    sn231834   7.031   2.150   1.455 -0.3103  0.1660  0.1675
 5903ntf    cn131835   6.866   2.104   1.394 -0.1997 -0.0928  0.0599
 5903ntf    fn431836   7.208   2.560   1.592  0.6395  0.3341 -0.3097
 5903ntf    fn431837   7.285   2.391   1.481 -0.1032 -0.4009 -0.2607
 5903ntf    fn431838   7.249   2.571   1.383  0.0237 -0.2976  0.3838
 5903ntf    on531839   6.963   2.437   1.562  0.0590  0.3476  0.2773
 5903ntf    on531840   6.987   2.517   1.324 -0.2299 -0.4602 -0.3143
 5903ntf    on531841   7.007   2.143   1.597 -0.3563 -0.1895  0.1448
 5903ntf    on531842   7.121   2.048   1.406 -0.7489 -0.1077 -0.0771
 5903ntf    fn431843   6.813   2.011   1.472 -0.5482 -0.2782 -0.3959
 5903ntf    fn431844   6.783   2.207   1.390 -0.5692 -0.3877  0.1184
 5903ntf    fn431845   6.869   2.052   1.273  0.0497  0.2057 -0.0643
 5904ntf    cn131846   6.791   0.026   5.358 -0.0675  0.0633 -0.0996
 5904ntf    sn231847   6.860   0.193   5.378  0.0084  0.0330 -0.1073
 5904ntf    nn331848   6.994   0.158   5.451  0.0564  0.1694 -0.1297
 5904ntf    sn231849   7.146   0.157   5.410  0.0155  0.5384 -0.2930
 5904ntf    cn131850   7.205   0.269   5.540  0.4472  0.1647 -0.1636
 5904ntf    fn431851   6.878  -0.050   5.293 -0.0668 -0.3817  0.4045
 5904ntf    fn431852   6.771  -0.024   5.479 -0.1912  0.6264  0.1137
 5904ntf    fn431853   6.678   0.005   5.293  0.3401 -0.1082 -0.7577
 5904ntf    on531854   6.872   0.237   5.241  0.0074  0.2927 -0.0231
 5904ntf    on531855   6.768   0.264   5.462  0.4025  0.3473  0.0618
 5904ntf    on531856   7.187   0.231   5.293 -0.2021  0.6533 -0.2974
 5904ntf    on531857   7.212   0.032   5.439 -0.2577  0.4560 -0.0156
 5904ntf    fn431858   7.337   0.276   5.536  0.4634 -0.1487 -0.1548
 5904ntf    fn431859   7.157   0.390   5.516 -0.2159 -0.0972 -0.1745
 5904ntf    fn431860   7.165   0.239   5.663 -0.4838  0.9959 -0.2486
 5905ntf    cn131861   6.669   3.849   7.259 -0.1737  0.1403 -0.4011
 5905ntf    sn231862   6.807   3.961   7.299  0.0877 -0.2771 -0.1287
 5905ntf    nn331863   6.822   4.054   7.174 -0.3512 -0.3339 -0.2255
 5905ntf    sn231864   6.760   4.196   7.143  0.0889 -0.1353 -0.2012
 5905ntf    cn131865   6.903   4.298   7.189  0.0732  0.1247 -0.7207
 5905ntf    fn431866   6.573   3.904   7.186 -0.3570  0.4957  0.0996
 5905ntf    fn431867   6.714   3.755   7.177 -0.2766 -0.4765  0.2397
 5905ntf    fn431868   6.618   3.791   7.366  0.1474  0.1759 -0.2285
 5905ntf    on531869   6.761   4.023   7.420  0.7537 -0.2198  0.0940
 5905ntf    on531870   6.923   3.877   7.319 -0.1613 -0.5814  0.0459
 5905ntf    on531871   6.657   4.253   7.225  0.5660 -0.1060  0.3823
 5905ntf    on531872   6.755   4.219   7.001 -0.2649 -0.6523 -0.2763
 5905ntf    fn431873   6.938   4.267   7.313  0.1345  0.2359 -0.7092
 5905ntf    fn431874   7.006   4.288   7.107  0.5669  0.6030 -0.1714
 5905ntf    fn431875   6.877   4.428   7.195 -0.2987  0.0328 -0.2191
 5906ntf    cn131876   0.683   0.429   5.150 -0.2065 -0.1532  0.0101
 5906ntf    sn231877   0.556   0.306   5.193 -0.1106 -0.2596 -0.0101
 5906ntf    nn331878   0.568   0.319   5.349 -0.0745 -0.0027 -0.0336
 5906ntf    sn231879   0.470   0.390   5.449  0.6001  0.4021  0.3451
 5906ntf    cn131880   0.380   0.238   5.491 -0.1882  0.6199 -0.5183
 5906ntf    fn431881   0.660   0.552   5.192 -0.6230 -0.2342  0.0176
 5906ntf    fn431882   0.794   0.382   5.206 -0.3347 -0.0473  0.3533
 5906ntf    fn431883   0.707   0.425   5.020 -0.3086  0.8060 -0.0440
 5906ntf    on531884   0.435   0.349   5.128  0.1501  0.4613 -0.0273
 5906ntf    on531885   0.606   0.176   5.158 -0.4442 -0.4114  0.0721
 5906ntf    on531886   0.364   0.474   5.399 -0.2712 -0.5916  0.5026
 5906ntf    on531887   0.537   0.434   5.569 -0.3106  0.8916  0.6880
 5906ntf    fn431888   0.331   0.175   5.386  0.0017  0.2453 -0.3862
 5906ntf    fn431889   0.463   0.147   5.540 -0.8464 -0.0828 -0.6779
 5906ntf    fn431890   0.301   0.249   5.597 -0.0519  0.7862 -0.4328
 5907ntf    cn131891   4.131   1.426   3.964 -0.2094  0.0503  0.0433
 5907ntf    sn231892   4.157   1.249   3.930  0.4081  0.1479  0.0007
 5907ntf    nn331893   4.131   1.193   4.074 -0.7910 -0.0802 -0.2907
 5907ntf    sn231894   4.137   1.049   4.135  0.5185  0.1796  0.2330
 5907ntf    cn131895   4.292   1.066   4.229  0.2776 -0.5724  0.7760
 5907ntf    fn431896   4.009   1.474   3.982 -0.1508 -0.0096  0.6271
 5907ntf    fn431897   4.189   1.453   4.080 -0.3963  0.6402  0.0013
 5907ntf    fn431898   4.198   1.500   3.878  0.1008 -0.0228  0.2199
 5907ntf    on531899   4.055   1.226   3.830  0.1563  0.1511  0.2577
 5907ntf    on531900   4.295   1.244   3.887  0.3961  0.1863 -0.0427
 5907ntf    on531901   4.162   0.940   4.043 -0.1537  0.6168 -0.4763
 5907ntf    on531902   4.041   1.025   4.239 -0.3902 -0.1597 -0.6682
 5907ntf    fn431903   4.401   1.081   4.156 -0.0463  0.8524  0.5560
 5907ntf    fn431904   4.285   1.176   4.303  0.2025 -0.3157  0.3895
 5907ntf    fn431905   4.319   0.967   4.313 -0.4757 -0.4479  1.1781
 5908ntf    cn131906   6.003   4.709   3.651 -0.2138  0.2026 -0.1057
 5908ntf    sn231907   6.040   4.636   3.488  0.3732 -0.1123  0.1656
 5908ntf    nn331908   6.073   4.488   3.528 -0.0038 -0.2441 -0.0149
 5908ntf    sn231909   5.988   4.356   3.522  0.2958 -0.4259 -0.2857
 5908ntf    cn131910   5.978   4.315   3.699 -0.2003  0.5277 -0.0903
 5908ntf    fn431911   5.890   4.652   3.690 -0.0675 -0.3477 -0.4706
 5908ntf    fn431912   6.095   4.688   3.744 -0.3180  0.0603 -0.0340
 5908ntf    fn431913   5.981   4.839   3.658 -0.6132  0.1340 -0.0885
 5908ntf    on531914   5.919   4.663   3.415  0.5073 -0.6290 -0.2535
 5908ntf    on531915   6.155   4.714   3.450  0.0615  0.0212 -0.5081
 5908ntf    on531916   6.070   4.250   3.469 -0.0188 -0.6723 -0.2829
 5908ntf    on531917   5.853   4.365   3.471  0.2495 -0.4723 -0.1733
 5908ntf    fn431918   5.881   4.381   3.760 -0.5504  0.0844 -0.1636
 5908ntf    fn431919   5.946   4.188   3.718  0.3227  0.4376  0.2083
 5908ntf    fn431920   6.083   4.329   3.778 -0.1648 -0.0305 -0.0363
 5909ntf    cn131921   2.856   4.080   4.574 -0.3934 -0.2384 -0.5428
 5909ntf    sn231922   2.745   4.017   4.704  0.1814 -0.1278  0.0121
 5909ntf    nn331923   2.623   3.960   4.623 -0.1446  0.0829  0.3543
 5909ntf    sn231924   2.528   3.837   4.648  0.2460 -0.3670 -0.3595
 5909ntf    cn131925   2.507   3.782   4.476  0.1348  0.0947 -0.4956
 5909ntf    fn431926   2.977   4.102   4.624 -0.3654 -0.3920 -0.5437
 5909ntf    fn431927   2.879   3.992   4.479  0.1305 -0.7736  0.0638
 5909ntf    fn431928   2.800   4.189   4.526 -0.2843  0.2108  0.3263
 5909ntf    on531929   2.807   3.916   4.786  0.5588  0.1701  0.0975
 5909ntf    on531930   2.705   4.140   4.768  0.2834  0.0850 -0.3277
 5909ntf    on531931   2.392   3.871   4.682  0.4316  0.4266 -0.4051
 5909ntf    on531932   2.587   3.721   4.711 -0.6053 -0.4457  0.3041
 5909ntf    fn431933   2.435   3.670   4.475  0.1412  0.0781  0.2363
 5909ntf    fn431934   2.447   3.871   4.399 -0.3485  0.3097  0.1151
 5909ntf    fn431935   2.618   3.748   4.413  0.5127  0.6003 -0.0991
 5910ntf    cn131936   2.508   1.226   0.967 -0.1225 -0.3649  0.4327
 5910ntf    sn231937   2.328   1.247   0.985 -0.1235 -0.1183  0.1549
 5910ntf    nn331938   2.297   1.202   1.132 -0.1787 -0.0863  0.1529
 5910ntf    sn231939   2.301   1.055   1.188 -0.3254 -0.0213  0.3335
 5910ntf    cn131940   2.137   1.047   1.268 -0.3598  0.0545  0.2708
 5910ntf    fn431941   2.573   1.302   1.055 -0.4613 -0.0416  0.4062
 5910ntf    fn431942   2.541   1.101   0.994 -0.3909 -0.4406  0.4116
 5910ntf    fn431943   2.549   1.261   0.846 -1.0118  0.2858  0.3100
 5910ntf    on531944   2.324   1.391   0.979 -0.3495 -0.1150  0.3752
 5910ntf    on531945   2.276   1.173   0.873  0.0526 -0.1155  0.0701
 5910ntf    on531946   2.397   1.040   1.295  0.0971  0.4932  0.0290
 5910ntf    on531947   2.301   0.945   1.095 -0.2909 -0.1544  0.4896
 5910ntf    fn431948   2.138   1.086   1.394  0.1376  0.1533  0.2392
 5910ntf    fn431949   2.038   1.105   1.203 -0.1302  0.2859  0.1235
 5910ntf    fn431950   2.092   0.923   1.275  0.3835 -0.2202  0.3291
 5911ntf    cn131951   2.125   6.313   3.573  0.2831  0.7515  0.0328
 5911ntf    sn231952   2.026   6.465   3.558 -0.3604  0.2964 -0.3975
 5911ntf    nn331953   1.973   6.490   3.703  0.1159 -0.1563 -0.1397
 5911ntf    sn231954   1.840   6.451   3.777 -0.1599  0.3594 -0.3566
 5911ntf    cn131955   1.918   6.415   3.937 -0.1208  0.0882 -0.4354
 5911ntf    fn431956   2.126   6.247   3.688  0.3605  0.3803 -0.1778
 5911ntf    fn431957   2.091   6.224   3.481  0.0299  0.2620  0.5937
 5911ntf    fn431958   2.253   6.337   3.548  0.3840 -0.3830 -0.6440
 5911ntf    on531959   2.116   6.571   3.520 -0.1852  0.4139  0.3430
 5911ntf    on531960   1.928   6.430   3.458 -0.3453 -0.2400 -0.2284
 5911ntf    on531961   1.777   6.329   3.734  0.0568  0.0446  0.2140
 5911ntf    on531962   1.757   6.565   3.807 -0.1896  0.1883  0.2252
 5911ntf    fn431963   1.994   6.514   3.982  0.1388 -0.0983 -0.4604
 5911ntf    fn431964   1.828   6.389   4.030 -0.1163 -0.2532 -0.5278
 5911ntf    fn431965   1.996   6.308   3.934  0.1354  0.2614 -0.1295
 5912ntf    cn131966   4.791   2.312   5.882  0.1983 -0.0625  0.2829
 5912ntf    sn231967   4.877   2.397   5.746  0.0261  0.1056  0.2785
 5912ntf    nn331968   4.891   2.277   5.646 -1.0552  0.1388  0.0733
 5912ntf    sn231969   4.830   2.237   5.507  0.2133 -0.4582 -0.3318
 5912ntf    cn131970   4.925   2.334   5.387 -0.1961  0.5555  0.1465
 5912ntf    fn431971   4.674   2.256   5.855  0.1470  0.1448  0.0765
 5912ntf    fn431972   4.873   2.222   5.934  0.3729 -0.0642  0.0052
 5912ntf    fn431973   4.761   2.397   5.979  0.6344  0.3191  0.0834
 5912ntf    on531974   4.785   2.498   5.702 -0.2031 -0.5718 -0.8213
 5912ntf    on531975   4.997   2.439   5.814  0.2033 -0.7062  0.4758
 5912ntf    on531976   4.693   2.283   5.500  0.1602 -0.4271  0.7133
 5912ntf    on531977   4.850   2.099   5.473  0.4705 -0.3441 -0.6496
 5912ntf    fn431978   5.053   2.300   5.391 -0.1785  0.6365  0.2925
 5912ntf    fn431979   4.883   2.318   5.263  0.4721  0.0573 -0.0203
 5912ntf    fn431980   4.929   2.466   5.400  0.7481  0.5056  0.4802
 5913ntf    cn131981   2.705   5.235   4.958 -0.0318 -0.2331 -0.2538
 5913ntf    sn231982   2.790   5.301   4.812 -0.1667  0.0643 -0.1992
 5913ntf    nn331983   2.921   5.215   4.819 -0.3283 -0.1563  0.1418
 5913ntf    sn231984   2.960   5.082   4.747 -0.1459 -0.0792  0.0959
 5913ntf    cn131985   3.069   5.011   4.874  0.3038  0.0592 -0.2097
 5913ntf    fn431986   2.709   5.103   4.961  0.0995 -0.2291 -0.2604
 5913ntf    fn431987   2.757   5.286   5.068 -0.3782 -0.5155  0.0457
 5913ntf    fn431988   2.578   5.269   4.970 -0.1059 -0.5076 -0.2497
 5913ntf    on531989   2.700   5.261   4.707  0.0189  0.1134 -0.3776
 5913ntf    on531990   2.804   5.442   4.838  0.7468 -0.1060  0.2783
 5913ntf    on531991   3.053   5.099   4.638  0.1621 -0.4013  0.3078
 5913ntf    on531992   2.860   4.979   4.731  0.2428 -0.5093  0.3805
 5913ntf    fn431993   3.113   4.893   4.835 -0.2189 -0.2913  0.2443
 5913ntf    fn431994   3.181   5.077   4.901  0.3060 -0.0082 -0.0529
 5913ntf    fn431995   3.014   4.989   4.992  0.1013  0.2753 -0.2636
 5914ntf    cn131996   1.301   2.876   7.408  0.1532  0.1070  0.4369
 5914ntf    sn231997   1.173   3.005   7.411  0.2954  0.2692 -0.3384
 5914ntf    nn331998   1.259   3.127   7.364  0.9998 -0.1911 -0.2489
 5914ntf    sn231999   1.281   3.170   7.214  0.0275  0.3048 -0.2576
 5914ntf    cn132000   1.142   3.286   7.202 -0.3076 -0.0556  0.0909
 5914ntf    fn432001   1.250   2.755   7.389  0.1210  0.1374  0.3312
 5914ntf    fn432002   1.381   2.885   7.304 -0.7338  0.1089 -0.2569
 5914ntf    fn432003   1.377   2.864   7.516 -0.0297 -0.2344  0.5280
 5914ntf    on532004   1.063   2.964   7.326 -0.0083 -0.0214  0.1890
 5914ntf    on532005   1.137   3.018   7.550 -0.1053 -0.5459 -0.3615
 5914ntf    on532006   1.253   3.068   7.117 -0.2111  0.1887 -0.0663
 5914ntf    on532007   1.393   3.257   7.188  0.1027 -0.0013 -0.9884
 5914ntf    fn432008   1.136   3.356   7.090  0.2453  0.1134  0.1626
 5914ntf    fn432009   1.022   3.233   7.216 -0.2791  0.0122  0.5949
 5914ntf    fn432010   1.156   3.379   7.296  0.6453 -0.0808 -0.0120
 5915ntf    cn132011   5.875   1.038   6.181  0.2458 -0.3219 -0.4070
 5915ntf    sn232012   5.732   1.134   6.123  0.2317 -0.1533 -0.0960
 5915ntf    nn332013   5.692   1.181   6.267  0.0414 -0.1333 -0.1551
 5915ntf    sn232014   5.556   1.157   6.342 -0.0849  0.3356 -0.2271
 5915ntf    cn132015   5.442   1.256   6.241 -0.5225 -0.1189 -0.1863
 5915ntf    fn432016   5.839   0.926   6.241 -0.0497 -0.0470 -0.0695
 5915ntf    fn432017   5.956   1.003   6.082  0.1547 -0.6767 -0.3577
 5915ntf    fn432018   5.955   1.096   6.269 -0.1500 -0.3861 -0.0005
 5915ntf    on532019   5.783   1.240   6.039  0.1608 -0.0270  0.0212
 5915ntf    on532020   5.631   1.049   6.066  0.0787 -0.2374  0.2984
 5915ntf    on532021   5.552   1.225   6.469  0.0643 -0.2610  0.1011
 5915ntf    on532022   5.513   1.019   6.334 -0.3354  0.4543 -0.9951
 5915ntf    fn432023   5.489   1.376   6.208  0.2172 -0.2380  0.3897
 5915ntf    fn432024   5.402   1.192   6.133 -0.1035 -0.1135 -0.3460
 5915ntf    fn432025   5.335   1.274   6.317 -0.2176  0.0188  0.2138
 5916ntf    cn132026   0.967   1.232   4.401 -0.5015  0.0849  0.0181
 5916ntf    sn232027   0.829   1.270   4.513 -0.3209 -0.0469  0.2840
 5916ntf    nn332028   0.757   1.131   4.524  0.0079 -0.2677 -0.3649
 5916ntf    sn232029   0.747   1.024   4.638 -0.2608 -0.0213 -0.1577
 5916ntf    cn132030   0.613   1.093   4.741 -0.3101 -0.1615 -0.1277
 5916ntf    fn432031   0.918   1.209   4.280 -0.3119 -0.6257  0.0735
 5916ntf    fn432032   1.069   1.316   4.393 -0.6661  0.2859  0.0229
 5916ntf    fn432033   1.023   1.118   4.438 -0.8299 -0.0631  0.0661
 5916ntf    on532034   0.885   1.306   4.641  0.0966  0.6618 -0.0948
 5916ntf    on532035   0.749   1.370   4.448 -0.1932 -0.0729  0.0894
 5916ntf    on532036   0.865   1.020   4.721 -0.2181  0.2301 -0.2078
 5916ntf    on532037   0.695   0.902   4.582 -0.0711  0.0945 -0.5859
 5916ntf    fn432038   0.514   1.136   4.665  0.2610  0.7710 -0.3537
 5916ntf    fn432039   0.575   1.017   4.842 -0.2020  0.5525  0.4568
 5916ntf    fn432040   0.648   1.203   4.806 -0.2444 -0.2885  0.0535
 5917ntf    cn132041   4.622   7.039   1.873  0.1903 -0.0145 -0.2441
 5917ntf    sn232042   4.623   7.215   1.920 -0.1342 -0.1377  0.2264
 5917ntf    nn332043   4.767   7.249   1.868 -0.2461 -0.3337 -0.2084
 5917ntf    sn232044   4.808   7.298   1.725 -0.4989  0.0453 -0.1527
 5917ntf    cn132045   4.855   7.468   1.769  0.2291 -0.2054  0.0557
 5917ntf    fn432046   4.650   7.025   1.745 -0.3354  0.0759 -0.3728
 5917ntf    fn432047   4.709   6.974   1.949  0.0588  0.0509 -0.0366
 5917ntf    fn432048   4.506   6.987   1.908  0.2668 -0.1604 -0.2071
 5917ntf    on532049   4.517   7.279   1.846  0.0463 -0.6051 -0.4392
 5917ntf    on532050   4.622   7.215   2.065 -0.3605  0.8047  0.2301
 5917ntf    on532051   4.712   7.319   1.620 -0.7719  0.4454  0.1734
 5917ntf    on532052   4.930   7.241   1.671 -0.0714 -0.0956  0.9488
 5917ntf    fn432053   4.763   7.522   1.847  0.6598 -0.2164  0.5721
 5917ntf    fn432054   4.965   7.480   1.841 -0.1333  0.5206  0.5004
 5917ntf    fn432055   4.884   7.550   1.669 -0.0929 -0.3906 -0.1915
 5918ntf    cn132056   0.516   2.644   5.100 -0.1012  0.0288  0.3245
 5918ntf    sn232057   0.627   2.768   5.173 -0.1522  0.3385 -0.1193
 5918ntf    nn332058   0.708   2.684   5.279 -0.0866 -0.3152 -0.6799
 5918ntf    sn232059   0.833   2.735   5.358 -0.5430 -0.0973 -0.0898
 5918ntf    cn132060   0.772   2.727   5.529  0.2356  0.1701  0.2066
 5918ntf    fn432061   0.439   2.597   5.197 -0.1668 -0.1719  0.1737
 5918ntf    fn432062   0.429   2.692   5.012  0.1922 -0.2147 -0.0989
 5918ntf    fn432063   0.581   2.541   5.050 -0.4335 -0.1607  0.2820
 5918ntf    on532064   0.712   2.798   5.060 -0.0026  0.0554 -0.0834
 5918ntf    on532065   0.538   2.870   5.224 -0.2416 -0.2317  0.8931
 5918ntf    on532066   0.871   2.873   5.338 -0.2833 -0.0163  0.8803
 5918ntf    on532067   0.936   2.634   5.353 -0.5336 -0.0854 -0.1333
 5918ntf    fn432068   0.658   2.793   5.548 -0.2859 -0.6753  0.0420
 5918ntf    fn432069   0.747   2.602   5.561 -0.0295  0.0195 -0.5747
 5918ntf    fn432070   0.860   2.772   5.617  0.2722 -0.0694  0.2931
 5919ntf    cn132071   0.254   6.204   6.032 -0.2466  0.2354 -0.0102
 5919ntf    sn232072   0.095   6.285   6.067 -0.3327 -0.0030  0.1480
 5919ntf    nn332073   0.086   6.377   5.940  0.2133 -0.0209  0.0911
 5919ntf    sn232074  -0.028   6.385   5.833  0.2682 -0.0447  0.0311
 5919ntf    cn132075   0.032   6.261   5.714  0.3347 -0.0278  0.0481
 5919ntf    fn432076   0.353   6.285   5.999 -0.0249 -0.1345 -0.2673
 5919ntf    fn432077   0.291   6.130   6.135 -0.2095  0.2837  0.0120
 5919ntf    fn432078   0.231   6.118   5.934 -0.2909 -0.0210  0.2264
 5919ntf    on532079   0.000   6.178   6.084 -0.1367 -0.2954 -0.5370
 5919ntf    on532080   0.126   6.366   6.181 -0.4052  0.2372 -0.0023
 5919ntf    on532081  -0.039   6.510   5.761  0.3859  0.0806  0.2309
 5919ntf    on532082  -0.156   6.328   5.869  0.0468  0.5021  0.1197
 5919ntf    fn432083   0.028   6.137   5.761  0.2867 -0.0301  0.0393
 5919ntf    fn432084  -0.043   6.265   5.605 -0.0371  0.1856  0.3087
 5919ntf    fn432085   0.156   6.287   5.676  0.2035  0.0353 -0.3446
 5920ntf    cn132086   1.213   0.921   3.047  0.3056 -0.1874  0.1239
 5920ntf    sn232087   1.360   0.815   3.028  0.4096  0.0284 -0.3004
 5920ntf    nn332088   1.289   0.699   2.948  0.0548  0.0008  0.0488
 5920ntf    sn232089   1.300   0.544   2.968 -0.0051 -0.0724 -0.4660
 5920ntf    cn132090   1.342   0.497   2.798 -0.1623 -0.1480 -0.4841
 5920ntf    fn432091   1.172   0.959   2.927  0.7115 -0.2295 -0.0321
 5920ntf    fn432092   1.106   0.857   3.091  0.3382 -0.0291  0.4357
 5920ntf    fn432093   1.237   1.022   3.128 -0.7587 -0.0639  0.3001
 5920ntf    on532094   1.450   0.897   2.952  0.0900 -0.1773 -0.9093
 5920ntf    on532095   1.396   0.784   3.164  0.4434  0.6737 -0.1612
 5920ntf    on532096   1.173   0.480   2.988  0.0246 -0.1471 -0.5169
 5920ntf    on532097   1.409   0.497   3.051 -0.0221  0.5354 -0.0915
 5920ntf    fn432098   1.467   0.531   2.771 -0.1493  0.4897  0.3320
 5920ntf    fn432099   1.328   0.369   2.769  0.3597 -0.2061 -0.5007
 5920ntf    fn432100   1.270   0.560   2.706 -0.1956  0.0051 -0.3527
 5921ntf    cn132101   6.303   2.047   3.032 -0.0336 -0.2080 -0.3068
 5921ntf    sn232102   6.140   2.064   3.111  0.1022  0.0576 -0.0853
 5921ntf    nn332103   6.175   1.997   3.249  0.0525 -0.1481 -0.1723
 5921ntf    sn232104   6.094   1.891   3.331  0.2143 -0.2156 -0.0984
 5921ntf    cn132105   6.163   1.738   3.260  0.1052 -0.2769 -0.0739
 5921ntf    fn432106   6.394   2.115   3.099  0.0912 -0.1624 -0.5203
 5921ntf    fn432107   6.342   1.920   3.029  0.4711 -0.0588 -0.1756
 5921ntf    fn432108   6.310   2.103   2.912 -0.0142 -0.0061 -0.2113
 5921ntf    on532109   6.126   2.206   3.132 -0.3332  0.0643 -0.4271
 5921ntf    on532110   6.050   1.989   3.027 -0.3686  0.0385  0.4293
 5921ntf    on532111   5.953   1.893   3.298  0.2301 -0.4083 -0.1819
 5921ntf    on532112   6.119   1.884   3.473  0.2926 -0.3010 -0.1161
 5921ntf    fn432113   6.163   1.730   3.128 -0.0981 -0.4025 -0.0667
 5921ntf    fn432114   6.287   1.728   3.306  0.3122 -0.0027 -0.5639
 5921ntf    fn432115   6.091   1.634   3.300 -0.1464  0.0079  0.2206
 5922ntf    cn132116   1.328   7.303   2.662  0.0276 -0.1516 -0.1134
 5922ntf    sn232117   1.186   7.320   2.550 -0.0395 -0.3000 -0.0494
 5922ntf    nn332118   1.190   7.177   2.484  0.4042 -0.1049 -0.4446
 5922ntf    sn232119   1.075   7.073   2.458 -0.1458  0.3456  0.1564
 5922ntf    cn132120   1.123   6.943   2.576 -0.1279  0.2595  0.0545
 5922ntf    fn432121   1.437   7.268   2.595 -0.2795 -0.0410 -0.6793
 5922ntf    fn432122   1.369   7.409   2.730 -0.5571 -0.0596  0.0927
 5922ntf    fn432123   1.317   7.212   2.757  0.2337 -0.2733 -0.2048
 5922ntf    on532124   1.075   7.347   2.639 -0.1571  0.3303 -0.3893
 5922ntf    on532125   1.230   7.430   2.468  0.0652  0.0260  0.4412
 5922ntf    on532126   1.089   6.995   2.338  0.7220 -0.6041  0.8568
 5922ntf    on532127   0.945   7.111   2.507 -0.0417  0.2862  0.4835
 5922ntf    fn432128   1.235   6.882   2.543 -0.1033  0.4338 -0.1889
 5922ntf    fn432129   1.138   6.988   2.699 -0.0036  0.0791  0.1054
 5922ntf    fn432130   1.032   6.848   2.582 -0.1880  0.3611  0.8446
 5923ntf    cn132131   3.594   3.066   4.191 -0.5494 -0.1931 -0.1698
 5923ntf    sn232132   3.724   2.940   4.178  0.1390  0.5178 -0.2264
 5923ntf    nn332133   3.721   2.904   4.025 -0.2872 -0.1262 -0.0675
 5923ntf    sn232134   3.811   2.979   3.921  0.4214 -0.2445  0.4495
 5923ntf    cn132135   3.681   3.031   3.805  0.6809 -0.3158  0.1217
 5923ntf    fn432136   3.481   3.041   4.127 -0.5249 -0.0293 -0.2787
 5923ntf    fn432137   3.549   3.080   4.315 -0.2071  0.5620 -0.1257
 5923ntf    fn432138   3.629   3.186   4.148  0.4601 -0.0892  0.8820
 5923ntf    on532139   3.846   3.005   4.220 -0.0191  0.0956  0.9215
 5923ntf    on532140   3.677   2.827   4.253  0.5577 -0.3872 -1.3089
 5923ntf    on532141   3.897   2.892   3.844  0.3972  0.2858 -0.1802
 5923ntf    on532142   3.864   3.108   3.956 -0.0606  0.1140 -0.1140
 5923ntf    fn432143   3.616   2.936   3.741 -0.1970  0.4725 -0.1962
 5923ntf    fn432144   3.583   3.096   3.867  0.2898 -0.3633 -0.4419
 5923ntf    fn432145   3.725   3.116   3.714 -0.3498  0.2803  0.1562
 5924ntf    cn132146   4.748   4.160   4.955 -0.3708  0.5591  0.5000
 5924ntf    sn232147   4.610   4.274   4.924 -0.4975  0.2702 -0.0134
 5924ntf    nn332148   4.672   4.383   5.018 -0.8549  0.3866  0.0916
 5924ntf    sn232149   4.734   4.522   4.977  0.1796 -0.0623  0.0808
 5924ntf    cn132150   4.577   4.600   4.926  0.0289 -0.5320 -0.1760
 5924ntf    fn432151   4.701   4.038   4.934  0.4341  0.2860  0.2497
 5924ntf    fn432152   4.854   4.171   4.876 -0.8873 -1.0431 -0.4774
 5924ntf    fn432153   4.794   4.164   5.079  0.4225  0.2223  0.2244
 5924ntf    on532154   4.616   4.297   4.782 -0.0420 -0.9235 -0.1987
 5924ntf    on532155   4.496   4.210   4.984  0.3376 -0.5693  0.7111
 5924ntf    on532156   4.826   4.522   4.866 -0.2820  0.0564 -0.3064
 5924ntf    on532157   4.775   4.605   5.087  0.5692  0.3111 -0.3440
 5924ntf    fn432158   4.498   4.612   5.031  0.2493  0.2111 -0.0940
 5924ntf    fn432159   4.603   4.716   4.869  0.1770 -0.2575  0.4460
 5924ntf    fn432160   4.508   4.530   4.837 -0.2793 -0.2614 -0.1477
 5925ntf    cn132161   6.328   2.038   4.084 -0.0839 -0.4811 -0.1287
 5925ntf    sn232162   6.503   1.997   4.058  0.0517  0.0708 -0.0942
 5925ntf    nn332163   6.488   1.841   4.052  0.1457  0.0647 -0.1786
 5925ntf    sn232164   6.604   1.741   4.086  0.0609 -0.1273 -0.4495
 5925ntf    cn132165   6.544   1.609   3.976 -0.0093 -0.3437 -0.1529
 5925ntf    fn432166   6.322   2.170   4.088 -0.1856 -0.4820 -0.2533
 5925ntf    fn432167   6.251   1.989   3.988 -0.5790 -0.0376  0.0370
 5925ntf    fn432168   6.290   1.999   4.205  0.1700 -0.2000  0.0446
 5925ntf    on532169   6.538   2.059   3.932  0.4282  0.3094  0.1263
 5925ntf    on532170   6.558   2.058   4.176 -0.3405  0.4078 -0.0834
 5925ntf    on532171   6.605   1.684   4.219 -1.2689  0.0826 -0.3415
 5925ntf    on532172   6.737   1.782   4.047  0.0707  0.4722  0.1895
 5925ntf    fn432173   6.442   1.545   4.031  0.2987 -0.4787  0.2693
 5925ntf    fn432174   6.501   1.647   3.857  0.5253 -0.3235 -0.3416
 5925ntf    fn432175   6.631   1.515   3.943 -0.0322 -0.3317 -0.2446
 5926ntf    cn132176   3.995   0.327   4.230  0.1327  0.0721 -0.2884
 5926ntf    sn232177   3.852   0.345   4.119 -0.0175 -0.4592 -0.1837
 5926ntf    nn332178   3.788   0.203   4.138 -0.3432 -0.2347  0.4249
 5926ntf    sn232179   3.819   0.067   4.067 -0.0919 -0.1554  0.3833
 5926ntf    cn132180   3.701   0.086   3.930  0.0353  0.1319  0.3131
 5926ntf    fn432181   4.056   0.438   4.268  0.8893 -0.3285 -0.3055
 5926ntf    fn432182   3.961   0.255   4.336  0.7740 -0.0543 -0.1657
 5926ntf    fn432183   4.092   0.262   4.168 -0.0731 -0.4737 -0.0402
 5926ntf    on532184   3.767   0.453   4.163 -0.0353 -0.3047 -0.5896
 5926ntf    on532185   3.916   0.371   3.992  0.2599  0.7541  0.1922
 5926ntf    on532186   3.769  -0.040   4.149 -0.3277  0.4693  1.0626
 5926ntf    on532187   3.951   0.042   4.013 -0.4014 -0.1911 -0.3671
 5926ntf    fn432188   3.728   0.181   3.842 -0.1666  0.1194  0.2387
 5926ntf    fn432189   3.691  -0.024   3.857  0.2067  0.1958  0.1914
 5926ntf    fn432190   3.580   0.112   3.976  0.2167  0.3191  0.6922
 5927ntf    cn132191   3.209   6.402   0.560 -0.4477 -0.2447  0.2795
 5927ntf    sn232192   3.126   6.255   0.626  0.0219 -0.4892  0.3330
 5927ntf    nn332193   3.256   6.190   0.683  0.3312  0.0247  0.2213
 5927ntf    sn232194   3.295   6.184   0.835 -0.5574 -0.3095  0.4407
 5927ntf    cn132195   3.318   6.004   0.848 -0.0459 -0.2771  0.0019
 5927ntf    fn432196   3.315   6.379   0.484 -0.6301 -0.4300  0.0806
 5927ntf    fn432197   3.127   6.462   0.475 -0.3661 -0.6493 -0.0883
 5927ntf    fn432198   3.246   6.489   0.653  0.1705  0.0497 -0.2295
 5927ntf    on532199   3.035   6.309   0.725 -0.3049  0.1503 -0.3053
 5927ntf    on532200   3.080   6.187   0.508  1.1114  0.1574 -0.4789
 5927ntf    on532201   3.192   6.197   0.935 -0.4268 -0.5797  0.6129
 5927ntf    on532202   3.426   6.238   0.861 -0.1333 -0.4456 -1.3059
 5927ntf    fn432203   3.415   5.958   0.771 -0.3128 -0.2605 -0.3447
 5927ntf    fn432204   3.356   5.967   0.970 -1.0357 -0.1001  0.3686
 5927ntf    fn432205   3.208   5.936   0.823  0.3018 -0.7251 -0.3428
 5928ntf    cn132206   1.546   6.855   1.120  0.2001  0.1736  0.1986
 5928ntf    sn232207   1.495   6.907   1.287 -0.0084  0.0425  0.1767
 5928ntf    nn332208   1.458   6.766   1.345  0.0249 -0.2025 -0.3891
 5928ntf    sn232209   1.444   6.725   1.496  0.0811 -0.0246 -0.3356
 5928ntf    cn132210   1.284   6.644   1.467 -0.0634  0.2035 -0.1804
 5928ntf    fn432211   1.553   6.964   1.046  0.3801  0.0649  0.0557
 5928ntf    fn432212   1.658   6.785   1.123  0.1580  0.1155  0.4542
 5928ntf    fn432213   1.456   6.772   1.070  0.5106 -0.2172  0.2840
 5928ntf    on532214   1.613   6.973   1.337 -0.1897  0.5655 -0.0820
 5928ntf    on532215   1.380   6.990   1.263  0.1416  0.1279 -0.2639
 5928ntf    on532216   1.413   6.822   1.598 -0.0696 -0.5916  0.1615
 5928ntf    on532217   1.540   6.622   1.527 -0.6435 -0.7087 -0.3270
 5928ntf    fn432218   1.226   6.595   1.575 -0.2795  0.3318 -0.2384
 5928ntf    fn432219   1.197   6.729   1.415 -0.3744  0.1461  0.2500
 5928ntf    fn432220   1.294   6.548   1.377 -0.3364 -0.1587  0.1729
 5929ntf    cn132221   0.956   3.551   0.863 -0.0113  0.6329 -0.2309
 5929ntf    sn232222   1.016   3.697   0.953  0.0210  0.2335  0.4020
 5929ntf    nn332223   0.883   3.736   1.028 -0.6487 -0.2232 -0.5316
 5929ntf    sn232224   0.847   3.708   1.178  0.1317  0.0339 -0.2926
 5929ntf    cn132225   0.801   3.881   1.213 -0.1806 -0.0517 -0.2813
 5929ntf    fn432226   0.838   3.566   0.805 -0.4257  0.2409  0.4872
 5929ntf    fn432227   1.033   3.511   0.764 -0.0334 -0.1888  0.0748
 5929ntf    fn432228   0.932   3.443   0.937 -0.5614  0.6050 -0.4412
 5929ntf    on532229   1.122   3.655   1.041 -0.0619  0.5054  0.6345
 5929ntf    on532230   1.062   3.791   0.855 -0.2835 -0.2279 -0.1873
 5929ntf    on532231   0.954   3.691   1.273  0.3224  0.1270 -0.4887
 5929ntf    on532232   0.726   3.633   1.201  0.0536  0.2615  0.0539
 5929ntf    fn432233   0.708   3.924   1.128 -0.5965  0.2361  0.3092
 5929ntf    fn432234   0.756   3.899   1.336 -0.4472 -0.5213 -0.3065
 5929ntf    fn432235   0.913   3.949   1.206 -0.1072 -0.2344 -0.9584
 5930ntf    cn132236   7.419   1.389   7.406 -0.0314  0.1640 -0.3954
 5930ntf    sn232237   7.325   1.294   7.529  0.0143 -0.0882 -0.5536
 5930ntf    nn332238   7.364   1.152   7.476 -0.3970 -0.4690  0.1397
 5930ntf    sn232239   7.313   1.081   7.345  0.0485  0.1430 -0.3757
 5930ntf    cn132240   7.191   0.972   7.424  0.4443  0.0292  0.0870
 5930ntf    fn432241   7.357   1.407   7.290 -0.2711  0.1090 -0.2768
 5930ntf    fn432242   7.446   1.509   7.455  0.6449 -0.2371  0.2382
 5930ntf    fn432243   7.537   1.337   7.377  0.0097  0.0117  0.0463
 5930ntf    on532244   7.403   1.338   7.643 -0.5700 -0.4283 -0.0136
 5930ntf    on532245   7.191   1.346   7.521  0.2996  0.7167 -0.2355
 5930ntf    on532246   7.415   0.993   7.295  0.1782 -0.1521  0.3905
 5930ntf    on532247   7.234   1.169   7.262  0.0784  0.4928 -0.0396
 5930ntf    fn432248   7.113   0.912   7.336  0.3517  0.4908 -0.1507
 5930ntf    fn432249   7.253   0.876   7.491  0.4151 -0.1089 -0.0842
 5930ntf    fn432250   7.110   1.036   7.508 -0.2765  0.0795 -0.6346
 5931ntf    cn132251   3.209   5.654   4.503 -0.2926  0.3312 -0.2446
 5931ntf    sn232252   3.333   5.539   4.437 -0.2533  0.1914  0.0703
 5931ntf    nn332253   3.339   5.427   4.547  0.4222  0.2519  0.0986
 5931ntf    sn232254   3.457   5.394   4.646  0.3633  0.1591  0.1374
 5931ntf    cn132255   3.384   5.258   4.743  0.0382 -0.0407 -0.3820
 5931ntf    fn432256   3.086   5.606   4.493 -0.2540  0.1031  0.3479
 5931ntf    fn432257   3.220   5.676   4.633 -0.3644  0.0897 -0.1968
 5931ntf    fn432258   3.217   5.767   4.434 -0.1206  0.2427 -0.3679
 5931ntf    on532259   3.271   5.487   4.318 -0.5736  0.3259  0.1788
 5931ntf    on532260   3.450   5.623   4.420  0.2561 -0.4960  0.1280
 5931ntf    on532261   3.480   5.503   4.738 -0.0312  0.1281  0.2760
 5931ntf    on532262   3.577   5.340   4.589 -0.2756 -0.5828 -0.5200
 5931ntf    fn432263   3.273   5.294   4.804  0.2015 -0.3946  0.1252
 5931ntf    fn432264   3.359   5.148   4.675 -0.2659 -0.0255 -0.2927
 5931ntf    fn432265   3.463   5.218   4.841 -0.1223  0.2691 -0.1220
 5932ntf    cn132266   4.661   0.009   3.170 -0.2905 -0.0810 -0.1805
 5932ntf    sn232267   4.739   0.128   3.283  0.4222 -0.0765 -0.6694
 5932ntf    nn332268   4.746   0.251   3.185 -0.6695  0.2702 -0.3290
 5932ntf    sn232269   4.865   0.298   3.094 -0.2919 -0.1602 -0.0614
 5932ntf    cn132270   4.975   0.391   3.205 -0.4609 -0.1987  0.1396
 5932ntf    fn432271   4.563   0.057   3.096 -0.1905  0.3177 -0.0541
 5932ntf    fn432272   4.747  -0.052   3.090 -0.2648  0.4390 -0.5521
 5932ntf    fn432273   4.605  -0.094   3.231 -0.4560 -0.2393 -0.5955
 5932ntf    on532274   4.634   0.158   3.378  0.9373 -0.5664  0.0649
 5932ntf    on532275   4.860   0.061   3.323  0.4220  0.0695 -0.4176
 5932ntf    on532276   4.817   0.408   3.014  0.4147 -0.2777 -0.6527
 5932ntf    on532277   4.950   0.197   3.036  0.1993  0.3301 -0.2050
 5932ntf    fn432278   5.030   0.319   3.302 -0.0068  0.1670  0.1524
 5932ntf    fn432279   5.071   0.457   3.143 -0.3101 -0.2864  0.2766
 5932ntf    fn432280   4.917   0.492   3.267  0.1018 -0.2013  0.6811
 5933ntf    cn132281   7.185   4.312   6.809 -0.3766 -0.2631 -0.0115
 5933ntf    sn232282   7.204   4.164   6.705  0.1750  0.0144 -0.3128
 5933ntf    nn332283   7.268   4.227   6.576  0.1469 -0.2460 -0.4553
 5933ntf    sn232284   7.207   4.237   6.432  0.0566  0.3647 -0.3767
 5933ntf    cn132285   7.299   4.383   6.374  0.0725  0.4056 -0.2506
 5933ntf    fn432286   7.107   4.291   6.914 -0.1771 -0.6262  0.0619
 5933ntf    fn432287   7.303   4.340   6.861 -0.4791 -0.3239  0.2526
 5933ntf    fn432288   7.133   4.413   6.740 -0.0922 -0.2856 -0.2641
 5933ntf    on532289   7.295   4.085   6.784 -0.5436 -0.1914  0.3259
 5933ntf    on532290   7.070   4.116   6.682  0.1122 -0.4100  0.8705
 5933ntf    on532291   7.071   4.286   6.419 -0.0304  0.2539  0.0956
 5933ntf    on532292   7.258   4.127   6.354 -0.5758 -0.4303  0.3129
 5933ntf    fn432293   7.261   4.426   6.254  0.2321 -0.1241 -0.4940
 5933ntf    fn432294   7.282   4.488   6.452 -0.1974 -0.1038  0.3922
 5933ntf    fn432295   7.426   4.347   6.369 -0.0834 -0.2212  0.1998
 5934ntf    cn132296   0.763   1.046   3.106 -0.1566 -0.0720  0.1093
 5934ntf    sn232297   0.798   1.197   3.012  0.0309 -0.2291 -0.0738
 5934ntf    nn332298   0.784   1.307   3.123  0.1198 -0.2395 -0.0525
 5934ntf    sn232299   0.894   1.385   3.203 -0.2668  0.2647 -0.0025
 5934ntf    cn132300   0.989   1.258   3.293 -0.5533  0.2173  0.2331
 5934ntf    fn432301   0.767   0.937   3.032  0.3630  0.1815 -0.2409
 5934ntf    fn432302   0.849   1.052   3.207  0.2561  0.4495 -0.2714
 5934ntf    fn432303   0.640   1.057   3.154 -0.1859 -0.2076  0.0653
 5934ntf    on532304   0.932   1.178   2.963  0.1201  0.4479 -0.1086
 5934ntf    on532305   0.685   1.195   2.922  0.4233 -0.8167 -0.5596
 5934ntf    on532306   0.834   1.460   3.310 -0.2820 -0.1405  0.2747
 5934ntf    on532307   0.993   1.456   3.126 -0.3711  0.1858 -0.2087
 5934ntf    fn432308   0.918   1.191   3.382 -0.4906  0.0539  0.1610
 5934ntf    fn432309   1.065   1.175   3.224 -1.1084 -0.5715  0.5583
 5934ntf    fn432310   1.087   1.313   3.363  0.0682 -0.2521 -0.2521
 5935ntf    cn132311   5.397   0.318   0.628 -0.4723 -0.4720  0.4185
 5935ntf    sn232312   5.429   0.278   0.453 -0.5285 -0.5444  0.4245
 5935ntf    nn332313   5.345   0.387   0.378  0.0525 -0.2356  0.2138
 5935ntf    sn232314   5.329   0.412   0.224 -0.0887  0.0717  0.2763
 5935ntf    cn132315   5.433   0.561   0.209 -0.1563  0.0960  0.0403
 5935ntf    fn432316   5.449   0.434   0.663 -0.1965 -0.3491 -0.3632
 5935ntf    fn432317   5.266   0.327   0.647 -0.3131  0.1727  1.2281
 5935ntf    fn432318   5.445   0.224   0.707  0.3504 -0.1096  0.3641
 5935ntf    on532319   5.571   0.292   0.433 -0.6120  0.1638  0.3015
 5935ntf    on532320   5.369   0.148   0.462 -0.9385 -0.4121 -0.3689
 5935ntf    on532321   5.198   0.463   0.193 -0.0422  0.0285  0.0022
 5935ntf    on532322   5.388   0.312   0.138 -0.3055 -0.0016  0.2130
 5935ntf    fn432323   5.392   0.661   0.285  0.3921  0.4235 -0.0916
 5935ntf    fn432324   5.561   0.536   0.234 -0.0686 -0.3343 -0.7841
 5935ntf    fn432325   5.425   0.606   0.085 -0.7842 -0.0160  0.0385
 5936ntf    cn132326   0.868   5.892   2.076 -0.6556  0.3927 -0.2704
 5936ntf    sn232327   0.909   5.972   2.234 -0.1515 -0.1861 -0.0998
 5936ntf    nn332328   0.764   5.998   2.288 -0.1066  0.1695 -0.1466
 5936ntf    sn232329   0.675   5.954   2.410  0.1232  0.2714  0.0593
 5936ntf    cn132330   0.706   6.093   2.522  0.3007  0.2265  0.0657
 5936ntf    fn432331   0.845   5.762   2.082  0.2617  0.2250 -0.1313
 5936ntf    fn432332   0.757   5.936   2.020 -0.8236 -0.2551 -0.4603
 5936ntf    fn432333   0.963   5.915   1.986 -0.2259 -0.0432  0.0647
 5936ntf    on532334   0.985   5.866   2.294  0.0489 -0.1159 -0.2284
 5936ntf    on532335   0.965   6.099   2.193 -0.0655 -0.5116 -1.0126
 5936ntf    on532336   0.726   5.836   2.476  0.2769  0.0148 -0.5098
 5936ntf    on532337   0.535   5.959   2.374 -0.0064  0.2334  0.5570
 5936ntf    fn432338   0.829   6.094   2.571  0.0512 -0.1419  0.7215
 5936ntf    fn432339   0.680   6.218   2.487 -0.2599  0.0265 -0.2294
 5936ntf    fn432340   0.623   6.079   2.624  0.0491  0.2297 -0.1400
 5937ntf    cn132341   6.448   1.745   5.726  0.8571  0.0526  0.1127
 5937ntf    sn232342   6.558   1.872   5.796  0.1500  0.3955  0.6154
 5937ntf    nn332343   6.676   1.881   5.692  0.0855  0.0743  0.5139
 5937ntf    sn232344   6.764   2.008   5.664  0.2020 -0.1027  0.0725
 5937ntf    cn132345   6.690   2.066   5.509 -0.1818  0.0399  0.3079
 5937ntf    fn432346   6.510   1.628   5.728 -0.1145 -0.4749 -0.0614
 5937ntf    fn432347   6.332   1.739   5.790  0.6848 -0.2138 -0.2243
 5937ntf    fn432348   6.420   1.774   5.600 -0.2345 -0.0992  0.3046
 5937ntf    on532349   6.470   1.987   5.798 -0.1642  0.1593  0.3774
 5937ntf    on532350   6.595   1.797   5.913  0.0899  0.2728  0.5565
 5937ntf    on532351   6.902   1.976   5.635  0.0463  0.0265 -0.8421
 5937ntf    on532352   6.746   2.115   5.759  0.0869  0.1278 -0.2066
 5937ntf    fn432353   6.709   2.197   5.498  0.2964 -0.0220  0.3897
 5937ntf    fn432354   6.740   2.006   5.402  0.0426 -0.1634  0.5260
 5937ntf    fn432355   6.558   2.063   5.501 -0.1751  0.3149  0.0509
 5938ntf    cn132356   3.032   3.306   1.599  0.1227  0.1152 -0.1631
 5938ntf    sn232357   3.052   3.449   1.488  0.1243  0.1286 -0.1452
 5938ntf    nn332358   3.080   3.391   1.345  0.0742 -0.1272 -0.0536
 5938ntf    sn232359   3.216   3.333   1.293  0.1808  0.0894 -0.0197
 5938ntf    cn132360   3.297   3.473   1.209  0.1032  0.2249  0.1311
 5938ntf    fn432361   2.977   3.335   1.716  0.2464  0.0932 -0.0988
 5938ntf    fn432362   2.941   3.216   1.566  0.1758 -0.1291  0.3459
 5938ntf    fn432363   3.147   3.246   1.625  0.2266  0.2598 -0.2947
 5938ntf    on532364   2.920   3.507   1.491  0.1895  0.2547  0.5547
 5938ntf    on532365   3.166   3.521   1.538  0.0867  0.3142 -0.3311
 5938ntf    on532366   3.186   3.238   1.188 -0.2528  0.1518  0.0468
 5938ntf    on532367   3.306   3.290   1.398  0.5740 -0.1410 -0.4457
 5938ntf    fn432368   3.362   3.555   1.289  0.0455  0.2780  0.1241
 5938ntf    fn432369   3.376   3.446   1.107 -0.0926  0.0154  0.0326
 5938ntf    fn432370   3.207   3.551   1.150 -0.1570 -0.4035 -0.3153
 5939ntf    cn132371   5.481   2.589   7.611 -0.1993  0.3467 -0.1464
 5939ntf    sn232372   5.483   2.510   7.775  0.2423 -0.0235 -0.3254
 5939ntf    nn332373   5.348   2.558   7.839  0.5028  0.2607  0.0100
 5939ntf    sn232374   5.325   2.692   7.918 -0.2729  0.2138 -0.1305
 5939ntf    cn132375   5.383   2.658   8.087  0.4732  0.1047 -0.4054
 5939ntf    fn432376   5.508   2.719   7.611 -0.8292  0.4812 -0.0961
 5939ntf    fn432377   5.570   2.529   7.533 -0.3862 -0.4178  0.2272
 5939ntf    fn432378   5.366   2.567   7.550 -0.0450 -0.6172 -0.1017
 5939ntf    on532379   5.478   2.367   7.763  0.3674  0.0055 -0.7457
 5939ntf    on532380   5.602   2.567   7.834  0.0505 -0.5728  0.6150
 5939ntf    on532381   5.183   2.714   7.933 -0.2525  0.1813  0.1256
 5939ntf    on532382   5.403   2.808   7.886  0.1523 -0.2017 -0.6051
 5939ntf    fn432383   5.430   2.772   8.135  0.0647 -0.1461  0.6314
 5939ntf    fn432384   5.285   2.617   8.166  0.5110  0.8223  0.0174
 5939ntf    fn432385   5.485   2.573   8.091  0.3896  0.0128 -0.1366
 5940ntf    cn132386   1.088   3.479   2.871 -0.2961 -0.1252 -0.2048
 5940ntf    sn232387   1.061   3.309   2.929  0.1955  0.0269  0.4928
 5940ntf    nn332388   1.189   3.291   3.018  0.4933 -0.0737  0.0520
 5940ntf    sn232389   1.216   3.340   3.165  0.1841 -0.2746  0.1763
 5940ntf    cn132390   1.180   3.182   3.248  0.1049 -0.3539 -0.0102
 5940ntf    fn432391   1.132   3.558   2.968  0.3694 -0.2807 -0.3738
 5940ntf    fn432392   1.175   3.473   2.772  0.0736 -0.3456  0.1278
 5940ntf    fn432393   0.975   3.528   2.824 -0.3182  0.1965  0.1737
 5940ntf    on532394   0.933   3.310   2.995 -0.3005 -0.3653 -0.4404
 5940ntf    on532395   1.077   3.231   2.808 -0.0490  0.6414  0.0584
 5940ntf    on532396   1.118   3.422   3.231  0.5042  0.3612 -0.1334
 5940ntf    on532397   1.357   3.361   3.190  0.1164  0.6735 -0.2170
 5940ntf    fn432398   1.062   3.141   3.203 -0.1330  0.0044  0.2745
 5940ntf    fn432399   1.262   3.084   3.215  0.6420  0.0144  0.2131
 5940ntf    fn432400   1.172   3.197   3.379  0.2221 -0.1944 -0.0214
   7.63071   7.63071   7.63071
