Converted from moscito
23760
    1SOL     ow    1   5.748   6.646   4.766 -0.5994 -0.3388  0.1839
    1SOL     hw    2   5.738   6.611   4.855 -0.1597 -0.9145  0.0129
    1SOL     hw    3   5.758   6.569   4.711  0.2464  0.0458 -0.2172
    1SOL     vw    4   5.748   6.631   4.771 -0.4299 -0.3643  0.1082
    2SOL     ow    5   5.976   2.126   7.116 -0.8032 -0.5727 -0.7225
    2SOL     hw    6   6.009   2.061   7.179  1.2387  0.1482 -0.9796
    2SOL     hw    7   5.881   2.117   7.120 -0.6200 -3.0176 -0.1547
    2SOL     vw    8   5.968   2.116   7.125 -0.5097 -0.8001 -0.6816
    3SOL     ow    9   4.328   5.578   0.741 -0.1663  0.1274  0.1503
    3SOL     hw   10   4.280   5.515   0.688 -0.1293  1.4851 -1.5715
    3SOL     hw   11   4.373   5.633   0.678  0.0053  1.7231  1.6024
    3SOL     vw   12   4.328   5.577   0.726 -0.1388  0.5171  0.1148
    4SOL     ow   13   3.612   4.280   4.917  0.3493 -0.0837  0.2430
    4SOL     hw   14   3.655   4.269   5.002  1.4271 -2.2550 -0.4811
    4SOL     hw   15   3.561   4.200   4.906  2.1965 -1.0655 -2.1419
    4SOL     vw   16   3.611   4.268   4.926  0.7353 -0.4997 -0.1669
    5SOL     ow   17   6.811   0.498   6.427 -0.2035 -0.0824 -0.1443
    5SOL     hw   18   6.841   0.582   6.393  1.5795 -0.8678 -0.6571
    5SOL     hw   19   6.719   0.512   6.448 -0.2754  1.6431 -1.3526
    5SOL     vw   20   6.803   0.511   6.425  0.0224  0.0417 -0.3712
    6SOL     ow   21   1.615   2.109   3.998 -0.2872 -0.0929  0.7102
    6SOL     hw   22   1.551   2.179   4.005 -3.3273 -2.0462 -3.1468
    6SOL     hw   23   1.682   2.143   3.939  1.4823  1.3537  3.3842
    6SOL     vw   24   1.615   2.122   3.991 -0.4548 -0.1597  0.5542
    7SOL     ow   25   1.934   2.060   7.163  0.2991  0.2928 -0.2742
    7SOL     hw   26   1.848   2.103   7.161  0.6372  1.2311  2.0235
    7SOL     hw   27   1.923   1.990   7.227  1.1590  0.1795 -0.2474
    7SOL     vw   28   1.921   2.056   7.171  0.4572  0.4015  0.0324
    8SOL     ow   29   3.558   3.772   6.133  0.6214 -0.5129 -0.4600
    8SOL     hw   30   3.536   3.777   6.226  1.9575 -1.6445 -0.0484
    8SOL     hw   31   3.544   3.861   6.100 -1.4800 -0.4748  0.4169
    8SOL     vw   32   3.554   3.785   6.141  0.5205 -0.6572 -0.2899
    9SOL     ow   33   2.942   6.729   1.010 -0.0430 -0.4730  0.5017
    9SOL     hw   34   2.888   6.802   0.981 -0.4925  0.0801  2.5239
    9SOL     hw   35   3.027   6.743   0.969 -1.0597 -0.7570 -1.8643
    9SOL     vw   36   2.946   6.740   1.001 -0.2366 -0.4377  0.4564
   10SOL     ow   37   3.784   3.252   6.145 -0.0123  0.5265  0.0532
   10SOL     hw   38   3.801   3.215   6.059  0.9845  0.1141  0.4079
   10SOL     hw   39   3.725   3.190   6.187  0.1635  0.2927 -0.0387
   10SOL     vw   40   3.779   3.239   6.139  0.1423  0.4412  0.0880
   11SOL     ow   41   0.391   7.163   3.110 -0.4566 -0.4789  0.1546
   11SOL     hw   42   0.335   7.228   3.153 -0.3484 -1.8189  2.4580
   11SOL     hw   43   0.349   7.148   3.025 -0.9844  1.8872 -0.0644
   11SOL     vw   44   0.378   7.170   3.104 -0.5119 -0.3436  0.4296
   12SOL     ow   45   4.586   0.364   0.072 -0.0973  0.3202 -0.0207
   12SOL     hw   46   4.573   0.290   0.132 -5.2838  1.9550  1.3929
   12SOL     hw   47   4.586   0.324  -0.015  1.3892 -1.5912  0.7777
   12SOL     vw   48   4.584   0.349   0.068 -0.5853  0.2837  0.2711
   13SOL     ow   49   1.878   1.202   5.272 -0.6597  0.4203  0.1391
   13SOL     hw   50   1.821   1.138   5.228 -1.5163  1.0892  0.2521
   13SOL     hw   51   1.819   1.251   5.329  0.3938 -0.2558  1.8843
   13SOL     vw   52   1.863   1.200   5.273 -0.6337  0.4194  0.3843
   14SOL     ow   53   4.934   3.149   2.423  1.0043  0.2840 -0.1112
   14SOL     hw   54   4.874   3.074   2.419  0.4645  0.7595 -1.5291
   14SOL     hw   55   4.994   3.128   2.494 -0.3876 -0.5531  0.8640
   14SOL     vw   56   4.934   3.137   2.432  0.7491  0.2362 -0.1695
   15SOL     ow   57   4.653   4.002   0.856 -0.9660 -0.5052  0.4075
   15SOL     hw   58   4.625   3.928   0.909  1.0355 -0.0220  2.3482
   15SOL     hw   59   4.723   3.967   0.801 -0.2098 -0.1700  1.1262
   15SOL     vw   60   4.659   3.988   0.856 -0.6020 -0.3973  0.7583
   16SOL     ow   61   3.799   3.085   7.076 -0.1463 -0.4581 -0.4980
   16SOL     hw   62   3.840   3.164   7.042  0.4626 -1.2655 -1.7108
   16SOL     hw   63   3.708   3.091   7.045 -1.2186  1.5231  2.5201
   16SOL     vw   64   3.792   3.096   7.067 -0.2073 -0.3031 -0.2599
   17SOL     ow   65   6.792   5.803   4.906  0.0437  0.0245  0.2486
   17SOL     hw   66   6.851   5.806   4.831 -0.1912  2.2897  0.0763
   17SOL     hw   67   6.811   5.883   4.955 -0.1656 -1.1220  2.3669
   17SOL     vw   68   6.802   5.814   4.903 -0.0150  0.1719  0.5057
   18SOL     ow   69   0.774   0.870   2.291  0.5514 -0.1270  0.7447
   18SOL     hw   70   0.682   0.846   2.283  0.3930  0.3682  0.9974
   18SOL     hw   71   0.784   0.947   2.235  0.5468  0.4877  1.5649
   18SOL     vw   72   0.763   0.877   2.283  0.5299  0.0195  0.8862
   19SOL     ow   73   6.639   0.313   0.716 -0.1214 -0.1498 -0.0511
   19SOL     hw   74   6.602   0.237   0.763 -1.5527  1.0623  0.8728
   19SOL     hw   75   6.656   0.280   0.628 -0.1932 -1.6971  0.4761
   19SOL     vw   76   6.636   0.298   0.711 -0.3200 -0.1940  0.1403
   20SOL     ow   77   3.838   2.240   4.673 -0.0324 -0.5011 -0.2178
   20SOL     hw   78   3.879   2.285   4.599 -1.6869  0.8825 -0.3576
   20SOL     hw   79   3.804   2.311   4.728  0.3031 -1.5285  1.3789
   20SOL     vw   80   3.839   2.256   4.670 -0.2064 -0.4542 -0.0255
   21SOL     ow   81   5.888   5.990   3.973 -0.4608  0.0747  0.4887
   21SOL     hw   82   5.847   6.056   3.916 -2.4749 -1.8458 -0.4421
   21SOL     hw   83   5.816   5.956   4.025  1.3066  1.8245  4.4995
   21SOL     vw   84   5.873   5.994   3.972 -0.4935  0.0520  0.8950
   22SOL     ow   85   4.151   2.132   0.774 -0.4103 -0.1634  0.2795
   22SOL     hw   86   4.206   2.206   0.800 -1.3554  0.8486 -0.5020
   22SOL     hw   87   4.187   2.057   0.823 -0.2076  1.0317  2.0599
   22SOL     vw   88   4.163   2.132   0.784 -0.5083  0.1278  0.4113
   23SOL     ow   89   4.052   2.842   5.232 -0.3162 -1.0405 -0.4712
   23SOL     hw   90   4.084   2.885   5.312 -0.6745 -1.0336 -0.3288
   23SOL     hw   91   4.114   2.771   5.217  0.1520 -0.6200 -0.5781
   23SOL     vw   92   4.064   2.838   5.241 -0.3018 -0.9842 -0.4663
   24SOL     ow   93   3.746   1.953   3.014 -0.0761  0.4937 -0.8966
   24SOL     hw   94   3.725   1.947   2.921  0.6569  0.3231 -1.0523
   24SOL     hw   95   3.741   2.046   3.034  1.2512  0.6939 -1.4568
   24SOL     vw   96   3.742   1.964   3.005  0.1957  0.4976 -0.9911
   25SOL     ow   97   2.175   3.055   2.364  0.3180 -0.3073 -0.0114
   25SOL     hw   98   2.102   3.002   2.332 -2.2457  3.3436 -0.8990
   25SOL     hw   99   2.156   3.069   2.457  0.7944 -0.6461  0.1401
   25SOL     vw  100   2.163   3.050   2.372  0.0426  0.1297 -0.1086
   26SOL     ow  101   6.487   0.920   2.337 -0.1948 -0.0633  0.3052
   26SOL     hw  102   6.522   0.993   2.388  0.3482  1.7704 -2.5105
   26SOL     hw  103   6.404   0.953   2.302  1.2739  0.3480 -3.1683
   26SOL     vw  104   6.480   0.934   2.339  0.0703  0.2329 -0.5245
   27SOL     ow  105   3.953   2.149   0.985 -0.5151 -0.7614 -0.3582
   27SOL     hw  106   3.967   2.225   1.041  0.6479 -1.4837  0.3664
   27SOL     hw  107   3.968   2.074   1.042  0.3182 -1.5196 -1.5289
   27SOL     vw  108   3.957   2.150   1.000 -0.2518 -0.9567 -0.4171
   28SOL     ow  109   1.111   6.800   5.163  0.0725  0.9480  0.7801
   28SOL     hw  110   1.178   6.828   5.101 -0.4099  0.9999  0.2789
   28SOL     hw  111   1.071   6.882   5.193  0.7609  0.9719  1.6921
   28SOL     vw  112   1.114   6.815   5.159  0.0997  0.9577  0.8345
   29SOL     ow  113   6.800   4.795   4.909  0.3278  0.1158 -0.4206
   29SOL     hw  114   6.884   4.833   4.883  0.8293 -0.5456  0.2027
   29SOL     hw  115   6.812   4.701   4.902  0.3096 -0.0845  1.5764
   29SOL     vw  116   6.813   4.788   4.905  0.3917  0.0019 -0.0749
   30SOL     ow  117   5.129   1.588   7.062 -0.3234  0.3388 -0.1459
   30SOL     hw  118   5.202   1.649   7.079 -0.5932  0.4652  0.6215
   30SOL     hw  119   5.167   1.502   7.079 -0.1059  0.3336 -0.6425
   30SOL     vw  120   5.144   1.585   7.067 -0.3302  0.3548 -0.1104
   31SOL     ow  121   0.769   3.375   1.907  0.2584 -0.5708 -0.7649
   31SOL     hw  122   0.854   3.413   1.929  0.3224 -1.1170 -0.0545
   31SOL     hw  123   0.736   3.430   1.836  1.8829 -1.2372 -2.1076
   31SOL     vw  124   0.776   3.387   1.900  0.4812 -0.7306 -0.8483
   32SOL     ow  125   1.846   2.778   3.162  0.7156  0.0050  0.0342
   32SOL     hw  126   1.859   2.872   3.176 -0.3957  0.0907  0.5435
   32SOL     hw  127   1.927   2.738   3.194  0.4149  0.6337  1.6765
   32SOL     vw  128   1.859   2.785   3.168  0.5293  0.0993  0.3181
   33SOL     ow  129   2.133   4.432   2.040  0.5921  0.0089  0.1160
   33SOL     hw  130   2.127   4.343   2.005 -1.8514  0.9043 -2.0263
   33SOL     hw  131   2.138   4.488   1.962 -1.6553  1.9321  1.2495
   33SOL     vw  132   2.133   4.428   2.025 -0.0268  0.3808 -0.0170
   34SOL     ow  133   2.791   0.476   1.693 -0.0819  0.2179  0.1113
   34SOL     hw  134   2.710   0.489   1.744  0.1130  1.0011  0.2435
   34SOL     hw  135   2.829   0.564   1.688 -0.2871  0.2398 -1.7258
   34SOL     vw  136   2.785   0.490   1.699 -0.0832  0.3242 -0.1137
   35SOL     ow  137   3.857   1.565   4.585 -0.4621  0.3185  0.1788
   35SOL     hw  138   3.946   1.553   4.619 -0.4122  2.1563  0.8233
   35SOL     hw  139   3.800   1.527   4.651 -0.2020  0.5510  0.5393
   35SOL     vw  140   3.861   1.559   4.598 -0.4210  0.5917  0.3116
   36SOL     ow  141   2.519   4.743   4.215 -0.3482  0.2740  1.0269
   36SOL     hw  142   2.477   4.660   4.240  1.6774 -0.9071  0.7385
   36SOL     hw  143   2.613   4.725   4.222  0.3218  1.1969 -2.9807
   36SOL     vw  144   2.526   4.730   4.219  0.0076  0.2396  0.4604
   37SOL     ow  145   2.980   3.047   1.933  0.6367  0.0557  0.3593
   37SOL     hw  146   2.983   3.103   2.011 -1.8616 -1.5096  1.7283
   37SOL     hw  147   3.051   2.984   1.947 -0.1916 -0.6297  1.8225
   37SOL     vw  148   2.990   3.046   1.945  0.1976 -0.2412  0.7329
   38SOL     ow  149   5.261   5.732   2.254  0.0996  0.3925  0.2819
   38SOL     hw  150   5.342   5.783   2.248 -0.3325  1.5162  2.6913
   38SOL     hw  151   5.283   5.657   2.309 -0.4684  0.7079  0.9606
   38SOL     vw  152   5.274   5.729   2.261 -0.0324  0.5825  0.6893
   39SOL     ow  153   2.867   0.530   2.690 -0.1710 -0.1733 -0.2786
   39SOL     hw  154   2.930   0.552   2.759  1.4984 -0.2392 -1.7176
   39SOL     hw  155   2.868   0.606   2.632  1.1909 -1.5130 -2.1219
   39SOL     vw  156   2.875   0.543   2.692  0.2290 -0.3588 -0.7117
   40SOL     ow  157   3.534   4.626   3.990  0.0476  0.3935  0.0278
   40SOL     hw  158   3.543   4.549   3.935  2.2173  0.1454  0.6284
   40SOL     hw  159   3.594   4.611   4.063 -0.3339  2.1315  0.7624
   40SOL     vw  160   3.543   4.614   3.992  0.2835  0.5901  0.2038
   41SOL     ow  161   0.188   2.321   4.214  0.2194 -0.6770  0.0681
   41SOL     hw  162   0.267   2.315   4.160  0.1359  1.5334 -0.3978
   41SOL     hw  163   0.164   2.414   4.210 -1.5630 -1.0413  1.4088
   41SOL     vw  164   0.195   2.333   4.206 -0.0268 -0.4333  0.1833
   42SOL     ow  165   4.046   5.584   6.090  0.2219 -0.7626  0.7120
   42SOL     hw  166   4.033   5.629   6.007 -0.5134  0.2925  1.3779
   42SOL     hw  167   3.999   5.501   6.079 -0.6857 -0.2206  0.4105
   42SOL     vw  168   4.038   5.579   6.077  0.0052 -0.5519  0.7601
   43SOL     ow  169   6.782   4.991   3.781 -0.4578  0.2762  0.0641
   43SOL     hw  170   6.819   4.904   3.771 -1.0129  0.2166 -2.0205
   43SOL     hw  171   6.730   5.004   3.701  0.2876  2.8380 -0.1019
   43SOL     vw  172   6.780   4.981   3.769 -0.4327  0.6061 -0.2328
   44SOL     ow  173   1.010   2.509   3.959 -0.2583 -0.4960 -0.0457
   44SOL     hw  174   1.077   2.508   3.890  1.4176 -0.5364  1.4997
   44SOL     hw  175   0.976   2.420   3.961 -1.7668 -0.0383 -2.0820
   44SOL     vw  176   1.014   2.497   3.950 -0.2362 -0.4411 -0.1105
   45SOL     ow  177   2.482   1.943   2.528  0.5015 -0.1759  0.6255
   45SOL     hw  178   2.406   1.971   2.579 -1.0903 -1.7787 -0.7463
   45SOL     hw  179   2.460   1.963   2.437 -0.0773 -4.1058 -0.2760
   45SOL     vw  180   2.469   1.950   2.523  0.2152 -0.9059  0.3256
   46SOL     ow  181   4.873   0.930   1.300  0.0477 -1.3155 -0.0895
   46SOL     hw  182   4.935   0.961   1.365 -0.5341 -1.1178  0.3793
   46SOL     hw  183   4.788   0.933   1.344 -0.7698  1.3113 -1.6346
   46SOL     vw  184   4.870   0.934   1.314 -0.1369 -0.9429 -0.2314
   47SOL     ow  185   2.783   3.464   1.707 -0.1569 -0.7631  0.3359
   47SOL     hw  186   2.767   3.554   1.677  1.2013  0.2570  2.4158
   47SOL     hw  187   2.777   3.411   1.628  0.8405  1.4066 -1.2989
   47SOL     vw  188   2.780   3.469   1.693  0.1539 -0.3422  0.3946
   48SOL     ow  189   5.987   6.304   1.690  0.0334 -0.6532 -0.1613
   48SOL     hw  190   5.999   6.214   1.658  0.3253 -0.0474 -1.8436
   48SOL     hw  191   5.951   6.351   1.615  0.7306  0.8464  0.4201
   48SOL     vw  192   5.983   6.298   1.676  0.1640 -0.3755 -0.3065
   49SOL     ow  193   4.081   2.876   6.410 -1.6108 -0.7589 -0.2345
   49SOL     hw  194   4.137   2.799   6.398  1.6078  1.4287 -0.2889
   49SOL     hw  195   4.062   2.906   6.322  0.9443  0.9653 -0.2922
   49SOL     vw  196   4.086   2.870   6.397 -0.8492 -0.2429 -0.2494
   50SOL     ow  197   3.200   6.416   4.282 -0.0377  0.0111  0.5974
   50SOL     hw  198   3.233   6.462   4.204  0.7823 -0.2073  0.8111
   50SOL     hw  199   3.200   6.482   4.351 -1.0216  0.2763  0.3587
   50SOL     vw  200   3.204   6.431   4.281 -0.0595  0.0172  0.5939
   51SOL     ow  201   4.290   0.732   0.785  0.2461 -0.1616 -0.8076
   51SOL     hw  202   4.310   0.683   0.706  0.5717 -1.7660  0.2261
   51SOL     hw  203   4.280   0.665   0.853 -1.3152  1.0683  0.2504
   51SOL     vw  204   4.291   0.717   0.783  0.0832 -0.2111 -0.5316
   52SOL     ow  205   5.334   1.386   6.137 -0.7913  0.0600  0.7965
   52SOL     hw  206   5.378   1.375   6.053 -2.4466 -1.6507  0.0794
   52SOL     hw  207   5.242   1.398   6.114 -1.1841  0.2350  2.3480
   52SOL     vw  208   5.328   1.386   6.123 -1.0619 -0.1425  0.9065
   53SOL     ow  209   5.939   1.189   0.487  0.3843 -0.3107 -0.5386
   53SOL     hw  210   5.939   1.134   0.565 -2.5701 -1.7724 -1.4415
   53SOL     hw  211   5.910   1.275   0.519 -3.0461 -1.4506 -0.2059
   53SOL     vw  212   5.936   1.193   0.502 -0.4578 -0.6539 -0.6138
   54SOL     ow  213   4.306   2.133   3.059  0.2055 -0.0976  0.2180
   54SOL     hw  214   4.387   2.113   3.106  0.4841  1.2478  0.3540
   54SOL     hw  215   4.241   2.148   3.128 -0.1053 -0.9243  0.1133
   54SOL     vw  216   4.308   2.133   3.074  0.2015 -0.0292  0.2221
   55SOL     ow  217   3.360   6.474   5.404 -0.0398  0.3874 -0.1163
   55SOL     hw  218   3.340   6.400   5.348 -0.0709  1.2404 -1.2582
   55SOL     hw  219   3.302   6.544   5.374 -0.2581  0.7829  1.1642
   55SOL     vw  220   3.350   6.473   5.393 -0.0725  0.5522 -0.0978
   56SOL     ow  221   3.163   6.274   7.216  0.8636 -0.0154 -0.1052
   56SOL     hw  222   3.251   6.265   7.178  0.2663  0.2734 -1.6021
   56SOL     hw  223   3.112   6.205   7.174 -0.1400  1.1281 -0.7957
   56SOL     vw  224   3.168   6.264   7.205  0.6523  0.1738 -0.3939
   57SOL     ow  225   2.028   6.539   2.438  0.4538 -0.1029 -0.6157
   57SOL     hw  226   2.108   6.516   2.484 -0.4605  0.1498  1.1892
   57SOL     hw  227   1.985   6.455   2.422  1.0388 -0.2353 -1.5586
   57SOL     vw  228   2.033   6.525   2.442  0.4103 -0.0870 -0.5020
   58SOL     ow  229   2.244   6.039   1.534 -0.3114 -0.2927  0.0125
   58SOL     hw  230   2.313   5.974   1.544  1.2944  0.8845 -2.4599
   58SOL     hw  231   2.284   6.122   1.562 -0.8980  0.3101 -0.8516
   58SOL     vw  232   2.258   6.042   1.539 -0.1769 -0.0579 -0.4277
   59SOL     ow  233   2.206   1.236   5.728  0.7437  0.3238  0.1448
   59SOL     hw  234   2.239   1.147   5.736  1.5726  0.3738 -2.0440
   59SOL     hw  235   2.158   1.237   5.645  1.3879  2.0846 -0.2547
   59SOL     vw  236   2.204   1.225   5.718  0.9382  0.5627 -0.1969
   60SOL     ow  237   4.998   0.183   4.645  0.2881  0.8047 -0.1149
   60SOL     hw  238   5.035   0.115   4.701 -0.6970  0.9240  0.7068
   60SOL     hw  239   5.075   0.228   4.608  0.9646 -0.9266 -0.9300
   60SOL     vw  240   5.013   0.180   4.647  0.2472  0.5920 -0.1142
   61SOL     ow  241   0.303   6.631   6.402  0.6997  0.5700  0.1569
   61SOL     hw  242   0.251   6.656   6.326  1.5160 -1.6749 -1.2559
   61SOL     hw  243   0.281   6.695   6.469 -2.0952  1.0682 -1.1018
   61SOL     vw  244   0.294   6.643   6.401  0.4387  0.3397 -0.1957
   62SOL     ow  245   1.362   0.659   1.676 -0.0382  0.3729 -0.3153
   62SOL     hw  246   1.445   0.639   1.632 -0.0098 -1.5976  0.5618
   62SOL     hw  247   1.388   0.708   1.754  0.1196  1.3888 -0.9781
   62SOL     vw  248   1.376   0.663   1.681 -0.0136  0.2469 -0.2871
   63SOL     ow  249   2.382   5.196   1.841  0.2547 -0.5334 -0.6020
   63SOL     hw  250   2.369   5.101   1.836 -0.8209 -0.3931 -0.7052
   63SOL     hw  251   2.320   5.232   1.778  0.4260  0.2619 -0.3313
   63SOL     vw  252   2.372   5.188   1.832  0.1353 -0.4098 -0.5800
   64SOL     ow  253   5.460   6.746   4.804 -0.1639  0.2825  0.7016
   64SOL     hw  254   5.472   6.653   4.821 -1.1731  0.2811  1.4997
   64SOL     hw  255   5.388   6.772   4.861  0.9740  1.8603  1.4753
   64SOL     vw  256   5.452   6.737   4.814 -0.1469  0.4904  0.9093
   65SOL     ow  257   5.126   6.128   5.735  0.1214 -0.3212 -0.1936
   65SOL     hw  258   5.067   6.071   5.685  0.5978  0.3942 -1.6322
   65SOL     hw  259   5.075   6.207   5.751 -0.3501 -0.9048  1.3183
   65SOL     vw  260   5.112   6.131   5.730  0.1218 -0.3040 -0.1841
   66SOL     ow  261   5.325   1.963   3.276  0.2307  0.4533  0.5079
   66SOL     hw  262   5.365   2.050   3.272  1.8401 -0.1695  1.9218
   66SOL     hw  263   5.294   1.955   3.366  1.3586 -0.9374  0.8076
   66SOL     vw  264   5.326   1.974   3.287  0.5915  0.1876  0.7340
   67SOL     ow  265   0.191   5.873   0.306 -0.3191 -0.2742 -0.1168
   67SOL     hw  266   0.256   5.900   0.240 -1.3534  1.6619 -0.4363
   67SOL     hw  267   0.131   5.816   0.258 -1.0578  1.1129 -0.9194
   67SOL     vw  268   0.191   5.869   0.291 -0.5531  0.1640 -0.2648
   68SOL     ow  269   6.171   1.982   3.240  0.0885  0.3318  0.2033
   68SOL     hw  270   6.118   2.040   3.186  1.4132 -0.2851 -1.8594
   68SOL     hw  271   6.111   1.913   3.269 -0.5960  0.5090 -0.7582
   68SOL     vw  272   6.156   1.980   3.237  0.1729  0.2738 -0.1956
   69SOL     ow  273   1.919   1.349   1.447 -0.9790 -0.5823 -0.3872
   69SOL     hw  274   1.978   1.377   1.377 -0.0004 -0.6643  0.3841
   69SOL     hw  275   1.933   1.255   1.455 -1.9389 -0.7732 -0.8462
   69SOL     vw  276   1.928   1.340   1.439 -0.9765 -0.6182 -0.3460
   70SOL     ow  277   5.021   2.006   6.115  0.9577  0.0929  0.0177
   70SOL     hw  278   5.018   1.914   6.142  1.2300  0.5464  1.7090
   70SOL     hw  279   5.081   2.008   6.041 -0.7697 -1.4118 -1.5263
   70SOL     vw  280   5.028   1.994   6.109  0.7658 -0.0457  0.0372
   71SOL     ow  281   5.000   3.545   1.567 -0.0850 -0.0954 -0.1492
   71SOL     hw  282   4.914   3.578   1.595 -0.5882 -0.3510 -1.3382
   71SOL     hw  283   4.996   3.451   1.585 -0.1278 -0.1380 -0.3801
   71SOL     vw  284   4.988   3.537   1.573 -0.1574 -0.1347 -0.3366
   72SOL     ow  285   0.291   6.894   3.973 -0.0000  0.2385 -0.3055
   72SOL     hw  286   0.316   6.978   4.012 -1.2249  1.1885 -1.4811
   72SOL     hw  287   0.207   6.911   3.931  0.2629 -1.2947 -1.5465
   72SOL     vw  288   0.283   6.907   3.973 -0.1269  0.1619 -0.6244
   73SOL     ow  289   4.418   4.079   2.617  0.1769 -0.2657  0.7604
   73SOL     hw  290   4.484   4.137   2.578 -1.0413  2.4977  2.5254
   73SOL     hw  291   4.393   4.021   2.545  2.5171  0.3833 -0.7157
   73SOL     vw  292   4.424   4.079   2.602  0.3250  0.1845  0.7986
   74SOL     ow  293   3.066   6.011   3.251  0.0231 -0.6470 -0.1588
   74SOL     hw  294   3.012   6.079   3.210  1.8943  1.6743  0.9732
   74SOL     hw  295   3.090   5.954   3.178  0.9708  1.7439 -1.8573
   74SOL     vw  296   3.062   6.012   3.236  0.3949 -0.0255 -0.2337
   75SOL     ow  297   3.376   7.247   5.906  0.2109  0.5873  0.1824
   75SOL     hw  298   3.389   7.293   5.989 -0.1805  0.5313  0.2763
   75SOL     hw  299   3.368   7.155   5.931  0.0715  0.5732  0.0834
   75SOL     vw  300   3.377   7.241   5.920  0.1409  0.5782  0.1817
   76SOL     ow  301   1.110   4.342   6.469 -0.2892 -0.0843 -0.1900
   76SOL     hw  302   1.190   4.380   6.433  0.1832 -1.6958 -0.9619
   76SOL     hw  303   1.122   4.247   6.459 -0.6639 -0.6090  3.1284
   76SOL     vw  304   1.122   4.334   6.463 -0.2764 -0.3662  0.1459
   77SOL     ow  305   1.868   4.609   3.521 -0.0104  0.1339  0.5005
   77SOL     hw  306   1.925   4.627   3.446  0.9555  1.2048  1.4574
   77SOL     hw  307   1.860   4.514   3.522 -0.9125  0.1355 -1.5688
   77SOL     vw  308   1.875   4.599   3.512 -0.0020  0.2751  0.3537
   78SOL     ow  309   0.959   2.793   3.899 -0.1587  0.3457 -0.9294
   78SOL     hw  310   1.024   2.822   3.962 -1.7963  0.5499  0.7764
   78SOL     hw  311   0.920   2.874   3.865  0.7052  0.2384 -2.2592
   78SOL     vw  312   0.962   2.808   3.902 -0.2607  0.3585 -0.8796
   79SOL     ow  313   6.546   3.056   4.891 -0.0158 -0.3880  0.1270
   79SOL     hw  314   6.561   3.094   4.804 -2.0181 -0.7258 -0.4233
   79SOL     hw  315   6.601   2.978   4.893 -1.9546 -1.9392 -2.0003
   79SOL     vw  316   6.555   3.051   4.880 -0.5357 -0.6372 -0.2260
   80SOL     ow  317   0.286   2.069   6.978  0.2834  0.0796  0.4797
   80SOL     hw  318   0.349   2.135   6.950  0.8884  0.9050  3.5306
   80SOL     hw  319   0.214   2.119   7.017 -1.0994 -0.9764 -0.5727
   80SOL     vw  320   0.285   2.084   6.979  0.1808  0.0490  0.7434
   81SOL     ow  321   6.788   6.075   4.607  0.0757  0.0118  0.1211
   81SOL     hw  322   6.859   6.017   4.579  0.9194  0.2585  1.5932
   81SOL     hw  323   6.815   6.104   4.695 -1.8249  0.1588  0.6993
   81SOL     vw  324   6.801   6.071   4.615 -0.0639  0.0637  0.3917
   82SOL     ow  325   3.156   5.267   2.083 -0.2854 -0.2609 -0.9402
   82SOL     hw  326   3.117   5.273   2.170  2.5044  2.4634  0.2771
   82SOL     hw  327   3.242   5.229   2.097  1.1062  2.2054 -2.0608
   82SOL     vw  328   3.162   5.263   2.096  0.2663  0.4241 -0.9276
   83SOL     ow  329   5.033   0.217   1.440 -0.6306  0.9363  0.2183
   83SOL     hw  330   5.028   0.262   1.356 -1.0682 -0.6433 -0.6293
   83SOL     hw  331   5.031   0.124   1.419 -0.3470  0.4896  1.9566
   83SOL     vw  332   5.032   0.211   1.426 -0.6509  0.6689  0.3358
   84SOL     ow  333   1.624   3.782   4.374  0.4763  0.1432 -0.3645
   84SOL     hw  334   1.594   3.693   4.359  0.8720  0.1831 -1.4652
   84SOL     hw  335   1.579   3.810   4.454  1.0749 -1.3685  0.5458
   84SOL     vw  336   1.614   3.774   4.383  0.6075 -0.0509 -0.3896
   85SOL     ow  337   5.092   4.417   1.915 -0.4000 -0.3520  0.2301
   85SOL     hw  338   5.182   4.415   1.947 -0.2009 -0.2189 -0.3020
   85SOL     hw  339   5.070   4.510   1.912 -1.0941 -0.4403  1.8025
   85SOL     vw  340   5.101   4.429   1.919 -0.4652 -0.3459  0.3674
   86SOL     ow  341   1.782   1.860   6.430  0.1002  0.6521  0.2431
   86SOL     hw  342   1.793   1.942   6.382  1.6717 -1.4499 -3.4045
   86SOL     hw  343   1.869   1.839   6.463 -0.0896 -0.0127  0.3402
   86SOL     vw  344   1.795   1.868   6.428  0.2825  0.2871 -0.2253
   87SOL     ow  345   3.708   5.403   6.569  0.2287 -0.1489  0.1683
   87SOL     hw  346   3.773   5.433   6.505 -0.9131  2.2509  0.0525
   87SOL     hw  347   3.625   5.435   6.536 -0.7016 -0.9389  1.6428
   87SOL     vw  348   3.706   5.411   6.556 -0.0447  0.0637  0.3474
   88SOL     ow  349   4.503   2.716   0.164  0.2049  0.5239  0.5447
   88SOL     hw  350   4.556   2.747   0.091  1.1743  0.1556  1.0622
   88SOL     hw  351   4.543   2.757   0.241  2.3951 -2.8593  1.4381
   88SOL     vw  352   4.516   2.726   0.165  0.6218  0.0288  0.7309
   89SOL     ow  353   1.630   0.226   5.943  0.1717  0.2918  0.3735
   89SOL     hw  354   1.685   0.154   5.911  0.6714  0.8227  0.0132
   89SOL     hw  355   1.540   0.196   5.927  0.2697 -1.1703  2.2199
   89SOL     vw  356   1.626   0.212   5.937  0.2505  0.1689  0.5693
   90SOL     ow  357   2.443   0.936   3.509 -0.0118 -0.7427  0.5066
   90SOL     hw  358   2.365   0.961   3.559 -0.2296 -0.6220  0.1110
   90SOL     hw  359   2.494   0.881   3.570  1.2650  1.8785  1.9942
   90SOL     vw  360   2.440   0.932   3.524  0.1278 -0.3810  0.6508
   91SOL     ow  361   5.674   3.897   5.768  0.3965 -0.3654 -0.3170
   91SOL     hw  362   5.709   3.983   5.791 -0.4618 -0.1667  0.2719
   91SOL     hw  363   5.702   3.840   5.839 -0.8069 -0.1131  0.3890
   91SOL     vw  364   5.682   3.901   5.780  0.1245 -0.3059 -0.1464
   92SOL     ow  365   0.497   3.207   3.903 -0.0193 -0.9629  0.1655
   92SOL     hw  366   0.542   3.246   3.979 -2.1937  2.0051  0.1299
   92SOL     hw  367   0.559   3.216   3.831  0.3468  0.6898  0.6377
   92SOL     vw  368   0.511   3.213   3.904 -0.2578 -0.3532  0.2232
   93SOL     ow  369   1.458   3.944   5.184 -0.5095 -0.1323 -1.0398
   93SOL     hw  370   1.459   3.865   5.130  1.5521 -0.1187 -1.0824
   93SOL     hw  371   1.368   3.950   5.215 -1.5709 -0.6766 -3.6826
   93SOL     vw  372   1.446   3.935   5.181 -0.3776 -0.2023 -1.3943
   94SOL     ow  373   1.514   1.340   2.268  0.0420 -0.3002  0.3513
   94SOL     hw  374   1.474   1.368   2.185  1.3093 -2.1407 -0.9449
   94SOL     hw  375   1.604   1.316   2.245  0.7582  0.1153  2.4817
   94SOL     vw  376   1.520   1.341   2.254  0.3037 -0.4882  0.4615
   95SOL     ow  377   4.356   3.649   0.582 -0.6493  0.1180  0.1052
   95SOL     hw  378   4.440   3.635   0.625 -0.1343 -0.4125 -1.0305
   95SOL     hw  379   4.345   3.744   0.579 -0.6764  0.1666  1.3324
   95SOL     vw  380   4.365   3.659   0.587 -0.5848  0.0544  0.1173
   96SOL     ow  381   6.363   5.925   4.169  0.1374 -0.1770  0.4371
   96SOL     hw  382   6.339   5.860   4.103 -0.5291 -1.0815  1.5348
   96SOL     hw  383   6.281   5.944   4.215  0.6218  0.3002  1.1243
   96SOL     vw  384   6.349   5.919   4.167  0.1132 -0.2337  0.6726
   97SOL     ow  385   3.687   0.883   6.951 -0.4977  0.5582 -0.3072
   97SOL     hw  386   3.652   0.824   7.018 -1.6285  0.9174 -0.5744
   97SOL     hw  387   3.708   0.964   6.999 -0.8879  0.6595 -0.3066
   97SOL     vw  388   3.685   0.886   6.966 -0.6983  0.6189 -0.3424
   98SOL     ow  389   6.311   1.056   4.446  0.1231  0.0472  1.1155
   98SOL     hw  390   6.228   1.087   4.482 -1.2592 -0.9709 -1.0265
   98SOL     hw  391   6.335   1.121   4.381  0.3574 -0.3024  0.8476
   98SOL     vw  392   6.303   1.068   4.442 -0.0284 -0.1333  0.7977
   99SOL     ow  393   0.469   5.949   3.352 -0.9882 -0.2513 -0.1142
   99SOL     hw  394   0.468   5.994   3.436 -1.1471  2.1039 -1.2883
   99SOL     hw  395   0.553   5.902   3.350  0.4364  2.1409  0.1851
   99SOL     vw  396   0.480   5.948   3.363 -0.8212  0.3753 -0.2296
  100SOL     ow  397   4.761   7.190   3.707  0.0044  0.1119  0.4623
  100SOL     hw  398   4.849   7.204   3.743 -0.0474  0.3288  0.5031
  100SOL     hw  399   4.723   7.277   3.701  0.0609  0.0893 -0.2607
  100SOL     vw  400   4.768   7.203   3.711  0.0050  0.1375  0.3723
  101SOL     ow  401   1.904   1.802   3.105 -0.0724  0.3314 -0.6044
  101SOL     hw  402   1.902   1.872   3.040  1.9866  0.4042 -0.6713
  101SOL     hw  403   1.905   1.848   3.189 -2.3629  0.2455 -0.4742
  101SOL     vw  404   1.904   1.817   3.108 -0.1029  0.3297 -0.5959
  102SOL     ow  405   2.692   6.532   5.624 -0.6495  0.0112 -0.7651
  102SOL     hw  406   2.622   6.470   5.644 -2.5718  2.2935  0.0352
  102SOL     hw  407   2.711   6.575   5.707 -0.2294  1.3026 -1.5001
  102SOL     vw  408   2.685   6.529   5.638 -0.8477  0.4830 -0.7565
  103SOL     ow  409   2.326   1.512   5.846  0.9191 -0.2824 -0.4580
  103SOL     hw  410   2.326   1.587   5.786  1.7956 -0.1655 -0.3177
  103SOL     hw  411   2.409   1.519   5.894  0.1599 -0.2676  0.9122
  103SOL     vw  412   2.337   1.523   5.844  0.9345 -0.2651 -0.2587
  104SOL     ow  413   5.409   5.214   2.546 -0.0909  0.1626 -0.1644
  104SOL     hw  414   5.383   5.236   2.636 -0.6423  1.0733 -0.5264
  104SOL     hw  415   5.328   5.219   2.496  0.3869  0.7390 -0.9062
  104SOL     vw  416   5.395   5.218   2.552 -0.1004  0.3586 -0.3099
  105SOL     ow  417   0.563   5.412   2.233 -0.9797 -0.1614  0.4082
  105SOL     hw  418   0.643   5.465   2.238  0.2186 -1.8001 -0.4842
  105SOL     hw  419   0.515   5.449   2.159  0.8483 -1.5105 -1.5836
  105SOL     vw  420   0.567   5.424   2.224 -0.5804 -0.5555  0.0277
  106SOL     ow  421   0.225   3.757   2.127 -0.4395  0.1362  0.6871
  106SOL     hw  422   0.250   3.668   2.105 -1.4063 -0.0231  0.1805
  106SOL     hw  423   0.180   3.789   2.049 -0.1186  1.0620  0.8705
  106SOL     vw  424   0.223   3.750   2.113 -0.5247  0.2375  0.6444
  107SOL     ow  425   3.455   1.869   6.036  0.4665  0.8389 -0.6625
  107SOL     hw  426   3.379   1.923   6.016 -0.5355 -0.6407 -0.9997
  107SOL     hw  427   3.481   1.831   5.952  0.9267  0.5122 -0.3792
  107SOL     vw  428   3.448   1.871   6.023  0.3949  0.6006 -0.6695
  108SOL     ow  429   6.290   2.205   7.082 -0.3958  0.6224  0.2755
  108SOL     hw  430   6.299   2.160   6.998 -2.0165  0.1960  0.2904
  108SOL     hw  431   6.378   2.206   7.118 -0.0460 -1.2331 -0.4066
  108SOL     vw  432   6.303   2.199   7.075 -0.5634  0.3215  0.1876
  109SOL     ow  433   0.818   0.234   0.047 -0.0412  0.4938  0.8285
  109SOL     hw  434   0.839   0.322   0.015  2.7292  0.0389  1.1835
  109SOL     hw  435   0.749   0.204  -0.012  2.6307  0.9094 -2.8703
  109SOL     vw  436   0.811   0.242   0.035  0.6768  0.4886  0.3874
  110SOL     ow  437   3.398   5.614   0.437 -0.3723  0.3853  0.6577
  110SOL     hw  438   3.486   5.578   0.428 -0.7124 -0.7657  1.5802
  110SOL     hw  439   3.399   5.661   0.521 -0.4327  1.0008  0.3164
  110SOL     vw  440   3.410   5.615   0.447 -0.4252  0.3147  0.7344
  111SOL     ow  441   5.356   5.515   5.260  0.4498  0.3013  0.2335
  111SOL     hw  442   5.265   5.493   5.235 -0.5243  2.5283  1.5754
  111SOL     hw  443   5.352   5.529   5.354  2.4485 -0.5046  0.4780
  111SOL     vw  444   5.343   5.514   5.269  0.5851  0.4888  0.4427
  112SOL     ow  445   1.170   2.164   6.445  0.1374  0.1800 -0.0173
  112SOL     hw  446   1.106   2.214   6.497 -1.0849 -0.3693 -0.9512
  112SOL     hw  447   1.208   2.102   6.507  0.7324  1.3780  0.8543
  112SOL     vw  448   1.166   2.163   6.460  0.0547  0.2656 -0.0253
  113SOL     ow  449   7.127   6.730   3.044 -0.1036 -0.0163 -0.4933
  113SOL     hw  450   7.221   6.735   3.061  0.0175  1.0142 -1.3679
  113SOL     hw  451   7.103   6.817   3.014 -1.6713  0.2212  1.2279
  113SOL     vw  452   7.136   6.742   3.042 -0.2944  0.1507 -0.3816
  114SOL     ow  453   5.562   1.480   5.031  0.3930 -1.3200  0.5620
  114SOL     hw  454   5.490   1.469   4.969 -1.6797  1.1513  2.3340
  114SOL     hw  455   5.640   1.458   4.980 -1.3568 -1.8568 -2.1440
  114SOL     vw  456   5.563   1.475   5.016 -0.1113 -1.0648  0.4389
  115SOL     ow  457   6.290   5.064   2.916 -0.4614  0.5282  0.1233
  115SOL     hw  458   6.384   5.079   2.907 -0.6267  1.2683 -0.6008
  115SOL     hw  459   6.267   5.104   3.000 -0.2803  1.2018 -0.1376
  115SOL     vw  460   6.299   5.071   2.926 -0.4594  0.7145 -0.0067
  116SOL     ow  461   5.474   5.006   2.065 -0.0880  0.6821  0.3712
  116SOL     hw  462   5.538   5.064   2.023 -1.2028  2.9817  1.6561
  116SOL     hw  463   5.504   4.999   2.156  0.3837 -1.3697  0.0982
  116SOL     vw  464   5.487   5.013   2.071 -0.1729  0.7145  0.5047
  117SOL     ow  465   4.085   5.747   6.317 -0.5245 -0.7252 -0.0539
  117SOL     hw  466   4.072   5.802   6.394 -0.5381  0.4222 -0.8606
  117SOL     hw  467   4.088   5.808   6.243 -0.1380 -1.7702 -0.9322
  117SOL     vw  468   4.083   5.762   6.317 -0.4754 -0.7114 -0.2759
  118SOL     ow  469   1.345   6.667   0.359  0.2430  0.2574 -0.1035
  118SOL     hw  470   1.413   6.631   0.417  0.9959  0.5295 -0.7893
  118SOL     hw  471   1.321   6.595   0.302 -0.8649 -0.1551  0.8472
  118SOL     vw  472   1.351   6.653   0.359  0.1961  0.2389 -0.0686
  119SOL     ow  473   1.163   4.319   2.662 -0.5721  0.2744 -0.0259
  119SOL     hw  474   1.189   4.403   2.626 -1.6192  0.3029 -0.7823
  119SOL     hw  475   1.125   4.272   2.587  0.9479 -1.3032  0.1066
  119SOL     vw  476   1.162   4.324   2.647 -0.5097  0.0701 -0.1082
  120SOL     ow  477   3.018   0.297   1.525 -0.2850  0.1347 -0.3019
  120SOL     hw  478   3.089   0.236   1.505 -1.2638 -0.9210 -0.6500
  120SOL     hw  479   2.960   0.292   1.450 -1.7391 -0.5318  0.8164
  120SOL     vw  480   3.020   0.288   1.513 -0.6062 -0.0925 -0.2002
  121SOL     ow  481   4.043   3.913   1.017 -0.0604  0.0706 -0.3426
  121SOL     hw  482   3.967   3.971   1.021 -0.9609 -1.1476  1.2114
  121SOL     hw  483   4.030   3.862   0.938 -3.0342 -2.8348  1.7489
  121SOL     vw  484   4.031   3.914   1.007 -0.5717 -0.4734  0.1384
  122SOL     ow  485   5.622   4.300   0.235 -0.4208  0.5916  0.4783
  122SOL     hw  486   5.650   4.346   0.156 -3.9921  1.9949 -0.1434
  122SOL     hw  487   5.645   4.358   0.307  0.1115  0.7329  0.1964
  122SOL     vw  488   5.629   4.313   0.234 -0.8218  0.7958  0.3591
  123SOL     ow  489   3.905   2.367   0.751  0.0739 -0.2981  0.3929
  123SOL     hw  490   3.945   2.450   0.725  1.4340 -0.1172  2.7444
  123SOL     hw  491   3.812   2.388   0.764 -0.0050  0.3214 -1.0455
  123SOL     vw  492   3.898   2.381   0.749  0.2429 -0.1925  0.5134
  124SOL     ow  493   6.128   7.215   1.072  0.4567 -0.2077  0.0887
  124SOL     hw  494   6.202   7.187   1.125 -0.4308 -0.9614  0.9904
  124SOL     hw  495   6.158   7.207   0.981  1.7018  0.2134  0.4557
  124SOL     vw  496   6.141   7.210   1.067  0.5038 -0.2516  0.2561
  125SOL     ow  497   1.087   0.605   0.903  0.0599  0.0911 -0.6202
  125SOL     hw  498   1.122   0.618   0.815  0.6990 -1.6322 -0.6484
  125SOL     hw  499   0.993   0.593   0.891  0.4260 -2.5805 -1.3992
  125SOL     vw  500   1.079   0.605   0.890  0.1925 -0.4888 -0.7266
  126SOL     ow  501   3.130   1.291   1.413  0.5415 -0.0002  0.2870
  126SOL     hw  502   3.169   1.266   1.497  0.6561 -0.7516  0.0140
  126SOL     hw  503   3.037   1.271   1.423  0.6477 -0.6272  0.0371
  126SOL     vw  504   3.123   1.285   1.425  0.5709 -0.1821  0.2180
  127SOL     ow  505   4.347   0.521   5.511 -0.1073 -0.6307  0.3964
  127SOL     hw  506   4.296   0.513   5.592  1.1294 -1.5124  1.1229
  127SOL     hw  507   4.427   0.472   5.529  0.2565 -0.7037 -1.3242
  127SOL     vw  508   4.351   0.513   5.524  0.1040 -0.7566  0.2654
  128SOL     ow  509   4.924   7.066   1.890 -0.0239 -0.2067 -0.4672
  128SOL     hw  510   4.957   7.068   1.980 -1.1842 -1.3924  0.0193
  128SOL     hw  511   4.829   7.057   1.900 -0.3307  1.0898 -1.8194
  128SOL     vw  512   4.916   7.065   1.903 -0.2172 -0.1922 -0.5814
  129SOL     ow  513   6.468   2.096   3.212 -0.9168  0.6580 -0.4931
  129SOL     hw  514   6.528   2.026   3.184 -0.5459 -0.6398  3.0671
  129SOL     hw  515   6.517   2.177   3.200  0.9923 -0.2505  0.8694
  129SOL     vw  516   6.482   2.097   3.207 -0.6163  0.3669  0.1565
  130SOL     ow  517   3.919   4.992   7.222 -0.1978  0.1140 -0.1251
  130SOL     hw  518   3.982   4.960   7.157 -0.5482  1.2072 -1.0235
  130SOL     hw  519   3.869   4.914   7.247 -0.7055 -0.1631 -1.8896
  130SOL     vw  520   3.921   4.978   7.217 -0.3110  0.2215 -0.4764
  131SOL     ow  521   3.694   3.187   0.290 -0.2558 -0.4760  0.1858
  131SOL     hw  522   3.705   3.235   0.208  1.5443  1.3697  1.4001
  131SOL     hw  523   3.608   3.214   0.322  0.1480  0.9500  0.1681
  131SOL     vw  524   3.684   3.197   0.283  0.0349 -0.0443  0.3437
  132SOL     ow  525   5.376   6.428   0.521  0.1787 -0.2041 -0.3585
  132SOL     hw  526   5.423   6.490   0.465  2.4924  0.1256  1.8044
  132SOL     hw  527   5.287   6.464   0.527  0.8949  1.7797 -0.8298
  132SOL     vw  528   5.370   6.441   0.514  0.5782  0.1013 -0.1353
  133SOL     ow  529   6.340   3.418   0.587 -0.3027  0.2497  0.0444
  133SOL     hw  530   6.337   3.491   0.647  1.0266  0.7835 -0.5079
  133SOL     hw  531   6.411   3.362   0.619  0.8699  0.8768 -1.3588
  133SOL     vw  532   6.349   3.420   0.599  0.0274  0.4030 -0.2136
  134SOL     ow  533   3.853   3.939   2.541 -0.3995  0.7438  0.5938
  134SOL     hw  534   3.889   3.867   2.488  1.9981  0.3816  2.5214
  134SOL     hw  535   3.758   3.928   2.535 -0.1339 -1.6771 -0.4086
  134SOL     vw  536   3.846   3.928   2.533 -0.0483  0.3765  0.7160
  135SOL     ow  537   4.176   2.608   5.206 -0.3754  0.1800 -0.1359
  135SOL     hw  538   4.093   2.580   5.243 -0.4056  0.9019  0.3740
  135SOL     hw  539   4.175   2.575   5.116 -0.7034 -0.7957  0.2189
  135SOL     vw  540   4.165   2.600   5.199 -0.4225  0.1465 -0.0217
  136SOL     ow  541   4.291   7.209   1.956 -0.4850 -0.5661  0.0128
  136SOL     hw  542   4.327   7.260   1.884 -1.2220  2.2788  1.5402
  136SOL     hw  543   4.290   7.269   2.031 -0.9341 -2.9980  2.1041
  136SOL     vw  544   4.296   7.223   1.957 -0.6413 -0.5119  0.4902
  137SOL     ow  545   1.008   3.972   0.858 -0.5960  0.3885 -0.0026
  137SOL     hw  546   1.043   3.917   0.929 -0.9005 -0.0562 -0.1921
  137SOL     hw  547   1.039   4.060   0.879  0.3225  0.0678  0.0304
  137SOL     vw  548   1.016   3.976   0.870 -0.5150  0.2875 -0.0233
  138SOL     ow  549   2.933   5.158   6.068  0.7002 -0.2019  0.6495
  138SOL     hw  550   2.867   5.206   6.119  0.7108 -0.4975  0.9460
  138SOL     hw  551   2.939   5.206   5.986 -0.4638 -0.6206  0.3034
  138SOL     vw  552   2.925   5.171   6.064  0.5480 -0.2956  0.6430
  139SOL     ow  553   4.710   0.911   5.953  0.7134  0.4281 -0.2882
  139SOL     hw  554   4.662   0.917   6.035  2.6503  1.1228  0.8629
  139SOL     hw  555   4.768   0.835   5.964  0.2671 -0.1123 -1.4443
  139SOL     vw  556   4.711   0.902   5.965  0.9100  0.4485 -0.2887
  140SOL     ow  557   6.310   3.643   2.685 -0.2871  0.7691 -0.3881
  140SOL     hw  558   6.353   3.576   2.739 -0.4811  2.8936  2.6538
  140SOL     hw  559   6.382   3.694   2.648 -0.1646  0.0082 -1.2243
  140SOL     vw  560   6.325   3.641   2.688 -0.2964  0.9489 -0.0970
  141SOL     ow  561   6.253   6.385   1.720  0.8150 -0.1272  0.4236
  141SOL     hw  562   6.178   6.421   1.768  0.8020 -0.8726  0.9963
  141SOL     hw  563   6.235   6.291   1.715  1.6959 -0.3119  0.5475
  141SOL     vw  564   6.241   6.377   1.726  0.9296 -0.2499  0.5155
  142SOL     ow  565   4.254   3.403   0.382 -0.3685 -0.4311  0.8021
  142SOL     hw  566   4.282   3.441   0.298  1.6392  1.1809  2.1095
  142SOL     hw  567   4.250   3.309   0.365  1.6977 -0.3228 -0.6743
  142SOL     vw  568   4.257   3.396   0.368  0.1690 -0.2042  0.7798
  143SOL     ow  569   3.340   6.144   5.636  0.1428  0.0663 -0.3972
  143SOL     hw  570   3.248   6.129   5.615 -0.1921  1.5497 -0.0277
  143SOL     hw  571   3.349   6.239   5.641  1.6926 -0.0556 -0.3925
  143SOL     vw  572   3.329   6.154   5.634  0.3030  0.2458 -0.3481
  144SOL     ow  573   3.767   3.518   6.049  0.5718  0.1932  0.0870
  144SOL     hw  574   3.787   3.499   5.957 -1.2209  0.9862 -0.5002
  144SOL     hw  575   3.773   3.433   6.093 -0.5577 -0.5690 -1.1592
  144SOL     vw  576   3.771   3.504   6.042  0.1862  0.1972 -0.1547
  145SOL     ow  577   2.977   2.601   5.139 -0.4687 -0.4786 -0.0575
  145SOL     hw  578   2.992   2.678   5.084 -0.2524 -0.3902  0.1242
  145SOL     hw  579   3.042   2.537   5.110 -1.7588 -1.2465 -1.4086
  145SOL     vw  580   2.988   2.603   5.128 -0.6105 -0.5682 -0.2120
  146SOL     ow  581   4.817   1.350   3.940  0.2623  0.2738 -0.5796
  146SOL     hw  582   4.879   1.387   3.877  0.3728 -2.0784 -1.9474
  146SOL     hw  583   4.733   1.349   3.894  0.1170 -0.4649 -0.3151
  146SOL     vw  584   4.814   1.355   3.926  0.2577 -0.1341 -0.7252
  147SOL     ow  585   3.292   1.740   4.661  0.2588 -0.6909 -0.2442
  147SOL     hw  586   3.373   1.762   4.705  2.0220 -0.1229 -3.4324
  147SOL     hw  587   3.224   1.786   4.710  2.3689  2.1467  0.2926
  147SOL     vw  588   3.293   1.749   4.673  0.7696 -0.2416 -0.5939
  148SOL     ow  589   2.293   3.272   1.291  0.1210  0.6262  0.0337
  148SOL     hw  590   2.378   3.231   1.276 -0.0792 -0.0157  0.5835
  148SOL     hw  591   2.294   3.294   1.384 -1.2237 -1.5867  0.6327
  148SOL     vw  592   2.305   3.270   1.302 -0.0829  0.2495  0.1853
  149SOL     ow  593   1.111   2.108   4.885 -0.7740  0.3513  0.1453
  149SOL     hw  594   1.122   2.164   4.961  3.0987  0.8634 -0.5631
  149SOL     hw  595   1.152   2.025   4.909 -3.4145 -1.1239 -0.0023
  149SOL     vw  596   1.118   2.105   4.898 -0.6114  0.2242  0.0327
  150SOL     ow  597   4.534   4.274   0.843 -0.0153 -0.2769  0.1991
  150SOL     hw  598   4.461   4.270   0.905  1.7540  0.3533  2.4657
  150SOL     hw  599   4.572   4.186   0.844  0.5291 -0.0429  0.6971
  150SOL     vw  600   4.529   4.262   0.851  0.2899 -0.1628  0.5639
  151SOL     ow  601   3.837   2.068   0.706 -0.0073 -0.1189 -1.0694
  151SOL     hw  602   3.759   2.073   0.651 -2.5634 -0.4267  2.2593
  151SOL     hw  603   3.881   1.987   0.678 -1.8530 -0.9012 -1.8434
  151SOL     vw  604   3.833   2.058   0.695 -0.5882 -0.2627 -0.7324
  152SOL     ow  605   0.735   5.343   6.237  0.1812  0.4455 -0.2572
  152SOL     hw  606   0.785   5.327   6.157  1.4339 -3.2540  1.0796
  152SOL     hw  607   0.798   5.383   6.297  0.0346  0.6631 -0.2485
  152SOL     vw  608   0.750   5.346   6.235  0.3271 -0.0141 -0.0799
  153SOL     ow  609   1.780   0.360   2.482 -0.2725  0.4827 -0.2001
  153SOL     hw  610   1.813   0.270   2.493 -2.3558 -0.2312  0.9520
  153SOL     hw  611   1.767   0.369   2.388  0.8399 -0.0729 -0.4285
  153SOL     vw  612   1.782   0.349   2.471 -0.4005  0.3152 -0.0783
  154SOL     ow  613   4.528   6.462   4.312  0.2849  0.1613 -0.0401
  154SOL     hw  614   4.595   6.450   4.245  1.2868 -0.7765  1.0969
  154SOL     hw  615   4.541   6.390   4.374 -1.0274  0.6201  0.8263
  154SOL     vw  616   4.538   6.451   4.312  0.2439  0.0978  0.2241
  155SOL     ow  617   0.769   3.451   5.254 -0.4763  0.5098  0.0529
  155SOL     hw  618   0.733   3.427   5.169  1.1132 -0.7735 -0.3178
  155SOL     hw  619   0.808   3.537   5.241  1.4307 -0.4500 -1.1284
  155SOL     vw  620   0.769   3.459   5.241 -0.0150  0.2139 -0.1516
  156SOL     ow  621   1.005   4.181   1.530 -1.0265  0.1549 -0.3501
  156SOL     hw  622   1.045   4.118   1.469 -0.1666  0.4929 -0.1507
  156SOL     hw  623   0.978   4.254   1.474  0.5166  0.8339 -0.2418
  156SOL     vw  624   1.007   4.182   1.514 -0.7095  0.2892 -0.3094
  157SOL     ow  625   0.010   0.614   1.612 -0.5122 -0.0016  0.7589
  157SOL     hw  626  -0.071   0.605   1.663 -1.7123  1.9090 -0.6710
  157SOL     hw  627   0.035   0.706   1.623  1.1159 -0.4100  0.6432
  157SOL     vw  628   0.002   0.625   1.620 -0.4557  0.1966  0.5549
  158SOL     ow  629   4.938   6.907   1.666 -0.5942  0.2911 -0.5410
  158SOL     hw  630   4.932   6.951   1.581  0.3297  0.6061 -0.4539
  158SOL     hw  631   4.937   6.979   1.730 -0.8378  0.0813 -0.3102
  158SOL     vw  632   4.937   6.923   1.664 -0.5043  0.3049 -0.4991
  159SOL     ow  633   2.391   5.921   5.445  0.1453 -0.3718 -0.1264
  159SOL     hw  634   2.426   6.007   5.467  1.1401 -0.3315 -1.7536
  159SOL     hw  635   2.468   5.866   5.431 -0.4174 -0.7838 -1.8386
  159SOL     vw  636   2.406   5.925   5.446  0.2022 -0.4206 -0.5672
  160SOL     ow  637   7.060   1.747   1.740 -0.4594 -0.4421  0.0814
  160SOL     hw  638   6.975   1.758   1.696 -0.4073  0.9635  0.2946
  160SOL     hw  639   7.083   1.835   1.769  0.9027 -0.8762  0.3604
  160SOL     vw  640   7.052   1.760   1.738 -0.2725 -0.3139  0.1464
  161SOL     ow  641   1.294   7.084   0.345  0.6485 -0.0802 -0.4789
  161SOL     hw  642   1.300   7.176   0.370  1.2311  0.8811 -3.7748
  161SOL     hw  643   1.373   7.044   0.381  1.3513  1.1350 -0.6270
  161SOL     vw  644   1.305   7.091   0.353  0.8181  0.2069 -0.9333
  162SOL     ow  645   6.168   1.717   1.954 -0.2865 -0.0945 -0.1116
  162SOL     hw  646   6.148   1.655   2.024  0.0978  0.1989  0.2554
  162SOL     hw  647   6.172   1.802   1.997  2.3906 -0.1850 -0.0425
  162SOL     vw  648   6.166   1.720   1.969  0.1178 -0.0677 -0.0540
  163SOL     ow  649   5.395   2.270   3.696  0.4086 -0.9896  0.3316
  163SOL     hw  650   5.381   2.198   3.635  1.9247  0.1422 -1.4643
  163SOL     hw  651   5.375   2.234   3.782 -2.9102 -2.3659 -0.8549
  163SOL     vw  652   5.391   2.256   3.700  0.1709 -1.0219 -0.0616
  164SOL     ow  653   4.955   4.254   4.366  0.0317 -0.0723 -0.0700
  164SOL     hw  654   4.884   4.216   4.419  0.6411 -0.1057  0.7482
  164SOL     hw  655   4.931   4.346   4.356 -0.0544 -0.0462  0.3416
  164SOL     vw  656   4.942   4.261   4.372  0.1006 -0.0732  0.0925
  165SOL     ow  657   0.938   5.211   6.870  0.1234 -0.1148 -0.1337
  165SOL     hw  658   0.908   5.253   6.950 -1.7607 -2.1900  0.3432
  165SOL     hw  659   1.033   5.218   6.874 -0.0261  2.5200  0.7072
  165SOL     vw  660   0.947   5.217   6.881 -0.1449 -0.0408  0.0401
  166SOL     ow  661   5.742   5.200   0.984  0.0184 -0.4890 -0.1523
  166SOL     hw  662   5.679   5.188   0.912 -0.1772  1.2462 -0.3108
  166SOL     hw  663   5.723   5.287   1.018 -1.9394 -2.3065  4.0795
  166SOL     vw  664   5.731   5.210   0.979 -0.2656 -0.5000  0.3851
  167SOL     ow  665   3.246   1.525   5.155 -0.8266 -0.3346 -0.3155
  167SOL     hw  666   3.269   1.539   5.063  1.6022 -0.2813  0.2364
  167SOL     hw  667   3.257   1.610   5.197  1.6200 -1.0226  0.6374
  167SOL     vw  668   3.250   1.538   5.149 -0.1832 -0.4183 -0.1168
  168SOL     ow  669   4.638   5.624   3.308  0.0194 -0.4653  0.6073
  168SOL     hw  670   4.550   5.617   3.345 -0.9025 -1.3427 -1.5808
  168SOL     hw  671   4.695   5.588   3.375 -1.5536 -2.0712  1.1599
  168SOL     vw  672   4.634   5.618   3.322 -0.3097 -0.7927  0.3915
  169SOL     ow  673   2.893   6.668   7.083  0.1683  0.1596  0.3210
  169SOL     hw  674   2.801   6.667   7.059  0.6210 -1.4767 -1.6301
  169SOL     hw  675   2.899   6.730   7.156 -2.2221  1.3006 -0.3830
  169SOL     vw  676   2.882   6.676   7.090 -0.0875  0.0942 -0.0291
  170SOL     ow  677   6.931   5.663   3.882  0.2521  0.0640  0.4602
  170SOL     hw  678   6.991   5.736   3.866  1.4749 -1.0987 -0.4615
  170SOL     hw  679   6.931   5.653   3.977  0.5593  0.8603  0.5531
  170SOL     vw  680   6.939   5.672   3.893  0.4539  0.0157  0.3510
  171SOL     ow  681   4.866   2.251   6.032 -0.3635  0.9239 -0.4024
  171SOL     hw  682   4.885   2.181   6.094 -0.6859 -0.3474 -1.6765
  171SOL     hw  683   4.921   2.231   5.956  0.9468  3.1247 -0.1053
  171SOL     vw  684   4.876   2.239   6.030 -0.2332  1.0465 -0.5312
  172SOL     ow  685   4.621   5.539   3.724 -0.2681 -0.3969  0.2168
  172SOL     hw  686   4.676   5.596   3.777 -0.5318 -1.9718  2.3308
  172SOL     hw  687   4.680   5.502   3.659  0.7160 -0.4804  1.1282
  172SOL     vw  688   4.636   5.542   3.722 -0.1733 -0.6158  0.6161
  173SOL     ow  689   3.787   0.946   1.346 -0.2503 -0.2971 -0.1518
  173SOL     hw  690   3.710   0.889   1.342 -0.3160 -0.5670  2.7791
  173SOL     hw  691   3.842   0.907   1.414  2.5006 -0.0594 -2.0938
  173SOL     vw  692   3.784   0.934   1.354  0.1041 -0.3014 -0.0212
  174SOL     ow  693   5.882   7.202   3.268 -0.0646 -0.4436  0.1469
  174SOL     hw  694   5.903   7.277   3.324 -1.1235 -0.4569  0.6008
  174SOL     hw  695   5.788   7.210   3.252  0.0645 -0.9053 -0.9645
  174SOL     vw  696   5.872   7.213   3.273 -0.1869 -0.5066  0.0601
  175SOL     ow  697   6.450   0.813   4.730  0.1274  0.2384 -0.8397
  175SOL     hw  698   6.363   0.787   4.698 -0.1725 -1.1437  0.9020
  175SOL     hw  699   6.492   0.730   4.753 -1.3562  0.8070  6.2882
  175SOL     vw  700   6.444   0.798   4.729 -0.1078  0.1310  0.3307
  176SOL     ow  701   5.421   2.187   0.688  1.0866 -0.7507  0.1421
  176SOL     hw  702   5.388   2.103   0.719 -0.2322 -0.2729  0.1165
  176SOL     hw  703   5.420   2.179   0.592  0.2152 -0.4657  0.1126
  176SOL     vw  704   5.416   2.175   0.679  0.7977 -0.6499  0.1349
  177SOL     ow  705   4.948   2.039   7.214 -0.1847  0.3604  0.1028
  177SOL     hw  706   5.025   2.079   7.254  0.3102 -0.0288 -0.4396
  177SOL     hw  707   4.888   2.111   7.198 -1.2543  0.3540  3.3008
  177SOL     vw  708   4.950   2.054   7.217 -0.2604  0.3083  0.4530
  178SOL     ow  709   3.170   1.636   7.170 -0.1189  0.3658 -0.2653
  178SOL     hw  710   3.228   1.621   7.244 -0.9119  1.2761  0.5716
  178SOL     hw  711   3.156   1.731   7.169 -0.0387  0.3850 -1.6502
  178SOL     vw  712   3.176   1.647   7.179 -0.2129  0.4885 -0.3376
  179SOL     ow  713   6.724   6.951   0.045 -0.8562 -0.1469  0.7765
  179SOL     hw  714   6.714   7.039   0.009  0.7134  0.7909  2.4522
  179SOL     hw  715   6.657   6.945   0.112  0.1744  0.5207  1.9134
  179SOL     vw  716   6.714   6.962   0.049 -0.5131  0.0648  1.1476
  180SOL     ow  717   5.343   0.125   4.803  0.0701 -0.1036 -0.2149
  180SOL     hw  718   5.272   0.072   4.766  0.6849  0.1857 -1.8675
  180SOL     hw  719   5.349   0.096   4.894 -1.6733 -0.6475 -0.2454
  180SOL     vw  720   5.335   0.114   4.810 -0.0787 -0.1372 -0.4370
  181SOL     ow  721   4.009   0.064   1.251 -0.2329  0.2851 -0.2742
  181SOL     hw  722   4.096   0.026   1.241  0.9157  2.1271  1.7729
  181SOL     hw  723   3.952   0.008   1.199  1.9294 -1.8811 -0.4888
  181SOL     vw  724   4.013   0.052   1.243  0.2038  0.2423 -0.0324
  182SOL     ow  725   1.937   0.914   5.415 -0.5698 -0.6140 -0.1567
  182SOL     hw  726   1.899   0.864   5.343 -0.3008 -0.4218 -0.4330
  182SOL     hw  727   1.864   0.926   5.477 -1.2099  0.5089 -1.0964
  182SOL     vw  728   1.922   0.909   5.414 -0.6187 -0.4404 -0.3171
  183SOL     ow  729   4.111   0.579   5.904 -0.5332  0.2529 -0.3338
  183SOL     hw  730   4.056   0.657   5.910  0.4464  0.8674  2.1208
  183SOL     hw  731   4.175   0.590   5.975  0.7622 -1.9385 -1.0658
  183SOL     vw  732   4.112   0.591   5.914 -0.2329  0.0448 -0.1068
  184SOL     ow  733   0.877   2.605   6.657 -0.1795  0.0897  0.1774
  184SOL     hw  734   0.952   2.570   6.704  0.1654  2.4400  1.5174
  184SOL     hw  735   0.914   2.652   6.583 -0.5433 -1.0823 -0.7759
  184SOL     vw  736   0.891   2.606   6.654 -0.1820  0.2452  0.2286
  185SOL     ow  737   3.002   3.145   3.070 -0.5973 -0.3100 -0.7019
  185SOL     hw  738   2.955   3.227   3.058 -0.3216  0.6897  3.4891
  185SOL     hw  739   2.933   3.080   3.083 -0.8563  0.0803 -0.0669
  185SOL     vw  740   2.987   3.147   3.070 -0.5951 -0.1267 -0.0652
  186SOL     ow  741   1.910   3.164   7.026  0.2515  0.4653 -0.5271
  186SOL     hw  742   1.832   3.205   7.062 -1.3607 -2.7585  0.0734
  186SOL     hw  743   1.905   3.180   6.931 -0.1765  1.7672 -0.2924
  186SOL     vw  744   1.899   3.171   7.018 -0.0176  0.2117 -0.4170
  187SOL     ow  745   4.325   3.802   2.572  0.2973  0.6807  0.6468
  187SOL     hw  746   4.374   3.758   2.642  1.1004 -0.4112 -0.5490
  187SOL     hw  747   4.307   3.733   2.508 -1.0752  1.4916  0.1077
  187SOL     vw  748   4.329   3.787   2.573  0.2220  0.6435  0.4179
  188SOL     ow  749   5.371   1.679   3.261  0.2633 -0.3521 -0.4793
  188SOL     hw  750   5.292   1.631   3.234 -0.1320 -0.5708  1.0051
  188SOL     hw  751   5.390   1.647   3.349  0.9393  1.0534 -0.0928
  188SOL     vw  752   5.363   1.668   3.269  0.3002 -0.1954 -0.2323
  189SOL     ow  753   4.619   1.793   5.958  0.7586  0.5432  0.9355
  189SOL     hw  754   4.713   1.778   5.969  0.8374  1.4358  1.5622
  189SOL     hw  755   4.611   1.886   5.938  0.2175 -0.0552 -2.1179
  189SOL     vw  756   4.630   1.803   5.957  0.6976  0.5820  0.6154
  190SOL     ow  757   6.659   0.996   4.900 -0.0435 -1.0948  0.4559
  190SOL     hw  758   6.690   1.086   4.899 -0.8683 -0.8036  0.0522
  190SOL     hw  759   6.732   0.944   4.867  0.6291 -0.6463  1.2185
  190SOL     vw  760   6.673   1.001   4.896 -0.0639 -0.9972  0.5033
  191SOL     ow  761   2.828   1.091   6.209 -0.1657 -0.2861  0.5171
  191SOL     hw  762   2.888   1.139   6.152 -2.9908  0.6436 -1.9210
  191SOL     hw  763   2.800   1.155   6.274  0.2627 -0.2887  0.7120
  191SOL     vw  764   2.832   1.106   6.210 -0.4818 -0.1638  0.2213
  192SOL     ow  765   0.846   5.390   5.955  0.2503  0.4084  0.1400
  192SOL     hw  766   0.922   5.338   5.928  0.4385  1.8428 -2.4581
  192SOL     hw  767   0.884   5.466   5.999  0.1678  0.0679  0.8129
  192SOL     vw  768   0.861   5.393   5.957  0.2643  0.5529 -0.1137
  193SOL     ow  769   6.646   3.117   6.069  0.8255 -0.1270 -0.2108
  193SOL     hw  770   6.695   3.121   5.987 -0.7858 -2.8489 -1.4315
  193SOL     hw  771   6.562   3.159   6.049  1.0680  0.7923  0.6228
  193SOL     vw  772   6.641   3.123   6.056  0.6452 -0.3648 -0.2620
  194SOL     ow  773   2.368   0.345   0.993  0.2624  0.1042  0.2025
  194SOL     hw  774   2.393   0.327   0.902  1.5124  0.7338  0.3954
  194SOL     hw  775   2.444   0.316   1.044 -0.5150 -0.4384  1.0772
  194SOL     vw  776   2.382   0.338   0.987  0.3247  0.1157  0.3433
  195SOL     ow  777   1.226   6.867   0.125  1.3156  0.0796 -0.0560
  195SOL     hw  778   1.211   6.894   0.034 -0.2414 -2.6397 -0.7091
  195SOL     hw  779   1.321   6.863   0.134  1.5036  0.6396 -1.4697
  195SOL     vw  780   1.236   6.870   0.114  1.1350 -0.2053 -0.3287
  196SOL     ow  781   0.186   4.185   5.338  0.1001  0.2021 -0.1245
  196SOL     hw  782   0.115   4.178   5.402  0.5506  1.6375  0.5712
  196SOL     hw  783   0.257   4.229   5.385  0.9616  0.0107 -1.2065
  196SOL     vw  784   0.186   4.190   5.352  0.2732  0.3660 -0.1752
  197SOL     ow  785   4.693   4.835   0.354  0.4935 -0.4751 -0.2183
  197SOL     hw  786   4.758   4.822   0.423 -0.3080  1.2142  0.9437
  197SOL     hw  787   4.737   4.812   0.273  2.2211 -0.3067  0.6412
  197SOL     vw  788   4.707   4.831   0.352  0.6156 -0.2298  0.0484
  198SOL     ow  789   3.502   5.881   5.005 -0.6081 -0.2040 -0.4735
  198SOL     hw  790   3.418   5.886   4.958 -0.5189  1.2230 -0.5353
  198SOL     hw  791   3.539   5.969   4.997  0.1547 -0.3668  0.9272
  198SOL     vw  792   3.496   5.893   4.998 -0.4958 -0.0372 -0.2968
  199SOL     ow  793   4.839   5.251   6.656  0.1169 -0.1234 -0.6651
  199SOL     hw  794   4.904   5.297   6.709  1.2128 -1.2058 -1.0326
  199SOL     hw  795   4.771   5.225   6.719  0.6514 -0.0783 -0.0634
  199SOL     vw  796   4.838   5.254   6.671  0.3324 -0.2601 -0.6342
  200SOL     ow  797   6.013   4.954   2.845 -0.4208 -0.5358  0.6402
  200SOL     hw  798   5.950   4.888   2.815 -1.2465  0.9675 -1.0988
  200SOL     hw  799   6.001   4.957   2.940 -2.1675 -1.1027  0.4741
  200SOL     vw  800   6.003   4.945   2.853 -0.7603 -0.4120  0.3889
  201SOL     ow  801   6.148   1.528   1.715 -0.2285  0.6608  0.5242
  201SOL     hw  802   6.202   1.461   1.757  1.6305  1.4635 -0.4616
  201SOL     hw  803   6.117   1.486   1.635 -0.1029  0.5663  0.5234
  201SOL     vw  804   6.151   1.513   1.710  0.0331  0.7542  0.3940
  202SOL     ow  805   3.686   4.729   0.490  0.3158  0.2566 -0.6460
  202SOL     hw  806   3.769   4.692   0.520  0.9510  1.4298 -0.9132
  202SOL     hw  807   3.705   4.765   0.403 -0.8955 -0.9355 -1.4555
  202SOL     vw  808   3.699   4.729   0.482  0.2398  0.2542 -0.7881
  203SOL     ow  809   3.782   0.195   4.089 -0.1728  0.2702 -0.4025
  203SOL     hw  810   3.814   0.110   4.118 -1.1872 -0.0445 -0.1765
  203SOL     hw  811   3.763   0.184   3.996 -0.3099  0.2506 -0.3719
  203SOL     vw  812   3.784   0.182   4.080 -0.3248  0.2261 -0.3686
  204SOL     ow  813   2.307   1.080   0.554 -0.2314 -0.0196 -0.1436
  204SOL     hw  814   2.374   1.030   0.507  1.3613  1.0074  0.9336
  204SOL     hw  815   2.324   1.171   0.529  0.0099  0.4411  1.5972
  204SOL     vw  816   2.318   1.086   0.544  0.0106  0.1767  0.2282
  205SOL     ow  817   0.108   4.220   3.273  0.3464  0.1506 -0.2363
  205SOL     hw  818   0.121   4.279   3.347  2.6243  0.2647 -0.6417
  205SOL     hw  819   0.022   4.242   3.239  0.8768  2.8591 -0.0327
  205SOL     vw  820   0.098   4.231   3.278  0.7169  0.5233 -0.2630
  206SOL     ow  821   0.183   0.961   0.154 -0.0911 -0.4135  0.5197
  206SOL     hw  822   0.233   0.956   0.236 -1.8986 -1.8988  1.5930
  206SOL     hw  823   0.094   0.982   0.182 -0.9823 -2.0667 -0.9651
  206SOL     vw  824   0.178   0.963   0.169 -0.4471 -0.8276  0.4654
  207SOL     ow  825   3.439   1.326   4.344 -0.0005  0.3277 -0.4841
  207SOL     hw  826   3.379   1.313   4.270  0.8455 -0.9323 -0.9704
  207SOL     hw  827   3.524   1.341   4.303  0.2640  0.8010  0.2240
  207SOL     vw  828   3.442   1.326   4.329  0.1459  0.2240 -0.4547
  208SOL     ow  829   0.316   6.905   3.030 -0.5820  0.3978 -0.7081
  208SOL     hw  830   0.338   6.816   3.001 -0.8358 -0.8002  2.3935
  208SOL     hw  831   0.229   6.921   2.993 -1.2046 -1.3110 -0.1019
  208SOL     vw  832   0.307   6.895   3.021 -0.6977  0.0143 -0.2190
  209SOL     ow  833   0.945   4.639   4.869  0.7805 -0.6657  0.0820
  209SOL     hw  834   1.006   4.629   4.942 -1.5352  3.1688  2.9403
  209SOL     hw  835   0.960   4.727   4.836 -0.5455 -1.0914 -1.8670
  209SOL     vw  836   0.955   4.649   4.874  0.3000 -0.2158  0.2017
  210SOL     ow  837   4.431   3.717   4.767  0.1601 -0.4875  0.3022
  210SOL     hw  838   4.437   3.800   4.720 -2.0421 -1.4376 -1.8927
  210SOL     hw  839   4.338   3.704   4.782  0.4417 -2.5278  0.6517
  210SOL     vw  840   4.420   3.726   4.763 -0.0930 -0.8820  0.0587
  211SOL     ow  841   4.772   1.763   5.086  0.9372 -0.6068  0.2944
  211SOL     hw  842   4.763   1.817   5.007 -2.1788  1.7778  2.0438
  211SOL     hw  843   4.838   1.809   5.139  0.5255 -0.2158  0.4797
  211SOL     vw  844   4.780   1.777   5.083  0.4718 -0.2406  0.5496
  212SOL     ow  845   3.233   1.382   1.119 -0.6395  0.4257  0.8110
  212SOL     hw  846   3.177   1.429   1.058  0.5770  1.6555  0.5836
  212SOL     hw  847   3.314   1.433   1.121 -0.5371  0.2817  3.2526
  212SOL     vw  848   3.236   1.395   1.111 -0.4655  0.5689  1.1031
  213SOL     ow  849   2.154   5.799   3.901  0.1371  0.1569  0.7735
  213SOL     hw  850   2.164   5.855   3.978  0.5212  3.0710 -1.2337
  213SOL     hw  851   2.070   5.825   3.863  1.5276  1.4263 -1.6662
  213SOL     vw  852   2.144   5.810   3.906  0.3712  0.7088  0.1869
  214SOL     ow  853   5.388   2.361   0.910  0.6024 -0.5117  0.5584
  214SOL     hw  854   5.373   2.432   0.972  0.7165 -0.6436  0.7422
  214SOL     hw  855   5.309   2.359   0.856  1.5731  1.3082 -1.0337
  214SOL     vw  856   5.376   2.370   0.911  0.7453 -0.2890  0.3726
  215SOL     ow  857   7.100   4.751   1.679 -0.6070  0.0340 -0.2903
  215SOL     hw  858   7.041   4.811   1.633  1.5043  1.7809 -0.9057
  215SOL     hw  859   7.186   4.789   1.667  0.7745 -2.7416  0.0306
  215SOL     vw  860   7.103   4.764   1.671 -0.1462 -0.1018 -0.3291
  216SOL     ow  861   5.733   5.264   3.652  0.4455 -0.3692  0.2332
  216SOL     hw  862   5.819   5.248   3.613  0.3218 -2.9589  0.8068
  216SOL     hw  863   5.752   5.298   3.739  0.8229  0.7351 -0.2636
  216SOL     vw  864   5.747   5.266   3.658  0.4792 -0.5651  0.2433
  217SOL     ow  865   2.329   0.010   5.385 -0.2521  0.9178 -0.0053
  217SOL     hw  866   2.334   0.092   5.336 -1.6774  1.0102 -0.0302
  217SOL     hw  867   2.330  -0.058   5.318  4.2388  0.6386  0.0834
  217SOL     vw  868   2.330   0.012   5.370  0.1525  0.8926  0.0033
  218SOL     ow  869   0.444   5.565   0.548 -0.1454  0.5238  0.2208
  218SOL     hw  870   0.359   5.546   0.586  0.6154 -2.7435  0.5724
  218SOL     hw  871   0.443   5.523   0.462  1.3437 -0.3034  0.5631
  218SOL     vw  872   0.433   5.557   0.541  0.1514 -0.0167  0.3124
  219SOL     ow  873   3.465   6.733   1.547  0.2792 -0.5175 -0.6111
  219SOL     hw  874   3.449   6.648   1.507 -0.1082 -1.4519  1.3978
  219SOL     hw  875   3.386   6.784   1.528 -0.2237 -1.2013 -0.3911
  219SOL     vw  876   3.453   6.729   1.539  0.1619 -0.7310 -0.3170
  220SOL     ow  877   6.024   2.440   1.848 -0.2217 -0.1843  0.4269
  220SOL     hw  878   5.992   2.350   1.836  1.4595 -1.1506  2.4538
  220SOL     hw  879   6.102   2.445   1.793  0.2080 -0.3131  1.0085
  220SOL     vw  880   6.030   2.429   1.839  0.0565 -0.3288  0.7710
  221SOL     ow  881   6.756   3.459   6.510  0.1620  0.2772 -0.3134
  221SOL     hw  882   6.843   3.451   6.471  1.7102  0.8251  2.7119
  221SOL     hw  883   6.748   3.382   6.567  0.4347  2.0982  2.3954
  221SOL     vw  884   6.767   3.448   6.513  0.4022  0.5897  0.4432
  222SOL     ow  885   0.421   4.021   4.185  0.1999 -0.0326  0.3437
  222SOL     hw  886   0.365   3.950   4.218  0.2753 -0.5340 -0.5511
  222SOL     hw  887   0.378   4.050   4.105  2.1164 -1.6956 -1.4190
  222SOL     vw  888   0.408   4.015   4.179  0.4627 -0.3181 -0.0069
  223SOL     ow  889   6.404   0.008   3.691 -0.4162  0.4452 -0.1055
  223SOL     hw  890   6.469  -0.024   3.628  0.0856  0.5983  0.3241
  223SOL     hw  891   6.327   0.030   3.638  0.4607  1.8658 -0.8494
  223SOL     vw  892   6.403   0.007   3.676 -0.2344  0.6528 -0.1470
  224SOL     ow  893   6.424   6.831   5.257  0.0441  0.0254  0.3366
  224SOL     hw  894   6.466   6.831   5.171 -0.6391  1.7086 -0.0424
  224SOL     hw  895   6.367   6.908   5.256 -1.5461 -1.0640  1.5516
  224SOL     vw  896   6.422   6.841   5.246 -0.2558  0.1037  0.4470
  225SOL     ow  897   0.576   6.721   1.005 -0.5270  0.3558  0.1947
  225SOL     hw  898   0.640   6.693   0.940 -0.7416 -0.1338  0.1900
  225SOL     hw  899   0.492   6.719   0.958 -0.5994  0.6074  0.3117
  225SOL     vw  900   0.573   6.717   0.990 -0.5648  0.3247  0.2095
  226SOL     ow  901   6.441   5.660   2.067 -0.0369  0.2859 -0.8824
  226SOL     hw  902   6.430   5.755   2.060  0.5638  0.3918 -0.4556
  226SOL     hw  903   6.501   5.648   2.141 -1.7627 -0.5325  0.4621
  226SOL     vw  904   6.448   5.671   2.076 -0.1853  0.1917 -0.6486
  227SOL     ow  905   4.683   6.581   4.742 -0.4372  0.6867 -0.3822
  227SOL     hw  906   4.630   6.549   4.668 -0.1165 -0.3482 -0.1818
  227SOL     hw  907   4.629   6.563   4.819 -0.5239  1.2226 -0.3188
  227SOL     vw  908   4.669   6.574   4.742 -0.4065  0.6206 -0.3474
  228SOL     ow  909   6.572   0.550   2.633 -0.4985 -0.0907  0.2575
  228SOL     hw  910   6.513   0.567   2.560 -0.0972 -0.5521 -0.1835
  228SOL     hw  911   6.584   0.455   2.634  2.9029  0.1396 -1.8811
  228SOL     vw  912   6.566   0.540   2.623  0.0033 -0.1212 -0.0829
  229SOL     ow  913   4.833   2.458   6.187 -0.7817  0.2751 -0.3605
  229SOL     hw  914   4.830   2.378   6.135  0.4887  0.2820 -0.4900
  229SOL     hw  915   4.786   2.437   6.267 -1.0900 -0.3637 -0.7083
  229SOL     vw  916   4.827   2.445   6.191 -0.6547  0.1917 -0.4237
  230SOL     ow  917   2.162   0.938   5.660  0.2045  0.7387 -0.5835
  230SOL     hw  918   2.228   0.871   5.644  1.5876  2.3656 -2.0865
  230SOL     hw  919   2.095   0.893   5.711  0.3795 -2.1942 -2.6318
  230SOL     vw  920   2.162   0.923   5.664  0.4100  0.5664 -1.0519
  231SOL     ow  921   0.293   0.461   5.891 -0.0306  0.2637 -0.2548
  231SOL     hw  922   0.387   0.446   5.900  0.0558  1.4463  1.0984
  231SOL     hw  923   0.281   0.486   5.799  0.5391 -2.6114 -1.2069
  231SOL     vw  924   0.304   0.462   5.880  0.0560  0.0404 -0.2022
  232SOL     ow  925   2.426   4.134   3.858 -0.3715 -0.1079 -0.6090
  232SOL     hw  926   2.508   4.121   3.906 -0.8261 -1.7797 -0.2198
  232SOL     hw  927   2.411   4.229   3.861  1.0197  0.1171  0.1661
  232SOL     vw  928   2.435   4.145   3.864 -0.2480 -0.2985 -0.4554
  233SOL     ow  929   2.422   5.236   6.830 -0.2960 -0.2076  0.9226
  233SOL     hw  930   2.352   5.300   6.841 -1.0535 -0.5001 -1.5313
  233SOL     hw  931   2.394   5.183   6.755  0.4196 -3.2940  2.6839
  233SOL     vw  932   2.409   5.238   6.821 -0.3016 -0.6533  0.8311
  234SOL     ow  933   2.460   2.086   6.654  0.7039 -0.0782 -0.0128
  234SOL     hw  934   2.506   2.113   6.575  1.2050 -0.7147  0.0451
  234SOL     hw  935   2.529   2.079   6.720  0.5011 -0.8372  0.1341
  234SOL     vw  936   2.475   2.089   6.652  0.7433 -0.2624  0.0143
  235SOL     ow  937   0.315   5.542   1.457  0.5720  0.2432 -0.5757
  235SOL     hw  938   0.262   5.476   1.503  0.6710 -0.0044 -0.8123
  235SOL     hw  939   0.356   5.493   1.385 -0.3200  0.8180 -1.5034
  235SOL     vw  940   0.313   5.527   1.454  0.4674  0.2863 -0.7293
  236SOL     ow  941   5.995   5.207   0.357 -0.6143  0.4198  1.2995
  236SOL     hw  942   6.023   5.298   0.353 -0.2642  0.2837 -1.7008
  236SOL     hw  943   6.074   5.156   0.339 -1.0457 -0.4210  1.7031
  236SOL     vw  944   6.009   5.212   0.354 -0.6254  0.2909  0.9569
  237SOL     ow  945   6.258   2.088   5.426 -0.0566 -0.5671  0.2359
  237SOL     hw  946   6.343   2.086   5.469  0.4724 -1.4278 -0.7967
  237SOL     hw  947   6.270   2.035   5.347  0.1411  3.6703 -2.9784
  237SOL     vw  948   6.271   2.081   5.421  0.0393 -0.1215 -0.3245
  238SOL     ow  949   3.448   1.595   3.192 -0.0567  0.2529 -0.7568
  238SOL     hw  950   3.386   1.526   3.171  1.0554 -0.4312 -1.9278
  238SOL     hw  951   3.397   1.659   3.242 -1.2578 -1.0999 -0.1985
  238SOL     vw  952   3.433   1.594   3.196 -0.0684 -0.0158 -0.8377
  239SOL     ow  953   2.239   5.444   3.683 -0.3292  0.1446 -0.2337
  239SOL     hw  954   2.212   5.353   3.676 -0.0387 -0.0883  1.2878
  239SOL     hw  955   2.304   5.455   3.614  1.1049 -1.3859  0.8059
  239SOL     vw  956   2.244   5.434   3.673 -0.1017 -0.0880  0.1042
  240SOL     ow  957   4.036   1.737   3.204  0.5091 -0.6908 -0.3600
  240SOL     hw  958   4.059   1.653   3.245 -0.2123 -1.2736 -1.1162
  240SOL     hw  959   4.031   1.799   3.277  0.9003 -1.3379  0.2290
  240SOL     vw  960   4.038   1.734   3.219  0.4654 -0.8530 -0.3819
  241SOL     ow  961   4.410   4.897   0.200 -0.3686 -0.2320 -0.2890
  241SOL     hw  962   4.381   4.984   0.229 -0.4513  0.3661 -2.0202
  241SOL     hw  963   4.338   4.866   0.144 -0.5155 -1.6135  0.6382
  241SOL     vw  964   4.396   4.905   0.197 -0.3989 -0.3350 -0.3951
  242SOL     ow  965   0.887   0.436   3.338 -0.9514 -0.1717  0.1655
  242SOL     hw  966   0.966   0.424   3.285 -1.0037 -1.2468  0.3007
  242SOL     hw  967   0.918   0.436   3.428 -0.8375  1.8794  0.1646
  242SOL     vw  968   0.901   0.434   3.343 -0.9433 -0.0430  0.1832
  243SOL     ow  969   1.342   3.146   1.250 -0.4081 -0.8935 -0.2543
  243SOL     hw  970   1.283   3.072   1.235 -1.1283 -0.2931 -0.4691
  243SOL     hw  971   1.429   3.107   1.252 -0.6918 -1.6237 -1.3078
  243SOL     vw  972   1.345   3.131   1.249 -0.5405 -0.9105 -0.4216
  244SOL     ow  973   3.353   4.783   4.899  0.2191 -0.1425  0.1534
  244SOL     hw  974   3.347   4.843   4.974 -0.8808  1.1612 -0.9122
  244SOL     hw  975   3.292   4.820   4.835  2.1678 -0.3919 -1.9537
  244SOL     vw  976   3.344   4.796   4.901  0.3310 -0.0036 -0.2654
  245SOL     ow  977   5.919   5.726   2.680 -0.4369  0.2851  0.8684
  245SOL     hw  978   5.907   5.780   2.601  1.5598 -1.3556 -0.6894
  245SOL     hw  979   6.014   5.714   2.686 -0.6791 -1.2068  2.4472
  245SOL     vw  980   5.930   5.731   2.670 -0.2055 -0.1283  0.8711
  246SOL     ow  981   5.231   2.032   5.930  0.5064 -0.0690 -0.2278
  246SOL     hw  982   5.250   1.958   5.873 -0.6501  1.0856 -2.2332
  246SOL     hw  983   5.155   2.074   5.890  0.8641  1.9634  1.0717
  246SOL     vw  984   5.223   2.028   5.918  0.4010  0.3515 -0.3211
  247SOL     ow  985   1.633   4.733   3.712  0.1626  0.1706 -0.0598
  247SOL     hw  986   1.564   4.748   3.648 -0.6981 -0.6501  0.6387
  247SOL     hw  987   1.616   4.797   3.782  1.1484  1.1225 -0.6531
  247SOL     vw  988   1.622   4.743   3.713  0.1791  0.1881 -0.0458
  248SOL     ow  989   2.756   3.955   3.574  0.4207 -0.4677  0.1859
  248SOL     hw  990   2.784   4.045   3.562  1.7371 -1.0089 -1.2106
  248SOL     hw  991   2.662   3.955   3.553  0.4506  0.5391  0.0425
  248SOL     vw  992   2.747   3.967   3.570  0.5983 -0.4061 -0.0173
  249SOL     ow  993   6.524   4.872   5.430  0.5092  0.0076 -0.6516
  249SOL     hw  994   6.550   4.934   5.361  0.5291  0.6429 -0.0826
  249SOL     hw  995   6.581   4.796   5.417  0.3433  0.0159 -1.4877
  249SOL     vw  996   6.535   4.870   5.419  0.4900  0.0925 -0.6869
  250SOL     ow  997   5.876   6.368   6.748  0.3014 -0.7240  0.4769
  250SOL     hw  998   5.893   6.277   6.769  0.6580 -1.6524 -3.2315
  250SOL     hw  999   5.782   6.371   6.727  0.1275 -0.0291  1.2814
  250SOL     vw 1000   5.866   6.357   6.748  0.3252 -0.7548  0.0937
  251SOL     ow 1001   5.324   6.270   3.461  0.2125  0.4608  0.3740
  251SOL     hw 1002   5.308   6.183   3.497  0.5231  0.5755  0.7923
  251SOL     hw 1003   5.312   6.330   3.535 -1.9540  0.9820 -0.3131
  251SOL     vw 1004   5.320   6.267   3.475 -0.0322  0.5445  0.3384
  252SOL     ow 1005   2.490   0.914   5.483 -0.8474  0.0467 -0.0766
  252SOL     hw 1006   2.583   0.932   5.497 -0.7225 -0.6028 -0.0243
  252SOL     hw 1007   2.468   0.849   5.550 -0.9091 -1.0821 -1.1553
  252SOL     vw 1008   2.499   0.908   5.494 -0.8390 -0.1880 -0.2120
  253SOL     ow 1009   1.841   5.137   0.302 -0.2814  0.3935 -0.1969
  253SOL     hw 1010   1.874   5.053   0.336  0.3136 -0.1729 -2.0646
  253SOL     hw 1011   1.794   5.175   0.376 -0.3292 -1.4544  0.7962
  253SOL     vw 1012   1.839   5.131   0.316 -0.2093  0.0751 -0.3123
  254SOL     ow 1013   3.111   3.356   7.092  0.3496  0.2423  0.1589
  254SOL     hw 1014   3.124   3.289   7.025  0.6821 -0.0600  0.5204
  254SOL     hw 1015   3.174   3.334   7.160 -0.7186 -0.1001  1.0703
  254SOL     vw 1016   3.121   3.344   7.092  0.2526  0.1572  0.3269
  255SOL     ow 1017   6.394   3.249   1.405 -0.4263  0.1734  0.1746
  255SOL     hw 1018   6.365   3.260   1.314  0.3257  0.6044 -0.0318
  255SOL     hw 1019   6.438   3.164   1.406  1.9823  1.2980 -0.5910
  255SOL     vw 1020   6.396   3.239   1.393 -0.0093  0.3787  0.0464
  256SOL     ow 1021   5.750   5.270   0.202 -0.0558  0.1444 -0.0794
  256SOL     hw 1022   5.818   5.303   0.143 -2.4047  2.2441 -1.8640
  256SOL     hw 1023   5.669   5.281   0.152 -2.0459  0.6286  2.9994
  256SOL     vw 1024   5.748   5.276   0.187 -0.6282  0.4852  0.0914
  257SOL     ow 1025   4.221   4.967   7.093  0.0466  0.4934 -0.1279
  257SOL     hw 1026   4.236   4.873   7.087 -0.7292  0.4028 -0.9133
  257SOL     hw 1027   4.288   5.006   7.037  0.2246  0.3949  0.0163
  257SOL     vw 1028   4.231   4.960   7.085 -0.0322  0.4687 -0.2127
  258SOL     ow 1029   6.376   1.816   0.227  0.1613 -0.2904  0.2753
  258SOL     hw 1030   6.328   1.743   0.267 -1.8599  1.3799  1.0738
  258SOL     hw 1031   6.380   1.793   0.134 -1.8151 -0.7530  0.2525
  258SOL     vw 1032   6.370   1.803   0.220 -0.3660 -0.1310  0.3777
  259SOL     ow 1033   0.534   0.176   7.195  0.7306  0.2577  0.7438
  259SOL     hw 1034   0.570   0.093   7.165 -0.0338  0.5935 -1.2686
  259SOL     hw 1035   0.498   0.157   7.282  2.4328 -0.9584  1.2358
  259SOL     vw 1036   0.534   0.163   7.202  0.8543  0.1416  0.5434
  260SOL     ow 1037   5.829   5.203   6.139 -0.0309 -0.7336 -0.1403
  260SOL     hw 1038   5.842   5.295   6.114 -0.3569 -0.8016 -0.5724
  260SOL     hw 1039   5.858   5.154   6.062  0.9611 -1.0314  0.4043
  260SOL     vw 1040   5.835   5.209   6.125  0.0570 -0.7815 -0.1254
  261SOL     ow 1041   5.480   3.086   5.215 -0.0243  1.0668 -0.4500
  261SOL     hw 1042   5.550   3.025   5.191  1.2108  0.2583  4.1807
  261SOL     hw 1043   5.410   3.029   5.248 -0.1681  2.0422  0.9742
  261SOL     vw 1044   5.480   3.070   5.216  0.1197  1.0890  0.3488
  262SOL     ow 1045   2.976   4.186   5.556  0.0392  0.5482 -0.1544
  262SOL     hw 1046   2.889   4.225   5.563  0.8066  2.6462 -1.4849
  262SOL     hw 1047   3.032   4.241   5.612  0.4694 -1.1393  1.1923
  262SOL     vw 1048   2.972   4.198   5.565  0.1973  0.6022 -0.1521
  263SOL     ow 1049   5.688   1.833   4.643  1.1449  0.1863 -0.0394
  263SOL     hw 1050   5.632   1.821   4.567  0.8444 -0.1802  0.2335
  263SOL     hw 1051   5.700   1.745   4.678  0.4095  0.4524  0.9398
  263SOL     vw 1052   5.682   1.820   4.638  1.0083  0.1731  0.1256
  264SOL     ow 1053   3.654   4.387   1.457 -0.1596  0.0914 -0.3604
  264SOL     hw 1054   3.739   4.375   1.500 -0.2824 -0.7005 -0.3157
  264SOL     hw 1055   3.628   4.477   1.478  1.0072  0.5913 -0.9896
  264SOL     vw 1056   3.662   4.397   1.465 -0.0217  0.0529 -0.4375
  265SOL     ow 1057   1.881   1.514   6.297 -0.4617 -0.4604 -1.1635
  265SOL     hw 1058   1.818   1.459   6.251 -0.6800 -1.8939  0.7258
  265SOL     hw 1059   1.927   1.454   6.356  2.6924  0.5417 -2.4384
  265SOL     vw 1060   1.879   1.499   6.299 -0.0744 -0.5173 -1.0822
  266SOL     ow 1061   3.424   1.193   1.290  0.1307  0.3699  0.1809
  266SOL     hw 1062   3.441   1.130   1.361  0.0337  0.9712  0.7432
  266SOL     hw 1063   3.497   1.255   1.294  2.2314 -1.6331 -2.6364
  266SOL     vw 1064   3.436   1.193   1.300  0.3952  0.1850 -0.1166
  267SOL     ow 1065   3.333   3.357   1.059 -0.2025  0.3952  0.0110
  267SOL     hw 1066   3.345   3.435   1.113 -0.3574  0.6243 -0.2822
  267SOL     hw 1067   3.387   3.372   0.982 -0.1126  0.1441  0.0238
  267SOL     vw 1068   3.341   3.369   1.056 -0.2110  0.3922 -0.0260
  268SOL     ow 1069   0.752   1.886   0.759 -0.5327 -0.4435  0.1857
  268SOL     hw 1070   0.715   1.836   0.686  0.1209  0.0419 -0.5000
  268SOL     hw 1071   0.844   1.860   0.761 -0.5727 -0.5351  0.9130
  268SOL     vw 1072   0.759   1.876   0.750 -0.4517 -0.3915  0.1911
  269SOL     ow 1073   3.197   2.262   7.146 -0.0370 -0.1252  0.4060
  269SOL     hw 1074   3.264   2.195   7.129 -0.7524 -0.2893 -2.1057
  269SOL     hw 1075   3.245   2.333   7.188  1.1709 -1.3051  1.1128
  269SOL     vw 1076   3.212   2.262   7.149  0.0279 -0.3024  0.1676
  270SOL     ow 1077   1.022   1.066   5.496  0.6896  0.3802 -0.0049
  270SOL     hw 1078   0.998   1.157   5.477  1.2338  0.0450 -2.5364
  270SOL     hw 1079   0.951   1.014   5.458  2.1451 -0.3514 -1.8514
  270SOL     vw 1080   1.009   1.071   5.489  0.9534  0.2394 -0.5825
  271SOL     ow 1081   2.001   3.079   5.168 -0.9996  0.1802  0.4395
  271SOL     hw 1082   1.979   2.990   5.195 -2.9142  0.7416  0.8630
  271SOL     hw 1083   2.077   3.103   5.221  1.4719 -2.1958 -1.7491
  271SOL     vw 1084   2.008   3.071   5.179 -0.9263 -0.0591  0.2065
  272SOL     ow 1085   0.550   4.923   6.974  0.5451  0.7965 -0.5172
  272SOL     hw 1086   0.544   4.953   7.064  0.4844  0.0811 -0.2778
  272SOL     hw 1087   0.462   4.937   6.938  0.3217  0.2415 -0.1930
  272SOL     vw 1088   0.537   4.929   6.981  0.5076  0.6289 -0.4430
  273SOL     ow 1089   5.955   3.070   5.718 -0.1698  0.6004  0.3568
  273SOL     hw 1090   6.035   3.018   5.709 -1.3072 -0.8920 -2.6658
  273SOL     hw 1091   5.919   3.045   5.803  1.2756 -0.6740  0.6403
  273SOL     vw 1092   5.961   3.060   5.728 -0.1295  0.2354 -0.0045
  274SOL     ow 1093   1.053   6.319   5.290 -0.0112 -0.0605  0.1245
  274SOL     hw 1094   1.014   6.290   5.208  1.4330 -1.4832 -0.1134
  274SOL     hw 1095   1.049   6.415   5.286 -0.0391 -0.1118 -1.5732
  274SOL     vw 1096   1.048   6.328   5.279  0.1757 -0.2551 -0.1309
  275SOL     ow 1097   4.027   4.735   4.545 -0.1237  0.0373 -0.1106
  275SOL     hw 1098   3.963   4.683   4.496 -1.1548  0.9244  0.2612
  275SOL     hw 1099   4.094   4.672   4.571 -1.4302 -1.1558  0.4816
  275SOL     vw 1100   4.027   4.720   4.542 -0.4323 -0.0031  0.0162
  276SOL     ow 1101   5.601   1.713   3.435 -0.3782 -0.7885 -0.4171
  276SOL     hw 1102   5.601   1.619   3.454 -0.0695 -0.5739  0.7603
  276SOL     hw 1103   5.595   1.755   3.521 -1.6324  0.2797 -0.9923
  276SOL     vw 1104   5.600   1.706   3.449 -0.5028 -0.6192 -0.3377
  277SOL     ow 1105   3.811   2.898   5.038  0.1778 -0.1942 -0.1390
  277SOL     hw 1106   3.736   2.953   5.015  1.7228  2.0331 -0.1645
  277SOL     hw 1107   3.775   2.830   5.095 -2.1841 -0.4332 -1.7696
  277SOL     vw 1108   3.796   2.896   5.042  0.0701  0.0682 -0.3572
  278SOL     ow 1109   4.881   3.542   0.755  0.2845 -0.3816  0.3471
  278SOL     hw 1110   4.840   3.620   0.716  0.9155  0.0351  0.4977
  278SOL     hw 1111   4.816   3.510   0.817  0.3711  0.5665  0.9514
  278SOL     vw 1112   4.867   3.548   0.758  0.3793 -0.2015  0.4467
  279SOL     ow 1113   3.628   6.404   0.146  0.0524 -0.3856  0.6538
  279SOL     hw 1114   3.584   6.369   0.069 -2.6115  0.4267  1.6836
  279SOL     hw 1115   3.619   6.335   0.212 -0.2261 -0.0015  1.0293
  279SOL     vw 1116   3.621   6.390   0.144 -0.3358 -0.2275  0.8392
  280SOL     ow 1117   4.208   6.741   3.297 -0.3670  0.3126  0.0245
  280SOL     hw 1118   4.143   6.691   3.347 -1.3188 -0.8785 -2.2416
  280SOL     hw 1119   4.171   6.746   3.209  2.2374  0.3178 -1.1585
  280SOL     vw 1120   4.195   6.735   3.292 -0.1490  0.1562 -0.4306
  281SOL     ow 1121   2.500   3.072   2.949  0.0862  0.6199  0.0817
  281SOL     hw 1122   2.592   3.093   2.966  0.5496  1.5470 -2.9629
  281SOL     hw 1123   2.473   3.134   2.882 -2.1856 -0.9228 -0.5547
  281SOL     vw 1124   2.509   3.083   2.942 -0.1523  0.5387 -0.4040
  282SOL     ow 1125   0.486   6.668   3.991 -0.2500  0.3137  0.4508
  282SOL     hw 1126   0.493   6.572   3.985 -2.5568 -0.0965  2.5821
  282SOL     hw 1127   0.490   6.686   4.085 -0.1852  2.3047  0.1035
  282SOL     vw 1128   0.488   6.658   4.003 -0.5458  0.5224  0.6862
  283SOL     ow 1129   2.330   1.904   6.464  0.1800 -0.7275 -0.0807
  283SOL     hw 1130   2.239   1.885   6.484 -0.3523  0.4759 -1.2194
  283SOL     hw 1131   2.362   1.955   6.538 -0.9349  1.2817 -0.8979
  283SOL     vw 1132   2.322   1.908   6.476 -0.0374 -0.3036 -0.3388
  284SOL     ow 1133   4.503   5.035   0.446  0.8217  0.5377 -0.3390
  284SOL     hw 1134   4.556   5.006   0.520  0.5910 -0.2305 -0.4621
  284SOL     hw 1135   4.533   5.124   0.428  2.0475  0.1454 -0.3737
  284SOL     vw 1136   4.514   5.043   0.453  0.9530  0.3846 -0.3598
  285SOL     ow 1137   3.276   1.771   3.312 -0.2703 -0.3556  0.7042
  285SOL     hw 1138   3.281   1.832   3.239 -0.4605 -1.3597 -0.1808
  285SOL     hw 1139   3.257   1.825   3.388  0.1628  0.7432  0.0522
  285SOL     vw 1140   3.274   1.786   3.312 -0.2382 -0.3430  0.5013
  286SOL     ow 1141   0.869   6.339   4.366 -0.6828 -0.0561 -0.0876
  286SOL     hw 1142   0.786   6.339   4.317 -0.4213 -1.2157 -0.5812
  286SOL     hw 1143   0.898   6.430   4.364 -0.6307 -0.0493 -2.2453
  286SOL     vw 1144   0.862   6.351   4.359 -0.6414 -0.2086 -0.4375
  287SOL     ow 1145   2.944   2.130   1.143 -0.1925 -0.1749 -0.4725
  287SOL     hw 1146   2.985   2.209   1.108  1.1249 -1.0502 -1.0048
  287SOL     hw 1147   3.010   2.094   1.203 -0.6977 -0.9698 -0.3737
  287SOL     vw 1148   2.958   2.136   1.146 -0.0854 -0.3954 -0.5296
  288SOL     ow 1149   5.528   5.046   6.450  0.6859  0.3551 -0.6289
  288SOL     hw 1150   5.435   5.020   6.453  0.6003  0.3866 -2.3460
  288SOL     hw 1151   5.546   5.062   6.358  2.3490  0.6195 -0.2912
  288SOL     vw 1152   5.518   5.045   6.439  0.8941  0.3943 -0.8111
  289SOL     ow 1153   4.007   4.513   4.968  0.5673 -0.5608  0.0669
  289SOL     hw 1154   4.037   4.572   5.037  0.1558  0.0896 -0.2996
  289SOL     hw 1155   3.980   4.571   4.897  4.0523 -1.2269 -2.0098
  289SOL     vw 1156   4.007   4.528   4.968  0.9727 -0.5629 -0.2553
  290SOL     ow 1157   5.511   3.311   4.943 -0.2020 -0.3516  0.3437
  290SOL     hw 1158   5.501   3.401   4.912  0.7953 -0.1784  0.4639
  290SOL     hw 1159   5.597   3.284   4.910 -0.7959 -1.5140 -0.2912
  290SOL     vw 1160   5.521   3.320   4.935 -0.1490 -0.4822  0.2754
  291SOL     ow 1161   5.291   6.151   3.190 -1.1093 -0.0096  0.2988
  291SOL     hw 1162   5.222   6.156   3.124 -0.8534 -1.3910 -0.1154
  291SOL     hw 1163   5.294   6.058   3.213  1.3180 -0.1793 -0.4557
  291SOL     vw 1164   5.282   6.139   3.185 -0.7553 -0.2143  0.1446
  292SOL     ow 1165   1.755   4.069   4.090 -0.3124  0.2806  0.2892
  292SOL     hw 1166   1.742   4.163   4.105 -2.8576 -0.1261  1.0966
  292SOL     hw 1167   1.667   4.032   4.093  0.6262 -2.1470 -0.0970
  292SOL     vw 1168   1.742   4.077   4.092 -0.5245 -0.0935  0.3448
  293SOL     ow 1169   4.733   2.752   4.486  0.0360 -0.2238 -0.0050
  293SOL     hw 1170   4.755   2.664   4.455 -0.9298 -0.6808  0.5653
  293SOL     hw 1171   4.740   2.747   4.581  1.2111  0.6753 -0.0210
  293SOL     vw 1172   4.737   2.740   4.495  0.0637 -0.1655  0.0682
  294SOL     ow 1173   3.700   1.628   4.330  0.0907 -0.8259  0.2649
  294SOL     hw 1174   3.685   1.673   4.247 -1.3607 -0.0932  0.8931
  294SOL     hw 1175   3.672   1.538   4.314  0.0664 -0.7525 -0.1110
  294SOL     vw 1176   3.694   1.622   4.317 -0.1040 -0.7195  0.2983
  295SOL     ow 1177   0.637   0.986   5.977 -0.0799  0.4238  0.5189
  295SOL     hw 1178   0.637   0.951   5.888 -1.2709  0.4758  0.4876
  295SOL     hw 1179   0.562   1.045   5.980  1.0054  1.8641  1.0104
  295SOL     vw 1180   0.627   0.989   5.966 -0.0938  0.6207  0.5798
  296SOL     ow 1181   3.875   1.104   5.848  0.6166 -0.1265 -0.4957
  296SOL     hw 1182   3.842   1.061   5.768  0.2622  1.1807 -1.0910
  296SOL     hw 1183   3.969   1.087   5.847  0.7052  0.3048 -1.4979
  296SOL     vw 1184   3.883   1.096   5.837  0.5815  0.1028 -0.7062
  297SOL     ow 1185   0.522   2.848   2.815 -0.1964  0.0049 -0.4406
  297SOL     hw 1186   0.432   2.840   2.784 -1.6654 -1.5503  3.5797
  297SOL     hw 1187   0.522   2.929   2.866  1.4038  1.1931 -2.2243
  297SOL     vw 1188   0.510   2.858   2.818 -0.1791 -0.0435 -0.1454
  298SOL     ow 1189   4.065   3.783   2.665 -0.8592 -0.6014 -0.1388
  298SOL     hw 1190   4.154   3.773   2.633  0.5324  0.6254  3.0069
  298SOL     hw 1191   4.052   3.709   2.723 -1.4846 -0.1812  0.2679
  298SOL     vw 1192   4.075   3.772   2.668 -0.7582 -0.3841  0.3299
  299SOL     ow 1193   0.688   4.563   4.051  0.4003 -0.0317 -0.5728
  299SOL     hw 1194   0.662   4.653   4.032 -1.6522 -0.9111 -2.2253
  299SOL     hw 1195   0.782   4.569   4.067 -0.0715  2.8007  2.2217
  299SOL     vw 1196   0.697   4.576   4.051  0.0672  0.2260 -0.4220
  300SOL     ow 1197   6.041   4.171   1.746 -0.0534  0.0457 -0.8103
  300SOL     hw 1198   6.124   4.207   1.779 -0.1015 -0.9742  0.5346
  300SOL     hw 1199   5.990   4.153   1.825 -1.4085  0.2711 -1.6042
  300SOL     vw 1200   6.046   4.174   1.761 -0.2387 -0.0589 -0.7376
  301SOL     ow 1201   3.105   4.702   3.255 -0.6315 -0.1117  0.4208
  301SOL     hw 1202   3.033   4.641   3.272 -0.8829  0.1337  0.2491
  301SOL     hw 1203   3.162   4.656   3.194 -0.6652 -0.2929  0.5264
  301SOL     vw 1204   3.103   4.688   3.249 -0.6690 -0.1037  0.4121
  302SOL     ow 1205   0.873   3.522   6.412 -0.6704 -0.2294  0.1942
  302SOL     hw 1206   0.813   3.511   6.338 -1.6498  2.8182  0.3879
  302SOL     hw 1207   0.952   3.474   6.386 -1.7585 -1.0976 -1.8083
  302SOL     vw 1208   0.875   3.514   6.399 -0.9432  0.0581 -0.0446
  303SOL     ow 1209   3.193   5.051   4.248 -0.4759  0.6967 -0.1036
  303SOL     hw 1210   3.220   5.058   4.340 -1.2319  0.1777  0.1633
  303SOL     hw 1211   3.117   5.108   4.240 -1.0596 -0.0630 -0.1361
  303SOL     vw 1212   3.187   5.059   4.259 -0.6527  0.5279 -0.0727
  304SOL     ow 1213   3.927   6.525   0.081 -0.4000 -0.0009 -0.4537
  304SOL     hw 1214   3.963   6.527  -0.008 -1.3994  0.4724 -0.8646
  304SOL     hw 1215   3.997   6.487   0.134 -0.2942 -1.6576 -1.6840
  304SOL     vw 1216   3.941   6.520   0.076 -0.5178 -0.1569 -0.6702
  305SOL     ow 1217   2.487   6.401   6.008  0.2126  0.4037 -0.0042
  305SOL     hw 1218   2.429   6.476   6.000 -0.6251 -0.2717 -0.3452
  305SOL     hw 1219   2.494   6.365   5.920 -0.5191 -0.7398  0.3843
  305SOL     vw 1220   2.481   6.406   5.996  0.0055  0.1636  0.0021
  306SOL     ow 1221   1.615   1.268   1.265 -0.0678 -0.1736 -0.5512
  306SOL     hw 1222   1.628   1.359   1.293 -0.4374 -0.6544  1.3070
  306SOL     hw 1223   1.670   1.260   1.187 -0.0399  1.6434 -0.7763
  306SOL     vw 1224   1.624   1.279   1.259 -0.1129  0.0027 -0.3358
  307SOL     ow 1225   5.124   3.804   3.684  0.2412  0.1855  0.0287
  307SOL     hw 1226   5.176   3.733   3.647  0.7212  0.7260 -0.3405
  307SOL     hw 1227   5.185   3.854   3.738 -0.7180 -1.3453  2.7021
  307SOL     vw 1228   5.139   3.801   3.686  0.1779  0.0550  0.3328
  308SOL     ow 1229   3.527   4.686   1.409 -0.3701  0.4026  0.0338
  308SOL     hw 1230   3.435   4.661   1.406 -0.1636 -0.3063 -1.1635
  308SOL     hw 1231   3.529   4.766   1.461 -2.0464  2.0835 -2.3077
  308SOL     vw 1232   3.516   4.693   1.415 -0.5642  0.5307 -0.4331
  309SOL     ow 1233   3.369   1.342   0.312 -0.0874  0.2190  0.4949
  309SOL     hw 1234   3.404   1.426   0.342  0.0496  0.7121 -0.9871
  309SOL     hw 1235   3.278   1.360   0.291  0.3552  0.4398 -1.3953
  309SOL     vw 1236   3.362   1.355   0.313 -0.0110  0.3132  0.0500
  310SOL     ow 1237   3.080   0.119   5.780 -0.1949 -0.5898 -0.8028
  310SOL     hw 1238   3.024   0.148   5.852 -1.6701 -3.8924 -0.3886
  310SOL     hw 1239   3.051   0.170   5.704  0.8430  2.3826  0.6733
  310SOL     vw 1240   3.069   0.129   5.779 -0.2525 -0.6334 -0.5534
  311SOL     ow 1241   3.105   5.535   1.681  0.5721  0.0751 -0.4650
  311SOL     hw 1242   3.132   5.504   1.767 -2.5392 -2.8155 -0.3087
  311SOL     hw 1243   3.098   5.456   1.628  0.4918  1.5554 -2.8129
  311SOL     vw 1244   3.107   5.521   1.686  0.1509 -0.1111 -0.7542
  312SOL     ow 1245   6.406   5.851   0.950 -0.5049 -0.1818  0.2181
  312SOL     hw 1246   6.429   5.833   1.041 -0.1112  1.4257  0.4704
  312SOL     hw 1247   6.430   5.943   0.937 -1.6907 -0.0356 -1.1538
  312SOL     vw 1248   6.412   5.861   0.960 -0.6094  0.0496  0.0704
  313SOL     ow 1249   4.483   4.991   1.945  0.0978 -0.0593 -0.2947
  313SOL     hw 1250   4.469   5.022   1.856  2.7590  4.7811  0.6125
  313SOL     hw 1251   4.404   5.017   1.992  0.7764  2.4245 -0.3576
  313SOL     vw 1252   4.471   4.999   1.939  0.5383  0.9069 -0.1832
  314SOL     ow 1253   0.762   0.650   3.311 -0.1269  0.2446  0.2977
  314SOL     hw 1254   0.824   0.578   3.320  1.3518  1.3659 -0.5021
  314SOL     hw 1255   0.688   0.626   3.367  0.9166 -1.2473  1.0818
  314SOL     vw 1256   0.760   0.638   3.320  0.2059  0.1957  0.2955
  315SOL     ow 1257   0.358   5.798   1.304  0.6797  0.5164 -0.3213
  315SOL     hw 1258   0.353   5.849   1.223  2.4338  1.2687 -0.0058
  315SOL     hw 1259   0.443   5.753   1.299 -0.3650 -1.5965 -0.1111
  315SOL     vw 1260   0.369   5.799   1.293  0.7733  0.3369 -0.2519
  316SOL     ow 1261   5.362   6.316   6.971  0.1239  0.5025  0.8506
  316SOL     hw 1262   5.324   6.238   7.012 -1.0152  0.1482 -0.7717
  316SOL     hw 1263   5.290   6.352   6.920  1.3688  1.1372 -0.5032
  316SOL     vw 1264   5.347   6.310   6.970  0.1380  0.5395  0.4582
  317SOL     ow 1265   3.701   2.657   6.693  0.4703  0.4280  0.1629
  317SOL     hw 1266   3.628   2.606   6.659  0.6752  1.6197 -2.2627
  317SOL     hw 1267   3.770   2.646   6.628  2.3942 -0.3671  2.2020
  317SOL     vw 1268   3.701   2.648   6.680  0.7511  0.4803  0.1123
  318SOL     ow 1269   5.145   2.525   1.330 -0.2114  0.4844 -0.0924
  318SOL     hw 1270   5.070   2.500   1.275 -0.9031  0.1979  0.9482
  318SOL     hw 1271   5.206   2.566   1.270 -0.6307 -0.4679 -1.2180
  318SOL     vw 1272   5.143   2.527   1.315 -0.3581  0.3210 -0.1036
  319SOL     ow 1273   1.237   4.121   0.745 -0.3981  0.0082  0.4747
  319SOL     hw 1274   1.307   4.137   0.682 -0.6984  0.3403  0.2248
  319SOL     hw 1275   1.277   4.064   0.811  0.4606  1.1364  0.9591
  319SOL     vw 1276   1.252   4.116   0.745 -0.3245  0.2007  0.5057
  320SOL     ow 1277   4.410   5.229   5.205  0.3010 -0.3701 -0.5338
  320SOL     hw 1278   4.474   5.235   5.276 -0.4792 -0.2292  0.1788
  320SOL     hw 1279   4.362   5.148   5.223  0.6060 -0.7329 -1.3447
  320SOL     vw 1280   4.412   5.219   5.217  0.2384 -0.3996 -0.5465
  321SOL     ow 1281   1.709   6.479   6.309  0.0328  0.2617 -1.1333
  321SOL     hw 1282   1.731   6.551   6.250  0.7291  1.3206  0.3542
  321SOL     hw 1283   1.654   6.421   6.256 -0.2661  1.6979 -2.4798
  321SOL     vw 1284   1.705   6.481   6.294  0.0853  0.5910 -1.1146
  322SOL     ow 1285   2.802   6.869   3.890 -0.3349  0.2350  0.8454
  322SOL     hw 1286   2.847   6.944   3.930  1.6518 -1.3531  1.8042
  322SOL     hw 1287   2.832   6.794   3.941 -2.6153 -1.1851  0.2036
  322SOL     vw 1288   2.812   6.869   3.902 -0.3736 -0.1621  0.8872
  323SOL     ow 1289   7.088   6.252   1.928  0.4472 -0.8967  0.7478
  323SOL     hw 1290   7.142   6.277   2.003  1.4190  1.1384 -0.5563
  323SOL     hw 1291   7.008   6.302   1.937 -0.4821 -2.4602  1.6440
  323SOL     vw 1292   7.085   6.262   1.939  0.4530 -0.8345  0.6940
  324SOL     ow 1293   0.787   4.553   3.038  0.6639 -0.2564  0.0387
  324SOL     hw 1294   0.747   4.472   3.007  1.4318  0.5587 -3.5119
  324SOL     hw 1295   0.714   4.616   3.043  0.6334 -0.1968 -1.0021
  324SOL     vw 1296   0.772   4.551   3.034  0.7611 -0.1411 -0.5671
  325SOL     ow 1297   1.232   4.587   6.475  0.0273 -0.5022  0.5779
  325SOL     hw 1298   1.159   4.641   6.445 -0.0379  0.3773  2.1580
  325SOL     hw 1299   1.230   4.596   6.571  2.1257 -0.5184  0.6853
  325SOL     vw 1300   1.222   4.596   6.484  0.2955 -0.3881  0.8004
  326SOL     ow 1301   5.647   6.906   4.943  0.7449  0.2086  0.5199
  326SOL     hw 1302   5.740   6.930   4.944  1.2219 -1.4223 -0.3933
  326SOL     hw 1303   5.606   6.963   5.008  2.2079  1.6252  0.2625
  326SOL     vw 1304   5.654   6.917   4.952  1.0009  0.1802  0.3655
  327SOL     ow 1305   6.872   4.266   3.941  0.3272 -0.0220 -0.9106
  327SOL     hw 1306   6.901   4.344   3.987  3.0808 -2.2863  1.6302
  327SOL     hw 1307   6.952   4.233   3.899  0.1829 -3.1516  0.9477
  327SOL     vw 1308   6.886   4.272   3.941  0.6714 -0.7336 -0.3301
  328SOL     ow 1309   3.119   3.952   2.211 -0.0110  0.2554 -0.9616
  328SOL     hw 1310   3.094   3.864   2.183 -0.0695 -0.3709  0.9681
  328SOL     hw 1311   3.213   3.957   2.195  0.3418 -0.8457  0.5842
  328SOL     vw 1312   3.128   3.941   2.205  0.0277  0.0274 -0.5031
  329SOL     ow 1313   6.357   1.173   4.176 -0.3689 -0.3586 -0.3973
  329SOL     hw 1314   6.308   1.157   4.095  0.4843 -0.1018 -0.9918
  329SOL     hw 1315   6.433   1.115   4.169  0.5688  0.8244 -0.5861
  329SOL     vw 1316   6.361   1.164   4.164 -0.1326 -0.1686 -0.5004
  330SOL     ow 1317   3.923   4.584   5.929  0.0168  0.5031  0.1025
  330SOL     hw 1318   3.903   4.498   5.967 -1.7389 -0.2558 -2.3257
  330SOL     hw 1319   3.881   4.646   5.989  1.0377 -0.2930  1.7263
  330SOL     vw 1320   3.915   4.580   5.942 -0.0802  0.2978 -0.0033
  331SOL     ow 1321   1.581   6.366   6.588  0.9304  0.2702  0.1019
  331SOL     hw 1322   1.654   6.325   6.635  0.5457  0.4205  0.8554
  331SOL     hw 1323   1.563   6.308   6.515  0.0316 -1.2598  1.4621
  331SOL     vw 1324   1.588   6.353   6.585  0.7611  0.0882  0.3805
  332SOL     ow 1325   6.320   1.206   1.771 -0.7128 -0.1846  0.0823
  332SOL     hw 1326   6.293   1.256   1.848 -0.2236  0.3469 -0.0824
  332SOL     hw 1327   6.400   1.250   1.741 -0.9886 -0.2753 -0.8212
  332SOL     vw 1328   6.327   1.219   1.777 -0.6847 -0.1264 -0.0586
  333SOL     ow 1329   5.433   6.905   2.922  0.2647 -0.1267 -0.3680
  333SOL     hw 1330   5.392   6.992   2.921  1.0528  0.3857  2.5676
  333SOL     hw 1331   5.360   6.844   2.913 -0.4920  0.8342 -0.8693
  333SOL     vw 1332   5.418   6.909   2.921  0.2687  0.0675 -0.0468
  334SOL     ow 1333   4.865   3.911   3.606  0.7087 -0.4105  0.0084
  334SOL     hw 1334   4.888   4.004   3.603  0.6162 -0.3421  1.1476
  334SOL     hw 1335   4.888   3.879   3.519  1.3133  0.5415 -0.2080
  334SOL     vw 1336   4.871   3.919   3.594  0.7765 -0.2759  0.1302
  335SOL     ow 1337   6.479   4.358   1.080  0.0876 -0.1756 -0.5986
  335SOL     hw 1338   6.494   4.268   1.051  1.7725  0.1216 -0.7456
  335SOL     hw 1339   6.545   4.373   1.148 -0.4754  0.8097 -0.2389
  335SOL     vw 1340   6.489   4.348   1.085  0.2358 -0.0064 -0.5706
  336SOL     ow 1341   5.379   1.853   2.995  0.1522 -0.1011 -0.3404
  336SOL     hw 1342   5.330   1.908   2.934  0.5174  0.4345 -0.1551
  336SOL     hw 1343   5.424   1.790   2.938 -0.6865 -0.5573 -0.5154
  336SOL     vw 1344   5.379   1.852   2.979  0.0899 -0.0906 -0.3389
  337SOL     ow 1345   5.276   3.296   5.135 -0.4581 -0.4403 -0.3361
  337SOL     hw 1346   5.207   3.295   5.201 -0.5122 -1.0897 -0.3940
  337SOL     hw 1347   5.232   3.323   5.054 -0.3584  0.5199 -0.0821
  337SOL     vw 1348   5.261   3.300   5.133 -0.4523 -0.3995 -0.3102
  338SOL     ow 1349   4.474   5.586   3.979  0.2799  0.4148 -0.3130
  338SOL     hw 1350   4.458   5.529   4.054  1.3684 -0.0535 -0.4163
  338SOL     hw 1351   4.491   5.672   4.018  1.1189  0.1156  0.0224
  338SOL     vw 1352   4.474   5.590   3.994  0.5341  0.3135 -0.2825
  339SOL     ow 1353   0.169   0.355   2.031  0.2918  0.4205 -0.0628
  339SOL     hw 1354   0.228   0.285   2.058  0.5931 -1.2527 -4.2773
  339SOL     hw 1355   0.224   0.433   2.027  1.3802 -0.3436 -0.5135
  339SOL     vw 1356   0.184   0.356   2.034  0.4752  0.0989 -0.6784
  340SOL     ow 1357   5.682   6.483   2.321 -0.3244 -0.7710 -0.0418
  340SOL     hw 1358   5.768   6.522   2.304 -0.7549 -0.9484 -3.2102
  340SOL     hw 1359   5.703   6.399   2.361  1.0735 -1.0487 -1.2312
  340SOL     vw 1360   5.696   6.477   2.324 -0.1967 -0.8309 -0.6167
  341SOL     ow 1361   2.780   1.318   3.719 -0.6280  0.1927 -0.0462
  341SOL     hw 1362   2.868   1.338   3.753 -0.2945 -1.5415  0.1918
  341SOL     hw 1363   2.721   1.368   3.776  0.0117 -1.4590  2.2139
  341SOL     vw 1364   2.784   1.327   3.731 -0.4996 -0.2541  0.2834
  342SOL     ow 1365   4.522   6.600   5.826  0.0944 -0.0917 -0.6045
  342SOL     hw 1366   4.521   6.529   5.762 -1.7570 -2.2621  1.6220
  342SOL     hw 1367   4.615   6.616   5.844  0.5534 -1.6820 -1.4428
  342SOL     vw 1368   4.534   6.593   5.820 -0.0894 -0.5879 -0.4213
  343SOL     ow 1369   3.740   0.837   4.778  0.7605 -0.3897 -0.2398
  343SOL     hw 1370   3.806   0.871   4.718  1.7594 -0.6791  0.6505
  343SOL     hw 1371   3.762   0.878   4.862 -0.7447  0.1891 -0.1015
  343SOL     vw 1372   3.752   0.847   4.781  0.6939 -0.3515 -0.1040
  344SOL     ow 1373   4.246   1.386   5.957 -0.0120  0.1438 -0.3051
  344SOL     hw 1374   4.311   1.435   6.006  0.2191 -0.1787 -0.2903
  344SOL     hw 1375   4.269   1.401   5.865  0.3318 -0.3026 -0.2950
  344SOL     vw 1376   4.257   1.395   5.951  0.0641  0.0424 -0.3018
  345SOL     ow 1377   1.103   4.359   4.008  0.4417 -0.2891 -0.5146
  345SOL     hw 1378   1.134   4.343   3.919 -1.5487  1.0982 -1.5414
  345SOL     hw 1379   1.143   4.290   4.060  0.7609 -1.8372 -2.6756
  345SOL     vw 1380   1.113   4.348   4.003  0.2212 -0.3099 -0.9353
  346SOL     ow 1381   1.606   6.427   4.402 -0.2602  0.0880  0.6311
  346SOL     hw 1382   1.566   6.465   4.323  2.7056  0.7318 -0.6924
  346SOL     hw 1383   1.587   6.334   4.395  0.3491  0.0470 -1.1802
  346SOL     vw 1384   1.598   6.420   4.390  0.2115  0.1674  0.2174
  347SOL     ow 1385   0.588   4.724   4.856  0.8667  0.5655  0.1812
  347SOL     hw 1386   0.651   4.793   4.834  0.6230  1.5486  2.3537
  347SOL     hw 1387   0.522   4.729   4.787  1.3817  1.8431 -0.2446
  347SOL     vw 1388   0.588   4.734   4.844  0.9025  0.8640  0.4117
  348SOL     ow 1389   2.149   3.938   3.644  0.0952  0.2963 -0.1443
  348SOL     hw 1390   2.080   3.987   3.598  0.5592  0.3970 -0.7371
  348SOL     hw 1391   2.163   3.861   3.590 -1.6959 -1.3324  1.5483
  348SOL     vw 1392   2.142   3.935   3.631 -0.0799  0.0945  0.0007
  349SOL     ow 1393   5.711   5.130   1.269  0.0157  0.5203 -0.0595
  349SOL     hw 1394   5.642   5.197   1.274  1.8395  2.4532  0.6208
  349SOL     hw 1395   5.680   5.060   1.326 -1.7121  1.0033 -0.3427
  349SOL     vw 1396   5.698   5.130   1.277  0.0284  0.8392 -0.0072
  350SOL     ow 1397   6.357   4.110   3.348 -0.3248 -0.1658 -0.0729
  350SOL     hw 1398   6.267   4.079   3.336 -0.2530 -0.4984  0.2496
  350SOL     hw 1399   6.392   4.116   3.259  0.9018 -4.6484 -0.1249
  350SOL     vw 1400   6.350   4.107   3.334 -0.1535 -0.8008 -0.0372
  351SOL     ow 1401   2.086   1.174   5.456  0.2441 -1.0462  0.2124
  351SOL     hw 1402   2.143   1.250   5.452  1.5423 -2.0169 -0.4781
  351SOL     hw 1403   2.014   1.195   5.395  0.2670 -0.1411  0.4892
  351SOL     vw 1404   2.084   1.187   5.447  0.4183 -1.0549  0.1578
  352SOL     ow 1405   1.358   5.779   0.740  0.1805 -0.4025 -0.3758
  352SOL     hw 1406   1.264   5.781   0.721  0.0329 -1.5480  0.1652
  352SOL     hw 1407   1.380   5.869   0.763 -0.8033 -0.1507 -0.3848
  352SOL     vw 1408   1.348   5.791   0.740  0.0312 -0.5205 -0.3056
  353SOL     ow 1409   2.321   4.230   6.920 -0.0571  0.5182  0.4093
  353SOL     hw 1410   2.372   4.153   6.897  0.5209  0.7340  0.9314
  353SOL     hw 1411   2.232   4.197   6.936 -0.3133  0.2655 -1.3735
  353SOL     vw 1412   2.316   4.216   6.919 -0.0147  0.5131  0.2429
  354SOL     ow 1413   3.928   6.326   3.939 -0.2058 -0.0649 -0.6239
  354SOL     hw 1414   3.884   6.287   4.015  0.8916  0.4526  0.3046
  354SOL     hw 1415   3.897   6.416   3.938 -0.9313 -0.3066 -1.3710
  354SOL     vw 1416   3.918   6.332   3.949 -0.1566 -0.0288 -0.6001
  355SOL     ow 1417   6.734   4.001   6.995  0.2921 -0.5756 -0.3598
  355SOL     hw 1418   6.790   4.078   6.986  1.5509 -0.8734  3.2344
  355SOL     hw 1419   6.771   3.937   6.934  2.5392  0.0076  0.2990
  355SOL     vw 1420   6.746   4.003   6.986  0.7546 -0.5381  0.2015
  356SOL     ow 1421   0.645   5.635   5.218  0.1672  0.0074 -0.2373
  356SOL     hw 1422   0.594   5.640   5.137  0.6420  0.9894 -0.4984
  356SOL     hw 1423   0.606   5.702   5.275  0.5915  0.1478 -0.1064
  356SOL     vw 1424   0.633   5.645   5.215  0.2858  0.1554 -0.2546
  357SOL     ow 1425   0.864   6.329   3.120  0.4054  0.8547  1.1239
  357SOL     hw 1426   0.923   6.402   3.142  0.8946  0.8981 -0.2723
  357SOL     hw 1427   0.806   6.365   3.053  0.6085 -0.0214  0.4682
  357SOL     vw 1428   0.864   6.344   3.114  0.4967  0.7448  0.8533
  358SOL     ow 1429   2.925   0.285   7.141  0.1419  0.1839 -0.0756
  358SOL     hw 1430   2.917   0.352   7.209  2.6036  0.2673  0.2197
  358SOL     hw 1431   2.890   0.327   7.062  4.4768  3.2637 -0.7100
  358SOL     vw 1432   2.920   0.300   7.139  1.0387  0.6013 -0.1204
  359SOL     ow 1433   6.983   2.279   5.132  0.4344 -0.9482 -0.4670
  359SOL     hw 1434   6.983   2.208   5.068 -0.9224  0.6320 -2.3759
  359SOL     hw 1435   7.066   2.325   5.117  0.5664 -1.1646 -0.4005
  359SOL     vw 1436   6.994   2.276   5.121  0.2730 -0.7682 -0.7102
  360SOL     ow 1437   4.013   7.192   1.895  0.3850  0.2222 -0.4576
  360SOL     hw 1438   3.934   7.139   1.893  0.6955 -0.4109  1.6848
  360SOL     hw 1439   3.985   7.274   1.936  0.8228 -0.0436  0.4005
  360SOL     vw 1440   3.999   7.196   1.900  0.4839  0.1032 -0.0618
  361SOL     ow 1441   6.684   5.557   4.940 -0.1008 -0.3599 -0.0900
  361SOL     hw 1442   6.677   5.474   4.987 -1.3030 -0.7314 -0.8899
  361SOL     hw 1443   6.706   5.532   4.850  0.9733  0.2818 -0.0271
  361SOL     vw 1444   6.686   5.542   4.934 -0.1178 -0.3240 -0.1874
  362SOL     ow 1445   6.058   2.016   1.057  0.1081 -0.3430  0.0071
  362SOL     hw 1446   6.081   1.986   0.968 -0.9270 -0.7905 -0.1188
  362SOL     hw 1447   5.966   2.041   1.051  0.4841  1.2700  0.5458
  362SOL     vw 1448   6.049   2.015   1.044  0.0212 -0.1892  0.0615
  363SOL     ow 1449   4.092   5.892   6.094 -0.0226 -0.4835 -0.4435
  363SOL     hw 1450   4.070   5.984   6.110  0.8709 -0.1718 -0.8958
  363SOL     hw 1451   4.045   5.869   6.014 -2.4533 -1.2773  1.1183
  363SOL     vw 1452   4.083   5.901   6.086 -0.2251 -0.5472 -0.2973
  364SOL     ow 1453   4.766   2.923   6.441  0.2429 -0.4928  0.0879
  364SOL     hw 1454   4.769   3.004   6.492 -0.9360 -0.0784 -0.4588
  364SOL     hw 1455   4.727   2.859   6.501 -1.0357 -0.0345 -0.2192
  364SOL     vw 1456   4.761   2.925   6.456 -0.0815 -0.3778 -0.0250
  365SOL     ow 1457   4.109   0.703   5.401 -0.2464  0.4297 -0.0400
  365SOL     hw 1458   4.026   0.711   5.355 -0.5295 -0.2449  0.3345
  365SOL     hw 1459   4.093   0.637   5.469  0.4842  0.5706  0.2850
  365SOL     vw 1460   4.096   0.695   5.404 -0.1872  0.3592  0.0522
  366SOL     ow 1461   6.512   2.300   6.488  0.4925  0.0612 -0.2253
  366SOL     hw 1462   6.508   2.336   6.577 -0.2967  2.4536 -1.1536
  366SOL     hw 1463   6.582   2.235   6.492 -0.5510 -1.0641  2.5078
  366SOL     vw 1464   6.521   2.296   6.500  0.2506  0.2284  0.0129
  367SOL     ow 1465   2.898   6.831   1.582 -0.1472 -0.2759  0.4423
  367SOL     hw 1466   2.916   6.808   1.673 -0.7652  2.3123  1.3002
  367SOL     hw 1467   2.984   6.851   1.545 -0.0522  0.4828  1.0423
  367SOL     vw 1468   2.912   6.831   1.589 -0.2162  0.1657  0.6347
  368SOL     ow 1469   1.111   3.261   0.246  0.4283  0.5770 -0.3177
  368SOL     hw 1470   1.125   3.355   0.244 -0.7010  0.8406  1.8567
  368SOL     hw 1471   1.194   3.225   0.279  0.8861  0.7590 -1.2234
  368SOL     vw 1472   1.124   3.268   0.250  0.3397  0.6359 -0.1503
  369SOL     ow 1473   0.817   1.519   2.279 -0.2068 -0.3749  0.1729
  369SOL     hw 1474   0.906   1.521   2.242  0.2314  1.4753  1.1787
  369SOL     hw 1475   0.805   1.428   2.308  0.5663 -1.1433 -1.7582
  369SOL     vw 1476   0.827   1.507   2.278 -0.0470 -0.2322  0.0508
  370SOL     ow 1477   1.009   4.103   0.262  0.1775  0.1572 -0.7325
  370SOL     hw 1478   0.943   4.034   0.264  0.2020  0.1210  1.2157
  370SOL     hw 1479   1.015   4.129   0.170 -1.6277 -0.7152 -1.1336
  370SOL     vw 1480   1.001   4.097   0.250 -0.0574  0.0372 -0.5284
  371SOL     ow 1481   7.131   2.551   4.582  0.4869 -0.4169  0.3592
  371SOL     hw 1482   7.169   2.615   4.522 -0.5993  2.8899  2.9006
  371SOL     hw 1483   7.037   2.566   4.578 -0.0551 -3.3209 -0.3472
  371SOL     vw 1484   7.124   2.561   4.574  0.2720 -0.3636  0.6013
  372SOL     ow 1485   1.458   4.570   6.295  0.8694 -0.0895  0.4292
  372SOL     hw 1486   1.381   4.554   6.349  2.4652  0.4299  3.0329
  372SOL     hw 1487   1.478   4.663   6.307  1.5610 -0.0679 -0.6959
  372SOL     vw 1488   1.451   4.580   6.304  1.1712 -0.0181  0.6242
  373SOL     ow 1489   4.442   6.041   4.615 -0.6463  0.3863 -0.1072
  373SOL     hw 1490   4.481   5.962   4.576 -0.8907  1.2917 -2.3697
  373SOL     hw 1491   4.350   6.037   4.591 -1.7421 -0.8530  3.7196
  373SOL     vw 1492   4.435   6.030   4.606 -0.8230  0.3421  0.0992
  374SOL     ow 1493   3.483   0.474   4.222  0.6477 -0.7340  0.6343
  374SOL     hw 1494   3.445   0.549   4.175  0.7364  0.1539  1.9260
  374SOL     hw 1495   3.446   0.398   4.178 -2.6643  0.0478  1.7237
  374SOL     vw 1496   3.473   0.474   4.210  0.2224 -0.5137  0.9487
  375SOL     ow 1497   5.804   3.123   6.182  0.2530  0.2156 -0.2634
  375SOL     hw 1498   5.830   3.063   6.112  1.3820  1.4543 -0.9422
  375SOL     hw 1499   5.858   3.201   6.169 -0.3204  0.9271  1.3178
  375SOL     vw 1500   5.815   3.126   6.171  0.3262  0.4728 -0.1445
  376SOL     ow 1501   6.895   1.609   0.270 -0.5908 -0.0513 -0.2537
  376SOL     hw 1502   6.904   1.524   0.227  0.8630 -0.4665  0.8073
  376SOL     hw 1503   6.965   1.663   0.232  0.0995 -0.1290  0.8563
  376SOL     vw 1504   6.906   1.605   0.259 -0.3080 -0.1163  0.0328
  377SOL     ow 1505   5.662   4.916   1.066 -0.2038  0.3687  0.2022
  377SOL     hw 1506   5.627   4.849   1.125 -0.3331 -0.6285 -0.9642
  377SOL     hw 1507   5.585   4.946   1.016  0.2977 -0.6743 -1.2526
  377SOL     vw 1508   5.647   4.911   1.067 -0.1547  0.0997 -0.1436
  378SOL     ow 1509   6.939   5.500   3.648  0.1640  0.1782 -0.1267
  378SOL     hw 1510   6.974   5.550   3.575 -0.2158  0.1840 -0.3051
  378SOL     hw 1511   6.947   5.559   3.723 -2.1900  1.3540 -0.6875
  378SOL     vw 1512   6.945   5.514   3.648 -0.1969  0.3340 -0.2242
  379SOL     ow 1513   3.362   6.098   6.370  0.3102 -0.6127  0.7697
  379SOL     hw 1514   3.272   6.127   6.388  0.0847 -0.1802 -0.8826
  379SOL     hw 1515   3.416   6.175   6.386  0.0181  0.0143 -1.0371
  379SOL     vw 1516   3.357   6.112   6.374  0.2420 -0.4728  0.3135
  380SOL     ow 1517   1.476   3.841   2.039 -0.2519  0.5307 -0.4550
  380SOL     hw 1518   1.540   3.798   1.983 -1.3894  1.0158 -2.2190
  380SOL     hw 1519   1.394   3.837   1.989 -1.7988 -0.6648  2.0090
  380SOL     vw 1520   1.473   3.835   2.025 -0.6061  0.4369 -0.3628
  381SOL     ow 1521   6.022   5.993   0.205 -0.2791 -0.2251 -0.2755
  381SOL     hw 1522   6.035   6.048   0.128  2.6308  0.4867  0.5670
  381SOL     hw 1523   5.990   6.052   0.273  0.5537 -0.0596 -0.0156
  381SOL     vw 1524   6.020   6.008   0.204  0.2146 -0.1094 -0.1300
  382SOL     ow 1525   4.992   5.301   6.366  0.3447 -0.0549 -0.7134
  382SOL     hw 1526   5.084   5.290   6.390  1.0475 -1.7760 -3.6778
  382SOL     hw 1527   4.988   5.386   6.322  0.6162 -0.1909 -0.9976
  382SOL     vw 1528   5.003   5.311   6.364  0.4730 -0.2999 -1.1418
  383SOL     ow 1529   0.221   5.946   4.127 -0.3405 -0.5511  0.3188
  383SOL     hw 1530   0.210   6.011   4.057  2.3255 -1.0979 -0.7407
  383SOL     hw 1531   0.167   5.979   4.199 -0.9597  1.5385 -0.9974
  383SOL     vw 1532   0.212   5.959   4.127 -0.0704 -0.3474  0.0055
  384SOL     ow 1533   2.044   2.378   0.548 -0.0545  0.4051 -0.3824
  384SOL     hw 1534   2.035   2.292   0.588 -0.9791  0.6325 -0.0709
  384SOL     hw 1535   2.021   2.365   0.456  2.4387 -0.1944 -1.0107
  384SOL     vw 1536   2.040   2.365   0.541  0.1523  0.3561 -0.4243
  385SOL     ow 1537   4.232   6.646   4.515 -0.2670  0.0573 -0.0166
  385SOL     hw 1538   4.221   6.731   4.472 -0.4392 -0.6907 -1.5086
  385SOL     hw 1539   4.250   6.585   4.443  0.6384 -1.0399  1.1030
  385SOL     vw 1540   4.232   6.649   4.500 -0.1702 -0.1862 -0.0656
  386SOL     ow 1541   4.015   7.158   6.227 -0.3294  0.2623  0.2561
  386SOL     hw 1542   3.964   7.077   6.231  0.4852 -0.3655 -1.1943
  386SOL     hw 1543   4.104   7.132   6.251  0.7988 -0.1559 -3.6678
  386SOL     vw 1544   4.020   7.144   6.231 -0.0732  0.1242 -0.4530
  387SOL     ow 1545   7.097   1.819   6.451  0.9794  0.0213 -0.1187
  387SOL     hw 1546   7.080   1.821   6.357 -0.8003  1.1395  0.1794
  387SOL     hw 1547   7.019   1.778   6.489  1.1255  0.6808  0.9456
  387SOL     vw 1548   7.085   1.814   6.443  0.7639  0.2559  0.0610
  388SOL     ow 1549   6.454   1.657   4.108  0.4990  0.2344 -0.2401
  388SOL     hw 1550   6.416   1.744   4.119  0.7657  0.2628  0.5272
  388SOL     hw 1551   6.518   1.650   4.179  0.3211 -0.6723 -0.1543
  388SOL     vw 1552   6.458   1.668   4.119  0.5105  0.1186 -0.1278
  389SOL     ow 1553   4.260   2.739   7.230 -0.2828 -0.2564 -0.0175
  389SOL     hw 1554   4.191   2.690   7.184 -1.4257 -0.8834  2.2369
  389SOL     hw 1555   4.232   2.830   7.225  0.2176 -0.1599 -1.5129
  389SOL     vw 1556   4.247   2.745   7.223 -0.3672 -0.3264  0.0827
  390SOL     ow 1557   0.193   0.312   4.099 -0.7157  0.3012 -0.1175
  390SOL     hw 1558   0.189   0.387   4.159 -0.5962  1.9934 -2.1328
  390SOL     hw 1559   0.264   0.257   4.133  0.5681  2.1406  0.2829
  390SOL     vw 1560   0.201   0.314   4.112 -0.5305  0.7671 -0.3302
  391SOL     ow 1561   1.213   2.483   3.751 -0.4536 -0.2352 -1.4672
  391SOL     hw 1562   1.262   2.562   3.777  0.4103 -0.0472 -3.4852
  391SOL     hw 1563   1.256   2.412   3.799 -0.9492  0.4314  0.0268
  391SOL     vw 1564   1.225   2.484   3.761 -0.4050 -0.1225 -1.5364
  392SOL     ow 1565   3.986   7.101   3.263  0.0526 -0.2984 -0.3142
  392SOL     hw 1566   4.018   7.021   3.223  1.2365 -0.1021  0.1849
  392SOL     hw 1567   3.927   7.072   3.332  0.0577 -0.7257 -0.4883
  392SOL     vw 1568   3.983   7.087   3.267  0.2096 -0.3290 -0.2711
  393SOL     ow 1569   1.673   1.894   5.647  0.2561  0.7805 -0.3565
  393SOL     hw 1570   1.745   1.938   5.692  1.2380 -0.5870 -0.5445
  393SOL     hw 1571   1.715   1.830   5.590 -1.0979  0.2146 -0.7695
  393SOL     vw 1572   1.688   1.891   5.645  0.2070  0.5254 -0.4358
  394SOL     ow 1573   6.105   3.542   0.403 -0.2812 -0.1237  0.0845
  394SOL     hw 1574   6.015   3.522   0.377 -1.0086  0.5651  1.9097
  394SOL     hw 1575   6.126   3.622   0.355 -1.2822  0.6714  0.9383
  394SOL     vw 1576   6.096   3.550   0.393 -0.5093  0.0720  0.4380
  395SOL     ow 1577   4.172   5.432   5.044 -0.2451 -0.6976  0.3235
  395SOL     hw 1578   4.084   5.404   5.018 -0.6016  0.5086  0.1445
  395SOL     hw 1579   4.189   5.509   4.990 -1.1958  2.2433  3.7965
  395SOL     vw 1580   4.162   5.439   5.034 -0.4175 -0.1502  0.7579
  396SOL     ow 1581   5.729   1.213   6.483  0.0563 -0.7492 -0.8810
  396SOL     hw 1582   5.730   1.166   6.567 -1.5963 -1.7818 -1.3937
  396SOL     hw 1583   5.816   1.253   6.477  0.4502 -1.2357  0.9927
  396SOL     vw 1584   5.741   1.212   6.493 -0.1094 -0.9496 -0.7014
  397SOL     ow 1585   0.743   7.180   2.965 -0.3591  0.0685  0.2372
  397SOL     hw 1586   0.835   7.166   2.991 -0.3785  0.0826  0.3145
  397SOL     hw 1587   0.718   7.262   3.009 -0.1885  0.4494 -0.3612
  397SOL     vw 1588   0.752   7.189   2.974 -0.3392  0.1206  0.1684
  398SOL     ow 1589   1.051   5.774   3.261 -0.3821  0.1992 -0.0824
  398SOL     hw 1590   1.005   5.711   3.316  1.6306 -1.2042  0.0680
  398SOL     hw 1591   1.055   5.732   3.175 -0.3635  0.8172 -0.3922
  398SOL     vw 1592   1.045   5.760   3.257 -0.1141  0.0956 -0.1034
  399SOL     ow 1593   4.125   5.429   6.359 -0.7878 -0.2608 -0.1472
  399SOL     hw 1594   4.033   5.454   6.360 -0.9417 -0.8085  0.1429
  399SOL     hw 1595   4.141   5.392   6.446 -1.1069 -2.9657 -1.1340
  399SOL     vw 1596   4.115   5.427   6.371 -0.8502 -0.6897 -0.2389
  400SOL     ow 1597   1.206   2.882   2.047  0.2837  0.0780 -0.0510
  400SOL     hw 1598   1.207   2.862   2.141  1.0711  0.8944  0.1339
  400SOL     hw 1599   1.114   2.898   2.026  0.1563  0.3739  0.6940
  400SOL     vw 1600   1.194   2.881   2.057  0.3707  0.2249  0.0716
  401SOL     ow 1601   2.578   2.222   3.867  0.2425  0.1729 -0.8168
  401SOL     hw 1602   2.639   2.189   3.801  0.9147 -0.6355  0.1833
  401SOL     hw 1603   2.626   2.291   3.912  0.0646  0.1992 -0.6669
  401SOL     vw 1604   2.592   2.227   3.864  0.3077  0.0697 -0.6651
  402SOL     ow 1605   1.659   0.649   3.440 -0.0305 -0.1896 -0.3106
  402SOL     hw 1606   1.618   0.568   3.409 -2.4264  0.8479 -0.1051
  402SOL     hw 1607   1.610   0.671   3.520  3.5643 -0.8744  2.3167
  402SOL     vw 1608   1.647   0.641   3.446  0.1277 -0.1431  0.0633
  403SOL     ow 1609   2.901   1.913   4.033  0.2112 -0.3686 -0.6989
  403SOL     hw 1610   2.937   2.000   4.044  0.5596 -0.7231  1.2870
  403SOL     hw 1611   2.806   1.926   4.033  0.2505 -0.0301  0.1682
  403SOL     vw 1612   2.893   1.926   4.035  0.2624 -0.3708 -0.3226
  404SOL     ow 1613   2.330   1.628   6.347  0.4056  0.0149 -0.0334
  404SOL     hw 1614   2.323   1.541   6.386 -0.2855  0.2607  0.4099
  404SOL     hw 1615   2.243   1.645   6.311  0.3635  0.7549  0.3916
  404SOL     vw 1616   2.317   1.619   6.347  0.3089  0.1450  0.0813
  405SOL     ow 1617   2.324   2.766   7.006 -0.1180  0.1918 -0.2065
  405SOL     hw 1618   2.280   2.703   6.950  3.5662 -1.5232 -1.4786
  405SOL     hw 1619   2.404   2.722   7.034  0.5780  2.8056  2.4536
  405SOL     vw 1620   2.329   2.752   7.003  0.4599  0.3105 -0.0236
  406SOL     ow 1621   6.138   3.193   3.289  0.0348 -0.0718  0.2266
  406SOL     hw 1622   6.156   3.157   3.202 -0.0515 -2.7184  1.2169
  406SOL     hw 1623   6.042   3.193   3.295 -0.1342  2.8225 -0.6344
  406SOL     vw 1624   6.127   3.188   3.278  0.0014 -0.0391  0.2437
  407SOL     ow 1625   3.024   2.420   0.520 -0.0217  0.0955 -0.5501
  407SOL     hw 1626   3.110   2.434   0.480 -0.4774  1.0234 -1.2434
  407SOL     hw 1627   2.964   2.469   0.464 -0.7725  0.9298  0.9416
  407SOL     vw 1628   3.028   2.428   0.507 -0.1808  0.3282 -0.4448
  408SOL     ow 1629   3.428   6.691   5.571 -0.3791 -0.1472 -0.0081
  408SOL     hw 1630   3.463   6.767   5.523 -0.0924 -1.1073 -1.3714
  408SOL     hw 1631   3.396   6.728   5.653 -2.3799  1.8630 -1.5708
  408SOL     vw 1632   3.428   6.706   5.575 -0.6052 -0.0088 -0.3939
  409SOL     ow 1633   5.524   6.760   0.674  1.0861 -0.3813  0.1084
  409SOL     hw 1634   5.475   6.699   0.730  0.1070 -0.0902 -0.4153
  409SOL     hw 1635   5.597   6.788   0.728  0.5414 -0.6373  0.9980
  409SOL     vw 1636   5.527   6.755   0.688  0.8852 -0.3765  0.1566
  410SOL     ow 1637   3.122   4.522   5.099  0.7451  0.5824 -0.1651
  410SOL     hw 1638   3.101   4.613   5.119  0.5678  0.1730  1.5849
  410SOL     hw 1639   3.121   4.477   5.183  1.2891 -0.9597 -0.9401
  410SOL     vw 1640   3.119   4.528   5.112  0.7936  0.3247 -0.0365
  411SOL     ow 1641   6.447   5.971   3.324 -0.0046  0.3150  0.4913
  411SOL     hw 1642   6.478   5.883   3.301  1.2063  0.6852  0.6131
  411SOL     hw 1643   6.455   5.975   3.419 -0.9697  0.2377  0.5830
  411SOL     vw 1644   6.453   5.960   3.333  0.0277  0.3536  0.5194
  412SOL     ow 1645   7.145   1.190   1.882 -0.6387  0.3678 -0.8123
  412SOL     hw 1646   7.072   1.133   1.858  0.7192  0.0744 -5.0270
  412SOL     hw 1647   7.196   1.198   1.802  1.7184  3.9406  0.8170
  412SOL     vw 1648   7.142   1.183   1.869 -0.1490  0.8005 -1.1534
  413SOL     ow 1649   6.150   1.941   1.311  0.5593 -0.0498  0.6906
  413SOL     hw 1650   6.071   1.994   1.321  0.0409 -1.0706  2.2443
  413SOL     hw 1651   6.222   2.002   1.331 -0.0505  0.0247  2.8790
  413SOL     vw 1652   6.149   1.956   1.315  0.4106 -0.1747  1.1843
  414SOL     ow 1653   3.771   3.289   0.047  0.2723  0.1647  0.0737
  414SOL     hw 1654   3.856   3.288   0.090  1.2213 -1.5092 -1.7023
  414SOL     hw 1655   3.778   3.225  -0.023 -1.3741  2.2388 -2.1984
  414SOL     vw 1656   3.783   3.281   0.043  0.1802  0.2174 -0.4604
  415SOL     ow 1657   1.897   6.872   4.275  0.1087 -0.0675 -0.5053
  415SOL     hw 1658   1.848   6.937   4.324 -0.7197 -0.6019 -0.6101
  415SOL     hw 1659   1.854   6.789   4.294  0.8231 -0.5180 -0.7947
  415SOL     vw 1660   1.885   6.870   4.284  0.0936 -0.1974 -0.5572
  416SOL     ow 1661   2.713   6.822   3.641 -0.1298 -0.2340  0.2596
  416SOL     hw 1662   2.727   6.858   3.729 -3.3582 -2.7209  2.0307
  416SOL     hw 1663   2.657   6.885   3.597 -0.5017 -0.0904  0.9239
  416SOL     vw 1664   2.708   6.835   3.647 -0.6047 -0.5431  0.5809
  417SOL     ow 1665   0.606   5.135   6.485  0.0158  0.0479 -0.0913
  417SOL     hw 1666   0.585   5.042   6.492  0.6612 -0.0020  1.6421
  417SOL     hw 1667   0.601   5.167   6.575 -1.2318  1.9494 -0.7780
  417SOL     vw 1668   0.602   5.127   6.498 -0.0637  0.2923  0.0467
  418SOL     ow 1669   0.538   5.789   0.342 -1.1484 -0.3390 -0.5234
  418SOL     hw 1670   0.491   5.782   0.259 -0.6030 -0.4422 -0.8245
  418SOL     hw 1671   0.596   5.864   0.330 -1.1526 -0.2848 -0.1958
  418SOL     vw 1672   0.539   5.798   0.329 -1.0769 -0.3455 -0.5199
  419SOL     ow 1673   1.347   1.000   0.898 -0.2047 -0.0145  1.3192
  419SOL     hw 1674   1.437   1.031   0.890  0.0854 -0.9025  1.0224
  419SOL     hw 1675   1.334   0.944   0.822 -1.4414  1.1318  0.6625
  419SOL     vw 1676   1.357   0.996   0.887 -0.3296  0.0196  1.1934
  420SOL     ow 1677   2.631   2.943   6.041  0.5912 -0.2260  0.0733
  420SOL     hw 1678   2.555   2.987   6.003  0.1189 -2.6152 -1.9679
  420SOL     hw 1679   2.672   2.896   5.968  3.6357  0.3104  1.2510
  420SOL     vw 1680   2.627   2.943   6.026  0.9305 -0.4705 -0.0405
  421SOL     ow 1681   5.572   4.197   6.649  0.0537  0.3065 -0.6750
  421SOL     hw 1682   5.617   4.197   6.733 -0.5566  1.1472 -0.3316
  421SOL     hw 1683   5.630   4.150   6.590 -0.0756 -1.4386  0.5160
  421SOL     vw 1684   5.585   4.191   6.652 -0.0441  0.1876 -0.4725
  422SOL     ow 1685   2.687   6.689   5.879 -0.0417  0.6264  0.5238
  422SOL     hw 1686   2.616   6.753   5.886  0.1023  0.8233  0.1750
  422SOL     hw 1687   2.755   6.722   5.937  0.6271  1.5769 -0.7609
  422SOL     vw 1688   2.686   6.702   5.888  0.0657  0.7777  0.3083
  423SOL     ow 1689   4.263   0.806   5.772  0.3157 -0.4179 -0.2614
  423SOL     hw 1690   4.282   0.830   5.863 -0.6280 -0.8567  0.0609
  423SOL     hw 1691   4.205   0.730   5.779 -0.1685 -0.1495 -1.2234
  423SOL     vw 1692   4.258   0.799   5.785  0.1273 -0.4404 -0.3457
  424SOL     ow 1693   1.150   4.059   2.962  0.5581  0.1730  0.5995
  424SOL     hw 1694   1.153   4.128   3.028  1.7825  0.9748 -0.2463
  424SOL     hw 1695   1.168   3.978   3.010 -1.1520  0.3535  1.6453
  424SOL     vw 1696   1.152   4.057   2.977  0.4941  0.3026  0.6258
  425SOL     ow 1697   4.068   0.062   5.962 -0.1742  0.0386 -0.5067
  425SOL     hw 1698   4.080   0.013   5.880  2.3035 -0.1206 -0.1317
  425SOL     hw 1699   4.098   0.151   5.941  0.8527 -0.1036  0.3094
  425SOL     vw 1700   4.074   0.068   5.948  0.2885 -0.0012 -0.3498
  426SOL     ow 1701   0.239   2.521   3.944  0.4056  0.1101  0.0656
  426SOL     hw 1702   0.307   2.546   4.006 -1.4601  2.0362  1.5039
  426SOL     hw 1703   0.265   2.434   3.913  3.4047  0.7199  0.5780
  426SOL     vw 1704   0.251   2.513   3.948  0.5552  0.4447  0.3232
  427SOL     ow 1705   4.691   4.718   4.942 -0.2240  0.4516 -0.0300
  427SOL     hw 1706   4.678   4.780   5.014 -0.1773 -0.8381  1.1424
  427SOL     hw 1707   4.606   4.677   4.929 -0.1062  0.2977 -0.3287
  427SOL     vw 1708   4.678   4.721   4.950 -0.2024  0.2611  0.0856
  428SOL     ow 1709   0.360   6.866   1.180  0.1973 -0.3012  0.1994
  428SOL     hw 1710   0.325   6.783   1.213  1.1812 -1.4464 -1.4871
  428SOL     hw 1711   0.336   6.867   1.088 -0.9755  1.9827  0.4656
  428SOL     vw 1712   0.352   6.855   1.173  0.1723 -0.1509  0.0120
  429SOL     ow 1713   4.756   6.266   6.535  0.6485 -0.2661  0.5402
  429SOL     hw 1714   4.835   6.228   6.572  0.5226 -1.9318 -0.7331
  429SOL     hw 1715   4.698   6.279   6.609  1.2383 -1.3132  1.2093
  429SOL     vw 1716   4.759   6.262   6.550  0.7095 -0.6237  0.4606
  430SOL     ow 1717   3.611   6.200   0.309 -0.1637  0.3992 -0.1839
  430SOL     hw 1718   3.695   6.156   0.301 -0.9473 -1.6040  1.5865
  430SOL     hw 1719   3.546   6.130   0.297 -1.6465  1.9704 -2.0519
  430SOL     vw 1720   3.613   6.185   0.306 -0.4628  0.3424 -0.1968
  431SOL     ow 1721   6.952   3.248   4.289  0.6144  0.0008 -0.2075
  431SOL     hw 1722   7.004   3.173   4.260  0.6144  0.1079 -0.4893
  431SOL     hw 1723   6.951   3.242   4.385 -0.1066 -0.8437 -0.2538
  431SOL     vw 1724   6.959   3.237   4.298  0.5193 -0.0964 -0.2506
  432SOL     ow 1725   1.172   1.071   3.607  0.0771 -0.0186 -0.0684
  432SOL     hw 1726   1.258   1.113   3.597 -0.1150  0.2280 -0.7749
  432SOL     hw 1727   1.182   1.014   3.683  0.9494 -0.1975 -0.3037
  432SOL     vw 1728   1.185   1.069   3.615  0.1668 -0.0097 -0.1926
  433SOL     ow 1729   5.407   3.459   3.100  0.2231 -0.5749  0.2047
  433SOL     hw 1730   5.346   3.439   3.029  0.9176  0.9648 -0.8798
  433SOL     hw 1731   5.355   3.511   3.161 -0.1579 -1.2135  0.4340
  433SOL     vw 1732   5.392   3.463   3.098  0.2646 -0.4561  0.0919
  434SOL     ow 1733   0.021   0.863   0.721  0.3069 -0.1963  0.3254
  434SOL     hw 1734   0.019   0.819   0.806 -0.3153  0.4781  0.6634
  434SOL     hw 1735   0.048   0.794   0.660 -3.6473 -2.0563  0.3013
  434SOL     vw 1736   0.024   0.848   0.724 -0.2969 -0.3527  0.3668
  435SOL     ow 1737   2.274   5.609   0.376  0.0222 -0.0701 -0.0820
  435SOL     hw 1738   2.269   5.513   0.379 -0.4732 -0.0466  0.0206
  435SOL     hw 1739   2.241   5.637   0.461  0.7057  0.1813  0.1042
  435SOL     vw 1740   2.269   5.600   0.387  0.0470 -0.0339 -0.0439
  436SOL     ow 1741   0.590   2.461   6.763 -0.5738  0.0189  0.7955
  436SOL     hw 1742   0.617   2.501   6.846 -2.6066 -0.8366  1.9568
  436SOL     hw 1743   0.549   2.379   6.789 -2.0317  0.1288 -0.9673
  436SOL     vw 1744   0.588   2.456   6.778 -1.0343 -0.0795  0.7162
  437SOL     ow 1745   4.168   1.228   3.559 -0.2458  0.4137  0.9959
  437SOL     hw 1746   4.230   1.272   3.618 -0.0184 -0.7909  1.6764
  437SOL     hw 1747   4.126   1.162   3.613  0.8094 -1.5405 -0.4186
  437SOL     vw 1748   4.171   1.225   3.573 -0.0765 -0.0031  0.8990
  438SOL     ow 1749   1.404   2.796   4.085 -0.0074  0.5683 -0.1430
  438SOL     hw 1750   1.321   2.843   4.085  0.4015  1.4571 -2.5749
  438SOL     hw 1751   1.381   2.707   4.113 -1.7604  0.8493 -0.5761
  438SOL     vw 1752   1.390   2.790   4.089 -0.1848  0.7228 -0.5207
  439SOL     ow 1753   1.178   3.800   3.105  0.6174  0.2371  0.1012
  439SOL     hw 1754   1.169   3.721   3.051 -0.8661 -0.8509  1.8573
  439SOL     hw 1755   1.269   3.797   3.136  0.8202 -0.3150 -0.5195
  439SOL     vw 1756   1.189   3.789   3.102  0.4485  0.0207  0.2511
  440SOL     ow 1757   3.083   0.056   2.515  0.2060 -0.1195  0.1648
  440SOL     hw 1758   3.020   0.117   2.553  0.5994  0.3721  0.0317
  440SOL     hw 1759   3.166   0.104   2.513  1.1019 -1.4439  2.2307
  440SOL     vw 1760   3.086   0.070   2.519  0.3762 -0.2294  0.4199
  441SOL     ow 1761   1.575   6.742   5.552  0.0953 -0.3707  0.2475
  441SOL     hw 1762   1.506   6.805   5.530 -1.8333 -2.1883  0.7930
  441SOL     hw 1763   1.565   6.729   5.647  0.5479 -1.3725  0.1650
  441SOL     vw 1764   1.564   6.749   5.562 -0.0994 -0.7427  0.3085
  442SOL     ow 1765   1.996   1.113   0.603 -0.0571  0.4048  0.3788
  442SOL     hw 1766   1.935   1.175   0.644 -0.2730  2.3264 -2.5174
  442SOL     hw 1767   1.950   1.083   0.525  0.9416 -1.8216  0.5748
  442SOL     vw 1768   1.982   1.117   0.598  0.0462  0.3645  0.0226
  443SOL     ow 1769   6.083   2.956   5.024  0.6260 -0.5572 -0.7041
  443SOL     hw 1770   6.144   2.887   5.051  2.8597  1.7619  0.4910
  443SOL     hw 1771   6.002   2.908   5.002  1.9763 -3.5135  0.2140
  443SOL     vw 1772   6.080   2.940   5.024  1.0989 -0.6412 -0.4251
  444SOL     ow 1773   0.295   5.677   3.941 -0.9763 -0.3042 -0.3101
  444SOL     hw 1774   0.359   5.605   3.942 -0.6224  0.0044  0.8097
  444SOL     hw 1775   0.320   5.730   3.865  1.6271  1.1150  1.4009
  444SOL     vw 1776   0.307   5.674   3.931 -0.5861 -0.0763  0.0633
  445SOL     ow 1777   0.795   1.855   2.300 -0.0472  0.2670 -0.5242
  445SOL     hw 1778   0.806   1.921   2.231 -1.1552  1.2833  0.2299
  445SOL     hw 1779   0.704   1.865   2.329 -1.0180 -3.1852 -1.9386
  445SOL     vw 1780   0.785   1.865   2.295 -0.3215 -0.0544 -0.6112
  446SOL     ow 1781   6.730   3.803   2.110 -0.0269 -0.0196 -0.5128
  446SOL     hw 1782   6.687   3.887   2.093  0.8766  0.1514 -2.1663
  446SOL     hw 1783   6.679   3.765   2.182 -2.1698  0.7093 -1.5482
  446SOL     vw 1784   6.718   3.809   2.117 -0.1905  0.0991 -0.8676
  447SOL     ow 1785   3.063   0.133   6.941  0.4172  0.1406  0.0775
  447SOL     hw 1786   3.036   0.171   6.858 -1.7264  1.1875  1.1631
  447SOL     hw 1787   3.035   0.197   7.007 -0.0416 -1.6754  1.7396
  447SOL     vw 1788   3.056   0.146   6.939  0.0739  0.0391  0.4401
  448SOL     ow 1789   0.658   4.837   4.003 -0.2659  0.3582 -0.3048
  448SOL     hw 1790   0.578   4.886   4.016  1.1553  2.0127  3.5202
  448SOL     hw 1791   0.677   4.845   3.909 -1.9701  4.1427 -0.4631
  448SOL     vw 1792   0.650   4.844   3.992 -0.3033  1.0757  0.1787
  449SOL     ow 1793   1.719   1.818   4.134  0.6791 -0.6534  0.4867
  449SOL     hw 1794   1.687   1.765   4.207 -0.0452 -0.0352  0.6279
  449SOL     hw 1795   1.804   1.851   4.164  0.1047  0.1140  1.3143
  449SOL     vw 1796   1.726   1.815   4.148  0.5078 -0.4706  0.6144
  450SOL     ow 1797   3.841   6.444   3.691 -0.2560 -0.0815 -0.4463
  450SOL     hw 1798   3.806   6.485   3.612 -0.1243 -0.3274 -0.6345
  450SOL     hw 1799   3.800   6.492   3.763  0.3573  0.7889 -0.6527
  450SOL     vw 1800   3.831   6.456   3.690 -0.1576  0.0010 -0.4983
  451SOL     ow 1801   0.589   0.264   1.110 -0.2875 -0.4867  0.1588
  451SOL     hw 1802   0.662   0.323   1.093 -0.0243  0.1836  2.9895
  451SOL     hw 1803   0.519   0.296   1.054  0.9199  0.2578 -0.9878
  451SOL     vw 1804   0.589   0.276   1.101 -0.0935 -0.3001  0.3810
  452SOL     ow 1805   0.055   4.669   6.880 -0.3843 -0.4192  0.6990
  452SOL     hw 1806   0.113   4.594   6.888  2.5556  1.0915 -3.1401
  452SOL     hw 1807   0.088   4.732   6.943  0.8697 -0.3467 -0.0048
  452SOL     vw 1808   0.067   4.667   6.889  0.1690 -0.2103  0.0997
  453SOL     ow 1809   0.096   3.552   7.193  0.6402 -0.0469  0.2338
  453SOL     hw 1810   0.083   3.526   7.102  2.6918  1.8598 -0.7084
  453SOL     hw 1811   0.008   3.571   7.226 -0.0089  1.1864 -2.0161
  453SOL     vw 1812   0.082   3.551   7.185  0.8252  0.3675 -0.1872
  454SOL     ow 1813   1.844   3.949   5.590 -0.0593 -0.0588 -0.4642
  454SOL     hw 1814   1.772   3.886   5.601 -3.0556  3.3928  1.8157
  454SOL     hw 1815   1.823   3.995   5.509  0.1706  0.2598 -0.3442
  454SOL     vw 1816   1.832   3.946   5.581 -0.4242  0.4386 -0.1473
  455SOL     ow 1817   4.589   3.754   5.151 -0.2321 -0.6285  0.1457
  455SOL     hw 1818   4.614   3.705   5.229  1.7307 -1.9532 -1.2234
  455SOL     hw 1819   4.495   3.736   5.140  0.1879 -3.1664  0.3229
  455SOL     vw 1820   4.580   3.745   5.160  0.0823 -1.1381 -0.0114
  456SOL     ow 1821   7.185   0.136   3.682  0.0455 -0.5806  0.3995
  456SOL     hw 1822   7.179   0.203   3.614  2.3976 -0.1341  0.5544
  456SOL     hw 1823   7.249   0.073   3.649  0.2614 -1.0505  1.6371
  456SOL     vw 1824   7.193   0.136   3.669  0.3843 -0.5837  0.5833
  457SOL     ow 1825   2.994   1.491   3.830  0.2388  0.1759 -0.6812
  457SOL     hw 1826   3.076   1.479   3.782  0.4357  0.3542 -0.3876
  457SOL     hw 1827   2.981   1.586   3.832 -0.8818  0.0923 -2.2567
  457SOL     vw 1828   3.003   1.502   3.824  0.1171  0.1884 -0.8503
  458SOL     ow 1829   2.929   1.462   0.030 -0.3175 -0.0855 -0.6249
  458SOL     hw 1830   2.861   1.403   0.062 -0.6338 -0.6230 -2.2183
  458SOL     hw 1831   2.907   1.547   0.069  0.1800 -0.9865  1.7427
  458SOL     vw 1832   2.917   1.465   0.039 -0.2935 -0.2753 -0.5227
  459SOL     ow 1833   5.409   3.357   1.471 -0.3960 -0.1660  0.7366
  459SOL     hw 1834   5.360   3.276   1.482 -1.4497  0.3425  0.0297
  459SOL     hw 1835   5.437   3.355   1.379  0.2565 -0.0931  0.9316
  459SOL     vw 1836   5.406   3.346   1.460 -0.4489 -0.0893  0.6691
  460SOL     ow 1837   3.599   4.122   6.839 -0.3798  0.4103  0.1933
  460SOL     hw 1838   3.541   4.171   6.780 -0.0703  0.0299 -0.4305
  460SOL     hw 1839   3.547   4.048   6.869  0.2802 -0.8616 -1.6593
  460SOL     vw 1840   3.584   4.119   6.835 -0.2519  0.1922 -0.1335
  461SOL     ow 1841   6.991   3.313   4.024  0.8858 -0.1775 -0.0091
  461SOL     hw 1842   7.081   3.346   4.025  0.5127  0.8897  0.9280
  461SOL     hw 1843   6.981   3.272   3.938  1.8059  0.9807 -0.6949
  461SOL     vw 1844   7.002   3.312   4.013  0.9580  0.1163  0.0236
  462SOL     ow 1845   5.135   5.211   2.453  0.1414  0.0520  0.0926
  462SOL     hw 1846   5.054   5.186   2.408 -1.4657 -0.4352  2.9784
  462SOL     hw 1847   5.114   5.294   2.495 -0.1747 -1.5857  3.5522
  462SOL     vw 1848   5.121   5.218   2.453 -0.1123 -0.2284  0.9298
  463SOL     ow 1849   2.167   7.208   5.899  0.0580  0.3245 -0.3646
  463SOL     hw 1850   2.122   7.158   5.967 -0.1126 -2.3317 -2.2541
  463SOL     hw 1851   2.248   7.238   5.940 -0.2035 -0.8903  1.1135
  463SOL     vw 1852   2.172   7.206   5.913  0.0012 -0.1860 -0.4189
  464SOL     ow 1853   6.196   4.982   1.710 -0.0601 -0.3649  0.1778
  464SOL     hw 1854   6.287   4.975   1.736 -0.0782  0.2126  0.4000
  464SOL     hw 1855   6.199   5.023   1.623 -0.1555  0.7953  0.7007
  464SOL     vw 1856   6.208   4.986   1.702 -0.0751 -0.1359  0.2761
  465SOL     ow 1857   0.106   3.130   1.136  0.4376  0.4296  0.2333
  465SOL     hw 1858   0.193   3.094   1.150  1.0806  2.4275  1.9968
  465SOL     hw 1859   0.114   3.222   1.163 -2.0413  0.8639 -0.2730
  465SOL     vw 1860   0.119   3.138   1.141  0.1954  0.7503  0.3991
  466SOL     ow 1861   4.532   2.931   3.438 -0.2654  0.1955 -0.5689
  466SOL     hw 1862   4.615   2.918   3.483  0.6541 -0.0917 -2.2508
  466SOL     hw 1863   4.468   2.940   3.508  1.1170  0.0549  0.7746
  466SOL     vw 1864   4.535   2.931   3.453  0.0384  0.1391 -0.6135
  467SOL     ow 1865   4.520   4.671   3.930  0.5077  0.4362 -0.3227
  467SOL     hw 1866   4.560   4.585   3.942  1.5594  0.7134 -1.5920
  467SOL     hw 1867   4.572   4.730   3.984 -0.2147  0.3068  0.5503
  467SOL     vw 1868   4.532   4.667   3.938  0.5515  0.4559 -0.3749
  468SOL     ow 1869   3.473   2.648   3.225 -0.2044 -0.4235 -0.0650
  468SOL     hw 1870   3.399   2.695   3.188  0.0370 -0.9479 -1.2759
  468SOL     hw 1871   3.544   2.660   3.161 -0.0657 -2.1728 -0.2864
  468SOL     vw 1872   3.473   2.656   3.212 -0.1541 -0.7234 -0.2540
  469SOL     ow 1873   3.946   1.116   6.259 -0.5960 -0.3487  0.3516
  469SOL     hw 1874   3.987   1.198   6.286 -2.4761  1.2586 -1.3392
  469SOL     hw 1875   3.984   1.098   6.173 -1.4373 -0.2820 -0.0444
  469SOL     vw 1876   3.956   1.125   6.251 -0.9551 -0.1279  0.0765
  470SOL     ow 1877   1.153   0.628   4.654  0.3236  0.2593  0.6047
  470SOL     hw 1878   1.237   0.614   4.611 -0.0587  2.0803 -0.8653
  470SOL     hw 1879   1.126   0.541   4.683  2.1523 -0.5377  0.0691
  470SOL     vw 1880   1.160   0.615   4.652  0.5144  0.3944  0.3402
  471SOL     ow 1881   6.157   5.221   1.879 -0.8258  0.2307  0.4995
  471SOL     hw 1882   6.220   5.274   1.831 -0.3244 -1.3135 -0.6144
  471SOL     hw 1883   6.185   5.229   1.971 -0.1043  1.0017  0.2281
  471SOL     vw 1884   6.169   5.229   1.885 -0.6645  0.1287  0.3167
  472SOL     ow 1885   0.062   0.770   5.075 -0.2784  0.1800  0.3637
  472SOL     hw 1886   0.049   0.733   4.988 -0.1015 -0.2429  0.5166
  472SOL     hw 1887  -0.022   0.759   5.119  0.2404 -1.6449  1.0077
  472SOL     vw 1888   0.049   0.764   5.069 -0.1866 -0.1166  0.4687
  473SOL     ow 1889   2.760   0.586   4.292 -0.0733 -0.3536 -0.6181
  473SOL     hw 1890   2.776   0.524   4.363  0.5820  0.1431 -0.3172
  473SOL     hw 1891   2.842   0.635   4.285 -0.2889 -0.0948 -1.4193
  473SOL     vw 1892   2.773   0.584   4.301 -0.0155 -0.2539 -0.6843
  474SOL     ow 1893   6.606   6.311   0.370 -0.6931 -0.2342  0.7384
  474SOL     hw 1894   6.549   6.388   0.371 -2.0693 -1.1505 -1.1390
  474SOL     hw 1895   6.564   6.250   0.309  1.1593 -1.8676  0.9761
  474SOL     vw 1896   6.593   6.313   0.362 -0.6301 -0.5705  0.5221
  475SOL     ow 1897   6.912   6.262   0.293  0.2285 -0.3717 -0.2005
  475SOL     hw 1898   6.971   6.327   0.255  0.4593 -0.0638  0.6613
  475SOL     hw 1899   6.955   6.178   0.277  0.1936 -0.2701 -0.8388
  475SOL     vw 1900   6.926   6.259   0.286  0.2542 -0.3176 -0.1710
  476SOL     ow 1901   0.857   0.875   3.083 -0.2046 -0.4848 -0.8839
  476SOL     hw 1902   0.924   0.811   3.058  0.2249  0.0892 -1.2178
  476SOL     hw 1903   0.877   0.952   3.030 -0.5019  0.0512 -0.2152
  476SOL     vw 1904   0.869   0.876   3.072 -0.1872 -0.3383 -0.8397
  477SOL     ow 1905   6.127   2.024   4.277 -0.1884  0.2524 -0.5296
  477SOL     hw 1906   6.141   2.048   4.186  0.5680  3.3558  0.2615
  477SOL     hw 1907   6.214   2.005   4.311 -0.3925 -0.3210 -0.3180
  477SOL     vw 1908   6.140   2.025   4.270 -0.1156  0.5863 -0.3972
  478SOL     ow 1909   1.564   2.630   2.171 -0.2055  0.4218 -0.8784
  478SOL     hw 1910   1.476   2.603   2.194  0.3612 -2.5330 -1.7033
  478SOL     hw 1911   1.598   2.673   2.249 -3.0739  3.9711 -1.3116
  478SOL     vw 1912   1.557   2.632   2.184 -0.5093  0.5003 -1.0445
  479SOL     ow 1913   6.109   4.299   5.256  0.4867 -0.6591  0.1100
  479SOL     hw 1914   6.119   4.304   5.351 -2.1213 -2.1664  0.5587
  479SOL     hw 1915   6.028   4.347   5.238  1.4605  0.4528 -1.5089
  479SOL     vw 1916   6.100   4.306   5.266  0.2711 -0.7114 -0.0443
  480SOL     ow 1917   4.633   1.308   2.076  0.0373 -0.6721 -0.2645
  480SOL     hw 1918   4.667   1.367   2.009  0.9448  2.4992  2.7259
  480SOL     hw 1919   4.556   1.353   2.111  0.3217 -1.5873  1.6619
  480SOL     vw 1920   4.627   1.322   2.072  0.1948 -0.3744  0.3841
  481SOL     ow 1921   2.776   4.944   6.023  0.7714 -0.1916 -0.2003
  481SOL     hw 1922   2.778   4.925   5.929  3.7020 -0.0796 -0.2638
  481SOL     hw 1923   2.812   5.032   6.031 -1.8541  0.8511  0.9105
  481SOL     vw 1924   2.781   4.953   6.012  0.8116 -0.0393 -0.0625
  482SOL     ow 1925   3.854   2.581   6.276  0.1030  0.1934  0.7251
  482SOL     hw 1926   3.861   2.569   6.181 -2.9707 -0.4225  0.4882
  482SOL     hw 1927   3.799   2.659   6.286  0.0684  0.0223  1.9972
  482SOL     vw 1928   3.848   2.590   6.265 -0.3071  0.0895  0.8616
  483SOL     ow 1929   5.748   5.642   2.908 -0.0461 -0.3967 -0.0037
  483SOL     hw 1930   5.667   5.598   2.935 -2.1042  2.2220 -1.3646
  483SOL     hw 1931   5.737   5.732   2.941  1.0262  0.7413 -2.5086
  483SOL     vw 1932   5.736   5.648   2.916 -0.1764  0.0989 -0.5138
  484SOL     ow 1933   6.456   6.483   6.349  0.1280  0.2247  0.5818
  484SOL     hw 1934   6.540   6.475   6.395 -0.4593  1.0799  1.8698
  484SOL     hw 1935   6.446   6.399   6.304  1.9180  0.2979 -0.0638
  484SOL     vw 1936   6.466   6.471   6.349  0.2868  0.3469  0.6666
  485SOL     ow 1937   5.048   1.475   3.812 -0.1593 -0.8332  0.0230
  485SOL     hw 1938   5.055   1.427   3.729 -0.2677  0.4867 -0.7644
  485SOL     hw 1939   5.006   1.557   3.789 -1.6712 -1.0866  1.6638
  485SOL     vw 1940   5.044   1.479   3.798 -0.3729 -0.6924  0.1355
  486SOL     ow 1941   5.324   6.377   5.770 -0.4105 -0.7484 -0.6553
  486SOL     hw 1942   5.389   6.415   5.712  0.8242  1.6789  2.0874
  486SOL     hw 1943   5.274   6.451   5.803 -2.7426 -2.2842 -0.4595
  486SOL     vw 1944   5.326   6.391   5.767 -0.5550 -0.6306 -0.2677
  487SOL     ow 1945   3.988   6.934   5.096 -0.0170 -1.2388  0.1025
  487SOL     hw 1946   4.052   6.994   5.135  1.0458 -2.1829 -0.1383
  487SOL     hw 1947   3.919   6.927   5.162  0.7287 -1.1551  0.9160
  487SOL     vw 1948   3.987   6.941   5.110  0.2216 -1.3521  0.1781
  488SOL     ow 1949   6.978   3.396   6.264  0.1665 -0.1469  0.2722
  488SOL     hw 1950   6.949   3.365   6.179 -1.5632 -1.9739  1.4450
  488SOL     hw 1951   7.068   3.425   6.250  0.6273 -2.3382 -1.7474
  488SOL     vw 1952   6.986   3.396   6.251 -0.0010 -0.6771  0.1602
  489SOL     ow 1953   1.090   4.241   3.156 -0.0977 -0.3073  0.1314
  489SOL     hw 1954   1.165   4.278   3.202  0.7388  0.5086 -1.7591
  489SOL     hw 1955   1.014   4.269   3.207  0.7141  1.4123  0.4952
  489SOL     vw 1956   1.090   4.250   3.169  0.1199  0.0272 -0.0701
  490SOL     ow 1957   0.542   7.072   1.134 -0.2116  0.2594 -0.4778
  490SOL     hw 1958   0.588   7.155   1.150  0.5701 -0.1721 -0.4772
  490SOL     hw 1959   0.589   7.031   1.062  2.1572 -2.1633  2.2040
  490SOL     vw 1960   0.554   7.078   1.127  0.2041 -0.1171 -0.1240
  491SOL     ow 1961   0.605   0.716   3.003  0.4554  0.0384 -0.3897
  491SOL     hw 1962   0.560   0.792   2.967 -1.5566  0.4420  2.5809
  491SOL     hw 1963   0.552   0.641   2.975 -0.6377  0.2791  0.9082
  491SOL     vw 1964   0.592   0.716   2.995  0.0457  0.1234  0.1733
  492SOL     ow 1965   7.071   0.495   6.028  0.5811  0.1817  0.0323
  492SOL     hw 1966   7.090   0.572   6.081 -0.8244  0.1867  0.5683
  492SOL     hw 1967   7.005   0.524   5.966  3.1613  0.5516 -2.7521
  492SOL     vw 1968   7.065   0.509   6.027  0.7358  0.2312 -0.2646
  493SOL     ow 1969   1.400   1.035   1.349 -0.1262 -0.3528 -0.5537
  493SOL     hw 1970   1.323   1.076   1.311  0.6943 -0.1755 -2.0948
  493SOL     hw 1971   1.410   0.952   1.301 -0.4745 -1.3400  0.9983
  493SOL     vw 1972   1.391   1.029   1.338 -0.0640 -0.4597 -0.5523
  494SOL     ow 1973   1.031   6.006   2.580  0.4254 -0.2988  0.2792
  494SOL     hw 1974   0.975   5.931   2.599  0.1237 -0.7264 -2.0147
  494SOL     hw 1975   1.120   5.972   2.589  0.2895 -0.6640  0.2565
  494SOL     vw 1976   1.035   5.992   2.584  0.3677 -0.4032 -0.0265
  495SOL     ow 1977   6.848   6.506   3.120  0.1845  0.0217  0.0139
  495SOL     hw 1978   6.915   6.445   3.090 -0.9212 -1.9773  1.3478
  495SOL     hw 1979   6.884   6.593   3.101  2.6782 -0.9752 -0.2305
  495SOL     vw 1980   6.861   6.510   3.113  0.3676 -0.3736  0.1578
  496SOL     ow 1981   4.211   3.781   3.344  0.4763  1.2990 -0.9230
  496SOL     hw 1982   4.180   3.730   3.269  0.0557  1.2249 -0.7040
  496SOL     hw 1983   4.264   3.720   3.395 -3.0978 -0.1727  1.4006
  496SOL     vw 1984   4.214   3.766   3.341 -0.0505  1.0952 -0.5877
  497SOL     ow 1985   2.105   4.152   5.308 -0.1082  0.1542  0.5832
  497SOL     hw 1986   2.048   4.187   5.377 -2.0420 -2.2300  0.3432
  497SOL     hw 1987   2.066   4.068   5.286  0.0347  1.0266 -3.8926
  497SOL     vw 1988   2.092   4.146   5.314 -0.3444 -0.0453 -0.0391
  498SOL     ow 1989   0.877   6.713   2.045 -0.2691  0.1175  0.1347
  498SOL     hw 1990   0.947   6.706   2.110 -0.8869  2.3507  1.1344
  498SOL     hw 1991   0.797   6.701   2.095 -0.7362  1.5877 -0.2125
  498SOL     vw 1992   0.876   6.711   2.060 -0.4123  0.6061  0.2209
  499SOL     ow 1993   6.655   6.372   3.259  0.0457  0.1832  0.5795
  499SOL     hw 1994   6.713   6.431   3.211  0.4306 -0.1194  0.6677
  499SOL     hw 1995   6.715   6.316   3.309 -0.2456 -1.4087 -0.7863
  499SOL     vw 1996   6.671   6.372   3.259  0.0582 -0.0665  0.4109
  500SOL     ow 1997   5.952   4.981   1.090  0.0368  0.4820 -0.3416
  500SOL     hw 1998   6.034   5.016   1.126 -0.0466  1.5391 -1.1470
  500SOL     hw 1999   5.980   4.917   1.025  0.1889 -0.8877  1.0069
  500SOL     vw 2000   5.967   4.977   1.086  0.0460  0.4408 -0.2700
  501SOL     ow 2001   4.776   6.064   4.701 -0.3443 -0.2971 -0.5978
  501SOL     hw 2002   4.820   6.018   4.772 -0.2581 -0.6057 -0.8482
  501SOL     hw 2003   4.685   6.034   4.705 -0.1430 -1.0034 -1.1758
  501SOL     vw 2004   4.770   6.054   4.711 -0.3064 -0.4311 -0.7074
  502SOL     ow 2005   4.503   0.709   5.360 -0.1681  0.9457 -0.3759
  502SOL     hw 2006   4.446   0.634   5.377 -0.6816  1.3932 -0.0658
  502SOL     hw 2007   4.494   0.726   5.266  0.0522  0.5421 -0.4712
  502SOL     vw 2008   4.494   0.702   5.350 -0.2067  0.9514 -0.3476
  503SOL     ow 2009   0.404   5.284   6.286 -0.2369  0.0998  0.6457
  503SOL     hw 2010   0.347   5.264   6.360 -2.3921 -1.7830 -1.3482
  503SOL     hw 2011   0.346   5.327   6.223  0.5938 -1.4070 -1.2574
  503SOL     vw 2012   0.389   5.287   6.288 -0.4116 -0.3474  0.1314
  504SOL     ow 2013   3.940   2.458   5.242  0.4051 -0.0560 -0.2582
  504SOL     hw 2014   3.885   2.380   5.229 -1.9782  1.0080  2.2908
  504SOL     hw 2015   3.883   2.532   5.219  1.2627  1.0452  0.9787
  504SOL     vw 2016   3.925   2.457   5.237  0.2037  0.2297  0.2413
  505SOL     ow 2017   5.303   5.510   2.373  0.8579  0.5828  0.3864
  505SOL     hw 2018   5.231   5.495   2.433  1.7496 -0.5968  1.2245
  505SOL     hw 2019   5.288   5.448   2.301  2.5701 -1.9580  2.0446
  505SOL     vw 2020   5.292   5.500   2.371  1.2019  0.0923  0.7156
  506SOL     ow 2021   1.562   0.829   3.804 -0.3351 -0.2165 -0.5754
  506SOL     hw 2022   1.577   0.920   3.779  0.7356 -0.2265 -0.0137
  506SOL     hw 2023   1.467   0.824   3.819 -0.1176  1.4883  1.9736
  506SOL     vw 2024   1.551   0.841   3.803 -0.1652  0.0072 -0.1650
  507SOL     ow 2025   4.938   3.393   1.229  0.0360 -0.4000  0.1070
  507SOL     hw 2026   4.891   3.424   1.151 -0.9265  2.2344  1.5725
  507SOL     hw 2027   4.879   3.329   1.268  1.4720 -3.4584 -2.3053
  507SOL     vw 2028   4.924   3.389   1.224  0.0985 -0.4560 -0.0179
  508SOL     ow 2029   6.063   6.975   3.059 -0.2606 -0.0424 -0.6690
  508SOL     hw 2030   6.044   6.893   3.014 -0.9991  0.4960 -1.3502
  508SOL     hw 2031   6.063   7.042   2.990 -2.7154  1.0085  0.2463
  508SOL     vw 2032   6.061   6.973   3.044 -0.6819  0.1671 -0.6382
  509SOL     ow 2033   6.786   5.438   2.674  0.5007  1.1263  0.1246
  509SOL     hw 2034   6.765   5.516   2.724  2.0793  1.0726  0.9187
  509SOL     hw 2035   6.706   5.419   2.625 -0.9740  1.4356  2.2769
  509SOL     vw 2036   6.772   5.446   2.674  0.5143  1.1599  0.5134
  510SOL     ow 2037   2.644   5.243   7.025 -0.2494  0.3352  0.1847
  510SOL     hw 2038   2.738   5.228   7.027 -0.3687 -0.7107 -0.5350
  510SOL     hw 2039   2.632   5.331   7.060  1.1402  1.1284 -1.2088
  510SOL     vw 2040   2.655   5.252   7.030 -0.0818  0.3016 -0.0939
  511SOL     ow 2041   5.076   1.587   3.468  0.1138  0.9580  0.3227
  511SOL     hw 2042   4.998   1.609   3.519  0.6884  2.3278  0.6447
  511SOL     hw 2043   5.141   1.652   3.494  2.1109 -1.3992  1.6717
  511SOL     vw 2044   5.074   1.599   3.478  0.4532  0.8277  0.5431
  512SOL     ow 2045   2.623   0.853   6.246 -0.3518 -0.2118 -0.1090
  512SOL     hw 2046   2.548   0.796   6.227  0.6439 -1.1340 -1.4056
  512SOL     hw 2047   2.615   0.872   6.339 -2.2066 -0.2651 -0.2116
  512SOL     vw 2048   2.612   0.848   6.255 -0.4652 -0.3405 -0.2937
  513SOL     ow 2049   4.194   4.013   3.551  0.2313  0.3886  0.3162
  513SOL     hw 2050   4.287   4.010   3.572  0.1423 -0.0981  0.6429
  513SOL     hw 2051   4.163   3.924   3.563  0.3080 -0.1151 -2.4815
  513SOL     vw 2052   4.202   4.001   3.555  0.2298  0.2580 -0.0098
  514SOL     ow 2053   1.979   5.995   2.583  0.3431  0.0158 -0.1610
  514SOL     hw 2054   1.917   6.024   2.516  1.1423 -1.1289 -1.4657
  514SOL     hw 2055   2.028   6.074   2.606 -1.3642  0.8940  0.7199
  514SOL     vw 2056   1.977   6.009   2.577  0.2232 -0.0193 -0.2168
  515SOL     ow 2057   4.571   0.779   5.616 -0.0178  0.4466 -0.3619
  515SOL     hw 2058   4.594   0.838   5.688  1.0928 -0.8905  0.4341
  515SOL     hw 2059   4.561   0.694   5.657  2.0830 -0.6568 -1.9551
  515SOL     vw 2060   4.573   0.776   5.631  0.4058  0.1246 -0.4671
  516SOL     ow 2061   6.031   3.780   2.847  0.4427  0.5700 -0.1462
  516SOL     hw 2062   6.025   3.785   2.943 -0.9802 -0.4749 -0.1399
  516SOL     hw 2063   5.984   3.857   2.817 -1.3569 -0.3844  0.0345
  516SOL     vw 2064   6.024   3.791   2.856  0.0174  0.3061 -0.1215
  517SOL     ow 2065   0.915   0.251   2.716 -0.2314  0.7659  0.2847
  517SOL     hw 2066   0.858   0.325   2.736 -0.0316  1.3076 -1.0388
  517SOL     hw 2067   0.966   0.237   2.796 -1.5077  0.9052  1.1527
  517SOL     vw 2068   0.914   0.259   2.729 -0.3735  0.8558  0.2245
  518SOL     ow 2069   6.713   2.848   5.026 -0.9328 -0.4312 -1.1667
  518SOL     hw 2070   6.633   2.799   5.047 -0.7498 -0.2558  0.0122
  518SOL     hw 2071   6.751   2.800   4.952 -2.3653 -0.2283 -2.0676
  518SOL     vw 2072   6.708   2.835   5.019 -1.0974 -0.3814 -1.1296
  519SOL     ow 2073   7.092   5.888   5.432  1.2294  0.5616 -0.2282
  519SOL     hw 2074   7.042   5.957   5.389  1.1033 -0.7582 -2.3157
  519SOL     hw 2075   7.031   5.849   5.494  0.9391  1.5224  0.1148
  519SOL     vw 2076   7.078   5.892   5.435  1.1742  0.5140 -0.4585
  520SOL     ow 2077   3.785   2.074   5.718 -0.9037  0.0444 -0.6136
  520SOL     hw 2078   3.856   2.020   5.753 -1.1472 -0.7567 -1.3056
  520SOL     hw 2079   3.706   2.032   5.750 -1.1377 -0.7713 -2.1436
  520SOL     vw 2080   3.784   2.061   5.726 -0.9665 -0.1689 -0.9067
  521SOL     ow 2081   6.216   4.698   5.508 -0.2166  0.0053 -0.1252
  521SOL     hw 2082   6.228   4.638   5.434  2.1472  2.6652 -2.1181
  521SOL     hw 2083   6.127   4.731   5.497 -0.9083 -1.7158 -0.0509
  521SOL     vw 2084   6.206   4.695   5.496  0.0041  0.1292 -0.3784
  522SOL     ow 2085   4.523   6.156   0.299 -0.3325 -0.1193 -0.2564
  522SOL     hw 2086   4.546   6.194   0.384 -2.0340  0.7308 -0.1348
  522SOL     hw 2087   4.588   6.192   0.238  0.6279 -0.3733  0.5783
  522SOL     vw 2088   4.535   6.166   0.303 -0.4306 -0.0408 -0.1302
  523SOL     ow 2089   0.395   6.260   0.089 -0.6718 -0.1318  0.3797
  523SOL     hw 2090   0.308   6.258   0.050  0.1244 -0.3191 -1.5229
  523SOL     hw 2091   0.401   6.178   0.139 -1.2364 -0.6254 -0.3350
  523SOL     vw 2092   0.384   6.249   0.090 -0.6412 -0.2217  0.0343
  524SOL     ow 2093   2.475   2.671   1.591  0.6778  0.0530  0.5204
  524SOL     hw 2094   2.465   2.658   1.496  3.1925 -2.4952  0.4374
  524SOL     hw 2095   2.550   2.730   1.599  0.0749  0.7725  0.9528
  524SOL     vw 2096   2.484   2.677   1.579  0.9300 -0.1881  0.5665
  525SOL     ow 2097   0.385   5.396   0.307  0.1526  0.3610  0.1395
  525SOL     hw 2098   0.388   5.455   0.231 -0.8180  1.1574  0.6943
  525SOL     hw 2099   0.293   5.374   0.316  0.1072  1.0181  1.6245
  525SOL     vw 2100   0.374   5.401   0.298  0.0186  0.5529  0.4086
  526SOL     ow 2101   3.717   5.691   1.957  0.1505  0.4058 -0.3605
  526SOL     hw 2102   3.782   5.663   1.892 -0.2004 -0.3703 -0.3886
  526SOL     hw 2103   3.730   5.785   1.965 -0.1617  0.6237 -1.9859
  526SOL     vw 2104   3.727   5.700   1.949  0.0629  0.3324 -0.5785
  527SOL     ow 2105   6.326   6.077   3.058 -0.4099  0.3020  0.4103
  527SOL     hw 2106   6.316   5.994   3.012  1.0033 -0.7208  1.8362
  527SOL     hw 2107   6.268   6.138   3.011 -0.8075 -1.2424 -1.2122
  527SOL     vw 2108   6.317   6.074   3.046 -0.2759 -0.0367  0.3844
  528SOL     ow 2109   6.600   0.020   5.329 -0.7839  0.4169  0.2810
  528SOL     hw 2110   6.678  -0.008   5.281 -0.2350 -0.6163  1.7276
  528SOL     hw 2111   6.527  -0.007   5.273 -0.1664  2.2355 -1.5447
  528SOL     vw 2112   6.601   0.013   5.315 -0.6299  0.5205  0.2310
  529SOL     ow 2113   7.103   6.512   4.388 -0.1132  0.7474  0.4006
  529SOL     hw 2114   7.023   6.469   4.357 -0.5865  1.8915 -0.0022
  529SOL     hw 2115   7.121   6.471   4.473 -0.5248 -0.2559  0.0272
  529SOL     vw 2116   7.095   6.501   4.395 -0.2296  0.7663  0.2980
  530SOL     ow 2117   3.228   4.749   3.521 -0.1457 -0.7285  0.2300
  530SOL     hw 2118   3.207   4.715   3.434 -0.2875 -2.0732  0.7609
  530SOL     hw 2119   3.145   4.784   3.554 -0.6184 -2.1827  0.6551
  530SOL     vw 2120   3.214   4.749   3.513 -0.2267 -1.0977  0.3561
  531SOL     ow 2121   6.674   3.285   4.185  0.1628  0.2597 -0.5392
  531SOL     hw 2122   6.586   3.308   4.155 -0.0308 -1.1344 -1.1318
  531SOL     hw 2123   6.668   3.282   4.280 -1.1124 -2.1240 -0.6106
  531SOL     vw 2124   6.662   3.287   4.194 -0.0308 -0.2388 -0.6268
  532SOL     ow 2125   5.428   2.290   5.170 -0.3671 -0.7222  0.1879
  532SOL     hw 2126   5.444   2.254   5.257  0.5146 -1.0726 -0.1176
  532SOL     hw 2127   5.507   2.272   5.120 -0.4375  0.4139 -0.3869
  532SOL     vw 2128   5.440   2.283   5.175 -0.2601 -0.6186  0.0718
  533SOL     ow 2129   2.338   4.546   6.990  0.6246  0.8661  0.0200
  533SOL     hw 2130   2.408   4.537   7.054 -0.8457 -2.2962  1.4120
  533SOL     hw 2131   2.262   4.573   7.042 -0.0675  0.4822 -0.7774
  533SOL     vw 2132   2.337   4.548   7.006  0.3394  0.3984  0.0982
  534SOL     ow 2133   0.386   4.540   0.540  0.5662 -0.1443 -0.0365
  534SOL     hw 2134   0.453   4.542   0.609 -0.6700  0.6710  1.2058
  534SOL     hw 2135   0.359   4.448   0.536 -0.6790  0.0474  2.0008
  534SOL     vw 2136   0.391   4.528   0.549  0.2388 -0.0114  0.3962
  535SOL     ow 2137   6.275   1.426   4.126 -0.2608 -0.1563 -0.7226
  535SOL     hw 2138   6.180   1.414   4.135 -0.3262  1.2356  1.3306
  535SOL     hw 2139   6.312   1.342   4.153 -0.8719 -0.9033 -2.0775
  535SOL     vw 2140   6.267   1.413   4.131 -0.3500 -0.0712 -0.6301
  536SOL     ow 2141   6.509   5.738   4.779  0.2095  0.7178  0.2781
  536SOL     hw 2142   6.423   5.759   4.742 -1.5682 -1.8016  2.6190
  536SOL     hw 2143   6.533   5.655   4.740  0.4014  0.2238  1.4004
  536SOL     vw 2144   6.501   5.730   4.769  0.0007  0.3202  0.7348
  537SOL     ow 2145   3.180   1.673   6.233 -0.2180  0.0837  0.6015
  537SOL     hw 2146   3.124   1.709   6.302  1.1394 -1.2282  2.5318
  537SOL     hw 2147   3.252   1.631   6.281 -0.2800 -2.7689 -1.5175
  537SOL     vw 2148   3.182   1.672   6.249 -0.0470 -0.4658  0.5767
  538SOL     ow 2149   2.840   6.762   5.522 -0.2760 -0.5611 -0.3395
  538SOL     hw 2150   2.912   6.747   5.584 -1.1606 -0.5202  0.7341
  538SOL     hw 2151   2.883   6.795   5.443  0.7288  1.5677  0.9994
  538SOL     vw 2152   2.855   6.765   5.520 -0.2601 -0.2749 -0.0210
  539SOL     ow 2153   5.108   3.001   0.556  0.9322 -0.1049  0.2496
  539SOL     hw 2154   5.081   2.964   0.640 -0.5558 -1.2458 -0.6949
  539SOL     hw 2155   5.200   3.024   0.569  0.6240  0.1629  2.3115
  539SOL     vw 2156   5.117   2.999   0.569  0.6952 -0.2201  0.3970
  540SOL     ow 2157   0.310   4.950   6.939  0.3455 -0.3881  0.1856
  540SOL     hw 2158   0.229   4.983   6.978  0.7870 -0.5619  1.2975
  540SOL     hw 2159   0.285   4.920   6.852  0.0103  3.3918 -1.2099
  540SOL     vw 2160   0.296   4.950   6.933  0.3595  0.0877  0.1485
  541SOL     ow 2161   5.233   5.707   0.716 -0.1809 -0.4176  0.1873
  541SOL     hw 2162   5.318   5.674   0.689 -0.3249 -0.4606 -0.2335
  541SOL     hw 2163   5.170   5.643   0.682 -0.3962 -0.2289  0.2233
  541SOL     vw 2164   5.236   5.694   0.708 -0.2279 -0.3986  0.1366
  542SOL     ow 2165   0.517   1.865   0.944  0.0466 -0.3733 -0.8496
  542SOL     hw 2166   0.537   1.863   1.037  0.2117 -2.4295 -0.8936
  542SOL     hw 2167   0.485   1.777   0.924 -1.1026  0.3645 -2.5016
  542SOL     vw 2168   0.515   1.853   0.953 -0.0833 -0.5473 -1.0734
  543SOL     ow 2169   0.439   4.912   3.754  0.3115 -0.3082 -0.9556
  543SOL     hw 2170   0.512   4.953   3.707  0.3476 -0.9385 -1.4731
  543SOL     hw 2171   0.428   4.827   3.711  2.1161 -2.1517  1.8347
  543SOL     vw 2172   0.447   4.906   3.742  0.5544 -0.6349 -0.6558
  544SOL     ow 2173   7.090   2.664   3.773 -0.0446  0.4380  0.6045
  544SOL     hw 2174   7.062   2.755   3.780  1.1195  0.7089  2.6324
  544SOL     hw 2175   7.009   2.614   3.763 -0.9649  1.4702  2.4575
  544SOL     vw 2176   7.076   2.669   3.773 -0.0124  0.6098  1.1165
  545SOL     ow 2177   6.958   6.227   6.281  0.1552 -0.4064  0.5430
  545SOL     hw 2178   6.959   6.181   6.197 -0.2893 -1.6139  1.1773
  545SOL     hw 2179   6.885   6.289   6.273 -0.6029 -1.2947  0.4292
  545SOL     vw 2180   6.949   6.229   6.269 -0.0036 -0.6828  0.6115
  546SOL     ow 2181   6.077   0.378   1.541 -0.4644  0.5763 -0.3699
  546SOL     hw 2182   6.022   0.300   1.535 -2.7081  2.1304 -1.2925
  546SOL     hw 2183   6.112   0.389   1.453 -2.2646  1.9915 -0.9625
  546SOL     vw 2184   6.075   0.369   1.529 -0.9978  0.9681 -0.5698
  547SOL     ow 2185   4.906   2.174   5.104 -0.7021 -0.6745  0.5781
  547SOL     hw 2186   4.837   2.129   5.055 -0.7681  0.0417  0.0122
  547SOL     hw 2187   4.863   2.250   5.142 -0.4768 -0.8230  1.1493
  547SOL     vw 2188   4.891   2.178   5.103 -0.6809 -0.5995  0.5789
  548SOL     ow 2189   2.194   3.066   3.048  0.1441 -0.4970 -0.1196
  548SOL     hw 2190   2.107   3.057   3.011 -0.5985 -1.4537  1.7032
  548SOL     hw 2191   2.179   3.067   3.143  2.0868 -0.3851  0.2226
  548SOL     vw 2192   2.181   3.065   3.056  0.3024 -0.6086  0.1661
  549SOL     ow 2193   6.359   1.394   5.531  0.0775 -0.0453  0.5881
  549SOL     hw 2194   6.374   1.446   5.452  1.1325 -2.9301 -1.2985
  549SOL     hw 2195   6.414   1.435   5.598  1.8648  0.5326 -1.1391
  549SOL     vw 2196   6.368   1.406   5.530  0.4525 -0.3497  0.1111
  550SOL     ow 2197   4.794   5.475   3.515  0.8062 -0.2824  0.2626
  550SOL     hw 2198   4.860   5.538   3.483 -1.4131  0.8728 -2.4555
  550SOL     hw 2199   4.830   5.390   3.492  2.3988  0.1316  1.0327
  550SOL     vw 2200   4.808   5.472   3.508  0.7236 -0.0753  0.0054
  551SOL     ow 2201   5.714   0.103   5.990 -0.5554  0.6781  0.3150
  551SOL     hw 2202   5.778   0.157   6.036 -2.2440  1.5380  1.8018
  551SOL     hw 2203   5.662   0.064   6.060 -0.2487 -1.8787 -0.7629
  551SOL     vw 2204   5.716   0.105   6.006 -0.7377  0.4542  0.3688
  552SOL     ow 2205   5.491   1.108   1.055 -0.3959 -0.2276  0.0370
  552SOL     hw 2206   5.525   1.019   1.044 -0.6630 -0.3973  0.5458
  552SOL     hw 2207   5.419   1.099   1.117 -0.4235  0.3478  0.0972
  552SOL     vw 2208   5.486   1.095   1.062 -0.4346 -0.1740  0.1120
  553SOL     ow 2209   7.173   0.132   1.010 -1.0713 -0.0413  0.7107
  553SOL     hw 2210   7.214   0.157   1.093 -2.1799  0.0002  1.2641
  553SOL     hw 2211   7.240   0.151   0.943 -0.5302  0.8743  1.4913
  553SOL     vw 2212   7.188   0.138   1.012 -1.1463  0.0850  0.8867
  554SOL     ow 2213   1.440   7.134   4.193 -0.8544  0.4601 -0.4920
  554SOL     hw 2214   1.422   7.190   4.268  1.9605  1.5530 -0.5422
  554SOL     hw 2215   1.531   7.152   4.169 -0.7036 -2.0584 -2.3135
  554SOL     vw 2216   1.449   7.144   4.199 -0.4631  0.2718 -0.7389
  555SOL     ow 2217   0.574   1.630   0.143  0.1964  0.1358 -0.0358
  555SOL     hw 2218   0.483   1.626   0.113  0.3426 -3.5081 -0.4478
  555SOL     hw 2219   0.573   1.585   0.227  1.6630 -0.0972 -0.1268
  555SOL     vw 2220   0.562   1.624   0.150  0.4092 -0.3756 -0.1022
  556SOL     ow 2221   0.081   2.959   0.002 -0.7022  0.3758  0.1521
  556SOL     hw 2222   0.037   3.002  -0.071 -0.5131  1.5226  0.6904
  556SOL     hw 2223   0.170   2.943  -0.029 -0.3156  1.8096  0.4740
  556SOL     vw 2224   0.087   2.962  -0.011 -0.6263  0.7163  0.2656
  557SOL     ow 2225   1.106   0.519   1.743  0.5874  0.6917 -0.1828
  557SOL     hw 2226   1.123   0.430   1.774 -1.3875  0.1989 -0.3815
  557SOL     hw 2227   1.076   0.566   1.820  1.6700  1.2356 -0.0684
  557SOL     vw 2228   1.104   0.513   1.757  0.4697  0.6985 -0.1939
  558SOL     ow 2229   2.676   6.932   6.885 -0.6645 -0.4160 -0.5821
  558SOL     hw 2230   2.679   7.006   6.946  0.3122 -0.9545  0.0492
  558SOL     hw 2231   2.622   6.867   6.929 -1.7848  0.0050 -1.2741
  558SOL     vw 2232   2.669   6.933   6.899 -0.6834 -0.4315 -0.5901
  559SOL     ow 2233   2.687   3.064   3.604 -0.2288  0.1238 -0.1667
  559SOL     hw 2234   2.683   2.982   3.653  1.6783  1.3502  2.2653
  559SOL     hw 2235   2.689   3.132   3.672 -0.2888  2.1097 -2.0606
  559SOL     vw 2236   2.687   3.062   3.620  0.0149  0.5475 -0.0956
  560SOL     ow 2237   1.263   0.840   3.810  0.0981  0.3169 -0.7118
  560SOL     hw 2238   1.266   0.839   3.715 -1.1758  2.1602 -0.8140
  560SOL     hw 2239   1.270   0.748   3.835 -0.0464 -0.2423 -2.5961
  560SOL     vw 2240   1.264   0.828   3.801 -0.0890  0.4863 -0.9738
  561SOL     ow 2241   5.991   2.483   4.926  0.1301 -0.2899 -0.4539
  561SOL     hw 2242   5.998   2.565   4.973  0.9801  0.7634 -2.2956
  561SOL     hw 2243   5.899   2.457   4.936 -0.2873  1.1637 -0.2952
  561SOL     vw 2244   5.980   2.490   4.933  0.1872  0.0409 -0.6759
  562SOL     ow 2245   1.080   0.117   0.195 -0.0636 -0.1890 -0.4409
  562SOL     hw 2246   1.142   0.152   0.132 -1.0746  2.4807 -0.1180
  562SOL     hw 2247   1.132   0.097   0.273  0.7356 -0.5066 -1.0516
  562SOL     vw 2248   1.095   0.119   0.197 -0.0916  0.1214 -0.4788
  563SOL     ow 2249   4.020   5.783   1.561 -0.3144  0.1048 -0.1121
  563SOL     hw 2250   4.051   5.713   1.502  1.5277  0.2898  0.5709
  563SOL     hw 2251   3.949   5.742   1.611 -0.8975 -0.5157 -1.3843
  563SOL     vw 2252   4.015   5.768   1.560 -0.1483  0.0474 -0.1898
  564SOL     ow 2253   4.434   2.721   3.233  0.7809 -0.2309 -0.1981
  564SOL     hw 2254   4.350   2.692   3.198 -0.4775  1.4722  1.2579
  564SOL     hw 2255   4.450   2.662   3.307  0.5294 -0.1187 -0.0536
  564SOL     vw 2256   4.425   2.709   3.238  0.5820  0.0086  0.0130
  565SOL     ow 2257   0.452   2.704   5.913  0.7287 -0.4695  0.2330
  565SOL     hw 2258   0.407   2.780   5.876  2.1717 -0.6539 -2.0720
  565SOL     hw 2259   0.387   2.635   5.915  0.3630 -0.1999 -1.2418
  565SOL     vw 2260   0.438   2.705   5.909  0.8709 -0.4582 -0.2656
  566SOL     ow 2261   0.928   0.085   0.533 -0.1882  0.0358  0.4053
  566SOL     hw 2262   0.904  -0.004   0.559 -0.7701  0.2508  0.6370
  566SOL     hw 2263   0.858   0.140   0.569  0.6095  0.6827  0.9877
  566SOL     vw 2264   0.915   0.081   0.541 -0.1597  0.1495  0.5127
  567SOL     ow 2265   3.014   1.018   5.097  0.6100  0.5399  0.5432
  567SOL     hw 2266   3.077   1.041   5.028  0.4327 -0.4623  0.0145
  567SOL     hw 2267   2.930   1.015   5.052  0.3472  0.7849  1.0125
  567SOL     vw 2268   3.012   1.021   5.082  0.5521  0.4400  0.5355
  568SOL     ow 2269   6.693   2.001   7.174  0.2465 -0.2913 -0.2431
  568SOL     hw 2270   6.761   2.031   7.234  0.8349  0.8473 -1.4488
  568SOL     hw 2271   6.689   2.068   7.106 -0.1991 -1.6821 -1.6474
  568SOL     vw 2272   6.701   2.014   7.173  0.2654 -0.3245 -0.5872
  569SOL     ow 2273   5.404   2.019   6.133  0.1407 -0.2411 -0.0010
  569SOL     hw 2274   5.336   2.044   6.070  1.0883  1.2680 -0.4624
  569SOL     hw 2275   5.380   2.064   6.214  0.0468 -0.5174  0.1259
  569SOL     vw 2276   5.392   2.028   6.135  0.2532 -0.0784 -0.0451
  570SOL     ow 2277   0.867   5.149   1.778  0.0269 -0.6401  0.2187
  570SOL     hw 2278   0.934   5.089   1.744 -0.2083 -1.4149  1.0888
  570SOL     hw 2279   0.908   5.190   1.854 -0.0665 -0.2158  0.0430
  570SOL     vw 2280   0.881   5.146   1.784 -0.0165 -0.6862  0.3104
  571SOL     ow 2281   6.884   2.465   3.747 -0.2109 -0.2494 -0.1029
  571SOL     hw 2282   6.860   2.429   3.833 -1.9058  1.1177  0.0676
  571SOL     hw 2283   6.877   2.390   3.687  1.5053 -1.3468  0.9818
  571SOL     vw 2284   6.880   2.450   3.751 -0.2081 -0.2139  0.0627
  572SOL     ow 2285   1.792   5.852   2.761 -0.4578 -0.3462 -0.5705
  572SOL     hw 2286   1.718   5.912   2.752 -0.6205 -0.6464 -1.3910
  572SOL     hw 2287   1.752   5.768   2.782 -0.5703 -0.9824 -2.9982
  572SOL     vw 2288   1.777   5.849   2.762 -0.4941 -0.4697 -0.9991
  573SOL     ow 2289   0.363   4.353   3.230 -0.0900  0.2767 -0.3711
  573SOL     hw 2290   0.359   4.399   3.146 -1.5319  1.6196  0.3642
  573SOL     hw 2291   0.382   4.421   3.294 -0.8283 -0.3895  0.5938
  573SOL     vw 2292   0.365   4.368   3.228 -0.3776  0.3660 -0.1470
  574SOL     ow 2293   2.935   2.825   7.137  0.0487  0.3620  0.2331
  574SOL     hw 2294   2.924   2.914   7.170 -1.1628  0.3700 -0.1529
  574SOL     hw 2295   3.030   2.813   7.131  0.4175  0.3105  3.8314
  574SOL     vw 2296   2.946   2.835   7.141 -0.0625  0.3562  0.6568
  575SOL     ow 2297   5.996   2.766   1.617 -0.0745 -0.0162 -0.6267
  575SOL     hw 2298   5.952   2.688   1.583  0.0819 -0.2221 -0.3545
  575SOL     hw 2299   6.070   2.732   1.667 -1.3455  0.1854  1.4944
  575SOL     vw 2300   6.000   2.751   1.619 -0.2220 -0.0167 -0.3110
  576SOL     ow 2301   6.629   5.493   4.663  0.3423 -0.0832  0.4961
  576SOL     hw 2302   6.551   5.441   4.641 -0.4604  0.6838  1.4291
  576SOL     hw 2303   6.689   5.478   4.589 -0.4670 -1.1050  0.0067
  576SOL     vw 2304   6.626   5.484   4.650  0.1297 -0.1166  0.5548
  577SOL     ow 2305   2.530   6.938   5.842 -0.0809 -0.4811  0.3921
  577SOL     hw 2306   2.572   7.000   5.901 -0.8509  0.0986  0.3539
  577SOL     hw 2307   2.447   6.980   5.819 -2.0428 -2.7617  2.6715
  577SOL     vw 2308   2.524   6.952   5.847 -0.4413 -0.7055  0.6876
  578SOL     ow 2309   4.635   7.140   1.844  0.6841 -0.2797 -0.5404
  578SOL     hw 2310   4.573   7.202   1.882 -0.0463  0.1330 -2.3380
  578SOL     hw 2311   4.695   7.194   1.793 -0.9490 -1.1079 -3.5110
  578SOL     vw 2312   4.635   7.155   1.843  0.3722 -0.3345 -1.1695
  579SOL     ow 2313   6.690   4.886   0.967  0.3587 -0.9407 -0.8103
  579SOL     hw 2314   6.774   4.924   0.942 -0.3206  0.4674 -1.0357
  579SOL     hw 2315   6.677   4.815   0.903  0.1112  0.6152 -2.5886
  579SOL     vw 2316   6.699   4.882   0.955  0.2363 -0.5498 -1.0746
  580SOL     ow 2317   3.414   6.995   6.385 -0.3457  0.5258  0.7922
  580SOL     hw 2318   3.387   7.082   6.416  0.2106  1.8376 -2.0894
  580SOL     hw 2319   3.367   6.984   6.302  0.2257 -1.6240  0.6946
  580SOL     vw 2320   3.404   7.005   6.378 -0.1971  0.4153  0.3991
  581SOL     ow 2321   5.614   1.861   3.211 -0.1752 -0.2235 -0.8574
  581SOL     hw 2322   5.628   1.823   3.298  1.2477 -1.3916 -1.5450
  581SOL     hw 2323   5.620   1.956   3.224 -1.1735 -0.3193  0.4862
  581SOL     vw 2324   5.616   1.868   3.224 -0.1190 -0.3902 -0.7709
  582SOL     ow 2325   3.604   1.910   1.440  0.1113  0.3137 -0.0792
  582SOL     hw 2326   3.528   1.932   1.387 -0.3106 -0.2270  0.2871
  582SOL     hw 2327   3.635   1.826   1.405 -1.4618 -1.1671  1.8292
  582SOL     vw 2328   3.598   1.902   1.429 -0.1519  0.0470  0.2209
  583SOL     ow 2329   5.066   4.553   4.401 -0.2169 -0.4030  0.3541
  583SOL     hw 2330   5.081   4.623   4.338 -0.1900  0.0136  0.8234
  583SOL     hw 2331   5.150   4.544   4.447 -0.2261 -0.7315  0.3093
  583SOL     vw 2332   5.079   4.561   4.398 -0.2146 -0.3912  0.4098
  584SOL     ow 2333   0.896   6.424   1.966 -0.2636  0.2251 -0.0026
  584SOL     hw 2334   0.857   6.414   2.053  1.3462 -0.5528  0.6635
  584SOL     hw 2335   0.967   6.361   1.964 -1.7740 -1.5792 -2.8505
  584SOL     vw 2336   0.900   6.415   1.977 -0.2504 -0.1154 -0.2905
  585SOL     ow 2337   5.487   5.107   5.917 -0.0892  0.8040 -0.5784
  585SOL     hw 2338   5.566   5.099   5.863  1.3293  3.5146  0.8526
  585SOL     hw 2339   5.520   5.130   6.003 -2.4352  0.1001  0.5774
  585SOL     vw 2340   5.502   5.109   5.921 -0.2117  1.0688 -0.2370
  586SOL     ow 2341   2.754   3.874   6.324  0.1610  0.2327 -0.0900
  586SOL     hw 2342   2.706   3.957   6.322 -1.0643 -0.3239  2.3374
  586SOL     hw 2343   2.698   3.813   6.275 -0.4932  0.1412  0.7502
  586SOL     vw 2344   2.740   3.877   6.317 -0.0870  0.1471  0.3412
  587SOL     ow 2345   0.573   1.519   3.342  0.0900 -0.1630 -0.2687
  587SOL     hw 2346   0.587   1.439   3.291 -0.7883 -0.6416  0.2242
  587SOL     hw 2347   0.660   1.543   3.374  0.2167 -1.5074  0.4499
  587SOL     vw 2348   0.587   1.512   3.339 -0.0092 -0.4035 -0.1090
  588SOL     ow 2349   0.477   3.330   1.912  0.4054  0.1234 -0.2803
  588SOL     hw 2350   0.411   3.261   1.916  1.3696 -0.7537  2.4694
  588SOL     hw 2351   0.426   3.411   1.903 -0.7666 -0.7684 -2.7402
  588SOL     vw 2352   0.462   3.332   1.911  0.3780 -0.1099 -0.2419
  589SOL     ow 2353   6.965   3.193   0.312 -0.2450 -0.3463 -0.1168
  589SOL     hw 2354   7.048   3.161   0.349  1.7497 -0.3438 -4.0211
  589SOL     hw 2355   6.986   3.281   0.279 -2.0180 -0.0654 -0.6042
  589SOL     vw 2356   6.979   3.201   0.313 -0.2158 -0.3089 -0.6962
  590SOL     ow 2357   1.271   4.711   4.916 -0.0604  0.1323 -0.6205
  590SOL     hw 2358   1.209   4.680   4.982  1.2563 -3.2402 -0.7675
  590SOL     hw 2359   1.348   4.738   4.967 -0.6090  1.7842 -0.6026
  590SOL     vw 2360   1.273   4.711   4.932  0.0409 -0.0949 -0.6375
  591SOL     ow 2361   0.267   6.668   3.778 -0.4865  0.7580 -0.1992
  591SOL     hw 2362   0.224   6.585   3.799 -2.6766  1.9067  0.1295
  591SOL     hw 2363   0.246   6.684   3.686  1.8407 -0.0714 -0.9565
  591SOL     vw 2364   0.259   6.659   3.769 -0.4684  0.7999 -0.2559
  592SOL     ow 2365   3.608   5.039   2.078 -0.2995  0.0048  0.0378
  592SOL     hw 2366   3.519   5.067   2.097 -0.5364 -0.6951 -0.0112
  592SOL     hw 2367   3.655   5.050   2.160 -0.6531 -0.4665  0.3094
  592SOL     vw 2368   3.602   5.044   2.091 -0.3775 -0.1497  0.0674
  593SOL     ow 2369   4.273   3.064   0.733 -0.5715 -0.1059  0.3464
  593SOL     hw 2370   4.353   3.060   0.786 -0.9348  1.2599  1.0429
  593SOL     hw 2371   4.211   3.008   0.779 -0.0447 -1.1518 -0.1806
  593SOL     vw 2372   4.276   3.056   0.746 -0.5500 -0.0635  0.3687
  594SOL     ow 2373   0.128   4.387   5.059  0.5616  0.1877  0.3658
  594SOL     hw 2374   0.076   4.432   5.125 -1.6569 -1.0161 -0.4446
  594SOL     hw 2375   0.067   4.371   4.987  2.5291  0.2420 -1.4292
  594SOL     vw 2376   0.113   4.390   5.058  0.5285  0.0360  0.0222
  595SOL     ow 2377   2.631   2.008   4.045 -0.4232  0.3979 -0.5501
  595SOL     hw 2378   2.685   2.081   4.072 -1.5906  0.5088  1.6835
  595SOL     hw 2379   2.587   2.039   3.965 -0.8535  2.1269  0.3185
  595SOL     vw 2380   2.632   2.021   4.038 -0.6338  0.6407 -0.1407
  596SOL     ow 2381   0.693   7.063   6.086 -0.6163 -0.0658  0.4426
  596SOL     hw 2382   0.758   7.087   6.020  0.1544  2.6255  2.0306
  596SOL     hw 2383   0.670   6.972   6.065  0.6357  0.2001 -2.5898
  596SOL     vw 2384   0.699   7.054   6.075 -0.3494  0.3247  0.2518
  597SOL     ow 2385   7.051   4.421   4.131  0.7952 -0.2089 -0.1365
  597SOL     hw 2386   7.008   4.435   4.216  2.0142  0.2264  0.4217
  597SOL     hw 2387   7.116   4.491   4.125  2.6870 -1.8871 -0.1240
  597SOL     vw 2388   7.054   4.432   4.141  1.2054 -0.3729 -0.0613
  598SOL     ow 2389   3.594   4.593   4.802 -0.1734 -0.3402  0.7649
  598SOL     hw 2390   3.669   4.651   4.793 -0.5353 -0.0572 -0.7746
  598SOL     hw 2391   3.632   4.506   4.816  0.3751  0.2041  3.0887
  598SOL     vw 2392   3.609   4.589   4.803 -0.1488 -0.2310  0.8683
  599SOL     ow 2393   4.049   3.397   4.495 -0.2102  0.6182  0.1175
  599SOL     hw 2394   3.975   3.352   4.536 -1.2795  1.3673 -0.9292
  599SOL     hw 2395   4.047   3.485   4.531 -0.2949  0.8656 -0.4833
  599SOL     vw 2396   4.039   3.403   4.506 -0.3626  0.7496 -0.1001
  600SOL     ow 2397   2.428   2.397   4.028  0.0683  0.0069  0.5978
  600SOL     hw 2398   2.481   2.386   4.108 -2.2257  0.1977  2.2365
  600SOL     hw 2399   2.338   2.389   4.058 -0.9754  2.1177 -1.6329
  600SOL     vw 2400   2.423   2.395   4.043 -0.3721  0.3105  0.5195
  601SOL     ow 2401   6.893   1.173   0.724  0.1380 -0.1384 -0.2317
  601SOL     hw 2402   6.936   1.238   0.779  2.5750 -0.5289 -1.5547
  601SOL     hw 2403   6.937   1.091   0.746 -2.3609 -1.2933  0.8590
  601SOL     vw 2404   6.904   1.171   0.734  0.1302 -0.3424 -0.2623
  602SOL     ow 2405   3.724   6.615   0.296 -0.4741 -0.5729  0.0797
  602SOL     hw 2406   3.744   6.544   0.358 -0.3305 -1.4445 -0.9309
  602SOL     hw 2407   3.638   6.648   0.323 -0.4472 -0.9939  0.6916
  602SOL     vw 2408   3.715   6.610   0.307 -0.4516 -0.7434  0.0271
  603SOL     ow 2409   3.622   2.980   6.690 -0.2779  0.0419  0.4032
  603SOL     hw 2410   3.560   2.957   6.620 -0.0995 -0.5362  0.4271
  603SOL     hw 2411   3.637   3.074   6.679  0.0756 -0.1160 -0.6022
  603SOL     vw 2412   3.616   2.989   6.679 -0.2078 -0.0552  0.2737
  604SOL     ow 2413   3.931   2.089   3.828  0.4253  1.1504 -0.1842
  604SOL     hw 2414   4.003   2.048   3.876  0.5123  1.5458  0.0295
  604SOL     hw 2415   3.880   2.016   3.793  2.1430  0.8475 -2.2303
  604SOL     vw 2416   3.934   2.074   3.830  0.6635  1.1626 -0.4262
  605SOL     ow 2417   3.135   0.449   0.281 -0.5459  0.5793  0.3404
  605SOL     hw 2418   3.131   0.543   0.299 -1.6691  0.2784  1.8941
  605SOL     hw 2419   3.083   0.409   0.352 -0.8205 -1.1432 -0.7799
  605SOL     vw 2420   3.127   0.456   0.293 -0.7304  0.3124  0.3976
  606SOL     ow 2421   6.243   5.722   3.999  1.1586 -0.3493 -0.7892
  606SOL     hw 2422   6.303   5.699   3.927  3.5729  0.8096  0.7176
  606SOL     hw 2423   6.255   5.652   4.063  0.1756 -0.5810 -0.8431
  606SOL     vw 2424   6.253   5.710   3.998  1.3473 -0.2270 -0.5976
  607SOL     ow 2425   6.584   4.979   3.969 -0.5804 -0.2139  0.3611
  607SOL     hw 2426   6.657   4.986   3.907 -0.5266 -1.2783  0.2720
  607SOL     hw 2427   6.605   4.901   4.021 -2.7812 -1.9834 -1.2114
  607SOL     vw 2428   6.597   4.969   3.968 -0.8638 -0.5879  0.1420
  608SOL     ow 2429   4.831   6.827   4.797 -0.3960 -0.2369 -0.2744
  608SOL     hw 2430   4.763   6.872   4.849 -1.4861 -0.5453 -1.3801
  608SOL     hw 2431   4.897   6.894   4.781  0.1884 -0.2362  1.8328
  608SOL     vw 2432   4.830   6.842   4.802 -0.4628 -0.2775 -0.1419
  609SOL     ow 2433   3.997   2.330   4.462  0.2934 -0.8298  0.2604
  609SOL     hw 2434   4.043   2.256   4.502 -0.1207 -1.3343 -0.1725
  609SOL     hw 2435   4.063   2.399   4.454  0.7129 -1.1954  0.5688
  609SOL     vw 2436   4.012   2.329   4.466  0.2940 -0.9446  0.2441
  610SOL     ow 2437   5.207   2.688   0.589  0.3895  0.2778  0.3610
  610SOL     hw 2438   5.192   2.718   0.679  2.3540 -0.9234  1.1641
  610SOL     hw 2439   5.170   2.600   0.586 -3.5885  1.8143 -1.3997
  610SOL     vw 2440   5.200   2.680   0.601  0.1237  0.3221  0.2347
  611SOL     ow 2441   1.242   3.820   2.786 -0.2281 -0.6116  0.0587
  611SOL     hw 2442   1.328   3.780   2.796 -0.4954 -1.3026 -0.3666
  611SOL     hw 2443   1.179   3.749   2.802 -0.7113 -0.2627 -0.2379
  611SOL     vw 2444   1.245   3.805   2.790 -0.3272 -0.6568 -0.0366
  612SOL     ow 2445   6.421   5.023   1.039  0.2809 -0.1112  0.0445
  612SOL     hw 2446   6.449   4.963   1.108 -0.5883 -0.5533  0.0340
  612SOL     hw 2447   6.399   5.104   1.084  1.8518  0.3622  0.0140
  612SOL     vw 2448   6.421   5.026   1.054  0.3734 -0.1070  0.0391
  613SOL     ow 2449   0.727   4.122   0.883  0.3229  0.1669  0.2276
  613SOL     hw 2450   0.636   4.112   0.856  0.9504  1.7582 -3.0063
  613SOL     hw 2451   0.738   4.216   0.897  1.8194  0.2427 -1.1717
  613SOL     vw 2452   0.717   4.133   0.881  0.6031  0.3867 -0.3837
  614SOL     ow 2453   2.693   4.917   4.931 -1.1181 -0.6077  0.5968
  614SOL     hw 2454   2.759   4.904   4.863 -2.5651 -1.1109 -0.7680
  614SOL     hw 2455   2.732   4.877   5.009  1.5698  2.0170  0.7740
  614SOL     vw 2456   2.707   4.910   4.933 -0.9543 -0.3276  0.4404
  615SOL     ow 2457   1.079   4.596   5.098  0.2193  0.4121  0.4016
  615SOL     hw 2458   1.035   4.519   5.132 -0.7985  2.1743  3.5484
  615SOL     hw 2459   1.166   4.594   5.138  1.1250 -0.2914 -1.4902
  615SOL     vw 2460   1.085   4.586   5.108  0.2044  0.5515  0.5674
  616SOL     ow 2461   0.732   1.778   4.595  0.7010 -0.2536  0.2171
  616SOL     hw 2462   0.783   1.726   4.657  0.2069  0.8784  1.6177
  616SOL     hw 2463   0.693   1.847   4.648 -0.3696  0.3012 -1.2396
  616SOL     vw 2464   0.734   1.780   4.610  0.4945 -0.0310  0.2098
  617SOL     ow 2465   1.954   4.333   3.937 -0.5088  0.3402 -0.0662
  617SOL     hw 2466   2.042   4.366   3.954  0.4400 -0.6001 -2.6563
  617SOL     hw 2467   1.902   4.363   4.012  1.0267  4.5036 -0.4178
  617SOL     vw 2468   1.959   4.341   3.949 -0.1810  0.7653 -0.4543
  618SOL     ow 2469   3.100   0.712   0.208 -0.7532  0.6787  0.4095
  618SOL     hw 2470   3.124   0.675   0.123 -1.8799 -1.1993  0.8491
  618SOL     hw 2471   3.004   0.705   0.211 -0.8781  2.1520  1.2389
  618SOL     vw 2472   3.090   0.706   0.197 -0.9185  0.6253  0.5769
  619SOL     ow 2473   1.344   3.371   0.621 -0.4286 -0.0833 -0.1164
  619SOL     hw 2474   1.342   3.406   0.532 -1.8381 -0.2546 -0.1789
  619SOL     hw 2475   1.410   3.423   0.666  0.2662  0.0414 -1.2462
  619SOL     vw 2476   1.352   3.382   0.615 -0.5230 -0.0894 -0.2737
  620SOL     ow 2477   0.510   2.388   3.497  0.2638 -0.1239  0.3997
  620SOL     hw 2478   0.507   2.386   3.593 -4.3610  1.6759  0.5859
  620SOL     hw 2479   0.571   2.459   3.477  1.5595 -0.7380  1.9536
  620SOL     vw 2480   0.518   2.397   3.507 -0.1755  0.0327  0.6292
  621SOL     ow 2481   6.818   6.506   0.438 -0.1803 -0.5222 -0.2696
  621SOL     hw 2482   6.896   6.541   0.395 -1.7929 -1.1370 -4.1161
  621SOL     hw 2483   6.768   6.583   0.464  1.3576 -0.1268  1.7521
  621SOL     vw 2484   6.822   6.520   0.435 -0.1903 -0.5510 -0.5104
  622SOL     ow 2485   2.136   3.020   7.148 -0.1644 -0.1978 -0.6398
  622SOL     hw 2486   2.051   3.051   7.118 -0.2292  1.8304  1.3515
  622SOL     hw 2487   2.152   3.069   7.229  1.8758 -2.1817  0.2669
  622SOL     vw 2488   2.127   3.031   7.155  0.0963 -0.1920 -0.2573
  623SOL     ow 2489   5.320   0.066   1.237 -0.2248 -0.6702  0.3871
  623SOL     hw 2490   5.280   0.139   1.189 -0.6987 -0.1460  1.5479
  623SOL     hw 2491   5.332   0.099   1.326  2.7214 -0.8531  0.1519
  623SOL     vw 2492   5.316   0.080   1.242  0.1016 -0.6252  0.5092
  624SOL     ow 2493   0.898   4.440   5.212 -0.0416  0.0863 -0.2049
  624SOL     hw 2494   0.919   4.348   5.200  0.6493  0.1995  0.0710
  624SOL     hw 2495   0.835   4.442   5.284 -1.7558 -0.3348 -1.6216
  624SOL     vw 2496   0.893   4.428   5.220 -0.1766  0.0455 -0.3552
  625SOL     ow 2497   4.248   4.953   2.259  0.2874  0.3064  0.4072
  625SOL     hw 2498   4.301   4.877   2.282  0.4046  0.1711 -0.2875
  625SOL     hw 2499   4.196   4.971   2.338 -0.7244 -1.3186  0.1647
  625SOL     vw 2500   4.248   4.945   2.273  0.1693  0.0741  0.2835
  626SOL     ow 2501   5.193   2.385   0.728 -0.2622  0.4478 -0.0493
  626SOL     hw 2502   5.133   2.317   0.758 -1.9486  2.5873  1.7652
  626SOL     hw 2503   5.253   2.340   0.670 -2.6218 -2.1532 -0.6718
  626SOL     vw 2504   5.193   2.370   0.725 -0.7963  0.3871  0.1080
  627SOL     ow 2505   5.377   3.471   7.130 -0.3565 -0.2677 -0.1480
  627SOL     hw 2506   5.446   3.516   7.083  0.8147 -1.6695  0.1646
  627SOL     hw 2507   5.357   3.528   7.204 -1.2350  1.2700 -1.5144
  627SOL     vw 2508   5.383   3.484   7.134 -0.3178 -0.2497 -0.2871
  628SOL     ow 2509   2.825   4.144   4.671 -0.5503 -0.9230 -0.4654
  628SOL     hw 2510   2.910   4.137   4.628 -0.9966  0.3392 -1.6142
  628SOL     hw 2511   2.846   4.162   4.763  0.5038  1.8901 -1.1569
  628SOL     vw 2512   2.839   4.145   4.677 -0.4702 -0.3858 -0.7083
  629SOL     ow 2513   6.813   3.043   5.272 -0.1479 -0.2375  0.8471
  629SOL     hw 2514   6.729   3.090   5.282 -0.4868 -0.7802  0.5597
  629SOL     hw 2515   6.872   3.088   5.333 -0.2859  0.9749  0.1274
  629SOL     vw 2516   6.809   3.055   5.282 -0.2110 -0.1493  0.7141
  630SOL     ow 2517   4.265   2.914   0.502  0.0620 -0.0410  0.2181
  630SOL     hw 2518   4.303   2.950   0.582  0.1814 -2.6571  1.4583
  630SOL     hw 2519   4.286   2.821   0.506 -3.4914 -1.0446 -0.7319
  630SOL     vw 2520   4.273   2.906   0.513 -0.3910 -0.5186  0.2564
  631SOL     ow 2521   3.913   0.994   4.649  1.1439  0.3616 -0.2084
  631SOL     hw 2522   3.856   1.061   4.613  2.9351 -0.1138 -4.3892
  631SOL     hw 2523   3.964   1.039   4.716 -0.8149  1.9154  0.3360
  631SOL     vw 2524   3.912   1.009   4.653  1.1216  0.5039 -0.6881
  632SOL     ow 2525   1.536   2.355   6.150  0.2410  0.2208 -0.4973
  632SOL     hw 2526   1.452   2.385   6.117 -1.2579 -1.1661  1.7712
  632SOL     hw 2527   1.564   2.425   6.210  1.1229  1.0211 -1.7976
  632SOL     vw 2528   1.529   2.368   6.153  0.1596  0.1433 -0.3695
  633SOL     ow 2529   4.743   6.016   1.417  0.4346  0.3847  0.1953
  633SOL     hw 2530   4.761   6.061   1.500 -0.2654  2.6594 -0.8075
  633SOL     hw 2531   4.663   6.057   1.385 -0.0404 -1.3775 -1.0046
  633SOL     vw 2532   4.735   6.027   1.424  0.2792  0.4523 -0.0953
  634SOL     ow 2533   6.302   3.040   6.968 -0.1975 -0.0608 -0.3687
  634SOL     hw 2534   6.355   3.098   7.022  0.6756  0.3109 -1.5830
  634SOL     hw 2535   6.355   2.962   6.957 -0.3607 -0.1290 -0.6955
  634SOL     vw 2536   6.316   3.038   6.973 -0.1040 -0.0207 -0.5717
  635SOL     ow 2537   2.321   4.580   2.998 -0.6428  0.3984 -0.0033
  635SOL     hw 2538   2.334   4.675   2.998 -0.5187  0.3865 -0.9552
  635SOL     hw 2539   2.229   4.568   3.020 -0.5241  0.7097  0.7019
  635SOL     vw 2540   2.311   4.591   3.001 -0.6107  0.4380 -0.0361
  636SOL     ow 2541   3.940   4.132   1.701 -0.0384 -0.1831 -0.4847
  636SOL     hw 2542   3.957   4.223   1.678  0.5586 -0.4779 -1.2614
  636SOL     hw 2543   3.845   4.128   1.711 -0.7829 -0.4134 -5.1432
  636SOL     vw 2544   3.929   4.143   1.699 -0.0578 -0.2522 -1.2018
  637SOL     ow 2545   6.426   1.859   7.208  0.8655 -0.3371  0.4806
  637SOL     hw 2546   6.519   1.881   7.213  0.6296  0.6310  0.8433
  637SOL     hw 2547   6.398   1.890   7.122  0.7552 -0.1131  0.5958
  637SOL     vw 2548   6.434   1.866   7.197  0.8197 -0.1798  0.5436
  638SOL     ow 2549   2.363   2.425   3.712  0.4515 -0.1839  0.2609
  638SOL     hw 2550   2.374   2.382   3.627  1.1868 -2.4014  1.3813
  638SOL     hw 2551   2.421   2.501   3.708  0.1958 -0.0306 -1.3245
  638SOL     vw 2552   2.372   2.429   3.700  0.5147 -0.4562  0.1996
  639SOL     ow 2553   1.781   4.953   1.337  0.7976  0.0070  0.4606
  639SOL     hw 2554   1.843   5.025   1.345  0.2527  0.8621 -2.0784
  639SOL     hw 2555   1.836   4.877   1.315  1.1560  0.1680  0.7812
  639SOL     vw 2556   1.797   4.952   1.335  0.7730  0.1411  0.1679
  640SOL     ow 2557   5.549   4.622   0.924 -0.2601 -0.6389 -0.2056
  640SOL     hw 2558   5.643   4.622   0.939  0.0883 -1.9012 -2.0628
  640SOL     hw 2559   5.528   4.711   0.896  0.7929 -0.8886 -1.8860
  640SOL     vw 2560   5.558   4.634   0.923 -0.0753 -0.8385 -0.6723
  641SOL     ow 2561   6.004   4.648   2.024 -0.1397  0.2136 -0.5007
  641SOL     hw 2562   5.959   4.679   2.103 -0.1019 -2.2321  0.5782
  641SOL     hw 2563   5.933   4.629   1.962 -0.2584  0.9110 -0.5812
  641SOL     vw 2564   5.988   4.649   2.026 -0.1502 -0.0169 -0.3691
  642SOL     ow 2565   6.521   6.057   4.510 -0.1699 -0.2865  0.4043
  642SOL     hw 2566   6.484   6.073   4.596 -1.1151  0.5070 -0.1351
  642SOL     hw 2567   6.613   6.081   4.518 -0.4685  0.6973  0.9371
  642SOL     vw 2568   6.528   6.062   4.522 -0.3338 -0.0520  0.4036
  643SOL     ow 2569   2.524   4.035   6.855  0.1970 -0.2053 -0.3472
  643SOL     hw 2570   2.614   4.046   6.823 -0.2713  0.5047 -1.4796
  643SOL     hw 2571   2.512   3.940   6.857  1.3794 -0.3603  1.0498
  643SOL     vw 2572   2.534   4.024   6.851  0.2913 -0.1323 -0.3123
  644SOL     ow 2573   6.999   4.486   4.400  0.5125  0.0865 -0.1568
  644SOL     hw 2574   6.906   4.495   4.423  0.7072 -1.9167  1.8257
  644SOL     hw 2575   7.045   4.539   4.465  0.7742  1.3601 -1.3545
  644SOL     vw 2576   6.992   4.494   4.412  0.5727 -0.0095 -0.0532
  645SOL     ow 2577   6.062   7.137   4.278 -0.3809 -1.3962  0.3298
  645SOL     hw 2578   5.967   7.128   4.267 -0.8183  0.9696  1.6696
  645SOL     hw 2579   6.080   7.096   4.362 -0.7117  0.6078  1.4230
  645SOL     vw 2580   6.052   7.130   4.287 -0.4826 -0.8197  0.6506
  646SOL     ow 2581   2.572   3.268   6.261  0.5436 -0.3922  0.0956
  646SOL     hw 2582   2.499   3.268   6.199 -1.3099 -2.6535  2.0802
  646SOL     hw 2583   2.535   3.307   6.341  1.1962 -2.2875  1.3982
  646SOL     vw 2584   2.558   3.273   6.264  0.3850 -0.9403  0.5293
  647SOL     ow 2585   4.777   2.756   6.083 -0.3445  0.2093 -0.8093
  647SOL     hw 2586   4.736   2.842   6.090 -1.7879 -0.5230  0.1989
  647SOL     hw 2587   4.731   2.714   6.010  1.3219  0.7504 -2.2480
  647SOL     vw 2588   4.765   2.762   6.074 -0.3152  0.1841 -0.8659
  648SOL     ow 2589   4.998   6.350   5.297 -0.1146  0.3353 -0.5378
  648SOL     hw 2590   5.058   6.284   5.331  0.5499  0.4552 -1.4345
  648SOL     hw 2591   4.916   6.303   5.282 -0.1112  0.0661  0.2695
  648SOL     vw 2592   4.995   6.335   5.300 -0.0267  0.3154 -0.5500
  649SOL     ow 2593   3.092   3.908   6.379 -0.1011  0.4852  0.0039
  649SOL     hw 2594   3.150   3.913   6.303 -0.1250  0.5699 -0.0079
  649SOL     hw 2595   3.150   3.887   6.452  0.2077  2.3504  0.3225
  649SOL     vw 2596   3.107   3.906   6.379 -0.0637  0.7424  0.0441
  650SOL     ow 2597   1.270   1.424   2.405  0.7051 -0.0012  0.3291
  650SOL     hw 2598   1.231   1.356   2.461  0.0433 -0.3059 -0.4754
  650SOL     hw 2599   1.360   1.394   2.391 -0.4051 -2.4850 -2.5844
  650SOL     vw 2600   1.277   1.411   2.411  0.4714 -0.3691 -0.1613
  651SOL     ow 2601   3.567   5.667   4.849  0.0980  0.1615 -0.1008
  651SOL     hw 2602   3.473   5.652   4.836 -0.3069  0.7240  1.7723
  651SOL     hw 2603   3.571   5.752   4.894  1.2381 -1.1754  2.5643
  651SOL     vw 2604   3.555   5.676   4.853  0.1949  0.0594  0.4976
  652SOL     ow 2605   2.951   3.443   5.544  0.2386  0.2760 -0.4330
  652SOL     hw 2606   2.862   3.459   5.573 -0.0092 -2.3611  0.5180
  652SOL     hw 2607   2.947   3.452   5.448 -1.6648 -2.1252 -0.6619
  652SOL     vw 2608   2.939   3.447   5.535 -0.0453 -0.3887 -0.3378
  653SOL     ow 2609   1.224   3.733   3.349 -0.1200  0.4267  0.0820
  653SOL     hw 2610   1.184   3.772   3.427 -1.3842  0.9910 -0.8327
  653SOL     hw 2611   1.167   3.759   3.277  0.5842 -0.7758 -0.9344
  653SOL     vw 2612   1.211   3.742   3.350 -0.1939  0.3425 -0.1727
  654SOL     ow 2613   5.934   5.871   1.895  0.0775 -0.0540 -0.3858
  654SOL     hw 2614   5.951   5.886   1.988  0.2951  0.9865 -0.5878
  654SOL     hw 2615   6.021   5.864   1.855  0.0464  1.9525 -0.8880
  654SOL     vw 2616   5.948   5.872   1.902  0.1020  0.3479 -0.4787
  655SOL     ow 2617   5.097   2.447   1.627  0.0456 -0.3175 -0.1949
  655SOL     hw 2618   5.053   2.384   1.684 -1.2825  2.6987  2.4062
  655SOL     hw 2619   5.168   2.483   1.681  1.4730 -0.3201 -1.9907
  655SOL     vw 2620   5.100   2.444   1.642  0.0587  0.0801 -0.0887
  656SOL     ow 2621   0.776   7.086   5.224 -0.3555 -0.2609 -0.4272
  656SOL     hw 2622   0.718   7.038   5.282 -1.5699  2.9696  1.3118
  656SOL     hw 2623   0.864   7.054   5.246 -1.0834 -1.6589  0.5777
  656SOL     vw 2624   0.780   7.076   5.235 -0.6118 -0.0191 -0.0651
  657SOL     ow 2625   4.350   3.057   6.469 -0.3494  0.2039  0.0892
  657SOL     hw 2626   4.268   3.106   6.468 -0.7334 -0.4032 -1.8747
  657SOL     hw 2627   4.347   3.008   6.551 -2.3081 -0.3752 -0.2782
  657SOL     vw 2628   4.339   3.057   6.480 -0.6583  0.0474 -0.2184
  658SOL     ow 2629   4.230   5.651   1.013  0.0353  0.3399 -0.0662
  658SOL     hw 2630   4.235   5.734   0.966  1.2516  1.5895  2.0866
  658SOL     hw 2631   4.257   5.672   1.102  1.8142 -2.6504  0.2507
  658SOL     vw 2632   4.234   5.665   1.019  0.4303  0.1101  0.2596
  659SOL     ow 2633   2.058   1.633   5.003 -0.0131  0.1292 -0.3564
  659SOL     hw 2634   2.047   1.572   4.929 -1.0303 -0.2370  0.0800
  659SOL     hw 2635   2.101   1.709   4.964  0.6102 -0.5634 -1.0694
  659SOL     vw 2636   2.062   1.635   4.988 -0.0650 -0.0105 -0.3929
  660SOL     ow 2637   4.323   6.228   2.053  0.4222 -0.4299  0.1653
  660SOL     hw 2638   4.380   6.304   2.038 -0.4926  1.0799  3.4485
  660SOL     hw 2639   4.238   6.256   2.019  0.7236 -1.1958 -1.2802
  660SOL     vw 2640   4.319   6.242   2.046  0.3414 -0.3314  0.4078
  661SOL     ow 2641   1.835   4.289   0.905 -0.2949  0.5237  0.3129
  661SOL     hw 2642   1.928   4.283   0.922 -0.7602 -2.0574  2.4259
  661SOL     hw 2643   1.827   4.274   0.810  1.3587  0.4100  0.1662
  661SOL     vw 2644   1.846   4.286   0.895 -0.1380  0.1681  0.5723
  662SOL     ow 2645   0.362   2.311   6.844  0.5157  0.0643  0.0152
  662SOL     hw 2646   0.377   2.406   6.845  0.7890  0.0182  0.3933
  662SOL     hw 2647   0.273   2.302   6.811  0.4478  0.4602  0.0790
  662SOL     vw 2648   0.353   2.322   6.840  0.5428  0.1105  0.0737
  663SOL     ow 2649   4.518   0.995   0.831  0.8323  0.4295 -0.4211
  663SOL     hw 2650   4.586   1.025   0.770 -0.9081  0.4510 -2.4696
  663SOL     hw 2651   4.461   1.071   0.843  0.9444  0.3073  0.9716
  663SOL     vw 2652   4.520   1.009   0.824  0.6175  0.4162 -0.5077
  664SOL     ow 2653   1.134   4.986   2.316 -0.1856  0.1314 -0.4357
  664SOL     hw 2654   1.222   5.008   2.286 -0.4974  3.0076  0.4556
  664SOL     hw 2655   1.077   5.013   2.244 -0.4156 -0.9852 -0.6863
  664SOL     vw 2656   1.138   4.993   2.303 -0.2571  0.3633 -0.3512
  665SOL     ow 2657   2.338   5.918   5.771  0.0849  0.1358 -0.1956
  665SOL     hw 2658   2.357   6.006   5.803 -2.9451  0.6701  0.5031
  665SOL     hw 2659   2.394   5.860   5.823  2.3962  1.5969 -0.9117
  665SOL     vw 2660   2.348   5.922   5.782 -0.0100  0.3991 -0.1976
  666SOL     ow 2661   1.947   6.072   1.386  0.8946 -0.2154 -0.6694
  666SOL     hw 2662   1.865   6.027   1.365  0.5792  1.2597 -3.0594
  666SOL     hw 2663   1.920   6.146   1.441  0.9931 -1.0504  0.5485
  666SOL     vw 2664   1.933   6.076   1.390  0.8660 -0.1309 -0.8241
  667SOL     ow 2665   0.396   5.195   2.351  0.2890 -0.0310  0.1870
  667SOL     hw 2666   0.333   5.177   2.282  1.6405  1.0594 -1.4088
  667SOL     hw 2667   0.429   5.108   2.376 -0.8609 -0.5021  0.1441
  667SOL     vw 2668   0.392   5.181   2.345  0.3156  0.0510 -0.0291
  668SOL     ow 2669   2.410   5.677   5.642  0.2025 -0.1350  0.2067
  668SOL     hw 2670   2.354   5.601   5.658  1.5384 -1.4771 -1.1795
  668SOL     hw 2671   2.478   5.672   5.708  0.6167 -0.5039 -0.2374
  668SOL     vw 2672   2.411   5.666   5.653  0.4334 -0.3607 -0.0348
  669SOL     ow 2673   0.935   4.539   4.117 -0.2167 -0.0656 -0.0717
  669SOL     hw 2674   0.972   4.624   4.091 -0.9690  0.4020  0.3724
  669SOL     hw 2675   0.999   4.475   4.085  1.1446  0.7393  0.9259
  669SOL     vw 2676   0.949   4.542   4.110 -0.1363  0.1023  0.1185
  670SOL     ow 2677   7.217   6.329   4.593 -0.7593 -1.5514  0.0867
  670SOL     hw 2678   7.227   6.314   4.687 -2.0862 -1.1991  0.2940
  670SOL     hw 2679   7.305   6.313   4.557  0.5117  1.0868  1.7372
  670SOL     vw 2680   7.230   6.325   4.600 -0.7665 -1.1568  0.3321
  671SOL     ow 2681   1.804   0.550   2.738 -0.2166  0.4369 -0.0503
  671SOL     hw 2682   1.774   0.629   2.782 -0.5526 -1.0124  2.5778
  671SOL     hw 2683   1.896   0.543   2.763 -1.1379 -2.0640  3.4822
  671SOL     vw 2684   1.812   0.559   2.747 -0.3824 -0.0843  0.7626
  672SOL     ow 2685   7.225   7.177   1.215 -0.5320 -0.1132  0.1520
  672SOL     hw 2686   7.300   7.123   1.241  0.3166  0.0653 -1.7451
  672SOL     hw 2687   7.223   7.248   1.280 -0.2235 -1.1189  1.3037
  672SOL     vw 2688   7.234   7.179   1.227 -0.3793 -0.2222  0.0536
  673SOL     ow 2689   5.742   6.435   3.054 -0.3991 -0.1888  0.1569
  673SOL     hw 2690   5.829   6.432   3.095 -1.2613 -0.4214  2.1174
  673SOL     hw 2691   5.749   6.379   2.977  1.3432  0.2762 -0.0469
  673SOL     vw 2692   5.754   6.427   3.049 -0.2832 -0.1583  0.3885
  674SOL     ow 2693   0.337   5.670   4.238  0.8320  0.5827 -0.9194
  674SOL     hw 2694   0.365   5.582   4.213 -1.4555 -0.9928  1.5287
  674SOL     hw 2695   0.358   5.677   4.332 -2.6077  0.9561 -0.0302
  674SOL     vw 2696   0.343   5.660   4.247  0.0764  0.4241 -0.4790
  675SOL     ow 2697   5.491   0.032   4.547  0.4450 -0.1350 -0.0304
  675SOL     hw 2698   5.460  -0.058   4.540  0.8972 -0.3682  0.9320
  675SOL     hw 2699   5.461   0.073   4.466  0.8513 -1.3284 -0.8115
  675SOL     vw 2700   5.483   0.026   4.535  0.5581 -0.3233 -0.0067
  676SOL     ow 2701   3.009   1.744   6.024  0.0438 -0.4166 -0.8067
  676SOL     hw 2702   3.062   1.719   6.100  1.1968  0.9522 -1.1066
  676SOL     hw 2703   3.026   1.676   5.959  1.0308 -0.3014 -0.6906
  676SOL     vw 2704   3.018   1.732   6.026  0.3262 -0.2208 -0.8311
  677SOL     ow 2705   6.672   3.968   5.175 -0.6191  0.2085 -0.2531
  677SOL     hw 2706   6.593   4.021   5.167  0.7909  2.6677  1.0475
  677SOL     hw 2707   6.744   4.031   5.173  1.2498 -1.7790  0.2655
  677SOL     vw 2708   6.671   3.983   5.173 -0.1864  0.2706 -0.0131
  678SOL     ow 2709   6.026   5.212   0.730  0.4849  0.1854  0.5448
  678SOL     hw 2710   6.028   5.117   0.740 -2.6714 -0.1918 -1.1267
  678SOL     hw 2711   6.089   5.231   0.661  0.8389 -0.7454  0.6037
  678SOL     vw 2712   6.034   5.202   0.722  0.1152  0.0129  0.3321
  679SOL     ow 2713   0.249   3.847   2.972  0.8999 -0.0339 -0.2918
  679SOL     hw 2714   0.171   3.793   2.982  1.8538 -1.3588  0.2591
  679SOL     hw 2715   0.321   3.789   2.997  2.0465  1.1957 -0.6785
  679SOL     vw 2716   0.248   3.832   2.977  1.1770 -0.0465 -0.2702
  680SOL     ow 2717   1.651   3.728   1.873 -1.1878  0.7074 -0.7388
  680SOL     hw 2718   1.723   3.699   1.927 -0.2261  0.1466 -2.2478
  680SOL     hw 2719   1.662   3.823   1.867 -1.5509  0.8238  0.3578
  680SOL     vw 2720   1.662   3.737   1.879 -1.1089  0.6487 -0.7933
  681SOL     ow 2721   3.947   0.652   4.956  0.5374 -0.6073 -0.7871
  681SOL     hw 2722   3.969   0.736   4.995 -0.1856 -1.1265  0.8191
  681SOL     hw 2723   3.862   0.665   4.914 -0.8237 -1.1238  1.6459
  681SOL     vw 2724   3.939   0.665   4.955  0.2624 -0.7440 -0.2537
  682SOL     ow 2725   1.938   2.835   0.008 -0.2086 -0.1005 -0.1988
  682SOL     hw 2726   1.895   2.906  -0.041 -1.3364 -1.2446 -0.9115
  682SOL     hw 2727   2.029   2.864   0.016 -0.7640  1.7495  0.1366
  682SOL     vw 2728   1.944   2.848   0.003 -0.4306 -0.0073 -0.2485
  683SOL     ow 2729   0.197   3.129   6.403 -0.1950  0.4227 -0.2117
  683SOL     hw 2730   0.140   3.090   6.337 -1.2455  0.4352  0.6653
  683SOL     hw 2731   0.167   3.220   6.409  0.4511  0.6474 -0.3060
  683SOL     vw 2732   0.186   3.136   6.395 -0.2484  0.4541 -0.1085
  684SOL     ow 2733   3.697   1.401   4.737 -0.8323 -0.5597 -0.0829
  684SOL     hw 2734   3.607   1.371   4.743 -1.5332  1.2869 -0.6568
  684SOL     hw 2735   3.729   1.400   4.827 -1.2301 -1.7100  0.0618
  684SOL     vw 2736   3.690   1.397   4.750 -0.9773 -0.4678 -0.1395
  685SOL     ow 2737   2.575   4.955   0.497  0.3512 -0.2948  0.3209
  685SOL     hw 2738   2.498   4.944   0.552  0.6500 -0.4304  0.7142
  685SOL     hw 2739   2.605   5.044   0.516 -0.2274  0.0825 -0.5012
  685SOL     vw 2740   2.569   4.966   0.507  0.3141 -0.2630  0.2643
  686SOL     ow 2741   1.915   3.035   3.245  0.6656  0.1958 -0.7542
  686SOL     hw 2742   1.966   2.995   3.316 -1.1669  1.4918  1.4488
  686SOL     hw 2743   1.938   3.128   3.249 -0.6347  0.5383 -0.7437
  686SOL     vw 2744   1.924   3.042   3.255  0.2522  0.4121 -0.4621
  687SOL     ow 2745   6.317   2.728   7.139 -0.4005 -0.5551  0.6718
  687SOL     hw 2746   6.321   2.670   7.063  1.2238  1.4092 -0.8849
  687SOL     hw 2747   6.384   2.694   7.199 -0.1040 -0.8411  0.1880
  687SOL     vw 2748   6.327   2.716   7.137 -0.1471 -0.3337  0.4025
  688SOL     ow 2749   4.988   5.131   2.241  0.2973 -0.3018  0.6142
  688SOL     hw 2750   4.938   5.206   2.207  0.2311 -0.3369  0.6334
  688SOL     hw 2751   5.026   5.091   2.163 -2.5667 -2.3853  0.1094
  688SOL     vw 2752   4.986   5.136   2.226 -0.0894 -0.5815  0.5502
  689SOL     ow 2753   2.086   5.800   5.137 -0.1941 -0.0719 -0.1097
  689SOL     hw 2754   1.995   5.787   5.164  0.2574 -2.9569  0.2687
  689SOL     hw 2755   2.116   5.873   5.192 -1.5117 -0.8602  1.7839
  689SOL     vw 2756   2.078   5.808   5.148 -0.3083 -0.5562  0.1903
  690SOL     ow 2757   6.024   2.533   2.189 -0.3538 -0.2945 -0.1898
  690SOL     hw 2758   5.978   2.527   2.272 -0.2749 -1.4541 -0.2060
  690SOL     hw 2759   6.113   2.505   2.209 -0.0195  0.5716 -0.4358
  690SOL     vw 2760   6.030   2.528   2.202 -0.2992 -0.3332 -0.2245
  691SOL     ow 2761   1.817   3.800   7.161 -0.1390 -0.0764  0.5896
  691SOL     hw 2762   1.864   3.829   7.238 -0.4126 -0.2383  0.8202
  691SOL     hw 2763   1.759   3.873   7.139  0.7528  0.4344 -0.1502
  691SOL     vw 2764   1.815   3.813   7.168 -0.0575 -0.0304  0.5224
  692SOL     ow 2765   0.665   1.275   3.596 -0.7106  0.0940  0.1720
  692SOL     hw 2766   0.760   1.280   3.606 -0.6593 -1.2652  0.6897
  692SOL     hw 2767   0.652   1.214   3.523 -1.1749 -0.5094  0.7444
  692SOL     vw 2768   0.676   1.267   3.588 -0.7651 -0.1650  0.3158
  693SOL     ow 2769   5.268   4.349   0.252 -0.5927  0.1072  0.3959
  693SOL     hw 2770   5.205   4.308   0.192  1.4670 -1.8424 -0.5610
  693SOL     hw 2771   5.277   4.438   0.220 -3.1848  0.6303  0.8777
  693SOL     vw 2772   5.261   4.355   0.240 -0.6630 -0.0811  0.3332
  694SOL     ow 2773   2.069   5.883   2.855 -0.2231 -0.0334 -0.7451
  694SOL     hw 2774   2.163   5.885   2.873  0.0849  0.7127 -2.2556
  694SOL     hw 2775   2.028   5.908   2.937  0.9370  0.3333 -0.2610
  694SOL     vw 2776   2.076   5.886   2.868 -0.0294  0.1135 -0.8805
  695SOL     ow 2777   0.276   4.900   3.969 -0.2231 -0.2945  0.0892
  695SOL     hw 2778   0.338   4.895   4.042  0.8916  0.3819 -0.7881
  695SOL     hw 2779   0.190   4.904   4.011  0.2896 -1.5690  1.3243
  695SOL     vw 2780   0.273   4.900   3.984 -0.0084 -0.3736  0.1366
  696SOL     ow 2781   0.189   5.099   1.944  0.4092 -0.3903 -0.0745
  696SOL     hw 2782   0.208   5.005   1.941  1.4054 -0.1921 -2.2499
  696SOL     hw 2783   0.095   5.104   1.927  0.2944 -0.9927  0.3200
  696SOL     vw 2784   0.179   5.087   1.941  0.5255 -0.4437 -0.3095
  697SOL     ow 2785   5.549   3.193   6.140 -0.2392  0.7602  0.1778
  697SOL     hw 2786   5.564   3.216   6.048 -0.7710  0.2655 -0.0340
  697SOL     hw 2787   5.637   3.178   6.175  0.0589  2.0318  0.0445
  697SOL     vw 2788   5.563   3.194   6.132 -0.2699  0.8627  0.1321
  698SOL     ow 2789   1.987   6.004   4.392  0.0855 -0.4361 -0.1200
  698SOL     hw 2790   1.900   6.010   4.354 -0.3261 -0.4307  0.8077
  698SOL     hw 2791   1.976   5.951   4.471  1.0830 -1.1774 -0.4652
  698SOL     vw 2792   1.974   5.998   4.398  0.1627 -0.5333 -0.0429
  699SOL     ow 2793   2.847   1.474   3.184  0.4175  0.4902  1.0049
  699SOL     hw 2794   2.892   1.398   3.148 -1.6057 -1.1894  1.7620
  699SOL     hw 2795   2.783   1.499   3.117  0.7685  1.2576  0.9428
  699SOL     vw 2796   2.844   1.467   3.171  0.1971  0.3698  1.0965
  700SOL     ow 2797   1.642   2.522   6.329  0.0593  0.1500  0.1971
  700SOL     hw 2798   1.721   2.507   6.380  0.0702 -0.3856  0.0343
  700SOL     hw 2799   1.668   2.584   6.261  0.4642 -0.3508 -0.1201
  700SOL     vw 2800   1.656   2.528   6.327  0.1141  0.0132  0.1338
  701SOL     ow 2801   1.903   5.544   6.518 -0.0912 -0.1660  0.6648
  701SOL     hw 2802   1.993   5.532   6.547 -0.0001  1.7190  1.3204
  701SOL     hw 2803   1.868   5.456   6.508  2.3079 -1.0130 -1.2360
  701SOL     vw 2804   1.910   5.531   6.521  0.2374 -0.0288  0.5004
  702SOL     ow 2805   5.075   0.871   1.090  0.1735  0.2795 -0.5564
  702SOL     hw 2806   5.074   0.879   0.995 -1.0130  0.8830 -0.5055
  702SOL     hw 2807   5.102   0.958   1.121 -2.9145  1.2512 -0.2800
  702SOL     vw 2808   5.078   0.884   1.082 -0.3905  0.4873 -0.5132
  703SOL     ow 2809   1.736   7.118   1.575 -0.0951 -0.1134  0.3637
  703SOL     hw 2810   1.731   7.028   1.609  1.9142 -0.1729  0.6512
  703SOL     hw 2811   1.805   7.159   1.628 -2.2829  2.2449  1.5568
  703SOL     vw 2812   1.745   7.111   1.586 -0.1187  0.1895  0.5590
  704SOL     ow 2813   5.724   6.511   0.309 -0.1458 -0.5594 -0.3482
  704SOL     hw 2814   5.726   6.422   0.343 -1.1071 -0.5386 -0.2065
  704SOL     hw 2815   5.756   6.503   0.219  0.9638 -0.8427  0.0545
  704SOL     vw 2816   5.728   6.498   0.301 -0.1264 -0.5941 -0.2764
  705SOL     ow 2817   6.220   3.883   0.236  0.3637  0.9011  0.6828
  705SOL     hw 2818   6.279   3.832   0.291 -0.5321  0.3267  1.1309
  705SOL     hw 2819   6.194   3.957   0.290  1.6305  1.8666  0.0472
  705SOL     vw 2820   6.225   3.886   0.250  0.4125  0.9528  0.6580
  706SOL     ow 2821   2.320   0.724   5.602 -0.1321 -0.2473  0.0882
  706SOL     hw 2822   2.284   0.681   5.680 -2.2953  1.2304  0.0110
  706SOL     hw 2823   2.305   0.662   5.531 -3.2811  0.4370 -0.0361
  706SOL     vw 2824   2.313   0.710   5.603 -0.8329  0.0379  0.0615
  707SOL     ow 2825   4.326   3.347   0.641 -0.3644 -0.4884  0.0595
  707SOL     hw 2826   4.284   3.266   0.671 -0.4857  0.1742  1.8129
  707SOL     hw 2827   4.385   3.371   0.712  2.2241 -0.7683 -1.8591
  707SOL     vw 2828   4.328   3.339   0.654 -0.0391 -0.4380  0.0377
  708SOL     ow 2829   4.900   4.003   2.704 -0.7571 -0.3825  0.0192
  708SOL     hw 2830   4.979   3.957   2.732 -0.3214  0.2148 -0.2067
  708SOL     hw 2831   4.911   4.015   2.610 -1.3285 -0.6912 -0.0927
  708SOL     vw 2832   4.912   3.999   2.696 -0.7749 -0.3443 -0.0253
  709SOL     ow 2833   2.788   5.241   2.841 -0.3523 -0.1637 -0.7539
  709SOL     hw 2834   2.828   5.325   2.863 -1.4371 -0.0352  0.9676
  709SOL     hw 2835   2.707   5.265   2.796  0.4116 -0.3667 -2.2788
  709SOL     vw 2836   2.782   5.255   2.838 -0.3945 -0.1736 -0.7279
  710SOL     ow 2837   4.126   1.040   5.834  0.4229 -0.5379  0.5604
  710SOL     hw 2838   4.141   0.957   5.880 -0.5868 -1.6313 -0.9940
  710SOL     hw 2839   4.188   1.038   5.761  0.6654  0.2784  0.7342
  710SOL     vw 2840   4.136   1.029   5.830  0.3216 -0.5745  0.3784
  711SOL     ow 2841   2.510   3.352   0.999  0.2560 -0.3068  0.4573
  711SOL     hw 2842   2.531   3.268   1.040  1.1464  0.2623  1.1973
  711SOL     hw 2843   2.567   3.415   1.043 -1.6249  0.9951  1.1657
  711SOL     vw 2844   2.520   3.349   1.011  0.1253 -0.0598  0.6484
  712SOL     ow 2845   4.822   4.158   2.941  0.4554  0.4060  0.1838
  712SOL     hw 2846   4.917   4.170   2.942  0.3210  1.9350 -0.9831
  712SOL     hw 2847   4.788   4.247   2.954 -0.8205 -0.1062  0.4335
  712SOL     vw 2848   4.830   4.172   2.943  0.2692  0.5403  0.0629
  713SOL     ow 2849   5.417   0.610   7.211  0.1605 -0.3869  0.4653
  713SOL     hw 2850   5.353   0.603   7.140 -0.7739 -3.2122  1.4482
  713SOL     hw 2851   5.502   0.615   7.167 -0.5699  2.1414 -0.8432
  713SOL     vw 2852   5.420   0.610   7.196 -0.0591 -0.4261  0.4225
  714SOL     ow 2853   4.754   0.160   4.807  0.3297  0.3299 -0.0190
  714SOL     hw 2854   4.683   0.142   4.869  1.0081  0.8073  0.9234
  714SOL     hw 2855   4.824   0.196   4.861  0.3308  2.4019 -1.2932
  714SOL     vw 2856   4.754   0.163   4.822  0.4191  0.6663 -0.0629
  715SOL     ow 2857   0.890   6.571   1.086 -0.0560  0.4522  0.3794
  715SOL     hw 2858   0.914   6.652   1.131 -1.2401  0.4249  1.1131
  715SOL     hw 2859   0.947   6.505   1.124  0.9977  0.9345 -0.3030
  715SOL     vw 2860   0.901   6.573   1.097 -0.0732  0.5124  0.3861
  716SOL     ow 2861   3.556   3.224   2.623 -0.0153  0.3222  0.3716
  716SOL     hw 2862   3.477   3.218   2.677 -0.7818  0.8492 -0.6659
  716SOL     hw 2863   3.595   3.137   2.628 -0.5854  0.0926  1.0068
  716SOL     vw 2864   3.551   3.212   2.631 -0.1917  0.3616  0.3184
  717SOL     ow 2865   0.803   5.413   5.268 -0.2334  0.0181  0.8136
  717SOL     hw 2866   0.899   5.408   5.263 -0.3330 -1.4309  0.0797
  717SOL     hw 2867   0.786   5.504   5.293  1.2732  0.7948 -0.7974
  717SOL     vw 2868   0.814   5.425   5.271 -0.0477 -0.0706  0.5043
  718SOL     ow 2869   0.927   4.636   2.809 -0.3532  0.0660 -0.0353
  718SOL     hw 2870   0.887   4.721   2.792 -2.3166 -0.8970 -0.4118
  718SOL     hw 2871   0.876   4.574   2.757  0.0306 -1.5727  1.4637
  718SOL     vw 2872   0.915   4.639   2.800 -0.5616 -0.2770  0.1129
  719SOL     ow 2873   4.465   2.883   5.542  0.1077  0.5841 -0.7069
  719SOL     hw 2874   4.423   2.887   5.628  0.3750 -0.4469 -0.5105
  719SOL     hw 2875   4.434   2.801   5.504  0.3783  0.7911 -1.3914
  719SOL     vw 2876   4.455   2.872   5.548  0.1788  0.4754 -0.7713
  720SOL     ow 2877   3.333   2.721   3.490 -0.3946  0.0634 -0.4366
  720SOL     hw 2878   3.269   2.792   3.495 -0.6847 -0.2748  1.1982
  720SOL     hw 2879   3.282   2.642   3.507  0.1143 -0.4196 -1.1470
  720SOL     vw 2880   3.318   2.720   3.493 -0.3659 -0.0449 -0.3148
  721SOL     ow 2881   0.264   0.538   1.738  0.1075 -0.3142  0.2111
  721SOL     hw 2882   0.246   0.460   1.790  0.8659 -0.1791  0.6948
  721SOL     hw 2883   0.180   0.561   1.699 -0.3081 -0.8674  0.7665
  721SOL     vw 2884   0.251   0.531   1.740  0.1527 -0.3693  0.3482
  722SOL     ow 2885   6.468   6.804   6.412  0.3998 -0.5604  0.1572
  722SOL     hw 2886   6.557   6.789   6.444 -0.1688  1.3813  3.0943
  722SOL     hw 2887   6.475   6.880   6.355  0.3716  1.5901  2.8053
  722SOL     vw 2888   6.480   6.812   6.409  0.3211 -0.0205  0.8943
  723SOL     ow 2889   6.462   3.824   6.260 -0.0703 -0.1422 -0.1373
  723SOL     hw 2890   6.409   3.746   6.276  0.7566 -1.0669 -1.6645
  723SOL     hw 2891   6.399   3.895   6.248 -0.8434 -0.6169  0.9733
  723SOL     vw 2892   6.447   3.823   6.261 -0.0634 -0.3266 -0.1922
  724SOL     ow 2893   5.141   5.435   2.591 -0.3307 -0.1704  0.2629
  724SOL     hw 2894   5.083   5.511   2.587  0.7104  0.6705  0.6912
  724SOL     hw 2895   5.143   5.411   2.684 -0.8821 -0.9200  0.0930
  724SOL     vw 2896   5.134   5.442   2.603 -0.2661 -0.1583  0.2970
  725SOL     ow 2897   5.720   6.923   3.023  0.4010 -0.3545  0.3684
  725SOL     hw 2898   5.803   6.890   2.988  0.6564  0.2435  0.3912
  725SOL     hw 2899   5.720   7.016   3.000 -0.0128 -0.2344  0.8371
  725SOL     vw 2900   5.731   6.931   3.016  0.3800 -0.2596  0.4334
  726SOL     ow 2901   3.907   1.475   3.204  0.6094  0.2292  0.5944
  726SOL     hw 2902   3.896   1.518   3.289  0.3766  2.3668 -0.4602
  726SOL     hw 2903   4.002   1.462   3.195  0.8293  1.8665  0.3367
  726SOL     vw 2904   3.918   1.479   3.214  0.6078  0.7273  0.4213
  727SOL     ow 2905   7.040   1.424   2.782  0.0366  0.3320  0.2752
  727SOL     hw 2906   7.091   1.393   2.857 -1.0798 -0.5348  0.7187
  727SOL     hw 2907   6.949   1.423   2.814 -1.0702 -4.0418 -2.2406
  727SOL     vw 2908   7.035   1.420   2.796 -0.2570 -0.3594  0.0019
  728SOL     ow 2909   2.582   2.452   3.063 -0.3820 -0.7732 -0.6529
  728SOL     hw 2910   2.493   2.441   3.030  0.3223 -0.2712 -2.9599
  728SOL     hw 2911   2.594   2.547   3.067 -1.2399 -0.6493  3.7718
  728SOL     vw 2912   2.572   2.464   3.059 -0.4023 -0.6907 -0.3736
  729SOL     ow 2913   2.230   1.723   1.375 -0.0138  0.6158 -0.8058
  729SOL     hw 2914   2.166   1.790   1.397  0.1154  0.4873 -0.0108
  729SOL     hw 2915   2.196   1.682   1.296 -0.7047  0.8198 -0.6174
  729SOL     vw 2916   2.217   1.726   1.367 -0.0880  0.6257 -0.6760
  730SOL     ow 2917   5.152   4.689   5.691  0.0744  0.5066  0.0496
  730SOL     hw 2918   5.179   4.597   5.688  2.1034  0.9833  1.2776
  730SOL     hw 2919   5.057   4.687   5.690  0.0755 -1.6211  0.2263
  730SOL     vw 2920   5.143   4.677   5.691  0.3426  0.2887  0.2348
  731SOL     ow 2921   0.655   6.807   1.254 -0.0386 -0.7308  0.6312
  731SOL     hw 2922   0.637   6.770   1.167  0.8837 -1.4039  0.7120
  731SOL     hw 2923   0.642   6.734   1.314  1.8713 -0.9696  0.7870
  731SOL     vw 2924   0.651   6.792   1.250  0.3350 -0.8514  0.6623
  732SOL     ow 2925   7.194   5.956   6.079  0.5711 -0.6472 -0.5027
  732SOL     hw 2926   7.182   5.911   6.163  1.2555 -1.2509 -0.7179
  732SOL     hw 2927   7.284   5.937   6.055 -0.3136 -2.5759 -2.5968
  732SOL     vw 2928   7.204   5.948   6.087  0.5448 -0.9818 -0.8073
  733SOL     ow 2929   3.570   0.908   4.222 -0.0299  0.1768 -0.2253
  733SOL     hw 2930   3.551   0.824   4.180  1.2930  0.3916 -1.3243
  733SOL     hw 2931   3.661   0.926   4.199  0.5185  0.7118  2.0764
  733SOL     vw 2932   3.580   0.899   4.213  0.2171  0.2757 -0.0668
  734SOL     ow 2933   4.648   4.382   5.374  0.1796  0.8870 -0.3728
  734SOL     hw 2934   4.668   4.443   5.444  3.2649  0.9410 -1.1354
  734SOL     hw 2935   4.566   4.413   5.337 -0.6379  1.8457  2.0788
  734SOL     vw 2936   4.640   4.394   5.378  0.4787  1.0204 -0.1500
  735SOL     ow 2937   5.074   0.486   3.673  0.1254 -0.3635  0.4010
  735SOL     hw 2938   5.020   0.461   3.748  0.2740  0.3708  0.7583
  735SOL     hw 2939   5.020   0.465   3.597 -1.5420  2.1653  0.7662
  735SOL     vw 2940   5.060   0.480   3.672 -0.0749  0.0670  0.4963
  736SOL     ow 2941   0.754   4.854   3.697 -0.3551  0.2533  0.0635
  736SOL     hw 2942   0.752   4.946   3.672  1.7307  0.2385 -0.2937
  736SOL     hw 2943   0.700   4.810   3.631 -0.2838  1.0441 -0.5387
  736SOL     vw 2944   0.747   4.860   3.685 -0.0705  0.3560 -0.0632
  737SOL     ow 2945   6.602   1.034   4.465  0.2073 -0.1107  0.6397
  737SOL     hw 2946   6.688   0.993   4.476  0.5482  0.8977  2.0025
  737SOL     hw 2947   6.618   1.127   4.475 -0.7800  0.2590 -0.9518
  737SOL     vw 2948   6.615   1.041   4.468  0.1221  0.0712  0.6096
  738SOL     ow 2949   3.188   1.051   1.241  0.2961 -0.0299  0.2851
  738SOL     hw 2950   3.191   0.960   1.269 -1.3083 -0.1468  0.1337
  738SOL     hw 2951   3.150   1.048   1.153 -3.0546  0.9998  1.5524
  738SOL     vw 2952   3.184   1.039   1.233 -0.3577  0.0905  0.4323
  739SOL     ow 2953   3.507   1.680   2.911  0.2241 -0.6852  0.5321
  739SOL     hw 2954   3.428   1.625   2.911  1.1792 -2.1237  0.8611
  739SOL     hw 2955   3.533   1.685   2.819 -0.7701  0.6305  0.2914
  739SOL     vw 2956   3.500   1.673   2.899  0.2189 -0.7014  0.5437
  740SOL     ow 2957   1.517   4.784   5.974  0.5140  0.1731 -0.1040
  740SOL     hw 2958   1.609   4.791   5.999  0.1878  1.6949  0.7910
  740SOL     hw 2959   1.474   4.857   6.018 -1.8154 -2.5572  2.7090
  740SOL     vw 2960   1.524   4.794   5.983  0.1636  0.0136  0.3850
  741SOL     ow 2961   2.562   2.471   1.792 -0.0132  0.1944  0.2051
  741SOL     hw 2962   2.649   2.468   1.832 -0.5344 -0.0828  1.3651
  741SOL     hw 2963   2.508   2.415   1.847 -1.1987  1.2604  0.1862
  741SOL     vw 2964   2.566   2.463   1.804 -0.2383  0.2986  0.3556
  742SOL     ow 2965   1.347   3.628   2.251  0.4551 -0.8263 -0.2430
  742SOL     hw 2966   1.323   3.575   2.327  1.3057 -0.0403  0.5936
  742SOL     hw 2967   1.286   3.600   2.183 -0.3512 -1.5191  0.7286
  742SOL     vw 2968   1.336   3.617   2.252  0.4609 -0.8141 -0.0045
  743SOL     ow 2969   0.264   0.088   6.875  0.1767 -0.0548 -0.5427
  743SOL     hw 2970   0.276   0.078   6.780  2.8315  0.2751 -0.3349
  743SOL     hw 2971   0.298   0.006   6.912  0.6508  0.4407  0.1566
  743SOL     vw 2972   0.270   0.076   6.867  0.5895  0.0541 -0.4230
  744SOL     ow 2973   5.663   0.489   6.520 -0.6044  0.2142  0.3559
  744SOL     hw 2974   5.616   0.429   6.462  1.8109 -0.3661 -1.1366
  744SOL     hw 2975   5.599   0.558   6.541 -2.6307 -1.4555 -0.0275
  744SOL     vw 2976   5.648   0.490   6.515 -0.5531 -0.0826  0.1082
  745SOL     ow 2977   4.859   4.231   5.380 -0.5418 -0.0879  0.4728
  745SOL     hw 2978   4.928   4.265   5.437 -1.3053  2.0145  0.2218
  745SOL     hw 2979   4.791   4.297   5.381 -0.3165  0.4825 -3.3850
  745SOL     vw 2980   4.859   4.244   5.387 -0.6130  0.2646 -0.0691
  746SOL     ow 2981   3.767   0.486   4.212 -0.4728  0.4781  0.2106
  746SOL     hw 2982   3.672   0.494   4.211 -0.6704 -1.3368  0.3756
  746SOL     hw 2983   3.799   0.573   4.234 -2.0939  1.0992  0.2081
  746SOL     vw 2984   3.759   0.499   4.215 -0.7126  0.3206  0.2320
  747SOL     ow 2985   3.551   4.756   2.216  0.2099 -0.1028  0.2906
  747SOL     hw 2986   3.573   4.666   2.243 -2.6968 -0.5171  1.5642
  747SOL     hw 2987   3.517   4.797   2.295  1.6703  2.2750 -0.2184
  747SOL     vw 2988   3.550   4.749   2.230  0.0192  0.1562  0.3916
  748SOL     ow 2989   0.455   1.140   3.714 -0.5538 -0.1216  0.3162
  748SOL     hw 2990   0.506   1.083   3.771  0.8005 -1.1649 -1.8195
  748SOL     hw 2991   0.380   1.086   3.688 -0.2197 -0.3220 -0.2680
  748SOL     vw 2992   0.452   1.125   3.718 -0.3310 -0.2856 -0.0427
  749SOL     ow 2993   1.290   2.444   6.691  0.0902 -1.0661 -0.2525
  749SOL     hw 2994   1.291   2.539   6.703  1.3905 -1.1270  0.3166
  749SOL     hw 2995   1.206   2.415   6.728 -0.3306 -0.1477 -0.4705
  749SOL     vw 2996   1.279   2.452   6.698  0.2063 -0.9531 -0.2060
  750SOL     ow 2997   6.226   4.560   2.848 -0.1683  0.0887  0.1183
  750SOL     hw 2998   6.313   4.548   2.887  0.0342  1.9250  0.2798
  750SOL     hw 2999   6.199   4.471   2.823  1.4966 -0.5842  0.5940
  750SOL     vw 3000   6.234   4.546   2.850  0.0782  0.2422  0.2023
  751SOL     ow 3001   0.408   6.371   1.036 -0.2104 -0.2261 -0.3419
  751SOL     hw 3002   0.383   6.440   0.974  1.6883  0.7000 -0.1253
  751SOL     hw 3003   0.337   6.369   1.100 -1.8470 -0.6763 -2.0588
  751SOL     vw 3004   0.395   6.380   1.036 -0.1758 -0.1633 -0.5399
  752SOL     ow 3005   1.775   4.352   4.164 -0.1890  0.2343  0.1801
  752SOL     hw 3006   1.796   4.358   4.257 -2.6685  0.2814  0.8293
  752SOL     hw 3007   1.695   4.404   4.155  1.0170  1.8397 -2.3881
  752SOL     vw 3008   1.767   4.360   4.175 -0.3570  0.4523 -0.0730
  753SOL     ow 3009   3.885   2.365   3.826 -0.0629 -0.0122  0.7921
  753SOL     hw 3010   3.927   2.369   3.740 -0.4462 -1.5515  0.4976
  753SOL     hw 3011   3.856   2.454   3.843 -3.4289 -0.2407 -2.4679
  753SOL     vw 3012   3.886   2.377   3.817 -0.5578 -0.2455  0.3232
  754SOL     ow 3013   5.374   5.607   3.861  0.4013 -0.3220 -0.5544
  754SOL     hw 3014   5.306   5.647   3.808 -1.5879 -2.1657  0.4608
  754SOL     hw 3015   5.395   5.673   3.928  2.2794  1.6469 -2.8931
  754SOL     vw 3016   5.368   5.621   3.863  0.3865 -0.3054 -0.7290
  755SOL     ow 3017   2.326   5.953   2.908  0.0963 -0.3768 -0.3329
  755SOL     hw 3018   2.396   5.954   2.972 -1.2267  0.1037  1.1853
  755SOL     hw 3019   2.309   6.045   2.888 -1.7180 -0.2907  1.2656
  755SOL     vw 3020   2.333   5.965   2.914 -0.3177 -0.3021  0.0782
  756SOL     ow 3021   4.357   0.768   2.521  0.1174  0.3554 -0.1575
  756SOL     hw 3022   4.408   0.732   2.594  0.5093 -0.6200 -0.8941
  756SOL     hw 3023   4.356   0.862   2.537 -0.4793  0.0928  1.5351
  756SOL     vw 3024   4.364   0.776   2.533  0.0904  0.1920 -0.0312
  757SOL     ow 3025   0.650   5.095   3.626  0.5642  0.3049 -0.5533
  757SOL     hw 3026   0.697   5.173   3.657  0.5807 -0.4394  1.4723
  757SOL     hw 3027   0.639   5.110   3.532  0.3252  2.8632 -0.2108
  757SOL     vw 3028   0.655   5.108   3.618  0.5348  0.5443 -0.2409
  758SOL     ow 3029   6.727   1.794   0.648  0.4694 -0.5297  0.4577
  758SOL     hw 3030   6.704   1.808   0.739  1.4701  0.3681  0.5972
  758SOL     hw 3031   6.810   1.745   0.652 -0.6687 -2.6093 -0.0070
  758SOL     vw 3032   6.735   1.789   0.660  0.4511 -0.6856  0.4148
  759SOL     ow 3033   0.595   4.322   4.137  0.1174  0.4607 -0.5407
  759SOL     hw 3034   0.629   4.410   4.124 -0.2683  0.7756  0.5248
  759SOL     hw 3035   0.615   4.276   4.055  2.0208  0.9580 -0.3809
  759SOL     vw 3036   0.602   4.327   4.124  0.3176  0.5679 -0.3791
  760SOL     ow 3037   3.519   0.332   0.842  0.6831  0.4845 -0.1899
  760SOL     hw 3038   3.505   0.241   0.867  0.9568  0.1918 -1.0869
  760SOL     hw 3039   3.613   0.340   0.831  0.8459  1.3023  1.4170
  760SOL     vw 3040   3.529   0.321   0.844  0.7406  0.5538 -0.0963
  761SOL     ow 3041   1.593   2.174   5.483 -0.7332  0.3571  0.3237
  761SOL     hw 3042   1.586   2.265   5.509  2.2719  0.0656  2.7780
  761SOL     hw 3043   1.656   2.175   5.411 -1.0821  0.2843  0.0207
  761SOL     vw 3044   1.601   2.186   5.477 -0.3828  0.3089  0.6073
  762SOL     ow 3045   7.113   5.979   1.704 -0.0501  0.0945  0.2603
  762SOL     hw 3046   7.056   5.902   1.695  0.9204 -0.6623  0.3368
  762SOL     hw 3047   7.097   6.029   1.624 -2.0981  0.8183  1.0720
  762SOL     vw 3048   7.104   5.975   1.692 -0.1924  0.0904  0.3775
  763SOL     ow 3049   0.886   7.172   5.895  0.5343 -0.4832 -0.3412
  763SOL     hw 3050   0.888   7.264   5.922  0.8458  0.0066 -1.8833
  763SOL     hw 3051   0.968   7.159   5.847  1.2427 -2.0465  1.2102
  763SOL     vw 3052   0.897   7.183   5.892  0.6689 -0.6249 -0.3397
  764SOL     ow 3053   6.474   2.980   0.052  0.5480 -0.7149 -0.4097
  764SOL     hw 3054   6.523   2.904   0.083 -0.3392 -1.2401 -0.2748
  764SOL     hw 3055   6.412   2.945  -0.011 -2.1703 -0.7011  2.0168
  764SOL     vw 3056   6.472   2.966   0.048  0.0722 -0.7823 -0.0718
  765SOL     ow 3057   0.791   0.691   1.590  0.1672 -0.2275 -0.1034
  765SOL     hw 3058   0.803   0.708   1.497  1.4322 -0.6614 -0.0331
  765SOL     hw 3059   0.854   0.748   1.633 -1.0037  0.6174  0.5608
  765SOL     vw 3060   0.801   0.701   1.584  0.1796 -0.1732 -0.0065
  766SOL     ow 3061   3.995   4.451   5.679 -0.0984 -0.5356  0.5322
  766SOL     hw 3062   4.086   4.435   5.705  0.8925  0.8456 -1.7543
  766SOL     hw 3063   3.963   4.366   5.649  0.7026 -0.8700  0.5977
  766SOL     vw 3064   4.003   4.438   5.679  0.1380 -0.3974  0.2389
  767SOL     ow 3065   3.919   6.694   4.634  0.1320 -0.3606  0.0487
  767SOL     hw 3066   3.840   6.669   4.682 -0.7000  0.5268 -0.8224
  767SOL     hw 3067   3.887   6.741   4.557  1.5187  0.2136 -0.2102
  767SOL     vw 3068   3.904   6.697   4.630  0.2052 -0.1678 -0.1006
  768SOL     ow 3069   3.174   2.522   1.007 -0.0968 -0.3039 -0.0516
  768SOL     hw 3070   3.250   2.511   0.950 -0.7098 -1.6742 -0.6435
  768SOL     hw 3071   3.113   2.453   0.980 -0.4915 -0.8994  2.1173
  768SOL     vw 3072   3.176   2.511   0.996 -0.2298 -0.5633  0.1565
  769SOL     ow 3073   3.702   6.605   4.740 -0.2229  0.3857 -0.4908
  769SOL     hw 3074   3.649   6.606   4.660 -0.9470  2.2437 -0.0343
  769SOL     hw 3075   3.665   6.534   4.793 -1.7104  1.1035 -0.5458
  769SOL     vw 3076   3.690   6.595   4.737 -0.5146  0.7255 -0.4377
  770SOL     ow 3077   1.758   5.814   3.064 -0.0271  0.2976 -0.1078
  770SOL     hw 3078   1.716   5.774   2.988 -0.7408  0.5151  0.1621
  770SOL     hw 3079   1.796   5.896   3.031  0.6689 -0.1612 -0.4702
  770SOL     vw 3080   1.757   5.820   3.049 -0.0294  0.2658 -0.1202
  771SOL     ow 3081   1.572   0.007   1.794  0.6473 -0.3607 -0.2482
  771SOL     hw 3082   1.609  -0.030   1.714 -0.3582  1.5150 -1.6666
  771SOL     hw 3083   1.483  -0.027   1.799  0.3840  0.2658 -0.4877
  771SOL     vw 3084   1.566  -0.002   1.784  0.4799 -0.0305 -0.4669
  772SOL     ow 3085   1.401   1.894   0.196  0.3953 -0.2493 -1.1972
  772SOL     hw 3086   1.347   1.969   0.172  0.8625  0.0380 -1.3605
  772SOL     hw 3087   1.457   1.926   0.267  0.7050 -0.4001 -1.3731
  772SOL     vw 3088   1.401   1.908   0.202  0.4979 -0.2313 -1.2419
  773SOL     ow 3089   0.059   1.050   4.412 -0.4404  0.0120 -0.4798
  773SOL     hw 3090  -0.023   1.047   4.462 -1.7482  0.1919 -2.5116
  773SOL     hw 3091   0.097   1.135   4.434 -1.2311  0.2948 -0.1628
  773SOL     vw 3092   0.053   1.060   4.422 -0.7172  0.0731 -0.7060
  774SOL     ow 3093   5.972   6.380   4.391 -0.0556  0.0143 -0.2836
  774SOL     hw 3094   5.901   6.411   4.334 -1.8639 -3.9057 -0.5290
  774SOL     hw 3095   6.043   6.358   4.331  0.0327  0.6416 -0.4194
  774SOL     vw 3096   5.972   6.381   4.376 -0.2825 -0.4201 -0.3338
  775SOL     ow 3097   0.803   2.586   3.721 -0.8611 -0.0217  0.0535
  775SOL     hw 3098   0.708   2.590   3.714 -0.8324  3.9065 -0.5854
  775SOL     hw 3099   0.833   2.566   3.632 -1.0622 -0.8660  0.1700
  775SOL     vw 3100   0.795   2.584   3.708 -0.8839  0.3853 -0.0154
  776SOL     ow 3101   4.734   6.969   3.557  0.0441  0.2221 -0.4796
  776SOL     hw 3102   4.717   6.918   3.636  2.7583 -0.2721 -0.0958
  776SOL     hw 3103   4.736   7.060   3.588  0.7636  0.0578 -0.0062
  776SOL     vw 3104   4.732   6.974   3.571  0.4971  0.1349 -0.3666
  777SOL     ow 3105   6.151   4.538   1.062 -0.6283 -0.3290  0.0468
  777SOL     hw 3106   6.084   4.521   1.127 -1.0998  1.3195  0.0492
  777SOL     hw 3107   6.146   4.633   1.046  1.9118 -0.0667  0.3113
  777SOL     vw 3108   6.142   4.549   1.068 -0.3555 -0.0768  0.0820
  778SOL     ow 3109   0.317   2.870   6.597  1.1649 -0.2765 -0.1199
  778SOL     hw 3110   0.335   2.796   6.655  0.7281  0.0753  0.4816
  778SOL     hw 3111   0.360   2.847   6.515  0.6471 -1.4122 -0.0951
  778SOL     vw 3112   0.325   2.857   6.594  1.0389 -0.3799 -0.0372
  779SOL     ow 3113   1.431   6.057   3.659 -0.6777 -0.2218  0.2777
  779SOL     hw 3114   1.360   5.994   3.655 -1.1493  0.3094  0.2223
  779SOL     hw 3115   1.390   6.139   3.688 -0.0187 -0.0201  0.6799
  779SOL     vw 3116   1.416   6.060   3.662 -0.6530 -0.1252  0.3233
  780SOL     ow 3117   6.791   0.199   3.657  0.1254  0.0115 -0.5425
  780SOL     hw 3118   6.759   0.137   3.591 -1.3581  1.4129 -1.2065
  780SOL     hw 3119   6.714   0.252   3.678  1.1172  0.9715  0.7504
  780SOL     vw 3120   6.776   0.198   3.651  0.0606  0.3231 -0.4594
  781SOL     ow 3121   5.339   2.542   3.850 -0.3052 -0.2310 -0.6641
  781SOL     hw 3122   5.266   2.514   3.905  0.1540  1.9137  1.2064
  781SOL     hw 3123   5.414   2.491   3.881 -0.0819  0.8574  0.7093
  781SOL     vw 3124   5.339   2.531   3.862 -0.2151  0.1955 -0.2362
  782SOL     ow 3125   3.921   2.151   6.279  0.5355 -0.7682 -0.2309
  782SOL     hw 3126   3.994   2.208   6.252 -0.6536  0.9864  0.0931
  782SOL     hw 3127   3.870   2.138   6.199 -0.0962  0.0212  0.0342
  782SOL     vw 3128   3.924   2.157   6.265  0.2954 -0.4326 -0.1533
  783SOL     ow 3129   5.173   4.928   2.507 -0.1721 -0.1728 -0.8324
  783SOL     hw 3130   5.104   4.862   2.509 -0.5905  0.1999  2.9542
  783SOL     hw 3131   5.128   5.011   2.518  0.7635  0.0551  1.9616
  783SOL     vw 3132   5.158   4.930   2.508 -0.1037 -0.0932  0.0358
  784SOL     ow 3133   7.047   2.842   6.944 -0.1082  0.2822  0.1959
  784SOL     hw 3134   6.961   2.813   6.914  0.5522 -2.2383  0.5194
  784SOL     hw 3135   7.109   2.796   6.887  1.0824  2.8639 -0.7401
  784SOL     vw 3136   7.044   2.832   6.933  0.1359  0.2902  0.1152
  785SOL     ow 3137   4.820   1.087   1.948 -0.3653 -0.4119 -1.0284
  785SOL     hw 3138   4.775   1.078   1.864  0.7115 -0.8988 -1.5651
  785SOL     hw 3139   4.901   1.038   1.938 -0.3566 -0.7396  0.4118
  785SOL     vw 3140   4.825   1.079   1.935 -0.2220 -0.5194 -0.9091
  786SOL     ow 3141   0.418   3.993   3.176 -0.1904 -0.1288  0.3871
  786SOL     hw 3142   0.368   3.931   3.123  0.6411 -1.7489  1.4241
  786SOL     hw 3143   0.445   3.943   3.253  1.9964  1.0156  0.4400
  786SOL     vw 3144   0.415   3.978   3.179  0.2079 -0.1915  0.5310
  787SOL     ow 3145   6.123   6.547   6.802 -0.2339  0.4713  0.1431
  787SOL     hw 3146   6.207   6.505   6.817 -0.0965  0.7931  0.2904
  787SOL     hw 3147   6.109   6.602   6.879 -0.4572  0.6102  0.0064
  787SOL     vw 3148   6.132   6.549   6.814 -0.2451  0.5322  0.1445
  788SOL     ow 3149   1.511   2.576   1.870 -0.1720  0.2232 -0.2854
  788SOL     hw 3150   1.426   2.564   1.913  0.6294 -2.9117  0.6519
  788SOL     hw 3151   1.500   2.655   1.818 -2.5747  1.8323  2.3630
  788SOL     vw 3152   1.498   2.585   1.869 -0.3833  0.0219  0.1878
  789SOL     ow 3153   1.128   3.397   6.375 -0.1307  0.0091  0.1332
  789SOL     hw 3154   1.113   3.342   6.452 -0.6707  0.1160  0.1080
  789SOL     hw 3155   1.211   3.441   6.392  0.7138 -1.4011 -0.1910
  789SOL     vw 3156   1.137   3.396   6.387 -0.0905 -0.1628  0.0870
  790SOL     ow 3157   2.398   7.113   0.565  0.0331  0.4169 -0.2454
  790SOL     hw 3158   2.384   7.027   0.604  0.8441  0.8121  0.9848
  790SOL     hw 3159   2.345   7.172   0.619 -0.1094  0.7640 -0.7587
  790SOL     vw 3160   2.389   7.109   0.577  0.1214  0.5145 -0.1508
  791SOL     ow 3161   2.686   6.980   1.492 -0.2526  0.1053 -0.3681
  791SOL     hw 3162   2.765   6.929   1.512 -0.0921  0.5039  0.0312
  791SOL     hw 3163   2.712   7.038   1.421  0.3080  1.3955  0.8543
  791SOL     vw 3164   2.700   6.981   1.485 -0.1576  0.3278 -0.1541
  792SOL     ow 3165   2.969   6.423   2.152  0.0879  0.2379 -0.1821
  792SOL     hw 3166   2.881   6.415   2.188 -1.4814  1.7850 -3.2932
  792SOL     hw 3167   2.986   6.517   2.150  2.5680 -0.0471  1.7259
  792SOL     vw 3168   2.959   6.434   2.157  0.2080  0.4046 -0.3409
  793SOL     ow 3169   2.776   2.366   0.739 -0.1332 -0.1010  0.5703
  793SOL     hw 3170   2.699   2.421   0.727 -0.6776 -0.7846  0.8763
  793SOL     hw 3171   2.791   2.367   0.834 -0.5845 -1.0550  0.6599
  793SOL     vw 3172   2.768   2.374   0.750 -0.2645 -0.3170  0.6225
  794SOL     ow 3173   0.627   1.256   3.915 -0.3443  0.7673 -1.0390
  794SOL     hw 3174   0.661   1.343   3.939 -1.8789  1.3827 -0.9689
  794SOL     hw 3175   0.637   1.204   3.995  0.2637  0.9698 -0.9729
  794SOL     vw 3176   0.633   1.261   3.929 -0.4666  0.8752 -1.0211
  795SOL     ow 3177   1.778   4.706   5.370 -0.1381 -1.0604 -0.4962
  795SOL     hw 3178   1.687   4.731   5.352  0.0194 -0.4227 -0.4396
  795SOL     hw 3179   1.830   4.774   5.326  0.2823 -0.3864  0.9808
  795SOL     vw 3180   1.773   4.718   5.362 -0.0619 -0.8876 -0.2937
  796SOL     ow 3181   2.218   4.202   5.018  0.4063  0.4062 -0.3539
  796SOL     hw 3182   2.166   4.154   4.953  0.2380  1.3441 -0.9230
  796SOL     hw 3183   2.285   4.247   4.967  1.0126  0.2112  0.2509
  796SOL     vw 3184   2.220   4.202   5.003  0.4642  0.5040 -0.3493
  797SOL     ow 3185   3.627   2.434   2.047  0.4633 -0.6770 -0.6620
  797SOL     hw 3186   3.550   2.377   2.054 -0.0095  0.1072  1.1806
  797SOL     hw 3187   3.629   2.460   1.955 -1.3978 -0.8304 -0.7897
  797SOL     vw 3188   3.617   2.430   2.036  0.1554 -0.5939 -0.4359
  798SOL     ow 3189   4.199   0.951   3.452 -0.2822 -0.1266  0.6034
  798SOL     hw 3190   4.253   0.929   3.529  0.9451  0.6457  0.0028
  798SOL     hw 3191   4.249   0.918   3.378  1.8826  4.5640 -0.4280
  798SOL     vw 3192   4.213   0.944   3.452  0.1655  0.5941  0.3881
  799SOL     ow 3193   5.392   3.177   6.386  0.5052 -0.3943 -0.5066
  799SOL     hw 3194   5.431   3.262   6.409 -0.3466 -0.0266 -0.3848
  799SOL     hw 3195   5.334   3.157   6.459 -0.3652 -0.3967 -1.1783
  799SOL     vw 3196   5.390   3.186   6.399  0.2780 -0.3463 -0.5791
  800SOL     ow 3197   4.059   3.304   0.143  0.1750  0.1754  0.5954
  800SOL     hw 3198   4.089   3.349   0.064 -0.0551 -2.0691 -0.8680
  800SOL     hw 3199   4.138   3.291   0.195  0.5422  0.5662  0.1488
  800SOL     vw 3200   4.073   3.308   0.139  0.1931 -0.0693  0.3434
  801SOL     ow 3201   5.372   2.965   2.947 -0.6770 -0.0928  0.3907
  801SOL     hw 3202   5.340   2.970   3.037 -1.4515  1.3323  0.0588
  801SOL     hw 3203   5.331   3.039   2.903  0.0264 -0.5277 -1.0383
  801SOL     vw 3204   5.362   2.975   2.953 -0.6864  0.0379  0.1582
  802SOL     ow 3205   4.913   5.565   3.235 -0.5896 -0.3562  0.3442
  802SOL     hw 3206   4.967   5.642   3.219  1.4154 -1.9532 -0.9882
  802SOL     hw 3207   4.971   5.490   3.219 -2.1009 -2.1947  2.7048
  802SOL     vw 3208   4.928   5.565   3.231 -0.5245 -0.8094  0.4799
  803SOL     ow 3209   6.710   6.026   6.678 -0.3042 -0.8305  0.1252
  803SOL     hw 3210   6.693   6.076   6.758 -1.3346 -1.3357  0.2381
  803SOL     hw 3211   6.625   6.021   6.635  0.2795 -0.3860 -1.1227
  803SOL     vw 3212   6.696   6.032   6.683 -0.3631 -0.8388 -0.0243
  804SOL     ow 3213   4.338   1.033   2.534 -0.0656 -0.5677  0.1106
  804SOL     hw 3214   4.285   1.063   2.460  1.0402 -0.8689 -0.8396
  804SOL     hw 3215   4.284   1.049   2.611 -0.7531  0.9031 -0.6528
  804SOL     vw 3216   4.324   1.039   2.535 -0.0103 -0.4134 -0.1154
  805SOL     ow 3217   3.416   4.811   0.648  0.6564 -0.0268 -0.5189
  805SOL     hw 3218   3.391   4.738   0.591  0.5725 -1.8863  1.7457
  805SOL     hw 3219   3.372   4.792   0.731  0.6354  2.6503  0.1498
  805SOL     vw 3220   3.407   4.799   0.651  0.6425  0.0811 -0.1319
  806SOL     ow 3221   6.860   4.571   2.762 -0.1001  0.4352 -0.4511
  806SOL     hw 3222   6.804   4.564   2.840  0.6947 -4.2253 -0.0408
  806SOL     hw 3223   6.947   4.589   2.798 -0.0629  0.2124 -0.4288
  806SOL     vw 3224   6.864   4.573   2.777  0.0100 -0.2093 -0.3940
  807SOL     ow 3225   5.205   1.629   1.121  0.6099  0.0531  0.0775
  807SOL     hw 3226   5.130   1.594   1.073  1.9896 -1.2361 -1.2297
  807SOL     hw 3227   5.173   1.637   1.211 -1.8952  2.0491 -0.8594
  807SOL     vw 3228   5.191   1.625   1.126  0.4611  0.1464 -0.2186
  808SOL     ow 3229   5.127   5.896   4.276 -0.1494  0.0799 -0.5406
  808SOL     hw 3230   5.210   5.943   4.286  0.8489 -1.8913  1.1630
  808SOL     hw 3231   5.140   5.841   4.199  0.8559 -1.4732  0.6675
  808SOL     vw 3232   5.140   5.895   4.267  0.1152 -0.3853 -0.1564
  809SOL     ow 3233   3.566   5.511   5.300 -0.8501  0.4963  0.6983
  809SOL     hw 3234   3.516   5.496   5.380 -1.1251 -0.0406  0.4330
  809SOL     hw 3235   3.520   5.584   5.257 -0.0160  1.5714  1.5757
  809SOL     vw 3236   3.553   5.519   5.305 -0.7763  0.5674  0.7789
  810SOL     ow 3237   5.661   1.636   6.620  0.9504 -0.2188 -0.4855
  810SOL     hw 3238   5.731   1.643   6.685  0.3000 -1.6400  0.4400
  810SOL     hw 3239   5.698   1.582   6.550  0.8252 -0.9072 -0.0303
  810SOL     vw 3240   5.675   1.630   6.619  0.8481 -0.4971 -0.3033
  811SOL     ow 3241   5.423   0.785   3.309  0.5585  0.5547  0.0754
  811SOL     hw 3242   5.450   0.745   3.227 -0.4584 -0.5929  0.2573
  811SOL     hw 3243   5.500   0.831   3.341  1.2408  0.2132 -1.0423
  811SOL     vw 3244   5.437   0.786   3.303  0.5140  0.3583 -0.0480
  812SOL     ow 3245   0.471   0.442   6.705 -0.0505 -0.2600  0.1754
  812SOL     hw 3246   0.394   0.386   6.692 -1.5502  1.6804  0.4017
  812SOL     hw 3247   0.507   0.454   6.617 -1.1911  0.4460 -0.2027
  812SOL     vw 3248   0.466   0.436   6.692 -0.3988  0.0892  0.1554
  813SOL     ow 3249   0.244   1.230   6.167 -0.1710 -0.1199  0.4712
  813SOL     hw 3250   0.271   1.261   6.080 -1.6027  2.2559  0.7691
  813SOL     hw 3251   0.244   1.135   6.160 -0.4029  0.0021 -2.2004
  813SOL     vw 3252   0.248   1.222   6.154 -0.3905  0.2096  0.1581
  814SOL     ow 3253   5.135   5.852   2.029 -0.1745 -0.0874  0.6340
  814SOL     hw 3254   5.218   5.883   1.995 -0.5688 -2.0569 -2.5808
  814SOL     hw 3255   5.069   5.891   1.971 -1.1029 -1.8657  0.4198
  814SOL     vw 3256   5.137   5.861   2.017 -0.3490 -0.5820  0.1816
  815SOL     ow 3257   3.002   2.008   6.057 -0.0042  0.0467 -0.1704
  815SOL     hw 3258   2.989   1.915   6.041 -1.7267  0.0594  0.9160
  815SOL     hw 3259   2.991   2.049   5.971 -2.1829 -0.5091 -0.2184
  815SOL     vw 3260   2.999   2.001   6.043 -0.5188 -0.0250 -0.0334
  816SOL     ow 3261   5.470   4.317   0.952 -0.5060  0.0335  0.9559
  816SOL     hw 3262   5.407   4.246   0.937  1.9379 -1.9779 -0.7621
  816SOL     hw 3263   5.550   4.273   0.981  0.1168  2.4985  3.4539
  816SOL     vw 3264   5.472   4.302   0.954 -0.1013  0.0935  1.0588
  817SOL     ow 3265   6.044   1.785   3.387  0.8178 -0.1088 -0.5370
  817SOL     hw 3266   6.046   1.689   3.386  3.5054 -0.1785  1.0022
  817SOL     hw 3267   6.034   1.808   3.479  0.5251  1.0960 -0.8514
  817SOL     vw 3268   6.043   1.775   3.399  1.1337  0.0409 -0.3754
  818SOL     ow 3269   2.566   1.806   6.222  0.4655  0.2463 -0.2877
  818SOL     hw 3270   2.564   1.783   6.130 -0.7333 -0.0711 -0.2045
  818SOL     hw 3271   2.659   1.811   6.244  0.7620  0.1818 -1.4660
  818SOL     vw 3272   2.578   1.804   6.213  0.3465  0.1959 -0.4323
  819SOL     ow 3273   1.910   0.773   3.112 -0.0939  0.4112  0.1983
  819SOL     hw 3274   1.930   0.854   3.160 -1.8971 -0.6062  2.8790
  819SOL     hw 3275   1.875   0.804   3.028  1.9882  2.3020 -0.0849
  819SOL     vw 3276   1.908   0.788   3.107 -0.0572  0.5264  0.5145
  820SOL     ow 3277   6.034   5.842   3.515 -0.5658  0.5407 -0.2444
  820SOL     hw 3278   5.971   5.785   3.471 -1.0629  0.8705  0.0399
  820SOL     hw 3279   6.089   5.876   3.444 -2.4387  2.4416 -0.8730
  820SOL     vw 3280   6.033   5.839   3.500 -0.8783  0.8349 -0.2898
  821SOL     ow 3281   6.097   1.197   4.537 -0.1474 -0.7835 -0.4035
  821SOL     hw 3282   6.048   1.217   4.617 -2.2910  0.8167 -1.9787
  821SOL     hw 3283   6.031   1.204   4.467  2.6350  4.1131 -3.0637
  821SOL     vw 3284   6.082   1.201   4.538 -0.0632  0.0737 -0.9620
  822SOL     ow 3285   7.000   0.912   0.683 -0.7382  0.6625  0.6503
  822SOL     hw 3286   7.082   0.880   0.722 -0.9526  0.6416  1.0904
  822SOL     hw 3287   6.957   0.834   0.650 -0.7059  0.6392  0.6628
  822SOL     vw 3288   7.005   0.897   0.684 -0.7622  0.6567  0.7100
  823SOL     ow 3289   4.507   6.100   2.282  0.4313  0.0069 -0.1273
  823SOL     hw 3290   4.519   6.192   2.308 -0.1658 -0.2247  1.0410
  823SOL     hw 3291   4.517   6.051   2.364 -0.0652 -0.8953 -0.5962
  823SOL     vw 3292   4.510   6.106   2.296  0.2868 -0.1426 -0.0350
  824SOL     ow 3293   2.994   2.205   2.849 -0.2464 -0.0884 -0.2483
  824SOL     hw 3294   3.021   2.292   2.879  2.0656 -0.1621 -1.9149
  824SOL     hw 3295   3.022   2.146   2.919  1.2713  0.1851 -0.5890
  824SOL     vw 3296   3.001   2.209   2.863  0.2588 -0.0621 -0.5132
  825SOL     ow 3297   0.358   1.559   3.122 -0.4810  0.3940 -0.6465
  825SOL     hw 3298   0.391   1.607   3.045  1.3978  2.2557  1.1631
  825SOL     hw 3299   0.389   1.469   3.109  2.3479  1.2859 -0.8105
  825SOL     vw 3300   0.367   1.553   3.110  0.1401  0.7573 -0.4295
  826SOL     ow 3301   6.136   5.087   2.620  0.0299  0.3192  0.4186
  826SOL     hw 3302   6.048   5.089   2.581  0.6073  1.4713 -0.9441
  826SOL     hw 3303   6.194   5.104   2.546  1.6107 -2.7143  0.8258
  826SOL     vw 3304   6.132   5.090   2.605  0.3145  0.0710  0.2927
  827SOL     ow 3305   0.886   1.544   5.678 -0.8855  0.1781 -0.1052
  827SOL     hw 3306   0.859   1.491   5.753  0.3719 -0.3625 -0.0152
  827SOL     hw 3307   0.900   1.631   5.714 -1.2378  0.1515  0.0983
  827SOL     vw 3308   0.884   1.548   5.692 -0.7661  0.1034 -0.0665
  828SOL     ow 3309   1.904   1.719   2.562 -0.1386 -0.3543  0.3796
  828SOL     hw 3310   1.979   1.757   2.608  1.7001 -1.1686 -1.7380
  828SOL     hw 3311   1.856   1.794   2.528  2.3612  0.2927 -2.1012
  828SOL     vw 3312   1.908   1.734   2.563  0.4339 -0.3764 -0.2271
  829SOL     ow 3313   4.322   3.093   5.199 -0.6108  0.3991  0.2175
  829SOL     hw 3314   4.312   3.088   5.294  1.1368  0.2366  0.4332
  829SOL     hw 3315   4.326   3.187   5.180  1.0630  0.4393  0.5995
  829SOL     vw 3316   4.321   3.105   5.209 -0.1595  0.3830  0.2966
  830SOL     ow 3317   2.088   0.492   2.767  0.9025 -1.0508 -0.6573
  830SOL     hw 3318   2.154   0.423   2.753 -0.3438 -2.9816  2.0621
  830SOL     hw 3319   2.139   0.566   2.799  1.8593 -2.6499  1.8474
  830SOL     vw 3320   2.104   0.493   2.769  0.8644 -1.5165  0.0319
  831SOL     ow 3321   0.679   2.924   5.961 -0.1472  0.3142 -0.0126
  831SOL     hw 3322   0.730   2.920   5.880 -2.5683 -0.3665 -1.6024
  831SOL     hw 3323   0.650   3.015   5.967  0.8455  0.6096  0.6910
  831SOL     vw 3324   0.682   2.936   5.951 -0.3356  0.2635 -0.1292
  832SOL     ow 3325   3.077   3.197   0.933 -0.5046 -0.1320  0.1636
  832SOL     hw 3326   2.982   3.187   0.919 -0.8282  1.3994  1.0121
  832SOL     hw 3327   3.114   3.196   0.845 -1.6354  1.9679 -0.4029
  832SOL     vw 3328   3.069   3.195   0.920 -0.6965  0.3471  0.2008
  833SOL     ow 3329   3.556   4.076   1.394 -0.0847 -0.3951 -0.3920
  833SOL     hw 3330   3.473   4.033   1.374 -0.5787 -0.1824  1.0924
  833SOL     hw 3331   3.582   4.041   1.479  0.3204  0.9980  0.0923
  833SOL     vw 3332   3.548   4.066   1.402 -0.0966 -0.1836 -0.1321
  834SOL     ow 3333   2.460   4.859   3.906  0.7927  0.1231  0.0835
  834SOL     hw 3334   2.459   4.929   3.840  0.8221  0.4481  0.4234
  834SOL     hw 3335   2.456   4.778   3.855  1.9805  0.3349 -0.3711
  834SOL     vw 3336   2.459   4.858   3.890  0.9532  0.1938  0.0684
  835SOL     ow 3337   6.676   6.346   1.534  0.1477  0.1391  0.4449
  835SOL     hw 3338   6.687   6.440   1.528  0.2461  0.0299 -2.3019
  835SOL     hw 3339   6.670   6.316   1.443 -3.3481 -2.1144  1.1843
  835SOL     vw 3340   6.676   6.354   1.521 -0.3004 -0.1729  0.1801
  836SOL     ow 3341   2.013   5.575   3.688 -0.3605 -0.0175  0.1209
  836SOL     hw 3342   2.080   5.510   3.708  0.3785  0.6731 -0.0475
  836SOL     hw 3343   1.930   5.528   3.697 -0.0753 -0.1247  3.5862
  836SOL     vw 3344   2.011   5.561   3.692 -0.2253  0.0594  0.5560
  837SOL     ow 3345   0.770   5.933   2.990 -0.1760 -0.0260 -0.0528
  837SOL     hw 3346   0.739   5.954   2.901  0.5317 -0.5923 -0.4472
  837SOL     hw 3347   0.826   5.857   2.977 -0.3741 -0.3480  0.9432
  837SOL     vw 3348   0.773   5.926   2.976 -0.1087 -0.1431  0.0265
  838SOL     ow 3349   2.376   0.613   1.096 -0.0912  0.1517  0.1172
  838SOL     hw 3350   2.363   0.536   1.041 -0.1389 -0.6024  1.1500
  838SOL     hw 3351   2.312   0.603   1.167  3.2716 -1.7061  3.2561
  838SOL     vw 3352   2.365   0.601   1.098  0.3463 -0.1929  0.6676
  839SOL     ow 3353   5.436   6.562   2.353 -0.6839 -1.2511  0.2369
  839SOL     hw 3354   5.419   6.594   2.442  2.3152  0.2292  0.4062
  839SOL     hw 3355   5.525   6.528   2.357  0.4017  0.9344 -2.6907
  839SOL     vw 3356   5.445   6.561   2.365 -0.1450 -0.7672 -0.1270
  840SOL     ow 3357   2.489   5.004   6.049 -0.1789  0.5386  0.5217
  840SOL     hw 3358   2.484   5.070   5.980 -2.3540 -0.6031 -0.5220
  840SOL     hw 3359   2.398   4.993   6.078  0.2670 -1.2307  1.3832
  840SOL     vw 3360   2.476   5.011   6.044 -0.4070  0.1545  0.4976
  841SOL     ow 3361   0.889   3.835   6.495  1.1282 -0.2095  0.0088
  841SOL     hw 3362   0.815   3.855   6.437  0.7588 -0.5631  0.3482
  841SOL     hw 3363   0.955   3.900   6.474  0.0476  1.2521  0.9226
  841SOL     vw 3364   0.888   3.846   6.485  0.9369 -0.0634  0.1740
  842SOL     ow 3365   2.303   5.100   6.648 -0.4911 -0.3523 -0.3301
  842SOL     hw 3366   2.347   5.022   6.614 -1.4249 -0.7592 -0.6544
  842SOL     hw 3367   2.217   5.068   6.676 -0.9003  0.5771 -0.5073
  842SOL     vw 3368   2.298   5.085   6.647 -0.6683 -0.2835 -0.3965
  843SOL     ow 3369   2.366   1.492   1.361  0.8189  0.4660  0.5314
  843SOL     hw 3370   2.407   1.406   1.361  1.5590  0.7908 -1.1270
  843SOL     hw 3371   2.426   1.548   1.311 -0.5002  1.5250  0.0737
  843SOL     vw 3372   2.380   1.488   1.355  0.7424  0.6485  0.2522
  844SOL     ow 3373   1.064   4.417   2.948  0.3393 -0.0294 -0.8432
  844SOL     hw 3374   1.105   4.375   2.872  0.8554 -1.3540  0.1322
  844SOL     hw 3375   1.070   4.352   3.018  0.6354  1.4492  0.5781
  844SOL     vw 3376   1.070   4.403   2.947  0.4465 -0.0091 -0.5268
  845SOL     ow 3377   2.751   2.529   5.381 -0.7898 -0.3090 -0.2277
  845SOL     hw 3378   2.723   2.612   5.421 -4.1184 -1.1777 -0.5469
  845SOL     hw 3379   2.839   2.515   5.417 -1.4828  1.6151  2.5911
  845SOL     vw 3380   2.759   2.538   5.391 -1.3204 -0.1699  0.1023
  846SOL     ow 3381   5.038   0.717   1.792  0.1243  0.1142 -0.5461
  846SOL     hw 3382   4.957   0.687   1.750 -0.6964  0.1671  0.9189
  846SOL     hw 3383   5.108   0.673   1.745 -0.8823 -1.8151 -0.3425
  846SOL     vw 3384   5.036   0.708   1.781 -0.1166 -0.1334 -0.3260
  847SOL     ow 3385   4.969   1.094   5.912  0.1149  0.1456  0.3667
  847SOL     hw 3386   5.021   1.015   5.897 -2.5141 -1.3522 -1.8152
  847SOL     hw 3387   5.008   1.161   5.856  0.2371 -0.6989 -0.5713
  847SOL     vw 3388   4.981   1.092   5.903 -0.2160 -0.1634 -0.0451
  848SOL     ow 3389   0.210   0.088   3.921  0.2393  0.1773 -0.3680
  848SOL     hw 3390   0.136   0.031   3.903  0.3826  0.7770 -3.3623
  848SOL     hw 3391   0.284   0.046   3.878  1.3431  0.3470  1.2947
  848SOL     vw 3392   0.210   0.075   3.913  0.4038  0.2788 -0.5436
  849SOL     ow 3393   2.483   1.547   2.329 -0.2932  0.3219  0.3339
  849SOL     hw 3394   2.470   1.580   2.418  1.3047  2.4910 -0.1398
  849SOL     hw 3395   2.413   1.587   2.278 -1.0150 -0.6652  0.5129
  849SOL     vw 3396   2.472   1.557   2.334 -0.1775  0.4779  0.2949
  850SOL     ow 3397   4.840   3.092   1.161  0.2129  0.4335 -0.3924
  850SOL     hw 3398   4.752   3.126   1.149  0.2228  0.9748  0.8623
  850SOL     hw 3399   4.842   3.011   1.111 -1.4761 -0.3649  0.7452
  850SOL     vw 3400   4.829   3.086   1.153 -0.0086  0.3995 -0.0768
  851SOL     ow 3401   2.427   5.000   5.086 -0.8548  0.1221  0.1096
  851SOL     hw 3402   2.487   5.063   5.127 -1.4831  0.1954  0.9412
  851SOL     hw 3403   2.343   5.016   5.128 -1.3910 -0.1970 -0.8202
  851SOL     vw 3404   2.424   5.010   5.097 -1.0085  0.0896  0.0966
  852SOL     ow 3405   5.024   5.570   2.142 -0.2078  0.1799  0.4303
  852SOL     hw 3406   5.100   5.512   2.153  0.4095  1.1142  1.2356
  852SOL     hw 3407   4.948   5.513   2.157  0.3716 -0.4925  0.8667
  852SOL     vw 3408   5.024   5.555   2.145 -0.0498  0.2146  0.5941
  853SOL     ow 3409   0.443   6.509   0.803 -0.0991  0.3076  0.2854
  853SOL     hw 3410   0.457   6.422   0.767  0.1496  0.4757 -0.0200
  853SOL     hw 3411   0.515   6.562   0.770  1.0601  0.0932  2.2885
  853SOL     vw 3412   0.454   6.504   0.794  0.0867  0.3016  0.5094
  854SOL     ow 3413   6.338   4.920   4.091  0.2985  0.3471  0.8324
  854SOL     hw 3414   6.290   4.840   4.113  0.2812  0.1391  0.0628
  854SOL     hw 3415   6.363   4.957   4.176 -4.0431  2.2305  1.6131
  854SOL     vw 3416   6.335   4.915   4.105 -0.2768  0.5682  0.8337
  855SOL     ow 3417   1.469   4.463   6.049 -0.3831 -0.6957 -0.3081
  855SOL     hw 3418   1.536   4.406   6.088  1.4559  1.8651  0.5807
  855SOL     hw 3419   1.446   4.524   6.118 -1.1580  0.5748 -1.6196
  855SOL     vw 3420   1.475   4.464   6.063 -0.2427 -0.1903 -0.3638
  856SOL     ow 3421   6.642   3.325   1.581  0.2441  0.0630  0.0399
  856SOL     hw 3422   6.669   3.280   1.661  1.9783 -0.8697 -0.9841
  856SOL     hw 3423   6.723   3.365   1.548 -0.6759  1.4257 -0.6431
  856SOL     vw 3424   6.656   3.324   1.587  0.3512  0.1198 -0.1854
  857SOL     ow 3425   4.914   4.228   1.928  0.6557 -0.2622 -0.3268
  857SOL     hw 3426   4.915   4.260   2.018  0.0709 -2.0655  0.3632
  857SOL     hw 3427   4.966   4.292   1.879 -0.7924  1.9382  0.8439
  857SOL     vw 3428   4.921   4.241   1.933  0.3877 -0.2096 -0.0814
  858SOL     ow 3429   6.496   4.734   0.751  0.7972 -0.6509  0.0420
  858SOL     hw 3430   6.419   4.681   0.772  0.6342  0.5545  2.8874
  858SOL     hw 3431   6.562   4.670   0.724  0.1573 -2.2074  1.9040
  858SOL     vw 3432   6.494   4.718   0.750  0.6912 -0.6974  0.6631
  859SOL     ow 3433   5.822   2.454   6.522  0.1184  0.0463  0.0809
  859SOL     hw 3434   5.913   2.463   6.496 -0.1333  0.5492 -0.6720
  859SOL     hw 3435   5.806   2.530   6.579 -0.5226  1.5179 -1.9168
  859SOL     vw 3436   5.832   2.466   6.526  0.0007  0.3068 -0.2820
  860SOL     ow 3437   3.948   1.826   0.633  0.9485 -0.0207  0.5799
  860SOL     hw 3438   3.993   1.747   0.661  0.7185  0.1801  1.5745
  860SOL     hw 3439   3.926   1.811   0.541 -1.5151 -2.2744  1.4198
  860SOL     vw 3440   3.951   1.814   0.625  0.5931 -0.2916  0.8219
  861SOL     ow 3441   1.978   3.251   0.798  0.3123 -0.2151  0.3486
  861SOL     hw 3442   1.889   3.235   0.829  0.1257  2.5402  1.5386
  861SOL     hw 3443   1.967   3.281   0.707 -0.0797  0.7621  0.7032
  861SOL     vw 3444   1.965   3.253   0.790  0.2359  0.2773  0.5524
  862SOL     ow 3445   1.504   3.056   5.828 -0.0943 -0.5227 -0.4693
  862SOL     hw 3446   1.550   2.980   5.865  1.1109  0.0902 -0.6554
  862SOL     hw 3447   1.477   3.026   5.741  0.1521 -0.8325 -0.4431
  862SOL     vw 3448   1.507   3.042   5.821  0.0972 -0.4827 -0.4902
  863SOL     ow 3449   3.375   4.851   5.999  0.1037  0.7376  0.1474
  863SOL     hw 3450   3.453   4.841   6.052  0.9163  1.4546 -0.8549
  863SOL     hw 3451   3.339   4.763   5.991 -0.6138  0.7435  2.6555
  863SOL     vw 3452   3.380   4.838   6.005  0.1162  0.8328  0.3462
  864SOL     ow 3453   1.709   3.746   3.930  0.2828  0.3105  0.2578
  864SOL     hw 3454   1.701   3.650   3.923 -1.9769  0.5126 -0.6618
  864SOL     hw 3455   1.620   3.777   3.942  0.7814  2.4102 -0.9411
  864SOL     vw 3456   1.696   3.737   3.930  0.0504  0.6143 -0.0218
  865SOL     ow 3457   2.519   6.772   5.620 -0.4946  0.2601  0.6961
  865SOL     hw 3458   2.441   6.716   5.622 -0.2565 -0.1243 -0.3843
  865SOL     hw 3459   2.525   6.806   5.709 -2.2756  0.8208  0.6410
  865SOL     vw 3460   2.509   6.769   5.632 -0.6982  0.2832  0.5462
  866SOL     ow 3461   1.075   6.646   1.831  0.5154 -0.1616  0.9474
  866SOL     hw 3462   1.117   6.577   1.781 -0.4279 -0.0819  0.0245
  866SOL     hw 3463   1.139   6.718   1.831  1.2168 -0.7774  1.3409
  866SOL     vw 3464   1.089   6.647   1.824  0.4835 -0.2325  0.8775
  867SOL     ow 3465   6.832   1.848   2.488 -0.5433  0.2968  0.7858
  867SOL     hw 3466   6.826   1.855   2.583 -1.6417  0.1817  0.7404
  867SOL     hw 3467   6.922   1.819   2.471  0.4680  2.7171  1.6233
  867SOL     vw 3468   6.843   1.845   2.498 -0.5548  0.6009  0.8903
  868SOL     ow 3469   3.005   2.154   0.655 -0.2914 -1.1269  0.6330
  868SOL     hw 3470   3.084   2.185   0.610 -0.8093 -1.3106 -0.4244
  868SOL     hw 3471   3.004   2.060   0.639 -0.7926 -1.1069  0.5416
  868SOL     vw 3472   3.016   2.146   0.647 -0.4257 -1.1486  0.4815
  869SOL     ow 3473   5.640   3.384   1.643  0.5636  0.2494 -0.4963
  869SOL     hw 3474   5.607   3.328   1.712  0.2491  0.7103 -0.2736
  869SOL     hw 3475   5.598   3.351   1.563  1.2470 -0.5463 -0.5383
  869SOL     vw 3476   5.630   3.372   1.641  0.6125  0.2053 -0.4725
  870SOL     ow 3477   0.211   2.278   4.503  0.2001  0.7903  0.6129
  870SOL     hw 3478   0.290   2.324   4.531 -0.6847  2.1110  1.0027
  870SOL     hw 3479   0.196   2.306   4.413 -0.7579  1.9064  1.0922
  870SOL     vw 3480   0.219   2.287   4.495 -0.0430  1.1119  0.7274
  871SOL     ow 3481   4.847   1.439   3.114  0.6727 -0.4336  0.0193
  871SOL     hw 3482   4.791   1.442   3.191 -0.1983 -1.6523 -0.5235
  871SOL     hw 3483   4.792   1.400   3.046  1.7113 -0.2648 -0.9517
  871SOL     vw 3484   4.832   1.434   3.115  0.6948 -0.5721 -0.1805
  872SOL     ow 3485   5.774   5.182   0.556  0.1919  0.0739  0.8715
  872SOL     hw 3486   5.835   5.210   0.624  1.5393  2.7748 -1.2229
  872SOL     hw 3487   5.693   5.161   0.602  1.4124  0.4995  3.3724
  872SOL     vw 3488   5.772   5.183   0.571  0.5305  0.4864  0.9251
  873SOL     ow 3489   1.601   0.153   5.446 -0.7121 -0.0211 -0.3498
  873SOL     hw 3490   1.524   0.135   5.500 -0.9571  0.3642 -0.5727
  873SOL     hw 3491   1.566   0.170   5.359 -0.3107 -0.7827 -0.6764
  873SOL     vw 3492   1.586   0.153   5.442 -0.6915 -0.0707 -0.4225
  874SOL     ow 3493   0.476   5.153   0.232 -0.8633 -0.1340 -0.5379
  874SOL     hw 3494   0.571   5.151   0.221 -0.6701  1.2853  0.5086
  874SOL     hw 3495   0.458   5.239   0.271 -2.6458 -0.1336 -1.2612
  874SOL     vw 3496   0.486   5.164   0.236 -1.0730  0.0536 -0.4952
  875SOL     ow 3497   7.053   5.237   3.585 -0.0214 -0.4098 -0.1200
  875SOL     hw 3498   7.080   5.148   3.608 -0.0115 -0.5543 -0.6864
  875SOL     hw 3499   7.073   5.245   3.492  0.0502  0.2135 -0.0525
  875SOL     vw 3500   7.059   5.226   3.576 -0.0105 -0.3464 -0.1858
  876SOL     ow 3501   6.298   1.411   4.433 -0.4469  0.3576 -0.6162
  876SOL     hw 3502   6.218   1.360   4.446 -0.5833  0.3874 -1.3058
  876SOL     hw 3503   6.274   1.500   4.457  0.1269 -0.0550  1.8338
  876SOL     vw 3504   6.285   1.416   4.438 -0.3891  0.3071 -0.3836
  877SOL     ow 3505   4.598   4.583   0.806 -0.4540  0.0698  0.7499
  877SOL     hw 3506   4.535   4.650   0.835 -1.3765 -0.0836 -0.7698
  877SOL     hw 3507   4.679   4.631   0.791 -0.9594  0.7739  0.1964
  877SOL     vw 3508   4.600   4.598   0.808 -0.6423  0.1423  0.4764
  878SOL     ow 3509   2.897   3.673   6.518 -0.3588 -0.0151 -0.1180
  878SOL     hw 3510   2.972   3.633   6.561  0.4196 -3.5794 -4.1876
  878SOL     hw 3511   2.831   3.679   6.587  1.8683 -1.8727  2.3956
  878SOL     vw 3512   2.898   3.669   6.533  0.0378 -0.7305 -0.3233
  879SOL     ow 3513   4.479   7.033   1.657  0.3532 -0.1684  0.4273
  879SOL     hw 3514   4.497   7.058   1.566 -1.3103  1.9130  0.6022
  879SOL     hw 3515   4.549   7.074   1.708  2.6557 -3.1947  0.0336
  879SOL     vw 3516   4.491   7.042   1.651  0.4377 -0.2933  0.3985
  880SOL     ow 3517   1.909   1.644   5.284 -0.0689  0.1530 -0.1790
  880SOL     hw 3518   1.934   1.700   5.358  0.2092 -0.8095  0.4690
  880SOL     hw 3519   1.827   1.603   5.312  0.6162 -1.0819  0.0821
  880SOL     vw 3520   1.902   1.646   5.297  0.0582 -0.1369 -0.0591
  881SOL     ow 3521   6.800   0.486   7.067 -0.6562  0.8441 -0.3645
  881SOL     hw 3522   6.710   0.515   7.053 -0.8839  1.4764  1.9631
  881SOL     hw 3523   6.799   0.446   7.154  1.2851  0.8139 -0.3072
  881SOL     vw 3524   6.788   0.485   7.077 -0.4303  0.9236 -0.0501
  882SOL     ow 3525   2.535   4.190   3.502  0.4901  0.4210 -0.1255
  882SOL     hw 3526   2.629   4.184   3.491  0.7547 -0.9537  2.2367
  882SOL     hw 3527   2.522   4.263   3.564 -0.0859  1.1107 -1.0259
  882SOL     vw 3528   2.545   4.199   3.509  0.4491  0.3307  0.0675
  883SOL     ow 3529   6.813   2.310   6.209 -0.6199  0.3772 -1.4638
  883SOL     hw 3530   6.883   2.364   6.244  0.5598 -0.4616 -2.4364
  883SOL     hw 3531   6.858   2.239   6.163 -2.1161 -0.5988 -1.4828
  883SOL     vw 3532   6.828   2.308   6.207 -0.6616  0.1378 -1.5945
  884SOL     ow 3533   1.696   5.055   4.779  0.2410  0.9721  0.4583
  884SOL     hw 3534   1.635   5.124   4.806 -0.5448  1.4627 -2.2018
  884SOL     hw 3535   1.640   4.979   4.762  0.4030  1.2108 -1.3279
  884SOL     vw 3536   1.680   5.054   4.780  0.1587  1.0686 -0.1285
  885SOL     ow 3537   1.948   3.050   2.924 -0.3536 -0.0774 -0.3891
  885SOL     hw 3538   1.908   3.124   2.969 -1.7209  0.0053 -1.6872
  885SOL     hw 3539   1.937   3.069   2.831 -0.6845 -1.8789 -0.7601
  885SOL     vw 3540   1.942   3.062   2.917 -0.5777 -0.3040 -0.6094
  886SOL     ow 3541   5.879   1.902   3.185  0.3397 -0.2870  0.7552
  886SOL     hw 3542   5.910   1.868   3.269 -1.1279 -1.8800  0.6915
  886SOL     hw 3543   5.789   1.872   3.178  0.5510 -0.5475 -1.5875
  886SOL     vw 3544   5.871   1.894   3.195  0.1738 -0.5316  0.4379
  887SOL     ow 3545   0.644   1.354   6.008 -0.0553  0.1032  0.6736
  887SOL     hw 3546   0.715   1.364   5.945  0.5235 -0.7667  1.1661
  887SOL     hw 3547   0.567   1.388   5.963  0.6199  0.8234  0.0376
  887SOL     vw 3548   0.643   1.360   5.994  0.1102  0.0834  0.6549
  888SOL     ow 3549   1.604   1.738   6.677 -0.2148 -0.4858 -0.4445
  888SOL     hw 3550   1.556   1.664   6.715  0.5285 -1.6159 -1.6233
  888SOL     hw 3551   1.687   1.739   6.724 -0.8077  0.5946  0.6300
  888SOL     vw 3552   1.609   1.728   6.688 -0.1950 -0.4924 -0.4582
  889SOL     ow 3553   4.337   1.593   2.455  0.4786  0.0217  0.1380
  889SOL     hw 3554   4.336   1.507   2.498  0.3101 -0.7148 -1.2750
  889SOL     hw 3555   4.247   1.624   2.461  0.0688 -0.8536 -1.1340
  889SOL     vw 3556   4.325   1.586   2.462  0.4025 -0.1910 -0.2162
  890SOL     ow 3557   1.094   1.989   2.410 -0.5932 -0.1308 -0.3194
  890SOL     hw 3558   1.042   1.924   2.458 -2.9593  0.4888 -1.8665
  890SOL     hw 3559   1.029   2.046   2.369  1.3549  0.9603 -2.0879
  890SOL     vw 3560   1.079   1.988   2.411 -0.6483  0.0949 -0.7570
  891SOL     ow 3561   2.624   5.643   3.743  0.7421  0.4555 -0.0179
  891SOL     hw 3562   2.709   5.643   3.787  0.1548 -1.6632  1.2828
  891SOL     hw 3563   2.641   5.609   3.656  1.2005 -0.3379  0.3722
  891SOL     vw 3564   2.637   5.639   3.738  0.7252  0.0713  0.2052
  892SOL     ow 3565   0.136   1.702   6.490  0.4084  0.7025 -0.6068
  892SOL     hw 3566   0.217   1.743   6.461  0.0306 -0.5189 -3.7507
  892SOL     hw 3567   0.161   1.612   6.511  0.2708  0.9977  0.9617
  892SOL     vw 3568   0.150   1.695   6.489  0.3404  0.5804 -0.8147
  893SOL     ow 3569   1.329   6.250   5.374  0.6147 -0.2669 -1.0319
  893SOL     hw 3570   1.234   6.259   5.361  0.4594 -0.0720  0.1104
  893SOL     hw 3571   1.343   6.277   5.464  1.6578 -1.0780 -0.9342
  893SOL     vw 3572   1.318   6.255   5.384  0.7319 -0.3479 -0.8681
  894SOL     ow 3573   6.379   6.276   3.296 -0.6618 -0.6233 -0.0258
  894SOL     hw 3574   6.339   6.332   3.362 -2.4537 -1.0452 -0.6994
  894SOL     hw 3575   6.466   6.313   3.283 -0.4366 -0.2320  2.1918
  894SOL     vw 3576   6.385   6.288   3.303 -0.8686 -0.6275  0.1779
  895SOL     ow 3577   1.799   5.433   3.748 -0.2378 -0.2287 -0.0952
  895SOL     hw 3578   1.831   5.398   3.831  0.5786 -0.0530 -0.3365
  895SOL     hw 3579   1.771   5.355   3.699  1.2017 -0.5339 -0.4696
  895SOL     vw 3580   1.799   5.418   3.753  0.0598 -0.2458 -0.1764
  896SOL     ow 3581   1.786   2.524   1.963 -0.2353  0.0997 -0.0125
  896SOL     hw 3582   1.805   2.451   2.023  1.4203 -0.8896 -1.6209
  896SOL     hw 3583   1.784   2.483   1.877  0.1307  1.8827 -0.9005
  896SOL     vw 3584   1.788   2.509   1.960  0.0314  0.2044 -0.3419
  897SOL     ow 3585   2.421   4.172   5.253 -0.3763  0.0317  0.8451
  897SOL     hw 3586   2.464   4.096   5.212 -2.6946 -1.2742  0.6921
  897SOL     hw 3587   2.484   4.202   5.318  0.2662 -2.6445  1.6054
  897SOL     vw 3588   2.435   4.166   5.256 -0.5975 -0.4938  0.9251
  898SOL     ow 3589   3.654   6.821   1.790  0.0616  0.1719  0.4487
  898SOL     hw 3590   3.710   6.883   1.836 -0.2068  0.9212 -0.2037
  898SOL     hw 3591   3.608   6.773   1.859 -1.2112  2.0735  0.9988
  898SOL     vw 3592   3.655   6.823   1.805 -0.1416  0.5217  0.4352
  899SOL     ow 3593   3.865   4.180   6.635  0.7265 -0.2846  0.1860
  899SOL     hw 3594   3.932   4.111   6.640  1.0271 -0.0066  0.0775
  899SOL     hw 3595   3.831   4.173   6.546  1.1563  0.0689 -0.0118
  899SOL     vw 3596   3.869   4.170   6.624  0.8228 -0.2012  0.1454
  900SOL     ow 3597   4.871   5.356   2.160  0.8863  0.0652  0.1013
  900SOL     hw 3598   4.805   5.352   2.091  1.1695 -2.1284 -0.1215
  900SOL     hw 3599   4.820   5.371   2.240  0.0237 -1.7365 -0.0443
  900SOL     vw 3600   4.855   5.357   2.161  0.8094 -0.4621  0.0528
  901SOL     ow 3601   2.343   7.068   4.739  0.5466  0.4373 -0.1156
  901SOL     hw 3602   2.376   6.984   4.710 -0.8251  0.8759 -3.3274
  901SOL     hw 3603   2.256   7.048   4.774  0.7470  0.3794  0.3599
  901SOL     vw 3604   2.335   7.054   4.740  0.3921  0.4876 -0.4766
  902SOL     ow 3605   2.084   6.744   2.224  0.2114  0.0991 -0.1807
  902SOL     hw 3606   2.115   6.675   2.165  0.7360  1.8970 -2.1194
  902SOL     hw 3607   2.121   6.824   2.189 -3.2569  1.8907 -0.1524
  902SOL     vw 3608   2.093   6.745   2.212 -0.1768  0.5724 -0.4328
  903SOL     ow 3609   1.701   0.996   1.350 -0.3336  0.0481 -0.3452
  903SOL     hw 3610   1.683   0.911   1.390 -1.0635  0.7164  0.8214
  903SOL     hw 3611   1.797   1.003   1.350 -0.2779  0.5449  2.6018
  903SOL     vw 3612   1.712   0.986   1.356 -0.4226  0.2018  0.1976
  904SOL     ow 3613   6.790   3.538   4.227  0.3690  0.1572  0.7443
  904SOL     hw 3614   6.859   3.593   4.265  0.1211  2.1609 -1.4969
  904SOL     hw 3615   6.724   3.600   4.197 -1.1876 -1.5720  0.4310
  904SOL     vw 3616   6.790   3.553   4.228  0.1307  0.1935  0.4072
  905SOL     ow 3617   1.297   0.252   0.030  0.0178 -0.3585 -0.1254
  905SOL     hw 3618   1.374   0.229   0.083  0.8528  2.3999 -0.0100
  905SOL     hw 3619   1.276   0.342   0.055 -2.4131 -0.5377 -1.2078
  905SOL     vw 3620   1.304   0.261   0.040 -0.1928 -0.0182 -0.2530
  906SOL     ow 3621   3.444   4.837   3.769 -0.5209  0.1547  0.4033
  906SOL     hw 3622   3.492   4.770   3.818 -1.0231  1.2766  2.5822
  906SOL     hw 3623   3.497   4.916   3.778 -0.5875  0.3866 -1.0039
  906SOL     vw 3624   3.457   4.838   3.777 -0.5959  0.3335  0.5052
  907SOL     ow 3625   0.233   0.294   7.042  0.1197 -0.5219  0.0120
  907SOL     hw 3626   0.216   0.208   7.002 -1.8271 -0.1388 -0.1061
  907SOL     hw 3627   0.151   0.316   7.086 -0.6175  2.6677 -2.5623
  907SOL     vw 3628   0.220   0.285   7.042 -0.2344 -0.0505 -0.3436
  908SOL     ow 3629   0.442   3.434   4.307 -0.4395  0.7046  0.6437
  908SOL     hw 3630   0.471   3.378   4.236 -1.0491 -1.8763  2.3191
  908SOL     hw 3631   0.354   3.463   4.281 -0.6221 -0.1421  0.3103
  908SOL     vw 3632   0.434   3.431   4.295 -0.5440  0.2524  0.8206
  909SOL     ow 3633   4.185   7.052   1.704  0.4456 -0.0460  0.2453
  909SOL     hw 3634   4.279   7.035   1.693  0.5844  0.5781  0.4533
  909SOL     hw 3635   4.165   7.117   1.637  0.2857  0.2484  0.5778
  909SOL     vw 3636   4.195   7.058   1.694  0.4427  0.0753  0.3166
  910SOL     ow 3637   0.854   0.743   4.608  0.4661 -0.0252  0.0937
  910SOL     hw 3638   0.794   0.670   4.623 -0.2831  0.2630 -1.3416
  910SOL     hw 3639   0.835   0.805   4.678  1.3415 -1.3006  1.5332
  910SOL     vw 3640   0.844   0.741   4.619  0.4827 -0.1554  0.0944
  911SOL     ow 3641   3.298   1.523   2.867 -0.3591 -0.2575 -0.2360
  911SOL     hw 3642   3.296   1.537   2.772 -0.1440 -2.4489 -0.6059
  911SOL     hw 3643   3.323   1.432   2.877  0.9584  0.2900  1.9938
  911SOL     vw 3644   3.301   1.513   2.856 -0.1569 -0.4745  0.0093
  912SOL     ow 3645   0.277   4.748   7.098  0.6446  0.1404  0.3102
  912SOL     hw 3646   0.303   4.818   7.038 -0.5709 -0.6027 -1.1556
  912SOL     hw 3647   0.355   4.694   7.108  0.9022  0.3362 -0.5394
  912SOL     vw 3648   0.291   4.750   7.091  0.5182  0.0682  0.0045
  913SOL     ow 3649   0.371   5.024   0.434 -0.1602 -0.1479  0.2761
  913SOL     hw 3650   0.323   4.956   0.387  0.4513 -1.8424  1.9512
  913SOL     hw 3651   0.419   5.071   0.366 -2.0240 -0.1787 -1.1233
  913SOL     vw 3652   0.371   5.021   0.419 -0.3255 -0.3757  0.3125
  914SOL     ow 3653   6.124   1.313   0.029 -0.3013 -0.0441  0.5182
  914SOL     hw 3654   6.193   1.269   0.078 -0.9872 -3.4136 -1.2209
  914SOL     hw 3655   6.163   1.331  -0.056 -0.7488  0.5742  0.4379
  914SOL     vw 3656   6.138   1.309   0.024 -0.4511 -0.4071  0.2782
  915SOL     ow 3657   0.695   0.018   1.224 -0.3210  0.2740  0.2830
  915SOL     hw 3658   0.655   0.097   1.189  0.2391 -0.3868 -2.0516
  915SOL     hw 3659   0.784   0.045   1.248 -0.4552  0.5746  0.4428
  915SOL     vw 3660   0.702   0.032   1.223 -0.2648  0.2265 -0.0040
  916SOL     ow 3661   3.903   6.838   0.350  0.6349  0.7308  0.1350
  916SOL     hw 3662   3.858   6.756   0.333  3.8756 -1.5976  1.7390
  916SOL     hw 3663   3.887   6.856   0.443  0.6709  1.4574  0.0094
  916SOL     vw 3664   3.895   6.830   0.360  1.0672  0.5193  0.3301
  917SOL     ow 3665   0.705   4.791   6.747  0.1095  0.6415  0.0232
  917SOL     hw 3666   0.626   4.781   6.694  0.8736  1.9217 -1.4362
  917SOL     hw 3667   0.721   4.703   6.783 -0.8433 -0.0985 -1.2814
  917SOL     vw 3668   0.697   4.778   6.745  0.0846  0.7126 -0.3417
  918SOL     ow 3669   6.591   6.350   2.033  0.0111  0.2590 -0.5571
  918SOL     hw 3670   6.590   6.258   2.004 -0.3898  0.2300 -0.4619
  918SOL     hw 3671   6.503   6.364   2.068  0.7075  0.0454  1.4088
  918SOL     vw 3672   6.579   6.339   2.034  0.0501  0.2270 -0.2850
  919SOL     ow 3673   5.043   0.967   1.888  0.1928 -0.2904  0.3062
  919SOL     hw 3674   5.042   0.874   1.866  2.7839 -0.0625 -1.1858
  919SOL     hw 3675   5.112   1.004   1.833  1.4609  1.9252  3.1335
  919SOL     vw 3676   5.052   0.960   1.878  0.7019  0.0320  0.4823
  920SOL     ow 3677   4.004   0.385   5.017 -0.5623 -0.0535  0.8127
  920SOL     hw 3678   3.986   0.302   4.973  1.9904 -0.9828  1.3668
  920SOL     hw 3679   3.917   0.424   5.030 -1.6921 -1.6557 -1.2679
  920SOL     vw 3680   3.990   0.379   5.013 -0.3744 -0.3875  0.6113
  921SOL     ow 3681   6.899   5.770   6.721 -0.7257  0.2847  0.3900
  921SOL     hw 3682   6.952   5.776   6.800 -0.1285  2.1674 -0.1062
  921SOL     hw 3683   6.835   5.701   6.740  0.5418 -0.5580  1.7997
  921SOL     vw 3684   6.897   5.762   6.734 -0.4799  0.4220  0.5105
  922SOL     ow 3685   6.831   2.391   5.351  0.4453  0.3749 -0.3382
  922SOL     hw 3686   6.831   2.358   5.440  0.4338 -1.0003 -0.8138
  922SOL     hw 3687   6.771   2.466   5.352  1.1009  0.8876  0.9712
  922SOL     vw 3688   6.823   2.397   5.363  0.5302  0.2611 -0.2279
  923SOL     ow 3689   3.567   2.837   3.449 -0.0230  0.1151  0.3069
  923SOL     hw 3690   3.633   2.905   3.437 -0.2300 -0.0599 -2.4209
  923SOL     hw 3691   3.495   2.882   3.494  0.7021  1.1053  0.5223
  923SOL     vw 3692   3.566   2.852   3.454  0.0453  0.2226 -0.0247
  924SOL     ow 3693   3.551   3.811   1.483 -0.0072 -0.0872  0.2895
  924SOL     hw 3694   3.486   3.791   1.415  1.3656 -0.0599 -1.0943
  924SOL     hw 3695   3.578   3.726   1.517  1.3701 -0.3365 -1.2732
  924SOL     vw 3696   3.546   3.797   1.478  0.3555 -0.1166 -0.0992
  925SOL     ow 3697   3.922   0.900   0.358 -0.1402  0.6024 -0.1486
  925SOL     hw 3698   3.913   0.931   0.448  0.7047 -1.0875  0.5513
  925SOL     hw 3699   3.833   0.882   0.329 -0.3617  0.5149  0.5820
  925SOL     vw 3700   3.909   0.902   0.366 -0.0581  0.3679  0.0401
  926SOL     ow 3701   5.027   3.171   0.366 -0.3937 -0.0922  0.3779
  926SOL     hw 3702   4.943   3.212   0.383  0.0457  1.5897 -1.1607
  926SOL     hw 3703   5.019   3.083   0.403 -1.6856  1.0333  3.0369
  926SOL     vw 3704   5.015   3.164   0.373 -0.5064  0.2782  0.5257
  927SOL     ow 3705   1.987   3.761   3.844  0.3301  0.6297 -0.4601
  927SOL     hw 3706   2.028   3.683   3.881  0.5019 -0.0066 -1.9244
  927SOL     hw 3707   1.904   3.769   3.892  2.5084  2.7249  3.5365
  927SOL     vw 3708   1.981   3.752   3.856  0.6402  0.8223 -0.1260
  928SOL     ow 3709   3.922   6.662   4.352  0.8798  0.1197  0.1587
  928SOL     hw 3710   3.853   6.723   4.325  2.5967  1.8645 -0.5943
  928SOL     hw 3711   3.957   6.627   4.271 -0.1716 -2.0897  0.5898
  928SOL     vw 3712   3.917   6.666   4.338  0.9675  0.0584  0.1163
  929SOL     ow 3713   3.268   1.830   4.129 -0.3514 -0.8912 -0.2879
  929SOL     hw 3714   3.180   1.793   4.123 -1.6308  1.2896  2.5627
  929SOL     hw 3715   3.255   1.924   4.133  2.1981 -0.4584 -0.4020
  929SOL     vw 3716   3.255   1.837   4.129 -0.1839 -0.5465  0.0732
  930SOL     ow 3717   7.035   4.288   1.066 -0.0757  0.7335  0.2362
  930SOL     hw 3718   7.073   4.373   1.088 -0.8592  0.5917  2.3491
  930SOL     hw 3719   7.008   4.251   1.150 -0.4176 -1.3023 -0.7046
  930SOL     vw 3720   7.036   4.294   1.080 -0.2241  0.4461  0.3909
  931SOL     ow 3721   6.842   6.459   1.807  0.0455  0.1283 -0.5611
  931SOL     hw 3722   6.845   6.515   1.730 -0.1798 -0.6529 -1.1552
  931SOL     hw 3723   6.857   6.370   1.773  2.9279  0.0418  0.6312
  931SOL     vw 3724   6.844   6.454   1.792  0.3960  0.0138 -0.4821
  932SOL     ow 3725   1.514   2.903   6.971  0.1390 -0.0241  0.0757
  932SOL     hw 3726   1.499   2.996   6.986 -1.4923 -0.3643  0.7632
  932SOL     hw 3727   1.547   2.898   6.882 -0.5284  1.1472 -0.2617
  932SOL     vw 3728   1.517   2.914   6.962 -0.1643  0.0855  0.1216
  933SOL     ow 3729   1.334   4.117   2.707 -0.8290 -0.3601 -0.7390
  933SOL     hw 3730   1.298   4.206   2.699 -1.5145 -0.7147 -1.8249
  933SOL     hw 3731   1.422   4.123   2.670 -0.4073  0.1118  0.2850
  933SOL     vw 3732   1.341   4.129   2.701 -0.8639 -0.3448 -0.7472
  934SOL     ow 3733   0.570   1.809   4.290 -0.2728  0.0686 -0.1842
  934SOL     hw 3734   0.499   1.864   4.257  0.8799  1.1058 -1.0683
  934SOL     hw 3735   0.634   1.807   4.219  0.3218 -1.3404  0.3485
  934SOL     vw 3736   0.569   1.816   4.277 -0.0423  0.0196 -0.2308
  935SOL     ow 3737   5.559   0.843   5.567 -0.0409 -0.3084 -0.0354
  935SOL     hw 3738   5.651   0.840   5.595  0.5225 -0.8914 -1.7906
  935SOL     hw 3739   5.513   0.788   5.630  1.2660 -2.1135 -0.5694
  935SOL     vw 3740   5.565   0.836   5.579  0.2058 -0.6235 -0.3374
  936SOL     ow 3741   6.097   2.060   2.611 -0.2292  0.7807 -0.2318
  936SOL     hw 3742   6.103   1.969   2.641  0.8403  1.4052  1.5842
  936SOL     hw 3743   6.070   2.053   2.519  1.0238 -1.4128 -0.5003
  936SOL     vw 3744   6.094   2.047   2.603  0.0772  0.5736 -0.0275
  937SOL     ow 3745   7.071   1.445   1.858 -0.5147  0.2590 -0.7953
  937SOL     hw 3746   7.108   1.357   1.861 -0.2455  0.3367  3.1184
  937SOL     hw 3747   6.976   1.432   1.850 -0.7976 -0.6855  2.6185
  937SOL     vw 3748   7.063   1.432   1.857 -0.5162  0.1447  0.1715
  938SOL     ow 3749   1.304   0.453   1.499  0.2039 -0.4476 -0.3545
  938SOL     hw 3750   1.388   0.460   1.453  0.1379 -0.6857 -0.5083
  938SOL     hw 3751   1.279   0.362   1.490 -0.4319 -0.2231 -0.9385
  938SOL     vw 3752   1.312   0.442   1.492  0.1113 -0.4494 -0.4518
  939SOL     ow 3753   5.984   1.767   1.687  0.2052  0.6203  0.2135
  939SOL     hw 3754   5.971   1.755   1.593  1.8702  1.9788 -0.2381
  939SOL     hw 3755   5.934   1.847   1.708  1.2864  1.3441  0.0913
  939SOL     vw 3756   5.975   1.776   1.678  0.5672  0.8951  0.1377
  940SOL     ow 3757   3.696   2.851   6.946 -0.1076  0.1311 -0.5022
  940SOL     hw 3758   3.749   2.910   7.000  1.1855 -0.0082 -1.5909
  940SOL     hw 3759   3.735   2.765   6.959 -1.9768 -0.5690  1.0617
  940SOL     vw 3760   3.708   2.848   6.955 -0.1836  0.0204 -0.4396
  941SOL     ow 3761   0.343   0.911   0.351 -0.1634  0.1387 -0.1584
  941SOL     hw 3762   0.286   0.928   0.426 -0.0022  1.8575 -0.3895
  941SOL     hw 3763   0.426   0.953   0.375  0.0122  0.3497 -1.1293
  941SOL     vw 3764   0.347   0.918   0.364 -0.1190  0.3933 -0.3170
  942SOL     ow 3765   0.111   2.916   0.919 -0.0816  0.4124 -0.5717
  942SOL     hw 3766   0.062   2.834   0.912  1.6346 -0.6856 -0.5022
  942SOL     hw 3767   0.191   2.899   0.869  0.0267  2.2983 -1.1016
  942SOL     vw 3768   0.115   2.903   0.911  0.1591  0.5163 -0.6325
  943SOL     ow 3769   5.232   6.542   5.282 -0.1701  0.0321 -0.4933
  943SOL     hw 3770   5.257   6.596   5.356  0.3846 -0.8517 -0.0180
  943SOL     hw 3771   5.294   6.469   5.283 -0.8855 -0.6090 -1.1148
  943SOL     vw 3772   5.243   6.539   5.292 -0.1915 -0.1690 -0.5124
  944SOL     ow 3773   3.011   1.228   2.470 -0.6714  0.7682 -0.5573
  944SOL     hw 3774   2.940   1.165   2.479  0.4671 -0.2848  2.2106
  944SOL     hw 3775   2.968   1.313   2.467 -2.0902  0.0995 -0.0090
  944SOL     vw 3776   2.996   1.231   2.471 -0.7083  0.5410 -0.1198
  945SOL     ow 3777   2.840   3.341   6.451  0.6151 -0.6326 -0.2889
  945SOL     hw 3778   2.853   3.292   6.532 -0.1271 -0.3249  0.0197
  945SOL     hw 3779   2.820   3.430   6.479  1.7708 -0.1669 -0.8453
  945SOL     vw 3780   2.839   3.346   6.465  0.6696 -0.5305 -0.3216
  946SOL     ow 3781   1.287   4.122   0.371  0.2643  0.8177 -0.3392
  946SOL     hw 3782   1.320   4.045   0.417 -1.8650  0.4107  0.6591
  946SOL     hw 3783   1.357   4.146   0.311  1.2288 -1.5640 -0.2915
  946SOL     vw 3784   1.300   4.115   0.369  0.1106  0.4499 -0.2012
  947SOL     ow 3785   0.807   5.313   7.088 -0.6788  0.2032  0.0013
  947SOL     hw 3786   0.737   5.378   7.097 -0.5378  0.2540  0.8043
  947SOL     hw 3787   0.874   5.341   7.150  0.9045  1.2069 -2.0062
  947SOL     vw 3788   0.807   5.325   7.097 -0.4512  0.3421 -0.1574
  948SOL     ow 3789   6.665   1.713   4.257 -0.3670  0.3611  0.0490
  948SOL     hw 3790   6.687   1.758   4.175  1.2571 -1.5169 -0.6395
  948SOL     hw 3791   6.730   1.643   4.263 -1.6917 -0.7793  1.9504
  948SOL     vw 3792   6.677   1.710   4.247 -0.3273 -0.0371  0.2091
  949SOL     ow 3793   5.449   5.521   0.229 -0.2219 -0.4353 -0.4389
  949SOL     hw 3794   5.470   5.512   0.322  0.6064 -0.1333 -0.5865
  949SOL     hw 3795   5.433   5.432   0.199  0.4987 -0.6491 -0.2212
  949SOL     vw 3796   5.450   5.508   0.238 -0.0174 -0.4234 -0.4297
  950SOL     ow 3797   3.129   1.579   5.848  0.0536  0.4598  0.0267
  950SOL     hw 3798   3.208   1.591   5.901 -0.0128 -1.4561  0.6483
  950SOL     hw 3799   3.119   1.484   5.841 -2.9760  0.5827  1.1611
  950SOL     vw 3800   3.138   1.568   5.854 -0.3549  0.2233  0.2584
  951SOL     ow 3801   1.345   7.121   3.857 -0.7210 -0.2366  0.0173
  951SOL     hw 3802   1.380   7.147   3.771 -0.8056  0.3899  0.1689
  951SOL     hw 3803   1.251   7.119   3.844 -0.6541 -1.9639 -0.4016
  951SOL     vw 3804   1.338   7.124   3.844 -0.7234 -0.3819 -0.0181
  952SOL     ow 3805   4.308   3.740   5.168 -0.1726 -0.5698  0.2369
  952SOL     hw 3806   4.288   3.827   5.203  1.7206  0.1566 -0.3553
  952SOL     hw 3807   4.223   3.704   5.144 -1.1425  0.5235  1.8330
  952SOL     vw 3808   4.294   3.747   5.169 -0.0508 -0.3297  0.3693
  953SOL     ow 3809   0.279   3.857   6.098 -0.3926 -0.4712 -0.2322
  953SOL     hw 3810   0.341   3.889   6.031 -1.4942  0.2493 -0.9429
  953SOL     hw 3811   0.263   3.766   6.074 -0.3227 -0.3899 -0.6069
  953SOL     vw 3812   0.285   3.849   6.086 -0.5287 -0.3653 -0.3755
  954SOL     ow 3813   0.582   6.196   1.190 -0.3803  0.5198 -0.5292
  954SOL     hw 3814   0.649   6.184   1.257 -1.4361  1.3455  0.7354
  954SOL     hw 3815   0.589   6.119   1.135  0.0227 -0.5826  1.0019
  954SOL     vw 3816   0.592   6.185   1.192 -0.4664  0.4835 -0.1603
  955SOL     ow 3817   3.912   1.833   4.436 -0.6164  0.3334 -0.2068
  955SOL     hw 3818   3.842   1.896   4.455 -0.3230  0.9240 -1.0806
  955SOL     hw 3819   3.980   1.853   4.500 -1.3292 -0.4090  0.8181
  955SOL     vw 3820   3.912   1.844   4.447 -0.6719  0.3133 -0.1869
  956SOL     ow 3821   5.796   6.025   1.622  0.0394  0.8470 -0.5203
  956SOL     hw 3822   5.738   6.100   1.607 -0.8443  0.3049  0.0486
  956SOL     hw 3823   5.813   5.991   1.534 -1.9323  0.0036 -0.6434
  956SOL     vw 3824   5.790   6.031   1.608 -0.3374  0.6642 -0.4615
  957SOL     ow 3825   0.858   2.478   3.458  0.3620  0.6443  0.4293
  957SOL     hw 3826   0.799   2.406   3.478  1.4481 -0.3998  0.0026
  957SOL     hw 3827   0.854   2.487   3.363  2.0219 -0.4986  0.2032
  957SOL     vw 3828   0.850   2.470   3.448  0.7243  0.3557  0.3432
  958SOL     ow 3829   5.199   2.470   3.608 -0.0696 -0.4631 -0.8519
  958SOL     hw 3830   5.115   2.435   3.578 -1.0007 -1.0949  2.0947
  958SOL     hw 3831   5.181   2.562   3.627 -0.3687 -0.7675  0.4675
  958SOL     vw 3832   5.186   2.478   3.607 -0.2320 -0.5866 -0.2890
  959SOL     ow 3833   0.713   2.135   0.961 -0.5664  0.3412  0.6359
  959SOL     hw 3834   0.699   2.176   1.046 -1.0496 -0.8887  1.1661
  959SOL     hw 3835   0.808   2.137   0.949 -0.0758 -2.5792  2.8547
  959SOL     vw 3836   0.723   2.141   0.971 -0.5654 -0.2064  0.9986
  960SOL     ow 3837   4.986   2.208   2.484  0.0744 -0.2181 -0.5711
  960SOL     hw 3838   4.965   2.257   2.564  1.5633  0.1338 -0.3635
  960SOL     hw 3839   5.068   2.247   2.453  0.2327 -1.2611 -1.5201
  960SOL     vw 3840   4.994   2.220   2.491  0.2921 -0.3092 -0.6690
  961SOL     ow 3841   1.808   5.778   0.436  0.1345 -1.1204 -0.0616
  961SOL     hw 3842   1.834   5.697   0.393 -0.9296 -0.7083 -1.5394
  961SOL     hw 3843   1.779   5.836   0.365 -2.3145 -0.6457  1.2158
  961SOL     vw 3844   1.808   5.775   0.421 -0.3290 -1.0035 -0.0880
  962SOL     ow 3845   3.471   4.579   3.678  1.0368  0.6714 -0.3452
  962SOL     hw 3846   3.526   4.518   3.628  1.1534  1.4617 -1.1994
  962SOL     hw 3847   3.425   4.523   3.741  2.0001 -0.1489 -0.3358
  962SOL     vw 3848   3.472   4.563   3.680  1.1793  0.6676 -0.4565
  963SOL     ow 3849   4.306   3.182   5.500 -0.3179 -0.0827  0.1360
  963SOL     hw 3850   4.242   3.253   5.505  0.5250  0.7996 -0.8752
  963SOL     hw 3851   4.366   3.199   5.572 -1.3651 -1.0937  1.2797
  963SOL     vw 3852   4.306   3.194   5.510 -0.3445 -0.0997  0.1535
  964SOL     ow 3853   0.845   5.440   4.814 -0.5507 -0.2397  0.0493
  964SOL     hw 3854   0.868   5.348   4.826 -1.5517 -0.4796  0.1813
  964SOL     hw 3855   0.753   5.439   4.785 -0.4968  0.7019 -0.2052
  964SOL     vw 3856   0.836   5.428   4.812 -0.6757 -0.1471  0.0331
  965SOL     ow 3857   1.455   6.062   1.863 -0.5439 -0.4542  0.0107
  965SOL     hw 3858   1.465   5.973   1.896  0.0674 -0.3682  0.0616
  965SOL     hw 3859   1.427   6.051   1.772 -0.2836 -0.7010 -0.0389
  965SOL     vw 3860   1.452   6.049   1.855 -0.4289 -0.4749  0.0109
  966SOL     ow 3861   0.990   3.422   1.613  0.3705 -0.6585  0.5450
  966SOL     hw 3862   0.968   3.507   1.650 -3.3514 -1.7363  1.2035
  966SOL     hw 3863   0.984   3.361   1.687 -2.0266 -2.1098 -0.7164
  966SOL     vw 3864   0.986   3.425   1.628 -0.4368 -0.9922  0.4655
  967SOL     ow 3865   3.099   0.959   2.467 -0.1836  0.1711  0.2826
  967SOL     hw 3866   3.164   0.897   2.499  0.4082  0.7358  0.1830
  967SOL     hw 3867   3.075   0.925   2.381 -0.6461 -0.4989  0.6665
  967SOL     vw 3868   3.104   0.946   2.460 -0.1665  0.1571  0.3202
  968SOL     ow 3869   3.767   2.870   1.254  0.4899 -0.7955  0.0081
  968SOL     hw 3870   3.693   2.810   1.242  0.6093 -1.6294  2.8255
  968SOL     hw 3871   3.781   2.872   1.348  1.6824  2.2910 -0.1251
  968SOL     vw 3872   3.759   2.862   1.265  0.6629 -0.4983  0.3623
  969SOL     ow 3873   5.834   6.413   4.647  0.2614 -0.9074  0.2725
  969SOL     hw 3874   5.874   6.382   4.728  1.4722 -1.3404 -0.4532
  969SOL     hw 3875   5.899   6.392   4.579  0.0402  0.9587 -0.5899
  969SOL     vw 3876   5.848   6.407   4.649  0.3917 -0.7184  0.0629
  970SOL     ow 3877   4.317   0.550   0.575 -0.1211 -0.3213 -0.2847
  970SOL     hw 3878   4.235   0.505   0.597 -0.6536 -0.0812 -1.6665
  970SOL     hw 3879   4.378   0.479   0.555  0.5056 -0.5653  2.2088
  970SOL     vw 3880   4.314   0.534   0.575 -0.1085 -0.3219 -0.1380
  971SOL     ow 3881   0.071   4.080   5.095  0.2117  0.6726 -0.2644
  971SOL     hw 3882   0.068   4.034   5.011 -0.3089  2.3634 -1.2173
  971SOL     hw 3883   0.069   4.010   5.160 -2.5247 -0.6665 -1.6011
  971SOL     vw 3884   0.070   4.065   5.093 -0.2181  0.7191 -0.5665
  972SOL     ow 3885   0.719   3.278   5.546  0.2518 -0.0315 -0.5397
  972SOL     hw 3886   0.704   3.306   5.637  1.1297  1.5210 -0.8335
  972SOL     hw 3887   0.679   3.191   5.541  0.9054 -0.5157  1.5618
  972SOL     vw 3888   0.712   3.270   5.558  0.4539  0.1096 -0.3011
  973SOL     ow 3889   0.624   6.249   7.182 -0.4502 -0.0379 -0.1364
  973SOL     hw 3890   0.610   6.162   7.219  1.5455 -0.4532 -0.2668
  973SOL     hw 3891   0.598   6.240   7.090  0.6559 -0.7955 -0.3981
  973SOL     vw 3892   0.619   6.236   7.175 -0.0409 -0.1926 -0.1881
  974SOL     ow 3893   2.227   4.407   5.243 -0.5979  0.0984  0.2624
  974SOL     hw 3894   2.308   4.455   5.260 -0.5103 -0.2790  0.9157
  974SOL     hw 3895   2.158   4.474   5.248 -0.2410  0.6839 -1.5833
  974SOL     vw 3896   2.228   4.422   5.246 -0.5392  0.1259  0.1051
  975SOL     ow 3897   2.205   3.794   2.552 -0.2660  0.5358  0.5146
  975SOL     hw 3898   2.130   3.798   2.611 -1.7918  0.6566 -1.3201
  975SOL     hw 3899   2.209   3.702   2.525 -0.9492  0.8720 -0.8030
  975SOL     vw 3900   2.196   3.782   2.556 -0.5574  0.5960  0.0986
  976SOL     ow 3901   2.564   7.242   0.408  0.2517  0.3222  0.1165
  976SOL     hw 3902   2.644   7.225   0.458  0.0690 -0.6076  0.1146
  976SOL     hw 3903   2.495   7.198   0.458 -0.3359  1.4709  0.3400
  976SOL     vw 3904   2.565   7.234   0.422  0.1500  0.3512  0.1457
  977SOL     ow 3905   2.752   4.749   0.363  0.4061  0.2517  0.2737
  977SOL     hw 3906   2.787   4.660   0.373  0.3397 -0.3744 -3.6150
  977SOL     hw 3907   2.829   4.805   0.354  0.4321  0.3757  1.1980
  977SOL     vw 3908   2.766   4.745   0.363  0.4007  0.1855 -0.1174
  978SOL     ow 3909   5.234   3.710   1.450 -1.0866  0.3783  0.0278
  978SOL     hw 3910   5.260   3.720   1.358 -0.4604  0.5466  0.2162
  978SOL     hw 3911   5.299   3.761   1.498 -0.8950 -0.4205  0.6310
  978SOL     vw 3912   5.246   3.718   1.444 -0.9789  0.2950  0.1323
  979SOL     ow 3913   5.949   2.411   4.616  0.3525 -0.2810  0.7763
  979SOL     hw 3914   5.888   2.341   4.596 -0.4520 -0.0176  2.1121
  979SOL     hw 3915   5.907   2.490   4.583  1.7510 -0.4873 -1.7062
  979SOL     vw 3916   5.936   2.413   4.609  0.4308 -0.2735  0.6251
  980SOL     ow 3917   1.342   6.049   5.190 -0.0774 -0.2029 -0.0836
  980SOL     hw 3918   1.357   6.106   5.266 -0.8367 -0.3765  0.2079
  980SOL     hw 3919   1.361   5.961   5.222  1.4866 -0.0885 -0.6461
  980SOL     vw 3920   1.346   6.045   5.204  0.0288 -0.2105 -0.1194
  981SOL     ow 3921   3.517   0.180   2.991 -0.3871 -0.1228 -0.4865
  981SOL     hw 3922   3.471   0.177   2.907  1.4393  1.1681 -1.6194
  981SOL     hw 3923   3.528   0.088   3.015 -0.4023 -0.5564 -2.0087
  981SOL     vw 3924   3.512   0.167   2.983 -0.1482 -0.0097 -0.8367
  982SOL     ow 3925   1.062   4.677   3.112 -0.1406  0.1322  1.0459
  982SOL     hw 3926   1.030   4.717   3.193 -0.0277  2.6696 -0.0544
  982SOL     hw 3927   1.126   4.740   3.079 -0.6885 -0.4984 -1.3671
  982SOL     vw 3928   1.067   4.691   3.118 -0.1980  0.3839  0.5823
  983SOL     ow 3929   3.589   2.966   2.505 -0.6497  0.0601 -0.2050
  983SOL     hw 3930   3.632   2.930   2.428 -2.7897 -1.6786 -0.6967
  983SOL     hw 3931   3.595   2.897   2.571 -1.4509  0.3134  0.1506
  983SOL     vw 3932   3.595   2.953   2.504 -1.0377 -0.1360 -0.2229
  984SOL     ow 3933   6.393   0.173   3.987 -0.0166  0.3538 -0.7474
  984SOL     hw 3934   6.381   0.268   3.984 -2.8536  0.5161  4.2331
  984SOL     hw 3935   6.314   0.141   4.031  0.6489 -4.4634 -2.4581
  984SOL     vw 3936   6.381   0.181   3.993 -0.3033 -0.2603 -0.3160
  985SOL     ow 3937   5.724   2.899   1.512 -0.1679  0.1916  0.2569
  985SOL     hw 3938   5.674   2.946   1.446 -0.8178  0.9377  1.2398
  985SOL     hw 3939   5.673   2.912   1.593  1.5147  0.8104  1.2573
  985SOL     vw 3940   5.710   2.907   1.514 -0.0317  0.3718  0.5186
  986SOL     ow 3941   2.843   6.735   3.376  0.4058 -0.4820  0.6670
  986SOL     hw 3942   2.917   6.726   3.315  0.0653 -1.6527  0.3898
  986SOL     hw 3943   2.794   6.810   3.343 -0.6031 -1.9678 -1.4870
  986SOL     vw 3944   2.847   6.744   3.363  0.2276 -0.8326  0.3462
  987SOL     ow 3945   2.015   4.035   6.257 -0.1664  0.2001  0.3298
  987SOL     hw 3946   2.093   4.088   6.241  0.2882 -1.1288 -2.4624
  987SOL     hw 3947   2.025   4.003   6.347  1.6284  1.4428  0.6130
  987SOL     vw 3948   2.027   4.037   6.267  0.1303  0.1888 -0.0010
  988SOL     ow 3949   4.132   2.969   5.449  0.6681  0.0195 -0.7199
  988SOL     hw 3950   4.056   2.987   5.505  1.2807 -1.8642  0.8418
  988SOL     hw 3951   4.204   3.018   5.489  1.3935 -2.2883  1.0497
  988SOL     vw 3952   4.131   2.977   5.462  0.8445 -0.5335 -0.2801
  989SOL     ow 3953   0.427   1.138   5.954  0.1934 -0.3533  0.0436
  989SOL     hw 3954   0.407   1.054   5.913  4.9405 -1.5378 -0.4338
  989SOL     hw 3955   0.461   1.192   5.883  0.1406  0.8330  0.8833
  989SOL     vw 3956   0.429   1.134   5.939  0.8128 -0.3531  0.0916
  990SOL     ow 3957   4.607   4.426   3.980  0.3076  0.5280  0.1775
  990SOL     hw 3958   4.662   4.452   4.054  0.1813 -0.8836  0.7967
  990SOL     hw 3959   4.658   4.359   3.935  0.5492  1.6403 -1.2721
  990SOL     vw 3960   4.621   4.421   3.984  0.3228  0.4883  0.0681
  991SOL     ow 3961   6.411   5.028   7.076 -0.4224  0.7391 -0.4320
  991SOL     hw 3962   6.486   4.992   7.030 -0.5893  2.0687 -1.8456
  991SOL     hw 3963   6.437   5.030   7.168 -0.0570 -1.9487 -0.4205
  991SOL     vw 3964   6.424   5.024   7.082 -0.3963  0.5600 -0.6170
  992SOL     ow 3965   4.906   1.959   2.221  0.1180 -0.5631 -0.0524
  992SOL     hw 3966   4.850   1.885   2.246 -1.0061  0.4454  0.5710
  992SOL     hw 3967   4.904   1.960   2.126 -0.8793 -0.6018 -0.0427
  992SOL     vw 3968   4.898   1.949   2.212 -0.1619 -0.4351  0.0312
  993SOL     ow 3969   3.092   6.522   1.258  0.3801  0.0112  0.6257
  993SOL     hw 3970   3.134   6.580   1.322  1.6403 -1.0410  0.8069
  993SOL     hw 3971   3.161   6.461   1.233 -0.3684 -0.2060 -1.0305
  993SOL     vw 3972   3.107   6.522   1.263  0.4476 -0.1562  0.4311
  994SOL     ow 3973   1.799   0.713   3.962  0.1609 -0.4157  0.1581
  994SOL     hw 3974   1.760   0.655   4.028  1.3256 -0.6470  0.6729
  994SOL     hw 3975   1.891   0.688   3.960  0.1783 -0.3284 -1.4902
  994SOL     vw 3976   1.806   0.702   3.971  0.3169 -0.4347  0.0086
  995SOL     ow 3977   3.097   5.493   1.941  0.3846  0.6220  0.5925
  995SOL     hw 3978   3.122   5.410   1.983  3.6155  1.8906  1.4519
  995SOL     hw 3979   3.068   5.549   2.013  1.0078  1.1456  0.4475
  995SOL     vw 3980   3.097   5.489   1.956  0.8931  0.8581  0.6868
  996SOL     ow 3981   0.488   0.723   0.207 -0.6673 -0.4876  0.2997
  996SOL     hw 3982   0.540   0.657   0.253 -0.1501  1.4881  2.7600
  996SOL     hw 3983   0.419   0.746   0.269 -2.4086 -0.4881 -1.5218
  996SOL     vw 3984   0.486   0.717   0.221 -0.8288 -0.2270  0.3840
  997SOL     ow 3985   0.339   4.770   0.362  0.3395  0.2312  0.1135
  997SOL     hw 3986   0.308   4.696   0.415 -0.5564  0.3592 -0.2082
  997SOL     hw 3987   0.431   4.779   0.385 -0.0811  0.4597  1.8609
  997SOL     vw 3988   0.347   4.761   0.372  0.1658  0.2782  0.3016
  998SOL     ow 3989   4.995   1.902   5.185  0.4589  0.3897 -0.0656
  998SOL     hw 3990   5.024   1.869   5.100  0.3029  0.6433 -0.2162
  998SOL     hw 3991   4.988   1.996   5.173  1.3840  0.5399  0.5067
  998SOL     vw 3992   4.998   1.910   5.172  0.5605  0.4430 -0.0098
  999SOL     ow 3993   6.126   4.897   1.988 -0.0233  0.1561 -0.4514
  999SOL     hw 3994   6.208   4.906   2.037 -0.9332  2.9159  0.7781
  999SOL     hw 3995   6.084   4.820   2.024  1.4750 -0.6241 -0.2843
  999SOL     vw 3996   6.132   4.888   1.999  0.0541  0.4172 -0.2671
 1000SOL     ow 3997   3.363   5.076   3.479 -0.0145  0.3357  1.0431
 1000SOL     hw 3998   3.287   5.023   3.504  0.6996  0.6187  4.2206
 1000SOL     hw 3999   3.332   5.166   3.486  0.7328  0.4793  3.1264
 1000SOL     vw 4000   3.349   5.081   3.483  0.1783  0.3920  1.7371
 1001SOL     ow 4001   6.040   6.410   1.441 -0.1094 -0.3798  0.5034
 1001SOL     hw 4002   5.969   6.467   1.411 -1.3988 -1.8085  0.7105
 1001SOL     hw 4003   6.083   6.381   1.361  0.7053  1.0055  0.4030
 1001SOL     vw 4004   6.036   6.414   1.426 -0.1721 -0.3858  0.5175
 1002SOL     ow 4005   0.966   4.804   4.085  0.0434  0.0495  0.0365
 1002SOL     hw 4006   0.886   4.837   4.127 -0.5182 -2.0604  0.7554
 1002SOL     hw 4007   0.959   4.832   3.994 -0.6827  1.3338  0.4726
 1002SOL     vw 4008   0.954   4.812   4.078 -0.1265 -0.0591  0.1888
 1003SOL     ow 4009   3.698   6.919   1.460  0.5438  0.0554  0.5164
 1003SOL     hw 4010   3.770   6.981   1.449 -1.0355  1.8500 -0.3596
 1003SOL     hw 4011   3.719   6.847   1.400  1.4915  0.6378  0.1294
 1003SOL     vw 4012   3.710   6.917   1.450  0.4605  0.3688  0.3498
 1004SOL     ow 4013   3.392   0.923   6.470 -0.1018 -0.2312  0.1903
 1004SOL     hw 4014   3.332   0.983   6.427 -1.5056 -1.9340 -0.3404
 1004SOL     hw 4015   3.442   0.882   6.399  0.7080  0.1350  0.5292
 1004SOL     vw 4016   3.391   0.925   6.455 -0.1801 -0.4075  0.1650
 1005SOL     ow 4017   6.378   0.285   3.483 -0.3792  0.0534  0.0745
 1005SOL     hw 4018   6.418   0.315   3.401  0.4367 -0.4498  0.2745
 1005SOL     hw 4019   6.321   0.356   3.510 -1.2462 -0.0760 -1.3248
 1005SOL     vw 4020   6.376   0.298   3.476 -0.3858 -0.0300 -0.0837
 1006SOL     ow 4021   1.448   6.441   0.189  0.4440  0.0343  0.0276
 1006SOL     hw 4022   1.492   6.357   0.202  0.8306  0.1001 -0.8098
 1006SOL     hw 4023   1.517   6.500   0.157 -0.1549  0.2451 -0.9090
 1006SOL     vw 4024   1.463   6.438   0.187  0.4160  0.0708 -0.2065
 1007SOL     ow 4025   1.682   1.419   1.556  0.5685 -0.5731  0.6177
 1007SOL     hw 4026   1.751   1.399   1.492 -0.5992 -2.6315 -0.0630
 1007SOL     hw 4027   1.655   1.509   1.534  1.3471 -0.6362 -0.6824
 1007SOL     vw 4028   1.687   1.428   1.544  0.5171 -0.8529  0.3563
 1008SOL     ow 4029   3.164   6.844   1.529  0.3369 -0.1854  0.0986
 1008SOL     hw 4030   3.158   6.939   1.514  1.2616 -0.2139 -0.5813
 1008SOL     hw 4031   3.163   6.835   1.624 -3.2021  0.2080  0.2253
 1008SOL     vw 4032   3.163   6.855   1.540 -0.0081 -0.1371  0.0257
 1009SOL     ow 4033   1.086   4.655   1.744  0.2928 -0.5963  0.4433
 1009SOL     hw 4034   1.135   4.709   1.682 -0.5191  0.3074  0.5413
 1009SOL     hw 4035   0.994   4.679   1.728 -0.1531 -2.4627  0.0419
 1009SOL     vw 4036   1.080   4.665   1.734  0.1269 -0.7234  0.4033
 1010SOL     ow 4037   3.964   0.391   3.310  0.8214 -0.2806  0.4552
 1010SOL     hw 4038   3.990   0.453   3.379  1.8946  1.9037 -1.7749
 1010SOL     hw 4039   3.943   0.446   3.235 -0.8932 -2.5413 -0.8583
 1010SOL     vw 4040   3.965   0.407   3.309  0.7368 -0.2907 -0.0123
 1011SOL     ow 4041   4.065   2.787   1.206  0.1467 -0.5670  0.4584
 1011SOL     hw 4042   4.151   2.753   1.182  0.9911  1.7901 -0.1874
 1011SOL     hw 4043   4.053   2.760   1.297  1.6864 -0.7645  0.6287
 1011SOL     vw 4044   4.075   2.779   1.215  0.4611 -0.2820  0.3957
 1012SOL     ow 4045   3.638   6.276   6.397  0.0987  0.2939 -0.5084
 1012SOL     hw 4046   3.711   6.288   6.458  2.2076 -2.2932 -2.2530
 1012SOL     hw 4047   3.676   6.293   6.311 -1.2344 -1.4199 -1.5020
 1012SOL     vw 4048   3.653   6.280   6.394  0.2011 -0.2735 -0.8698
 1013SOL     ow 4049   5.134   6.711   6.928  0.4786  0.1886  0.0792
 1013SOL     hw 4050   5.114   6.617   6.927 -0.4082  0.3238  1.7065
 1013SOL     hw 4051   5.229   6.715   6.921  0.4283 -0.7382 -1.7198
 1013SOL     vw 4052   5.144   6.699   6.927  0.3550  0.0842  0.0567
 1014SOL     ow 4053   6.540   6.398   1.750 -0.0288  0.2646  0.0124
 1014SOL     hw 4054   6.445   6.405   1.744  0.1315  2.0046 -1.2757
 1014SOL     hw 4055   6.568   6.364   1.665  0.5179 -0.1406  0.3461
 1014SOL     vw 4056   6.531   6.395   1.738  0.0644  0.4406 -0.1135
 1015SOL     ow 4057   3.946   0.168   6.259 -0.8745  0.2521 -0.0926
 1015SOL     hw 4058   3.902   0.245   6.222 -2.8029 -0.6358  0.2420
 1015SOL     hw 4059   3.882   0.131   6.320 -0.5141 -2.3173 -1.1516
 1015SOL     vw 4060   3.931   0.173   6.262 -1.0815 -0.2041 -0.1884
 1016SOL     ow 4061   6.620   4.606   0.368 -0.3171 -0.0536  0.6205
 1016SOL     hw 4062   6.576   4.624   0.451 -0.1059  1.2580  0.4628
 1016SOL     hw 4063   6.613   4.688   0.319 -0.0202 -0.6616 -0.4730
 1016SOL     vw 4064   6.613   4.619   0.372 -0.2499  0.0391  0.4554
 1017SOL     ow 4065   5.473   1.467   2.147  0.1698  0.4764  0.3049
 1017SOL     hw 4066   5.511   1.554   2.130 -1.3115  0.8323 -1.4793
 1017SOL     hw 4067   5.393   1.485   2.195  0.0851  0.0564  0.3225
 1017SOL     vw 4068   5.468   1.481   2.151 -0.0367  0.4680  0.0718
 1018SOL     ow 4069   2.809   3.856   2.121 -0.0232  0.3083 -0.2032
 1018SOL     hw 4070   2.805   3.779   2.063 -0.8014 -0.5312  0.9189
 1018SOL     hw 4071   2.786   3.929   2.064 -1.5708 -0.5945 -0.8137
 1018SOL     vw 4072   2.805   3.855   2.106 -0.3300  0.0784 -0.1358
 1019SOL     ow 4073   1.063   3.517   3.787  0.7113  1.1605  0.0872
 1019SOL     hw 4074   1.036   3.608   3.794  1.6307  1.5463 -1.0297
 1019SOL     hw 4075   0.990   3.473   3.744  0.0328  1.2414  1.1357
 1019SOL     vw 4076   1.050   3.523   3.782  0.7432  1.2219  0.0782
 1020SOL     ow 4077   4.025   5.538   4.742  0.2776 -0.3813 -0.2946
 1020SOL     hw 4078   4.043   5.581   4.659  0.6946  0.2965  0.1349
 1020SOL     hw 4079   4.073   5.455   4.738  1.3447  0.2215 -0.2240
 1020SOL     vw 4080   4.034   5.533   4.731  0.4735 -0.2122 -0.2284
 1021SOL     ow 4081   6.860   6.851   2.691 -0.2131 -0.0795 -0.7767
 1021SOL     hw 4082   6.810   6.930   2.714 -1.1922 -1.2042  1.1740
 1021SOL     hw 4083   6.952   6.879   2.694 -0.3648  0.4144  2.6240
 1021SOL     vw 4084   6.866   6.865   2.694 -0.3622 -0.1628 -0.0707
 1022SOL     ow 4085   1.028   6.593   5.317  1.3424 -0.3889 -0.3530
 1022SOL     hw 4086   1.058   6.656   5.251 -0.2812 -2.3045 -3.1093
 1022SOL     hw 4087   0.952   6.635   5.356 -1.7962 -1.5533 -4.4375
 1022SOL     vw 4088   1.022   6.607   5.313  0.7141 -0.7951 -1.2558
 1023SOL     ow 4089   2.454   3.990   2.551 -0.3910 -0.0913  0.3660
 1023SOL     hw 4090   2.521   3.922   2.562  0.3900  0.8654  1.8087
 1023SOL     hw 4091   2.496   4.071   2.580 -1.8271  0.7379  0.2462
 1023SOL     vw 4092   2.468   3.992   2.556 -0.4776  0.1444  0.5405
 1024SOL     ow 4093   1.701   4.016   0.990  0.0288  0.0868  0.3311
 1024SOL     hw 4094   1.610   3.989   0.975 -0.1303  1.2397 -1.0853
 1024SOL     hw 4095   1.751   3.969   0.923  0.1543  1.0251 -0.2551
 1024SOL     vw 4096   1.696   4.006   0.979  0.0243  0.3626  0.0669
 1025SOL     ow 4097   6.468   0.833   4.351 -0.1255 -0.4870  0.4386
 1025SOL     hw 4098   6.503   0.913   4.390 -2.2673  1.2333 -0.9347
 1025SOL     hw 4099   6.542   0.773   4.348  1.3197  1.0673  2.4275
 1025SOL     vw 4100   6.482   0.835   4.356 -0.2177 -0.0550  0.5198
 1026SOL     ow 4101   6.862   2.335   5.681 -0.1766  0.0248  0.0139
 1026SOL     hw 4102   6.871   2.258   5.738  0.6867  0.7679  0.9097
 1026SOL     hw 4103   6.920   2.401   5.720  1.1694  0.2782 -2.2327
 1026SOL     vw 4104   6.871   2.333   5.694  0.1149  0.1563 -0.1647
 1027SOL     ow 4105   2.897   0.252   2.581 -0.1576 -0.2206 -0.3766
 1027SOL     hw 4106   2.880   0.237   2.488 -0.7998  1.2142 -0.5181
 1027SOL     hw 4107   2.962   0.322   2.582 -2.2593  1.8366  0.2268
 1027SOL     vw 4108   2.903   0.259   2.569 -0.5196  0.2401 -0.3157
 1028SOL     ow 4109   4.537   5.933   0.122  0.3872 -0.3184 -0.0396
 1028SOL     hw 4110   4.614   5.963   0.072  1.8179  0.2766  2.3629
 1028SOL     hw 4111   4.528   5.840   0.098  1.3594 -0.2016 -0.9489
 1028SOL     vw 4112   4.546   5.925   0.112  0.7045 -0.2244  0.1574
 1029SOL     ow 4113   7.075   2.241   2.574  0.1612 -0.5251  0.5978
 1029SOL     hw 4114   7.017   2.298   2.625  1.0890 -1.1173  2.3674
 1029SOL     hw 4115   7.143   2.214   2.635  1.5813 -0.9352 -1.0727
 1029SOL     vw 4116   7.076   2.245   2.589  0.4709 -0.6573  0.6108
 1030SOL     ow 4117   6.607   1.089   4.152  0.3201  0.1348 -0.5796
 1030SOL     hw 4118   6.596   1.167   4.207 -0.8530 -1.3572  1.4280
 1030SOL     hw 4119   6.701   1.084   4.136  0.5826  1.1626  0.4789
 1030SOL     vw 4120   6.618   1.099   4.157  0.1998  0.0736 -0.1748
 1031SOL     ow 4121   3.915   1.362   5.737 -0.0149  0.3566  0.3466
 1031SOL     hw 4122   3.928   1.276   5.697  0.8075  0.3113  0.6948
 1031SOL     hw 4123   4.003   1.391   5.761 -0.2041  1.6020 -0.3882
 1031SOL     vw 4124   3.928   1.355   5.735  0.0684  0.5149  0.2956
 1032SOL     ow 4125   4.836   0.019   1.728  0.0372  0.3537 -0.2331
 1032SOL     hw 4126   4.889  -0.042   1.780 -1.6227 -0.3921  0.6795
 1032SOL     hw 4127   4.866   0.007   1.638  2.7718  1.4358  0.4541
 1032SOL     vw 4128   4.847   0.009   1.723  0.1788  0.3982 -0.0220
 1033SOL     ow 4129   5.880   7.088   2.300  0.2167  0.0371 -0.1908
 1033SOL     hw 4130   5.798   7.099   2.348  0.5829 -0.4697  0.5571
 1033SOL     hw 4131   5.940   7.046   2.362  1.0061  0.2776 -0.7661
 1033SOL     vw 4132   5.877   7.084   2.315  0.3693  0.0021 -0.1680
 1034SOL     ow 4133   0.639   6.498   1.232  0.7555 -0.2398 -0.5284
 1034SOL     hw 4134   0.633   6.507   1.327  0.1757 -2.0263 -0.3582
 1034SOL     hw 4135   0.728   6.528   1.210  2.2424 -3.0507  1.0632
 1034SOL     vw 4136   0.650   6.503   1.241  0.8752 -0.8466 -0.2959
 1035SOL     ow 4137   5.324   0.120   1.485 -0.6733  0.0076  0.4413
 1035SOL     hw 4138   5.246   0.132   1.541 -1.8293 -1.0921 -0.8548
 1035SOL     hw 4139   5.385   0.071   1.540 -1.8468 -1.2100  0.7311
 1035SOL     vw 4140   5.321   0.115   1.500 -0.9806 -0.2981  0.3085
 1036SOL     ow 4141   0.487   0.926   2.896 -0.2777  0.4591  0.2686
 1036SOL     hw 4142   0.501   0.980   2.973  1.3720  0.9855 -0.3476
 1036SOL     hw 4143   0.483   0.989   2.823  0.5094 -0.1362 -0.3189
 1036SOL     vw 4144   0.489   0.941   2.896  0.0438  0.4500  0.1098
 1037SOL     ow 4145   3.810   7.034   2.173  0.5139 -0.4144 -0.1155
 1037SOL     hw 4146   3.887   7.066   2.220  0.6066  2.0724 -1.7881
 1037SOL     hw 4147   3.736   7.058   2.229  0.7416  0.7901 -0.2969
 1037SOL     vw 4148   3.811   7.041   2.187  0.5562  0.0725 -0.3601
 1038SOL     ow 4149   3.750   5.782   5.129  0.3327 -0.1450  0.2115
 1038SOL     hw 4150   3.665   5.800   5.089  1.2955  0.9161 -1.4811
 1038SOL     hw 4151   3.787   5.868   5.147  2.2261 -0.4647 -1.7743
 1038SOL     vw 4152   3.744   5.795   5.126  0.7095 -0.0470 -0.2737
 1039SOL     ow 4153   6.122   2.027   5.686  0.1606 -0.8105 -0.0877
 1039SOL     hw 4154   6.036   1.991   5.709  1.0198 -4.3272 -1.7030
 1039SOL     hw 4155   6.179   2.002   5.758  0.4986 -1.5522 -0.6022
 1039SOL     vw 4156   6.118   2.019   5.698  0.3183 -1.3725 -0.3686
 1040SOL     ow 4157   6.839   2.543   6.451  0.2837  0.1008  0.5299
 1040SOL     hw 4158   6.918   2.531   6.400 -0.1498 -0.8165  0.0501
 1040SOL     hw 4159   6.850   2.485   6.527 -0.3976 -0.8975 -0.1118
 1040SOL     vw 4160   6.851   2.534   6.454  0.1369 -0.1520  0.3819
 1041SOL     ow 4161   2.973   6.170   1.967 -0.1596 -0.1602  0.4081
 1041SOL     hw 4162   2.883   6.202   1.969 -0.0400  0.1970  0.2146
 1041SOL     hw 4163   2.966   6.076   1.981 -0.4831  0.0007  1.3497
 1041SOL     vw 4164   2.960   6.162   1.969 -0.1864 -0.0918  0.5068
 1042SOL     ow 4165   4.211   2.742   0.279 -0.1184 -0.2194  0.4116
 1042SOL     hw 4166   4.149   2.672   0.299  2.4707 -2.0707  2.6151
 1042SOL     hw 4167   4.183   2.815   0.334 -2.2118  0.2614 -1.1322
 1042SOL     vw 4168   4.199   2.742   0.289 -0.0534 -0.4003  0.4987
 1043SOL     ow 4169   7.193   6.303   6.149 -0.6606 -0.2162 -0.1310
 1043SOL     hw 4170   7.239   6.380   6.183 -1.1182  1.0096 -2.0727
 1043SOL     hw 4171   7.115   6.296   6.204 -1.3323  1.6234 -0.7679
 1043SOL     vw 4172   7.189   6.312   6.161 -0.8094  0.1884 -0.4711
 1044SOL     ow 4173   4.578   3.479   4.962  0.0945  0.1584 -0.3716
 1044SOL     hw 4174   4.650   3.435   5.009 -0.6773  0.0148  0.7215
 1044SOL     hw 4175   4.500   3.427   4.984 -0.6936  1.5375  0.2129
 1044SOL     vw 4176   4.577   3.466   4.971 -0.1113  0.3213 -0.1504
 1045SOL     ow 4177   2.855   2.368   3.108 -0.2938 -0.0299 -0.6993
 1045SOL     hw 4178   2.877   2.462   3.107  0.4465 -0.1819  0.0293
 1045SOL     hw 4179   2.879   2.339   3.196 -0.2819 -0.9600 -0.9989
 1045SOL     vw 4180   2.861   2.377   3.120 -0.1944 -0.1726 -0.6427
 1046SOL     ow 4181   3.983   0.785   5.984  0.4138  0.4756  0.3104
 1046SOL     hw 4182   3.894   0.810   5.959  0.7887  1.8906  0.2578
 1046SOL     hw 4183   3.977   0.765   6.077  0.0548  0.6609  0.3300
 1046SOL     vw 4184   3.971   0.786   5.993  0.4159  0.6867  0.3061
 1047SOL     ow 4185   4.315   6.342   3.471  0.3751 -0.0071 -0.4256
 1047SOL     hw 4186   4.366   6.338   3.552  0.0109 -0.8389 -0.2285
 1047SOL     hw 4187   4.365   6.289   3.409  1.0137  1.1900 -0.9652
 1047SOL     vw 4188   4.328   6.334   3.474  0.4115  0.0412 -0.4708
 1048SOL     ow 4189   4.690   4.759   2.125  0.0567 -0.8864 -0.4313
 1048SOL     hw 4190   4.683   4.796   2.213 -0.3393  0.5017 -1.0143
 1048SOL     hw 4191   4.617   4.699   2.118 -0.6606 -0.0631 -0.2190
 1048SOL     vw 4192   4.680   4.756   2.135 -0.0904 -0.5946 -0.4802
 1049SOL     ow 4193   5.511   3.978   5.538  0.1727  0.0635  0.6004
 1049SOL     hw 4194   5.503   4.022   5.453  1.4668  3.4098  2.0719
 1049SOL     hw 4195   5.438   4.011   5.590 -1.8679 -3.5079  0.3784
 1049SOL     vw 4196   5.501   3.988   5.533  0.0741  0.0337  0.7651
 1050SOL     ow 4197   1.132   6.189   6.998  0.3207 -0.1423 -0.3352
 1050SOL     hw 4198   1.094   6.125   7.058 -1.1742  0.4830 -0.5843
 1050SOL     hw 4199   1.174   6.136   6.930 -1.4397 -0.9042 -0.8796
 1050SOL     vw 4200   1.133   6.173   6.997 -0.1088 -0.1605 -0.4399
 1051SOL     ow 4201   5.620   1.280   0.893 -0.5032 -0.0475  0.3497
 1051SOL     hw 4202   5.712   1.305   0.895  0.1047 -2.1087  0.4818
 1051SOL     hw 4203   5.606   1.232   0.975 -1.0542 -1.7184 -0.6705
 1051SOL     vw 4204   5.630   1.277   0.904 -0.4957 -0.5398  0.2325
 1052SOL     ow 4205   5.865   4.788   2.723 -0.3473 -0.2684 -0.1895
 1052SOL     hw 4206   5.843   4.697   2.742 -0.4893 -0.1629  0.1696
 1052SOL     hw 4207   5.901   4.786   2.635 -0.5832 -0.6357 -0.2812
 1052SOL     vw 4208   5.867   4.776   2.714 -0.3972 -0.3030 -0.1541
 1053SOL     ow 4209   6.485   7.097   3.920 -0.3098 -0.3596  0.2751
 1053SOL     hw 4210   6.413   7.049   3.880 -1.3793 -0.1667  1.9143
 1053SOL     hw 4211   6.523   7.035   3.983  0.5681 -0.2332 -0.1093
 1053SOL     vw 4212   6.481   7.082   3.923 -0.3350 -0.3173  0.4406
 1054SOL     ow 4213   6.041   7.057   0.646 -0.4947 -0.3530 -0.4436
 1054SOL     hw 4214   6.110   7.070   0.711 -0.9910 -0.4376  0.1012
 1054SOL     hw 4215   5.959   7.062   0.695 -0.8372 -1.6588 -0.8562
 1054SOL     vw 4216   6.039   7.060   0.661 -0.6056 -0.5364 -0.4262
 1055SOL     ow 4217   3.372   3.196   2.423 -0.2212 -0.1864 -0.1925
 1055SOL     hw 4218   3.283   3.214   2.454  0.0767 -1.4107  1.5522
 1055SOL     hw 4219   3.388   3.105   2.449  1.9170  0.3400  0.5598
 1055SOL     vw 4220   3.362   3.187   2.431  0.1001 -0.2786  0.1369
 1056SOL     ow 4221   0.222   0.449   4.314  0.0749 -0.1775  0.5809
 1056SOL     hw 4222   0.293   0.431   4.375 -1.4775  0.1268  2.5963
 1056SOL     hw 4223   0.188   0.534   4.341 -0.6983 -0.0499 -0.6932
 1056SOL     vw 4224   0.227   0.458   4.325 -0.2319 -0.1205  0.6785
 1057SOL     ow 4225   4.240   3.136   0.351  0.7472 -0.1386  0.8049
 1057SOL     hw 4226   4.292   3.121   0.272  1.0452  1.1834  0.7384
 1057SOL     hw 4227   4.232   3.049   0.391  1.0266 -0.7410 -0.3980
 1057SOL     vw 4228   4.246   3.122   0.346  0.8233 -0.0437  0.6374
 1058SOL     ow 4229   2.976   0.270   2.925  0.4264 -0.0101 -0.2413
 1058SOL     hw 4230   3.067   0.249   2.902  0.2269  0.7038 -1.8905
 1058SOL     hw 4231   2.972   0.263   3.020  2.0074 -0.8292 -0.2107
 1058SOL     vw 4232   2.988   0.266   2.934  0.6084 -0.0240 -0.4548
 1059SOL     ow 4233   4.323   1.244   2.354 -0.0824 -0.2093 -0.5537
 1059SOL     hw 4234   4.372   1.251   2.436  0.0703 -1.4379 -0.5291
 1059SOL     hw 4235   4.232   1.259   2.380  0.1478  1.1726 -0.4587
 1059SOL     vw 4236   4.317   1.247   2.368 -0.0317 -0.1891 -0.5379
 1060SOL     ow 4237   4.486   4.434   6.261  0.0708  0.5285  0.0329
 1060SOL     hw 4238   4.458   4.461   6.173 -1.5091 -2.0029 -0.3387
 1060SOL     hw 4239   4.433   4.487   6.320 -0.5914  0.5862 -0.5895
 1060SOL     vw 4240   4.475   4.445   6.257 -0.2253  0.2022 -0.0980
 1061SOL     ow 4241   7.130   4.976   3.627 -0.0354 -0.1472 -0.1259
 1061SOL     hw 4242   7.094   4.906   3.573 -4.9468  2.2353 -0.4394
 1061SOL     hw 4243   7.100   4.955   3.716  0.9572  0.1298  0.2843
 1061SOL     vw 4244   7.121   4.964   3.632 -0.5524  0.2036 -0.1131
 1062SOL     ow 4245   5.672   6.211   6.577  0.4869 -0.2523  0.3244
 1062SOL     hw 4246   5.647   6.264   6.652  0.0533  1.5978 -1.0287
 1062SOL     hw 4247   5.650   6.266   6.501  1.1486 -1.9140 -1.1429
 1062SOL     vw 4248   5.666   6.225   6.577  0.5167 -0.2275 -0.0477
 1063SOL     ow 4249   0.374   0.706   5.170 -0.1269  0.1847  0.0499
 1063SOL     hw 4250   0.411   0.663   5.248  2.2247  2.9972  0.6731
 1063SOL     hw 4251   0.417   0.662   5.096 -2.4617 -2.5865  0.1402
 1063SOL     vw 4252   0.385   0.694   5.171 -0.1247  0.1902  0.1442
 1064SOL     ow 4253   6.668   0.286   6.338 -0.1929 -0.2266 -0.2168
 1064SOL     hw 4254   6.596   0.336   6.300 -0.3870  0.8701  1.4490
 1064SOL     hw 4255   6.625   0.226   6.399  0.2589  0.2284  0.5665
 1064SOL     vw 4256   6.653   0.285   6.341 -0.1590 -0.0219  0.1061
 1065SOL     ow 4257   1.556   6.268   6.270  0.7997  0.1094  0.2843
 1065SOL     hw 4258   1.564   6.200   6.203  1.0681  0.6092 -0.1924
 1065SOL     hw 4259   1.489   6.234   6.330  0.8842 -0.5445  0.0194
 1065SOL     vw 4260   1.548   6.255   6.269  0.8463  0.0892  0.1864
 1066SOL     ow 4261   1.727   4.690   7.067  0.1348 -0.1933 -0.2574
 1066SOL     hw 4262   1.778   4.696   7.148  2.0788 -1.3802 -1.3159
 1066SOL     hw 4263   1.783   4.731   7.001  0.5123 -2.8886 -1.7544
 1066SOL     vw 4264   1.741   4.696   7.069  0.4411 -0.7055 -0.5946
 1067SOL     ow 4265   5.693   2.277   0.803  0.3630 -0.0455 -0.3396
 1067SOL     hw 4266   5.772   2.307   0.759  0.0606  0.2832 -0.6636
 1067SOL     hw 4267   5.716   2.190   0.838  0.2017 -0.9246 -2.3015
 1067SOL     vw 4268   5.707   2.269   0.802  0.3018 -0.1180 -0.6412
 1068SOL     ow 4269   5.112   0.670   2.630 -0.3259 -0.1450 -0.4435
 1068SOL     hw 4270   5.083   0.622   2.707  1.2315 -1.7568 -0.7925
 1068SOL     hw 4271   5.091   0.761   2.649 -1.4049 -0.6934  1.1824
 1068SOL     vw 4272   5.105   0.676   2.643 -0.2630 -0.4300 -0.2753
 1069SOL     ow 4273   0.332   4.336   5.514 -0.1636  0.0576 -0.4490
 1069SOL     hw 4274   0.310   4.429   5.506  0.6019  0.1532 -1.6982
 1069SOL     hw 4275   0.412   4.335   5.566 -1.6779 -0.1293  2.0132
 1069SOL     vw 4276   0.340   4.348   5.520 -0.2624  0.0455 -0.2892
 1070SOL     ow 4277   5.299   5.064   4.644  0.3995 -0.5126 -0.2155
 1070SOL     hw 4278   5.280   5.058   4.738  1.2655 -1.9348 -0.1116
 1070SOL     hw 4279   5.273   4.979   4.609  2.0806 -0.7749 -0.8841
 1070SOL     vw 4280   5.293   5.052   4.652  0.7358 -0.7348 -0.2899
 1071SOL     ow 4281   5.142   6.442   6.855 -0.3246  0.2303 -0.7883
 1071SOL     hw 4282   5.059   6.395   6.849  0.5302 -1.4919  0.0399
 1071SOL     hw 4283   5.161   6.468   6.765 -2.2145  1.5553 -0.8567
 1071SOL     vw 4284   5.134   6.439   6.842 -0.4613  0.1776 -0.6883
 1072SOL     ow 4285   0.752   6.134   5.760  0.0663  0.3270 -0.3725
 1072SOL     hw 4286   0.757   6.145   5.855  1.2276  0.8107 -0.4778
 1072SOL     hw 4287   0.665   6.096   5.745  0.3977 -1.0655  0.9936
 1072SOL     vw 4288   0.741   6.130   5.771  0.2632  0.2069 -0.2065
 1073SOL     ow 4289   6.475   4.616   0.986  0.0835 -0.1664  0.2990
 1073SOL     hw 4290   6.514   4.671   0.918 -2.9131  0.5048 -1.0306
 1073SOL     hw 4291   6.508   4.652   1.068  3.1087 -0.4376 -0.6578
 1073SOL     vw 4292   6.485   4.628   0.988  0.0873 -0.1137 -0.0027
 1074SOL     ow 4293   2.221   6.622   3.609 -0.2532 -0.1095 -0.3248
 1074SOL     hw 4294   2.291   6.637   3.545 -0.2455  2.6587  0.1911
 1074SOL     hw 4295   2.200   6.529   3.600  0.3889 -0.0626 -3.6306
 1074SOL     vw 4296   2.228   6.612   3.599 -0.1675  0.2618 -0.6928
 1075SOL     ow 4297   6.558   3.532   6.266 -0.3174  0.3335 -0.2819
 1075SOL     hw 4298   6.467   3.506   6.280 -0.3403  0.3775 -0.3482
 1075SOL     hw 4299   6.580   3.497   6.180  0.5558 -1.9502  0.7846
 1075SOL     vw 4300   6.549   3.524   6.257 -0.2050  0.0379 -0.1500
 1076SOL     ow 4301   5.273   7.158   5.792 -0.1500  0.2957 -0.2722
 1076SOL     hw 4302   5.235   7.190   5.711  2.0598 -0.0711 -1.5507
 1076SOL     hw 4303   5.276   7.063   5.782  3.5763  0.3627 -1.6073
 1076SOL     vw 4304   5.269   7.150   5.780  0.6335  0.2563 -0.6170
 1077SOL     ow 4305   5.374   6.145   5.862  0.1200 -0.2258 -0.5751
 1077SOL     hw 4306   5.470   6.144   5.868  0.1844  0.3398 -1.3749
 1077SOL     hw 4307   5.352   6.238   5.857 -0.6066 -0.2450  1.3349
 1077SOL     vw 4308   5.384   6.157   5.863  0.0327 -0.1540 -0.4284
 1078SOL     ow 4309   0.432   2.977   6.384 -0.1195  0.1217  0.6619
 1078SOL     hw 4310   0.382   3.049   6.346  0.5010  0.9657  1.3820
 1078SOL     hw 4311   0.509   3.020   6.422  2.5976 -1.3169 -2.6772
 1078SOL     vw 4312   0.436   2.993   6.384  0.3208  0.0433  0.3164
 1079SOL     ow 4313   4.061   5.470   4.471 -0.5797  0.0339 -0.0652
 1079SOL     hw 4314   4.082   5.395   4.416 -1.5158 -0.8555  0.7559
 1079SOL     hw 4315   4.033   5.538   4.410 -0.0674 -0.3964 -0.7909
 1079SOL     vw 4316   4.060   5.469   4.456 -0.6356 -0.1402 -0.0527
 1080SOL     ow 4317   3.444   1.506   4.520  0.6792 -0.9992 -0.5389
 1080SOL     hw 4318   3.435   1.444   4.592 -2.6452  0.0247  0.0956
 1080SOL     hw 4319   3.430   1.452   4.441 -1.2159 -1.2606 -0.0558
 1080SOL     vw 4320   3.441   1.491   4.519 -0.0093 -0.8985 -0.3915
 1081SOL     ow 4321   3.918   2.915   6.708  0.1284 -0.3475  0.1694
 1081SOL     hw 4322   3.962   2.978   6.765 -1.0008  0.6321 -0.0110
 1081SOL     hw 4323   3.970   2.916   6.627 -0.0691  0.6409  0.0372
 1081SOL     vw 4324   3.931   2.923   6.705 -0.0467 -0.0877  0.1283
 1082SOL     ow 4325   6.195   6.693   5.421  0.1018  0.0382  0.2390
 1082SOL     hw 4326   6.120   6.724   5.370  1.4745  1.0670 -1.2697
 1082SOL     hw 4327   6.164   6.694   5.512 -0.7266  3.8393  0.1137
 1082SOL     vw 4328   6.181   6.697   5.427  0.1736  0.6754  0.0236
 1083SOL     ow 4329   0.108   3.230   1.473  0.5323 -0.4327 -0.1960
 1083SOL     hw 4330   0.116   3.139   1.447 -1.2868  0.0833 -3.0245
 1083SOL     hw 4331   0.023   3.235   1.517  1.0789 -0.2314  0.8905
 1083SOL     vw 4332   0.098   3.219   1.476  0.3644 -0.3381 -0.4258
 1084SOL     ow 4333   0.776   2.221   3.545  0.0011  0.2229 -0.4239
 1084SOL     hw 4334   0.812   2.173   3.470 -0.6855 -0.0428 -0.5932
 1084SOL     hw 4335   0.696   2.173   3.568 -1.2456  1.8213 -1.2094
 1084SOL     vw 4336   0.770   2.208   3.538 -0.2539  0.3986 -0.5499
 1085SOL     ow 4337   6.559   5.039   3.616  0.2755 -1.1314  0.7065
 1085SOL     hw 4338   6.537   4.947   3.601 -0.5086 -1.1006  1.5919
 1085SOL     hw 4339   6.482   5.075   3.659 -0.3263  0.4959 -1.5612
 1085SOL     vw 4340   6.546   5.032   3.620  0.0927 -0.9127  0.5242
 1086SOL     ow 4341   3.464   2.043   4.374  0.4199 -0.4277 -0.0951
 1086SOL     hw 4342   3.454   2.117   4.434 -0.1094 -0.8023  0.2806
 1086SOL     hw 4343   3.434   2.077   4.289 -1.3262 -0.6547  0.3920
 1086SOL     vw 4344   3.459   2.057   4.371  0.1196 -0.5072  0.0186
 1087SOL     ow 4345   3.719   5.770   6.976 -0.7085 -0.5698  0.4817
 1087SOL     hw 4346   3.803   5.808   6.948 -0.5003 -0.8345  0.7382
 1087SOL     hw 4347   3.667   5.845   7.003 -0.7327 -0.3570 -0.1512
 1087SOL     vw 4348   3.723   5.785   6.976 -0.6844 -0.5765  0.4320
 1088SOL     ow 4349   6.869   5.235   3.821  0.0314 -0.1757 -0.1247
 1088SOL     hw 4350   6.853   5.141   3.818 -0.4427 -0.1436  1.0027
 1088SOL     hw 4351   6.854   5.259   3.912  0.6876  0.9019 -0.2847
 1088SOL     vw 4352   6.865   5.226   3.833  0.0553 -0.0293  0.0030
 1089SOL     ow 4353   6.600   4.325   6.053  0.0655  0.4366 -0.3939
 1089SOL     hw 4354   6.682   4.372   6.071  1.0224 -1.3468  0.0988
 1089SOL     hw 4355   6.619   4.272   5.976 -0.5606 -0.1629 -0.1388
 1089SOL     vw 4356   6.614   4.325   6.046  0.1092  0.1221 -0.2952
 1090SOL     ow 4357   2.377   2.327   1.964 -0.4341  0.2809 -0.0902
 1090SOL     hw 4358   2.367   2.232   1.961 -0.4326  0.1782  1.9444
 1090SOL     hw 4359   2.301   2.357   2.015  0.4473  1.1834  0.7234
 1090SOL     vw 4360   2.366   2.318   1.970 -0.3176  0.3865  0.2856
 1091SOL     ow 4361   1.955   0.132   5.890  0.1867  0.6612  0.3317
 1091SOL     hw 4362   2.016   0.058   5.898 -1.7515 -1.0979 -0.1801
 1091SOL     hw 4363   1.998   0.204   5.935  1.4256 -1.2619  2.4291
 1091SOL     vw 4364   1.969   0.132   5.897  0.0945  0.1754  0.5407
 1092SOL     ow 4365   4.745   5.136   6.393 -0.4994  0.3709 -0.0802
 1092SOL     hw 4366   4.783   5.055   6.360 -1.6939 -0.4485  0.4851
 1092SOL     hw 4367   4.657   5.112   6.421 -1.1939  2.0334 -0.6735
 1092SOL     vw 4368   4.738   5.122   6.392 -0.7489  0.4823 -0.0839
 1093SOL     ow 4369   3.370   6.469   7.121  0.6754  0.1200  0.0132
 1093SOL     hw 4370   3.292   6.444   7.071 -0.7394  2.6836  0.7525
 1093SOL     hw 4371   3.436   6.488   7.054  0.4958 -1.4179 -0.6462
 1093SOL     vw 4372   3.368   6.469   7.106  0.4652  0.2551  0.0238
 1094SOL     ow 4373   2.150   2.763   0.347 -0.6202  0.4878 -1.1952
 1094SOL     hw 4374   2.204   2.777   0.425 -2.8558  1.8398  0.2115
 1094SOL     hw 4375   2.147   2.849   0.304 -1.9333  0.5490 -1.0272
 1094SOL     vw 4376   2.157   2.776   0.351 -1.0884  0.6741 -0.9875
 1095SOL     ow 4377   6.942   6.132   6.018  0.4006 -0.2774  0.3782
 1095SOL     hw 4378   6.896   6.049   6.013  0.2136 -0.1110 -1.4125
 1095SOL     hw 4379   6.879   6.197   5.986  0.4415  0.6379  2.0107
 1095SOL     vw 4380   6.928   6.130   6.013  0.3812 -0.1347  0.3574
 1096SOL     ow 4381   0.421   2.294   1.926 -0.4282 -0.5748  0.5337
 1096SOL     hw 4382   0.359   2.233   1.966 -0.4524  0.2767  1.8355
 1096SOL     hw 4383   0.505   2.248   1.928 -0.8594 -1.4937 -0.6867
 1096SOL     vw 4384   0.424   2.280   1.931 -0.4883 -0.5836  0.5444
 1097SOL     ow 4385   3.070   1.321   7.057  0.6709  0.3519  0.5223
 1097SOL     hw 4386   3.018   1.242   7.071 -0.2345  0.3729 -2.0967
 1097SOL     hw 4387   3.160   1.290   7.051  0.2536 -0.6411 -1.1758
 1097SOL     vw 4388   3.075   1.307   7.058  0.4964  0.2237 -0.0474
 1098SOL     ow 4389   3.236   6.572   0.095 -0.6235  0.6451 -0.3119
 1098SOL     hw 4390   3.328   6.564   0.070 -1.0965  0.7919 -2.2528
 1098SOL     hw 4391   3.223   6.666   0.110  0.0246  0.4053  2.1813
 1098SOL     vw 4392   3.246   6.583   0.094 -0.6005  0.6328 -0.2391
 1099SOL     ow 4393   4.070   5.328   6.889  0.2459 -0.6266 -0.0034
 1099SOL     hw 4394   4.098   5.406   6.843 -1.2556  0.4874  0.8521
 1099SOL     hw 4395   4.058   5.262   6.821 -0.0468  0.3927 -0.9656
 1099SOL     vw 4396   4.072   5.329   6.874  0.0091 -0.3450 -0.0174
 1100SOL     ow 4397   3.196   0.402   7.023  0.2420  0.0238 -0.0892
 1100SOL     hw 4398   3.221   0.389   7.114 -0.5233  1.8846  0.4209
 1100SOL     hw 4399   3.161   0.491   7.019 -1.5613 -0.6688 -1.7875
 1100SOL     vw 4400   3.194   0.412   7.034 -0.0969  0.1779 -0.2456
 1101SOL     ow 4401   5.484   2.505   0.681  0.0436 -0.1758 -0.0487
 1101SOL     hw 4402   5.425   2.568   0.722 -0.6924 -0.6241 -0.3933
 1101SOL     hw 4403   5.537   2.558   0.621 -0.0155  0.2312  0.2542
 1101SOL     vw 4404   5.483   2.520   0.678 -0.0613 -0.1812 -0.0543
 1102SOL     ow 4405   3.038   4.157   5.266  0.1384 -0.2847 -0.3355
 1102SOL     hw 4406   3.044   4.251   5.281 -2.7043 -0.1203  0.3972
 1102SOL     hw 4407   3.080   4.143   5.181  2.3615  1.2788  0.4311
 1102SOL     vw 4408   3.044   4.167   5.257  0.0567 -0.0567 -0.1376
 1103SOL     ow 4409   1.754   2.874   2.889 -0.4295  0.4969  0.0073
 1103SOL     hw 4410   1.831   2.930   2.900 -1.2324  1.4754  0.7618
 1103SOL     hw 4411   1.761   2.841   2.799 -0.5470  2.7691 -0.8977
 1103SOL     vw 4412   1.765   2.877   2.878 -0.5509  0.9258 -0.0126
 1104SOL     ow 4413   1.435   2.106   5.731  0.3472 -0.3109 -0.3316
 1104SOL     hw 4414   1.342   2.088   5.721  0.5198 -1.5590  0.1758
 1104SOL     hw 4415   1.439   2.200   5.751 -0.6667  0.1268 -1.9662
 1104SOL     vw 4416   1.423   2.116   5.733  0.2363 -0.4179 -0.4804
 1105SOL     ow 4417   2.492   0.058   4.642  0.3366 -0.5090  0.5122
 1105SOL     hw 4418   2.462   0.082   4.554 -1.6280 -0.6098  1.1003
 1105SOL     hw 4419   2.560   0.122   4.663 -2.6521  2.8402  0.8627
 1105SOL     vw 4420   2.497   0.070   4.633 -0.3169 -0.0804  0.6359
 1106SOL     ow 4421   5.778   1.601   5.106 -0.2243 -0.1436 -0.2489
 1106SOL     hw 4422   5.690   1.563   5.104 -1.1405  1.8822 -0.4500
 1106SOL     hw 4423   5.810   1.593   5.017  0.3216 -1.9502  0.0672
 1106SOL     vw 4424   5.771   1.595   5.094 -0.2730 -0.1147 -0.2339
 1107SOL     ow 4425   5.343   5.870   1.859 -0.3780  0.1301  0.0661
 1107SOL     hw 4426   5.307   5.782   1.869  0.5067 -0.3562 -0.7890
 1107SOL     hw 4427   5.437   5.855   1.844  0.0341  1.2929  1.3093
 1107SOL     vw 4428   5.351   5.856   1.858 -0.2067  0.2196  0.1173
 1108SOL     ow 4429   5.797   6.162   1.911  0.3374 -0.5602  0.0334
 1108SOL     hw 4430   5.786   6.154   2.005  0.3186 -0.4162  0.0435
 1108SOL     hw 4431   5.850   6.241   1.899 -0.6540  0.0920 -0.1385
 1108SOL     vw 4432   5.803   6.171   1.922  0.2041 -0.4551  0.0120
 1109SOL     ow 4433   5.682   3.301   2.977 -0.1567  0.5580 -0.1724
 1109SOL     hw 4434   5.756   3.241   2.987  0.1718  1.1266  0.9421
 1109SOL     hw 4435   5.679   3.320   2.883 -0.5442 -1.5317 -0.6447
 1109SOL     vw 4436   5.691   3.295   2.966 -0.1645  0.3574 -0.0877
 1110SOL     ow 4437   5.614   5.632   1.530  0.0434 -0.5499 -0.4794
 1110SOL     hw 4438   5.704   5.656   1.509 -0.5212  0.5495 -1.7759
 1110SOL     hw 4439   5.622   5.564   1.598  1.7865  1.8041  1.8718
 1110SOL     vw 4440   5.627   5.626   1.536  0.1986 -0.0939 -0.3403
 1111SOL     ow 4441   0.069   0.867   7.137  0.5711  0.1811  0.0841
 1111SOL     hw 4442  -0.004   0.922   7.111 -0.0555 -0.0104  1.3807
 1111SOL     hw 4443   0.059   0.788   7.085  1.6889  1.3676 -2.0676
 1111SOL     vw 4444   0.058   0.864   7.127  0.6359  0.3124 -0.0288
 1112SOL     ow 4445   2.189   6.809   3.880  0.2042  0.0699 -0.2573
 1112SOL     hw 4446   2.151   6.766   3.956 -0.7523  0.2866 -0.5874
 1112SOL     hw 4447   2.118   6.864   3.846  0.5100 -0.2566 -1.4842
 1112SOL     vw 4448   2.174   6.811   3.886  0.1184  0.0558 -0.4628
 1113SOL     ow 4449   3.076   3.649   3.511  0.1898  0.3191  0.3791
 1113SOL     hw 4450   3.155   3.629   3.461 -0.5532  1.3994 -1.3490
 1113SOL     hw 4451   3.102   3.640   3.603  1.9504 -0.5882 -0.1683
 1113SOL     vw 4452   3.090   3.645   3.516  0.3241  0.3418  0.0789
 1114SOL     ow 4453   4.555   6.280   4.531 -0.0987  0.0159 -0.0104
 1114SOL     hw 4454   4.519   6.193   4.551 -1.9862  0.7934  0.1726
 1114SOL     hw 4455   4.514   6.338   4.595  2.3957  0.8511  0.9677
 1114SOL     vw 4456   4.545   6.276   4.542 -0.0186  0.2286  0.1426
 1115SOL     ow 4457   3.906   0.120   3.391  0.0884  0.2396 -0.7862
 1115SOL     hw 4458   3.891   0.027   3.410  2.8853  0.3085  2.9372
 1115SOL     hw 4459   3.862   0.166   3.462  2.1770  1.4117 -0.1662
 1115SOL     vw 4460   3.898   0.114   3.403  0.7331  0.4033 -0.2131
 1116SOL     ow 4461   4.269   6.152   0.176  1.1562  0.8339  1.0662
 1116SOL     hw 4462   4.289   6.144   0.083  0.0448  0.3742  0.8505
 1116SOL     hw 4463   4.253   6.245   0.190  2.2595  1.0455  1.0154
 1116SOL     vw 4464   4.270   6.163   0.166  1.1549  0.8011  1.0310
 1117SOL     ow 4465   3.332   6.535   4.090 -0.4160 -0.1335 -0.8039
 1117SOL     hw 4466   3.417   6.490   4.082 -0.9675 -1.1800 -0.9209
 1117SOL     hw 4467   3.342   6.592   4.166 -0.2289 -1.6982  0.3976
 1117SOL     vw 4468   3.345   6.536   4.099 -0.4642 -0.4780 -0.6609
 1118SOL     ow 4469   5.544   0.404   0.144  0.2509  0.0003  0.0326
 1118SOL     hw 4470   5.628   0.427   0.183 -0.1636 -0.4479  1.2190
 1118SOL     hw 4471   5.526   0.316   0.175 -1.5047  0.7523  1.3234
 1118SOL     vw 4472   5.553   0.396   0.153 -0.0353  0.0404  0.3594
 1119SOL     ow 4473   4.575   5.685   3.020 -0.2139  0.4631  0.0166
 1119SOL     hw 4474   4.532   5.758   3.064 -2.2504 -0.8692  0.4043
 1119SOL     hw 4475   4.589   5.715   2.931 -3.0195  0.6756 -0.4455
 1119SOL     vw 4476   4.571   5.698   3.014 -0.8526  0.3154  0.0069
 1120SOL     ow 4477   5.862   0.568   6.760 -0.0098 -0.1759 -0.1529
 1120SOL     hw 4478   5.884   0.560   6.852  1.9918  0.1736 -0.5550
 1120SOL     hw 4479   5.921   0.636   6.727 -1.7718  0.8424 -1.3661
 1120SOL     vw 4480   5.873   0.576   6.767  0.0217  0.0046 -0.3660
 1121SOL     ow 4481   4.222   4.572   4.603 -0.2119 -0.0228 -0.0191
 1121SOL     hw 4482   4.278   4.588   4.679  0.3938  0.0591 -0.4804
 1121SOL     hw 4483   4.282   4.546   4.533 -0.7446  0.0615 -0.5165
 1121SOL     vw 4484   4.237   4.571   4.604 -0.2022 -0.0007 -0.1454
 1122SOL     ow 4485   0.721   2.601   4.030  0.0839  0.5107  0.4010
 1122SOL     hw 4486   0.627   2.605   4.044 -0.3593 -0.9198 -1.8095
 1122SOL     hw 4487   0.758   2.603   4.118 -2.1475 -1.9391  1.5299
 1122SOL     vw 4488   0.714   2.602   4.044 -0.2690 -0.0013  0.2582
 1123SOL     ow 4489   2.105   3.195   1.080  0.0307 -0.1500  0.2409
 1123SOL     hw 4490   2.038   3.130   1.099  0.1938  0.1521  2.0204
 1123SOL     hw 4491   2.162   3.195   1.157  2.5870 -0.9521 -1.5224
 1123SOL     vw 4492   2.104   3.187   1.092  0.3896 -0.2161  0.2431
 1124SOL     ow 4493   3.855   4.207   3.599  0.4145 -0.1958 -0.1289
 1124SOL     hw 4494   3.862   4.114   3.575  1.5786 -0.1023 -0.2247
 1124SOL     hw 4495   3.807   4.247   3.526 -0.3986 -0.7766  0.0777
 1124SOL     vw 4496   3.850   4.200   3.586  0.4607 -0.2604 -0.1143
 1125SOL     ow 4497   5.676   5.729   6.663  0.5439 -0.4661 -0.0806
 1125SOL     hw 4498   5.690   5.638   6.687 -1.6725 -0.8659 -0.1317
 1125SOL     hw 4499   5.707   5.779   6.738 -0.6617 -1.4167  1.1019
 1125SOL     vw 4500   5.682   5.724   6.676  0.0925 -0.6442  0.0689
 1126SOL     ow 4501   2.138   6.025   5.270 -0.2830  0.5108 -0.0181
 1126SOL     hw 4502   2.200   6.084   5.227 -0.1345 -0.4206 -1.1259
 1126SOL     hw 4503   2.150   6.042   5.364  0.1480  1.8243 -0.2849
 1126SOL     vw 4504   2.147   6.035   5.277 -0.2066  0.5612 -0.1996
 1127SOL     ow 4505   4.325   5.495   3.739  0.5227 -0.2741  0.2594
 1127SOL     hw 4506   4.253   5.453   3.693  0.3230  0.5837 -0.2472
 1127SOL     hw 4507   4.302   5.588   3.738  0.7181 -0.1943  1.7394
 1127SOL     vw 4508   4.313   5.502   3.733  0.5219 -0.1504  0.3878
 1128SOL     ow 4509   4.401   6.614   3.106  0.1896  0.2945 -0.6120
 1128SOL     hw 4510   4.382   6.528   3.069  2.1211  0.6596 -2.7084
 1128SOL     hw 4511   4.430   6.666   3.031  0.8907  2.2095  0.8966
 1128SOL     vw 4512   4.403   6.610   3.091  0.5369  0.5951 -0.6895
 1129SOL     ow 4513   1.925   2.514   7.244 -0.2699  0.4634  0.3058
 1129SOL     hw 4514   1.986   2.569   7.195  0.2229  1.7604  2.2776
 1129SOL     hw 4515   1.960   2.425   7.234  1.2499  1.0277  0.3851
 1129SOL     vw 4516   1.938   2.509   7.236 -0.0044  0.7089  0.5764
 1130SOL     ow 4517   0.057   2.345   4.723 -0.2847  0.1534  0.0204
 1130SOL     hw 4518   0.109   2.319   4.647 -2.3719 -1.3325 -0.9916
 1130SOL     hw 4519   0.029   2.262   4.762 -2.9208  0.8335 -0.2573
 1130SOL     vw 4520   0.060   2.331   4.718 -0.9079  0.0471 -0.1497
 1131SOL     ow 4521   4.653   2.776   7.191 -0.3996 -0.5717 -0.0080
 1131SOL     hw 4522   4.637   2.683   7.176  1.8972 -0.8844 -1.0136
 1131SOL     hw 4523   4.743   2.780   7.222 -1.1572  1.1713  2.2556
 1131SOL     vw 4524   4.663   2.764   7.193 -0.1967 -0.3829  0.1583
 1132SOL     ow 4525   0.087   5.311   2.434 -0.5358  0.2737  0.5358
 1132SOL     hw 4526   0.079   5.252   2.359 -2.2401 -1.0709  1.6665
 1132SOL     hw 4527   0.096   5.398   2.396  0.5064 -0.5318 -1.2043
 1132SOL     vw 4528   0.087   5.314   2.419 -0.6232 -0.0098  0.4554
 1133SOL     ow 4529   0.835   1.108   2.452 -0.3683 -0.2755 -0.4393
 1133SOL     hw 4530   0.743   1.135   2.447 -0.2498  0.6622  1.6471
 1133SOL     hw 4531   0.878   1.179   2.498  1.5452 -0.4663 -1.8398
 1133SOL     vw 4532   0.828   1.121   2.457 -0.1002 -0.1770 -0.3488
 1134SOL     ow 4533   1.096   2.383   3.472  0.0516  0.5851  0.2190
 1134SOL     hw 4534   1.131   2.372   3.384 -1.7911 -3.4316 -0.2393
 1134SOL     hw 4535   1.002   2.396   3.459 -0.0093  1.7262  1.5956
 1134SOL     vw 4536   1.088   2.384   3.459 -0.1996  0.2058  0.3402
 1135SOL     ow 4537   2.126   3.199   4.392  0.1619 -0.1535 -0.2430
 1135SOL     hw 4538   2.069   3.123   4.383 -0.4767  0.2899  0.0135
 1135SOL     hw 4539   2.103   3.255   4.318 -0.9599  0.8103  0.7989
 1135SOL     vw 4540   2.116   3.197   4.381 -0.0705  0.0322 -0.0720
 1136SOL     ow 4541   6.239   4.379   3.469 -0.3430  0.2475  0.1862
 1136SOL     hw 4542   6.220   4.407   3.379 -1.9115  1.3486  0.8162
 1136SOL     hw 4543   6.253   4.460   3.517 -1.0240 -0.2395  1.2493
 1136SOL     vw 4544   6.238   4.393   3.463 -0.6397  0.3285  0.4095
 1137SOL     ow 4545   7.064   5.769   4.262 -0.2468 -0.3208  0.1320
 1137SOL     hw 4546   7.074   5.853   4.308 -1.9256 -0.5547  1.0061
 1137SOL     hw 4547   7.082   5.703   4.329 -1.6399 -0.6524  0.2194
 1137SOL     vw 4548   7.067   5.772   4.277 -0.6518 -0.3953  0.2587
 1138SOL     ow 4549   6.337   2.076   1.435  0.1218  0.6952 -0.3324
 1138SOL     hw 4550   6.426   2.043   1.448  0.1045  0.0548 -1.6950
 1138SOL     hw 4551   6.323   2.137   1.507  0.8414 -0.8661  1.2092
 1138SOL     vw 4552   6.347   2.080   1.446  0.2146  0.4047 -0.3089
 1139SOL     ow 4553   2.377   1.313   0.432  0.0996 -0.6794 -0.0028
 1139SOL     hw 4554   2.296   1.326   0.382 -0.9020 -0.4471  1.6331
 1139SOL     hw 4555   2.433   1.264   0.372 -1.7038 -1.9736 -0.7355
 1139SOL     vw 4556   2.374   1.308   0.417 -0.2705 -0.8195  0.1163
 1140SOL     ow 4557   2.712   0.298   2.822 -0.8301  0.8057  0.2164
 1140SOL     hw 4558   2.680   0.210   2.842  1.9891 -0.1242  0.9647
 1140SOL     hw 4559   2.770   0.320   2.895  1.5189  1.6840 -1.7973
 1140SOL     vw 4560   2.715   0.289   2.834 -0.1483  0.7989  0.0495
 1141SOL     ow 4561   6.423   4.081   6.891 -0.0290  0.3384 -0.0220
 1141SOL     hw 4562   6.388   4.163   6.856  0.8826  0.7896  0.0895
 1141SOL     hw 4563   6.355   4.016   6.872 -0.4877  0.9909 -0.6907
 1141SOL     vw 4564   6.409   4.083   6.884  0.0305  0.4840 -0.0956
 1142SOL     ow 4565   6.580   6.654   1.956 -0.2527  0.2208  0.6130
 1142SOL     hw 4566   6.502   6.697   1.992  1.0248  2.4038  0.9713
 1142SOL     hw 4567   6.610   6.713   1.887  2.3268  0.7078  1.9992
 1142SOL     vw 4568   6.574   6.668   1.952  0.2561  0.5732  0.8432
 1143SOL     ow 4569   0.534   2.593   3.725  0.0255  0.6227 -0.1539
 1143SOL     hw 4570   0.476   2.665   3.699 -1.1716 -0.1573  0.2555
 1143SOL     hw 4571   0.474   2.523   3.752  1.1664 -0.3562 -0.0815
 1143SOL     vw 4572   0.518   2.594   3.725  0.0181  0.3906 -0.0904
 1144SOL     ow 4573   0.634   3.906   4.259  0.2295  0.3705  0.3209
 1144SOL     hw 4574   0.695   3.890   4.187  1.1561  1.6325  0.7877
 1144SOL     hw 4575   0.556   3.941   4.217  0.4677  0.3533 -0.1398
 1144SOL     vw 4576   0.632   3.908   4.244  0.3832  0.5349  0.3216
 1145SOL     ow 4577   4.184   6.907   1.978  0.4401  0.2642  0.9358
 1145SOL     hw 4578   4.137   6.826   1.957 -1.7612  1.7220 -0.2446
 1145SOL     hw 4579   4.265   6.879   2.018 -0.3485 -2.5142  0.7571
 1145SOL     vw 4580   4.188   6.893   1.980  0.0455  0.0899  0.7564
 1146SOL     ow 4581   6.593   0.643   0.726  0.0400  0.5207  0.2019
 1146SOL     hw 4582   6.561   0.650   0.636 -0.7900  0.6268  0.4960
 1146SOL     hw 4583   6.685   0.670   0.722 -0.1886  1.2092 -0.4899
 1146SOL     vw 4584   6.601   0.647   0.714 -0.0997  0.6256  0.1495
 1147SOL     ow 4585   3.825   0.327   6.800  0.4109 -0.1106  0.1909
 1147SOL     hw 4586   3.826   0.297   6.709  0.0898 -0.1229  0.1875
 1147SOL     hw 4587   3.846   0.249   6.852 -0.3880 -0.3420  0.1803
 1147SOL     vw 4588   3.828   0.313   6.795  0.2631 -0.1427  0.1888
 1148SOL     ow 4589   1.617   1.665   0.209 -0.4187 -0.2599 -0.0040
 1148SOL     hw 4590   1.611   1.616   0.292 -1.5350 -0.1122  0.0210
 1148SOL     hw 4591   1.666   1.607   0.151 -3.2919 -2.3322 -0.5771
 1148SOL     vw 4592   1.623   1.651   0.212 -0.9451 -0.5138 -0.0763
 1149SOL     ow 4593   6.594   1.055   0.603  0.0146  0.8365  0.7040
 1149SOL     hw 4594   6.500   1.071   0.592 -0.3254 -1.5172 -0.5270
 1149SOL     hw 4595   6.632   1.072   0.517  0.0974 -1.5051  0.2006
 1149SOL     vw 4596   6.587   1.059   0.590 -0.0198  0.2170  0.4752
 1150SOL     ow 4597   5.230   0.743   3.745  0.2326 -1.1816 -0.0461
 1150SOL     hw 4598   5.309   0.785   3.780  0.1512  0.4488 -1.6976
 1150SOL     hw 4599   5.158   0.789   3.787  0.1011 -2.4790  1.2396
 1150SOL     vw 4600   5.231   0.755   3.755  0.2046 -1.1376 -0.0943
 1151SOL     ow 4601   1.350   0.838   1.105  0.5010 -1.0399  0.1027
 1151SOL     hw 4602   1.355   0.912   1.045 -0.2452  1.2361  2.6689
 1151SOL     hw 4603   1.257   0.821   1.115  0.3476  0.8003  2.9446
 1151SOL     vw 4604   1.339   0.846   1.098  0.3823 -0.4968  0.8162
 1152SOL     ow 4605   4.245   0.757   0.378  0.6695  0.2596  0.4069
 1152SOL     hw 4606   4.248   0.676   0.428  0.8521  0.3317  0.5143
 1152SOL     hw 4607   4.258   0.826   0.443  0.5781  0.3725  0.3071
 1152SOL     vw 4608   4.247   0.755   0.393  0.6816  0.2840  0.4079
 1153SOL     ow 4609   2.652   3.968   0.466  0.8434  0.3403 -0.1166
 1153SOL     hw 4610   2.578   4.025   0.487 -0.2667 -1.2265  0.3564
 1153SOL     hw 4611   2.727   4.027   0.463  0.5854  1.3451  4.8525
 1153SOL     vw 4612   2.652   3.983   0.468  0.6630  0.2661  0.6014
 1154SOL     ow 4613   2.404   4.835   3.057  0.0875  0.9540 -0.0310
 1154SOL     hw 4614   2.397   4.862   3.148 -0.5672 -0.3200  0.3274
 1154SOL     hw 4615   2.329   4.875   3.014 -0.9163 -0.2550  0.5096
 1154SOL     vw 4616   2.393   4.844   3.063 -0.1314  0.6263  0.0876
 1155SOL     ow 4617   1.292   2.335   5.254  0.6196  0.0896  0.0462
 1155SOL     hw 4618   1.226   2.308   5.190 -0.6005  1.7976  0.5195
 1155SOL     hw 4619   1.309   2.427   5.235  0.3765  0.5955  1.9781
 1155SOL     vw 4620   1.285   2.343   5.243  0.4265  0.3816  0.3636
 1156SOL     ow 4621   1.723   0.097   2.045  0.1286 -0.6122 -0.0248
 1156SOL     hw 4622   1.749   0.148   2.123 -0.4472 -1.0102  0.4313
 1156SOL     hw 4623   1.700   0.011   2.079 -0.1329 -0.7908 -0.6403
 1156SOL     vw 4624   1.724   0.093   2.060  0.0181 -0.6882 -0.0458
 1157SOL     ow 4625   5.328   5.513   5.532  0.1869  0.0743 -0.3843
 1157SOL     hw 4626   5.407   5.546   5.576 -0.6952  1.5243  0.2022
 1157SOL     hw 4627   5.302   5.436   5.583  1.0904 -0.2745 -0.4424
 1157SOL     vw 4628   5.335   5.507   5.545  0.1898  0.2198 -0.3147
 1158SOL     ow 4629   0.061   4.266   0.850  0.5821 -0.2457  0.6455
 1158SOL     hw 4630   0.139   4.317   0.870  0.8774 -0.4159 -0.0288
 1158SOL     hw 4631   0.045   4.283   0.757  0.7380 -1.4491  0.3829
 1158SOL     vw 4632   0.069   4.275   0.840  0.6416 -0.4272  0.5219
 1159SOL     ow 4633   6.434   5.229   6.898 -0.5535 -0.2601  0.1762
 1159SOL     hw 4634   6.402   5.195   6.982 -3.8536 -1.5533 -1.4243
 1159SOL     hw 4635   6.462   5.150   6.851  1.1116  0.4387 -0.0675
 1159SOL     vw 4636   6.433   5.214   6.903 -0.7689 -0.3386 -0.0672
 1160SOL     ow 4637   6.147   5.797   3.266 -0.4186  0.2177  0.7497
 1160SOL     hw 4638   6.242   5.782   3.273 -0.7242 -1.4644  1.9163
 1160SOL     hw 4639   6.117   5.729   3.205 -0.8922  0.6846  0.4574
 1160SOL     vw 4640   6.156   5.786   3.258 -0.5214  0.0572  0.8651
 1161SOL     ow 4641   4.267   1.408   5.049  0.7245 -0.0922  0.1041
 1161SOL     hw 4642   4.171   1.417   5.050  0.8683  2.3272  0.9446
 1161SOL     hw 4643   4.283   1.317   5.027 -1.6763  0.4082 -5.0225
 1161SOL     vw 4644   4.256   1.397   5.046  0.4268  0.2931 -0.4613
 1162SOL     ow 4645   5.515   5.275   0.085 -0.1788  0.1760 -0.1647
 1162SOL     hw 4646   5.557   5.231   0.010 -0.2797 -0.4171  0.1183
 1162SOL     hw 4647   5.423   5.252   0.077  0.1531 -2.1007  1.5757
 1162SOL     vw 4648   5.509   5.266   0.074 -0.1483 -0.2029  0.1022
 1163SOL     ow 4649   3.354   6.624   6.784  0.9723  0.4460  0.0969
 1163SOL     hw 4650   3.286   6.582   6.837  1.4634  1.5249  1.6442
 1163SOL     hw 4651   3.353   6.576   6.701 -0.7953 -0.3785  0.5540
 1163SOL     vw 4652   3.345   6.612   6.780  0.8038  0.4795  0.3614
 1164SOL     ow 4653   3.126   1.637   4.403 -0.5355  0.2199  0.2682
 1164SOL     hw 4654   3.113   1.666   4.313 -1.2199  0.2702  0.3771
 1164SOL     hw 4655   3.094   1.547   4.405  2.2489 -0.8524 -0.2354
 1164SOL     vw 4656   3.120   1.629   4.391 -0.2584  0.0852  0.2162
 1165SOL     ow 4657   2.221   3.936   1.067 -0.7126  0.5212 -0.1526
 1165SOL     hw 4658   2.136   3.971   1.095 -0.6473 -0.1741  0.9650
 1165SOL     hw 4659   2.232   3.970   0.978 -2.1707  0.6109 -0.3362
 1165SOL     vw 4660   2.211   3.945   1.059 -0.8965  0.4413 -0.0294
 1166SOL     ow 4661   1.338   2.132   2.334 -0.1284 -0.6191 -0.5039
 1166SOL     hw 4662   1.323   2.067   2.265  0.4943 -1.5075  0.1828
 1166SOL     hw 4663   1.433   2.134   2.345 -0.0866  0.8104 -0.8723
 1166SOL     vw 4664   1.349   2.124   2.326 -0.0407 -0.5478 -0.4619
 1167SOL     ow 4665   1.503   5.813   3.737  0.4646 -0.4924  0.1526
 1167SOL     hw 4666   1.434   5.754   3.768 -0.5053 -0.0177 -0.9694
 1167SOL     hw 4667   1.575   5.756   3.713  0.0005 -1.1248  0.2299
 1167SOL     vw 4668   1.503   5.798   3.738  0.2754 -0.5133  0.0149
 1168SOL     ow 4669   2.480   3.179   3.214  0.1844  0.1332 -0.2414
 1168SOL     hw 4670   2.504   3.265   3.181  1.0769 -0.4842 -1.2687
 1168SOL     hw 4671   2.555   3.152   3.266  0.6279 -0.6817 -1.2619
 1168SOL     vw 4672   2.493   3.187   3.216  0.3607 -0.0558 -0.5116
 1169SOL     ow 4673   6.341   6.517   1.450  0.4426  0.0409 -0.2786
 1169SOL     hw 4674   6.326   6.504   1.356 -0.3870 -0.7298 -0.0454
 1169SOL     hw 4675   6.351   6.612   1.459  2.5342 -0.0043 -1.4235
 1169SOL     vw 4676   6.341   6.528   1.439  0.6092 -0.0668 -0.3990
 1170SOL     ow 4677   1.373   2.436   6.423 -0.7557  0.3300  0.0256
 1170SOL     hw 4678   1.352   2.455   6.514  0.5456  1.9491  0.0572
 1170SOL     hw 4679   1.464   2.464   6.414  0.2568 -2.8535 -0.9689
 1170SOL     vw 4680   1.382   2.442   6.434 -0.4504  0.1235 -0.1016
 1171SOL     ow 4681   1.887   6.314   2.417  0.2922 -0.2757  0.1383
 1171SOL     hw 4682   1.807   6.331   2.467  0.7543  2.5157  0.0836
 1171SOL     hw 4683   1.856   6.276   2.335 -0.6935 -2.1099  1.2943
 1171SOL     vw 4684   1.872   6.311   2.412  0.2231 -0.1495  0.2836
 1172SOL     ow 4685   1.417   2.697   3.842 -0.2285 -0.3976 -0.2014
 1172SOL     hw 4686   1.505   2.708   3.806 -0.0638 -2.0043 -0.3800
 1172SOL     hw 4687   1.425   2.724   3.933  0.7220 -1.4241  0.0480
 1172SOL     vw 4688   1.430   2.702   3.849 -0.0814 -0.7452 -0.1922
 1173SOL     ow 4689   1.948   6.665   0.310 -0.2499 -0.4371  0.2295
 1173SOL     hw 4690   1.927   6.584   0.355 -0.1434  0.1400  1.3648
 1173SOL     hw 4691   1.884   6.728   0.344  1.4928  0.6717  1.6697
 1173SOL     vw 4692   1.936   6.663   0.321 -0.0059 -0.2146  0.5693
 1174SOL     ow 4693   1.990   6.921   2.991 -0.2490 -0.3617 -0.0435
 1174SOL     hw 4694   2.071   6.969   2.974 -0.8083 -0.2466 -2.8066
 1174SOL     hw 4695   2.013   6.829   2.977  0.2177 -0.7807  2.8360
 1174SOL     vw 4696   2.004   6.915   2.987 -0.2611 -0.4017 -0.0280
 1175SOL     ow 4697   6.926   0.320   6.194  0.4488  0.2371  0.2358
 1175SOL     hw 4698   6.950   0.230   6.171  0.4627 -0.3280  2.2756
 1175SOL     hw 4699   6.990   0.374   6.148  1.9662 -0.9502  0.8355
 1175SOL     vw 4700   6.937   0.316   6.185  0.6506  0.0059  0.5841
 1176SOL     ow 4701   1.059   4.036   0.545  0.1692 -0.2204  0.6181
 1176SOL     hw 4702   1.109   4.010   0.622 -1.0818 -3.4915  0.4824
 1176SOL     hw 4703   0.968   4.016   0.567 -0.5584  1.3430 -0.7520
 1176SOL     vw 4704   1.054   4.030   0.558 -0.0919 -0.4456  0.4194
 1177SOL     ow 4705   0.157   5.191   2.190 -0.5061  0.2743  0.4502
 1177SOL     hw 4706   0.157   5.106   2.235  0.7176  1.0054  1.9478
 1177SOL     hw 4707   0.188   5.171   2.102  4.9191 -0.3822  2.0877
 1177SOL     vw 4708   0.161   5.177   2.184  0.3711  0.2840  0.8639
 1178SOL     ow 4709   2.828   4.172   2.245  0.5666 -0.4645 -0.4776
 1178SOL     hw 4710   2.786   4.255   2.224  1.0958 -0.4145 -1.3656
 1178SOL     hw 4711   2.769   4.131   2.309 -1.1345 -0.6249 -2.0586
 1178SOL     vw 4712   2.814   4.178   2.250  0.4120 -0.4792 -0.8034
 1179SOL     ow 4713   6.302   3.552   6.285 -0.1124 -0.0999 -0.1449
 1179SOL     hw 4714   6.261   3.574   6.201  1.2025 -1.8158 -1.3162
 1179SOL     hw 4715   6.230   3.547   6.347 -1.1211  1.2123 -1.1628
 1179SOL     vw 4716   6.287   3.554   6.282 -0.0718 -0.1533 -0.4334
 1180SOL     ow 4717   6.189   7.035   0.414  0.4055 -0.1768  0.7037
 1180SOL     hw 4718   6.251   7.080   0.471  2.0074  0.2511 -1.2740
 1180SOL     hw 4719   6.186   6.946   0.448  3.5009 -0.7099 -0.1064
 1180SOL     vw 4720   6.197   7.029   0.426  1.0254 -0.1907  0.3359
 1181SOL     ow 4721   1.168   4.967   4.283 -0.1365 -0.2185 -0.2865
 1181SOL     hw 4722   1.102   5.033   4.266 -0.0902 -0.6648 -2.5495
 1181SOL     hw 4723   1.245   5.016   4.310 -1.5087  0.2609  3.2670
 1181SOL     vw 4724   1.170   4.982   4.284 -0.3114 -0.2141 -0.1161
 1182SOL     ow 4725   7.075   2.440   6.324  0.1447  0.5251  0.5612
 1182SOL     hw 4726   7.109   2.435   6.414  1.4352  0.4560  0.0932
 1182SOL     hw 4727   7.148   2.411   6.270 -0.6885  0.3759 -0.5078
 1182SOL     vw 4728   7.089   2.435   6.329  0.2050  0.4963  0.3583
 1183SOL     ow 4729   1.957   3.853   5.955  1.0365  0.0912 -0.0053
 1183SOL     hw 4730   1.985   3.908   5.882  1.3244  0.1440  0.1415
 1183SOL     hw 4731   1.922   3.774   5.915  2.2385 -0.3688 -0.1671
 1183SOL     vw 4732   1.956   3.850   5.940  1.2330  0.0373 -0.0074
 1184SOL     ow 4733   6.370   1.834   3.398 -0.9370 -0.1115  0.2584
 1184SOL     hw 4734   6.397   1.772   3.466  1.1716  0.8987  0.4429
 1184SOL     hw 4735   6.377   1.785   3.317  0.0773 -0.3436  0.4634
 1184SOL     vw 4736   6.375   1.820   3.397 -0.5250 -0.0089  0.3097
 1185SOL     ow 4737   1.900   1.511   2.400 -0.0806 -0.5076 -0.0366
 1185SOL     hw 4738   1.913   1.597   2.439 -2.1432 -0.6548  1.1524
 1185SOL     hw 4739   1.878   1.529   2.308  1.9209  0.0361 -0.4451
 1185SOL     vw 4740   1.899   1.525   2.393 -0.0887 -0.4553  0.0664
 1186SOL     ow 4741   0.567   4.776   0.472 -0.5848 -0.3692  0.4070
 1186SOL     hw 4742   0.659   4.785   0.446 -1.4287  1.5127 -2.3350
 1186SOL     hw 4743   0.570   4.776   0.568  2.2466 -0.0648  0.4243
 1186SOL     vw 4744   0.580   4.777   0.481 -0.3226 -0.0808  0.0475
 1187SOL     ow 4745   2.124   3.011   0.179  0.1585 -0.3072  0.8503
 1187SOL     hw 4746   2.040   3.053   0.195 -0.7186 -0.3250 -2.9018
 1187SOL     hw 4747   2.189   3.080   0.194 -0.8112  0.7252  0.3974
 1187SOL     vw 4748   2.121   3.026   0.183 -0.0852 -0.1733  0.2955
 1188SOL     ow 4749   4.759   2.903   5.727 -0.3437  0.2790 -0.8981
 1188SOL     hw 4750   4.742   2.978   5.784  0.3733  0.9924 -1.5943
 1188SOL     hw 4751   4.695   2.837   5.755  0.2414  0.4378  0.9935
 1188SOL     vw 4752   4.748   2.904   5.738 -0.1721  0.3941 -0.7403
 1189SOL     ow 4753   1.601   5.112   1.094  0.3257 -0.2996 -0.0105
 1189SOL     hw 4754   1.670   5.158   1.047 -0.0782  1.1207  0.7034
 1189SOL     hw 4755   1.522   5.126   1.041  0.3477 -0.8887 -0.2079
 1189SOL     vw 4756   1.600   5.120   1.081  0.2753 -0.1900  0.0576
 1190SOL     ow 4757   5.908   7.084   0.299  0.0069 -0.4443  0.1668
 1190SOL     hw 4758   5.860   7.003   0.316 -0.4508 -0.4479 -1.0355
 1190SOL     hw 4759   5.868   7.120   0.219 -2.6088  3.1142  2.7604
 1190SOL     vw 4760   5.897   7.078   0.290 -0.3986  0.0246  0.3504
 1191SOL     ow 4761   5.334   0.608   3.488 -0.9828  0.2507 -0.3310
 1191SOL     hw 4762   5.379   0.669   3.430 -1.0147 -0.1627 -0.7964
 1191SOL     hw 4763   5.310   0.534   3.431  1.3881 -1.4527  0.6767
 1191SOL     vw 4764   5.337   0.606   3.473 -0.6742 -0.0286 -0.2594
 1192SOL     ow 4765   0.817   0.413   1.040  0.5102  0.1622 -0.1562
 1192SOL     hw 4766   0.797   0.505   1.061  1.5583  0.5635 -0.8123
 1192SOL     hw 4767   0.765   0.394   0.962  1.6271  0.7901 -1.0890
 1192SOL     vw 4768   0.807   0.423   1.032  0.7958  0.2980 -0.3659
 1193SOL     ow 4769   3.221   6.857   2.753 -0.4055  0.2330 -0.3681
 1193SOL     hw 4770   3.283   6.785   2.739  1.4382  1.8735 -1.0961
 1193SOL     hw 4771   3.197   6.850   2.846 -1.0824 -1.8915 -0.6576
 1193SOL     vw 4772   3.226   6.847   2.764 -0.2514  0.1690 -0.5022
 1194SOL     ow 4773   1.866   0.233   6.121 -0.0286  0.1105  0.3679
 1194SOL     hw 4774   1.908   0.156   6.085  0.2009  0.4387 -0.0736
 1194SOL     hw 4775   1.903   0.242   6.209 -2.5456 -2.2520  1.8193
 1194SOL     vw 4776   1.876   0.224   6.128 -0.3304 -0.1579  0.5012
 1195SOL     ow 4777   3.842   0.012   4.455 -0.1764 -0.0715  0.0104
 1195SOL     hw 4778   3.763  -0.040   4.444  0.4460 -1.5430  1.9730
 1195SOL     hw 4779   3.904  -0.025   4.393 -0.5628  0.1756 -0.5384
 1195SOL     vw 4780   3.840   0.000   4.446 -0.1453 -0.2330  0.1969
 1196SOL     ow 4781   0.321   2.500   1.707 -0.0797  0.4670  0.3669
 1196SOL     hw 4782   0.231   2.473   1.721  0.2056 -0.2216  0.9612
 1196SOL     hw 4783   0.322   2.539   1.620 -1.1491  1.3924  0.7606
 1196SOL     vw 4784   0.310   2.501   1.698 -0.1831  0.4983  0.4973
 1197SOL     ow 4785   3.399   6.669   2.663  0.8775 -0.3620 -0.8662
 1197SOL     hw 4786   3.411   6.596   2.724  1.0491 -1.3680 -2.0559
 1197SOL     hw 4787   3.335   6.636   2.600 -0.5941  1.2832 -0.2924
 1197SOL     vw 4788   3.392   6.655   2.663  0.7060 -0.2778 -0.9475
 1198SOL     ow 4789   6.976   0.053   6.163 -0.4800 -0.5899 -0.0870
 1198SOL     hw 4790   6.881   0.044   6.158 -0.7583  0.2831  2.5010
 1198SOL     hw 4791   7.001   0.003   6.241  1.1605 -0.6232 -0.5982
 1198SOL     vw 4792   6.967   0.045   6.173 -0.3002 -0.4791  0.1869
 1199SOL     ow 4793   4.940   6.607   4.564  0.0444  0.1391  0.0810
 1199SOL     hw 4794   4.973   6.659   4.490 -0.1155 -0.9303 -0.7622
 1199SOL     hw 4795   5.013   6.605   4.626  0.6269  0.0075 -0.6010
 1199SOL     vw 4796   4.954   6.614   4.563  0.1001 -0.0193 -0.1202
 1200SOL     ow 4797   0.247   4.157   3.024  0.3199  0.0227 -0.2140
 1200SOL     hw 4798   0.314   4.192   2.965 -0.9203  1.6238 -0.7550
 1200SOL     hw 4799   0.242   4.064   3.003  0.3574  0.4390 -2.2208
 1200SOL     vw 4800   0.255   4.150   3.014  0.1612  0.2887 -0.5502
 1201SOL     ow 4801   1.380   4.121   4.970  0.5052 -0.4366  0.0713
 1201SOL     hw 4802   1.424   4.062   5.031 -3.9511 -2.7163  1.5501
 1201SOL     hw 4803   1.350   4.194   5.024  0.6903  0.0642 -0.4852
 1201SOL     vw 4804   1.382   4.123   4.985 -0.0582 -0.6711  0.1929
 1202SOL     ow 4805   6.391   3.043   3.715 -0.5110  0.2459 -0.3808
 1202SOL     hw 4806   6.401   3.057   3.621  0.8686  3.6496  0.0878
 1202SOL     hw 4807   6.458   2.978   3.737  0.4750  0.8340 -1.5180
 1202SOL     vw 4808   6.401   3.037   3.705 -0.1988  0.7726 -0.4691
 1203SOL     ow 4809   1.370   6.279   1.016  0.5342  0.5826 -0.0050
 1203SOL     hw 4810   1.439   6.329   1.060 -0.7192  1.5588  0.9054
 1203SOL     hw 4811   1.307   6.345   0.988 -2.7296 -0.4804  3.8505
 1203SOL     vw 4812   1.371   6.294   1.018 -0.0618  0.5713  0.6238
 1204SOL     ow 4813   3.862   0.878   6.392  0.1514 -0.1918 -0.2162
 1204SOL     hw 4814   3.803   0.864   6.318 -1.2099 -0.9215  0.9498
 1204SOL     hw 4815   3.935   0.819   6.376 -1.1735 -2.0151  0.0458
 1204SOL     vw 4816   3.863   0.869   6.380 -0.2031 -0.5286 -0.0279
 1205SOL     ow 4817   1.399   4.050   4.653  0.1869  0.2651  0.2203
 1205SOL     hw 4818   1.365   4.055   4.564 -0.9056  1.3754  0.6648
 1205SOL     hw 4819   1.494   4.046   4.643  0.2035  2.4542 -0.9649
 1205SOL     vw 4820   1.407   4.050   4.640  0.0451  0.7007  0.1228
 1206SOL     ow 4821   5.120   2.983   0.161 -0.2737 -0.0659  0.7881
 1206SOL     hw 4822   5.077   3.048   0.216 -0.9603  0.6972 -0.5808
 1206SOL     hw 4823   5.213   3.006   0.164 -0.6702  2.1241 -1.0260
 1206SOL     vw 4824   5.126   2.994   0.169 -0.4163  0.3238  0.3682
 1207SOL     ow 4825   4.180   2.288   3.837  0.1847 -0.4589 -0.1737
 1207SOL     hw 4826   4.207   2.375   3.865 -0.5842 -1.3919  4.3678
 1207SOL     hw 4827   4.262   2.245   3.811  0.6412  1.3376 -1.9152
 1207SOL     vw 4828   4.195   2.294   3.837  0.1433 -0.3451  0.1957
 1208SOL     ow 4829   4.712   3.310   2.291 -0.1250 -0.2608  0.1795
 1208SOL     hw 4830   4.641   3.285   2.350 -0.8216  1.8495  0.3448
 1208SOL     hw 4831   4.668   3.329   2.208  0.7998 -2.8563 -1.0037
 1208SOL     vw 4832   4.697   3.309   2.288 -0.0949 -0.3246  0.0453
 1209SOL     ow 4833   6.640   0.732   2.865 -0.1362 -0.6379  0.0690
 1209SOL     hw 4834   6.594   0.815   2.856  2.4148  0.7447 -1.1848
 1209SOL     hw 4835   6.653   0.722   2.959  0.3476  0.8754  0.1811
 1209SOL     vw 4836   6.635   0.742   2.876  0.2642 -0.2558 -0.0815
 1210SOL     ow 4837   4.052   1.928   2.987  0.2473  0.0216 -0.6244
 1210SOL     hw 4838   4.044   1.858   3.052  0.5656  0.3931 -0.1888
 1210SOL     hw 4839   3.962   1.958   2.973 -0.0169 -1.0539 -1.4654
 1210SOL     vw 4840   4.039   1.922   2.994  0.2544 -0.0713 -0.6778
 1211SOL     ow 4841   6.250   4.500   3.206 -0.8759 -0.5443  0.0896
 1211SOL     hw 4842   6.168   4.549   3.196 -1.9534 -2.4282 -0.7757
 1211SOL     hw 4843   6.286   4.495   3.118  0.4038  0.5786  0.5180
 1211SOL     vw 4844   6.244   4.506   3.193 -0.8492 -0.6449  0.0318
 1212SOL     ow 4845   7.040   1.984   1.056  0.2653  0.1063  0.1487
 1212SOL     hw 4846   6.953   1.962   1.024  1.0819  0.5005 -2.6591
 1212SOL     hw 4847   7.100   1.933   1.000  1.8633  0.6288  1.2975
 1212SOL     vw 4848   7.037   1.974   1.045  0.5839  0.2273 -0.0702
 1213SOL     ow 4849   6.923   2.387   2.299  0.6703  0.4146  0.1906
 1213SOL     hw 4850   6.897   2.385   2.207 -1.4921 -0.4935  0.7730
 1213SOL     hw 4851   6.883   2.467   2.333  1.2377  0.6064  0.4283
 1213SOL     vw 4852   6.914   2.398   2.292  0.4599  0.3202  0.2989
 1214SOL     ow 4853   6.798   5.356   2.995 -0.0602 -0.2669 -0.3969
 1214SOL     hw 4854   6.760   5.352   2.907 -1.2254  1.5067 -0.0198
 1214SOL     hw 4855   6.768   5.440   3.031 -2.1118 -2.1880  2.8220
 1214SOL     vw 4856   6.789   5.367   2.988 -0.4847 -0.2861  0.0776
 1215SOL     ow 4857   1.951   5.042   5.684  0.4629  0.1648 -0.3342
 1215SOL     hw 4858   1.978   5.132   5.703  1.5714  0.2284 -2.0652
 1215SOL     hw 4859   1.989   4.990   5.755  1.4843  0.8247 -0.3769
 1215SOL     vw 4860   1.960   5.047   5.696  0.7439  0.2604 -0.5679
 1216SOL     ow 4861   2.365   1.558   1.638 -0.0260  0.1240  0.0084
 1216SOL     hw 4862   2.421   1.481   1.641 -0.5803 -0.4078 -2.0180
 1216SOL     hw 4863   2.399   1.615   1.707  0.6310 -1.7507  1.3144
 1216SOL     vw 4864   2.377   1.555   1.648 -0.0124 -0.1935 -0.0866
 1217SOL     ow 4865   2.822   1.519   2.374 -0.4287  0.2425 -0.2629
 1217SOL     hw 4866   2.868   1.585   2.425 -1.6733  1.9112 -1.2201
 1217SOL     hw 4867   2.889   1.481   2.317  0.4140  0.2419  0.7046
 1217SOL     vw 4868   2.837   1.523   2.373 -0.4816  0.4626 -0.2617
 1218SOL     ow 4869   0.592   3.304   4.130  0.2538 -0.0052  0.3010
 1218SOL     hw 4870   0.663   3.364   4.103  0.3997 -0.4728 -0.3925
 1218SOL     hw 4871   0.626   3.260   4.208  0.2607  0.6069  0.6498
 1218SOL     vw 4872   0.606   3.306   4.136  0.2739  0.0138  0.2556
 1219SOL     ow 4873   6.155   0.126   4.101 -0.3471 -0.2110 -0.5712
 1219SOL     hw 4874   6.127   0.057   4.040 -1.2911 -2.5063  2.2335
 1219SOL     hw 4875   6.120   0.206   4.063 -2.6742 -1.7820 -2.0243
 1219SOL     vw 4876   6.147   0.127   4.088 -0.7784 -0.7211 -0.3929
 1220SOL     ow 4877   3.740   2.449   3.221  0.2940  0.2217  0.3807
 1220SOL     hw 4878   3.826   2.411   3.239  0.5741  0.7267  0.0938
 1220SOL     hw 4879   3.758   2.536   3.188 -0.2817 -0.0799 -0.7843
 1220SOL     vw 4880   3.754   2.455   3.219  0.2550  0.2486  0.1892
 1221SOL     ow 4881   3.607   4.977   6.737  0.1307  0.1132 -0.3059
 1221SOL     hw 4882   3.658   4.922   6.678  0.2476 -0.5372  0.3868
 1221SOL     hw 4883   3.645   4.962   6.824 -0.1966  0.8618 -0.0201
 1221SOL     vw 4884   3.619   4.968   6.741  0.1030  0.1264 -0.1767
 1222SOL     ow 4885   2.063   1.077   7.081 -0.3577  0.0640  0.2257
 1222SOL     hw 4886   2.036   1.095   6.991 -0.6315 -1.5020 -0.0254
 1222SOL     hw 4887   1.998   1.123   7.135 -2.0036 -1.4029 -0.3885
 1222SOL     vw 4888   2.051   1.086   7.077 -0.6111 -0.3361  0.1113
 1223SOL     ow 4889   3.523   1.082   0.413 -0.3772 -0.3783 -0.0749
 1223SOL     hw 4890   3.440   1.063   0.457  0.0219 -2.8356 -0.2142
 1223SOL     hw 4891   3.577   1.124   0.480 -0.7512 -1.4788  0.9490
 1223SOL     vw 4892   3.520   1.085   0.428 -0.3738 -0.8477  0.0418
 1224SOL     ow 4893   2.920   4.958   0.297 -0.3738  0.2814 -0.4233
 1224SOL     hw 4894   2.851   4.984   0.236 -1.3782 -1.7044 -0.1963
 1224SOL     hw 4895   2.944   5.039   0.342 -3.3875  0.8650  0.3212
 1224SOL     vw 4896   2.914   4.972   0.295 -0.9038  0.0963 -0.2952
 1225SOL     ow 4897   6.682   6.795   1.760 -0.1602  0.0820  0.4907
 1225SOL     hw 4898   6.624   6.845   1.702  0.0524  0.1410  0.3315
 1225SOL     hw 4899   6.766   6.840   1.755  0.3808 -0.9855 -0.5897
 1225SOL     vw 4900   6.685   6.808   1.752 -0.0608 -0.0513  0.3272
 1226SOL     ow 4901   0.675   5.120   6.772 -0.4285 -0.2771 -0.1503
 1226SOL     hw 4902   0.763   5.154   6.757 -0.6069 -0.6526 -2.3971
 1226SOL     hw 4903   0.622   5.197   6.791 -0.2395  0.4143 -2.2002
 1226SOL     vw 4904   0.679   5.135   6.772 -0.4271 -0.2351 -0.7172
 1227SOL     ow 4905   3.316   5.873   0.945  0.1197 -0.8148 -0.1272
 1227SOL     hw 4906   3.287   5.905   1.030 -0.9390 -1.9029 -0.0477
 1227SOL     hw 4907   3.407   5.847   0.958  0.0442 -0.7221  0.5901
 1227SOL     vw 4908   3.324   5.874   0.958 -0.0299 -0.9460 -0.0220
 1228SOL     ow 4909   5.590   6.633   2.961 -0.0748 -0.0506  0.1568
 1228SOL     hw 4910   5.658   6.583   3.006 -0.0229  1.2218  1.5731
 1228SOL     hw 4911   5.513   6.577   2.963  0.0653 -0.2253  1.4038
 1228SOL     vw 4912   5.589   6.619   2.967 -0.0491  0.0942  0.5082
 1229SOL     ow 4913   7.218   2.465   3.927  0.0990  0.4775 -0.5018
 1229SOL     hw 4914   7.174   2.531   3.873 -1.5057  0.9475  1.2768
 1229SOL     hw 4915   7.307   2.499   3.936  0.2449  0.6914 -2.2935
 1229SOL     vw 4916   7.224   2.478   3.921 -0.0935  0.5678 -0.5034
 1230SOL     ow 4917   0.021   1.269   2.655 -1.0852  0.8917  0.1052
 1230SOL     hw 4918   0.112   1.239   2.645 -0.0064  3.6070  0.9348
 1230SOL     hw 4919  -0.027   1.189   2.678  1.4644 -0.3500  1.6801
 1230SOL     vw 4920   0.027   1.254   2.657 -0.6065  1.0862  0.4226
 1231SOL     ow 4921   3.569   5.430   2.070 -1.0508  0.4310 -0.1649
 1231SOL     hw 4922   3.569   5.380   1.988  0.6218  1.4256 -0.8175
 1231SOL     hw 4923   3.500   5.389   2.122  1.6908 -4.2467  0.4049
 1231SOL     vw 4924   3.560   5.418   2.066 -0.4685 -0.0551 -0.1757
 1232SOL     ow 4925   4.664   2.070   0.557  0.2867 -0.8535  0.6595
 1232SOL     hw 4926   4.744   2.098   0.601 -0.1420  1.8670 -0.1040
 1232SOL     hw 4927   4.666   2.114   0.472 -3.3587  1.9211  1.7392
 1232SOL     vw 4928   4.675   2.079   0.552 -0.2508 -0.1285  0.7012
 1233SOL     ow 4929   4.385   4.425   0.641  0.4050 -0.2713  0.2597
 1233SOL     hw 4930   4.320   4.489   0.669  1.4161  2.1424 -2.3791
 1233SOL     hw 4931   4.334   4.347   0.619 -1.0989  0.1859  1.8931
 1233SOL     vw 4932   4.370   4.423   0.642  0.3400  0.1075  0.1270
 1234SOL     ow 4933   6.342   1.747   3.676  0.1784 -0.2482  0.5340
 1234SOL     hw 4934   6.419   1.793   3.712 -0.3680  1.1281  0.0199
 1234SOL     hw 4935   6.273   1.813   3.677 -0.9172 -1.3807  0.6715
 1234SOL     vw 4936   6.343   1.762   3.681 -0.0381 -0.2161  0.4843
 1235SOL     ow 4937   7.183   3.059   7.062  0.0237 -0.0333 -0.5504
 1235SOL     hw 4938   7.107   3.010   7.029  0.1660 -0.2296 -0.5858
 1235SOL     hw 4939   7.163   3.151   7.042 -0.7133  0.0409  0.4223
 1235SOL     vw 4940   7.170   3.065   7.055 -0.0548 -0.0495 -0.4268
 1236SOL     ow 4941   4.336   4.725   3.670 -0.0396  0.1160  0.3147
 1236SOL     hw 4942   4.340   4.633   3.645  2.7457  0.3749 -0.4628
 1236SOL     hw 4943   4.318   4.771   3.588  0.1386  0.3627  0.4130
 1236SOL     vw 4944   4.334   4.719   3.656  0.3512  0.1826  0.2251
 1237SOL     ow 4945   2.194   2.301   5.602  0.3582  0.0782  0.2404
 1237SOL     hw 4946   2.152   2.384   5.580  1.5722  0.3792 -1.1077
 1237SOL     hw 4947   2.190   2.296   5.697  1.5372  2.4115  0.4885
 1237SOL     vw 4948   2.188   2.311   5.611  0.6740  0.4257  0.0954
 1238SOL     ow 4949   7.143   1.283   5.668 -0.5694  0.1495  0.1622
 1238SOL     hw 4950   7.176   1.266   5.756 -0.8325 -0.6653  0.1173
 1238SOL     hw 4951   7.137   1.378   5.662  1.8415  0.3499  0.1399
 1238SOL     vw 4952   7.147   1.293   5.679 -0.2859  0.0684  0.1533
 1239SOL     ow 4953   1.717   6.132   2.084 -0.3190 -0.0066  0.3489
 1239SOL     hw 4954   1.728   6.038   2.066 -0.9584  0.0249 -0.2797
 1239SOL     hw 4955   1.783   6.175   2.031 -3.0744  0.1830 -3.3004
 1239SOL     vw 4956   1.727   6.125   2.075 -0.7669  0.0224 -0.2155
 1240SOL     ow 4957   5.246   5.113   1.988 -0.0515 -0.1724  0.2610
 1240SOL     hw 4958   5.281   5.177   1.926 -0.9168 -0.0506 -0.1007
 1240SOL     hw 4959   5.322   5.060   2.012  0.2479 -0.3624 -1.0647
 1240SOL     vw 4960   5.261   5.115   1.983 -0.1261 -0.1814  0.0384
 1241SOL     ow 4961   5.927   3.874   0.130  0.4998 -0.4455 -0.7207
 1241SOL     hw 4962   5.868   3.851   0.202  0.9465  3.2684  1.1093
 1241SOL     hw 4963   5.868   3.900   0.059 -0.0916  0.4855  0.0749
 1241SOL     vw 4964   5.911   3.875   0.130  0.4809  0.1673 -0.3743
 1242SOL     ow 4965   4.691   4.222   2.677  0.0767  0.5444  0.1104
 1242SOL     hw 4966   4.658   4.282   2.743 -2.2552 -0.4385 -0.0853
 1242SOL     hw 4967   4.737   4.278   2.615 -0.2605  1.8510  1.0013
 1242SOL     vw 4968   4.693   4.237   2.677 -0.2754  0.5875  0.2022
 1243SOL     ow 4969   5.652   5.593   5.303  0.0984  0.2680 -0.6514
 1243SOL     hw 4970   5.734   5.549   5.325 -1.2584 -2.2384 -0.1438
 1243SOL     hw 4971   5.596   5.579   5.379 -0.7906  2.0119 -0.9477
 1243SOL     vw 4972   5.655   5.585   5.316 -0.1979  0.1671 -0.6237
 1244SOL     ow 4973   3.795   3.908   0.447 -0.0447 -0.1225  0.1855
 1244SOL     hw 4974   3.843   3.832   0.413 -1.3975 -1.5707  1.3532
 1244SOL     hw 4975   3.862   3.976   0.457  0.9859 -0.7219 -2.0676
 1244SOL     vw 4976   3.810   3.907   0.444 -0.0871 -0.3927  0.0423
 1245SOL     ow 4977   0.300   6.848   0.908  0.2169 -0.1209 -0.8746
 1245SOL     hw 4978   0.269   6.762   0.934 -0.5922  0.8896  1.9039
 1245SOL     hw 4979   0.272   6.858   0.817 -1.1099 -2.1332 -0.7324
 1245SOL     vw 4980   0.292   6.838   0.899 -0.0649 -0.2530 -0.4893
 1246SOL     ow 4981   0.726   7.028   2.321  0.0332  0.1198 -0.5371
 1246SOL     hw 4982   0.814   7.005   2.289  1.1602  2.4420  0.6761
 1246SOL     hw 4983   0.667   6.994   2.254  1.9080 -0.6715 -1.8862
 1246SOL     vw 4984   0.730   7.020   2.308  0.4292  0.3219 -0.5550
 1247SOL     ow 4985   5.213   2.692   0.206 -0.0075  0.1259  0.3637
 1247SOL     hw 4986   5.219   2.604   0.171  1.4862  0.2612  0.2289
 1247SOL     hw 4987   5.294   2.705   0.255  0.3209  1.8070 -0.5378
 1247SOL     vw 4988   5.224   2.682   0.208  0.2325  0.3656  0.2270
 1248SOL     ow 4989   5.414   4.508   3.622 -0.0206 -0.4922  0.3904
 1248SOL     hw 4990   5.353   4.434   3.623 -1.6339  0.7649 -0.3721
 1248SOL     hw 4991   5.473   4.492   3.696  1.1150 -3.6495 -1.0360
 1248SOL     vw 4992   5.414   4.496   3.632 -0.0837 -0.7432  0.1014
 1249SOL     ow 4993   5.652   1.924   6.510 -0.2496  0.1522  0.6725
 1249SOL     hw 4994   5.691   1.984   6.447 -1.9613  1.3980  0.7256
 1249SOL     hw 4995   5.665   1.967   6.595 -0.9375  0.1490  0.7830
 1249SOL     vw 4996   5.659   1.938   6.513 -0.5660  0.3162  0.6940
 1250SOL     ow 4997   6.608   2.526   6.343  0.5496 -0.3009  0.0508
 1250SOL     hw 4998   6.556   2.492   6.415  0.7477 -0.4443  0.1281
 1250SOL     hw 4999   6.698   2.525   6.376  0.4688  1.0907  0.3491
 1250SOL     vw 5000   6.613   2.521   6.357  0.5651 -0.1363  0.1001
 1251SOL     ow 5001   2.370   6.570   3.871  0.0696  0.5359  0.6689
 1251SOL     hw 5002   2.355   6.475   3.872  1.9944  0.1591 -0.0601
 1251SOL     hw 5003   2.431   6.585   3.943  1.9509  0.7240 -0.8740
 1251SOL     vw 5004   2.376   6.559   3.881  0.5717  0.5109  0.3691
 1252SOL     ow 5005   4.084   0.341   6.670 -0.0205 -0.9139  0.3514
 1252SOL     hw 5006   4.177   0.318   6.680  0.9131  1.7656 -1.0523
 1252SOL     hw 5007   4.058   0.299   6.589 -0.2734 -2.2507  1.1040
 1252SOL     vw 5008   4.093   0.333   6.661  0.0691 -0.7367  0.2654
 1253SOL     ow 5009   3.246   1.954   6.222 -0.5525 -0.2189  0.2182
 1253SOL     hw 5010   3.340   1.971   6.218 -0.2339 -1.1737  2.4976
 1253SOL     hw 5011   3.238   1.860   6.206 -0.9504 -0.4377  1.6288
 1253SOL     vw 5012   3.258   1.944   6.219 -0.5630 -0.3737  0.7050
 1254SOL     ow 5013   1.532   6.443   5.328 -0.2682 -0.3322  0.3601
 1254SOL     hw 5014   1.452   6.391   5.335 -0.2961 -0.5505 -1.1087
 1254SOL     hw 5015   1.571   6.414   5.245  1.1518  0.0234  0.8779
 1254SOL     vw 5016   1.527   6.432   5.318 -0.0845 -0.3140  0.2348
 1255SOL     ow 5017   3.842   4.307   4.805 -0.7182 -0.2810  0.0010
 1255SOL     hw 5018   3.755   4.288   4.841  0.7401 -4.0815  2.1114
 1255SOL     hw 5019   3.838   4.275   4.715 -1.1591 -1.8988  0.5528
 1255SOL     vw 5020   3.830   4.300   4.798 -0.5840 -0.9959  0.3519
 1256SOL     ow 5021   2.056   2.467   2.377  0.3788 -0.0137  0.1404
 1256SOL     hw 5022   2.120   2.411   2.421  0.7651 -2.2016 -2.9510
 1256SOL     hw 5023   1.971   2.433   2.406  0.6196 -0.6774  0.0842
 1256SOL     vw 5024   2.053   2.455   2.387  0.4616 -0.3898 -0.2748
 1257SOL     ow 5025   3.682   1.277   5.973 -0.2780  0.1516  0.2882
 1257SOL     hw 5026   3.663   1.187   5.949  0.3750  0.0526  0.1205
 1257SOL     hw 5027   3.613   1.328   5.931  0.5280 -0.0682 -1.3899
 1257SOL     vw 5028   3.670   1.272   5.964 -0.0855  0.1096  0.0446
 1258SOL     ow 5029   5.419   6.648   0.901 -0.1901 -0.9878  0.1321
 1258SOL     hw 5030   5.334   6.658   0.944 -0.4579  1.8094 -0.8330
 1258SOL     hw 5031   5.482   6.678   0.967 -0.6029  3.3356 -1.0896
 1258SOL     vw 5032   5.416   6.654   0.916 -0.2799 -0.0484 -0.1564
 1259SOL     ow 5033   6.200   1.057   1.506  0.1500  0.4223  0.2751
 1259SOL     hw 5034   6.138   1.085   1.440  1.0580  0.1528 -0.7218
 1259SOL     hw 5035   6.284   1.049   1.460  1.0021  1.0136  1.6217
 1259SOL     vw 5036   6.203   1.059   1.491  0.3822  0.4647  0.3211
 1260SOL     ow 5037   6.339   1.065   3.156  0.2718  0.3757  0.1223
 1260SOL     hw 5038   6.276   1.137   3.159  0.4381  0.5912 -0.9671
 1260SOL     hw 5039   6.408   1.097   3.097 -0.1987 -1.0815 -1.2750
 1260SOL     vw 5040   6.339   1.079   3.148  0.2315  0.2119 -0.2059
 1261SOL     ow 5041   4.563   2.951   5.232  0.1355 -0.2896 -0.3744
 1261SOL     hw 5042   4.471   2.974   5.214  0.1895 -0.5913 -1.0394
 1261SOL     hw 5043   4.586   2.889   5.164  0.6268 -0.7519  0.2061
 1261SOL     vw 5044   4.554   2.946   5.221  0.2077 -0.3904 -0.3855
 1262SOL     ow 5045   4.405   1.797   0.184 -0.5915 -0.1609  0.3682
 1262SOL     hw 5046   4.374   1.710   0.159 -0.9701  0.1917 -0.4389
 1262SOL     hw 5047   4.370   1.855   0.116 -3.2595  1.1542  2.6632
 1262SOL     vw 5048   4.396   1.793   0.171 -0.9933  0.0591  0.5645
 1263SOL     ow 5049   5.376   4.581   0.168  0.0602 -0.6626 -0.4064
 1263SOL     hw 5050   5.461   4.589   0.125 -0.2948 -0.0983 -1.0268
 1263SOL     hw 5051   5.324   4.654   0.133 -0.5230 -0.7147  0.3244
 1263SOL     vw 5052   5.380   4.592   0.158 -0.0632 -0.5951 -0.3919
 1264SOL     ow 5053   3.243   3.197   3.336 -0.4832  0.1476  0.1520
 1264SOL     hw 5054   3.323   3.215   3.288 -0.5032 -1.5173 -0.5797
 1264SOL     hw 5055   3.272   3.150   3.415 -0.4282  3.0234  1.9741
 1264SOL     vw 5056   3.257   3.193   3.340 -0.4786  0.3073  0.2960
 1265SOL     ow 5057   1.366   3.495   0.339  0.5423 -0.3475 -0.7689
 1265SOL     hw 5058   1.421   3.418   0.324  2.7757  0.9444  0.2399
 1265SOL     hw 5059   1.396   3.559   0.275  1.4932  0.9563  0.8901
 1265SOL     vw 5060   1.377   3.493   0.329  0.9624 -0.0050 -0.4169
 1266SOL     ow 5061   6.756   3.077   0.085 -0.5937 -0.5106 -0.3045
 1266SOL     hw 5062   6.802   3.130   0.020 -0.0708  2.5539  2.3384
 1266SOL     hw 5063   6.671   3.059   0.045  0.2429 -0.1587 -2.4092
 1266SOL     vw 5064   6.751   3.081   0.071 -0.4141 -0.0598 -0.2335
 1267SOL     ow 5065   5.035   6.598   1.714 -0.2106 -0.0443 -0.3921
 1267SOL     hw 5066   5.026   6.509   1.747  0.8507  0.2228  0.7079
 1267SOL     hw 5067   5.072   6.588   1.626 -1.4777 -0.7141 -0.8791
 1267SOL     vw 5068   5.039   6.585   1.707 -0.2377 -0.0975 -0.3112
 1268SOL     ow 5069   6.806   7.159   6.387 -0.2017 -0.2320 -0.4532
 1268SOL     hw 5070   6.850   7.088   6.433  0.9949  1.0450  0.4429
 1268SOL     hw 5071   6.793   7.125   6.298  0.9951 -1.3050 -0.2563
 1268SOL     vw 5072   6.810   7.145   6.381  0.1144 -0.2053 -0.3088
 1269SOL     ow 5073   0.685   6.342   0.938 -0.6756  0.2132 -0.5318
 1269SOL     hw 5074   0.753   6.393   0.896  1.1217 -1.6602 -0.0556
 1269SOL     hw 5075   0.628   6.314   0.866  0.2327  0.1156 -1.2200
 1269SOL     vw 5076   0.686   6.345   0.923 -0.3186 -0.0467 -0.5598
 1270SOL     ow 5077   1.733   3.191   5.056  0.6257 -0.2017 -0.1545
 1270SOL     hw 5078   1.692   3.212   5.140  0.9818 -1.4488  0.3575
 1270SOL     hw 5079   1.666   3.212   4.991 -0.8373 -2.0027  0.6493
 1270SOL     vw 5080   1.719   3.196   5.059  0.4796 -0.6039  0.0188
 1271SOL     ow 5081   5.596   3.699   1.535  0.8223  0.2620 -0.4640
 1271SOL     hw 5082   5.547   3.781   1.535  0.4671  0.0530 -0.5390
 1271SOL     hw 5083   5.662   3.710   1.467  0.3953  0.2650 -0.8811
 1271SOL     vw 5084   5.598   3.711   1.526  0.7191  0.2348 -0.5289
 1272SOL     ow 5085   6.807   6.161   0.557 -0.0185  0.2294 -0.5993
 1272SOL     hw 5086   6.889   6.113   0.569 -1.8387 -3.2895 -0.8839
 1272SOL     hw 5087   6.765   6.157   0.643 -0.6335  0.5219 -0.8860
 1272SOL     vw 5088   6.813   6.155   0.570 -0.3395 -0.1962 -0.6747
 1273SOL     ow 5089   4.225   0.265   3.321 -0.1644  0.2100 -0.2569
 1273SOL     hw 5090   4.317   0.250   3.298  0.2350  2.5133 -0.3909
 1273SOL     hw 5091   4.224   0.268   3.416  0.0507  0.9162 -0.2719
 1273SOL     vw 5092   4.237   0.263   3.330 -0.0834  0.6071 -0.2766
 1274SOL     ow 5093   3.116   3.280   1.227  0.4725  0.5253 -0.2726
 1274SOL     hw 5094   3.063   3.344   1.274  0.3978  0.1400  0.1816
 1274SOL     hw 5095   3.123   3.206   1.287  2.2553  0.9079  0.0704
 1274SOL     vw 5096   3.110   3.278   1.241  0.6977  0.5251 -0.1674
 1275SOL     ow 5097   1.674   2.674   0.146  0.4873 -0.1187 -0.4228
 1275SOL     hw 5098   1.622   2.652   0.224  2.1565  3.2100  1.9112
 1275SOL     hw 5099   1.624   2.743   0.103  0.5685 -0.4726 -1.0853
 1275SOL     vw 5100   1.660   2.680   0.151  0.7182  0.2738 -0.2022
 1276SOL     ow 5101   2.863   4.487   0.418 -0.0683 -0.0087  0.7392
 1276SOL     hw 5102   2.923   4.414   0.433 -0.9847 -0.7408  0.9500
 1276SOL     hw 5103   2.827   4.506   0.504  0.3930  0.9224  0.7438
 1276SOL     vw 5104   2.866   4.480   0.431 -0.1283  0.0179  0.7676
 1277SOL     ow 5105   4.488   3.055   4.164 -0.3410 -0.1649  0.2403
 1277SOL     hw 5106   4.520   3.143   4.183 -0.0708 -0.3244  0.5373
 1277SOL     hw 5107   4.501   3.044   4.070 -0.8426  0.2957  0.1116
 1277SOL     vw 5108   4.494   3.065   4.154 -0.3715 -0.1252  0.2625
 1278SOL     ow 5109   3.573   2.664   1.259  0.4489 -0.4339  0.1885
 1278SOL     hw 5110   3.588   2.645   1.351 -1.1841 -2.0982  0.1780
 1278SOL     hw 5111   3.618   2.595   1.212  1.7328  0.7149 -0.3211
 1278SOL     vw 5112   3.581   2.653   1.265  0.4029 -0.5020  0.1199
 1279SOL     ow 5113   0.275   2.520   5.900  0.4001 -0.9210 -0.4202
 1279SOL     hw 5114   0.293   2.508   5.807  0.0204 -0.7516 -0.5169
 1279SOL     hw 5115   0.180   2.529   5.905  0.5243  0.4401 -0.1717
 1279SOL     vw 5116   0.265   2.519   5.889  0.3664 -0.7191 -0.4001
 1280SOL     ow 5117   0.103   7.237   4.764  0.1090  0.6211 -0.4765
 1280SOL     hw 5118   0.038   7.181   4.722  0.1782 -0.3940  0.7252
 1280SOL     hw 5119   0.185   7.188   4.758  0.1231  0.4590  0.8113
 1280SOL     vw 5120   0.105   7.223   4.758  0.1200  0.4656 -0.1478
 1281SOL     ow 5121   4.489   6.543   4.568  0.3782 -0.7551  0.4404
 1281SOL     hw 5122   4.409   6.592   4.585  1.7655  1.0080  2.5533
 1281SOL     hw 5123   4.491   6.530   4.473 -0.4520  2.7505 -0.1922
 1281SOL     vw 5124   4.479   6.547   4.558  0.4520 -0.0601  0.6359
 1282SOL     ow 5125   6.243   4.528   5.280  0.7995  0.2248  0.2957
 1282SOL     hw 5126   6.186   4.453   5.264  0.3419  1.0816 -2.6911
 1282SOL     hw 5127   6.332   4.493   5.271  0.6520 -0.2636  0.6706
 1282SOL     vw 5128   6.247   4.513   5.277  0.7195  0.2732 -0.0486
 1283SOL     ow 5129   5.892   1.984   4.488  0.6509 -0.1219 -0.1098
 1283SOL     hw 5130   5.830   1.933   4.541  1.4282 -0.9716  0.0110
 1283SOL     hw 5131   5.860   2.074   4.493 -0.9872 -0.6361 -0.6271
 1283SOL     vw 5132   5.879   1.989   4.496  0.5372 -0.3019 -0.1619
 1284SOL     ow 5133   6.307   0.090   2.072  0.0597  0.0596 -0.2809
 1284SOL     hw 5134   6.285   0.055   2.158 -0.6444 -1.9874 -1.2136
 1284SOL     hw 5135   6.402   0.095   2.071  0.0701  0.0807  0.6100
 1284SOL     vw 5136   6.316   0.086   2.083 -0.0317 -0.2077 -0.2863
 1285SOL     ow 5137   1.711   2.817   4.042  0.0122  0.0043  0.0270
 1285SOL     hw 5138   1.729   2.822   3.948  0.8266  1.3711  0.2279
 1285SOL     hw 5139   1.797   2.805   4.083 -0.3415 -0.6586  0.5958
 1285SOL     vw 5140   1.725   2.816   4.035  0.0730  0.0973  0.1285
 1286SOL     ow 5141   0.593   5.374   5.494 -0.3350  0.2736 -0.1171
 1286SOL     hw 5142   0.613   5.357   5.587  0.0159  1.1388 -0.0258
 1286SOL     hw 5143   0.498   5.377   5.490 -0.5861 -3.4455 -0.4688
 1286SOL     vw 5144   0.583   5.372   5.506 -0.3219 -0.1028 -0.1516
 1287SOL     ow 5145   5.500   4.957   2.473  0.9484  0.3494 -0.1799
 1287SOL     hw 5146   5.499   5.042   2.518 -0.1841 -0.9840  2.5665
 1287SOL     hw 5147   5.590   4.946   2.444  2.1040  0.8857  2.8311
 1287SOL     vw 5148   5.512   4.967   2.475  0.9513  0.2444  0.5797
 1288SOL     ow 5149   4.586   1.805   0.378 -0.2584 -0.7180 -0.1704
 1288SOL     hw 5150   4.571   1.715   0.407 -0.9052 -1.0129 -1.3694
 1288SOL     hw 5151   4.523   1.818   0.307  2.8289 -0.8387 -3.1494
 1288SOL     vw 5152   4.575   1.795   0.372  0.0634 -0.7728 -0.7216
 1289SOL     ow 5153   7.095   2.067   0.518 -0.4473 -0.5179 -0.3720
 1289SOL     hw 5154   7.089   1.973   0.503  2.0780 -1.4270  2.9810
 1289SOL     hw 5155   7.004   2.096   0.529 -1.3698 -2.1749 -2.8165
 1289SOL     vw 5156   7.082   2.059   0.518 -0.2358 -0.8564 -0.2521
 1290SOL     ow 5157   0.391   6.936   3.304  0.1221 -0.2921  0.5719
 1290SOL     hw 5158   0.365   7.004   3.367 -0.3959 -0.3141  0.3887
 1290SOL     hw 5159   0.363   6.855   3.345  1.0475 -0.4314  0.9458
 1290SOL     vw 5160   0.384   6.935   3.318  0.1759 -0.3135  0.5971
 1291SOL     ow 5161   6.345   1.506   3.832 -0.9350 -0.2936 -0.6250
 1291SOL     hw 5162   6.340   1.578   3.769 -2.5979 -0.6215 -0.8887
 1291SOL     hw 5163   6.334   1.427   3.780  0.8042 -0.7885 -0.3242
 1291SOL     vw 5164   6.343   1.505   3.817 -0.9251 -0.4022 -0.6202
 1292SOL     ow 5165   2.018   1.378   5.122 -0.3513  0.4319  0.0522
 1292SOL     hw 5166   2.069   1.337   5.053  0.6660 -0.8989  1.5163
 1292SOL     hw 5167   1.953   1.313   5.147 -0.7766  0.9306  0.2742
 1292SOL     vw 5168   2.017   1.364   5.116 -0.2731  0.3222  0.2749
 1293SOL     ow 5169   7.068   1.183   5.343  0.3049  0.6847  0.3141
 1293SOL     hw 5170   7.109   1.232   5.272  1.1476  1.0129  1.0039
 1293SOL     hw 5171   7.036   1.102   5.302 -0.0389  1.2659 -0.6014
 1293SOL     vw 5172   7.069   1.179   5.328  0.3710  0.8047  0.2844
 1294SOL     ow 5173   7.102   0.051   5.930 -0.3988 -0.6469 -0.0227
 1294SOL     hw 5174   7.068   0.046   6.019 -1.2220  2.0839 -0.0898
 1294SOL     hw 5175   7.172   0.116   5.935 -1.4444  0.6846 -1.5878
 1294SOL     vw 5176   7.107   0.059   5.942 -0.6454 -0.1109 -0.2379
 1295SOL     ow 5177   2.372   4.308   4.785  0.2097 -0.4496  0.4811
 1295SOL     hw 5178   2.457   4.345   4.807 -0.0503  0.1973  0.4447
 1295SOL     hw 5179   2.326   4.380   4.740 -0.4530 -0.6910  0.7584
 1295SOL     vw 5180   2.377   4.322   4.782  0.0879 -0.3960  0.5128
 1296SOL     ow 5181   6.443   0.464   0.933  0.3213  0.0472  0.1647
 1296SOL     hw 5182   6.380   0.515   0.984  0.3826 -1.2483  1.6066
 1296SOL     hw 5183   6.417   0.373   0.947  0.6153 -0.3897 -1.8035
 1296SOL     vw 5184   6.431   0.459   0.941  0.3681 -0.1813  0.0953
 1297SOL     ow 5185   1.534   5.963   4.997 -0.7183 -0.0443 -0.4968
 1297SOL     hw 5186   1.526   5.869   5.013  0.8608 -0.0906  0.3305
 1297SOL     hw 5187   1.607   5.971   4.936  1.0668  0.7149  1.5855
 1297SOL     vw 5188   1.543   5.952   4.991 -0.2744  0.0498 -0.1130
 1298SOL     ow 5189   1.969   1.097   1.520 -0.6866 -0.7358 -0.3470
 1298SOL     hw 5190   2.061   1.094   1.543 -0.3523  2.5805 -0.6741
 1298SOL     hw 5191   1.922   1.088   1.603 -0.1190 -2.4688 -0.1871
 1298SOL     vw 5192   1.975   1.095   1.534 -0.5676 -0.5268 -0.3691
 1299SOL     ow 5193   2.861   5.739   1.644 -0.1824 -0.0734  0.0231
 1299SOL     hw 5194   2.840   5.746   1.550  1.9723  0.6733 -0.4580
 1299SOL     hw 5195   2.778   5.713   1.685 -1.0614 -0.9408 -2.1390
 1299SOL     vw 5196   2.847   5.736   1.637 -0.0141 -0.0894 -0.3257
 1300SOL     ow 5197   4.263   5.059   1.535  0.6043 -0.2500 -0.3148
 1300SOL     hw 5198   4.302   5.143   1.556  1.7064 -0.6916 -0.5597
 1300SOL     hw 5199   4.331   5.011   1.487  0.5599 -1.8555  1.1279
 1300SOL     vw 5200   4.277   5.064   1.531  0.7439 -0.5200 -0.1567
 1301SOL     ow 5201   0.492   4.736   5.163 -0.0430  0.3105  0.6942
 1301SOL     hw 5202   0.404   4.741   5.202 -0.2798  0.5122  0.1375
 1301SOL     hw 5203   0.551   4.747   5.238 -0.4208 -2.4192  1.4921
 1301SOL     vw 5204   0.488   4.738   5.178 -0.1241 -0.0231  0.7260
 1302SOL     ow 5205   4.626   4.211   1.761  0.2926 -0.6647 -0.7529
 1302SOL     hw 5206   4.624   4.272   1.688  0.1437 -0.5391 -0.6446
 1302SOL     hw 5207   4.536   4.209   1.794 -0.5915 -3.5529 -2.9046
 1302SOL     vw 5208   4.614   4.218   1.756  0.1564 -1.0290 -1.0225
 1303SOL     ow 5209   2.135   5.584   2.865 -0.3412  0.5455 -0.3955
 1303SOL     hw 5210   2.215   5.558   2.818  2.0671  0.5598  3.2554
 1303SOL     hw 5211   2.150   5.675   2.890 -0.6086  0.0303  1.8520
 1303SOL     vw 5212   2.148   5.592   2.862 -0.0588  0.4795  0.3828
 1304SOL     ow 5213   6.450   2.072   5.590 -0.3188 -0.0307  0.4594
 1304SOL     hw 5214   6.514   2.109   5.650  1.6141 -3.3714  0.6729
 1304SOL     hw 5215   6.437   1.982   5.620 -6.3895  0.7244  1.3562
 1304SOL     vw 5216   6.457   2.065   5.602 -0.8647 -0.3719  0.6058
 1305SOL     ow 5217   1.648   5.002   4.497 -0.3775 -0.3070 -0.1111
 1305SOL     hw 5218   1.688   4.936   4.440  1.2981  0.3116  0.2733
 1305SOL     hw 5219   1.556   5.003   4.471  0.0613 -0.9572 -1.9141
 1305SOL     vw 5220   1.641   4.993   4.486 -0.0985 -0.3109 -0.2987
 1306SOL     ow 5221   1.771   1.523   0.071 -0.4693  0.1825  0.3409
 1306SOL     hw 5222   1.756   1.442   0.120  0.5141  1.3471  2.7682
 1306SOL     hw 5223   1.866   1.527   0.060 -0.3901  1.4631  1.2195
 1306SOL     vw 5224   1.782   1.513   0.076 -0.3291  0.5051  0.7775
 1307SOL     ow 5225   5.339   6.640   3.257  0.3112  0.1628 -0.0342
 1307SOL     hw 5226   5.354   6.720   3.309 -0.2148  1.0258 -1.1562
 1307SOL     hw 5227   5.426   6.615   3.227  0.2840  1.7397 -1.6424
 1307SOL     vw 5228   5.353   6.648   3.260  0.2382  0.4847 -0.3943
 1308SOL     ow 5229   0.517   6.879   3.767 -0.2600  0.3497 -0.4271
 1308SOL     hw 5230   0.611   6.889   3.776 -0.5912  1.7288  3.9927
 1308SOL     hw 5231   0.486   6.966   3.740 -0.3996  0.3980 -0.1130
 1308SOL     vw 5232   0.525   6.892   3.765 -0.3221  0.5381  0.1975
 1309SOL     ow 5233   0.786   3.601   1.740 -0.1578 -0.3394 -0.3615
 1309SOL     hw 5234   0.860   3.661   1.755  0.6983 -1.6258  0.7422
 1309SOL     hw 5235   0.709   3.656   1.748  0.6262  0.7633 -0.0685
 1309SOL     vw 5236   0.786   3.616   1.743  0.0586 -0.3636 -0.1771
 1310SOL     ow 5237   7.023   5.329   6.002 -0.9570 -0.5030 -0.6011
 1310SOL     hw 5238   6.943   5.380   6.004 -1.0699 -0.6888 -0.3044
 1310SOL     hw 5239   7.048   5.318   6.094 -0.1120  0.2960 -0.7186
 1310SOL     vw 5240   7.016   5.334   6.014 -0.8607 -0.4220 -0.5772
 1311SOL     ow 5241   6.894   6.274   2.830  0.0931 -0.7046  0.3839
 1311SOL     hw 5242   6.939   6.302   2.910  0.2258  1.0992 -0.2789
 1311SOL     hw 5243   6.801   6.275   2.852  0.0262  1.1095  0.1901
 1311SOL     vw 5244   6.888   6.278   2.843  0.1018 -0.2272  0.2710
 1312SOL     ow 5245   3.122   2.582   0.192 -0.2926  0.3817  0.3858
 1312SOL     hw 5246   3.095   2.628   0.272 -0.6638 -0.5899  0.8370
 1312SOL     hw 5247   3.214   2.560   0.206  0.4316  2.4972 -0.5810
 1312SOL     vw 5248   3.131   2.585   0.204 -0.2459  0.5325  0.3178
 1313SOL     ow 5249   1.014   5.593   4.967 -0.3278  0.8609 -0.2398
 1313SOL     hw 5250   0.976   5.557   5.047 -1.5587  0.5239 -0.9478
 1313SOL     hw 5251   1.108   5.580   4.977 -0.5695 -0.5157  0.5225
 1313SOL     vw 5252   1.021   5.587   4.979 -0.5221  0.6349 -0.2327
 1314SOL     ow 5253   0.978   7.022   0.247 -0.5192 -0.0231  0.0729
 1314SOL     hw 5254   0.913   7.054   0.185 -0.7416  1.5244  1.0430
 1314SOL     hw 5255   0.935   7.030   0.332  0.4877 -0.1939  0.6060
 1314SOL     vw 5256   0.964   7.028   0.250 -0.4157  0.1583  0.2713
 1315SOL     ow 5257   4.035   5.232   4.881 -0.4786 -0.0633 -0.1908
 1315SOL     hw 5258   4.047   5.173   4.956  0.7955  1.4936  0.9197
 1315SOL     hw 5259   4.123   5.267   4.865 -1.4857  3.1614  0.6582
 1315SOL     vw 5260   4.048   5.228   4.889 -0.4435  0.5672  0.0677
 1316SOL     ow 5261   7.160   6.197   5.832 -0.2551  0.6279  0.1343
 1316SOL     hw 5262   7.194   6.219   5.746  0.5696 -0.3973  0.1704
 1316SOL     hw 5263   7.067   6.180   5.818 -0.5261  2.2487 -0.2022
 1316SOL     vw 5264   7.152   6.197   5.819 -0.1822  0.7064  0.0949
 1317SOL     ow 5265   1.365   4.970   4.560  0.4807 -0.7287 -0.6065
 1317SOL     hw 5266   1.409   4.943   4.640  0.1797 -1.9575 -0.8311
 1317SOL     hw 5267   1.274   4.944   4.572  0.2028  0.0655 -0.9170
 1317SOL     vw 5268   1.359   4.963   4.572  0.4044 -0.7861 -0.6771
 1318SOL     ow 5269   3.562   4.981   0.404 -0.3790 -0.5444 -0.2905
 1318SOL     hw 5270   3.501   5.054   0.390 -0.6791 -1.0540 -1.7960
 1318SOL     hw 5271   3.574   4.944   0.318  0.8434 -1.4512  0.2525
 1318SOL     vw 5272   3.555   4.986   0.391 -0.2574 -0.7312 -0.4175
 1319SOL     ow 5273   4.772   2.774   5.377 -0.5121  0.6740  0.1075
 1319SOL     hw 5274   4.759   2.685   5.346 -2.4586  0.6706  0.7804
 1319SOL     hw 5275   4.836   2.812   5.316  0.8377 -1.3197  0.1678
 1319SOL     vw 5276   4.779   2.767   5.365 -0.5908  0.4104  0.2043
 1320SOL     ow 5277   2.954   3.252   1.764 -0.4596  0.5272 -0.0826
 1320SOL     hw 5278   2.971   3.177   1.821  0.3708  1.5749  1.0949
 1320SOL     hw 5279   3.034   3.263   1.713 -0.4422  0.8384  0.0104
 1320SOL     vw 5280   2.967   3.244   1.765 -0.3477  0.7064  0.0850
 1321SOL     ow 5281   2.863   3.208   5.678  0.8771  0.7224  0.2036
 1321SOL     hw 5282   2.889   3.131   5.729 -0.1165  0.8323  0.9290
 1321SOL     hw 5283   2.819   3.265   5.742  0.2572  1.2041 -0.6254
 1321SOL     vw 5284   2.860   3.206   5.693  0.6641  0.8006  0.1903
 1322SOL     ow 5285   3.422   1.067   0.139  0.1948 -0.1448  0.1092
 1322SOL     hw 5286   3.422   1.056   0.044 -0.4253  2.5818 -0.2863
 1322SOL     hw 5287   3.335   1.036   0.166 -0.6611  1.4832 -0.6185
 1322SOL     vw 5288   3.410   1.062   0.130  0.0000  0.4299 -0.0390
 1323SOL     ow 5289   6.972   7.109   5.699 -0.9605 -0.2817  0.0764
 1323SOL     hw 5290   6.907   7.063   5.752 -3.0156  1.6941 -0.5557
 1323SOL     hw 5291   6.989   7.051   5.625 -1.3003 -1.2090  0.7108
 1323SOL     vw 5292   6.966   7.095   5.696 -1.2765 -0.1433  0.0770
 1324SOL     ow 5293   2.966   3.716   3.990  0.0572  0.3270 -0.2180
 1324SOL     hw 5294   2.909   3.665   4.048  0.9099 -0.1785  0.1977
 1324SOL     hw 5295   3.028   3.759   4.049  1.5556 -0.9686 -0.7748
 1324SOL     vw 5296   2.966   3.715   4.006  0.3674  0.0894 -0.2365
 1325SOL     ow 5297   1.657   5.853   3.422 -0.7423 -0.4083  0.4237
 1325SOL     hw 5298   1.648   5.806   3.505 -4.3188 -0.1824  0.3229
 1325SOL     hw 5299   1.667   5.944   3.447 -0.8676 -0.4472  0.6216
 1325SOL     vw 5300   1.657   5.858   3.436 -1.2307 -0.3836  0.4365
 1326SOL     ow 5301   4.205   0.612   5.139 -0.1381 -0.4176  0.8139
 1326SOL     hw 5302   4.212   0.586   5.230  0.6917  2.4280  1.6601
 1326SOL     hw 5303   4.247   0.698   5.135 -0.2731 -0.3831 -2.2298
 1326SOL     vw 5304   4.211   0.620   5.150 -0.0465 -0.0376  0.5238
 1327SOL     ow 5305   6.409   3.739   0.357  0.3011  0.0903  0.5486
 1327SOL     hw 5306   6.473   3.755   0.426 -1.0594 -0.1924  1.9380
 1327SOL     hw 5307   6.458   3.692   0.290  1.3715 -0.9469  1.9710
 1327SOL     vw 5308   6.424   3.735   0.358  0.2627 -0.0838  0.9196
 1328SOL     ow 5309   2.286   3.295   0.840 -0.0565 -0.0823  0.2242
 1328SOL     hw 5310   2.366   3.289   0.893 -0.4439 -0.4646  0.7817
 1328SOL     hw 5311   2.317   3.291   0.750  0.3560 -4.0232  0.3625
 1328SOL     vw 5312   2.301   3.293   0.835 -0.0533 -0.6528  0.3160
 1329SOL     ow 5313   3.289   1.168   2.343 -0.3506 -0.1278  0.4604
 1329SOL     hw 5314   3.326   1.080   2.330  1.4053  0.2016  2.7142
 1329SOL     hw 5315   3.279   1.203   2.254  0.0600 -2.1327 -0.4264
 1329SOL     vw 5316   3.293   1.161   2.330 -0.0646 -0.3489  0.6407
 1330SOL     ow 5317   2.333   3.500   1.132  0.3444 -0.4859 -0.3911
 1330SOL     hw 5318   2.410   3.467   1.085 -1.2094 -0.0359 -3.5023
 1330SOL     hw 5319   2.301   3.424   1.180  1.0234 -1.5082 -1.4875
 1330SOL     vw 5320   2.339   3.485   1.132  0.2290 -0.5615 -0.9462
 1331SOL     ow 5321   2.687   2.810   6.299 -0.2103  0.3428  0.6162
 1331SOL     hw 5322   2.704   2.867   6.373 -0.3137 -1.0113  1.7181
 1331SOL     hw 5323   2.768   2.761   6.286 -0.5972 -0.3161  0.6445
 1331SOL     vw 5324   2.700   2.811   6.307 -0.2750  0.0774  0.7653
 1332SOL     ow 5325   1.029   7.023   5.277 -0.4133 -0.6936  1.1718
 1332SOL     hw 5326   1.071   6.986   5.355  2.2670 -0.1891  0.0730
 1332SOL     hw 5327   1.097   7.077   5.237 -2.2178  0.3135 -0.6991
 1332SOL     vw 5328   1.044   7.025   5.282 -0.2978 -0.4942  0.7799
 1333SOL     ow 5329   1.414   0.605   0.263  0.0011  0.2474 -0.2303
 1333SOL     hw 5330   1.476   0.533   0.274 -0.0796 -0.0944 -1.7341
 1333SOL     hw 5331   1.469   0.682   0.250  0.1664 -0.0886 -1.7705
 1333SOL     vw 5332   1.429   0.605   0.262  0.0122  0.1580 -0.6319
 1334SOL     ow 5333   2.286   7.071   5.670 -0.6566 -0.7157 -0.3635
 1334SOL     hw 5334   2.273   6.976   5.668  0.5359 -0.9086 -0.0716
 1334SOL     hw 5335   2.213   7.105   5.721  1.2963 -2.0139  3.7709
 1334SOL     vw 5336   2.275   7.063   5.676 -0.2415 -0.9129  0.2208
 1335SOL     ow 5337   4.078   6.452   7.036  0.1371  0.1707 -0.0175
 1335SOL     hw 5338   4.163   6.417   7.009 -0.9346 -1.9156 -0.9029
 1335SOL     hw 5339   4.022   6.443   6.959 -1.1168  0.7096  0.7919
 1335SOL     vw 5340   4.082   6.446   7.022 -0.1698 -0.0336 -0.0274
 1336SOL     ow 5341   2.010   4.686   2.236  0.3452  0.0505 -0.4960
 1336SOL     hw 5342   2.021   4.754   2.169  2.3790  0.4614  0.2044
 1336SOL     hw 5343   1.917   4.692   2.260  0.1227  1.5228 -1.5471
 1336SOL     vw 5344   1.999   4.696   2.230  0.5842  0.2990 -0.5423
 1337SOL     ow 5345   5.624   5.875   1.779  0.2654 -0.0991  0.1792
 1337SOL     hw 5346   5.618   5.790   1.823  0.8259 -1.2429 -1.8053
 1337SOL     hw 5347   5.593   5.858   1.690  0.1541  1.8578 -0.2041
 1337SOL     vw 5348   5.619   5.862   1.773  0.3247  0.0081 -0.1332
 1338SOL     ow 5349   2.499   2.347   5.527  0.4955 -0.1159  0.2094
 1338SOL     hw 5350   2.578   2.312   5.568 -0.5427 -0.7981  1.6878
 1338SOL     hw 5351   2.513   2.442   5.527  1.6782 -0.2661 -0.3598
 1338SOL     vw 5352   2.511   2.355   5.533  0.5146 -0.2258  0.3293
 1339SOL     ow 5353   1.588   6.350   1.857 -0.0895  0.5226  0.2587
 1339SOL     hw 5354   1.572   6.443   1.843 -0.1494  0.2830 -1.5125
 1339SOL     hw 5355   1.629   6.320   1.775 -0.1699 -1.0283  0.7479
 1339SOL     vw 5356   1.591   6.358   1.844 -0.1080  0.2863  0.0896
 1340SOL     ow 5357   4.021   0.105   3.155  0.1229  0.2000  0.5448
 1340SOL     hw 5358   4.011   0.015   3.184  0.8979  0.8160  3.0022
 1340SOL     hw 5359   4.083   0.101   3.082  2.6806 -1.0353  2.6347
 1340SOL     vw 5360   4.027   0.093   3.149  0.5624  0.1183  1.1448
 1341SOL     ow 5361   6.984   0.198   6.451  0.0621 -0.4311  1.0839
 1341SOL     hw 5362   7.004   0.209   6.544  0.7050 -0.1093  0.9145
 1341SOL     hw 5363   6.999   0.105   6.434 -1.2920 -0.7688  1.5738
 1341SOL     vw 5364   6.988   0.187   6.462 -0.0317 -0.4332  1.1261
 1342SOL     ow 5365   1.425   6.043   0.805 -0.1816  0.2104  0.0706
 1342SOL     hw 5366   1.438   6.100   0.729 -1.1363 -1.6397 -1.5912
 1342SOL     hw 5367   1.513   6.016   0.831  0.1979  1.4609  0.1100
 1342SOL     vw 5368   1.438   6.047   0.798 -0.2575  0.1311 -0.1434
 1343SOL     ow 5369   0.392   3.020   5.878  0.6292 -0.0538 -0.3886
 1343SOL     hw 5370   0.316   2.969   5.850  0.7212 -0.6656  0.4203
 1343SOL     hw 5371   0.357   3.107   5.896 -0.4138 -0.9027  2.2444
 1343SOL     vw 5372   0.378   3.025   5.877  0.5037 -0.2465  0.0653
 1344SOL     ow 5373   3.534   1.426   5.793 -0.1865 -0.0768 -0.1496
 1344SOL     hw 5374   3.488   1.394   5.715  0.7904 -1.0613 -0.3458
 1344SOL     hw 5375   3.597   1.490   5.759 -2.5878  2.7740  0.3021
 1344SOL     vw 5376   3.536   1.430   5.778 -0.3743  0.1694 -0.1161
 1345SOL     ow 5377   1.255   3.367   1.406  0.1102 -0.0705  0.6233
 1345SOL     hw 5378   1.329   3.416   1.441 -0.3869 -0.3335  2.1073
 1345SOL     hw 5379   1.296   3.299   1.352  0.8142  1.7366 -1.2814
 1345SOL     vw 5380   1.270   3.364   1.403  0.1375  0.1332  0.5678
 1346SOL     ow 5381   3.778   5.187   4.752 -0.2165  0.3145 -0.0857
 1346SOL     hw 5382   3.738   5.273   4.758  0.3470  0.5077  1.2225
 1346SOL     hw 5383   3.852   5.190   4.812 -0.0976 -1.0292 -0.1237
 1346SOL     vw 5384   3.783   5.198   4.760 -0.1265  0.1628  0.0820
 1347SOL     ow 5385   3.947   7.056   1.540 -0.2791  0.9933 -0.0096
 1347SOL     hw 5386   4.005   6.990   1.578 -1.8136 -2.8282 -3.5374
 1347SOL     hw 5387   3.983   7.072   1.452 -3.2648  0.0009 -1.5406
 1347SOL     vw 5388   3.959   7.049   1.533 -0.8755  0.3581 -0.6770
 1348SOL     ow 5389   0.005   0.304   6.015  0.7470  0.1624  0.2431
 1348SOL     hw 5390  -0.058   0.375   6.021 -0.8705 -1.1398 -0.5736
 1348SOL     hw 5391  -0.002   0.259   6.100  2.3561  1.3915  1.0756
 1348SOL     vw 5392  -0.004   0.307   6.027  0.7458  0.1528  0.2451
 1349SOL     ow 5393   5.625   0.248   4.720  0.0103  0.5017 -0.3298
 1349SOL     hw 5394   5.591   0.299   4.647 -1.6461  2.7735  1.8316
 1349SOL     hw 5395   5.681   0.309   4.768  0.5706 -0.7207  0.6351
 1349SOL     vw 5396   5.628   0.262   4.717 -0.1342  0.6402  0.0825
 1350SOL     ow 5397   4.678   3.634   4.441  0.7925  0.5145 -0.4666
 1350SOL     hw 5398   4.767   3.611   4.412  0.4875  0.8519 -1.7665
 1350SOL     hw 5399   4.675   3.729   4.432  0.5673  0.5958  0.4123
 1350SOL     vw 5400   4.690   3.644   4.436  0.7226  0.5696 -0.5219
 1351SOL     ow 5401   0.506   4.933   0.007 -0.5810 -0.2892 -0.4711
 1351SOL     hw 5402   0.562   4.867   0.047  1.2576  0.1619 -2.1725
 1351SOL     hw 5403   0.510   5.008   0.067 -0.4630 -0.7474  0.0976
 1351SOL     vw 5404   0.514   4.934   0.021 -0.3228 -0.2902 -0.6205
 1352SOL     ow 5405   6.736   0.822   2.600 -0.3699 -0.5489  0.4309
 1352SOL     hw 5406   6.724   0.850   2.509 -0.3861 -0.7504  0.3683
 1352SOL     hw 5407   6.734   0.902   2.651  0.1847 -0.3788  0.1979
 1352SOL     vw 5408   6.734   0.836   2.594 -0.2990 -0.5530  0.3920
 1353SOL     ow 5409   4.992   2.802   0.371 -0.4666  0.2368  0.3867
 1353SOL     hw 5410   4.940   2.736   0.417 -2.4497  0.2142 -1.7441
 1353SOL     hw 5411   5.068   2.816   0.428 -0.8388 -2.5800  1.7477
 1353SOL     vw 5412   4.995   2.795   0.385 -0.7772 -0.1378  0.2851
 1354SOL     ow 5413   5.924   4.235   1.439  0.2826 -0.2938 -0.0033
 1354SOL     hw 5414   5.915   4.202   1.350  0.3150  1.5742 -0.7423
 1354SOL     hw 5415   5.888   4.323   1.436  0.8009  0.0149  1.7007
 1354SOL     vw 5416   5.918   4.242   1.427  0.3552 -0.0067  0.1241
 1355SOL     ow 5417   1.629   1.373   2.653  0.5118 -0.3318  0.5179
 1355SOL     hw 5418   1.566   1.372   2.725  0.6680 -1.1703  0.6443
 1355SOL     hw 5419   1.604   1.449   2.601  0.4369  0.3282  1.4857
 1355SOL     vw 5420   1.618   1.383   2.656  0.5226 -0.3554  0.6623
 1356SOL     ow 5421   3.032   2.071   4.257 -0.0398 -0.3430  0.6131
 1356SOL     hw 5422   3.099   2.118   4.308  0.8039 -1.3587  0.4647
 1356SOL     hw 5423   2.980   2.024   4.322  0.1860 -0.5590  0.6379
 1356SOL     vw 5424   3.034   2.071   4.272  0.1013 -0.5054  0.5965
 1357SOL     ow 5425   1.147   2.186   1.248  0.0872 -0.0626  0.4337
 1357SOL     hw 5426   1.210   2.153   1.311  2.1687 -0.8674 -1.8923
 1357SOL     hw 5427   1.069   2.131   1.260  1.1861 -1.5795  0.8939
 1357SOL     vw 5428   1.145   2.175   1.258  0.5069 -0.3688  0.1875
 1358SOL     ow 5429   3.211   4.814   1.366  0.1387  0.2542 -0.3238
 1358SOL     hw 5430   3.167   4.743   1.412  0.0660  0.4062 -0.1582
 1358SOL     hw 5431   3.227   4.880   1.433  0.4193  0.2949 -0.4267
 1358SOL     vw 5432   3.207   4.814   1.381  0.1663  0.2799 -0.3155
 1359SOL     ow 5433   1.976   4.413   2.292 -0.1600 -0.0717  0.6571
 1359SOL     hw 5434   1.956   4.346   2.226  1.4749  0.0242  0.0100
 1359SOL     hw 5435   1.899   4.414   2.350 -0.0964 -2.7711  0.9155
 1359SOL     vw 5436   1.963   4.404   2.291  0.0641 -0.4151  0.6059
 1360SOL     ow 5437   0.816   4.642   1.643 -0.1210 -0.3093  0.4139
 1360SOL     hw 5438   0.786   4.562   1.600 -1.0138 -0.2648  0.9371
 1360SOL     hw 5439   0.798   4.628   1.736 -1.4052  0.9769  0.3801
 1360SOL     vw 5440   0.810   4.629   1.650 -0.4082 -0.1338  0.4785
 1361SOL     ow 5441   3.235   0.315   6.742  0.2610 -0.7846  0.4826
 1361SOL     hw 5442   3.179   0.386   6.712  0.7351  1.0002  3.4683
 1361SOL     hw 5443   3.263   0.271   6.662 -2.9161  0.1123 -1.2891
 1361SOL     vw 5444   3.231   0.318   6.728 -0.0956 -0.4308  0.6428
 1362SOL     ow 5445   6.372   4.412   0.349  0.5414  0.0777  0.2189
 1362SOL     hw 5446   6.299   4.444   0.295 -0.3478 -1.0578  0.7254
 1362SOL     hw 5447   6.346   4.432   0.439 -0.1461 -2.1821  0.5761
 1362SOL     vw 5448   6.359   4.419   0.353  0.3335 -0.3700  0.3328
 1363SOL     ow 5449   3.834   5.536   2.222  0.0869 -0.5754 -0.8193
 1363SOL     hw 5450   3.855   5.487   2.302 -2.3304  1.3924  1.1968
 1363SOL     hw 5451   3.918   5.571   2.193  0.8085  0.4560  2.1764
 1363SOL     vw 5452   3.847   5.534   2.229 -0.1369 -0.1795 -0.1580
 1364SOL     ow 5453   0.536   3.738   4.423  0.6926 -0.3559  0.2575
 1364SOL     hw 5454   0.588   3.800   4.371  0.0509  3.3110  3.5035
 1364SOL     hw 5455   0.447   3.750   4.392  1.0190 -3.8046 -2.6544
 1364SOL     vw 5456   0.531   3.748   4.412  0.6510 -0.3270  0.3016
 1365SOL     ow 5457   2.036   2.313   0.269  0.4082  0.0876 -0.3893
 1365SOL     hw 5458   2.037   2.297   0.174 -1.1948 -0.2378 -0.3839
 1365SOL     hw 5459   1.978   2.246   0.304 -0.6361  1.4177  0.5530
 1365SOL     vw 5460   2.028   2.302   0.261  0.0589  0.2202 -0.2642
 1366SOL     ow 5461   0.619   6.984   3.059 -0.7453 -0.5800  0.0034
 1366SOL     hw 5462   0.665   7.064   3.032 -0.9948 -0.0829  1.0377
 1366SOL     hw 5463   0.665   6.914   3.012  0.0422  0.0745 -0.2321
 1366SOL     vw 5464   0.631   6.985   3.049 -0.6743 -0.4284  0.1087
 1367SOL     ow 5465   0.203   6.621   0.943  0.4913  0.5880 -0.5327
 1367SOL     hw 5466   0.115   6.590   0.966  0.4864  1.6817  0.9972
 1367SOL     hw 5467   0.229   6.564   0.870  0.1988 -2.5446  1.6133
 1367SOL     vw 5468   0.195   6.609   0.936  0.4520  0.3188 -0.0477
 1368SOL     ow 5469   5.064   1.850   5.500 -0.5618 -0.6693 -0.0963
 1368SOL     hw 5470   5.131   1.852   5.568 -2.0479  0.1587  1.4142
 1368SOL     hw 5471   4.981   1.850   5.548 -1.6642 -1.6816 -1.8964
 1368SOL     vw 5472   5.062   1.850   5.515 -0.9034 -0.6937 -0.1345
 1369SOL     ow 5473   2.570   2.174   3.086  0.8090  0.6149  0.0478
 1369SOL     hw 5474   2.479   2.202   3.075  0.9356  0.7395 -0.7163
 1369SOL     hw 5475   2.563   2.083   3.115  0.4276  0.9000  0.8790
 1369SOL     vw 5476   2.557   2.166   3.088  0.7753  0.6689  0.0566
 1370SOL     ow 5477   5.599   5.967   6.486  0.7782 -0.0380 -0.2728
 1370SOL     hw 5478   5.521   5.955   6.540  1.4710  0.2331  0.8110
 1370SOL     hw 5479   5.619   6.060   6.493  1.2067 -0.1051 -0.5539
 1370SOL     vw 5480   5.591   5.978   6.494  0.9260 -0.0110 -0.1669
 1371SOL     ow 5481   6.289   3.218   4.960 -0.4851  0.1065 -0.2084
 1371SOL     hw 5482   6.268   3.309   4.939 -0.9443  0.3235  1.0955
 1371SOL     hw 5483   6.385   3.214   4.959 -0.4715  0.4683 -0.7503
 1371SOL     vw 5484   6.299   3.229   4.957 -0.5436  0.1829 -0.1078
 1372SOL     ow 5485   4.374   5.758   2.312 -0.7743  0.5627  0.2660
 1372SOL     hw 5486   4.319   5.720   2.380  0.0943  0.5926  1.0021
 1372SOL     hw 5487   4.457   5.776   2.355 -0.7372  2.1347 -0.3824
 1372SOL     vw 5488   4.378   5.755   2.327 -0.6549  0.7741  0.2776
 1373SOL     ow 5489   6.778   0.474   0.920 -0.2780 -0.1395  1.2373
 1373SOL     hw 5490   6.815   0.396   0.961  1.1379 -0.1427  0.0334
 1373SOL     hw 5491   6.781   0.541   0.989  2.0502 -0.1394  1.1992
 1373SOL     vw 5492   6.783   0.472   0.935  0.2160 -0.1399  1.0735
 1374SOL     ow 5493   1.795   0.117   5.683  0.4525 -0.3224  0.1735
 1374SOL     hw 5494   1.839   0.129   5.767  2.0409  1.1369 -0.8045
 1374SOL     hw 5495   1.825   0.031   5.653  2.5375  0.5004 -0.3236
 1374SOL     vw 5496   1.805   0.107   5.690  0.9372 -0.0213 -0.0212
 1375SOL     ow 5497   0.640   1.866   0.305  0.1577 -0.1955  0.1382
 1375SOL     hw 5498   0.648   1.938   0.367  0.5923  0.5742 -0.7817
 1375SOL     hw 5499   0.623   1.789   0.359 -0.9283  0.6820  1.1147
 1375SOL     vw 5500   0.639   1.865   0.320  0.0717  0.0218  0.1457
 1376SOL     ow 5501   6.133   0.894   3.067 -0.2280 -0.4855  0.1563
 1376SOL     hw 5502   6.102   0.984   3.054  1.4465  0.3817  1.6813
 1376SOL     hw 5503   6.155   0.863   2.979  0.8530  1.2835 -0.2500
 1376SOL     vw 5504   6.132   0.902   3.054  0.1357 -0.1377  0.3040
 1377SOL     ow 5505   4.254   2.513   2.153 -0.2885  0.1371 -0.1219
 1377SOL     hw 5506   4.294   2.600   2.150 -1.8621  0.8629 -1.7427
 1377SOL     hw 5507   4.315   2.461   2.205  1.5977  1.7300 -0.6182
 1377SOL     vw 5508   4.267   2.518   2.160 -0.2475  0.4431 -0.4013
 1378SOL     ow 5509   7.247   2.239   4.057 -0.7525  0.9000 -0.0586
 1378SOL     hw 5510   7.321   2.244   4.118 -0.6413  2.0976 -0.2574
 1378SOL     hw 5511   7.243   2.327   4.018 -0.8454  0.1700 -1.7630
 1378SOL     vw 5512   7.256   2.251   4.060 -0.7501  0.9618 -0.3097
 1379SOL     ow 5513   3.840   5.036   6.946  0.1322  0.4883 -0.3315
 1379SOL     hw 5514   3.817   5.007   7.034  0.1859 -3.3914 -1.4060
 1379SOL     hw 5515   3.925   5.078   6.956 -1.1444  2.8480  1.7694
 1379SOL     vw 5516   3.848   5.038   6.959 -0.0292  0.2878 -0.1960
 1380SOL     ow 5517   5.091   4.075   4.192 -0.5574 -0.9044  0.4667
 1380SOL     hw 5518   5.164   4.054   4.134  0.4141  2.2446  0.3713
 1380SOL     hw 5519   5.096   4.009   4.262  1.2550 -1.8193 -0.4534
 1380SOL     vw 5520   5.101   4.063   4.194 -0.1900 -0.6096  0.3326
 1381SOL     ow 5521   5.840   5.109   6.382  0.2700  0.0093  0.5309
 1381SOL     hw 5522   5.866   5.144   6.297  0.9863  1.9261  1.4645
 1381SOL     hw 5523   5.898   5.035   6.396 -0.4810 -0.9264 -1.0178
 1381SOL     vw 5524   5.851   5.104   6.373  0.2651  0.1388  0.4499
 1382SOL     ow 5525   2.621   0.372   2.542  0.7772 -0.1071  0.1652
 1382SOL     hw 5526   2.568   0.447   2.517  2.8119  0.7978 -1.8747
 1382SOL     hw 5527   2.560   0.299   2.546 -0.6473  0.8547 -2.1180
 1382SOL     vw 5528   2.606   0.372   2.539  0.8577  0.1392 -0.4052
 1383SOL     ow 5529   4.134   4.373   4.740 -0.0297  0.5199  0.1369
 1383SOL     hw 5530   4.170   4.442   4.685  0.9766 -0.9109 -1.1040
 1383SOL     hw 5531   4.150   4.292   4.691 -2.5208 -0.4875  0.8242
 1383SOL     vw 5532   4.141   4.371   4.726 -0.2253  0.1984  0.0639
 1384SOL     ow 5533   4.775   4.876   1.848 -0.3925 -0.5783 -0.3100
 1384SOL     hw 5534   4.861   4.887   1.887 -1.0195  1.5266  0.5900
 1384SOL     hw 5535   4.766   4.781   1.836  2.0099 -0.8470 -0.4199
 1384SOL     vw 5536   4.785   4.865   1.851 -0.1583 -0.3359 -0.2058
 1385SOL     ow 5537   4.211   5.344   4.716  0.2242  0.0334  0.6753
 1385SOL     hw 5538   4.288   5.389   4.752  1.5292 -2.2186  0.9058
 1385SOL     hw 5539   4.196   5.385   4.632  0.6893  1.5814  1.3154
 1385SOL     vw 5540   4.220   5.355   4.710  0.4580 -0.0596  0.7904
 1386SOL     ow 5541   1.071   4.858   2.581 -0.7231 -0.0892  0.1372
 1386SOL     hw 5542   1.081   4.940   2.629  0.8758  0.2430 -0.6975
 1386SOL     hw 5543   1.119   4.794   2.633  0.6800  0.1910 -0.7551
 1386SOL     vw 5544   1.078   4.860   2.594 -0.3271 -0.0083 -0.0906
 1387SOL     ow 5545   5.183   6.445   3.273 -0.1786 -0.0568  0.4436
 1387SOL     hw 5546   5.129   6.453   3.194  0.5266 -1.8016 -0.2559
 1387SOL     hw 5547   5.236   6.525   3.273 -0.6256  0.2585 -0.5128
 1387SOL     vw 5548   5.183   6.457   3.263 -0.1445 -0.2451  0.2252
 1388SOL     ow 5549   3.343   5.079   2.187 -0.0129  0.5606  0.1426
 1388SOL     hw 5550   3.287   5.004   2.208 -2.0887  1.7527 -0.7244
 1388SOL     hw 5551   3.356   5.124   2.270 -0.1787  0.1429  0.3928
 1388SOL     vw 5552   3.337   5.075   2.200 -0.3086  0.6628  0.0610
 1389SOL     ow 5553   0.859   6.713   3.653 -0.0001 -0.2485  0.8764
 1389SOL     hw 5554   0.786   6.658   3.624  0.1408 -0.7536  1.4772
 1389SOL     hw 5555   0.829   6.750   3.737  0.4919 -0.5740  1.1978
 1389SOL     vw 5556   0.845   6.711   3.660  0.0834 -0.3581  0.9981
 1390SOL     ow 5557   2.899   3.547   6.939  0.1049  0.2069  0.1042
 1390SOL     hw 5558   2.809   3.520   6.957  0.5649 -2.2835 -0.9659
 1390SOL     hw 5559   2.898   3.574   6.847  0.1551  1.8295  0.5374
 1390SOL     vw 5560   2.887   3.547   6.929  0.1723  0.0925  0.0200
 1391SOL     ow 5561   0.826   5.325   1.574  0.1446 -0.5786  0.0270
 1391SOL     hw 5562   0.817   5.398   1.514 -3.4529 -1.9615 -1.4219
 1391SOL     hw 5563   0.905   5.344   1.624 -0.2066  3.8763 -0.7091
 1391SOL     vw 5564   0.835   5.337   1.572 -0.3764 -0.1733 -0.2613
 1392SOL     ow 5565   4.016   4.884   3.032 -0.1036  0.5536 -0.5848
 1392SOL     hw 5566   3.996   4.802   3.077  1.1705  0.9483  0.7933
 1392SOL     hw 5567   4.107   4.874   3.003  0.3379  1.7303  0.2762
 1392SOL     vw 5568   4.026   4.872   3.034  0.1228  0.7610 -0.2894
 1393SOL     ow 5569   5.088   5.959   0.670 -0.0705  0.2045 -0.1035
 1393SOL     hw 5570   5.047   5.912   0.597 -1.9524  0.0620  0.9651
 1393SOL     hw 5571   5.148   5.895   0.708 -0.6625 -0.4626 -0.2600
 1393SOL     vw 5572   5.090   5.944   0.665 -0.3972  0.0978  0.0169
 1394SOL     ow 5573   4.676   3.694   6.721 -0.5038 -0.3899  0.1150
 1394SOL     hw 5574   4.646   3.646   6.644 -2.3846  0.5838  0.1919
 1394SOL     hw 5575   4.744   3.752   6.687  0.8678 -2.1113 -0.2069
 1394SOL     vw 5576   4.681   3.696   6.707 -0.5710 -0.4885  0.0825
 1395SOL     ow 5577   6.553   1.350   4.317  0.5479  0.0929  0.2248
 1395SOL     hw 5578   6.474   1.378   4.363  0.0162 -0.5572 -0.2760
 1395SOL     hw 5579   6.624   1.370   4.378  0.0399  1.0133  0.5392
 1395SOL     vw 5580   6.552   1.356   4.331  0.4108  0.1285  0.2003
 1396SOL     ow 5581   6.383   5.665   3.289 -0.4049 -0.2532 -0.1014
 1396SOL     hw 5582   6.313   5.622   3.338 -0.5674 -0.0933 -0.1913
 1396SOL     hw 5583   6.420   5.595   3.235 -1.9021  0.0887 -1.6633
 1396SOL     vw 5584   6.379   5.650   3.288 -0.6237 -0.1872 -0.3192
 1397SOL     ow 5585   0.267   0.104   2.077  0.0362 -0.0988  0.7356
 1397SOL     hw 5586   0.301   0.065   1.996 -0.1817  2.6395 -0.7763
 1397SOL     hw 5587   0.343   0.109   2.135  0.4461 -1.0095  0.2996
 1397SOL     vw 5588   0.282   0.099   2.074  0.0615  0.1423  0.4787
 1398SOL     ow 5589   3.137   2.564   7.169 -0.0472  0.1489  0.0021
 1398SOL     hw 5590   3.157   2.545   7.077  0.4565  2.1682 -0.3620
 1398SOL     hw 5591   3.221   2.590   7.206  0.5158 -3.8198  2.0239
 1398SOL     vw 5592   3.151   2.565   7.162  0.0936 -0.1082  0.2205
 1399SOL     ow 5593   5.262   2.008   5.302  0.2269  0.8794  0.1444
 1399SOL     hw 5594   5.224   2.090   5.273  0.5853  1.1247  0.3514
 1399SOL     hw 5595   5.354   2.013   5.275  0.1192  0.2926 -0.3643
 1399SOL     vw 5596   5.269   2.019   5.295  0.2601  0.8342  0.1047
 1400SOL     ow 5597   3.183   2.519   3.573  0.5903  0.0065  0.2054
 1400SOL     hw 5598   3.102   2.476   3.544  0.6576  0.5449 -0.8159
 1400SOL     hw 5599   3.205   2.475   3.655 -0.9318  0.1002  0.6913
 1400SOL     vw 5600   3.175   2.507   3.580  0.3984  0.0899  0.1348
 1401SOL     ow 5601   2.835   1.060   2.536 -0.1119  0.0010 -0.2873
 1401SOL     hw 5602   2.827   1.108   2.618  1.0243 -0.4392  0.0933
 1401SOL     hw 5603   2.766   0.995   2.539 -0.2262  0.1462  0.2066
 1401SOL     vw 5604   2.825   1.058   2.547  0.0229 -0.0379 -0.1719
 1402SOL     ow 5605   6.222   3.252   3.900 -0.0085  0.3150 -0.3198
 1402SOL     hw 5606   6.157   3.317   3.929  0.8488  0.0637  2.4456
 1402SOL     hw 5607   6.305   3.283   3.936  0.0573 -3.6197  3.7869
 1402SOL     vw 5608   6.224   3.265   3.909  0.1132 -0.2372  0.5867
 1403SOL     ow 5609   5.074   3.395   0.536 -0.6597 -0.1602  0.2172
 1403SOL     hw 5610   5.037   3.468   0.485 -0.9407  0.3657  1.1404
 1403SOL     hw 5611   5.047   3.317   0.488  0.2627  0.3428 -1.2019
 1403SOL     vw 5612   5.065   3.394   0.523 -0.5751 -0.0243  0.1518
 1404SOL     ow 5613   0.986   4.758   3.811 -0.2455 -0.4965 -0.4306
 1404SOL     hw 5614   0.902   4.755   3.765 -0.1873  1.6069 -0.7686
 1404SOL     hw 5615   1.045   4.803   3.750  1.0017 -1.4435  0.0275
 1404SOL     vw 5616   0.983   4.764   3.797 -0.0733 -0.3438 -0.4148
 1405SOL     ow 5617   1.094   3.202   0.688 -0.8469 -0.1432  0.0233
 1405SOL     hw 5618   1.011   3.244   0.712 -1.3140 -0.7100 -0.5449
 1405SOL     hw 5619   1.079   3.109   0.705 -0.3685 -0.2603 -0.1984
 1405SOL     vw 5620   1.081   3.195   0.693 -0.8455 -0.2335 -0.0809
 1406SOL     ow 5621   3.557   4.335   1.197 -0.0818 -0.2064  0.0155
 1406SOL     hw 5622   3.603   4.418   1.188 -0.0484 -0.3569 -1.3466
 1406SOL     hw 5623   3.562   4.294   1.111  1.2557 -2.3579  1.0231
 1406SOL     vw 5624   3.563   4.341   1.185  0.0989 -0.5102 -0.0312
 1407SOL     ow 5625   2.683   4.634   1.034 -0.2988  0.4019 -0.4321
 1407SOL     hw 5626   2.722   4.612   1.119  0.4900  1.6042 -0.4598
 1407SOL     hw 5627   2.631   4.557   1.011  1.7429 -1.1343 -0.2034
 1407SOL     vw 5628   2.681   4.621   1.042  0.0746  0.3576 -0.4056
 1408SOL     ow 5629   2.420   5.784   4.042  0.3366  0.2831 -0.1352
 1408SOL     hw 5630   2.487   5.715   4.041  1.5160  1.3760  0.0510
 1408SOL     hw 5631   2.425   5.822   4.130  1.7774  2.4733 -1.0525
 1408SOL     vw 5632   2.430   5.780   4.053  0.6825  0.7162 -0.2315
 1409SOL     ow 5633   1.522   4.581   5.801 -0.7089  0.2053 -0.4618
 1409SOL     hw 5634   1.519   4.651   5.867  0.2924 -1.4764  1.4866
 1409SOL     hw 5635   1.614   4.576   5.775  0.3060 -3.2238  2.8759
 1409SOL     vw 5636   1.534   4.589   5.807 -0.4429 -0.4690  0.2356
 1410SOL     ow 5637   5.289   5.264   4.455 -0.6624 -0.1526  0.1077
 1410SOL     hw 5638   5.290   5.203   4.529 -1.0166 -0.4487 -0.1284
 1410SOL     hw 5639   5.350   5.226   4.392  1.0461  1.0280  0.9688
 1410SOL     vw 5640   5.297   5.251   4.457 -0.4838 -0.0358  0.1903
 1411SOL     ow 5641   1.792   2.093   6.277  0.5657  0.4350 -0.1451
 1411SOL     hw 5642   1.719   2.087   6.216  0.3610 -0.6041  0.1748
 1411SOL     hw 5643   1.836   2.175   6.255 -0.5716  0.9758 -0.4736
 1411SOL     vw 5644   1.788   2.103   6.266  0.3887  0.3693 -0.1464
 1412SOL     ow 5645   4.325   6.092   7.153 -0.0871  0.1335  0.2697
 1412SOL     hw 5646   4.373   6.012   7.174  0.0692  0.6028  1.7703
 1412SOL     hw 5647   4.243   6.062   7.113 -0.0980 -0.7692  0.9571
 1412SOL     vw 5648   4.321   6.077   7.150 -0.0677  0.0763  0.5586
 1413SOL     ow 5649   4.551   2.870   6.278 -0.0875  0.7742  0.8171
 1413SOL     hw 5650   4.642   2.872   6.308  0.3993 -1.8419 -0.2253
 1413SOL     hw 5651   4.519   2.783   6.304 -1.6684  0.8815 -0.5781
 1413SOL     vw 5652   4.559   2.858   6.286 -0.2317  0.4432  0.4954
 1414SOL     ow 5653   2.369   5.794   3.696  0.8877 -0.5618  0.1567
 1414SOL     hw 5654   2.462   5.787   3.677  0.4626  0.9661 -3.2271
 1414SOL     hw 5655   2.340   5.872   3.649 -1.7479  0.3325  2.8952
 1414SOL     vw 5656   2.377   5.803   3.687  0.4839 -0.2420  0.0715
 1415SOL     ow 5657   1.574   0.550   3.773  0.0394 -0.2377  0.8899
 1415SOL     hw 5658   1.511   0.520   3.838  0.4205 -3.5606 -0.0958
 1415SOL     hw 5659   1.599   0.471   3.726  0.7899  1.7730 -2.4246
 1415SOL     vw 5660   1.569   0.536   3.775  0.1888 -0.4108  0.3226
 1416SOL     ow 5661   2.606   6.609   5.345  0.1468  0.7479 -0.9051
 1416SOL     hw 5662   2.634   6.646   5.261  0.7903  1.0216 -0.5729
 1416SOL     hw 5663   2.531   6.555   5.322  1.1494 -0.3033 -1.8845
 1416SOL     vw 5664   2.600   6.607   5.331  0.3639  0.6454 -0.9904
 1417SOL     ow 5665   5.136   2.214   5.210 -0.2754  0.0025  0.9777
 1417SOL     hw 5666   5.128   2.226   5.305 -1.0490  0.0444  0.9138
 1417SOL     hw 5667   5.048   2.188   5.182  0.0068 -0.2487  0.3044
 1417SOL     vw 5668   5.123   2.212   5.219 -0.3402 -0.0250  0.8805
 1418SOL     ow 5669   1.433   1.928   5.457  0.2458  0.3435 -0.2636
 1418SOL     hw 5670   1.380   1.989   5.407  1.6016 -0.0518 -2.3225
 1418SOL     hw 5671   1.440   1.851   5.401  1.6736 -0.2120  0.6202
 1418SOL     vw 5672   1.427   1.926   5.443  0.6132  0.2181 -0.4189
 1419SOL     ow 5673   3.702   4.985   0.661  0.0642 -0.0979  0.2828
 1419SOL     hw 5674   3.769   4.929   0.701 -0.0798 -1.8418 -1.7532
 1419SOL     hw 5675   3.693   5.058   0.722  1.0539 -1.7263  2.5433
 1419SOL     vw 5676   3.709   4.987   0.675  0.1757 -0.5429  0.3125
 1420SOL     ow 5677   6.423   5.988   3.620  0.4105  0.3506  0.2943
 1420SOL     hw 5678   6.456   6.077   3.614  0.3006  0.3500 -0.3568
 1420SOL     hw 5679   6.483   5.944   3.680  1.0739  0.5882 -0.1871
 1420SOL     vw 5680   6.435   5.994   3.627  0.4835  0.3819  0.1448
 1421SOL     ow 5681   3.527   5.293   1.841 -0.3500 -0.0012  0.0615
 1421SOL     hw 5682   3.441   5.324   1.811  0.8912  2.3037 -1.4543
 1421SOL     hw 5683   3.560   5.241   1.768  0.5285  1.2174 -0.4389
 1421SOL     vw 5684   3.520   5.290   1.827 -0.0705  0.4635 -0.2046
 1422SOL     ow 5685   4.516   4.146   6.446  0.1761 -0.2215  0.6667
 1422SOL     hw 5686   4.547   4.148   6.536  0.2369  1.2424  0.6267
 1422SOL     hw 5687   4.426   4.112   6.452  0.1391 -0.0118  1.2771
 1422SOL     vw 5688   4.508   4.141   6.458  0.1791 -0.0007  0.7417
 1423SOL     ow 5689   3.938   3.950   2.876 -0.2253 -0.4223 -0.6109
 1423SOL     hw 5690   3.869   4.013   2.897  1.9389  1.2910  1.9670
 1423SOL     hw 5691   3.911   3.869   2.918 -0.7141  0.2345  0.3800
 1423SOL     vw 5692   3.926   3.948   2.884 -0.0043 -0.1097 -0.1401
 1424SOL     ow 5693   6.865   4.011   4.189 -0.7218 -0.3322  1.0044
 1424SOL     hw 5694   6.803   3.981   4.255  0.8075 -1.3398  2.0752
 1424SOL     hw 5695   6.937   3.948   4.194 -0.5911 -0.5236 -1.7488
 1424SOL     vw 5696   6.867   3.999   4.199 -0.5031 -0.4904  0.7825
 1425SOL     ow 5697   3.353   0.617   4.451 -0.8159 -0.5273 -0.6488
 1425SOL     hw 5698   3.281   0.604   4.514  0.2816 -0.7270  0.6148
 1425SOL     hw 5699   3.310   0.619   4.366 -2.2232 -1.6579 -0.0152
 1425SOL     vw 5700   3.337   0.616   4.448 -0.8568 -0.7028 -0.3984
 1426SOL     ow 5701   0.827   7.037   6.483 -0.2498  0.2213  0.2241
 1426SOL     hw 5702   0.893   7.011   6.419 -1.3247  1.3496 -1.4237
 1426SOL     hw 5703   0.851   6.989   6.563  0.9868 -1.4527 -1.0677
 1426SOL     vw 5704   0.839   7.027   6.485 -0.2284  0.1493 -0.1640
 1427SOL     ow 5705   3.197   0.952   0.266 -0.2295 -0.5148 -0.1771
 1427SOL     hw 5706   3.160   0.870   0.234  0.4559 -0.9307  0.0702
 1427SOL     hw 5707   3.145   0.975   0.343  0.7056 -1.6674  0.8213
 1427SOL     vw 5708   3.185   0.944   0.272 -0.0157 -0.7218 -0.0128
 1428SOL     ow 5709   6.577   3.778   7.130  0.4491  0.1532 -0.1617
 1428SOL     hw 5710   6.516   3.759   7.059 -0.6908  1.6678  0.3667
 1428SOL     hw 5711   6.617   3.693   7.150 -1.7795 -1.0033 -0.2792
 1428SOL     vw 5712   6.574   3.764   7.123  0.0045  0.2005 -0.1075
 1429SOL     ow 5713   6.366   5.224   4.023 -0.3937 -0.5942 -0.0214
 1429SOL     hw 5714   6.328   5.293   3.969  1.4180  1.2524  0.8843
 1429SOL     hw 5715   6.318   5.231   4.106  0.9284  0.8734  0.6826
 1429SOL     vw 5716   6.355   5.234   4.027  0.0196 -0.1569  0.1907
 1430SOL     ow 5717   1.594   2.891   7.242 -0.0290 -0.0449 -0.1487
 1430SOL     hw 5718   1.606   2.985   7.257 -1.0245  0.3123 -1.3894
 1430SOL     hw 5719   1.532   2.886   7.170  1.8870 -1.6297 -1.8263
 1430SOL     vw 5720   1.587   2.903   7.234  0.0924 -0.2069 -0.5338
 1431SOL     ow 5721   1.148   2.356   6.244 -0.1074  0.0604 -0.0415
 1431SOL     hw 5722   1.096   2.432   6.270  0.3472  0.3805 -0.0548
 1431SOL     hw 5723   1.089   2.281   6.255 -0.5809  0.4236 -0.1052
 1431SOL     vw 5724   1.134   2.356   6.249 -0.1099  0.1506 -0.0520
 1432SOL     ow 5725   1.514   1.407   3.206  0.3954  0.2754  0.3768
 1432SOL     hw 5726   1.565   1.363   3.138  0.1582  0.4665  0.0748
 1432SOL     hw 5727   1.427   1.367   3.202  0.7591 -0.6805  1.4891
 1432SOL     vw 5728   1.509   1.396   3.197  0.4121  0.1745  0.4836
 1433SOL     ow 5729   1.148   0.521   0.310 -0.0493  0.1643 -0.5016
 1433SOL     hw 5730   1.112   0.573   0.381 -1.7284 -0.4508 -0.8660
 1433SOL     hw 5731   1.239   0.551   0.302 -0.0113  0.7026  1.4431
 1433SOL     vw 5732   1.156   0.532   0.318 -0.2658  0.1541 -0.2931
 1434SOL     ow 5733   1.811   2.237   1.094  0.0950 -0.5345 -0.1127
 1434SOL     hw 5734   1.808   2.167   1.160 -2.1396  1.1331  1.7497
 1434SOL     hw 5735   1.766   2.200   1.018  0.9665 -1.8492 -0.0171
 1434SOL     vw 5736   1.804   2.223   1.093 -0.0849 -0.4878  0.1456
 1435SOL     ow 5737   2.570   1.759   6.530 -0.0698 -0.5432 -0.5497
 1435SOL     hw 5738   2.641   1.694   6.533  0.3668 -0.0709 -0.4619
 1435SOL     hw 5739   2.539   1.764   6.620 -0.1813 -0.7122 -0.5777
 1435SOL     vw 5740   2.576   1.751   6.542 -0.0269 -0.5032 -0.5414
 1436SOL     ow 5741   3.877   5.890   2.672  0.6909  0.3759  0.3097
 1436SOL     hw 5742   3.883   5.915   2.580  0.6657 -1.3155 -0.1814
 1436SOL     hw 5743   3.961   5.919   2.710  1.1788  0.0763 -0.5091
 1436SOL     vw 5744   3.889   5.897   2.665  0.7520  0.1132  0.1367
 1437SOL     ow 5745   1.022   1.189   1.497 -0.1547 -0.5932  0.6204
 1437SOL     hw 5746   1.020   1.261   1.560  0.3808  2.3308 -2.4408
 1437SOL     hw 5747   0.931   1.180   1.467 -0.0603 -0.5035  0.2996
 1437SOL     vw 5748   1.009   1.197   1.501 -0.0716 -0.1956  0.1742
 1438SOL     ow 5749   7.221   1.534   5.718 -0.0462  0.7367 -0.2969
 1438SOL     hw 5750   7.192   1.571   5.801 -0.1153  0.8949 -0.3921
 1438SOL     hw 5751   7.317   1.530   5.726 -0.1379 -0.7943  0.4470
 1438SOL     vw 5752   7.230   1.538   5.730 -0.0672  0.5556 -0.2110
 1439SOL     ow 5753   7.188   4.824   6.632  0.4029  0.0026 -0.8008
 1439SOL     hw 5754   7.231   4.907   6.656  0.5966  0.0666 -1.3644
 1439SOL     hw 5755   7.099   4.849   6.607 -0.0249 -0.1432  0.4735
 1439SOL     vw 5756   7.182   4.838   6.632  0.3719 -0.0083 -0.7067
 1440SOL     ow 5757   0.343   4.116   5.050 -0.0461  1.2371  0.5100
 1440SOL     hw 5758   0.420   4.077   5.091  0.2963 -0.3643 -1.5506
 1440SOL     hw 5759   0.378   4.175   4.984 -0.5548  0.5327 -0.4110
 1440SOL     vw 5760   0.357   4.119   5.047 -0.0680  0.9327  0.1166
 1441SOL     ow 5761   6.870   2.101   2.402 -0.3648 -0.1834  0.0796
 1441SOL     hw 5762   6.864   2.010   2.430 -2.5916  0.4850  2.1764
 1441SOL     hw 5763   6.806   2.109   2.331 -0.4133 -0.1931  0.1215
 1441SOL     vw 5764   6.861   2.090   2.396 -0.6652 -0.0966  0.3618
 1442SOL     ow 5765   6.060   2.056   2.897 -0.8883 -0.6421  0.7411
 1442SOL     hw 5766   5.973   2.017   2.895 -1.3024  0.2645  0.4187
 1442SOL     hw 5767   6.074   2.080   2.989 -2.0242  1.4312  0.4265
 1442SOL     vw 5768   6.051   2.054   2.909 -1.0929 -0.2490  0.6570
 1443SOL     ow 5769   1.804   7.079   2.823 -0.4897 -0.3217  0.6012
 1443SOL     hw 5770   1.866   7.149   2.803 -1.1747 -0.2815 -1.6931
 1443SOL     hw 5771   1.720   7.112   2.790 -1.5613 -0.7913  2.6974
 1443SOL     vw 5772   1.801   7.093   2.816 -0.7215 -0.3784  0.5749
 1444SOL     ow 5773   4.213   7.170   1.467  0.1569 -1.2604  0.4370
 1444SOL     hw 5774   4.288   7.141   1.415  1.3555 -0.4409  1.6515
 1444SOL     hw 5775   4.210   7.264   1.454 -1.1044 -1.3522 -0.1180
 1444SOL     vw 5776   4.223   7.178   1.458  0.1490 -1.1642  0.5240
 1445SOL     ow 5777   1.901   0.582   3.359 -0.2407  0.2293  0.2383
 1445SOL     hw 5778   1.954   0.594   3.437  0.2317 -0.3045  0.0136
 1445SOL     hw 5779   1.811   0.599   3.387 -0.0403  0.3393  0.8201
 1445SOL     vw 5780   1.896   0.586   3.373 -0.1519  0.1734  0.2855
 1446SOL     ow 5781   6.609   2.020   0.265 -0.1898  0.2186 -0.0177
 1446SOL     hw 5782   6.677   1.997   0.202 -0.7632  0.1575 -0.6341
 1446SOL     hw 5783   6.631   2.109   0.292  0.6644 -0.1473  0.5160
 1446SOL     vw 5784   6.621   2.029   0.260 -0.1528  0.1622 -0.0286
 1447SOL     ow 5785   2.332   3.545   4.313 -0.8516 -0.1432  0.3259
 1447SOL     hw 5786   2.407   3.521   4.258 -0.7625 -3.4063  1.6014
 1447SOL     hw 5787   2.258   3.547   4.253 -0.5154 -2.0543 -0.2296
 1447SOL     vw 5788   2.332   3.542   4.298 -0.7955 -0.8258  0.4208
 1448SOL     ow 5789   5.058   2.030   6.412 -0.1626  0.1521  0.4129
 1448SOL     hw 5790   4.998   1.963   6.443  3.2327 -3.9382 -0.9516
 1448SOL     hw 5791   5.050   2.028   6.316  3.5660 -2.4293 -0.0698
 1448SOL     vw 5792   5.049   2.021   6.403  0.7770 -0.7281  0.1693
 1449SOL     ow 5793   0.801   6.672   1.755 -0.2302  0.1471  0.8496
 1449SOL     hw 5794   0.841   6.750   1.717  2.9623 -1.3423  0.7893
 1449SOL     hw 5795   0.715   6.667   1.714  0.4077  2.3117 -0.9783
 1449SOL     vw 5796   0.795   6.681   1.745  0.2752  0.2363  0.6005
 1450SOL     ow 5797   2.146   5.790   5.530 -0.5573 -0.3464  0.6953
 1450SOL     hw 5798   2.136   5.788   5.435  0.4097 -0.6491  0.5938
 1450SOL     hw 5799   2.065   5.830   5.562  0.3162  2.6128 -0.4664
 1450SOL     vw 5800   2.134   5.795   5.522 -0.3145  0.0041  0.5286
 1451SOL     ow 5801   0.313   6.320   6.314  0.5847  0.1707 -0.3144
 1451SOL     hw 5802   0.309   6.229   6.285  1.3739  0.4728 -1.4736
 1451SOL     hw 5803   0.347   6.367   6.238 -1.8166  1.7746 -0.4942
 1451SOL     vw 5804   0.317   6.314   6.300  0.3720  0.4222 -0.4909
 1452SOL     ow 5805   6.604   5.132   0.778  0.8580 -0.4081  0.1827
 1452SOL     hw 5806   6.693   5.156   0.755  0.1457  0.3333 -2.0710
 1452SOL     hw 5807   6.577   5.071   0.709 -0.4275 -0.4954  0.7305
 1452SOL     vw 5808   6.612   5.127   0.766  0.5941 -0.3219 -0.0424
 1453SOL     ow 5809   0.796   6.372   2.245 -0.3044  0.1681 -0.6754
 1453SOL     hw 5810   0.807   6.279   2.263  0.1121  0.7609  2.8070
 1453SOL     hw 5811   0.701   6.385   2.241 -0.5595  0.0567  2.5868
 1453SOL     vw 5812   0.785   6.361   2.247 -0.2831  0.2313  0.2146
 1454SOL     ow 5813   5.263   4.580   0.858  0.1451 -0.5554  0.0315
 1454SOL     hw 5814   5.212   4.661   0.855 -0.6882 -1.0290  0.9234
 1454SOL     hw 5815   5.201   4.511   0.832  0.8387 -0.9208 -0.7001
 1454SOL     vw 5816   5.248   4.581   0.854  0.1268 -0.6661  0.0527
 1455SOL     ow 5817   4.073   4.321   2.526  0.7282 -0.2953  0.2446
 1455SOL     hw 5818   4.093   4.390   2.462 -1.6637  0.8806  0.6799
 1455SOL     hw 5819   4.101   4.357   2.610  1.2472 -0.6719  0.2382
 1455SOL     vw 5820   4.080   4.335   2.528  0.4811 -0.1900  0.3012
 1456SOL     ow 5821   0.089   5.783   1.413 -0.0105 -0.7471  0.5696
 1456SOL     hw 5822  -0.002   5.752   1.413  0.2470 -1.5112  0.2575
 1456SOL     hw 5823   0.082   5.874   1.386 -0.7063 -0.7347  0.7537
 1456SOL     vw 5824   0.076   5.791   1.410 -0.0683 -0.8461  0.5527
 1457SOL     ow 5825   3.392   5.307   4.385  1.0202 -0.3275 -0.0705
 1457SOL     hw 5826   3.312   5.314   4.333  2.1387  4.1548 -1.5861
 1457SOL     hw 5827   3.456   5.267   4.326  1.1814  0.8380 -0.7091
 1457SOL     vw 5828   3.390   5.302   4.371  1.1890  0.4177 -0.3548
 1458SOL     ow 5829   4.400   6.921   5.755  0.4214 -0.9913  0.5417
 1458SOL     hw 5830   4.436   6.926   5.666  2.1531  1.2333  1.2931
 1458SOL     hw 5831   4.309   6.950   5.745  0.3553 -1.4967 -0.5754
 1458SOL     vw 5832   4.393   6.925   5.742  0.6411 -0.7646  0.4935
 1459SOL     ow 5833   1.136   6.828   0.417  0.4265 -0.1831  0.6400
 1459SOL     hw 5834   1.083   6.793   0.488  1.5281 -0.3484  1.4092
 1459SOL     hw 5835   1.195   6.756   0.394  1.9886  0.7556  1.5034
 1459SOL     vw 5836   1.137   6.814   0.423  0.7780 -0.0811  0.8554
 1460SOL     ow 5837   6.368   2.103   3.524 -0.0782  0.4225 -0.5150
 1460SOL     hw 5838   6.306   2.081   3.593  0.2825 -3.9071 -1.2687
 1460SOL     hw 5839   6.454   2.093   3.564  0.1190 -0.1990 -1.0681
 1460SOL     vw 5840   6.371   2.099   3.538 -0.0045 -0.2308 -0.6875
 1461SOL     ow 5841   6.298   5.838   5.859 -0.0173  0.1945 -0.4094
 1461SOL     hw 5842   6.307   5.761   5.914  0.0057  0.9337  0.6348
 1461SOL     hw 5843   6.338   5.909   5.909  0.6519  0.7516 -1.6798
 1461SOL     vw 5844   6.305   5.837   5.873  0.0737  0.3655 -0.4392
 1462SOL     ow 5845   2.745   3.725   0.299 -0.1755  0.4364 -0.2169
 1462SOL     hw 5846   2.690   3.749   0.224  0.7665 -0.9632 -1.4234
 1462SOL     hw 5847   2.825   3.775   0.286  0.6022 -0.9694 -1.0531
 1462SOL     vw 5848   2.748   3.735   0.287  0.0514  0.0664 -0.4864
 1463SOL     ow 5849   4.014   1.108   2.052 -0.1495 -0.5382  0.1036
 1463SOL     hw 5850   4.034   1.065   2.135 -0.8568 -0.2753  0.4183
 1463SOL     hw 5851   4.099   1.120   2.010  0.3564  0.4574  1.3514
 1463SOL     vw 5852   4.028   1.104   2.058 -0.1760 -0.3721  0.3097
 1464SOL     ow 5853   2.426   1.533   0.696 -0.2448 -0.3378 -0.2888
 1464SOL     hw 5854   2.401   1.616   0.737 -0.9938 -0.2103 -0.9735
 1464SOL     hw 5855   2.486   1.492   0.759 -2.0354 -0.5709  1.3878
 1464SOL     vw 5856   2.431   1.538   0.710 -0.5798 -0.3517 -0.1579
 1465SOL     ow 5857   3.711   3.554   4.248  0.3965 -0.0199  0.1770
 1465SOL     hw 5858   3.720   3.553   4.153  3.4099  1.0261  0.3464
 1465SOL     hw 5859   3.724   3.646   4.273 -1.8524  0.0171  1.5791
 1465SOL     vw 5860   3.714   3.566   4.239  0.4972  0.1229  0.3843
 1466SOL     ow 5861   1.466   1.856   6.391  0.0859  0.2787 -0.7528
 1466SOL     hw 5862   1.420   1.837   6.309 -0.3122  0.0700 -0.4837
 1466SOL     hw 5863   1.402   1.838   6.459  0.9205 -1.1913 -0.3066
 1466SOL     vw 5864   1.452   1.851   6.389  0.1436  0.0573 -0.6583
 1467SOL     ow 5865   4.096   5.080   4.596  0.1541  0.0290  0.6674
 1467SOL     hw 5866   4.191   5.086   4.590  0.3905 -1.2504  2.3238
 1467SOL     hw 5867   4.070   5.160   4.642  0.5936 -0.2723  1.4536
 1467SOL     vw 5868   4.105   5.091   4.601  0.2432 -0.1795  0.9897
 1468SOL     ow 5869   4.941   6.743   7.120  0.0247 -0.2508 -0.0179
 1468SOL     hw 5870   4.860   6.791   7.132  0.0911 -0.2335  0.3696
 1468SOL     hw 5871   4.914   6.657   7.088 -0.0195  0.5381 -2.2971
 1468SOL     vw 5872   4.927   6.738   7.117  0.0277 -0.1447 -0.2673
 1469SOL     ow 5873   5.011   0.214   1.709 -0.6099  0.1116  0.1635
 1469SOL     hw 5874   5.066   0.236   1.784 -0.8704  0.6692  0.1981
 1469SOL     hw 5875   4.936   0.168   1.747  1.1307 -3.2731 -0.1329
 1469SOL     vw 5876   5.008   0.211   1.724 -0.4146 -0.2614  0.1289
 1470SOL     ow 5877   6.974   2.217   3.934  0.0579 -0.5924  0.0426
 1470SOL     hw 5878   6.922   2.289   3.970 -0.8926 -1.6607  0.9089
 1470SOL     hw 5879   6.951   2.215   3.842 -1.2838 -0.8828  0.3598
 1470SOL     vw 5880   6.964   2.226   3.927 -0.2446 -0.7718  0.1987
 1471SOL     ow 5881   2.452   5.470   3.508  0.2589 -0.3897  0.1924
 1471SOL     hw 5882   2.507   5.411   3.558 -0.3268  1.0756  2.7860
 1471SOL     hw 5883   2.510   5.508   3.442  0.6964 -3.5098 -1.3641
 1471SOL     vw 5884   2.467   5.468   3.506  0.2394 -0.6080  0.3293
 1472SOL     ow 5885   3.393   5.688   0.694 -0.1809 -0.3124 -0.3216
 1472SOL     hw 5886   3.474   5.704   0.743  0.0389  0.2180 -0.8485
 1472SOL     hw 5887   3.370   5.597   0.715  0.3671 -0.3570  0.0984
 1472SOL     vw 5888   3.401   5.678   0.703 -0.0798 -0.2480 -0.3356
 1473SOL     ow 5889   2.185   6.959   4.137 -0.7863  0.1891  0.2796
 1473SOL     hw 5890   2.186   6.901   4.061 -0.6222 -1.4589  1.4869
 1473SOL     hw 5891   2.254   7.023   4.119  0.3214 -1.1084 -0.2821
 1473SOL     vw 5892   2.194   6.960   4.124 -0.6185 -0.1993  0.3648
 1474SOL     ow 5893   5.918   0.057   0.494 -0.4206  0.5003  0.4754
 1474SOL     hw 5894   5.853   0.101   0.439  0.5329  0.0854 -1.0546
 1474SOL     hw 5895   5.891   0.077   0.584 -3.7904 -1.2305  0.0261
 1474SOL     vw 5896   5.905   0.066   0.499 -0.7396  0.2172  0.2143
 1475SOL     ow 5897   0.386   0.438   1.018  0.3077  0.4915 -0.1800
 1475SOL     hw 5898   0.407   0.530   0.999  1.7505  0.0860 -0.7398
 1475SOL     hw 5899   0.299   0.440   1.056 -0.5454  1.9033 -2.0319
 1475SOL     vw 5900   0.378   0.450   1.020  0.3855  0.6243 -0.4982
 1476SOL     ow 5901   4.022   2.236   3.102 -0.2699 -0.1876 -0.6308
 1476SOL     hw 5902   3.929   2.242   3.082 -0.3566 -0.5841 -0.3480
 1476SOL     hw 5903   4.064   2.296   3.040 -0.7240  0.0978 -0.6633
 1476SOL     vw 5904   4.016   2.245   3.091 -0.3412 -0.2022 -0.5977
 1477SOL     ow 5905   0.841   5.703   4.696  0.7575 -0.0516 -0.7125
 1477SOL     hw 5906   0.800   5.789   4.704  0.0248 -0.2074 -2.3248
 1477SOL     hw 5907   0.774   5.648   4.656  1.0846 -1.5000  0.6301
 1477SOL     vw 5908   0.827   5.707   4.691  0.7040 -0.2637 -0.7482
 1478SOL     ow 5909   5.007   3.265   1.531  0.5981  0.1398 -0.4408
 1478SOL     hw 5910   4.939   3.217   1.484 -0.3949 -0.3351  1.3949
 1478SOL     hw 5911   5.069   3.197   1.558 -0.0855  0.0509  0.9649
 1478SOL     vw 5912   5.006   3.249   1.528  0.3769  0.0653 -0.0131
 1479SOL     ow 5913   5.020   6.982   3.672  0.0026  0.6195 -1.0101
 1479SOL     hw 5914   5.059   6.932   3.744  1.7042  2.6322 -0.4156
 1479SOL     hw 5915   5.036   7.074   3.696 -3.4146  1.5535 -1.7803
 1479SOL     vw 5916   5.028   6.988   3.685 -0.2236  1.0085 -1.0333
 1480SOL     ow 5917   6.652   0.950   6.802 -0.4546  0.0013  0.7800
 1480SOL     hw 5918   6.568   0.983   6.771 -0.5350 -2.2072 -1.6766
 1480SOL     hw 5919   6.698   1.028   6.835 -2.6201  1.5795  0.2597
 1480SOL     vw 5920   6.647   0.965   6.803 -0.7510 -0.0819  0.3872
 1481SOL     ow 5921   0.110   0.925   4.093  0.5375  0.4574 -0.5784
 1481SOL     hw 5922   0.198   0.944   4.062  2.2852 -6.8042 -1.8780
 1481SOL     hw 5923   0.056   0.929   4.014  1.3881 -1.8471 -1.3471
 1481SOL     vw 5924   0.114   0.928   4.079  0.8803 -0.8048 -0.8512
 1482SOL     ow 5925   1.561   3.348   5.787  0.4655  0.2828 -0.0754
 1482SOL     hw 5926   1.498   3.346   5.716 -0.2645 -0.0120  0.5658
 1482SOL     hw 5927   1.641   3.309   5.751  0.1226  0.1927 -0.7380
 1482SOL     vw 5928   1.563   3.343   5.773  0.3240  0.2319 -0.0782
 1483SOL     ow 5929   0.960   4.375   1.776 -0.1820 -0.0237  0.3306
 1483SOL     hw 5930   0.873   4.373   1.814  0.6875 -1.3256  2.4256
 1483SOL     hw 5931   0.959   4.307   1.709 -0.5800 -0.4808  0.8008
 1483SOL     vw 5932   0.949   4.366   1.772 -0.1198 -0.2556  0.6691
 1484SOL     ow 5933   3.727   6.164   3.766 -0.0146  0.8795  0.0187
 1484SOL     hw 5934   3.658   6.183   3.830 -0.8465 -0.3382 -0.4962
 1484SOL     hw 5935   3.752   6.074   3.783 -1.1631  0.0839 -2.1740
 1484SOL     vw 5936   3.721   6.155   3.777 -0.2759  0.6139 -0.3386
 1485SOL     ow 5937   1.437   5.955   3.975 -0.0882  0.0833 -0.0785
 1485SOL     hw 5938   1.417   6.042   4.009 -0.8591 -0.4417  0.8922
 1485SOL     hw 5939   1.364   5.901   4.005 -0.2227 -0.6577 -1.6757
 1485SOL     vw 5940   1.425   5.959   3.983 -0.2077 -0.0837 -0.1611
 1486SOL     ow 5941   1.246   0.729   6.694 -0.0983  0.2962 -0.1636
 1486SOL     hw 5942   1.155   0.740   6.723  0.3251  3.1909  0.3715
 1486SOL     hw 5943   1.269   0.814   6.657  1.9336 -0.8612 -1.7486
 1486SOL     vw 5944   1.237   0.742   6.693  0.2256  0.5254 -0.3021
 1487SOL     ow 5945   1.580   2.794   4.329  0.5383 -0.1269  0.6502
 1487SOL     hw 5946   1.554   2.706   4.357  2.1767 -0.4876  1.1450
 1487SOL     hw 5947   1.676   2.791   4.327  0.5893  1.1314 -1.0396
 1487SOL     vw 5948   1.589   2.782   4.333  0.7612 -0.0083  0.4926
 1488SOL     ow 5949   0.651   7.201   6.330  0.4388 -0.1832  0.0894
 1488SOL     hw 5950   0.657   7.143   6.255 -0.7067 -1.4157  0.8896
 1488SOL     hw 5951   0.565   7.243   6.321  0.3790 -0.1878  0.6063
 1488SOL     vw 5952   0.640   7.199   6.319  0.2798 -0.3464  0.2632
 1489SOL     ow 5953   3.550   5.670   2.205 -0.3271 -0.4530  1.6464
 1489SOL     hw 5954   3.574   5.763   2.206 -0.7766 -0.3385  2.1725
 1489SOL     hw 5955   3.458   5.669   2.232 -1.1920 -0.8200 -1.0256
 1489SOL     vw 5956   3.541   5.683   2.208 -0.5004 -0.4864  1.3635
 1490SOL     ow 5957   1.740   0.798   5.244  0.1932 -0.6135 -0.1553
 1490SOL     hw 5958   1.749   0.763   5.155  2.3758  0.0625 -0.2698
 1490SOL     hw 5959   1.647   0.788   5.265 -0.3246 -1.0250 -2.4055
 1490SOL     vw 5960   1.729   0.792   5.235  0.4129 -0.5786 -0.4675
 1491SOL     ow 5961   6.067   7.251   2.014  0.0960 -0.0755 -0.3051
 1491SOL     hw 5962   6.066   7.245   1.919  1.5121 -0.6376 -0.2961
 1491SOL     hw 5963   6.158   7.267   2.037 -0.1807 -0.1912  0.9814
 1491SOL     vw 5964   6.079   7.253   2.005  0.2465 -0.1647 -0.1341
 1492SOL     ow 5965   6.148   6.073   3.303 -0.7890  0.0548  0.1561
 1492SOL     hw 5966   6.098   6.019   3.241  0.1048 -1.2759  0.5572
 1492SOL     hw 5967   6.085   6.139   3.334 -1.7148 -0.3244 -0.8664
 1492SOL     vw 5968   6.133   6.075   3.299 -0.7930 -0.1709  0.0741
 1493SOL     ow 5969   0.028   5.709   4.090 -0.0806 -0.7889  0.2011
 1493SOL     hw 5970  -0.053   5.746   4.125  1.0136  1.3800  0.6345
 1493SOL     hw 5971   0.001   5.658   4.014 -1.8161  0.0345  0.2255
 1493SOL     vw 5972   0.014   5.707   4.085 -0.1652 -0.3943  0.2613
 1494SOL     ow 5973   1.543   4.308   1.016  0.6051 -0.0747 -0.2179
 1494SOL     hw 5974   1.541   4.403   1.027  0.6784 -0.3055  2.3583
 1494SOL     hw 5975   1.463   4.277   1.059  0.7240 -1.2095 -0.7806
 1494SOL     vw 5976   1.532   4.317   1.023  0.6305 -0.2546  0.0477
 1495SOL     ow 5977   0.190   7.043   1.295 -0.1425  0.3757  0.0555
 1495SOL     hw 5978   0.243   7.079   1.367 -0.0359 -0.0209  0.1792
 1495SOL     hw 5979   0.233   6.961   1.273 -0.4679  0.2530 -0.1260
 1495SOL     vw 5980   0.202   7.037   1.302 -0.1714  0.3071  0.0479
 1496SOL     ow 5981   4.277   5.146   2.083  0.2141  0.5037  0.1182
 1496SOL     hw 5982   4.277   5.065   2.135  1.3033  0.7724  0.5738
 1496SOL     hw 5983   4.226   5.208   2.135  2.0355  1.0400  1.3598
 1496SOL     vw 5984   4.270   5.143   2.097  0.5984  0.6096  0.3421
 1497SOL     ow 5985   1.552   6.256   5.069 -0.0207 -0.7462 -0.8641
 1497SOL     hw 5986   1.639   6.238   5.104 -0.1632 -1.7348 -0.9797
 1497SOL     hw 5987   1.566   6.325   5.004  0.4461  0.1140  0.1277
 1497SOL     vw 5988   1.566   6.263   5.065  0.0221 -0.7632 -0.7486
 1498SOL     ow 5989   2.383   2.616   2.206 -0.0795 -0.1395 -0.4282
 1498SOL     hw 5990   2.444   2.644   2.137 -0.8832  0.6753 -0.8324
 1498SOL     hw 5991   2.343   2.537   2.171 -0.0501 -0.0651 -0.6355
 1498SOL     vw 5992   2.386   2.610   2.192 -0.1817 -0.0222 -0.5089
 1499SOL     ow 5993   6.953   3.095   5.506 -0.3387 -0.2821  0.2079
 1499SOL     hw 5994   6.983   3.181   5.536 -1.1422  0.5274 -1.1698
 1499SOL     hw 5995   7.011   3.033   5.549  1.6064  1.0545 -0.3241
 1499SOL     vw 5996   6.964   3.098   5.516 -0.1881  0.0011 -0.0439
 1500SOL     ow 5997   2.342   0.194   0.341  0.6599  1.0304  0.8200
 1500SOL     hw 5998   2.287   0.138   0.396  0.5821  2.5685  2.3620
 1500SOL     hw 5999   2.307   0.282   0.353  1.7588  1.6653 -0.3388
 1500SOL     vw 6000   2.330   0.198   0.350  0.7945  1.3171  0.8705
 1501SOL     ow 6001   5.836   3.740   4.661  0.4383  0.1979 -0.5593
 1501SOL     hw 6002   5.836   3.779   4.574  0.3260  2.2994  0.3276
 1501SOL     hw 6003   5.824   3.814   4.721  2.6467 -0.8788  1.3740
 1501SOL     vw 6004   5.834   3.755   4.657  0.7148  0.3331 -0.1874
 1502SOL     ow 6005   3.503   6.842   6.590  0.0132  0.0430 -0.4154
 1502SOL     hw 6006   3.593   6.860   6.616  0.1914  0.4546 -1.2953
 1502SOL     hw 6007   3.484   6.905   6.520 -1.8339  1.7101  1.4612
 1502SOL     vw 6008   3.512   6.852   6.584 -0.2069  0.3171 -0.2840
 1503SOL     ow 6009   3.048   0.525   2.893 -0.0537  0.2185 -0.0479
 1503SOL     hw 6010   2.988   0.570   2.953 -2.2439 -0.1997 -1.8264
 1503SOL     hw 6011   3.025   0.432   2.900  0.8954 -0.0478 -0.2427
 1503SOL     vw 6012   3.037   0.519   2.902 -0.2174  0.1282 -0.3084
 1504SOL     ow 6013   3.736   5.764   3.186 -0.2454  0.6687  0.3315
 1504SOL     hw 6014   3.713   5.703   3.256  0.7908  0.4703  0.5168
 1504SOL     hw 6015   3.814   5.810   3.218 -2.2281  3.7633  1.1832
 1504SOL     vw 6016   3.743   5.762   3.199 -0.3703  1.0509  0.4683
 1505SOL     ow 6017   6.683   3.256   0.304  0.4297 -0.2251  0.2510
 1505SOL     hw 6018   6.625   3.256   0.380 -2.1102 -0.6428 -1.5691
 1505SOL     hw 6019   6.694   3.348   0.282  1.1659 -0.1023  1.0481
 1505SOL     vw 6020   6.677   3.268   0.311  0.1917 -0.2640  0.1160
 1506SOL     ow 6021   5.628   3.376   5.226 -0.2151  0.0234 -0.6110
 1506SOL     hw 6022   5.668   3.457   5.194  0.9147 -0.9962 -1.8704
 1506SOL     hw 6023   5.702   3.322   5.253 -0.9809 -0.4802  0.5762
 1506SOL     vw 6024   5.643   3.380   5.225 -0.1671 -0.1776 -0.6206
 1507SOL     ow 6025   4.242   3.972   5.260 -0.3537  0.9010  0.0116
 1507SOL     hw 6026   4.258   4.040   5.194 -0.4961  2.6306  1.6849
 1507SOL     hw 6027   4.159   3.996   5.300 -0.4370 -0.3152  0.6186
 1507SOL     vw 6028   4.233   3.984   5.256 -0.3834  0.9687  0.3126
 1508SOL     ow 6029   7.191   2.490   0.190 -0.0304  0.1107 -0.4993
 1508SOL     hw 6030   7.177   2.399   0.162  0.1128 -0.6937  1.7600
 1508SOL     hw 6031   7.133   2.500   0.266  1.6728  1.1122  0.7341
 1508SOL     vw 6032   7.181   2.479   0.197  0.2131  0.1366 -0.0385
 1509SOL     ow 6033   4.124   4.239   3.680  0.0611 -0.2439 -0.1685
 1509SOL     hw 6034   4.163   4.166   3.632 -1.9176 -0.8599 -0.9491
 1509SOL     hw 6035   4.031   4.235   3.658 -0.3722  1.5016  1.1241
 1509SOL     vw 6036   4.117   4.229   3.670 -0.2573 -0.0949 -0.1010
 1510SOL     ow 6037   2.091   1.552   1.586 -0.3772 -0.2617 -0.1588
 1510SOL     hw 6038   2.023   1.489   1.560 -1.6447 -0.0904  2.4453
 1510SOL     hw 6039   2.046   1.636   1.589  0.6402  0.3231 -0.9889
 1510SOL     vw 6040   2.076   1.555   1.583 -0.4102 -0.1620  0.0753
 1511SOL     ow 6041   2.442   6.959   1.358  0.3965 -0.5583  0.3270
 1511SOL     hw 6042   2.456   6.895   1.288 -2.2086 -0.6737 -0.2206
 1511SOL     hw 6043   2.367   7.011   1.328 -0.5790 -0.3638  2.8381
 1511SOL     vw 6044   2.434   6.957   1.344 -0.0758 -0.5481  0.5860
 1512SOL     ow 6045   2.569   4.629   0.029  0.8158 -0.6522  0.2924
 1512SOL     hw 6046   2.649   4.668   0.064  1.5953 -2.6190  0.8111
 1512SOL     hw 6047   2.572   4.538   0.058 -1.6639 -0.7599  0.3904
 1512SOL     vw 6048   2.580   4.622   0.038  0.5915 -0.9258  0.3737
 1513SOL     ow 6049   1.763   4.218   1.210  0.3028  0.1819  0.2758
 1513SOL     hw 6050   1.843   4.166   1.214  0.0199 -0.5406 -2.0181
 1513SOL     hw 6051   1.729   4.216   1.300  1.1202 -2.2966  0.6181
 1513SOL     vw 6052   1.769   4.211   1.223  0.3732 -0.2401  0.0183
 1514SOL     ow 6053   3.028   3.349   3.562 -0.8903 -1.2836  0.0939
 1514SOL     hw 6054   3.007   3.349   3.656  1.8325  1.5199  0.8530
 1514SOL     hw 6055   3.057   3.439   3.544  0.9405 -2.3433 -2.8962
 1514SOL     vw 6056   3.029   3.361   3.572 -0.2894 -1.0536 -0.2005
 1515SOL     ow 6057   5.394   0.602   0.302 -0.1873  0.4315 -0.2531
 1515SOL     hw 6058   5.441   0.628   0.381 -2.0794  1.7903  0.5007
 1515SOL     hw 6059   5.305   0.633   0.316 -0.6119  0.6310 -2.8906
 1515SOL     vw 6060   5.388   0.610   0.314 -0.4930  0.6371 -0.5016
 1516SOL     ow 6061   5.199   4.936   5.816 -0.4141 -0.0068  0.1622
 1516SOL     hw 6062   5.150   5.005   5.773  0.9774  1.3858  0.7186
 1516SOL     hw 6063   5.192   4.861   5.757 -1.9898  0.5593 -0.4326
 1516SOL     vw 6064   5.191   4.935   5.803 -0.4385  0.2513  0.1571
 1517SOL     ow 6065   4.046   1.191   3.261  0.2831  0.9054 -0.0773
 1517SOL     hw 6066   4.068   1.242   3.183  1.4228 -0.3744 -0.6362
 1517SOL     hw 6067   3.952   1.207   3.274 -0.0843  0.6807 -2.1005
 1517SOL     vw 6068   4.036   1.200   3.252  0.3850  0.7069 -0.4179
 1518SOL     ow 6069   5.774   4.957   6.658 -0.4833  0.0414 -0.3396
 1518SOL     hw 6070   5.858   4.914   6.676  0.4268  1.4501 -1.0995
 1518SOL     hw 6071   5.736   4.970   6.745 -1.4894 -3.4846 -0.0781
 1518SOL     vw 6072   5.780   4.953   6.672 -0.4961 -0.2377 -0.4053
 1519SOL     ow 6073   2.484   3.912   3.608  0.3306 -0.6299  0.0827
 1519SOL     hw 6074   2.413   3.896   3.670  0.0832 -0.8716 -0.2563
 1519SOL     hw 6075   2.462   3.997   3.569  0.7693 -0.2240  0.7020
 1519SOL     vw 6076   2.472   3.921   3.611  0.3558 -0.6083  0.1197
 1520SOL     ow 6077   4.296   4.794   2.934 -0.2413 -1.1171 -0.4364
 1520SOL     hw 6078   4.359   4.760   2.997 -0.5814 -0.7231  0.1182
 1520SOL     hw 6079   4.347   4.851   2.877 -0.3296  0.2292  0.8082
 1520SOL     vw 6080   4.311   4.797   2.935 -0.2980 -0.8874 -0.1990
 1521SOL     ow 6081   5.434   3.899   1.515  0.2672  0.3362 -0.4001
 1521SOL     hw 6082   5.437   3.936   1.427 -0.8338  0.2525 -0.4799
 1521SOL     hw 6083   5.388   3.965   1.567 -1.5339 -0.7869 -0.4991
 1521SOL     vw 6084   5.429   3.912   1.510 -0.1156  0.1770 -0.4237
 1522SOL     ow 6085   6.531   3.851   2.723  0.2742 -1.2640  0.0767
 1522SOL     hw 6086   6.518   3.884   2.811 -0.2952  0.1407 -0.5060
 1522SOL     hw 6087   6.621   3.817   2.723  1.0544  0.6714  0.6140
 1522SOL     vw 6088   6.541   3.851   2.734  0.3023 -0.8233  0.0707
 1523SOL     ow 6089   1.852   5.270   6.029  0.0242  0.1224  0.4559
 1523SOL     hw 6090   1.865   5.224   6.111  0.6914 -0.0045  0.2874
 1523SOL     hw 6091   1.919   5.235   5.970 -1.4465 -0.9369 -0.6498
 1523SOL     vw 6092   1.863   5.259   6.032 -0.0818 -0.0339  0.2880
 1524SOL     ow 6093   6.528   5.828   0.639  0.0399  0.1105 -0.3003
 1524SOL     hw 6094   6.570   5.810   0.555  0.6150  0.4400 -0.0862
 1524SOL     hw 6095   6.480   5.909   0.625 -0.3468 -0.1455 -0.4785
 1524SOL     vw 6096   6.527   5.836   0.626  0.0648  0.1204 -0.2955
 1525SOL     ow 6097   6.312   5.373   2.159  0.1639  0.5925 -0.1267
 1525SOL     hw 6098   6.382   5.309   2.150  0.3620  0.6802  0.7016
 1525SOL     hw 6099   6.293   5.375   2.253 -3.6752 -2.3427 -0.5883
 1525SOL     vw 6100   6.318   5.365   2.171 -0.3166  0.2167 -0.0784
 1526SOL     ow 6101   2.300   2.208   5.330 -0.2922  0.1854 -0.2716
 1526SOL     hw 6102   2.222   2.223   5.276 -1.4497  5.2615  2.2127
 1526SOL     hw 6103   2.374   2.227   5.272 -1.0649 -0.5878 -1.5610
 1526SOL     vw 6104   2.300   2.212   5.315 -0.5469  0.7532 -0.1142
 1527SOL     ow 6105   0.810   6.099   2.364  0.3960 -0.4218  0.5449
 1527SOL     hw 6106   0.789   6.025   2.307  1.2237 -1.0109  0.9954
 1527SOL     hw 6107   0.728   6.118   2.409 -0.2453 -0.0288 -0.7274
 1527SOL     vw 6108   0.796   6.092   2.362  0.4206 -0.4480  0.4364
 1528SOL     ow 6109   4.529   1.024   5.399 -0.0311  0.2753  0.8431
 1528SOL     hw 6110   4.541   1.034   5.305 -1.1161  0.5005  0.7158
 1528SOL     hw 6111   4.496   1.108   5.429 -2.0866 -0.5329  0.9939
 1528SOL     vw 6112   4.526   1.036   5.391 -0.4451  0.1984  0.8461
 1529SOL     ow 6113   1.538   5.201   0.212 -0.2783 -0.3045 -0.4335
 1529SOL     hw 6114   1.542   5.203   0.308  0.5138  2.0346 -0.4506
 1529SOL     hw 6115   1.479   5.128   0.192 -0.0169 -1.2107  1.7993
 1529SOL     vw 6116   1.530   5.191   0.222 -0.1393 -0.1159 -0.1412
 1530SOL     ow 6117   5.046   5.970   1.399 -0.3699 -0.1703  0.1428
 1530SOL     hw 6118   5.122   6.021   1.372 -0.6555  0.2608  0.1425
 1530SOL     hw 6119   5.083   5.893   1.442  0.0796 -0.5778 -0.9392
 1530SOL     vw 6120   5.061   5.967   1.401 -0.3481 -0.1671 -0.0001
 1531SOL     ow 6121   1.281   4.747   2.346  0.2001  0.0825  0.4980
 1531SOL     hw 6122   1.300   4.721   2.256 -0.0164  1.6521 -0.0258
 1531SOL     hw 6123   1.332   4.686   2.400  0.8899 -0.4264 -0.6942
 1531SOL     vw 6124   1.290   4.735   2.341  0.2626  0.2227  0.2716
 1532SOL     ow 6125   6.294   3.022   2.257 -0.1774  0.0837 -0.4041
 1532SOL     hw 6126   6.378   3.049   2.220 -0.3025  1.1141  0.0209
 1532SOL     hw 6127   6.229   3.059   2.198 -0.3506 -1.1583 -1.0282
 1532SOL     vw 6128   6.297   3.030   2.245 -0.2165  0.0559 -0.4305
 1533SOL     ow 6129   5.432   2.636   2.990 -0.2010  0.0838  0.2115
 1533SOL     hw 6130   5.527   2.638   3.005 -0.3408  1.5197  1.1508
 1533SOL     hw 6131   5.399   2.568   3.048  0.3275 -0.9557 -0.6847
 1533SOL     vw 6132   5.440   2.627   3.000 -0.1500  0.1360  0.2173
 1534SOL     ow 6133   6.710   5.317   3.283  0.3270  0.7335 -0.0909
 1534SOL     hw 6134   6.620   5.337   3.256  0.5042  1.4924 -0.1218
 1534SOL     hw 6135   6.747   5.271   3.207 -0.2035 -0.0934  0.1372
 1534SOL     vw 6136   6.703   5.313   3.269  0.2806  0.7243 -0.0650
 1535SOL     ow 6137   5.921   5.030   1.768  0.1529  0.2567 -0.1839
 1535SOL     hw 6138   5.922   5.005   1.676  1.4350 -1.2440  0.1967
 1535SOL     hw 6139   5.845   5.088   1.776 -1.2919 -1.2690 -1.7596
 1535SOL     vw 6140   5.911   5.034   1.757  0.1314 -0.1428 -0.3416
 1536SOL     ow 6141   2.962   0.508   0.060 -0.4968  0.3268 -0.1387
 1536SOL     hw 6142   2.897   0.572   0.088 -0.6686  0.2574 -0.3864
 1536SOL     hw 6143   3.005   0.481   0.141 -0.5184  0.6520 -0.0175
 1536SOL     vw 6144   2.959   0.513   0.074 -0.5223  0.3605 -0.1554
 1537SOL     ow 6145   3.385   0.123   6.949 -0.6903  0.6317 -0.5529
 1537SOL     hw 6146   3.423   0.099   6.864 -0.0910 -5.4069  1.0084
 1537SOL     hw 6147   3.459   0.161   6.997  0.1783 -0.0381 -1.3175
 1537SOL     vw 6148   3.400   0.125   6.944 -0.4966 -0.2534 -0.4478
 1538SOL     ow 6149   4.785   0.891   0.999  0.1824 -0.4122 -0.4932
 1538SOL     hw 6150   4.785   0.987   0.988 -2.3532 -0.1868  0.9260
 1538SOL     hw 6151   4.795   0.857   0.910 -1.0742  1.2015 -1.3006
 1538SOL     vw 6152   4.787   0.899   0.986 -0.3181 -0.1696 -0.4125
 1539SOL     ow 6153   3.193   6.166   3.489  0.5812  0.1198  0.0701
 1539SOL     hw 6154   3.278   6.207   3.504  0.8380 -0.1419 -0.6096
 1539SOL     hw 6155   3.156   6.215   3.416  1.3024 -1.4099 -1.3899
 1539SOL     vw 6156   3.200   6.177   3.481  0.7102 -0.1163 -0.2122
 1540SOL     ow 6157   3.804   1.180   1.158  0.3629 -0.0605  0.2270
 1540SOL     hw 6158   3.726   1.204   1.209  0.2674  1.4026 -0.5398
 1540SOL     hw 6159   3.857   1.260   1.158  1.4406 -0.7653 -0.0247
 1540SOL     vw 6160   3.800   1.194   1.165  0.4926  0.0395  0.0926
 1541SOL     ow 6161   5.962   3.339   6.116  0.6191  0.3169  0.1284
 1541SOL     hw 6162   5.934   3.422   6.155 -0.4497  0.5124 -0.9637
 1541SOL     hw 6163   6.029   3.364   6.052  3.8553 -0.1951  3.0448
 1541SOL     vw 6164   5.967   3.354   6.112  0.9048  0.2751  0.3688
 1542SOL     ow 6165   3.103   3.672   7.132  0.0476  0.3331 -0.4087
 1542SOL     hw 6166   3.193   3.668   7.163  0.0650 -2.1010 -0.6098
 1542SOL     hw 6167   3.092   3.762   7.102  2.5088  0.5912 -0.7304
 1542SOL     vw 6168   3.113   3.683   7.132  0.3748  0.0460 -0.4776
 1543SOL     ow 6169   6.212   6.687   6.289  0.1508 -0.3581  0.5886
 1543SOL     hw 6170   6.203   6.646   6.203  0.6113 -0.0501  0.3856
 1543SOL     hw 6171   6.125   6.720   6.310  0.7865  3.3958 -1.7286
 1543SOL     vw 6172   6.199   6.686   6.281  0.2954  0.1781  0.2556
 1544SOL     ow 6173   3.392   1.792   4.353 -0.5793 -0.3437 -0.6689
 1544SOL     hw 6174   3.359   1.796   4.264 -0.9452  0.5007 -0.5064
 1544SOL     hw 6175   3.445   1.871   4.362  0.2890 -0.9350 -0.4533
 1544SOL     vw 6176   3.395   1.803   4.343 -0.5131 -0.3103 -0.6192
 1545SOL     ow 6177   2.812   2.598   0.008 -0.1301  0.1144 -1.0807
 1545SOL     hw 6178   2.835   2.682  -0.033  1.5316  0.6799  0.8703
 1545SOL     hw 6179   2.741   2.565  -0.046 -0.6072  2.6050 -2.1485
 1545SOL     vw 6180   2.806   2.605  -0.005  0.0262  0.5175 -0.9644
 1546SOL     ow 6181   2.162   6.824   4.406 -0.0035  0.4018  0.2298
 1546SOL     hw 6182   2.228   6.757   4.390  0.2866  0.5908  0.6200
 1546SOL     hw 6183   2.139   6.814   4.499 -0.1668  0.6574  0.2190
 1546SOL     vw 6184   2.167   6.814   4.416  0.0132  0.4604  0.2799
 1547SOL     ow 6185   3.800   7.045   1.894 -0.6710  0.7492 -0.9881
 1547SOL     hw 6186   3.778   7.030   1.986 -2.0351 -0.5888 -1.4880
 1547SOL     hw 6187   3.728   7.098   1.860 -1.2604 -0.4918 -1.7508
 1547SOL     vw 6188   3.788   7.050   1.902 -0.9288  0.4089 -1.1547
 1548SOL     ow 6189   2.499   4.860   0.192 -0.3167  0.2207 -0.5011
 1548SOL     hw 6190   2.512   4.786   0.133  0.5741 -2.2376  2.4885
 1548SOL     hw 6191   2.406   4.883   0.182 -0.5811 -1.1817 -1.6411
 1548SOL     vw 6192   2.488   4.853   0.183 -0.2340 -0.2887 -0.2571
 1549SOL     ow 6193   6.086   4.011   4.752 -0.4654 -0.2723 -0.5961
 1549SOL     hw 6194   6.026   3.972   4.815 -1.9653  1.6095 -0.7716
 1549SOL     hw 6195   6.076   3.958   4.673 -0.8291 -0.8060 -0.1997
 1549SOL     vw 6196   6.077   3.999   4.750 -0.7114 -0.0945 -0.5670
 1550SOL     ow 6197   4.424   1.567   6.047 -0.5932 -0.5853 -0.2579
 1550SOL     hw 6198   4.463   1.571   5.959  1.0153 -2.5237  0.2940
 1550SOL     hw 6199   4.421   1.658   6.076  1.9981 -0.1561 -1.0501
 1550SOL     vw 6200   4.429   1.579   6.039 -0.0391 -0.7843 -0.2897
 1551SOL     ow 6201   2.965   2.302   0.029 -0.9471 -0.0220 -0.5093
 1551SOL     hw 6202   3.026   2.264  -0.035  0.1466  0.9225 -0.0628
 1551SOL     hw 6203   2.880   2.264   0.006 -0.1843 -1.4702 -1.0775
 1551SOL     vw 6204   2.962   2.292   0.017 -0.7020 -0.0885 -0.5254
 1552SOL     ow 6205   5.102   5.966   5.956  0.1997 -0.2880  0.1141
 1552SOL     hw 6206   5.100   5.915   6.037  0.7363  0.0426  0.3429
 1552SOL     hw 6207   5.023   5.939   5.909  0.1705 -0.8908  0.4929
 1552SOL     vw 6208   5.091   5.956   5.961  0.2666 -0.3240  0.1945
 1553SOL     ow 6209   2.892   0.912   5.350 -0.8503 -0.1384  0.3347
 1553SOL     hw 6210   2.885   0.989   5.406  2.4590 -1.2247  2.5390
 1553SOL     hw 6211   2.866   0.838   5.406  2.4255 -1.2330  0.6580
 1553SOL     vw 6212   2.888   0.912   5.365  0.0186 -0.4261  0.6680
 1554SOL     ow 6213   0.983   1.326   5.521  0.2595  0.5049  0.6631
 1554SOL     hw 6214   0.954   1.405   5.568  2.2598  1.4488  0.4048
 1554SOL     hw 6215   0.991   1.354   5.430 -0.0659 -0.3154  0.3749
 1554SOL     vw 6216   0.980   1.340   5.515  0.4804  0.5212  0.5908
 1555SOL     ow 6217   5.444   0.116   5.813  0.2035 -0.5834  0.3191
 1555SOL     hw 6218   5.409   0.148   5.730 -0.2730  0.5678  0.9360
 1555SOL     hw 6219   5.398   0.033   5.828 -0.5434 -0.2463 -0.0266
 1555SOL     vw 6220   5.433   0.109   5.804  0.0420 -0.3871  0.3550
 1556SOL     ow 6221   3.885   5.512   6.343  0.1023  0.7008 -0.1456
 1556SOL     hw 6222   3.833   5.540   6.268  0.7756  0.6002 -0.6510
 1556SOL     hw 6223   3.888   5.589   6.400  0.0290  0.9369 -0.4635
 1556SOL     vw 6224   3.879   5.526   6.341  0.1814  0.7188 -0.2544
 1557SOL     ow 6225   0.040   2.659   0.029  0.7452 -0.1938  0.2490
 1557SOL     hw 6226   0.013   2.602   0.101  1.3039 -0.9281 -0.1099
 1557SOL     hw 6227   0.115   2.614  -0.010 -0.0766 -0.2612 -1.3441
 1557SOL     vw 6228   0.046   2.645   0.033  0.7105 -0.2997 -0.0086
 1558SOL     ow 6229   2.382   2.080   5.655  0.1146 -1.0983  0.0490
 1558SOL     hw 6230   2.330   2.000   5.648  0.3521 -1.5152  2.1524
 1558SOL     hw 6231   2.361   2.114   5.742  0.7144  0.6496 -0.4515
 1558SOL     vw 6232   2.372   2.074   5.666  0.2251 -0.9226  0.2606
 1559SOL     ow 6233   4.846   5.790   1.274  0.0712  0.0608  0.2648
 1559SOL     hw 6234   4.910   5.747   1.217  1.0683  1.8109 -0.0072
 1559SOL     hw 6235   4.833   5.728   1.346 -3.4952 -3.6256 -3.0633
 1559SOL     vw 6236   4.853   5.776   1.276 -0.2677 -0.1948 -0.2102
 1560SOL     ow 6237   5.357   4.580   1.155 -0.7080 -0.1611 -0.0043
 1560SOL     hw 6238   5.277   4.556   1.200 -0.2253 -1.8940  0.0041
 1560SOL     hw 6239   5.393   4.652   1.206 -1.9352  0.2230  0.3385
 1560SOL     vw 6240   5.351   4.586   1.167 -0.8063 -0.3390  0.0420
 1561SOL     ow 6241   4.388   2.669   5.398  0.2917  0.1003  0.8166
 1561SOL     hw 6242   4.451   2.597   5.401  0.1771 -0.1862 -1.6442
 1561SOL     hw 6243   4.322   2.640   5.335 -1.2205  1.2459  1.8261
 1561SOL     vw 6244   4.388   2.656   5.390  0.0770  0.2137  0.6254
 1562SOL     ow 6245   3.198   0.374   0.686  0.6407  0.3208 -0.6008
 1562SOL     hw 6246   3.157   0.294   0.653  0.9465 -0.3196  0.5145
 1562SOL     hw 6247   3.186   0.437   0.616  1.2508 -0.9645 -1.9258
 1562SOL     vw 6248   3.191   0.371   0.673  0.7616  0.0667 -0.6285
 1563SOL     ow 6249   0.046   7.154   5.802  0.0480  0.3022 -1.1629
 1563SOL     hw 6250   0.042   7.082   5.865  0.4844  1.1048 -0.1899
 1563SOL     hw 6251   0.118   7.131   5.744  0.5662  0.2173 -0.5027
 1563SOL     vw 6252   0.055   7.142   5.803  0.1740  0.3967 -0.9477
 1564SOL     ow 6253   3.743   2.913   2.291  0.0563 -0.4241  0.4905
 1564SOL     hw 6254   3.774   2.829   2.257  0.6805 -0.8901  2.1124
 1564SOL     hw 6255   3.691   2.950   2.220  0.1401 -1.9774 -0.4275
 1564SOL     vw 6256   3.740   2.906   2.277  0.1496 -0.6906  0.5834
 1565SOL     ow 6257   6.439   5.000   4.313 -0.2086 -0.2387 -0.5086
 1565SOL     hw 6258   6.434   5.087   4.353  2.5260  0.3892 -1.3023
 1565SOL     hw 6259   6.506   4.954   4.364 -1.1679 -1.6951 -0.5026
 1565SOL     vw 6260   6.448   5.006   4.325  0.0255 -0.3479 -0.6127
 1566SOL     ow 6261   6.284   4.886   6.144  0.0409 -0.5584 -0.3761
 1566SOL     hw 6262   6.201   4.920   6.113 -0.6889 -1.0711  0.9639
 1566SOL     hw 6263   6.277   4.791   6.133  0.1982 -0.6547  0.2972
 1566SOL     vw 6264   6.272   4.878   6.138 -0.0343 -0.6390 -0.1109
 1567SOL     ow 6265   3.454   5.388   4.682  0.2089  0.0128  0.2999
 1567SOL     hw 6266   3.397   5.345   4.746  0.1515  0.7098  0.7344
 1567SOL     hw 6267   3.536   5.403   4.730 -0.0801  1.1967  0.4717
 1567SOL     vw 6268   3.457   5.385   4.697  0.1632  0.2613  0.3798
 1568SOL     ow 6269   3.484   0.939   4.645  0.5421  0.2065  0.3238
 1568SOL     hw 6270   3.424   0.993   4.697  2.1073  1.3333  1.0339
 1568SOL     hw 6271   3.487   0.982   4.559 -2.1388 -1.7235 -0.8937
 1568SOL     vw 6272   3.477   0.952   4.641  0.3948  0.1005  0.2568
 1569SOL     ow 6273   0.083   5.254   6.084  0.2462  0.1999 -0.0761
 1569SOL     hw 6274   0.138   5.328   6.108 -0.1554 -0.2033  2.3602
 1569SOL     hw 6275   0.004   5.264   6.137 -0.4501 -1.1775 -0.7837
 1569SOL     vw 6276   0.080   5.265   6.094  0.1014 -0.0348  0.1519
 1570SOL     ow 6277   3.300   1.250   4.144  0.0304  0.0446 -0.1868
 1570SOL     hw 6278   3.316   1.176   4.086 -1.1466  0.8756 -1.6509
 1570SOL     hw 6279   3.206   1.249   4.161  0.0626  0.9299  0.1548
 1570SOL     vw 6280   3.289   1.240   4.139 -0.1205  0.2711 -0.3347
 1571SOL     ow 6281   7.251   2.384   5.081 -0.5044 -0.6349  0.9121
 1571SOL     hw 6282   7.302   2.314   5.041 -0.8678 -0.1123 -0.5526
 1571SOL     hw 6283   7.283   2.389   5.171  1.3007 -1.0027  0.3369
 1571SOL     vw 6284   7.262   2.376   5.087 -0.3142 -0.6145  0.6433
 1572SOL     ow 6285   3.353   2.753   1.118 -0.1902 -0.0671 -0.0904
 1572SOL     hw 6286   3.403   2.798   1.050 -0.8103  3.0101  1.3100
 1572SOL     hw 6287   3.420   2.718   1.177  0.3249  0.7227 -0.1934
 1572SOL     vw 6288   3.368   2.754   1.117 -0.2040  0.4431  0.0808
 1573SOL     ow 6289   1.939   0.856   0.015 -0.2683 -0.8331  0.2455
 1573SOL     hw 6290   1.872   0.923   0.004 -0.3585 -1.0853 -0.8329
 1573SOL     hw 6291   1.891   0.774   0.021 -0.0538 -1.0714 -1.0538
 1573SOL     vw 6292   1.924   0.854   0.014 -0.2519 -0.8978 -0.0682
 1574SOL     ow 6293   0.359   3.068   4.198  0.6103  0.4386 -0.0592
 1574SOL     hw 6294   0.397   3.110   4.274 -0.2646  1.5969 -0.2217
 1574SOL     hw 6295   0.332   2.982   4.228  0.7488  0.6922  0.7960
 1574SOL     vw 6296   0.360   3.062   4.212  0.5132  0.6247  0.0322
 1575SOL     ow 6297   0.113   4.536   6.605  0.0029 -0.3247  0.4071
 1575SOL     hw 6298   0.194   4.568   6.564 -1.0106 -0.3085 -1.7496
 1575SOL     hw 6299   0.094   4.454   6.559 -2.3629  0.7957 -0.8379
 1575SOL     vw 6300   0.121   4.530   6.593 -0.4429 -0.1748 -0.0420
 1576SOL     ow 6301   5.589   7.216   1.095 -0.0876 -0.6473  0.1024
 1576SOL     hw 6302   5.636   7.299   1.095 -0.3224 -0.4664 -2.0984
 1576SOL     hw 6303   5.656   7.151   1.117  0.8153 -0.1873 -1.1760
 1576SOL     vw 6304   5.604   7.218   1.098  0.0005 -0.5628 -0.3567
 1577SOL     ow 6305   0.828   4.578   6.519  0.2965  0.0956 -0.2893
 1577SOL     hw 6306   0.876   4.661   6.520 -0.5169  0.5815 -0.6776
 1577SOL     hw 6307   0.739   4.602   6.545  0.4676 -0.9444  1.4527
 1577SOL     vw 6308   0.823   4.592   6.523  0.2118  0.0224 -0.1106
 1578SOL     ow 6309   4.809   1.274   4.260 -0.0949  0.0511  0.4411
 1578SOL     hw 6310   4.850   1.235   4.337 -1.6046 -1.2741  0.6196
 1578SOL     hw 6311   4.715   1.267   4.276 -0.4826 -1.1592 -1.9299
 1578SOL     vw 6312   4.802   1.268   4.272 -0.3455 -0.2833  0.1514
 1579SOL     ow 6313   2.594   1.123   3.643 -0.3235 -0.2723 -0.2098
 1579SOL     hw 6314   2.557   1.202   3.604  0.6370  0.3283  0.0744
 1579SOL     hw 6315   2.542   1.051   3.605 -0.7833  0.4391 -0.9558
 1579SOL     vw 6316   2.582   1.124   3.633 -0.2574 -0.0993 -0.2707
 1580SOL     ow 6317   3.191   5.472   0.221 -0.5522 -0.0534  0.9342
 1580SOL     hw 6318   3.130   5.467   0.294 -1.8193  0.2432 -0.0588
 1580SOL     hw 6319   3.177   5.391   0.172  0.6436 -0.4840  1.2638
 1580SOL     vw 6320   3.181   5.460   0.224 -0.5615 -0.0710  0.8467
 1581SOL     ow 6321   4.000   1.572   4.321 -0.0402  0.4001  0.3577
 1581SOL     hw 6322   4.036   1.561   4.233  0.4505 -0.6868  0.6750
 1581SOL     hw 6323   4.045   1.505   4.373  0.3203  1.5881  1.6251
 1581SOL     vw 6324   4.011   1.562   4.316  0.0722  0.4134  0.5670
 1582SOL     ow 6325   3.314   3.066   1.089 -0.1966  0.1864 -0.1181
 1582SOL     hw 6326   3.376   3.094   1.157 -0.1363 -1.7919  0.7262
 1582SOL     hw 6327   3.309   2.971   1.099 -1.9807  0.0890 -1.3846
 1582SOL     vw 6328   3.321   3.057   1.099 -0.4241 -0.0873 -0.1738
 1583SOL     ow 6329   1.443   2.169   6.349  0.2012 -0.1260 -1.0125
 1583SOL     hw 6330   1.451   2.074   6.339  0.7991 -0.1807 -0.1025
 1583SOL     hw 6331   1.497   2.205   6.280  0.5920 -0.4578 -0.8824
 1583SOL     vw 6332   1.451   2.161   6.339  0.3316 -0.1769 -0.8755
 1584SOL     ow 6333   6.597   0.679   6.561  0.0606 -0.6884 -0.3929
 1584SOL     hw 6334   6.501   0.685   6.558 -0.2168 -2.9180  0.8898
 1584SOL     hw 6335   6.628   0.768   6.547 -2.2036  0.0739 -0.9357
 1584SOL     vw 6336   6.588   0.691   6.559 -0.2749 -0.8820 -0.2954
 1585SOL     ow 6337   1.630   1.604   6.386  0.6196 -0.5827 -0.2051
 1585SOL     hw 6338   1.723   1.588   6.372  1.1039  2.1017 -0.5826
 1585SOL     hw 6339   1.588   1.524   6.357  2.7275 -1.3471 -1.4054
 1585SOL     vw 6340   1.637   1.592   6.380  0.9616 -0.3294 -0.4129
 1586SOL     ow 6341   6.124   4.319   2.062  0.3466 -0.7063 -0.5242
 1586SOL     hw 6342   6.154   4.239   2.105 -0.2448 -0.3837  0.5025
 1586SOL     hw 6343   6.174   4.321   1.980  1.7189 -1.1550  0.2658
 1586SOL     vw 6344   6.134   4.308   2.057  0.4499 -0.7229 -0.2846
 1587SOL     ow 6345   4.765   0.233   1.539  0.0975 -0.4683 -0.2133
 1587SOL     hw 6346   4.693   0.286   1.572 -0.0555 -1.6528  1.4480
 1587SOL     hw 6347   4.729   0.189   1.462 -0.5326 -0.0841 -0.1413
 1587SOL     vw 6348   4.751   0.234   1.533 -0.0060 -0.5739  0.0154
 1588SOL     ow 6349   1.574   2.884   3.130  0.6331 -0.6991 -1.2565
 1588SOL     hw 6350   1.530   2.945   3.071 -1.2312 -1.1057 -0.3411
 1588SOL     hw 6351   1.601   2.938   3.204  1.1398 -0.5689 -1.5292
 1588SOL     vw 6352   1.572   2.899   3.132  0.4541 -0.7355 -1.1716
 1589SOL     ow 6353   4.692   5.144   3.845  0.2859 -0.5287 -0.1062
 1589SOL     hw 6354   4.697   5.052   3.872 -0.6379 -0.4714  0.2935
 1589SOL     hw 6355   4.784   5.172   3.838  0.5721 -1.4411 -0.1083
 1589SOL     vw 6356   4.705   5.136   3.848  0.2019 -0.6413 -0.0536
 1590SOL     ow 6357   7.017   5.393   2.524  0.4471 -0.1673  0.3073
 1590SOL     hw 6358   6.973   5.397   2.439  0.5811  0.6012  0.2691
 1590SOL     hw 6359   6.946   5.402   2.588 -0.0746 -3.6616  0.4081
 1590SOL     vw 6360   7.002   5.395   2.521  0.3958 -0.5269  0.3157
 1591SOL     ow 6361   2.963   2.961   4.302 -0.4669  0.2317  0.0448
 1591SOL     hw 6362   3.021   3.022   4.346  1.5502 -0.5223 -1.3900
 1591SOL     hw 6363   2.934   3.008   4.224 -1.4371  0.4401  0.5235
 1591SOL     vw 6364   2.967   2.975   4.297 -0.3287  0.1599 -0.0811
 1592SOL     ow 6365   1.094   1.498   2.210  0.3041  0.0213  0.9948
 1592SOL     hw 6366   1.140   1.472   2.131  0.6739  1.5877  0.6561
 1592SOL     hw 6367   1.147   1.464   2.282  1.6336  1.1859  0.6007
 1592SOL     vw 6368   1.107   1.490   2.209  0.5283  0.3816  0.8981
 1593SOL     ow 6369   5.359   1.427   4.818 -1.1331 -0.0590 -0.1497
 1593SOL     hw 6370   5.292   1.362   4.796 -0.7577 -0.0726 -1.3124
 1593SOL     hw 6371   5.356   1.489   4.746  1.2069 -0.9237 -1.0805
 1593SOL     vw 6372   5.350   1.427   4.806 -0.7751 -0.1749 -0.4261
 1594SOL     ow 6373   4.012   2.708   4.977 -0.1458  0.1298  0.5821
 1594SOL     hw 6374   3.968   2.725   4.894  1.0731 -0.0538 -0.1341
 1594SOL     hw 6375   3.944   2.673   5.035 -1.0628  0.5156 -0.2565
 1594SOL     vw 6376   3.997   2.706   4.974 -0.1059  0.1565  0.3769
 1595SOL     ow 6377   3.591   6.934   2.571  0.4726 -0.2680 -1.0520
 1595SOL     hw 6378   3.545   6.985   2.505 -0.7712 -0.9826 -0.7701
 1595SOL     hw 6379   3.671   6.984   2.589 -0.6743  1.5682 -0.8165
 1595SOL     vw 6380   3.596   6.948   2.565  0.1572 -0.1197 -0.9836
 1596SOL     ow 6381   2.929   1.476   3.528  0.3466  0.0147 -0.0255
 1596SOL     hw 6382   2.937   1.381   3.541 -2.8445 -0.5510 -1.4114
 1596SOL     hw 6383   2.902   1.510   3.613  0.1646 -0.5258  0.1341
 1596SOL     vw 6384   2.927   1.468   3.541 -0.0985 -0.1312 -0.1873
 1597SOL     ow 6385   2.700   2.243   1.060  0.3854  0.2062 -0.5675
 1597SOL     hw 6386   2.728   2.209   0.975  3.1756  2.0134 -0.4807
 1597SOL     hw 6387   2.667   2.331   1.041  1.7113  0.9065  0.2509
 1597SOL     vw 6388   2.699   2.250   1.046  0.9285  0.5370 -0.4480
 1598SOL     ow 6389   5.382   1.876   1.170 -0.1872 -0.1305  0.2159
 1598SOL     hw 6390   5.464   1.861   1.217  0.1568 -1.3841 -0.7199
 1598SOL     hw 6391   5.396   1.959   1.124  1.7120 -1.6278 -2.1678
 1598SOL     vw 6392   5.395   1.885   1.170  0.1087 -0.4935 -0.2221
 1599SOL     ow 6393   0.765   2.683   2.865  0.3725 -0.1632  0.1545
 1599SOL     hw 6394   0.780   2.715   2.954 -0.8793 -0.2116  0.3943
 1599SOL     hw 6395   0.706   2.609   2.876 -0.7695  0.5751 -0.8084
 1599SOL     vw 6396   0.759   2.677   2.878  0.0567 -0.0722  0.0591
 1600SOL     ow 6397   3.744   2.034   4.504 -0.0801  0.3061  0.4649
 1600SOL     hw 6398   3.776   2.105   4.559 -0.8224 -1.3930  3.2430
 1600SOL     hw 6399   3.656   2.063   4.477  0.5247  1.4098 -0.4476
 1600SOL     vw 6400   3.737   2.047   4.508 -0.0983  0.2275  0.7110
 1601SOL     ow 6401   4.598   2.062   5.928  0.4391  0.0617  0.0171
 1601SOL     hw 6402   4.674   2.112   5.958 -0.7720  1.0590  1.5418
 1601SOL     hw 6403   4.567   2.108   5.851  0.9382  0.0652 -0.1862
 1601SOL     vw 6404   4.604   2.074   5.922  0.3452  0.1937  0.1915
 1602SOL     ow 6405   2.436   4.322   2.920  0.5966  0.2544  1.0304
 1602SOL     hw 6406   2.494   4.281   2.855  0.0311  2.8394 -1.3196
 1602SOL     hw 6407   2.383   4.250   2.954  1.6825 -1.3986 -0.5795
 1602SOL     vw 6408   2.437   4.307   2.916  0.6652  0.3772  0.5081
 1603SOL     ow 6409   2.733   1.670   3.388 -0.0265 -0.2261  0.2748
 1603SOL     hw 6410   2.716   1.740   3.450 -0.8307 -0.3839  0.2355
 1603SOL     hw 6411   2.647   1.640   3.361  0.2486  0.7990 -2.0121
 1603SOL     vw 6412   2.720   1.675   3.392 -0.0961 -0.1116 -0.0321
 1604SOL     ow 6413   1.853   3.810   4.143 -0.0483 -0.3161  0.1440
 1604SOL     hw 6414   1.793   3.778   4.075 -0.5805 -0.3037  0.5961
 1604SOL     hw 6415   1.852   3.905   4.133 -0.4493 -0.2883  0.4315
 1604SOL     vw 6416   1.845   3.819   4.133 -0.1714 -0.3107  0.2415
 1605SOL     ow 6417   5.428   5.753   5.089  0.0020  0.2947 -0.7684
 1605SOL     hw 6418   5.336   5.761   5.066  0.5474  0.4705 -3.1992
 1605SOL     hw 6419   5.474   5.803   5.021  1.9176 -0.5102 -0.1381
 1605SOL     vw 6420   5.422   5.761   5.077  0.3266  0.2115 -1.0059
 1606SOL     ow 6421   0.231   1.026   0.568 -0.4002 -0.0695  0.2294
 1606SOL     hw 6422   0.237   1.098   0.505  0.3521  0.2521  0.6559
 1606SOL     hw 6423   0.311   1.032   0.620 -0.6260 -0.8283  0.6905
 1606SOL     vw 6424   0.242   1.036   0.567 -0.3307 -0.1271  0.3465
 1607SOL     ow 6425   5.327   5.480   4.166 -0.6300 -0.6492 -0.2766
 1607SOL     hw 6426   5.299   5.522   4.085  1.1126 -1.9677 -1.6372
 1607SOL     hw 6427   5.277   5.398   4.170 -1.1409 -0.3230  0.3234
 1607SOL     vw 6428   5.316   5.475   4.156 -0.4678 -0.7801 -0.3769
 1608SOL     ow 6429   5.417   2.675   0.416  0.3508  0.3501  0.3617
 1608SOL     hw 6430   5.478   2.601   0.418 -0.5626 -0.6514 -3.0258
 1608SOL     hw 6431   5.347   2.650   0.477  0.7847 -0.8911  0.3713
 1608SOL     vw 6432   5.416   2.662   0.424  0.2875  0.0541 -0.0840
 1609SOL     ow 6433   3.755   5.889   2.967 -0.3322  0.4470 -0.1136
 1609SOL     hw 6434   3.731   5.840   3.046 -0.6842  1.1545  0.2259
 1609SOL     hw 6435   3.730   5.979   2.986 -1.2930  0.4793 -1.3908
 1609SOL     vw 6436   3.749   5.895   2.980 -0.5053  0.5445 -0.2373
 1610SOL     ow 6437   2.641   6.672   7.017  0.4591  0.7440  0.3754
 1610SOL     hw 6438   2.554   6.635   7.004 -0.0394  2.2871 -0.9938
 1610SOL     hw 6439   2.682   6.668   6.931  1.0296  1.7719  0.5862
 1610SOL     vw 6440   2.635   6.667   7.004  0.4685  1.0834  0.2224
 1611SOL     ow 6441   1.420   1.114   2.431  0.4441 -0.0537 -0.5718
 1611SOL     hw 6442   1.456   1.180   2.372  1.5596 -1.2532 -1.3115
 1611SOL     hw 6443   1.456   1.136   2.517  2.2519 -0.6655 -1.1250
 1611SOL     vw 6444   1.429   1.126   2.435  0.8298 -0.2927 -0.7422
 1612SOL     ow 6445   2.490   4.055   4.678 -1.2366  0.5342 -0.0991
 1612SOL     hw 6446   2.426   3.990   4.706 -2.4208  0.6092 -2.4181
 1612SOL     hw 6447   2.451   4.139   4.702  0.5768  0.5583  3.4865
 1612SOL     vw 6448   2.476   4.058   4.685 -1.1538  0.5474  0.0677
 1613SOL     ow 6449   3.318   4.906   6.728  0.7012  0.1587 -0.1971
 1613SOL     hw 6450   3.411   4.921   6.709  1.0021 -1.3865 -0.1010
 1613SOL     hw 6451   3.313   4.902   6.823  0.5233  0.2974 -0.2000
 1613SOL     vw 6452   3.330   4.907   6.738  0.7175 -0.0269 -0.1845
 1614SOL     ow 6453   3.680   6.675   7.225 -0.0055  0.1416  0.1450
 1614SOL     hw 6454   3.598   6.724   7.220 -1.2266 -1.7023  1.0100
 1614SOL     hw 6455   3.710   6.669   7.134  1.4427  4.3250  0.1420
 1614SOL     vw 6456   3.673   6.681   7.212  0.0244  0.4504  0.2589
 1615SOL     ow 6457   3.669   1.385   4.205 -0.1496  0.0838 -0.2170
 1615SOL     hw 6458   3.736   1.444   4.170  2.1281 -1.4713  1.2398
 1615SOL     hw 6459   3.649   1.326   4.133  0.0255  0.5701 -0.6738
 1615SOL     vw 6460   3.675   1.385   4.191  0.1740 -0.0573 -0.0849
 1616SOL     ow 6461   2.473   5.262   2.121  0.4178  0.1884  0.2116
 1616SOL     hw 6462   2.565   5.242   2.139  0.6330  1.5787  0.7991
 1616SOL     hw 6463   2.428   5.249   2.204 -0.3700 -2.5965 -0.5502
 1616SOL     vw 6464   2.479   5.258   2.134  0.3424  0.0048  0.1887
 1617SOL     ow 6465   4.623   4.847   3.703 -0.2048 -0.0317  0.1850
 1617SOL     hw 6466   4.717   4.831   3.694 -0.0174  1.2100 -0.1695
 1617SOL     hw 6467   4.601   4.905   3.631 -0.8934  1.0743  1.2495
 1617SOL     vw 6468   4.632   4.852   3.692 -0.2711  0.2780  0.2787
 1618SOL     ow 6469   3.816   4.757   4.867  0.7264  0.6189  0.5383
 1618SOL     hw 6470   3.902   4.784   4.835 -0.3057  1.9847 -1.3210
 1618SOL     hw 6471   3.817   4.778   4.961  2.9013 -0.8224  0.8825
 1618SOL     vw 6472   3.827   4.764   4.875  0.8773  0.6089  0.3386
 1619SOL     ow 6473   5.967   4.825   6.430  0.1432  0.3141 -0.3764
 1619SOL     hw 6474   5.931   4.786   6.350  0.1376  0.5151 -0.4721
 1619SOL     hw 6475   5.935   4.768   6.501 -0.2967  0.4426 -0.4659
 1619SOL     vw 6476   5.958   4.812   6.429  0.0844  0.3574 -0.4008
 1620SOL     ow 6477   3.334   3.904   1.622  0.3336  0.3281 -0.4289
 1620SOL     hw 6478   3.349   3.984   1.674 -0.7025  0.8639 -0.9048
 1620SOL     hw 6479   3.420   3.863   1.615  0.8441  1.2716  0.0484
 1620SOL     vw 6480   3.347   3.909   1.628  0.2642  0.5233 -0.4287
 1621SOL     ow 6481   1.504   0.146   5.204  0.1280  0.2454 -0.5091
 1621SOL     hw 6482   1.450   0.068   5.216 -1.1232  1.1423 -0.1650
 1621SOL     hw 6483   1.446   0.211   5.165  0.7673  1.4344  0.4375
 1621SOL     vw 6484   1.489   0.144   5.201  0.0473  0.5206 -0.3388
 1622SOL     ow 6485   3.839   5.589   5.295 -0.3490 -0.1776  0.0689
 1622SOL     hw 6486   3.909   5.643   5.332 -1.6691  0.3782  1.8745
 1622SOL     hw 6487   3.795   5.647   5.232  0.7109 -0.5117 -1.0321
 1622SOL     vw 6488   3.843   5.604   5.291 -0.3833 -0.1483  0.1616
 1623SOL     ow 6489   4.143   0.299   2.488 -0.8719  0.6113 -0.2213
 1623SOL     hw 6490   4.137   0.276   2.395  0.9292 -3.4758  0.4601
 1623SOL     hw 6491   4.065   0.260   2.526 -1.1750  1.5619  0.1689
 1623SOL     vw 6492   4.132   0.291   2.481 -0.6742  0.1975 -0.0800
 1624SOL     ow 6493   6.174   0.876   4.235  0.7675 -0.2553  0.7858
 1624SOL     hw 6494   6.213   0.826   4.163  0.8673  1.5697 -0.5144
 1624SOL     hw 6495   6.124   0.945   4.192  2.5729  2.2270  2.3949
 1624SOL     vw 6496   6.173   0.879   4.220  1.0188  0.3130  0.8264
 1625SOL     ow 6497   0.737   3.484   4.464  0.5641  0.2967 -0.0818
 1625SOL     hw 6498   0.736   3.409   4.405  0.5081 -0.7427  1.2034
 1625SOL     hw 6499   0.830   3.496   4.486  0.7709  1.5948 -1.4465
 1625SOL     vw 6500   0.749   3.476   4.459  0.5840  0.3309 -0.0925
 1626SOL     ow 6501   3.014   2.641   4.392  0.4945 -0.5936  0.4905
 1626SOL     hw 6502   3.092   2.691   4.418 -1.2089  2.1362  0.6523
 1626SOL     hw 6503   3.018   2.639   4.297  1.8237 -2.3781  0.5327
 1626SOL     vw 6504   3.025   2.647   4.383  0.4451 -0.4687  0.5174
 1627SOL     ow 6505   5.604   0.967   5.313  0.2842 -0.1480 -0.0384
 1627SOL     hw 6506   5.619   1.061   5.302 -1.1800 -0.0806 -2.0887
 1627SOL     hw 6507   5.689   0.927   5.293  0.7138  0.7000  0.0380
 1627SOL     vw 6508   5.617   0.974   5.309  0.1476 -0.0272 -0.2990
 1628SOL     ow 6509   6.248   0.755   4.530  0.0671  0.1608 -0.1090
 1628SOL     hw 6510   6.168   0.764   4.581 -0.7685  0.4377 -1.4277
 1628SOL     hw 6511   6.280   0.667   4.552 -1.0182 -0.2611 -0.1225
 1628SOL     vw 6512   6.242   0.744   4.540 -0.1864  0.1417 -0.2847
 1629SOL     ow 6513   4.852   6.285   4.512 -0.0528  0.0733  0.5368
 1629SOL     hw 6514   4.767   6.301   4.555  0.5699 -0.8779  2.2068
 1629SOL     hw 6515   4.893   6.371   4.507 -0.8492  0.4469  0.2925
 1629SOL     vw 6516   4.846   6.299   4.517 -0.0758 -0.0029  0.7248
 1630SOL     ow 6517   2.019   5.668   2.635 -0.1782  0.3262 -0.2455
 1630SOL     hw 6518   2.034   5.577   2.659  1.8843  0.7874  0.4449
 1630SOL     hw 6519   1.992   5.665   2.543  2.0158 -0.8950 -0.9162
 1630SOL     vw 6520   2.017   5.656   2.626  0.3834  0.2258 -0.2429
 1631SOL     ow 6521   7.074   4.548   6.718  0.0625 -0.4141 -0.1754
 1631SOL     hw 6522   7.008   4.545   6.787 -1.0684 -0.1651 -1.2124
 1631SOL     hw 6523   7.027   4.525   6.638  1.0722  0.4705 -1.0600
 1631SOL     vw 6524   7.059   4.545   6.717  0.0465 -0.2644 -0.4292
 1632SOL     ow 6525   6.828   4.813   1.848  0.4628 -0.0341  0.3329
 1632SOL     hw 6526   6.844   4.904   1.821  1.5714 -0.0383  0.9162
 1632SOL     hw 6527   6.733   4.805   1.850  0.2835  0.2788 -2.4844
 1632SOL     vw 6528   6.818   4.824   1.844  0.5856  0.0067  0.0381
 1633SOL     ow 6529   1.166   1.221   1.251 -0.3153 -0.0189  0.4187
 1633SOL     hw 6530   1.127   1.149   1.201  0.7520 -0.2100 -0.1715
 1633SOL     hw 6531   1.132   1.209   1.340  0.1060 -1.4766  0.4161
 1633SOL     vw 6532   1.156   1.210   1.256 -0.1188 -0.2365  0.3405
 1634SOL     ow 6533   3.949   2.901   0.961  0.3583 -0.0960 -0.2889
 1634SOL     hw 6534   3.918   2.969   0.901 -4.0333 -2.2345 -0.8671
 1634SOL     hw 6535   4.008   2.848   0.907  1.7390  1.6708 -0.6039
 1634SOL     vw 6536   3.953   2.903   0.946 -0.0389 -0.1450 -0.4067
 1635SOL     ow 6537   0.857   6.288   7.008 -0.0474  0.1141 -0.6994
 1635SOL     hw 6538   0.795   6.277   7.080  0.4442  1.1482 -0.0919
 1635SOL     hw 6539   0.826   6.227   6.941  0.9025 -2.7482  1.2847
 1635SOL     vw 6540   0.844   6.278   7.009  0.1428 -0.1268 -0.3576
 1636SOL     ow 6541   0.762   1.154   6.138 -0.1539 -0.9599  0.4986
 1636SOL     hw 6542   0.741   1.075   6.089  0.3188 -0.0616 -1.2418
 1636SOL     hw 6543   0.707   1.222   6.099  1.9463  0.2842 -0.5222
 1636SOL     vw 6544   0.752   1.153   6.126  0.1855 -0.6772  0.1345
 1637SOL     ow 6545   0.621   0.159   5.253 -0.0539  0.1913 -0.0050
 1637SOL     hw 6546   0.544   0.215   5.250 -1.2673 -1.3479  0.8317
 1637SOL     hw 6547   0.647   0.159   5.345  0.2334 -0.2196 -0.0834
 1637SOL     vw 6548   0.614   0.167   5.265 -0.1761 -0.0660  0.0951
 1638SOL     ow 6549   3.663   0.322   3.216 -0.6403  0.4606  0.3428
 1638SOL     hw 6550   3.733   0.369   3.171 -0.0836 -0.9809 -0.3852
 1638SOL     hw 6551   3.656   0.364   3.302 -0.1802  1.8259 -0.2717
 1638SOL     vw 6552   3.671   0.334   3.222 -0.5062  0.4506  0.1656
 1639SOL     ow 6553   1.871   1.412   4.458 -0.4085 -0.2436  0.3995
 1639SOL     hw 6554   1.860   1.466   4.536 -0.3865 -1.8911  1.5804
 1639SOL     hw 6555   1.923   1.466   4.399  0.9432  0.4459  2.1464
 1639SOL     vw 6556   1.876   1.426   4.460 -0.2272 -0.3700  0.7856
 1640SOL     ow 6557   0.881   6.077   3.177 -0.7952  0.5034 -0.1451
 1640SOL     hw 6558   0.858   6.168   3.157 -1.5313  0.6161  1.1260
 1640SOL     hw 6559   0.830   6.025   3.114 -3.1531  0.8459  1.3547
 1640SOL     vw 6560   0.871   6.082   3.166 -1.2034  0.5631  0.2205
 1641SOL     ow 6561   2.718   4.844   0.762  0.2139 -0.0593  0.0883
 1641SOL     hw 6562   2.702   4.902   0.688 -1.3929 -0.5221  0.0186
 1641SOL     hw 6563   2.803   4.805   0.745  1.0325  1.7677 -0.1868
 1641SOL     vw 6564   2.727   4.847   0.750  0.1099  0.1206  0.0428
 1642SOL     ow 6565   6.823   6.925   2.997 -0.3518 -0.5203 -0.1042
 1642SOL     hw 6566   6.758   6.981   2.954 -0.5407 -0.5127  0.1915
 1642SOL     hw 6567   6.867   6.881   2.924  0.0220  0.2536 -0.3517
 1642SOL     vw 6568   6.820   6.926   2.982 -0.3273 -0.4172 -0.0978
 1643SOL     ow 6569   0.216   5.504   6.104 -0.0071  0.5441 -0.0542
 1643SOL     hw 6570   0.285   5.518   6.040  0.1705  2.0421  0.4316
 1643SOL     hw 6571   0.188   5.592   6.130 -1.2019 -0.0240  0.7212
 1643SOL     vw 6572   0.221   5.518   6.099 -0.1413  0.6666  0.1123
 1644SOL     ow 6573   5.185   6.552   4.695 -0.4444  0.2261 -0.2581
 1644SOL     hw 6574   5.210   6.590   4.780 -0.2858 -1.2865  0.4123
 1644SOL     hw 6575   5.268   6.532   4.653 -0.5228  0.3209 -0.4550
 1644SOL     vw 6576   5.199   6.554   4.701 -0.4337  0.0393 -0.1955
 1645SOL     ow 6577   4.318   4.381   3.965 -0.6082 -0.5023 -0.0492
 1645SOL     hw 6578   4.264   4.458   3.980 -1.1879 -0.7689 -0.7005
 1645SOL     hw 6579   4.407   4.415   3.957 -1.0038  0.2615 -1.5429
 1645SOL     vw 6580   4.323   4.395   3.966 -0.7370 -0.4368 -0.3322
 1646SOL     ow 6581   4.678   3.757   4.916 -0.3774 -0.5445 -0.2203
 1646SOL     hw 6582   4.771   3.777   4.921  0.6063 -3.6109 -3.0404
 1646SOL     hw 6583   4.647   3.769   5.006  2.5445  1.0607  0.7243
 1646SOL     vw 6584   4.686   3.761   4.929  0.1380 -0.7372 -0.4675
 1647SOL     ow 6585   3.426   6.442   5.702 -0.3716 -0.1934 -0.3362
 1647SOL     hw 6586   3.339   6.477   5.720  1.8156  6.6345 -0.3076
 1647SOL     hw 6587   3.465   6.430   5.789 -0.2716 -0.2883 -0.3944
 1647SOL     vw 6588   3.419   6.445   5.716 -0.0699  0.6948 -0.3400
 1648SOL     ow 6589   3.202   5.144   6.033 -0.0463 -0.0788  0.2828
 1648SOL     hw 6590   3.115   5.140   6.073 -1.9609 -2.5005 -3.5300
 1648SOL     hw 6591   3.213   5.235   6.009 -3.0566 -0.0998 -1.7859
 1648SOL     vw 6592   3.192   5.155   6.035 -0.6961 -0.4010 -0.4933
 1649SOL     ow 6593   0.994   1.331   5.235  0.0292 -0.5324 -0.4643
 1649SOL     hw 6594   1.090   1.332   5.234  0.0327  0.7591 -0.2100
 1649SOL     hw 6595   0.968   1.399   5.173 -0.7631 -1.7426 -1.5271
 1649SOL     vw 6596   1.003   1.340   5.227 -0.0749 -0.5216 -0.5708
 1650SOL     ow 6597   2.290   5.347   0.334 -0.2881 -0.6311  0.5975
 1650SOL     hw 6598   2.275   5.258   0.302  0.5024 -1.0214  1.2657
 1650SOL     hw 6599   2.381   5.347   0.364 -0.1651  0.5106  0.2845
 1650SOL     vw 6600   2.300   5.335   0.334 -0.1676 -0.5317  0.6444
 1651SOL     ow 6601   4.789   0.677   7.244 -0.4665 -0.0004 -0.1259
 1651SOL     hw 6602   4.859   0.648   7.185 -1.0063 -0.0658 -0.7491
 1651SOL     hw 6603   4.828   0.750   7.292 -1.0262  2.4122 -3.0162
 1651SOL     vw 6604   4.804   0.683   7.242 -0.6115  0.3093 -0.5894
 1652SOL     ow 6605   1.239   5.862   3.612  0.2272  0.4139 -0.0581
 1652SOL     hw 6606   1.154   5.854   3.654 -0.1802  0.2381 -0.8866
 1652SOL     hw 6607   1.249   5.781   3.562  0.9484  0.3697  0.1511
 1652SOL     vw 6608   1.229   5.850   3.611  0.2685  0.3848 -0.1398
 1653SOL     ow 6609   3.510   5.579   0.137  0.3455  0.0969  0.1372
 1653SOL     hw 6610   3.538   5.501   0.089  3.0737  0.3419  1.1254
 1653SOL     hw 6611   3.571   5.647   0.109  0.6729  0.7748  2.3528
 1653SOL     vw 6612   3.522   5.577   0.127  0.7486  0.2189  0.5599
 1654SOL     ow 6613   0.436   3.078   4.475  0.3314  0.8761  0.4070
 1654SOL     hw 6614   0.418   3.127   4.555 -0.2420  0.6129  0.4446
 1654SOL     hw 6615   0.405   2.989   4.493 -1.0693  1.1271 -0.5652
 1654SOL     vw 6616   0.429   3.073   4.488  0.0709  0.8745  0.2837
 1655SOL     ow 6617   0.447   0.472   7.187 -0.1305 -0.1488 -0.3171
 1655SOL     hw 6618   0.432   0.433   7.273  0.6124 -0.7989 -0.4678
 1655SOL     hw 6619   0.539   0.501   7.190 -0.0431 -0.3475 -0.9488
 1655SOL     vw 6620   0.457   0.470   7.199 -0.0210 -0.2608 -0.4206
 1656SOL     ow 6621   1.689   7.160   1.316 -0.2320  0.7621  0.6329
 1656SOL     hw 6622   1.759   7.219   1.286 -0.1791  1.7091  2.4868
 1656SOL     hw 6623   1.704   7.150   1.410  0.6176 -3.4630  0.2389
 1656SOL     vw 6624   1.700   7.167   1.324 -0.1129  0.3295  0.8255
 1657SOL     ow 6625   0.086   1.200   4.158 -0.4914  0.1231 -0.5492
 1657SOL     hw 6626   0.053   1.234   4.075  0.4374  0.7361 -0.6776
 1657SOL     hw 6627   0.179   1.224   4.159 -0.5698  0.4474  0.8255
 1657SOL     vw 6628   0.094   1.208   4.147 -0.3792  0.2468 -0.3848
 1658SOL     ow 6629   0.459   2.570   4.143 -1.1992  1.0050  0.2991
 1658SOL     hw 6630   0.478   2.488   4.190 -1.4173  1.0465  0.4589
 1658SOL     hw 6631   0.489   2.639   4.203 -3.9799  1.1919  1.6286
 1658SOL     vw 6632   0.466   2.568   4.157 -1.5948  1.0350  0.4957
 1659SOL     ow 6633   4.514   1.612   5.775  0.0940  0.5707  0.1102
 1659SOL     hw 6634   4.440   1.643   5.723  1.7167  1.8635 -1.5437
 1659SOL     hw 6635   4.546   1.691   5.820  2.9267  1.0582 -2.4365
 1659SOL     vw 6636   4.509   1.627   5.774  0.6819  0.8056 -0.4439
 1660SOL     ow 6637   0.681   1.679   2.494 -0.1374  0.0348 -0.5414
 1660SOL     hw 6638   0.700   1.764   2.534  3.3236 -0.2843 -1.1798
 1660SOL     hw 6639   0.588   1.664   2.511 -0.4744  3.1703  1.0133
 1660SOL     vw 6640   0.671   1.688   2.502  0.2748  0.4063 -0.4205
 1661SOL     ow 6641   3.290   2.484   0.496  0.1676 -0.4289  0.2785
 1661SOL     hw 6642   3.361   2.547   0.488 -0.7189  1.2250  3.6386
 1661SOL     hw 6643   3.334   2.399   0.500  1.5814  0.1449 -1.5116
 1661SOL     vw 6644   3.305   2.481   0.495  0.2370 -0.1349  0.4856
 1662SOL     ow 6645   0.368   1.387   3.796  0.6868  0.5688 -0.7913
 1662SOL     hw 6646   0.273   1.385   3.785  0.1956 -0.6782  2.4196
 1662SOL     hw 6647   0.385   1.470   3.840  0.6031 -0.4481  1.2720
 1662SOL     vw 6648   0.357   1.398   3.800  0.6109  0.2701 -0.0954
 1663SOL     ow 6649   3.184   0.305   0.025 -0.2789  0.3404 -0.2470
 1663SOL     hw 6650   3.102   0.259   0.004  1.2327 -1.4610 -2.6819
 1663SOL     hw 6651   3.169   0.341   0.113 -3.7541  0.3556 -0.6966
 1663SOL     vw 6652   3.171   0.304   0.034 -0.5380  0.1047 -0.6275
 1664SOL     ow 6653   1.053   4.226   0.911 -0.7606  0.1631  0.6055
 1664SOL     hw 6654   1.108   4.207   0.835 -1.4810 -2.7470  0.6811
 1664SOL     hw 6655   1.115   4.245   0.981  0.1061 -1.1432  0.2341
 1664SOL     vw 6656   1.068   4.226   0.910 -0.7412 -0.3934  0.5665
 1665SOL     ow 6657   7.238   2.577   4.894  0.0799  0.0520 -0.1076
 1665SOL     hw 6658   7.311   2.637   4.880  0.1107 -0.0713 -0.4795
 1665SOL     hw 6659   7.265   2.524   4.969  0.8252 -0.6665 -0.8558
 1665SOL     vw 6660   7.251   2.578   4.902  0.1822 -0.0590 -0.2553
 1666SOL     ow 6661   3.220   0.134   2.896  0.5010 -0.8213  0.3788
 1666SOL     hw 6662   3.266   0.087   2.827  4.2299 -0.1425  2.1425
 1666SOL     hw 6663   3.210   0.070   2.967  2.7089  0.0402  1.5755
 1666SOL     vw 6664   3.224   0.120   2.897  1.2842 -0.6181  0.7693
 1667SOL     ow 6665   6.782   0.258   5.461  0.2715 -0.5004  0.0418
 1667SOL     hw 6666   6.795   0.292   5.373  0.4209  2.2673  1.0261
 1667SOL     hw 6667   6.829   0.319   5.518  0.2454 -2.2289  2.0707
 1667SOL     vw 6668   6.790   0.270   5.457  0.2880 -0.3633  0.4394
 1668SOL     ow 6669   0.343   2.935   7.179 -0.4442 -0.4214  1.2787
 1668SOL     hw 6670   0.397   2.864   7.212 -0.8693 -1.5725 -0.3809
 1668SOL     hw 6671   0.396   2.977   7.111 -1.0844 -0.7031  0.5852
 1668SOL     vw 6672   0.357   2.931   7.174 -0.5848 -0.6105  0.9682
 1669SOL     ow 6673   4.444   1.696   6.430  0.9767  0.8043 -0.1511
 1669SOL     hw 6674   4.523   1.730   6.388  1.0189  2.4164  1.1098
 1669SOL     hw 6675   4.413   1.769   6.484 -1.3523  0.1854 -0.5626
 1669SOL     vw 6676   4.451   1.710   6.432  0.6752  0.9353 -0.0389
 1670SOL     ow 6677   0.528   1.304   6.254 -0.9319 -0.1843 -0.6618
 1670SOL     hw 6678   0.485   1.233   6.206  0.1955 -0.9128 -0.6280
 1670SOL     hw 6679   0.559   1.364   6.186  0.8677 -1.3284 -0.9268
 1670SOL     vw 6680   0.526   1.302   6.239 -0.5457 -0.4312 -0.6924
 1671SOL     ow 6681   1.195   4.284   3.759  0.1895  0.8158 -0.4938
 1671SOL     hw 6682   1.282   4.264   3.724  0.7965  1.4648  0.6045
 1671SOL     hw 6683   1.147   4.319   3.685  1.1083  1.1690 -0.9406
 1671SOL     vw 6684   1.200   4.286   3.745  0.3908  0.9482 -0.4077
 1672SOL     ow 6685   3.026   1.733   4.177 -0.0761  0.0858 -0.2060
 1672SOL     hw 6686   2.988   1.787   4.245  1.3286  1.3962 -0.4087
 1672SOL     hw 6687   2.982   1.760   4.096  0.9262  1.2765 -0.3732
 1672SOL     vw 6688   3.015   1.744   4.175  0.2415  0.4157 -0.2549
 1673SOL     ow 6689   6.253   1.806   1.615 -0.3151  0.2434  0.0742
 1673SOL     hw 6690   6.343   1.836   1.600 -0.5264  0.3012 -1.2185
 1673SOL     hw 6691   6.204   1.838   1.539 -1.1221 -1.0235  0.0283
 1673SOL     vw 6692   6.259   1.814   1.603 -0.4497  0.0839 -0.1024
 1674SOL     ow 6693   0.176   3.382   1.216 -0.0346 -1.1948 -0.2527
 1674SOL     hw 6694   0.088   3.420   1.227 -0.3686 -1.3789 -1.9663
 1674SOL     hw 6695   0.232   3.457   1.195 -0.1434 -1.2931 -0.9076
 1674SOL     vw 6696   0.172   3.397   1.215 -0.0930 -1.2321 -0.5652
 1675SOL     ow 6697   5.458   5.380   3.753 -0.0983  0.0319  0.3900
 1675SOL     hw 6698   5.453   5.467   3.793 -1.0746  0.6013 -0.8958
 1675SOL     hw 6699   5.384   5.332   3.791  1.3150 -0.8134  2.2683
 1675SOL     vw 6700   5.447   5.385   3.764 -0.0405 -0.0045  0.4683
 1676SOL     ow 6701   6.172   4.137   3.602 -0.2818 -0.4004 -0.0810
 1676SOL     hw 6702   6.098   4.091   3.563 -0.6410 -1.5136  1.7942
 1676SOL     hw 6703   6.202   4.079   3.672  1.2808  0.8159  0.3120
 1676SOL     vw 6704   6.166   4.123   3.606 -0.1228 -0.3867  0.2184
 1677SOL     ow 6705   5.712   1.233   0.293 -0.2899 -0.0369  0.2482
 1677SOL     hw 6706   5.637   1.180   0.264 -0.2540  0.1326 -0.1663
 1677SOL     hw 6707   5.715   1.306   0.231 -0.3743  0.4833  0.8476
 1677SOL     vw 6708   5.702   1.236   0.281 -0.2966  0.0541  0.2726
 1678SOL     ow 6709   5.755   2.150   6.391  0.2451  0.4775  0.7106
 1678SOL     hw 6710   5.807   2.179   6.316 -0.3577  1.0989  0.5289
 1678SOL     hw 6711   5.820   2.131   6.459  0.8082 -0.2053  0.0016
 1678SOL     vw 6712   5.771   2.151   6.390  0.2396  0.4693  0.5934
 1679SOL     ow 6713   6.744   4.977   5.141  0.2194 -0.3261  0.4798
 1679SOL     hw 6714   6.830   5.019   5.131  0.5123 -0.4920  2.0507
 1679SOL     hw 6715   6.699   5.030   5.207 -0.1429 -1.3545  1.0794
 1679SOL     vw 6716   6.750   4.989   5.148  0.2100 -0.4835  0.7663
 1680SOL     ow 6717   0.258   0.340   6.174  0.0748 -0.0908  0.2673
 1680SOL     hw 6718   0.317   0.414   6.192  0.3081 -0.2839  0.3072
 1680SOL     hw 6719   0.291   0.270   6.229  0.1994 -0.3958 -0.1885
 1680SOL     vw 6720   0.271   0.341   6.183  0.1221 -0.1566  0.2124
 1681SOL     ow 6721   2.079   2.272   0.006  0.3475  0.1348 -0.2371
 1681SOL     hw 6722   2.043   2.188  -0.024  0.4464  0.1998 -0.5429
 1681SOL     hw 6723   2.172   2.268  -0.015  0.2392  0.5684 -0.8276
 1681SOL     vw 6724   2.086   2.260  -0.001  0.3463  0.2006 -0.3553
 1682SOL     ow 6725   5.496   6.396   3.232 -0.5460 -0.5389  0.3207
 1682SOL     hw 6726   5.554   6.362   3.300 -0.3485  0.4223  0.6484
 1682SOL     hw 6727   5.551   6.401   3.154 -0.9229 -2.2012 -0.1047
 1682SOL     vw 6728   5.511   6.392   3.230 -0.5696 -0.6313  0.3077
 1683SOL     ow 6729   0.324   5.827   0.575 -1.3096  0.6697  0.1800
 1683SOL     hw 6730   0.341   5.921   0.581  0.4384  0.3496  0.8613
 1683SOL     hw 6731   0.245   5.820   0.522 -1.4019  2.5148  0.0182
 1683SOL     vw 6732   0.316   5.839   0.569 -1.0912  0.8709  0.2485
 1684SOL     ow 6733   7.036   1.432   2.509  0.0077 -0.1539  0.3609
 1684SOL     hw 6734   6.951   1.421   2.552 -0.5649 -1.2263 -0.9929
 1684SOL     hw 6735   7.026   1.391   2.423  0.7645  2.8461 -1.2970
 1684SOL     vw 6736   7.024   1.425   2.503  0.0319  0.1004 -0.0365
 1685SOL     ow 6737   6.886   3.578   1.938 -0.2716  0.7059 -0.1961
 1685SOL     hw 6738   6.897   3.484   1.944  0.9286  0.8309 -0.1911
 1685SOL     hw 6739   6.937   3.603   1.861  1.6911  1.6593  1.3184
 1685SOL     vw 6740   6.895   3.569   1.929  0.1457  0.8482  0.0044
 1686SOL     ow 6741   1.471   5.460   1.652  0.1761  0.9328  0.5851
 1686SOL     hw 6742   1.558   5.487   1.624  0.1497 -0.0959 -0.5661
 1686SOL     hw 6743   1.410   5.511   1.599  0.0704  1.3781  1.1234
 1686SOL     vw 6744   1.474   5.470   1.641  0.1586  0.8554  0.5042
 1687SOL     ow 6745   2.801   2.380   5.105  0.1105  0.2473  0.1286
 1687SOL     hw 6746   2.842   2.295   5.092 -0.7365 -0.1890  0.1870
 1687SOL     hw 6747   2.873   2.441   5.114  0.7315 -0.3512 -0.6455
 1687SOL     vw 6748   2.816   2.377   5.105  0.0808  0.1106  0.0341
 1688SOL     ow 6749   7.214   2.128   1.288  0.4426 -0.3114  0.1424
 1688SOL     hw 6750   7.225   2.214   1.247  0.8960 -1.3593 -2.1356
 1688SOL     hw 6751   7.291   2.079   1.261 -0.4886 -1.8526  0.1639
 1688SOL     vw 6752   7.225   2.133   1.279  0.3796 -0.6530 -0.1553
 1689SOL     ow 6753   4.987   4.937   2.000  0.4720  0.0446  0.2594
 1689SOL     hw 6754   5.062   4.968   1.949  0.9159  1.6439  1.7976
 1689SOL     hw 6755   5.012   4.849   2.028  1.5524  0.3372  0.2840
 1689SOL     vw 6756   5.000   4.929   1.997  0.6731  0.2942  0.4655
 1690SOL     ow 6757   7.043   2.503   3.080 -0.4773 -0.1608 -0.2362
 1690SOL     hw 6758   7.034   2.410   3.059 -0.8227 -0.3541  0.7042
 1690SOL     hw 6759   6.976   2.546   3.027  1.5381 -0.0678 -2.8555
 1690SOL     vw 6760   7.033   2.497   3.071 -0.2568 -0.1742 -0.4578
 1691SOL     ow 6761   3.391   4.543   5.058  0.6192 -0.7227 -0.4859
 1691SOL     hw 6762   3.440   4.478   5.108 -0.4679 -1.5148 -0.4051
 1691SOL     hw 6763   3.301   4.532   5.087  0.5269  1.4519  0.1785
 1691SOL     vw 6764   3.386   4.533   5.068  0.4635 -0.5405 -0.3874
 1692SOL     ow 6765   0.554   0.697   1.714 -0.0339  0.0552 -0.7416
 1692SOL     hw 6766   0.578   0.680   1.806  1.3268 -0.6367 -1.1893
 1692SOL     hw 6767   0.635   0.680   1.666 -0.6446  0.7448 -2.0422
 1692SOL     vw 6768   0.568   0.693   1.720  0.0651  0.0549 -0.9723
 1693SOL     ow 6769   3.087   5.261   1.249  0.2722 -0.1068 -0.0637
 1693SOL     hw 6770   3.114   5.254   1.341 -0.8756 -1.6659  0.1907
 1693SOL     hw 6771   3.155   5.214   1.201 -1.1447 -2.8483  0.4397
 1693SOL     vw 6772   3.100   5.254   1.255 -0.0662 -0.6742  0.0362
 1694SOL     ow 6773   4.879   0.665   1.272  0.5063 -0.1319  0.3144
 1694SOL     hw 6774   4.880   0.670   1.368  0.0319  0.9139  0.2756
 1694SOL     hw 6775   4.936   0.591   1.252  0.3131 -0.6086  1.4169
 1694SOL     vw 6776   4.887   0.656   1.282  0.4184 -0.0568  0.4548
 1695SOL     ow 6777   6.861   6.723   0.135  0.8938 -0.3831 -0.3246
 1695SOL     hw 6778   6.927   6.654   0.122  0.1389 -1.5967  1.7659
 1695SOL     hw 6779   6.786   6.694   0.084  0.7394 -0.8862  0.1785
 1695SOL     vw 6780   6.860   6.710   0.127  0.7737 -0.6096  0.0176
 1696SOL     ow 6781   0.716   6.621   0.775 -0.1838 -0.3006  0.2192
 1696SOL     hw 6782   0.728   6.695   0.717 -0.1478  1.8932  2.8486
 1696SOL     hw 6783   0.805   6.591   0.796 -0.0889  0.5567  1.0912
 1696SOL     vw 6784   0.729   6.627   0.770 -0.1665  0.1023  0.6812
 1697SOL     ow 6785   3.165   6.478   6.925  0.1070  0.1102  0.2229
 1697SOL     hw 6786   3.125   6.529   6.995 -2.7242  1.4093 -2.1410
 1697SOL     hw 6787   3.097   6.416   6.899  1.7102 -1.5149 -0.3053
 1697SOL     vw 6788   3.151   6.476   6.931 -0.0550  0.0672 -0.1588
 1698SOL     ow 6789   4.959   1.838   7.000 -0.4371  0.3494  0.4684
 1698SOL     hw 6790   4.954   1.914   7.058 -0.4818  0.4928  0.2777
 1698SOL     hw 6791   4.913   1.866   6.921 -0.9087 -0.0551  0.5940
 1698SOL     vw 6792   4.952   1.852   6.998 -0.5054  0.3150  0.4599
 1699SOL     ow 6793   1.056   1.123   6.214  0.5676 -0.0293  0.5350
 1699SOL     hw 6794   1.120   1.192   6.195  0.5443 -0.1832 -0.1222
 1699SOL     hw 6795   1.108   1.045   6.228  0.7058  0.3906  2.7669
 1699SOL     vw 6796   1.071   1.122   6.213  0.5828  0.0058  0.7427
 1700SOL     ow 6797   1.657   0.300   6.305 -0.1740  0.0980  0.0505
 1700SOL     hw 6798   1.568   0.333   6.301  0.3369  1.4663 -0.6411
 1700SOL     hw 6799   1.653   0.228   6.368 -2.1057 -1.0847 -1.3230
 1700SOL     vw 6800   1.645   0.295   6.313 -0.3614  0.1225 -0.2220
 1701SOL     ow 6801   2.815   1.847   6.279  0.4796 -0.2703  0.5958
 1701SOL     hw 6802   2.834   1.941   6.290  0.0121 -0.1907  0.7131
 1701SOL     hw 6803   2.865   1.804   6.348  0.1249 -0.0481  0.9889
 1701SOL     vw 6804   2.824   1.854   6.289  0.3712 -0.2305  0.6628
 1702SOL     ow 6805   1.980   4.049   1.219 -0.0599  0.2376 -0.2234
 1702SOL     hw 6806   1.989   4.069   1.312 -2.0988  2.2166 -0.3683
 1702SOL     hw 6807   1.946   3.959   1.218 -1.6549  0.7675  1.0740
 1702SOL     vw 6808   1.977   4.039   1.231 -0.5394  0.5684 -0.0713
 1703SOL     ow 6809   4.509   1.459   6.581  0.2339  0.7306  0.1591
 1703SOL     hw 6810   4.585   1.512   6.602  0.7674 -0.0299  0.1856
 1703SOL     hw 6811   4.494   1.406   6.660  0.1264  0.3612 -0.1026
 1703SOL     vw 6812   4.517   1.459   6.595  0.2902  0.5815  0.1280
 1704SOL     ow 6813   1.698   6.110   3.499  0.8562 -0.2763  0.2818
 1704SOL     hw 6814   1.746   6.183   3.460  1.8219 -0.6096  0.8220
 1704SOL     hw 6815   1.620   6.151   3.536  1.2427  0.4423  0.3290
 1704SOL     vw 6816   1.694   6.125   3.499  1.0346 -0.2253  0.3593
 1705SOL     ow 6817   0.612   4.793   3.050 -0.0931 -0.2399 -0.9554
 1705SOL     hw 6818   0.616   4.888   3.051  0.4247 -0.1758 -3.1948
 1705SOL     hw 6819   0.630   4.767   3.140  3.1875  1.7074 -0.8804
 1705SOL     vw 6820   0.615   4.802   3.062  0.4080  0.0257 -1.2411
 1706SOL     ow 6821   1.315   2.456   6.057 -0.2550  0.6758 -0.0792
 1706SOL     hw 6822   1.234   2.446   6.106 -0.9112  1.9980 -0.8236
 1706SOL     hw 6823   1.292   2.429   5.968  0.9597 -1.8625  0.2984
 1706SOL     vw 6824   1.301   2.451   6.052 -0.1813  0.5153 -0.1278
 1707SOL     ow 6825   1.092   4.530   2.024  0.6248 -0.6184 -1.2457
 1707SOL     hw 6826   1.172   4.575   2.050  0.5226 -1.2256  0.2197
 1707SOL     hw 6827   1.025   4.598   2.027  0.6261 -0.6475  0.1303
 1707SOL     vw 6828   1.094   4.545   2.027  0.6115 -0.7024 -0.8708
 1708SOL     ow 6829   3.246   3.666   4.613 -0.3540  0.3505 -0.2187
 1708SOL     hw 6830   3.250   3.722   4.536  2.3688 -1.2674 -1.3952
 1708SOL     hw 6831   3.251   3.726   4.687  1.5951  1.7698 -1.4023
 1708SOL     vw 6832   3.247   3.681   4.613  0.2624  0.3241 -0.5300
 1709SOL     ow 6833   0.916   1.261   3.700 -0.2335  0.2937  0.0887
 1709SOL     hw 6834   0.936   1.354   3.707 -3.3395  0.9650  2.3373
 1709SOL     hw 6835   0.903   1.232   3.790 -1.7331 -1.7141 -0.6856
 1709SOL     vw 6836   0.917   1.269   3.713 -0.8411  0.1174  0.2831
 1710SOL     ow 6837   6.679   3.713   5.012  0.2414 -0.3725  0.0670
 1710SOL     hw 6838   6.638   3.784   4.963  2.0017  1.8722  1.5871
 1710SOL     hw 6839   6.703   3.649   4.946  1.3370  1.8909 -1.8872
 1710SOL     vw 6840   6.677   3.714   4.997  0.6182  0.2223  0.0095
 1711SOL     ow 6841   0.271   4.856   0.116 -0.1692 -0.4431  0.0179
 1711SOL     hw 6842   0.308   4.820   0.197 -0.0856  0.8507  0.5716
 1711SOL     hw 6843   0.347   4.891   0.069 -0.3777 -0.0102  0.0020
 1711SOL     vw 6844   0.286   4.856   0.121 -0.1857 -0.2151  0.0888
 1712SOL     ow 6845   1.863   1.255   2.581  0.1456  0.4719  0.2858
 1712SOL     hw 6846   1.773   1.277   2.604  0.6660  1.1275  1.8249
 1712SOL     hw 6847   1.867   1.160   2.589 -0.6626  0.3034 -0.9024
 1712SOL     vw 6848   1.852   1.245   2.585  0.1076  0.5362  0.3321
 1713SOL     ow 6849   3.510   4.749   3.438 -0.1400 -0.7412  0.2995
 1713SOL     hw 6850   3.521   4.677   3.376 -1.2534  1.6558 -2.9411
 1713SOL     hw 6851   3.597   4.788   3.446 -0.2741 -0.0318 -1.2612
 1713SOL     vw 6852   3.523   4.745   3.431 -0.3045 -0.3314 -0.3339
 1714SOL     ow 6853   5.594   1.182   0.572 -0.2417  0.2314  0.5914
 1714SOL     hw 6854   5.670   1.218   0.527 -0.0904 -2.3813 -1.5039
 1714SOL     hw 6855   5.518   1.215   0.524 -0.4797  2.0482  2.0859
 1714SOL     vw 6856   5.594   1.191   0.560 -0.2532  0.1263  0.5121
 1715SOL     ow 6857   5.996   1.729   1.112  0.2188  0.1794 -0.2468
 1715SOL     hw 6858   5.976   1.664   1.045  0.1165  0.9007 -0.9366
 1715SOL     hw 6859   5.956   1.694   1.192 -1.2743  0.1739 -0.9605
 1715SOL     vw 6860   5.988   1.716   1.114  0.0083  0.2738 -0.4320
 1716SOL     ow 6861   4.191   6.091   2.310  0.0897  0.5648  0.2900
 1716SOL     hw 6862   4.204   6.183   2.335 -1.0640  0.4016  1.5657
 1716SOL     hw 6863   4.096   6.081   2.305  0.2103 -0.5585  0.0990
 1716SOL     vw 6864   4.180   6.102   2.312 -0.0465  0.3953  0.4331
 1717SOL     ow 6865   3.715   5.450   4.818 -0.2503 -0.4724  0.1801
 1717SOL     hw 6866   3.681   5.533   4.851  2.2735  0.1503  1.4467
 1717SOL     hw 6867   3.800   5.472   4.779  1.5011 -2.6518  2.4183
 1717SOL     vw 6868   3.722   5.464   4.817  0.3138 -0.6781  0.6423
 1718SOL     ow 6869   5.948   2.049   6.596 -0.1405  0.5791 -0.6735
 1718SOL     hw 6870   6.027   2.070   6.546  0.5732  1.5235  0.7799
 1718SOL     hw 6871   5.969   1.970   6.645 -1.3588 -1.2455 -2.8892
 1718SOL     vw 6872   5.961   2.042   6.596 -0.2072  0.4629 -0.7741
 1719SOL     ow 6873   2.305   2.401   1.666 -0.0968  0.0331 -0.0603
 1719SOL     hw 6874   2.276   2.356   1.587  0.7109  0.2185 -0.4789
 1719SOL     hw 6875   2.305   2.334   1.734 -1.5119  0.0411 -0.0275
 1719SOL     vw 6876   2.301   2.386   1.664 -0.1770  0.0587 -0.1112
 1720SOL     ow 6877   6.537   4.939   0.592  0.0962 -0.9461  0.3138
 1720SOL     hw 6878   6.495   4.867   0.639  0.4196 -3.0913 -2.4484
 1720SOL     hw 6879   6.526   4.918   0.500 -1.3178  3.4796 -0.8104
 1720SOL     vw 6880   6.530   4.927   0.586 -0.0477 -0.6452 -0.1990
 1721SOL     ow 6881   5.610   1.269   6.191 -0.4941 -0.4230  0.4371
 1721SOL     hw 6882   5.648   1.259   6.104  0.5948  1.7542  0.5963
 1721SOL     hw 6883   5.525   1.310   6.177 -0.8826 -1.2448  0.3431
 1721SOL     vw 6884   5.604   1.273   6.178 -0.4015 -0.2442  0.4458
 1722SOL     ow 6885   5.160   4.368   4.119 -0.1434 -0.7136 -0.0919
 1722SOL     hw 6886   5.112   4.450   4.113  0.0955 -0.6587 -1.6901
 1722SOL     hw 6887   5.176   4.343   4.028  0.7231 -1.9790  0.3817
 1722SOL     vw 6888   5.156   4.375   4.106  0.0024 -0.8733 -0.2403
 1723SOL     ow 6889   5.471   6.346   0.787  0.4418 -0.2397  0.0079
 1723SOL     hw 6890   5.560   6.311   0.783  0.9542  1.1204 -2.0363
 1723SOL     hw 6891   5.478   6.423   0.844  0.5739 -0.1550 -0.1220
 1723SOL     vw 6892   5.483   6.352   0.794  0.5269 -0.0489 -0.2789
 1724SOL     ow 6893   3.014   2.065   6.382  0.0760  0.2977 -0.1977
 1724SOL     hw 6894   3.069   2.049   6.458 -1.5199 -4.0021  0.3081
 1724SOL     hw 6895   2.944   2.121   6.414  0.2808 -0.1648  1.1158
 1724SOL     vw 6896   3.012   2.070   6.396 -0.1078 -0.3307  0.0422
 1725SOL     ow 6897   6.113   2.861   7.067  0.3941  0.4705  0.2350
 1725SOL     hw 6898   6.184   2.810   7.106 -0.1683 -0.5435 -0.0280
 1725SOL     hw 6899   6.045   2.862   7.134  0.5237  1.1914  0.3724
 1725SOL     vw 6900   6.113   2.855   7.081  0.3369  0.4318  0.2186
 1726SOL     ow 6901   3.230   1.160   2.660 -0.7140  0.2857  1.0100
 1726SOL     hw 6902   3.317   1.187   2.690  0.8200 -3.1331  0.1410
 1726SOL     hw 6903   3.210   1.082   2.710 -1.6695 -1.0079 -1.2111
 1726SOL     vw 6904   3.239   1.154   2.670 -0.6377 -0.3361  0.6024
 1727SOL     ow 6905   0.416   3.604   7.202 -0.2486  0.6174  0.5666
 1727SOL     hw 6906   0.457   3.522   7.229 -1.5092 -0.0845  0.4281
 1727SOL     hw 6907   0.486   3.669   7.207  0.3750 -0.1294  2.3397
 1727SOL     vw 6908   0.430   3.602   7.206 -0.3327  0.4263  0.7825
 1728SOL     ow 6909   5.489   2.592   3.582 -0.4389  0.0659  0.0956
 1728SOL     hw 6910   5.490   2.676   3.628  0.3149  0.0513  0.1235
 1728SOL     hw 6911   5.568   2.594   3.528 -0.3587 -0.6709  0.1845
 1728SOL     vw 6912   5.500   2.604   3.581 -0.3288 -0.0333  0.1110
 1729SOL     ow 6913   0.301   0.700   0.009 -0.4991 -0.0230  0.8646
 1729SOL     hw 6914   0.338   0.630  -0.044  1.3740  1.3882  0.1531
 1729SOL     hw 6915   0.362   0.709   0.083  0.2251  1.8341  0.1092
 1729SOL     vw 6916   0.314   0.692   0.012 -0.1565  0.4082  0.6710
 1730SOL     ow 6917   1.914   3.003   4.891 -0.1784 -0.0877 -0.2062
 1730SOL     hw 6918   1.845   2.949   4.929  1.3083 -2.1836 -0.3193
 1730SOL     hw 6919   1.882   3.023   4.802  0.7836 -4.2563 -1.7517
 1730SOL     vw 6920   1.901   2.999   4.884  0.1447 -0.9142 -0.4249
 1731SOL     ow 6921   2.710   3.130   3.351  0.5748 -0.0642  0.1581
 1731SOL     hw 6922   2.714   3.087   3.437 -0.7957  2.0660  1.3841
 1731SOL     hw 6923   2.683   3.219   3.371  2.2104  1.0892 -2.3506
 1731SOL     vw 6924   2.707   3.136   3.365  0.6099  0.3691 -0.0112
 1732SOL     ow 6925   0.280   5.194   3.838  0.3816  0.0967 -1.0937
 1732SOL     hw 6926   0.344   5.207   3.908 -1.0437  2.1594 -0.0599
 1732SOL     hw 6927   0.277   5.279   3.792 -0.8627 -0.2710 -1.7501
 1732SOL     vw 6928   0.288   5.207   3.841  0.0294  0.3204 -1.0438
 1733SOL     ow 6929   0.191   3.507   1.489 -0.0072 -0.0461  0.6451
 1733SOL     hw 6930   0.131   3.579   1.470  1.2030  0.6170 -0.9473
 1733SOL     hw 6931   0.262   3.548   1.539  1.3019  0.2017 -1.3208
 1733SOL     vw 6932   0.192   3.522   1.493  0.3252  0.0741  0.1757
 1734SOL     ow 6933   3.385   4.822   4.081  0.3006  0.1255 -0.6021
 1734SOL     hw 6934   3.444   4.748   4.063  1.8713  1.4927 -1.3009
 1734SOL     hw 6935   3.386   4.874   4.001  0.0344  1.4409  0.2182
 1734SOL     vw 6936   3.393   4.819   4.068  0.4727  0.4795 -0.5860
 1735SOL     ow 6937   3.763   1.682   3.076  0.2994 -0.4324  0.0973
 1735SOL     hw 6938   3.850   1.654   3.101  0.8550  0.0277 -1.2205
 1735SOL     hw 6939   3.771   1.777   3.062 -0.2676 -0.4734 -0.5531
 1735SOL     vw 6940   3.775   1.691   3.077  0.2980 -0.3771 -0.1624
 1736SOL     ow 6941   4.210   5.913   1.343  0.0493 -0.0700 -0.6044
 1736SOL     hw 6942   4.239   5.998   1.310  1.6106  0.4886  1.8988
 1736SOL     hw 6943   4.291   5.867   1.365 -0.8347 -1.1799  0.4474
 1736SOL     vw 6944   4.224   5.918   1.342  0.1385 -0.1428 -0.1353
 1737SOL     ow 6945   7.010   6.309   3.063  0.1174 -0.5944  0.2795
 1737SOL     hw 6946   7.103   6.306   3.042  0.3251 -1.5142  1.3000
 1737SOL     hw 6947   6.991   6.226   3.105 -1.1518 -0.3774  0.1921
 1737SOL     vw 6948   7.019   6.298   3.065 -0.0229 -0.6871  0.4026
 1738SOL     ow 6949   2.025   4.018   5.768 -0.1593  0.2322  0.8780
 1738SOL     hw 6950   2.098   4.001   5.708 -1.5467  0.2241 -0.9228
 1738SOL     hw 6951   1.948   4.018   5.711 -1.6300 -0.2265  2.7627
 1738SOL     vw 6952   2.025   4.015   5.752 -0.5364  0.1705  0.8888
 1739SOL     ow 6953   1.356   0.561   1.099  0.6616 -0.8197 -0.4968
 1739SOL     hw 6954   1.442   0.520   1.103  0.5693 -1.1778 -1.7380
 1739SOL     hw 6955   1.374   0.655   1.103  1.0483 -0.9110 -0.0131
 1739SOL     vw 6956   1.369   0.568   1.100  0.7005 -0.8790 -0.5967
 1740SOL     ow 6957   4.892   2.703   6.337  0.0165 -0.2004  0.4969
 1740SOL     hw 6958   4.883   2.794   6.367 -0.0995  0.2990 -0.9971
 1740SOL     hw 6959   4.879   2.651   6.416 -0.9562  1.0462  1.1971
 1740SOL     vw 6960   4.889   2.708   6.352 -0.1271  0.0300  0.3920
 1741SOL     ow 6961   3.071   4.972   6.543 -0.4196 -0.1327  0.4834
 1741SOL     hw 6962   3.003   5.006   6.485 -0.3914  1.0009  1.0852
 1741SOL     hw 6963   3.152   5.013   6.513  0.1058 -1.7586 -0.4637
 1741SOL     vw 6964   3.073   4.982   6.532 -0.3467 -0.1974  0.4377
 1742SOL     ow 6965   6.006   5.734   5.331 -0.9594 -0.8367  0.5364
 1742SOL     hw 6966   6.068   5.773   5.270  1.1939  2.2779  4.2590
 1742SOL     hw 6967   5.920   5.757   5.296  0.0900 -0.4369 -1.9693
 1742SOL     vw 6968   6.003   5.742   5.318 -0.5367 -0.3729  0.6969
 1743SOL     ow 6969   0.646   5.310   5.747  0.1735 -0.6897  0.5523
 1743SOL     hw 6970   0.667   5.223   5.782 -0.0644 -1.0969 -0.2815
 1743SOL     hw 6971   0.684   5.371   5.810 -1.1099 -1.3656  2.0419
 1743SOL     vw 6972   0.654   5.306   5.760 -0.0272 -0.8328  0.6390
 1744SOL     ow 6973   6.115   6.662   1.596  0.3653 -0.0030 -0.7217
 1744SOL     hw 6974   6.135   6.716   1.672  1.3039 -0.2423 -0.7964
 1744SOL     hw 6975   6.019   6.666   1.589  0.4248  2.1465 -1.0757
 1744SOL     vw 6976   6.105   6.670   1.605  0.4971  0.2489 -0.7783
 1745SOL     ow 6977   6.308   4.425   0.832  0.4209 -0.8910  0.1975
 1745SOL     hw 6978   6.259   4.346   0.856 -0.6255 -0.2590  0.2136
 1745SOL     hw 6979   6.244   4.479   0.785  0.5731  0.7415  1.7503
 1745SOL     vw 6980   6.293   4.422   0.829  0.3028 -0.5922  0.4045
 1746SOL     ow 6981   2.944   3.225   3.351  0.5814 -1.0372  0.5179
 1746SOL     hw 6982   2.958   3.274   3.432  0.0516  1.8285 -1.0031
 1746SOL     hw 6983   2.860   3.181   3.364  0.1289  0.0060  1.2698
 1746SOL     vw 6984   2.935   3.225   3.363  0.4519 -0.5214  0.4164
 1747SOL     ow 6985   1.272   2.083   5.315  0.1241  1.5092  0.0965
 1747SOL     hw 6986   1.188   2.114   5.348 -0.2624  2.0547 -1.3102
 1747SOL     hw 6987   1.320   2.162   5.291 -0.1277  1.1594 -1.7613
 1747SOL     vw 6988   1.267   2.097   5.316  0.0399  1.5349 -0.3343
 1748SOL     ow 6989   1.593   0.523   4.705 -0.6342  0.2861 -0.2689
 1748SOL     hw 6990   1.641   0.594   4.747 -1.3885  1.1287 -0.8019
 1748SOL     hw 6991   1.504   0.530   4.740 -0.8976  0.0716 -0.8763
 1748SOL     vw 6992   1.587   0.533   4.715 -0.7684  0.3690 -0.4194
 1749SOL     ow 6993   1.370   0.000   4.418  0.4784  0.2159  0.3012
 1749SOL     hw 6994   1.349  -0.060   4.490  0.8802  0.2154  0.4184
 1749SOL     hw 6995   1.292   0.055   4.410 -0.6565 -1.4762 -1.0228
 1749SOL     vw 6996   1.357  -0.000   4.427  0.3816 -0.0074  0.1419
 1750SOL     ow 6997   4.395   4.718   0.417  0.6230 -0.6441  0.4616
 1750SOL     hw 6998   4.352   4.654   0.362  1.0043 -0.4008 -0.1295
 1750SOL     hw 6999   4.337   4.729   0.492  0.6246 -1.7833  0.6407
 1750SOL     vw 7000   4.382   4.711   0.420  0.6735 -0.7625  0.4072
 1751SOL     ow 7001   5.989   2.134   3.151 -0.3286 -1.2126 -0.0887
 1751SOL     hw 7002   5.945   2.050   3.164 -1.3102 -0.8006 -0.6384
 1751SOL     hw 7003   5.926   2.199   3.183 -0.8954 -0.4819 -2.4574
 1751SOL     vw 7004   5.974   2.132   3.157 -0.5329 -1.0618 -0.4737
 1752SOL     ow 7005   4.170   0.554   2.456 -0.5948 -0.1868  0.6033
 1752SOL     hw 7006   4.164   0.469   2.500 -0.0302 -1.2743 -1.2725
 1752SOL     hw 7007   4.094   0.555   2.397 -0.7994  0.7783  0.8707
 1752SOL     vw 7008   4.159   0.543   2.454 -0.5472 -0.2030  0.3910
 1753SOL     ow 7009   4.011   2.959   6.179 -0.3661 -0.2034  0.0533
 1753SOL     hw 7010   3.972   2.909   6.107  0.0899 -0.5776  0.0624
 1753SOL     hw 7011   3.947   3.028   6.197 -1.1881 -0.9969  0.2978
 1753SOL     vw 7012   3.997   2.961   6.172 -0.4144 -0.3575  0.0865
 1754SOL     ow 7013   6.935   6.758   3.232  0.0303  0.2425  0.1197
 1754SOL     hw 7014   6.924   6.720   3.319 -1.0926 -1.2632 -0.6217
 1754SOL     hw 7015   7.021   6.727   3.203 -0.4181 -0.9130 -0.0406
 1754SOL     vw 7016   6.945   6.749   3.239 -0.1769 -0.1087  0.0007
 1755SOL     ow 7017   2.393   6.298   1.571  0.0234 -0.2930 -0.2513
 1755SOL     hw 7018   2.481   6.301   1.607 -0.5414 -1.7462  1.3880
 1755SOL     hw 7019   2.346   6.370   1.612  0.4149  0.4647 -1.1053
 1755SOL     vw 7020   2.398   6.308   1.581  0.0005 -0.3846 -0.1478
 1756SOL     ow 7021   0.751   5.951   4.723 -0.1725 -0.4506  0.1022
 1756SOL     hw 7022   0.813   5.970   4.794  0.3840  1.7990 -0.8917
 1756SOL     hw 7023   0.665   5.961   4.764 -0.0213 -3.7109  1.5223
 1756SOL     vw 7024   0.748   5.955   4.738 -0.0791 -0.5839  0.1585
 1757SOL     ow 7025   4.457   6.610   3.436  0.6286 -0.0883 -0.6087
 1757SOL     hw 7026   4.398   6.536   3.442  0.3967  0.1041 -0.5234
 1757SOL     hw 7027   4.536   6.575   3.394  0.4637 -0.3462 -0.7009
 1757SOL     vw 7028   4.460   6.596   3.432  0.5763 -0.0968 -0.6096
 1758SOL     ow 7029   6.262   4.302   1.836  0.5871  1.0534  0.5885
 1758SOL     hw 7030   6.340   4.263   1.873 -0.2060 -2.8324 -1.2812
 1758SOL     hw 7031   6.290   4.337   1.751  0.7333  1.9415  0.9943
 1758SOL     vw 7032   6.276   4.301   1.829  0.5019  0.6576  0.3953
 1759SOL     ow 7033   2.670   2.821   5.807  0.3316  0.2866 -0.2698
 1759SOL     hw 7034   2.619   2.746   5.776 -0.7227  1.0942 -0.5415
 1759SOL     hw 7035   2.736   2.834   5.740  1.9341 -1.7019  0.8002
 1759SOL     vw 7036   2.672   2.813   5.794  0.4040  0.1309 -0.1645
 1760SOL     ow 7037   5.626   3.013   1.294 -0.1111  0.5101  0.0386
 1760SOL     hw 7038   5.533   3.034   1.292  0.0384  1.1655 -0.1092
 1760SOL     hw 7039   5.669   3.089   1.255  0.5924  0.7968  1.3105
 1760SOL     vw 7040   5.620   3.026   1.289  0.0014  0.6344  0.1870
 1761SOL     ow 7041   4.472   5.542   5.207  0.2365 -0.5794  0.1803
 1761SOL     hw 7042   4.560   5.549   5.170 -0.1537  1.2161 -0.5057
 1761SOL     hw 7043   4.468   5.610   5.274 -0.4631 -0.9955  0.5821
 1761SOL     vw 7044   4.483   5.552   5.211  0.0925 -0.3972  0.1428
 1762SOL     ow 7045   6.090   2.988   3.837  0.0322 -0.2568 -0.3307
 1762SOL     hw 7046   6.074   2.954   3.925 -3.3363  0.1943 -0.6441
 1762SOL     hw 7047   6.090   2.911   3.781 -0.3681 -0.3487 -0.2092
 1762SOL     vw 7048   6.088   2.974   3.841 -0.4652 -0.2095 -0.3561
 1763SOL     ow 7049   0.945   6.819   1.193 -0.0751  0.1131 -0.6187
 1763SOL     hw 7050   0.940   6.884   1.122 -0.8877 -0.5608 -1.1937
 1763SOL     hw 7051   0.872   6.841   1.251  0.2746  0.3402 -0.2557
 1763SOL     vw 7052   0.934   6.831   1.191 -0.1361  0.0544 -0.6467
 1764SOL     ow 7053   3.061   3.801   1.389 -0.8706  0.1328 -0.1017
 1764SOL     hw 7054   3.034   3.739   1.322 -2.2798  0.6994 -0.0873
 1764SOL     hw 7055   3.113   3.866   1.341 -0.7231 -0.2014 -0.3956
 1764SOL     vw 7056   3.064   3.802   1.374 -1.0370  0.1634 -0.1386
 1765SOL     ow 7057   2.783   4.231   3.490 -0.1858  0.2679  0.2290
 1765SOL     hw 7058   2.836   4.222   3.411  1.8206 -1.9288  1.7001
 1765SOL     hw 7059   2.771   4.325   3.500  0.7534  0.6715 -1.8747
 1765SOL     vw 7060   2.788   4.242   3.481  0.2029  0.0315  0.1456
 1766SOL     ow 7061   3.202   4.959   5.768  0.4400  0.2226 -0.4387
 1766SOL     hw 7062   3.121   4.991   5.728  0.5875  2.6390  0.9608
 1766SOL     hw 7063   3.272   4.991   5.712  0.4958 -0.7734 -0.9573
 1766SOL     vw 7064   3.200   4.967   5.756  0.4669  0.4101 -0.3226
 1767SOL     ow 7065   3.527   3.831   0.247 -0.3347 -0.4687 -0.7376
 1767SOL     hw 7066   3.569   3.768   0.187  0.5581  0.8585 -1.5580
 1767SOL     hw 7067   3.435   3.804   0.249  0.2032 -2.4805 -0.1589
 1767SOL     vw 7068   3.521   3.819   0.239 -0.1459 -0.5590 -0.7695
 1768SOL     ow 7069   4.516   2.791   4.280  0.6053  0.0546 -0.1248
 1768SOL     hw 7070   4.475   2.724   4.225 -0.0873  0.3740 -0.0008
 1768SOL     hw 7071   4.514   2.871   4.226  1.5070 -0.0341 -0.3078
 1768SOL     vw 7072   4.510   2.793   4.265  0.6328  0.0850 -0.1326
 1769SOL     ow 7073   1.471   5.172   1.681  0.1433  0.4106 -0.4535
 1769SOL     hw 7074   1.499   5.264   1.678 -0.9785  0.7741 -0.4953
 1769SOL     hw 7075   1.463   5.153   1.775  1.5166 -0.0312 -0.4056
 1769SOL     vw 7076   1.474   5.182   1.693  0.1764  0.4001 -0.4528
 1770SOL     ow 7077   0.308   3.539   1.977  0.3264 -0.2884  0.1863
 1770SOL     hw 7078   0.351   3.605   1.923  2.0285 -1.3107  0.2238
 1770SOL     hw 7079   0.242   3.500   1.919 -0.8506  1.5267  0.2312
 1770SOL     vw 7080   0.305   3.542   1.962  0.3957 -0.1838  0.1972
 1771SOL     ow 7081   2.393   6.446   6.321  0.0676  0.0570  0.5366
 1771SOL     hw 7082   2.376   6.518   6.381 -0.6875  0.5437 -0.2307
 1771SOL     hw 7083   2.306   6.422   6.288  0.5312  0.4693 -1.1056
 1771SOL     vw 7084   2.379   6.452   6.324  0.0290  0.1757  0.2184
 1772SOL     ow 7085   5.174   3.474   1.323 -0.2523  0.5400 -0.1700
 1772SOL     hw 7086   5.116   3.422   1.267  1.0879 -0.4896 -0.6574
 1772SOL     hw 7087   5.243   3.413   1.349 -0.6408  1.0779  2.3625
 1772SOL     vw 7088   5.176   3.459   1.319 -0.1266  0.4752  0.0998
 1773SOL     ow 7089   0.657   3.207   4.369  0.5623 -0.3394  0.1895
 1773SOL     hw 7090   0.593   3.159   4.421  0.6407 -0.0720  0.5382
 1773SOL     hw 7091   0.737   3.206   4.422  0.6037  0.0519  0.1407
 1773SOL     vw 7092   0.659   3.200   4.383  0.5781 -0.2525  0.2289
 1774SOL     ow 7093   0.387   4.515   5.008  0.0298  0.2642 -0.0509
 1774SOL     hw 7094   0.351   4.500   4.921  2.4505 -1.9788 -0.8156
 1774SOL     hw 7095   0.311   4.538   5.062 -1.6362  1.0564 -2.5694
 1774SOL     vw 7096   0.372   4.516   5.004  0.1294  0.0730 -0.4840
 1775SOL     ow 7097   4.262   3.037   6.193  0.2128  0.0450  0.4260
 1775SOL     hw 7098   4.292   3.120   6.155  0.0359 -1.0242 -2.3073
 1775SOL     hw 7099   4.167   3.042   6.189  0.1959 -0.1504  0.5701
 1775SOL     vw 7100   4.253   3.048   6.188  0.1869 -0.1220  0.0846
 1776SOL     ow 7101   7.204   0.249   3.912 -0.4143 -0.2537  0.5677
 1776SOL     hw 7102   7.184   0.222   3.822  1.3437  0.2843 -0.0186
 1776SOL     hw 7103   7.171   0.338   3.918  2.5069  1.0171 -0.7312
 1776SOL     vw 7104   7.197   0.257   3.901  0.2029 -0.0151  0.3189
 1777SOL     ow 7105   6.161   0.679   1.572 -0.1608 -0.2648  0.2232
 1777SOL     hw 7106   6.073   0.693   1.538 -0.4806 -0.5779  0.8979
 1777SOL     hw 7107   6.218   0.728   1.513 -0.7162 -0.5862 -0.5992
 1777SOL     vw 7108   6.157   0.687   1.560 -0.2763 -0.3485  0.2038
 1778SOL     ow 7109   5.536   5.478   4.997  0.4770  0.6350  0.4927
 1778SOL     hw 7110   5.613   5.497   4.944  1.4729 -0.5221  1.4403
 1778SOL     hw 7111   5.567   5.414   5.062 -1.3702 -0.1671  0.6626
 1778SOL     vw 7112   5.550   5.472   4.999  0.3645  0.3765  0.6402
 1779SOL     ow 7113   3.810   1.225   3.390 -0.0586 -0.5106 -0.4532
 1779SOL     hw 7114   3.737   1.197   3.444  0.7197  1.0655  1.5514
 1779SOL     hw 7115   3.783   1.311   3.356  1.7926  1.5123  2.6614
 1779SOL     vw 7116   3.797   1.233   3.393  0.2882 -0.0358  0.2223
 1780SOL     ow 7117   0.457   6.454   6.569  0.4510 -1.2257 -0.1257
 1780SOL     hw 7118   0.501   6.537   6.587  1.6475 -2.3170  2.3116
 1780SOL     hw 7119   0.525   6.397   6.534  0.2821 -1.9782  0.7313
 1780SOL     vw 7120   0.472   6.457   6.566  0.5866 -1.4689  0.3092
 1781SOL     ow 7121   6.184   3.016   4.736 -0.5859 -0.4213  0.8127
 1781SOL     hw 7122   6.128   2.978   4.669 -1.1797  1.5733  0.1203
 1781SOL     hw 7123   6.269   3.026   4.693 -1.2538  1.9069 -0.1029
 1781SOL     vw 7124   6.188   3.013   4.721 -0.7524  0.1490  0.6003
 1782SOL     ow 7125   1.293   0.530   6.935  0.3968  0.0495 -0.9501
 1782SOL     hw 7126   1.261   0.441   6.922 -1.2607  0.3863  0.4712
 1782SOL     hw 7127   1.266   0.552   7.024  2.6156  1.2479 -0.5173
 1782SOL     vw 7128   1.285   0.521   6.945  0.4709  0.2521 -0.7057
 1783SOL     ow 7129   0.802   0.073   2.319 -0.7234 -0.2797 -0.4518
 1783SOL     hw 7130   0.837   0.043   2.235 -2.1401 -1.3337 -0.7036
 1783SOL     hw 7131   0.777   0.164   2.303 -0.8513 -0.4271 -1.1368
 1783SOL     vw 7132   0.804   0.081   2.306 -0.9272 -0.4382 -0.5753
 1784SOL     ow 7133   3.492   3.523   4.518  0.5727  0.3955 -0.5132
 1784SOL     hw 7134   3.533   3.598   4.561  0.8437  0.3294 -0.6509
 1784SOL     hw 7135   3.555   3.497   4.450  0.1819  0.4608 -0.9095
 1784SOL     vw 7136   3.506   3.529   4.514  0.5568  0.3955 -0.5836
 1785SOL     ow 7137   2.181   2.648   0.617  0.8078  0.1907 -0.3409
 1785SOL     hw 7138   2.109   2.677   0.674  1.1608  0.1804  0.1119
 1785SOL     hw 7139   2.260   2.677   0.661  1.0688  0.7551 -1.1524
 1785SOL     vw 7140   2.182   2.656   0.630  0.8887  0.2638 -0.3882
 1786SOL     ow 7141   6.793   6.194   1.787 -0.0225 -0.3731 -0.4006
 1786SOL     hw 7142   6.741   6.168   1.711 -0.4253  1.2848 -0.7453
 1786SOL     hw 7143   6.776   6.125   1.852 -1.7580 -0.4946 -0.9092
 1786SOL     vw 7144   6.784   6.181   1.786 -0.3045 -0.1705 -0.5132
 1787SOL     ow 7145   1.852   0.980   5.831  0.3270 -0.0502  0.0345
 1787SOL     hw 7146   1.912   0.972   5.905  0.4012  0.6115  0.0596
 1787SOL     hw 7147   1.793   1.051   5.857  1.5404  1.5318 -1.3131
 1787SOL     vw 7148   1.852   0.989   5.844  0.4969  0.2458 -0.1397
 1788SOL     ow 7149   2.849   2.848   4.521  0.0228  0.7249 -0.6099
 1788SOL     hw 7150   2.880   2.882   4.437  0.3591  0.4524 -0.5976
 1788SOL     hw 7151   2.878   2.913   4.585 -0.7518  1.2392 -0.7640
 1788SOL     vw 7152   2.857   2.861   4.518 -0.0350  0.7567 -0.6285
 1789SOL     ow 7153   1.107   6.592   3.499 -0.0033  0.6104  0.3884
 1789SOL     hw 7154   1.181   6.604   3.439  0.3695  0.0429  0.7214
 1789SOL     hw 7155   1.147   6.559   3.580 -0.9314 -3.4705 -0.5911
 1789SOL     vw 7156   1.122   6.589   3.502 -0.0765 -0.0031  0.3031
 1790SOL     ow 7157   3.356   1.615   5.993 -0.2599 -1.0546  0.0569
 1790SOL     hw 7158   3.408   1.675   6.045 -1.5321  0.9617 -0.8750
 1790SOL     hw 7159   3.420   1.553   5.956  1.6563  1.6585 -1.5567
 1790SOL     vw 7160   3.371   1.614   5.995 -0.1750 -0.4306 -0.2792
 1791SOL     ow 7161   4.283   0.874   5.521 -0.0522  0.2053  0.3544
 1791SOL     hw 7162   4.214   0.826   5.475 -0.2495 -2.3751  3.0218
 1791SOL     hw 7163   4.270   0.851   5.613  2.1818  2.5811  1.3700
 1791SOL     vw 7164   4.272   0.864   5.527  0.2167  0.1783  0.8404
 1792SOL     ow 7165   0.158   6.131   6.040 -0.1272 -0.2157 -0.8660
 1792SOL     hw 7166   0.212   6.173   5.973  1.1896 -1.2666 -0.5314
 1792SOL     hw 7167   0.221   6.104   6.107 -0.9210 -2.3220 -0.8879
 1792SOL     vw 7168   0.174   6.133   6.040 -0.0582 -0.6320 -0.8247
 1793SOL     ow 7169   4.731   3.044   5.480  0.3451 -0.2249  0.3172
 1793SOL     hw 7170   4.803   3.083   5.430  0.9275  0.9306  1.9582
 1793SOL     hw 7171   4.774   2.991   5.547 -0.3069  0.1199  1.0310
 1793SOL     vw 7172   4.746   3.042   5.482  0.3359 -0.0271  0.6278
 1794SOL     ow 7173   5.137   1.520   3.216 -0.3436  0.4615 -1.0460
 1794SOL     hw 7174   5.195   1.443   3.211 -1.1412 -0.1755 -0.6231
 1794SOL     hw 7175   5.111   1.525   3.308 -1.5359  0.3095 -1.3654
 1794SOL     vw 7176   5.141   1.511   3.227 -0.6061  0.3574 -1.0325
 1795SOL     ow 7177   2.546   6.727   6.722  0.2744  0.5605 -0.3412
 1795SOL     hw 7178   2.479   6.661   6.700  1.2628 -1.2546  1.7374
 1795SOL     hw 7179   2.617   6.710   6.660  1.4809 -1.9976  1.5578
 1795SOL     vw 7180   2.546   6.716   6.711  0.5640 -0.0167  0.1836
 1796SOL     ow 7181   6.651   1.767   0.382 -0.1088 -0.1812  0.2693
 1796SOL     hw 7182   6.657   1.736   0.472  1.9993 -1.3524 -0.1870
 1796SOL     hw 7183   6.725   1.725   0.338 -1.2909  0.0556 -2.1017
 1796SOL     vw 7184   6.662   1.757   0.388  0.0131 -0.3045 -0.1037
 1797SOL     ow 7185   4.078   6.502   0.430  1.0062  0.7864  0.7201
 1797SOL     hw 7186   4.014   6.573   0.430  0.2723  0.1350  0.5379
 1797SOL     hw 7187   4.062   6.456   0.512  1.7589  1.0764  1.0313
 1797SOL     vw 7188   4.067   6.505   0.441  1.0085  0.7386  0.7371
 1798SOL     ow 7189   4.154   5.042   0.142 -0.0382 -0.1820  0.2449
 1798SOL     hw 7190   4.107   4.960   0.160  0.5702 -0.5019  0.3934
 1798SOL     hw 7191   4.147   5.092   0.223 -2.9875  1.2385 -0.7363
 1798SOL     vw 7192   4.147   5.038   0.155 -0.3471 -0.0367  0.1350
 1799SOL     ow 7193   2.864   4.792   5.130 -0.8193  0.0823  0.3282
 1799SOL     hw 7194   2.827   4.714   5.172  4.4497 -2.8485  0.4043
 1799SOL     hw 7195   2.918   4.833   5.197  1.4130 -0.0068 -1.2979
 1799SOL     vw 7196   2.866   4.787   5.144  0.1705 -0.3161  0.1237
 1800SOL     ow 7197   2.938   6.482   0.081  0.2653  1.4609  0.3174
 1800SOL     hw 7198   2.893   6.502  -0.001  1.1115 -1.3392 -0.9500
 1800SOL     hw 7199   2.876   6.430   0.130  1.0541 -0.0566 -0.2344
 1800SOL     vw 7200   2.924   6.478   0.076  0.4809  0.8912  0.0774
 1801SOL     ow 7201   2.148   2.622   7.164 -0.1010  0.1336 -0.4767
 1801SOL     hw 7202   2.215   2.684   7.136  0.3480 -1.0404 -2.1586
 1801SOL     hw 7203   2.195   2.539   7.174 -0.7900 -0.1064  1.2105
 1801SOL     vw 7204   2.163   2.619   7.162 -0.1327 -0.0529 -0.4760
 1802SOL     ow 7205   0.736   1.205   5.248  0.1404  0.0306 -0.8839
 1802SOL     hw 7206   0.821   1.247   5.256  0.2121  0.0675 -1.7113
 1802SOL     hw 7207   0.710   1.221   5.157  0.1630 -1.6925 -1.2304
 1802SOL     vw 7208   0.744   1.213   5.237  0.1528 -0.1919 -1.0388
 1803SOL     ow 7209   2.958   6.812   2.643  0.1843  0.1339  0.0506
 1803SOL     hw 7210   2.921   6.746   2.701 -0.2731 -0.1934 -0.6069
 1803SOL     hw 7211   3.045   6.830   2.680  0.2781 -0.7596  0.2902
 1803SOL     vw 7212   2.965   6.806   2.655  0.1364 -0.0272 -0.0046
 1804SOL     ow 7213   6.786   3.785   6.875  0.3489  0.2926  0.4325
 1804SOL     hw 7214   6.744   3.699   6.882 -0.5294  0.6597 -0.1143
 1804SOL     hw 7215   6.868   3.769   6.829 -0.1253 -0.1615 -0.2638
 1804SOL     vw 7216   6.791   3.772   6.870  0.1702  0.2811  0.2685
 1805SOL     ow 7217   3.055   3.935   3.633 -1.0360 -0.3442 -0.3112
 1805SOL     hw 7218   3.141   3.935   3.589 -1.8198  0.4185 -1.9308
 1805SOL     hw 7219   3.076   3.925   3.726  0.8718  0.7327 -0.5693
 1805SOL     vw 7220   3.069   3.934   3.640 -0.8876 -0.1014 -0.5589
 1806SOL     ow 7221   4.063   6.745   4.887 -0.2347  0.1473 -0.4044
 1806SOL     hw 7222   4.092   6.706   4.805 -0.1543 -0.2332 -0.1957
 1806SOL     hw 7223   4.103   6.691   4.955 -0.4203  0.3731 -0.1127
 1806SOL     vw 7224   4.072   6.733   4.885 -0.2484  0.1271 -0.3386
 1807SOL     ow 7225   3.745   6.606   1.585  0.1216  0.5744  0.1726
 1807SOL     hw 7226   3.837   6.584   1.600 -0.1841 -0.5377  0.4911
 1807SOL     hw 7227   3.700   6.521   1.582 -0.8029  1.0700 -0.5966
 1807SOL     vw 7228   3.751   6.592   1.586 -0.0409  0.4928  0.1132
 1808SOL     ow 7229   1.180   0.664   0.657  0.4950  0.3005  0.0977
 1808SOL     hw 7230   1.180   0.746   0.606  0.0987 -0.8813 -1.9224
 1808SOL     hw 7231   1.268   0.629   0.646  0.8197  0.6881  1.3865
 1808SOL     vw 7232   1.192   0.670   0.649  0.4855  0.1957  0.0012
 1809SOL     ow 7233   3.631   0.671   4.566 -0.3804  0.0660 -0.2746
 1809SOL     hw 7234   3.564   0.640   4.505 -1.7951 -1.0650  1.7339
 1809SOL     hw 7235   3.712   0.630   4.537 -1.1909 -1.1724 -0.8470
 1809SOL     vw 7236   3.633   0.662   4.554 -0.6740 -0.2466 -0.0851
 1810SOL     ow 7237   1.845   4.521   5.888  0.1144  0.4400 -0.2101
 1810SOL     hw 7238   1.922   4.552   5.840  0.5862 -0.0442  0.2209
 1810SOL     hw 7239   1.846   4.570   5.970  0.4765 -0.1787  0.1754
 1810SOL     vw 7240   1.855   4.531   5.892  0.2245  0.2944 -0.1023
 1811SOL     ow 7241   1.336   6.189   4.908 -0.2844  0.1892  0.4079
 1811SOL     hw 7242   1.382   6.171   4.827 -1.0287 -1.2655  0.2800
 1811SOL     hw 7243   1.337   6.285   4.916  0.6447  0.2956 -0.7921
 1811SOL     vw 7244   1.342   6.200   4.899 -0.2600  0.0112  0.2327
 1812SOL     ow 7245   7.079   1.669   2.055 -0.0452  0.2335 -0.2049
 1812SOL     hw 7246   7.081   1.586   2.103 -1.8254  1.0498  1.3825
 1812SOL     hw 7247   7.109   1.734   2.118 -3.0677  1.4329  0.1415
 1812SOL     vw 7248   7.084   1.666   2.069 -0.6788  0.4994  0.0503
 1813SOL     ow 7249   2.046   1.514   1.281  0.1653 -0.2805  0.2101
 1813SOL     hw 7250   1.983   1.574   1.243 -2.1034 -0.7279  2.9228
 1813SOL     hw 7251   2.070   1.455   1.210 -2.6279 -0.1628 -0.9418
 1813SOL     vw 7252   2.041   1.514   1.267 -0.5025 -0.3240  0.4160
 1814SOL     ow 7253   4.439   1.466   2.207  0.6120 -0.5022  0.1490
 1814SOL     hw 7254   4.446   1.515   2.288  1.5392 -1.9316  0.9816
 1814SOL     hw 7255   4.410   1.379   2.234 -0.7241 -0.5384 -1.2453
 1814SOL     vw 7256   4.436   1.461   2.221  0.5581 -0.6956  0.0749
 1815SOL     ow 7257   4.482   5.283   3.922 -0.1181 -0.4639  0.0956
 1815SOL     hw 7258   4.468   5.240   4.006  1.8871  1.1298  1.3543
 1815SOL     hw 7259   4.556   5.237   3.883  0.2728  0.0913  0.1751
 1815SOL     vw 7260   4.490   5.272   3.928  0.1981 -0.1802  0.2723
 1816SOL     ow 7261   0.290   3.768   4.371 -0.1712 -0.0423 -0.3042
 1816SOL     hw 7262   0.268   3.718   4.450 -1.1379  0.8459  0.0157
 1816SOL     hw 7263   0.233   3.732   4.304 -0.6770  0.4345 -0.1379
 1816SOL     vw 7264   0.280   3.757   4.373 -0.3655  0.1378 -0.2401
 1817SOL     ow 7265   6.792   6.617   1.605  0.2049  0.4522 -0.7434
 1817SOL     hw 7266   6.739   6.662   1.671  0.6911 -1.1649  0.8308
 1817SOL     hw 7267   6.856   6.682   1.576  0.9043  0.8155  1.4641
 1817SOL     vw 7268   6.793   6.631   1.610  0.3612  0.2868 -0.2444
 1818SOL     ow 7269   4.331   5.640   6.220 -0.1573  1.0370 -0.1853
 1818SOL     hw 7270   4.397   5.652   6.288  2.1822 -2.0824 -1.6749
 1818SOL     hw 7271   4.357   5.700   6.150 -0.2128  1.3685  0.0746
 1818SOL     vw 7272   4.343   5.650   6.220  0.1438  0.6692 -0.3471
 1819SOL     ow 7273   6.257   6.977   3.835 -0.5262  0.3330  0.1337
 1819SOL     hw 7274   6.179   7.020   3.869 -1.4798  0.4197 -1.9782
 1819SOL     hw 7275   6.225   6.925   3.761  1.3251 -0.0943 -0.4196
 1819SOL     vw 7276   6.243   6.976   3.829 -0.4079  0.2880 -0.2179
 1820SOL     ow 7277   5.998   1.127   0.161  0.3512 -0.0994  0.1902
 1820SOL     hw 7278   6.024   1.202   0.108 -1.1460 -0.5553 -1.2763
 1820SOL     hw 7279   6.080   1.083   0.182  1.1089  0.9747 -0.3980
 1820SOL     vw 7280   6.012   1.131   0.157  0.2537 -0.0178 -0.0809
 1821SOL     ow 7281   6.321   6.835   6.636  0.6861 -1.2152 -0.1964
 1821SOL     hw 7282   6.295   6.909   6.690  1.8453 -0.5308 -0.5296
 1821SOL     hw 7283   6.370   6.874   6.563 -0.9455 -2.0869 -1.8573
 1821SOL     vw 7284   6.324   6.850   6.633  0.6239 -1.2398 -0.4597
 1822SOL     ow 7285   6.921   6.007   6.469  0.5290  0.6538 -0.3886
 1822SOL     hw 7286   6.868   5.952   6.411 -0.8803  0.7075  0.8116
 1822SOL     hw 7287   6.953   6.078   6.413  1.1622 -0.5571 -1.6220
 1822SOL     vw 7288   6.918   6.009   6.454  0.4265  0.5014 -0.3929
 1823SOL     ow 7289   1.469   4.871   4.784 -0.4326 -0.2026 -0.7233
 1823SOL     hw 7290   1.481   4.908   4.871 -0.1963 -2.0046  0.0475
 1823SOL     hw 7291   1.392   4.814   4.793 -0.4410 -0.3641 -1.7181
 1823SOL     vw 7292   1.460   4.869   4.797 -0.4026 -0.4618 -0.7527
 1824SOL     ow 7293   1.982   7.118   6.095 -0.5430 -0.0063 -0.1359
 1824SOL     hw 7294   1.902   7.080   6.130 -0.1966  0.0684  0.7595
 1824SOL     hw 7295   2.053   7.069   6.138 -0.1064 -0.2770 -1.1435
 1824SOL     vw 7296   1.981   7.107   6.105 -0.4396 -0.0322 -0.1504
 1825SOL     ow 7297   6.675   6.935   3.252  0.3551  0.5383  0.2898
 1825SOL     hw 7298   6.683   6.934   3.347  2.3566  0.1135  0.1825
 1825SOL     hw 7299   6.593   6.889   3.234  0.0983  0.3472  1.7894
 1825SOL     vw 7300   6.666   6.929   3.262  0.5853  0.4568  0.4733
 1826SOL     ow 7301   4.114   4.086   2.643 -0.3493 -0.6079 -0.4429
 1826SOL     hw 7302   4.200   4.111   2.678  0.1507 -1.6173 -0.9055
 1826SOL     hw 7303   4.101   4.146   2.569  0.2423 -0.8463 -0.7493
 1826SOL     vw 7304   4.124   4.097   2.638 -0.2053 -0.7725 -0.5444
 1827SOL     ow 7305   4.927   3.849   4.960  0.4139  0.3549  0.1399
 1827SOL     hw 7306   5.015   3.821   4.986  0.6687  0.3869 -0.6624
 1827SOL     hw 7307   4.932   3.856   4.865 -0.7013 -0.5099  0.0061
 1827SOL     vw 7308   4.940   3.846   4.951  0.3004  0.2451  0.0162
 1828SOL     ow 7309   0.037   5.675   5.341  0.3599 -0.5327 -0.6324
 1828SOL     hw 7310   0.112   5.704   5.394  0.2760 -2.1970  0.4729
 1828SOL     hw 7311   0.018   5.587   5.373 -2.1980 -0.1057 -0.7325
 1828SOL     vw 7312   0.044   5.667   5.353  0.0114 -0.6959 -0.4995
 1829SOL     ow 7313   2.721   2.282   2.840 -1.0288 -0.5208 -0.0530
 1829SOL     hw 7314   2.813   2.260   2.832 -1.3674 -1.8950 -0.3913
 1829SOL     hw 7315   2.679   2.238   2.767 -2.0192 -0.2741  0.3509
 1829SOL     vw 7316   2.727   2.273   2.829 -1.2041 -0.6696 -0.0445
 1830SOL     ow 7317   6.995   0.894   3.965  0.3750  0.1260 -0.4003
 1830SOL     hw 7318   6.902   0.887   3.947  0.8211 -1.4496 -2.4469
 1830SOL     hw 7319   7.037   0.889   3.879  2.3702  0.4426  0.4953
 1830SOL     vw 7320   6.989   0.892   3.952  0.6969 -0.0401 -0.5522
 1831SOL     ow 7321   5.434   0.577   1.729 -0.3402 -0.2916  0.0536
 1831SOL     hw 7322   5.463   0.628   1.804 -2.9956  1.7612 -0.1751
 1831SOL     hw 7323   5.402   0.495   1.766 -2.2192  0.9489  1.3277
 1831SOL     vw 7324   5.434   0.573   1.744 -0.9387  0.1429  0.1915
 1832SOL     ow 7325   6.130   3.045   2.527  0.1815  0.3786 -0.6895
 1832SOL     hw 7326   6.170   3.132   2.541  0.2940 -0.0004  1.8437
 1832SOL     hw 7327   6.089   3.024   2.611  1.8391 -2.8663 -0.5482
 1832SOL     vw 7328   6.130   3.054   2.540  0.4148 -0.0995 -0.3366
 1833SOL     ow 7329   0.151   4.932   3.696 -0.6710  0.5074  0.0877
 1833SOL     hw 7330   0.058   4.953   3.698 -0.9397 -0.5987  0.2805
 1833SOL     hw 7331   0.157   4.857   3.637  0.1957  0.9820 -0.4449
 1833SOL     vw 7332   0.139   4.925   3.689 -0.5921  0.4241  0.0428
 1834SOL     ow 7333   3.830   2.118   5.421  0.1295  0.3166  0.8699
 1834SOL     hw 7334   3.756   2.057   5.416  1.4787 -1.8047  3.7935
 1834SOL     hw 7335   3.861   2.126   5.331 -3.3579  1.0860 -0.4440
 1834SOL     vw 7336   3.824   2.111   5.409 -0.1527  0.1382  1.0822
 1835SOL     ow 7337   0.427   4.949   4.206 -0.4222  0.2383 -1.1359
 1835SOL     hw 7338   0.434   5.036   4.168 -0.1637  0.8213  0.1836
 1835SOL     hw 7339   0.361   4.958   4.275  0.5818 -0.2449 -0.0714
 1835SOL     vw 7340   0.419   4.961   4.210 -0.2557  0.2518 -0.8216
 1836SOL     ow 7341   7.023   2.817   0.039  0.2774 -0.4740 -0.2328
 1836SOL     hw 7342   6.988   2.823  -0.050 -1.6339  2.6291  0.5664
 1836SOL     hw 7343   6.965   2.754   0.083 -1.0055  0.5673 -0.3598
 1836SOL     vw 7344   7.011   2.809   0.033 -0.1438  0.0726 -0.1445
 1837SOL     ow 7345   2.159   5.797   4.788  0.2140 -0.0298  0.0846
 1837SOL     hw 7346   2.097   5.865   4.760 -0.6454 -0.7626  0.1350
 1837SOL     hw 7347   2.221   5.789   4.716 -1.3486 -1.1585 -1.2128
 1837SOL     vw 7348   2.159   5.805   4.775 -0.1057 -0.2754 -0.0799
 1838SOL     ow 7349   5.416   0.934   5.012  0.2814  0.1728  0.1878
 1838SOL     hw 7350   5.507   0.922   5.038 -0.0885  1.4910  2.3689
 1838SOL     hw 7351   5.370   0.859   5.050  0.3654 -0.1463 -0.3431
 1838SOL     vw 7352   5.422   0.922   5.021  0.2437  0.3046  0.4055
 1839SOL     ow 7353   1.916   4.848   3.752 -0.2238 -0.2207 -0.2751
 1839SOL     hw 7354   1.946   4.922   3.699 -2.3719  2.4678  1.9700
 1839SOL     hw 7355   1.933   4.874   3.842 -2.0114 -1.9733  0.6517
 1839SOL     vw 7356   1.922   4.861   3.757 -0.7430 -0.0973  0.1434
 1840SOL     ow 7357   6.852   3.923   0.019 -0.2744 -0.2885  0.0760
 1840SOL     hw 7358   6.872   3.873   0.098  0.5147 -2.0546 -1.1680
 1840SOL     hw 7359   6.937   3.933  -0.025 -0.8581 -0.4164 -1.1192
 1840SOL     vw 7360   6.866   3.917   0.024 -0.2472 -0.5385 -0.2458
 1841SOL     ow 7361   1.424   5.406   6.117 -0.0156  0.4598 -0.2541
 1841SOL     hw 7362   1.357   5.471   6.096 -0.7474 -0.5563 -1.1900
 1841SOL     hw 7363   1.390   5.361   6.194 -0.1828  0.2921 -0.4211
 1841SOL     vw 7364   1.410   5.409   6.124 -0.1342  0.3035 -0.3994
 1842SOL     ow 7365   3.971   5.918   3.183  0.4588  0.4210  0.5535
 1842SOL     hw 7366   3.973   5.939   3.089  0.6841 -1.4594  0.1078
 1842SOL     hw 7367   4.052   5.954   3.217 -0.0385  1.9325  0.2453
 1842SOL     vw 7368   3.982   5.926   3.175  0.4230  0.3722  0.4539
 1843SOL     ow 7369   6.276   2.817   0.804  0.7731  0.6129 -0.2381
 1843SOL     hw 7370   6.356   2.870   0.807  1.0687  0.1456  0.7938
 1843SOL     hw 7371   6.216   2.867   0.749  0.4684  2.8769  1.9570
 1843SOL     vw 7372   6.279   2.831   0.797  0.7720  0.8500  0.1877
 1844SOL     ow 7373   1.584   1.169   1.583  0.6731  0.1049  0.4211
 1844SOL     hw 7374   1.533   1.155   1.662 -0.2190  0.2240 -0.1221
 1844SOL     hw 7375   1.594   1.264   1.578 -0.7475  0.2414 -0.4922
 1844SOL     vw 7376   1.579   1.180   1.593  0.3679  0.1386  0.2289
 1845SOL     ow 7377   6.756   0.661   1.120 -0.0368  0.8206 -0.1070
 1845SOL     hw 7378   6.812   0.731   1.155  2.3983 -0.8223 -0.4241
 1845SOL     hw 7379   6.695   0.642   1.191 -1.0186  3.4446 -0.1478
 1845SOL     vw 7380   6.756   0.668   1.134  0.1550  0.9500 -0.1543
 1846SOL     ow 7381   4.757   3.019   1.798  0.9310  0.3131  0.2517
 1846SOL     hw 7382   4.719   3.087   1.854  0.3473 -0.4989  0.8625
 1846SOL     hw 7383   4.818   3.066   1.742  0.0923  1.4341  0.2495
 1846SOL     vw 7384   4.760   3.034   1.798  0.7432  0.3538  0.3320
 1847SOL     ow 7385   2.218   6.993   2.224 -0.3371 -0.0146  0.5483
 1847SOL     hw 7386   2.208   7.083   2.253  3.0808  0.5087  0.5327
 1847SOL     hw 7387   2.284   6.956   2.283 -0.2048 -1.8815 -0.6745
 1847SOL     vw 7388   2.226   7.000   2.236  0.1312 -0.1919  0.3849
 1848SOL     ow 7389   1.151   4.626   2.698  0.4446 -0.1308  0.5013
 1848SOL     hw 7390   1.061   4.634   2.729  0.2087 -1.9776  0.4172
 1848SOL     hw 7391   1.201   4.600   2.775  1.1378  1.9199  0.7878
 1848SOL     vw 7392   1.146   4.623   2.712  0.5050 -0.1037  0.5280
 1849SOL     ow 7393   5.555   7.199   4.841 -0.4767  0.5964  0.1199
 1849SOL     hw 7394   5.483   7.142   4.866 -0.5370  0.0879 -1.1328
 1849SOL     hw 7395   5.631   7.164   4.887 -0.8182  0.4658  0.5894
 1849SOL     vw 7396   5.555   7.187   4.850 -0.5298  0.5116  0.0167
 1850SOL     ow 7397   4.567   6.590   4.984 -0.0133 -0.0412  0.0381
 1850SOL     hw 7398   4.551   6.675   5.025 -2.6895 -0.1459 -0.6189
 1850SOL     hw 7399   4.582   6.531   5.058  0.1934  0.6869  0.5916
 1850SOL     vw 7400   4.567   6.594   4.999 -0.3390  0.0408  0.0243
 1851SOL     ow 7401   6.276   6.579   6.556  0.4621 -0.4876  0.2651
 1851SOL     hw 7402   6.314   6.505   6.603 -2.3841 -1.2460  1.5845
 1851SOL     hw 7403   6.289   6.654   6.614 -1.4765 -1.0901  1.5770
 1851SOL     vw 7404   6.283   6.579   6.570 -0.1690 -0.6671  0.6123
 1852SOL     ow 7405   5.737   6.896   4.628  0.1919 -0.4020  0.0170
 1852SOL     hw 7406   5.804   6.964   4.637 -1.7241  1.4909  0.9010
 1852SOL     hw 7407   5.765   6.845   4.552  2.7507  0.1171  0.5197
 1852SOL     vw 7408   5.750   6.899   4.619  0.2768 -0.0839  0.1998
 1853SOL     ow 7409   3.649   3.583   6.317 -0.5231  0.1384 -0.0095
 1853SOL     hw 7410   3.709   3.653   6.344  2.2996 -0.4232 -3.9638
 1853SOL     hw 7411   3.653   3.520   6.389  2.9894  0.5951  0.3883
 1853SOL     vw 7412   3.657   3.584   6.330  0.3127  0.1246 -0.4787
 1854SOL     ow 7413   4.734   0.184   6.315 -0.7123 -0.5648  0.8384
 1854SOL     hw 7414   4.642   0.167   6.333 -0.4385 -0.9225  2.0086
 1854SOL     hw 7415   4.746   0.277   6.333 -1.4855  0.2264 -2.3162
 1854SOL     vw 7416   4.724   0.194   6.320 -0.7784 -0.5076  0.5765
 1855SOL     ow 7417   2.992   2.264   0.917 -0.4178 -0.1338  0.4057
 1855SOL     hw 7418   3.087   2.270   0.905 -0.4037  1.2334  1.0417
 1855SOL     hw 7419   2.971   2.174   0.891  1.1091 -0.6119  0.6835
 1855SOL     vw 7420   3.002   2.253   0.912 -0.2145 -0.0166  0.5262
 1856SOL     ow 7421   1.733   4.805   5.622 -0.3561  0.2654 -0.5775
 1856SOL     hw 7422   1.769   4.745   5.557 -1.3225 -1.2576  0.2367
 1856SOL     hw 7423   1.671   4.752   5.673 -0.4524  1.6765  0.8795
 1856SOL     vw 7424   1.729   4.790   5.620 -0.4963  0.2508 -0.2782
 1857SOL     ow 7425   3.612   2.525   3.488  0.2547  0.2068 -0.1811
 1857SOL     hw 7426   3.566   2.441   3.496  1.1329 -0.2974 -0.2908
 1857SOL     hw 7427   3.686   2.506   3.431  2.3863  0.2280  2.4082
 1857SOL     vw 7428   3.615   2.511   3.482  0.6518  0.1431  0.1459
 1858SOL     ow 7429   7.030   6.806   4.309  0.3159 -0.8043  0.7356
 1858SOL     hw 7430   6.948   6.813   4.260 -0.0229 -2.0067  1.0819
 1858SOL     hw 7431   7.023   6.872   4.377 -0.0308 -0.3815  0.2961
 1858SOL     vw 7432   7.019   6.815   4.311  0.2253 -0.9074  0.7234
 1859SOL     ow 7433   2.436   6.833   3.684  0.6437 -0.3724 -0.0301
 1859SOL     hw 7434   2.524   6.796   3.672  0.9854  0.7244 -1.2186
 1859SOL     hw 7435   2.452   6.921   3.720  0.1272  0.2203 -1.1780
 1859SOL     vw 7436   2.450   6.840   3.687  0.6207 -0.1495 -0.3384
 1860SOL     ow 7437   1.451   6.296   2.105 -0.0626  0.7122 -0.5157
 1860SOL     hw 7438   1.384   6.363   2.118 -1.1829 -0.6715  1.5341
 1860SOL     hw 7439   1.497   6.292   2.189  3.5746  2.4754 -2.2015
 1860SOL     vw 7440   1.448   6.304   2.118  0.2695  0.7627 -0.4678
 1861SOL     ow 7441   2.683   6.964   3.356  0.2340 -0.9385 -0.4110
 1861SOL     hw 7442   2.756   7.023   3.334  1.2763 -2.3915 -1.0103
 1861SOL     hw 7443   2.631   7.013   3.420 -0.2026  1.5143 -2.5107
 1861SOL     vw 7444   2.686   6.978   3.362  0.3139 -0.8068 -0.7671
 1862SOL     ow 7445   5.661   0.818   5.031 -0.8753  0.3575  0.5115
 1862SOL     hw 7446   5.753   0.803   5.008 -0.2086  2.4241  1.6217
 1862SOL     hw 7447   5.645   0.758   5.105 -0.4021  0.0705  0.3881
 1862SOL     vw 7448   5.671   0.808   5.038 -0.7250  0.5923  0.6418
 1863SOL     ow 7449   3.516   1.079   4.428 -0.0157 -0.4290 -0.4571
 1863SOL     hw 7450   3.489   1.151   4.371  0.3153 -0.0702 -0.1714
 1863SOL     hw 7451   3.525   1.004   4.370 -2.2550 -0.7586 -0.4664
 1863SOL     vw 7452   3.514   1.078   4.413 -0.2675 -0.4251 -0.4206
 1864SOL     ow 7453   3.077   4.886   6.048  0.0707  0.2005  0.6386
 1864SOL     hw 7454   3.036   4.808   6.009 -1.4657  2.0633 -1.7983
 1864SOL     hw 7455   3.010   4.922   6.106  0.9993 -0.5569  2.2330
 1864SOL     vw 7456   3.063   4.880   6.050 -0.0094  0.3459  0.5274
 1865SOL     ow 7457   2.644   6.698   5.116  0.0343 -0.0988 -0.2489
 1865SOL     hw 7458   2.727   6.717   5.073  0.1493 -2.2036 -1.0814
 1865SOL     hw 7459   2.621   6.610   5.086 -0.4084 -1.3368  3.1722
 1865SOL     vw 7460   2.652   6.689   5.107 -0.0088 -0.5398  0.0927
 1866SOL     ow 7461   1.562   1.187   4.527 -0.3819  0.5282 -0.0382
 1866SOL     hw 7462   1.487   1.247   4.531 -0.0314  0.8925  1.7322
 1866SOL     hw 7463   1.531   1.113   4.475 -2.0116  0.6181  0.7638
 1866SOL     vw 7464   1.548   1.185   4.520 -0.5507  0.5881  0.3011
 1867SOL     ow 7465   3.947   5.641   1.273  0.0817  0.1438 -0.5680
 1867SOL     hw 7466   3.903   5.563   1.239  0.5384 -1.6779  2.6664
 1867SOL     hw 7467   3.876   5.695   1.307 -0.1114  0.3902 -1.3451
 1867SOL     vw 7468   3.932   5.638   1.273  0.1165 -0.0641 -0.2438
 1868SOL     ow 7469   3.021   1.685   3.309 -0.5221  0.1107 -0.2098
 1868SOL     hw 7470   3.117   1.693   3.307 -0.3200 -1.7361  0.1880
 1868SOL     hw 7471   2.990   1.774   3.321  1.0971  0.9136 -1.5155
 1868SOL     vw 7472   3.030   1.698   3.310 -0.2817 -0.0271 -0.3296
 1869SOL     ow 7473   5.896   0.908   5.295 -0.2034 -0.7655 -0.8719
 1869SOL     hw 7474   5.921   0.906   5.202  1.8391 -0.4402 -0.3738
 1869SOL     hw 7475   5.964   0.858   5.339  0.9604  2.1036  0.8498
 1869SOL     vw 7476   5.908   0.901   5.288  0.2193 -0.3440 -0.5791
 1870SOL     ow 7477   3.034   0.630   7.064  0.0990  0.6489 -0.2812
 1870SOL     hw 7478   2.997   0.588   7.141  0.6604  2.8999  1.3166
 1870SOL     hw 7479   2.958   0.663   7.016 -0.1905  0.3795 -0.0174
 1870SOL     vw 7480   3.019   0.629   7.068  0.1348  0.9103 -0.0358
 1871SOL     ow 7481   6.220   4.802   1.087 -0.1208 -0.0420  0.4170
 1871SOL     hw 7482   6.252   4.801   1.177 -1.3182 -0.9546  0.8576
 1871SOL     hw 7483   6.261   4.880   1.047 -0.7424  1.2427  2.1734
 1871SOL     vw 7484   6.229   4.812   1.093 -0.3610  0.0072  0.7069
 1872SOL     ow 7485   2.330   6.583   6.585  0.0391  0.5331  0.4868
 1872SOL     hw 7486   2.329   6.488   6.585  2.9658  0.4156 -0.5881
 1872SOL     hw 7487   2.266   6.608   6.652 -0.4415 -2.1519  1.1277
 1872SOL     vw 7488   2.321   6.574   6.594  0.3619  0.1636  0.4294
 1873SOL     ow 7489   2.424   7.204   0.139  0.4133  0.9979 -0.0514
 1873SOL     hw 7490   2.458   7.117   0.117  0.3710  1.2684 -1.2570
 1873SOL     hw 7491   2.378   7.233   0.060 -2.3871  0.7969  1.4121
 1873SOL     vw 7492   2.422   7.197   0.125  0.0381  1.0073 -0.0174
 1874SOL     ow 7493   6.889   0.661   0.676 -0.5241  0.7188  0.0123
 1874SOL     hw 7494   6.937   0.633   0.754 -1.3428  2.8438  1.3978
 1874SOL     hw 7495   6.899   0.590   0.614  3.2266  0.4620  0.7078
 1874SOL     vw 7496   6.896   0.648   0.678 -0.1373  0.9653  0.2869
 1875SOL     ow 7497   1.493   0.500   6.733  0.2926  0.6025  0.8527
 1875SOL     hw 7498   1.489   0.413   6.772 -2.5678  0.1589 -0.2093
 1875SOL     hw 7499   1.583   0.508   6.700  0.9282 -1.4727  1.9494
 1875SOL     vw 7500   1.504   0.490   6.733 -0.0008  0.2702  0.8571
 1876SOL     ow 7501   6.496   3.546   6.580  0.3981 -0.1317 -0.6744
 1876SOL     hw 7502   6.479   3.452   6.586  0.4596 -0.0852  0.4759
 1876SOL     hw 7503   6.417   3.587   6.615 -0.2325  0.3150 -2.4952
 1876SOL     vw 7504   6.483   3.539   6.585  0.3228 -0.0665 -0.7629
 1877SOL     ow 7505   1.925   4.530   5.217  0.1810  0.2080 -0.3437
 1877SOL     hw 7506   1.877   4.598   5.267 -0.2253 -0.1882 -0.1855
 1877SOL     hw 7507   1.856   4.482   5.171  0.1662 -1.7169  1.5187
 1877SOL     vw 7508   1.909   4.533   5.218  0.1255 -0.0980 -0.0772
 1878SOL     ow 7509   3.766   2.271   3.016 -0.3748 -0.0533 -0.2257
 1878SOL     hw 7510   3.792   2.322   2.939  2.4943 -1.5576 -0.4210
 1878SOL     hw 7511   3.724   2.334   3.074  0.0419  1.7629 -1.7965
 1878SOL     vw 7512   3.764   2.286   3.014  0.0588 -0.0122 -0.4588
 1879SOL     ow 7513   3.796   2.120   1.554  0.8361  0.3878 -0.4080
 1879SOL     hw 7514   3.801   2.210   1.523 -1.0384  0.0543 -1.8632
 1879SOL     hw 7515   3.886   2.097   1.576  1.3683  2.5852  0.0136
 1879SOL     vw 7516   3.808   2.129   1.553  0.6591  0.6337 -0.5444
 1880SOL     ow 7517   0.955   0.349   0.281 -0.1806  0.1852  0.1631
 1880SOL     hw 7518   1.024   0.414   0.273  0.3257  0.1187  2.9586
 1880SOL     hw 7519   0.883   0.395   0.325 -1.8951  0.1676 -2.4001
 1880SOL     vw 7520   0.954   0.364   0.286 -0.3400  0.1741  0.1938
 1881SOL     ow 7521   5.580   6.394   6.760 -0.0356 -0.5040  0.0240
 1881SOL     hw 7522   5.540   6.464   6.709  0.8215 -0.3362 -0.4316
 1881SOL     hw 7523   5.507   6.356   6.809 -1.0567 -1.2077 -1.9268
 1881SOL     vw 7524   5.565   6.398   6.760 -0.0570 -0.5746 -0.2933
 1882SOL     ow 7525   6.611   0.006   3.478  0.0478  0.3504  0.2332
 1882SOL     hw 7526   6.574   0.058   3.407 -0.7309 -0.7920 -0.2338
 1882SOL     hw 7527   6.645  -0.072   3.434 -0.7326 -0.5208  1.1437
 1882SOL     vw 7528   6.611   0.002   3.463 -0.1578  0.0848  0.2917
 1883SOL     ow 7529   6.498   5.741   5.089 -0.2210 -0.8170  0.5211
 1883SOL     hw 7530   6.449   5.819   5.113 -0.8257 -1.4759  1.5329
 1883SOL     hw 7531   6.441   5.668   5.115 -0.3690 -1.6292 -1.8267
 1883SOL     vw 7532   6.484   5.742   5.096 -0.3204 -1.0111  0.3448
 1884SOL     ow 7533   6.560   1.375   4.050 -0.2616 -0.0495  0.2238
 1884SOL     hw 7534   6.565   1.285   4.018 -0.2350 -0.0605  0.2591
 1884SOL     hw 7535   6.549   1.367   4.144 -0.3349 -0.0163  0.2182
 1884SOL     vw 7536   6.559   1.362   4.058 -0.2675 -0.0466  0.2275
 1885SOL     ow 7537   1.009   1.415   1.001  0.0445  0.3464  0.7415
 1885SOL     hw 7538   0.966   1.479   0.944 -0.3170  0.1219  0.7535
 1885SOL     hw 7539   0.974   1.331   0.972  0.6603  0.1318  0.5968
 1885SOL     vw 7540   0.999   1.412   0.990  0.0781  0.2884  0.7240
 1886SOL     ow 7541   2.270   4.556   2.264 -0.8643 -0.0754  0.3256
 1886SOL     hw 7542   2.278   4.565   2.359 -3.4946  2.9028  0.4367
 1886SOL     hw 7543   2.341   4.609   2.229 -0.7068 -0.0545  0.6708
 1886SOL     vw 7544   2.280   4.564   2.272 -1.1907  0.3202  0.3859
 1887SOL     ow 7545   4.260   0.074   2.183  0.3842  0.0637 -0.1513
 1887SOL     hw 7546   4.179   0.123   2.197  0.7936  0.5484  0.5288
 1887SOL     hw 7547   4.256   0.003   2.246  1.2219  1.0090  1.0017
 1887SOL     vw 7548   4.249   0.071   2.193  0.5488  0.2524  0.0905
 1888SOL     ow 7549   5.069   2.221   5.843 -0.5377 -0.2422  0.2158
 1888SOL     hw 7550   4.996   2.229   5.782 -0.1569  0.1318 -0.1956
 1888SOL     hw 7551   5.141   2.269   5.802  0.5291 -2.1435 -0.2931
 1888SOL     vw 7552   5.069   2.228   5.830 -0.3464 -0.4436  0.0947
 1889SOL     ow 7553   3.622   0.063   2.208 -0.9950  0.2237 -0.4024
 1889SOL     hw 7554   3.600   0.070   2.115 -0.3012 -1.4413 -0.7260
 1889SOL     hw 7555   3.717   0.070   2.211 -0.8636 -1.2666 -0.0309
 1889SOL     vw 7556   3.631   0.065   2.196 -0.8861 -0.1926 -0.3961
 1890SOL     ow 7557   1.435   3.728   0.214 -0.3007 -0.5906 -0.0372
 1890SOL     hw 7558   1.459   3.807   0.165 -2.6835 -0.2844 -0.8159
 1890SOL     hw 7559   1.357   3.753   0.263 -1.7766 -2.7162 -1.1340
 1890SOL     vw 7560   1.428   3.742   0.214 -0.8098 -0.8307 -0.2847
 1891SOL     ow 7561   0.173   3.129   3.957  0.6379 -0.1611  0.6478
 1891SOL     hw 7562   0.098   3.105   3.902 -0.9145  3.7645  0.6951
 1891SOL     hw 7563   0.136   3.185   4.025  3.5656  2.0499  0.6388
 1891SOL     vw 7564   0.158   3.133   3.959  0.8194  0.6485  0.6529
 1892SOL     ow 7565   5.303   3.618   0.079  0.4440  0.2344  0.1256
 1892SOL     hw 7566   5.215   3.641   0.107 -0.4508 -1.3481 -1.2483
 1892SOL     hw 7567   5.359   3.650   0.150 -1.3826 -0.4861  2.0062
 1892SOL     vw 7568   5.299   3.625   0.092  0.0851 -0.0695  0.1925
 1893SOL     ow 7569   3.130   7.109   1.466 -0.1298  0.1678 -0.5596
 1893SOL     hw 7570   3.171   7.187   1.503  0.9640 -1.5337  2.1369
 1893SOL     hw 7571   3.076   7.141   1.395 -2.1288  3.7810  2.2823
 1893SOL     vw 7572   3.129   7.123   1.461 -0.2493  0.4199  0.1711
 1894SOL     ow 7573   3.287   5.079   4.517  0.3822  0.0582  0.3052
 1894SOL     hw 7574   3.247   5.002   4.559 -2.1404  2.1041  1.9950
 1894SOL     hw 7575   3.356   5.106   4.577 -0.7595  0.8180  1.3238
 1894SOL     vw 7576   3.291   5.072   4.530 -0.1012  0.4284  0.6628
 1895SOL     ow 7577   5.463   5.488   4.386 -0.3721  0.0133 -0.1152
 1895SOL     hw 7578   5.447   5.482   4.291 -0.5106 -0.1518 -0.0811
 1895SOL     hw 7579   5.523   5.562   4.395 -1.5012  0.9809 -0.2014
 1895SOL     vw 7580   5.469   5.497   4.374 -0.5395  0.1192 -0.1221
 1896SOL     ow 7581   5.472   6.618   0.328 -0.3179 -0.2166  0.1996
 1896SOL     hw 7582   5.548   6.570   0.297 -1.3797 -0.4058 -2.3954
 1896SOL     hw 7583   5.412   6.619   0.253 -1.6639  2.4189  1.1836
 1896SOL     vw 7584   5.474   6.612   0.314 -0.6351  0.1059 -0.0130
 1897SOL     ow 7585   1.701   5.678   3.622  0.2681 -0.4394  0.1501
 1897SOL     hw 7586   1.732   5.588   3.612 -1.9309 -1.2370  0.1569
 1897SOL     hw 7587   1.752   5.712   3.695 -0.1134 -2.2946  1.3484
 1897SOL     vw 7588   1.712   5.671   3.630 -0.0724 -0.7894  0.3091
 1898SOL     ow 7589   0.101   2.432   3.119 -0.1008 -0.1455  0.2770
 1898SOL     hw 7590   0.144   2.407   3.200  2.4088  0.2373 -0.8594
 1898SOL     hw 7591   0.102   2.353   3.066  0.5293  0.2519 -0.3081
 1898SOL     vw 7592   0.107   2.418   3.123  0.3135 -0.0426  0.0497
 1899SOL     ow 7593   0.792   3.996   0.613 -0.1575 -0.0808 -0.4763
 1899SOL     hw 7594   0.724   4.058   0.587  0.4021  0.1214 -1.4946
 1899SOL     hw 7595   0.778   3.920   0.556 -0.8547 -0.9357  0.7681
 1899SOL     vw 7596   0.781   3.994   0.602 -0.1757 -0.1669 -0.4465
 1900SOL     ow 7597   3.121   3.379   3.145 -0.5197  0.6959 -0.1343
 1900SOL     hw 7598   3.106   3.420   3.060 -2.4195 -1.6466 -1.0281
 1900SOL     hw 7599   3.184   3.437   3.189  0.9875  1.6924 -3.3271
 1900SOL     vw 7600   3.127   3.392   3.140 -0.5715  0.5183 -0.6735
 1901SOL     ow 7601   4.562   4.000   2.834 -0.2100  0.1844 -0.2217
 1901SOL     hw 7602   4.519   3.932   2.887 -0.3069  0.1245 -0.3769
 1901SOL     hw 7603   4.494   4.030   2.775 -0.6703  1.6286  0.9851
 1901SOL     vw 7604   4.547   3.995   2.834 -0.2835  0.3672 -0.0830
 1902SOL     ow 7605   6.620   2.191   6.969 -0.1128 -0.3488  0.2608
 1902SOL     hw 7606   6.593   2.251   6.900 -2.1155  0.1657  1.4344
 1902SOL     hw 7607   6.593   2.234   7.050  2.6144 -0.6924  1.4787
 1902SOL     vw 7608   6.613   2.205   6.971 -0.0172 -0.3263  0.5763
 1903SOL     ow 7609   6.314   4.865   6.447 -0.6752 -0.2708 -0.4256
 1903SOL     hw 7610   6.230   4.823   6.431 -0.3344 -1.3051  0.4318
 1903SOL     hw 7611   6.367   4.798   6.489  0.7613  0.1999 -1.4281
 1903SOL     vw 7612   6.310   4.851   6.450 -0.4408 -0.3452 -0.4449
 1904SOL     ow 7613   4.719   6.842   4.536  0.7796 -0.0415  0.2991
 1904SOL     hw 7614   4.659   6.914   4.552  0.5909 -0.0358 -0.4302
 1904SOL     hw 7615   4.739   6.846   4.443 -0.2921 -1.7347 -0.0510
 1904SOL     vw 7616   4.714   6.852   4.526  0.6132 -0.2642  0.1569
 1905SOL     ow 7617   3.131   2.384   5.141 -0.0677  0.1547 -0.0738
 1905SOL     hw 7618   3.130   2.401   5.235 -2.8136 -1.1747  0.2243
 1905SOL     hw 7619   3.162   2.293   5.134 -1.4620 -0.3259 -0.2806
 1905SOL     vw 7620   3.135   2.374   5.152 -0.6140 -0.0840 -0.0615
 1906SOL     ow 7621   7.207   3.241   3.177  0.4003 -0.2178 -0.5946
 1906SOL     hw 7622   7.269   3.235   3.249 -0.0471 -0.2705 -0.2081
 1906SOL     hw 7623   7.260   3.227   3.098  0.7336 -1.1344 -0.2179
 1906SOL     vw 7624   7.222   3.238   3.176  0.3853 -0.3456 -0.4940
 1907SOL     ow 7625   3.585   5.526   6.863 -0.4499  0.0695  0.3613
 1907SOL     hw 7626   3.615   5.607   6.904 -0.2990 -0.6515  1.7119
 1907SOL     hw 7627   3.494   5.517   6.891 -1.1378  0.8035 -1.4586
 1907SOL     vw 7628   3.577   5.535   6.872 -0.5207  0.0713  0.2997
 1908SOL     ow 7629   1.386   3.579   3.144 -0.1239  0.3704  0.2963
 1908SOL     hw 7630   1.379   3.484   3.136  2.0024 -0.0528  2.2830
 1908SOL     hw 7631   1.469   3.601   3.102 -0.6954  1.3995 -0.3250
 1908SOL     vw 7632   1.396   3.569   3.138  0.0812  0.4504  0.4765
 1909SOL     ow 7633   6.348   5.028   3.795  0.4005 -0.1048  0.3337
 1909SOL     hw 7634   6.273   5.083   3.771  1.3655 -0.1573 -3.4737
 1909SOL     hw 7635   6.312   4.939   3.796 -0.4026  0.1617  2.9671
 1909SOL     vw 7636   6.333   5.023   3.792  0.4220 -0.0765  0.1787
 1910SOL     ow 7637   4.286   0.172   1.388  0.1031  0.2584  0.5363
 1910SOL     hw 7638   4.334   0.195   1.308  2.5458 -1.5659  1.3474
 1910SOL     hw 7639   4.272   0.255   1.432  2.0865  0.9562 -0.0346
 1910SOL     vw 7640   4.290   0.186   1.383  0.6871  0.1098  0.5679
 1911SOL     ow 7641   3.910   2.670   6.529  0.3497 -0.7024  0.0307
 1911SOL     hw 7642   3.896   2.624   6.446 -4.8078 -1.8315  1.1362
 1911SOL     hw 7643   3.953   2.752   6.504 -0.0595 -1.4159 -3.6166
 1911SOL     vw 7644   3.914   2.675   6.515 -0.3848 -0.9454 -0.3047
 1912SOL     ow 7645   1.735   5.039   1.743 -0.4460 -0.2764 -0.5872
 1912SOL     hw 7646   1.657   5.090   1.722 -0.7946  0.6025  2.3762
 1912SOL     hw 7647   1.754   5.061   1.835  1.2629 -3.1116 -0.1503
 1912SOL     vw 7648   1.728   5.049   1.752 -0.2666 -0.5348 -0.1386
 1913SOL     ow 7649   2.459   1.687   2.552  0.4534  0.1244 -0.0698
 1913SOL     hw 7650   2.490   1.662   2.639 -1.8596  1.5338  1.2647
 1913SOL     hw 7651   2.482   1.779   2.545  1.9239 -0.3188 -1.6343
 1913SOL     vw 7652   2.466   1.696   2.563  0.3424  0.2519 -0.1000
 1914SOL     ow 7653   1.021   4.730   2.269 -0.1116  0.3326  0.4095
 1914SOL     hw 7654   1.000   4.637   2.266 -1.1381  0.5639 -1.2034
 1914SOL     hw 7655   0.986   4.764   2.187  0.0410  2.1865  1.0769
 1914SOL     vw 7656   1.014   4.722   2.258 -0.2269  0.6077  0.2848
 1915SOL     ow 7657   0.928   2.826   4.886 -0.0195  0.2572  0.2443
 1915SOL     hw 7658   0.929   2.750   4.943 -1.3693 -0.7137 -0.9523
 1915SOL     hw 7659   0.839   2.860   4.894  0.0939  0.7421 -0.4727
 1915SOL     vw 7660   0.916   2.821   4.895 -0.1826  0.1930 -0.0081
 1916SOL     ow 7661   3.438   0.457   2.124 -0.7925  0.0413 -0.2598
 1916SOL     hw 7662   3.460   0.364   2.133 -0.4354  0.1424 -0.0482
 1916SOL     hw 7663   3.506   0.502   2.174 -1.9668  0.3435  1.1185
 1916SOL     vw 7664   3.450   0.451   2.132 -0.9004  0.0945 -0.0501
 1917SOL     ow 7665   5.180   6.276   0.707 -0.5395  0.0606 -0.1218
 1917SOL     hw 7666   5.135   6.204   0.662 -0.0598 -1.0317  1.0626
 1917SOL     hw 7667   5.116   6.347   0.709 -1.6496 -0.9173  0.1379
 1917SOL     vw 7668   5.166   6.276   0.702 -0.6227 -0.2124  0.0687
 1918SOL     ow 7669   4.130   3.026   5.021  0.4551  0.1991 -0.3252
 1918SOL     hw 7670   4.114   3.111   4.982  1.2791 -0.3139 -1.8450
 1918SOL     hw 7671   4.193   3.043   5.092 -0.6592  1.0599  0.4871
 1918SOL     vw 7672   4.137   3.039   5.025  0.4168  0.2450 -0.4182
 1919SOL     ow 7673   1.456   0.783   6.904  0.4596  0.0855  0.2325
 1919SOL     hw 7674   1.522   0.841   6.941  0.7785 -0.1263  0.0005
 1919SOL     hw 7675   1.374   0.832   6.911  0.9133  1.1122 -1.1291
 1919SOL     vw 7676   1.454   0.797   6.910  0.5615  0.1931  0.0222
 1920SOL     ow 7677   3.925   5.316   0.143 -0.8483 -0.2501  0.2040
 1920SOL     hw 7678   3.890   5.229   0.123 -1.7769 -0.7890  3.6017
 1920SOL     hw 7679   3.870   5.376   0.091 -2.0422 -1.5161 -0.0701
 1920SOL     vw 7680   3.913   5.312   0.133 -1.1282 -0.4883  0.6161
 1921SOL     ow 7681   2.250   3.917   3.934 -0.3532 -0.3169  0.4901
 1921SOL     hw 7682   2.302   3.964   3.869 -0.6512 -1.0511 -0.2985
 1921SOL     hw 7683   2.309   3.849   3.968 -0.8423 -1.2939 -0.5675
 1921SOL     vw 7684   2.265   3.914   3.930 -0.4570 -0.5428  0.2465
 1922SOL     ow 7685   2.459   0.902   1.141 -0.7652  0.2271 -0.4610
 1922SOL     hw 7686   2.375   0.911   1.186 -1.1910  0.4189 -1.2801
 1922SOL     hw 7687   2.508   0.979   1.167 -0.9347  0.2454 -0.1847
 1922SOL     vw 7688   2.454   0.913   1.150 -0.8438  0.2548 -0.5326
 1923SOL     ow 7689   4.372   5.163   0.026 -0.4124  0.6355  0.6869
 1923SOL     hw 7690   4.382   5.258   0.033 -0.4902  0.8166 -1.1820
 1923SOL     hw 7691   4.461   5.132   0.006 -0.8866  0.6917 -1.7730
 1923SOL     vw 7692   4.385   5.172   0.024 -0.4852  0.6666  0.1156
 1924SOL     ow 7693   0.272   4.089   3.945 -0.0550  0.7844 -0.3440
 1924SOL     hw 7694   0.240   4.045   3.866  0.8835  1.0785 -0.9001
 1924SOL     hw 7695   0.338   4.150   3.913  0.3544  0.8871  0.6778
 1924SOL     vw 7696   0.276   4.091   3.930  0.1229  0.8368 -0.2825
 1925SOL     ow 7697   0.859   4.968   6.957  0.6734  0.3391 -0.9586
 1925SOL     hw 7698   0.889   5.058   6.971 -0.2120  0.3776  1.0030
 1925SOL     hw 7699   0.880   4.923   7.039 -1.5614 -0.4600 -0.7743
 1925SOL     vw 7700   0.866   4.974   6.970  0.2617  0.2389 -0.6757
 1926SOL     ow 7701   1.725   5.211   3.574 -0.3154 -0.4942  0.1764
 1926SOL     hw 7702   1.645   5.176   3.535  0.5675 -1.5779 -0.7056
 1926SOL     hw 7703   1.794   5.188   3.512  0.2476  3.6989 -1.0768
 1926SOL     vw 7704   1.723   5.204   3.560 -0.1246 -0.0839 -0.1054
 1927SOL     ow 7705   3.537   7.091   2.324  0.3323 -0.1691 -0.0881
 1927SOL     hw 7706   3.469   7.057   2.265 -1.2315 -0.3941  1.7648
 1927SOL     hw 7707   3.568   7.170   2.280 -2.2870  0.8527 -0.2702
 1927SOL     vw 7708   3.532   7.097   2.310 -0.2195 -0.0641  0.1322
 1928SOL     ow 7709   2.822   3.693   3.622  0.6406 -0.7422 -0.3113
 1928SOL     hw 7710   2.866   3.636   3.684  0.3568 -0.3980  0.2107
 1928SOL     hw 7711   2.769   3.752   3.676  1.7038  0.6836 -0.7625
 1928SOL     vw 7712   2.821   3.694   3.637  0.7434 -0.5087 -0.3020
 1929SOL     ow 7713   5.204   3.723   2.098  0.0691 -0.1002  0.1730
 1929SOL     hw 7714   5.148   3.795   2.126  0.1798 -0.3332  1.0245
 1929SOL     hw 7715   5.250   3.756   2.020  1.6673  1.5326  1.7217
 1929SOL     vw 7716   5.203   3.737   2.091  0.2947  0.0844  0.4896
 1930SOL     ow 7717   2.513   0.851   4.283 -0.4224 -0.3948  0.0001
 1930SOL     hw 7718   2.477   0.927   4.329 -2.5725 -1.6837  0.5824
 1930SOL     hw 7719   2.451   0.834   4.213 -1.0533 -2.7280  1.0486
 1930SOL     vw 7720   2.500   0.859   4.280 -0.7894 -0.8727  0.2153
 1931SOL     ow 7721   4.742   0.172   6.019 -0.2568  0.1341 -0.1130
 1931SOL     hw 7722   4.654   0.208   6.031  0.1163  0.4948  1.8248
 1931SOL     hw 7723   4.730   0.099   5.958 -1.7601  0.6490 -0.4792
 1931SOL     vw 7724   4.729   0.167   6.012 -0.4058  0.2496  0.0944
 1932SOL     ow 7725   1.308   5.039   0.144 -0.1532  0.2902  0.6984
 1932SOL     hw 7726   1.223   4.999   0.162 -0.2592  0.2247  0.0612
 1932SOL     hw 7727   1.292   5.097   0.069  0.7926 -1.2827 -0.8028
 1932SOL     vw 7728   1.295   5.042   0.136 -0.0424  0.0741  0.4163
 1933SOL     ow 7729   2.030   1.904   4.920  0.0928 -0.4783  0.2470
 1933SOL     hw 7730   1.940   1.905   4.953 -0.4728 -2.6003 -1.0856
 1933SOL     hw 7731   2.022   1.932   4.829  0.9754  0.4712  0.4416
 1933SOL     vw 7732   2.017   1.908   4.913  0.1347 -0.6330  0.0968
 1934SOL     ow 7733   2.955   3.920   3.343 -0.6703  0.1232  0.6028
 1934SOL     hw 7734   2.956   4.015   3.333  0.6671 -0.0065 -1.0197
 1934SOL     hw 7735   2.935   3.887   3.255 -2.4927 -1.1089  1.4312
 1934SOL     vw 7736   2.953   3.928   3.330 -0.7343 -0.0565  0.4982
 1935SOL     ow 7737   2.616   4.960   2.920  0.4274 -0.5617 -0.8109
 1935SOL     hw 7738   2.556   4.919   2.982  0.2393  1.9706  0.8508
 1935SOL     hw 7739   2.584   4.935   2.834 -1.1710 -1.7243  0.0813
 1935SOL     vw 7740   2.604   4.951   2.917  0.1917 -0.3810 -0.4740
 1936SOL     ow 7741   1.003   2.334   6.587  0.0588 -1.1817  0.4944
 1936SOL     hw 7742   0.974   2.309   6.675 -1.1901 -0.3250  0.3511
 1936SOL     hw 7743   0.923   2.365   6.543  1.1164  0.8752 -0.0758
 1936SOL     vw 7744   0.988   2.335   6.593  0.0335 -0.7974  0.4001
 1937SOL     ow 7745   0.866   6.164   4.608  0.5411  0.0515  0.0263
 1937SOL     hw 7746   0.811   6.094   4.645 -0.0184  1.0291  1.1004
 1937SOL     hw 7747   0.857   6.237   4.669  1.3756  0.9689 -0.9024
 1937SOL     vw 7748   0.858   6.164   4.621  0.5774  0.3014  0.0455
 1938SOL     ow 7749   3.546   0.953   6.742 -0.2829  0.0781  0.3297
 1938SOL     hw 7750   3.598   0.911   6.810 -0.3441  0.3557  0.5528
 1938SOL     hw 7751   3.563   1.047   6.754 -0.8991  0.1776  0.4635
 1938SOL     vw 7752   3.555   0.960   6.752 -0.3722  0.1279  0.3769
 1939SOL     ow 7753   5.011   4.797   4.924 -1.0237 -0.3193  0.4310
 1939SOL     hw 7754   4.996   4.888   4.947 -2.2896 -0.0085 -1.4134
 1939SOL     hw 7755   5.105   4.784   4.939 -0.3871  1.8977 -1.1219
 1939SOL     vw 7756   5.022   4.807   4.929 -1.1067  0.0141 -0.0174
 1940SOL     ow 7757   4.371   5.919   2.085 -0.0539  0.6457 -0.0501
 1940SOL     hw 7758   4.380   5.847   2.147 -0.6083 -0.1460 -0.8563
 1940SOL     hw 7759   4.460   5.937   2.055  0.2801  1.3452  1.2791
 1940SOL     vw 7760   4.384   5.912   2.089 -0.0827  0.6335  0.0188
 1941SOL     ow 7761   3.881   0.064   1.533 -0.6882 -1.0981 -0.0480
 1941SOL     hw 7762   3.884  -0.020   1.578  0.8662  0.1992  2.5331
 1941SOL     hw 7763   3.805   0.110   1.570 -0.4340 -0.6728 -0.0389
 1941SOL     vw 7764   3.872   0.059   1.544 -0.4495 -0.8709  0.2937
 1942SOL     ow 7765   0.306   5.470   2.445 -0.1188  1.0635 -0.1250
 1942SOL     hw 7766   0.270   5.389   2.482  0.8789  0.4911 -0.3539
 1942SOL     hw 7767   0.250   5.539   2.479  0.1120  0.4562  1.5948
 1942SOL     vw 7768   0.294   5.468   2.455  0.0433  0.9081  0.0716
 1943SOL     ow 7769   6.704   6.599   2.764  0.3501 -0.4689 -0.1254
 1943SOL     hw 7770   6.709   6.506   2.786 -0.6669 -0.3290  0.8073
 1943SOL     hw 7771   6.645   6.636   2.830  1.4951  1.0296  0.1013
 1943SOL     vw 7772   6.697   6.591   2.775  0.3669 -0.2527  0.0275
 1944SOL     ow 7773   3.701   1.255   0.238  0.8403 -0.5221 -0.2064
 1944SOL     hw 7774   3.729   1.313   0.310  0.5558  1.7852 -1.8439
 1944SOL     hw 7775   3.777   1.253   0.179 -0.3365  1.0855 -1.8616
 1944SOL     vw 7776   3.715   1.262   0.240  0.6474 -0.0056 -0.6408
 1945SOL     ow 7777   3.673   1.107   6.380 -0.6118  0.6404  0.0526
 1945SOL     hw 7778   3.596   1.054   6.399 -0.4188  0.2898 -0.1416
 1945SOL     hw 7779   3.639   1.180   6.328 -0.8551  0.6399  0.2094
 1945SOL     vw 7780   3.658   1.110   6.376 -0.6183  0.5941  0.0477
 1946SOL     ow 7781   3.531   5.260   6.784  0.0010 -0.4300 -0.1044
 1946SOL     hw 7782   3.458   5.253   6.846 -0.5379 -1.5536 -0.8145
 1946SOL     hw 7783   3.541   5.171   6.750  0.0894  0.1973 -1.8261
 1946SOL     vw 7784   3.523   5.247   6.788 -0.0584 -0.4954 -0.4251
 1947SOL     ow 7785   4.165   6.388   0.172 -0.0950 -0.9318 -0.4884
 1947SOL     hw 7786   4.157   6.421   0.262  0.8705 -2.7767  0.3250
 1947SOL     hw 7787   4.231   6.444   0.132 -1.1630  0.4753 -0.3665
 1947SOL     vw 7788   4.173   6.400   0.178 -0.1085 -0.9897 -0.3650
 1948SOL     ow 7789   4.940   6.989   6.946 -0.0864 -0.2112 -0.3283
 1948SOL     hw 7790   4.847   6.981   6.928 -0.6142  0.2243  1.9412
 1948SOL     hw 7791   4.958   7.083   6.942  0.3941 -0.3210 -1.2060
 1948SOL     vw 7792   4.930   7.000   6.943 -0.0930 -0.1681 -0.1445
 1949SOL     ow 7793   1.491   4.481   7.007  0.0370  1.0926  0.1874
 1949SOL     hw 7794   1.423   4.417   7.028  0.1565  0.1641 -1.9806
 1949SOL     hw 7795   1.536   4.444   6.931  1.2293  2.9753 -0.0947
 1949SOL     vw 7796   1.488   4.468   7.000  0.2101  1.2186 -0.1359
 1950SOL     ow 7797   3.927   5.048   2.809  0.5431 -0.2245  0.5777
 1950SOL     hw 7798   3.910   4.967   2.760 -1.1147  1.7211 -2.4368
 1950SOL     hw 7799   3.976   5.103   2.748 -0.4562  1.8969  1.5637
 1950SOL     vw 7800   3.931   5.045   2.794  0.1924  0.3121  0.3099
 1951SOL     ow 7801   6.679   0.082   3.886 -0.1519 -0.1323  0.4379
 1951SOL     hw 7802   6.702   0.147   3.951 -0.2743  2.0061 -1.5155
 1951SOL     hw 7803   6.718   0.114   3.805 -3.8428 -0.0500 -1.5497
 1951SOL     vw 7804   6.687   0.095   3.884 -0.6549  0.1607 -0.0819
 1952SOL     ow 7805   6.556   0.287   3.698  0.0944 -0.5087 -0.1492
 1952SOL     hw 7806   6.505   0.270   3.620  0.5313 -1.3311 -0.2598
 1952SOL     hw 7807   6.498   0.339   3.754  0.8539  2.9954 -2.3180
 1952SOL     vw 7808   6.541   0.292   3.695  0.2525 -0.1548 -0.4499
 1953SOL     ow 7809   1.207   0.079   0.447  0.7187  0.2570 -0.5314
 1953SOL     hw 7810   1.124   0.105   0.488  0.6452  1.1863 -1.2471
 1953SOL     hw 7811   1.275   0.117   0.503  0.6482  0.2462 -0.4380
 1953SOL     vw 7812   1.205   0.087   0.460  0.6998  0.3782 -0.6135
 1954SOL     ow 7813   2.562   2.604   5.176 -0.7698  0.5877 -0.6483
 1954SOL     hw 7814   2.483   2.615   5.124 -0.1561  2.4366 -1.2680
 1954SOL     hw 7815   2.617   2.680   5.153  2.4105 -1.9854 -2.3938
 1954SOL     vw 7816   2.559   2.616   5.166 -0.2693  0.4922 -0.9603
 1955SOL     ow 7817   1.513   5.081   1.394 -0.3553 -0.1152 -0.0615
 1955SOL     hw 7818   1.427   5.092   1.355 -0.6766 -1.3557  0.2587
 1955SOL     hw 7819   1.512   5.137   1.471 -0.8469 -0.0619 -0.1072
 1955SOL     vw 7820   1.502   5.090   1.399 -0.4625 -0.2718 -0.0253
 1956SOL     ow 7821   3.652   1.431   3.087 -0.1108  0.2462  0.4612
 1956SOL     hw 7822   3.744   1.424   3.114  0.3642 -1.7847 -1.3669
 1956SOL     hw 7823   3.614   1.346   3.112 -0.2894 -0.7040 -2.6985
 1956SOL     vw 7824   3.659   1.419   3.094 -0.0716 -0.1470 -0.1968
 1957SOL     ow 7825   2.333   2.908   2.209  0.4475  0.7712  0.2285
 1957SOL     hw 7826   2.278   2.977   2.246 -0.3311  0.1963  0.1661
 1957SOL     hw 7827   2.397   2.955   2.155  0.8317  1.5408  1.3078
 1957SOL     vw 7828   2.334   2.923   2.207  0.3954  0.7969  0.3626
 1958SOL     ow 7829   4.221   5.471   5.306 -0.7208 -0.6070 -0.3663
 1958SOL     hw 7830   4.185   5.454   5.393  2.8076 -0.0609  1.3872
 1958SOL     hw 7831   4.210   5.566   5.294  3.8817  0.6019  2.3802
 1958SOL     vw 7832   4.215   5.481   5.316  0.3521 -0.3757  0.2275
 1959SOL     ow 7833   1.709   6.014   3.768  0.0900  0.0760  0.5039
 1959SOL     hw 7834   1.731   6.063   3.689 -2.0210  2.4799  1.2698
 1959SOL     hw 7835   1.783   5.955   3.781  0.6543 -0.2162 -3.0519
 1959SOL     vw 7836   1.722   6.013   3.759 -0.1141  0.3545  0.1358
 1960SOL     ow 7837   0.567   0.326   6.940  0.8001 -0.3617 -0.3318
 1960SOL     hw 7838   0.526   0.355   6.859  0.9024  1.3048  0.1851
 1960SOL     hw 7839   0.646   0.380   6.949 -0.1175  0.7479  1.7345
 1960SOL     vw 7840   0.572   0.337   6.930  0.6926  0.0045  0.0088
 1961SOL     ow 7841   3.546   2.483   6.426  0.1855 -0.0241 -0.0854
 1961SOL     hw 7842   3.503   2.481   6.512  0.8805 -1.6293  0.2756
 1961SOL     hw 7843   3.498   2.549   6.377 -1.2264 -0.1458  1.0376
 1961SOL     vw 7844   3.534   2.491   6.431  0.0910 -0.2519  0.1104
 1962SOL     ow 7845   0.610   2.675   6.553 -0.3347 -0.9743 -0.3657
 1962SOL     hw 7846   0.570   2.722   6.626 -2.4026 -0.5852 -1.6642
 1962SOL     hw 7847   0.674   2.738   6.517 -0.7373 -0.3970 -0.0901
 1962SOL     vw 7848   0.613   2.690   6.558 -0.6606 -0.8467 -0.5009
 1963SOL     ow 7849   3.806   5.303   6.834 -0.4388 -0.4265  0.1007
 1963SOL     hw 7850   3.788   5.216   6.870 -2.1000  0.1317  0.6744
 1963SOL     hw 7851   3.896   5.321   6.861 -0.8617 -0.9961  2.0471
 1963SOL     vw 7852   3.816   5.294   6.842 -0.7136 -0.4280  0.4330
 1964SOL     ow 7853   2.112   5.942   4.131  0.1996 -0.2356 -0.3993
 1964SOL     hw 7854   2.116   5.853   4.166  0.6359 -1.2485 -2.8095
 1964SOL     hw 7855   2.019   5.961   4.122  0.1040 -0.3894  0.2637
 1964SOL     vw 7856   2.101   5.933   4.134  0.2446 -0.3893 -0.6299
 1965SOL     ow 7857   3.878   1.141   1.787 -0.2352 -0.6641  0.1550
 1965SOL     hw 7858   3.900   1.196   1.711  3.1214 -0.3820  1.1555
 1965SOL     hw 7859   3.854   1.056   1.749  0.5579 -0.2831 -1.2674
 1965SOL     vw 7860   3.878   1.137   1.772  0.3124 -0.5766  0.0994
 1966SOL     ow 7861   5.420   6.904   0.395  0.9092  0.5809 -0.3569
 1966SOL     hw 7862   5.330   6.905   0.427  0.2944 -0.6016 -1.9093
 1966SOL     hw 7863   5.441   6.997   0.382 -1.0116  0.8283 -2.3120
 1966SOL     vw 7864   5.411   6.917   0.397  0.5748  0.4578 -0.8197
 1967SOL     ow 7865   1.911   0.461   4.702  0.2851 -0.4320  0.0817
 1967SOL     hw 7866   1.939   0.517   4.630 -1.7604  1.6661  0.7996
 1967SOL     hw 7867   1.980   0.472   4.768  0.0962  1.1047  0.0815
 1967SOL     vw 7868   1.924   0.470   4.701 -0.0097  0.0476  0.1762
 1968SOL     ow 7869   1.663   3.635   0.071  0.2370  0.0398 -0.4846
 1968SOL     hw 7870   1.589   3.688   0.102  0.1092 -0.2660 -0.2605
 1968SOL     hw 7871   1.668   3.563   0.133 -0.5492 -1.0529 -1.6424
 1968SOL     vw 7872   1.654   3.633   0.083  0.1164 -0.1447 -0.6078
 1969SOL     ow 7873   5.573   5.127   6.174  0.0126  0.1239  0.5271
 1969SOL     hw 7874   5.509   5.198   6.165 -0.7483 -0.6819 -0.8928
 1969SOL     hw 7875   5.656   5.166   6.148 -0.5270  0.3389 -0.9787
 1969SOL     vw 7876   5.575   5.141   6.169 -0.1590  0.0460  0.1414
 1970SOL     ow 7877   2.628   2.024   1.302  0.4309  0.5202 -0.5190
 1970SOL     hw 7878   2.595   1.987   1.384 -1.8446  2.3969 -0.4765
 1970SOL     hw 7879   2.603   1.960   1.235 -0.4241  0.3765 -0.0810
 1970SOL     vw 7880   2.620   2.011   1.304  0.0179  0.7489 -0.4556
 1971SOL     ow 7881   1.681   1.622   3.270  0.2302  0.0271 -0.2434
 1971SOL     hw 7882   1.628   1.543   3.266 -1.6859  0.9896  2.8849
 1971SOL     hw 7883   1.620   1.691   3.296  2.7026  1.3959  2.6354
 1971SOL     vw 7884   1.666   1.621   3.273  0.3036  0.3347  0.5491
 1972SOL     ow 7885   2.776   3.078   6.231  0.8725  0.0427 -0.0017
 1972SOL     hw 7886   2.723   3.027   6.168  1.1834  0.0598 -0.2822
 1972SOL     hw 7887   2.843   3.016   6.260  0.5130 -0.0786  0.6013
 1972SOL     vw 7888   2.778   3.063   6.226  0.8661  0.0288  0.0405
 1973SOL     ow 7889   2.393   7.006   6.726 -0.1290 -0.2027 -0.1272
 1973SOL     hw 7890   2.358   6.953   6.653 -2.0164 -1.9034  1.8595
 1973SOL     hw 7891   2.317   7.053   6.759  0.4862 -0.2022  1.3309
 1973SOL     vw 7892   2.378   7.005   6.721 -0.2968 -0.4272  0.3271
 1974SOL     ow 7893   4.730   5.058   2.109 -0.3254  0.2563  0.2649
 1974SOL     hw 7894   4.704   5.143   2.075 -1.9108 -0.6378 -0.9026
 1974SOL     hw 7895   4.809   5.076   2.161  0.2932  2.1777 -1.2187
 1974SOL     vw 7896   4.737   5.071   2.112 -0.4532  0.3917 -0.0849
 1975SOL     ow 7897   1.301   0.942   5.438 -0.1560 -0.0645 -0.1615
 1975SOL     hw 7898   1.342   0.880   5.378 -0.5532  0.9109 -1.4902
 1975SOL     hw 7899   1.275   1.016   5.382 -3.9262 -0.6970  0.4622
 1975SOL     vw 7900   1.303   0.943   5.423 -0.7058 -0.0193 -0.2546
 1976SOL     ow 7901   7.179   0.515   2.088 -0.1587  0.2430 -0.5494
 1976SOL     hw 7902   7.211   0.581   2.149  0.1109 -0.1960 -0.2130
 1976SOL     hw 7903   7.095   0.549   2.058  0.8534  1.7133 -1.8909
 1976SOL     vw 7904   7.172   0.528   2.092  0.0103  0.3791 -0.6821
 1977SOL     ow 7905   4.526   1.014   1.114  0.1890 -0.2026 -1.4460
 1977SOL     hw 7906   4.549   1.045   1.202  0.3342 -1.6987 -0.9386
 1977SOL     hw 7907   4.517   1.095   1.062  2.0911  0.6294 -0.5735
 1977SOL     vw 7908   4.528   1.029   1.119  0.4590 -0.2902 -1.2640
 1978SOL     ow 7909   1.834   4.511   3.776 -0.1580  0.1674 -0.3884
 1978SOL     hw 7910   1.780   4.433   3.758 -1.6403  0.1667  3.1090
 1978SOL     hw 7911   1.911   4.476   3.822  1.4447  0.4564 -2.7340
 1978SOL     vw 7912   1.837   4.496   3.780 -0.1421  0.2058 -0.2364
 1979SOL     ow 7913   0.748   4.599   5.062  0.0210 -0.8477  0.1905
 1979SOL     hw 7914   0.803   4.623   4.988 -1.0274 -0.9061 -0.6353
 1979SOL     hw 7915   0.806   4.551   5.122  1.2113  0.4228  0.0762
 1979SOL     vw 7916   0.763   4.595   5.060  0.0398 -0.6876  0.0668
 1980SOL     ow 7917   5.886   4.639   4.519  0.2380 -0.0654 -0.3181
 1980SOL     hw 7918   5.890   4.572   4.450  0.0167 -0.8402  0.4063
 1980SOL     hw 7919   5.947   4.706   4.490 -0.0548 -0.2401 -1.4133
 1980SOL     vw 7920   5.894   4.639   4.506  0.1705 -0.1907 -0.3672
 1981SOL     ow 7921   6.288   4.838   2.734  0.0949  0.2490  0.3221
 1981SOL     hw 7922   6.364   4.864   2.681  1.6330 -1.1973  1.6899
 1981SOL     hw 7923   6.326   4.791   2.808 -2.1854 -0.6426  1.0013
 1981SOL     vw 7924   6.303   4.836   2.737 -0.0029 -0.0596  0.5921
 1982SOL     ow 7925   7.016   4.925   4.857 -0.0208  0.5594 -0.4612
 1982SOL     hw 7926   7.050   4.954   4.942 -0.8152 -0.0740  0.0862
 1982SOL     hw 7927   7.091   4.935   4.798  1.1639 -0.8103  0.7087
 1982SOL     vw 7928   7.031   4.930   4.861  0.0308  0.2952 -0.2346
 1983SOL     ow 7929   4.025   5.665   4.277  0.6434  0.6467 -0.3682
 1983SOL     hw 7930   4.021   5.624   4.191  0.5945 -1.8948  0.7556
 1983SOL     hw 7931   4.106   5.717   4.275  1.1773 -0.1883 -1.6123
 1983SOL     vw 7932   4.035   5.666   4.266  0.7074  0.2012 -0.3839
 1984SOL     ow 7933   6.598   3.273   3.810 -0.0645  0.0539  0.1903
 1984SOL     hw 7934   6.560   3.199   3.761 -1.7880  0.3093  1.0518
 1984SOL     hw 7935   6.681   3.240   3.842  3.2722  1.0137 -5.9363
 1984SOL     vw 7936   6.604   3.259   3.808  0.1483  0.2142 -0.5044
 1985SOL     ow 7937   1.787   5.868   2.046 -0.0827 -0.0031 -0.2874
 1985SOL     hw 7938   1.732   5.791   2.056 -1.0538  0.7518  0.3470
 1985SOL     hw 7939   1.854   5.858   2.114 -1.7297  0.9534  1.5704
 1985SOL     vw 7940   1.789   5.856   2.057 -0.4281  0.2227  0.0414
 1986SOL     ow 7941   2.963   3.548   3.781  0.4241 -0.1479  0.2056
 1986SOL     hw 7942   2.948   3.466   3.827 -2.8186  0.4745  0.4702
 1986SOL     hw 7943   2.989   3.610   3.850 -1.0722 -0.0383  0.7062
 1986SOL     vw 7944   2.964   3.545   3.796 -0.2012 -0.0513  0.3066
 1987SOL     ow 7945   4.421   3.003   3.686 -0.8077 -0.3703 -0.7348
 1987SOL     hw 7946   4.351   2.965   3.738 -0.0565  1.6666  2.0348
 1987SOL     hw 7947   4.383   3.083   3.649  0.0980  1.0736  1.2875
 1987SOL     vw 7948   4.407   3.009   3.688 -0.5889  0.0889 -0.1025
 1988SOL     ow 7949   2.067   1.842   6.509  0.3096 -0.4677  0.6676
 1988SOL     hw 7950   2.073   1.755   6.549  1.2010 -0.4199  0.6564
 1988SOL     hw 7951   2.040   1.899   6.581 -1.2999 -0.9046  0.4434
 1988SOL     vw 7952   2.064   1.838   6.524  0.2147 -0.5190  0.6363
 1989SOL     ow 7953   3.209   0.030   3.964 -0.5440  0.4041  0.2778
 1989SOL     hw 7954   3.294   0.071   3.948 -0.6246 -0.1713 -1.8673
 1989SOL     hw 7955   3.152   0.063   3.894 -1.0706 -1.9405 -0.4921
 1989SOL     vw 7956   3.213   0.040   3.953 -0.6241  0.0188 -0.1068
 1990SOL     ow 7957   0.790   6.832   3.900 -0.4701 -0.0838 -0.6070
 1990SOL     hw 7958   0.794   6.757   3.960 -0.8383 -0.5302 -1.1217
 1990SOL     hw 7959   0.774   6.907   3.956 -1.4709 -0.5819 -0.1950
 1990SOL     vw 7960   0.788   6.832   3.915 -0.6507 -0.2086 -0.6204
 1991SOL     ow 7961   6.070   1.262   5.619  0.1787  0.2364  0.4720
 1991SOL     hw 7962   6.030   1.336   5.575 -1.0702  0.0654  1.2820
 1991SOL     hw 7963   6.001   1.196   5.624  1.0994 -0.7671  0.2825
 1991SOL     vw 7964   6.056   1.263   5.614  0.1354  0.0815  0.5538
 1992SOL     ow 7965   5.582   1.358   1.848 -0.0646 -0.0757  0.2194
 1992SOL     hw 7966   5.548   1.324   1.765 -1.2301 -0.7810  0.9652
 1992SOL     hw 7967   5.613   1.446   1.826  0.1848 -0.4647 -1.0798
 1992SOL     vw 7968   5.581   1.365   1.834 -0.1857 -0.2201  0.1464
 1993SOL     ow 7969   3.028   6.734   5.721 -0.5506  0.3808  1.1184
 1993SOL     hw 7970   3.030   6.693   5.807  1.4687 -1.0874  0.4509
 1993SOL     hw 7971   3.117   6.766   5.707 -0.4589 -0.5601 -0.9036
 1993SOL     vw 7972   3.040   6.733   5.730 -0.2722  0.0634  0.7634
 1994SOL     ow 7973   6.206   2.579   4.693  0.0173  0.5073 -0.1397
 1994SOL     hw 7974   6.300   2.571   4.676  0.0360  1.0467 -0.3275
 1994SOL     hw 7975   6.171   2.620   4.614 -0.3221  0.6332  0.0727
 1994SOL     vw 7976   6.214   2.583   4.680 -0.0250  0.5950 -0.1366
 1995SOL     ow 7977   5.193   0.633   1.587 -0.4836  0.0198  0.0736
 1995SOL     hw 7978   5.223   0.711   1.541  1.5473  0.0562  1.3202
 1995SOL     hw 7979   5.270   0.603   1.636 -1.7230 -1.6865  1.0985
 1995SOL     vw 7980   5.207   0.639   1.588 -0.3793 -0.2005  0.3733
 1996SOL     ow 7981   6.475   5.562   6.858  0.2374 -0.0557 -0.4096
 1996SOL     hw 7982   6.491   5.577   6.765 -1.9492 -0.6446 -0.9371
 1996SOL     hw 7983   6.392   5.607   6.876 -0.2016 -1.2815  0.8468
 1996SOL     vw 7984   6.466   5.570   6.848 -0.1090 -0.2956 -0.3135
 1997SOL     ow 7985   6.410   0.804   3.106 -0.8523  0.0780 -0.5634
 1997SOL     hw 7986   6.484   0.743   3.109  0.4055  1.5360 -0.8089
 1997SOL     hw 7987   6.387   0.808   3.013 -0.2578  0.7286 -0.6929
 1997SOL     vw 7988   6.417   0.797   3.094 -0.6080  0.3562 -0.6130
 1998SOL     ow 7989   2.233   3.442   4.535  0.0623 -0.4165 -0.4902
 1998SOL     hw 7990   2.269   3.485   4.457 -2.9595  2.4530 -0.5333
 1998SOL     hw 7991   2.234   3.510   4.602 -0.9517 -1.6129  0.7906
 1998SOL     vw 7992   2.238   3.456   4.533 -0.4703 -0.1957 -0.3269
 1999SOL     ow 7993   1.723   0.976   5.596  0.2962  0.4278  0.1599
 1999SOL     hw 7994   1.651   1.039   5.603  2.1596  2.6825  0.4034
 1999SOL     hw 7995   1.756   0.968   5.686 -0.3244 -1.4991  0.2581
 1999SOL     vw 7996   1.718   0.983   5.609  0.4601  0.4711  0.2050
 2000SOL     ow 7997   6.995   6.064   6.757  0.0603 -0.1149  0.3950
 2000SOL     hw 7998   6.983   6.139   6.699  0.9126 -2.0177 -2.4819
 2000SOL     hw 7999   7.081   6.078   6.796  0.4859  0.1412 -0.5931
 2000SOL     vw 8000   7.005   6.076   6.754  0.2291 -0.3321 -0.1149
 2001SOL     ow 8001   4.018   0.311   4.267  0.3884  0.1498 -0.4698
 2001SOL     hw 8002   4.075   0.351   4.201  0.4158  0.2668 -0.3769
 2001SOL     hw 8003   4.076   0.252   4.316 -0.0029 -1.3122 -1.6812
 2001SOL     vw 8004   4.033   0.309   4.265  0.3402 -0.0277 -0.6175
 2002SOL     ow 8005   4.427   5.053   5.816  0.3341  0.6108 -0.2024
 2002SOL     hw 8006   4.472   5.114   5.757  2.4290 -0.5960  0.0444
 2002SOL     hw 8007   4.455   4.966   5.787 -1.6489 -0.2100  0.1875
 2002SOL     vw 8008   4.436   5.050   5.805  0.3488  0.3433 -0.1183
 2003SOL     ow 8009   4.630   6.973   0.850  1.1383  0.2505  0.3041
 2003SOL     hw 8010   4.666   7.005   0.932  0.2441 -1.1189  1.2954
 2003SOL     hw 8011   4.660   6.882   0.845  2.7586  0.8215 -1.8780
 2003SOL     vw 8012   4.639   6.965   0.860  1.2341  0.1450  0.1470
 2004SOL     ow 8013   4.296   2.483   0.099 -0.2043 -0.3570 -0.9681
 2004SOL     hw 8014   4.216   2.431   0.102  0.4226 -1.3022 -0.2230
 2004SOL     hw 8015   4.346   2.446   0.026  0.7551 -1.6222  0.2708
 2004SOL     vw 8016   4.292   2.471   0.089  0.0048 -0.6486 -0.7063
 2005SOL     ow 8017   4.301   4.030   4.998  0.0490 -0.0584 -0.1474
 2005SOL     hw 8018   4.292   3.935   5.006  1.8490 -0.1821  1.1810
 2005SOL     hw 8019   4.352   4.042   4.918 -3.8020  0.1446 -2.8070
 2005SOL     vw 8020   4.307   4.019   4.989 -0.2217 -0.0482 -0.3231
 2006SOL     ow 8021   1.047   3.973   2.671  0.3991 -0.7510  0.6462
 2006SOL     hw 8022   1.018   3.887   2.641  0.5065 -0.4865 -0.2568
 2006SOL     hw 8023   0.994   4.035   2.621  1.1287 -0.2866  0.4237
 2006SOL     vw 8024   1.037   3.970   2.660  0.5095 -0.6548  0.4977
 2007SOL     ow 8025   4.731   3.590   4.695  0.3265 -0.0094  1.2094
 2007SOL     hw 8026   4.790   3.516   4.681  0.3413 -0.2514  2.4590
 2007SOL     hw 8027   4.693   3.606   4.609  2.7179  0.6072  0.1857
 2007SOL     vw 8028   4.734   3.582   4.682  0.6437  0.0401  1.2393
 2008SOL     ow 8029   3.148   6.310   0.261 -0.0421 -0.1181 -0.4298
 2008SOL     hw 8030   3.103   6.362   0.328 -0.3078 -0.0782 -0.6387
 2008SOL     hw 8031   3.112   6.221   0.272 -0.0355 -0.1259 -0.4733
 2008SOL     vw 8032   3.137   6.305   0.271 -0.0763 -0.1140 -0.4631
 2009SOL     ow 8033   6.740   5.273   3.549 -0.2833 -0.7220 -0.5961
 2009SOL     hw 8034   6.731   5.282   3.454  0.7686 -2.4054 -0.8912
 2009SOL     hw 8035   6.659   5.229   3.576 -0.6474 -0.1130 -0.6797
 2009SOL     vw 8036   6.728   5.268   3.540 -0.1924 -0.8640 -0.6460
 2010SOL     ow 8037   5.210   5.384   2.156  0.0872 -0.7338  0.1820
 2010SOL     hw 8038   5.197   5.289   2.164  0.0112 -0.6306  1.5553
 2010SOL     hw 8039   5.241   5.396   2.067  1.9475 -2.2917  0.5310
 2010SOL     vw 8040   5.212   5.373   2.146  0.3226 -0.9258  0.4092
 2011SOL     ow 8041   1.624   5.669   0.598  0.8623  0.0984  0.7082
 2011SOL     hw 8042   1.680   5.717   0.538  1.6282  0.0296  1.3572
 2011SOL     hw 8043   1.680   5.648   0.673 -0.1708  0.5256  1.6320
 2011SOL     vw 8044   1.639   5.672   0.600  0.8270  0.1459  0.9157
 2012SOL     ow 8045   2.271   6.124   4.294  0.4144  0.7789 -0.2045
 2012SOL     hw 8046   2.324   6.053   4.331  1.3817  1.5205 -0.1262
 2012SOL     hw 8047   2.243   6.091   4.209  4.3017  1.7521 -2.0779
 2012SOL     vw 8048   2.274   6.110   4.288  1.0548  1.0052 -0.4416
 2013SOL     ow 8049   1.732   5.073   7.230 -0.1560  0.1285  0.3834
 2013SOL     hw 8050   1.725   4.979   7.246 -0.4235  0.2555  1.0469
 2013SOL     hw 8051   1.768   5.080   7.141 -1.8400 -0.5948 -0.4061
 2013SOL     vw 8052   1.736   5.062   7.220 -0.4135  0.0496  0.3669
 2014SOL     ow 8053   3.963   4.949   4.344 -0.0713  0.1022  0.5530
 2014SOL     hw 8054   4.002   4.982   4.263 -0.3465  0.6730  0.6414
 2014SOL     hw 8055   3.923   4.866   4.319 -3.0108  1.7359 -0.7548
 2014SOL     vw 8056   3.963   4.943   4.330 -0.4954  0.3929  0.3922
 2015SOL     ow 8057   4.010   1.318   6.008  0.3236 -0.4897  0.1668
 2015SOL     hw 8058   3.984   1.351   6.095  1.1132 -0.4666  0.4014
 2015SOL     hw 8059   4.098   1.352   5.995 -0.2605  0.5911 -1.2139
 2015SOL     vw 8060   4.018   1.327   6.018  0.3507 -0.3440  0.0157
 2016SOL     ow 8061   2.158   2.379   2.160 -0.1569  1.0884 -0.4002
 2016SOL     hw 8062   2.100   2.319   2.112  2.1368 -0.3649 -1.5260
 2016SOL     hw 8063   2.105   2.410   2.233 -1.1648 -3.4579  1.1245
 2016SOL     vw 8064   2.143   2.375   2.163  0.0128  0.2967 -0.3476
 2017SOL     ow 8065   6.193   6.062   3.722 -0.5853 -0.2774  0.7282
 2017SOL     hw 8066   6.197   6.154   3.747 -1.3484 -0.0044 -0.0797
 2017SOL     hw 8067   6.279   6.043   3.686 -1.2129  0.9136 -1.6136
 2017SOL     vw 8068   6.205   6.072   3.720 -0.7691 -0.0842  0.3127
 2018SOL     ow 8069   0.053   6.008   4.331  0.3598 -0.1665  0.0204
 2018SOL     hw 8070   0.086   6.097   4.341 -1.2668  0.4669 -0.0979
 2018SOL     hw 8071   0.068   5.967   4.417  1.6366  0.0030 -0.0955
 2018SOL     vw 8072   0.060   6.014   4.344  0.3136 -0.0608 -0.0103
 2019SOL     ow 8073   2.140   0.708   2.952  0.2865  0.2676 -0.1171
 2019SOL     hw 8074   2.092   0.778   2.908 -1.3286  0.2235  1.4581
 2019SOL     hw 8075   2.178   0.750   3.030  0.2658 -0.3430  0.2307
 2019SOL     vw 8076   2.139   0.722   2.957  0.0708  0.1813  0.1367
 2020SOL     ow 8077   3.792   2.638   5.126  0.5511  0.4877  0.5113
 2020SOL     hw 8078   3.770   2.695   5.200  0.9428 -0.4357  1.3625
 2020SOL     hw 8079   3.716   2.582   5.115  0.2938  0.9493 -0.1198
 2020SOL     vw 8080   3.779   2.638   5.135  0.5689  0.4268  0.5403
 2021SOL     ow 8081   0.805   0.077   0.302 -0.0518  0.3543 -0.3525
 2021SOL     hw 8082   0.859   0.093   0.379 -2.5187 -0.4167  1.6985
 2021SOL     hw 8083   0.725   0.128   0.318 -0.4879  0.4758 -2.6129
 2021SOL     vw 8084   0.801   0.086   0.315 -0.4348  0.2686 -0.3802
 2022SOL     ow 8085   6.314   0.498   4.595 -0.5245 -0.7205  0.4639
 2022SOL     hw 8086   6.225   0.470   4.615 -0.3383 -0.8182  1.2006
 2022SOL     hw 8087   6.362   0.483   4.676 -0.0493  0.1965  0.3597
 2022SOL     vw 8088   6.308   0.492   4.608 -0.4370 -0.6124  0.5472
 2023SOL     ow 8089   1.102   0.390   1.131 -0.0178  0.1681  1.0145
 2023SOL     hw 8090   1.120   0.339   1.210  0.9289 -0.1549  0.6081
 2023SOL     hw 8091   1.008   0.383   1.119  0.0156 -1.0530  1.2825
 2023SOL     vw 8092   1.092   0.382   1.140  0.1116 -0.0357  0.9962
 2024SOL     ow 8093   4.955   0.491   1.545 -0.2635  0.5927 -0.3427
 2024SOL     hw 8094   4.879   0.531   1.587 -0.3066  0.1031  0.0542
 2024SOL     hw 8095   5.023   0.558   1.550 -1.4399  2.2095 -3.2880
 2024SOL     vw 8096   4.953   0.505   1.551 -0.4246  0.7414 -0.6788
 2025SOL     ow 8097   1.909   5.830   3.748 -0.0593 -0.3708 -0.2707
 2025SOL     hw 8098   1.965   5.891   3.700 -0.0348 -0.7051 -0.6756
 2025SOL     hw 8099   1.948   5.744   3.732 -1.3296 -0.7527 -1.5078
 2025SOL     vw 8100   1.922   5.827   3.740 -0.2237 -0.4652 -0.4873
 2026SOL     ow 8101   3.750   1.180   4.560 -1.2404 -0.4659  0.7574
 2026SOL     hw 8102   3.769   1.266   4.596  1.3276  0.3132 -2.0481
 2026SOL     hw 8103   3.663   1.188   4.521 -0.3468  1.5296 -1.0090
 2026SOL     vw 8104   3.741   1.192   4.560 -0.7837 -0.0999  0.1545
 2027SOL     ow 8105   3.767   2.353   6.416  0.0736 -0.4457  0.2157
 2027SOL     hw 8106   3.682   2.392   6.437  0.3863  1.1659 -1.2638
 2027SOL     hw 8107   3.815   2.422   6.371  2.6779 -0.8887  2.0569
 2027SOL     vw 8108   3.762   2.367   6.413  0.4585 -0.2917  0.2632
 2028SOL     ow 8109   2.429   3.162   4.419 -0.2581 -0.5467 -0.1084
 2028SOL     hw 8110   2.508   3.187   4.371  0.0161 -0.2989  0.4696
 2028SOL     hw 8111   2.394   3.087   4.371  0.2013 -0.5114 -0.4974
 2028SOL     vw 8112   2.435   3.156   4.406 -0.1613 -0.5094 -0.0837
 2029SOL     ow 8113   4.493   3.740   6.982  0.3997 -0.2522  0.6010
 2029SOL     hw 8114   4.471   3.701   7.066  1.0143 -1.4389  0.2322
 2029SOL     hw 8115   4.449   3.826   6.983 -1.2423 -1.0559  1.3220
 2029SOL     vw 8116   4.484   3.746   6.993  0.2642 -0.5149  0.6475
 2030SOL     ow 8117   6.485   4.235   3.593 -0.7020  0.1439 -0.0305
 2030SOL     hw 8118   6.508   4.328   3.596 -2.0245  0.7142 -3.1837
 2030SOL     hw 8119   6.558   4.194   3.547 -0.4685 -0.2601  0.6902
 2030SOL     vw 8120   6.498   4.242   3.587 -0.8457  0.1662 -0.3513
 2031SOL     ow 8121   0.361   2.174   5.297 -0.1322  0.9688 -0.4589
 2031SOL     hw 8122   0.298   2.148   5.228 -0.3549  2.3003 -0.7816
 2031SOL     hw 8123   0.379   2.266   5.279 -1.0436  1.6794  1.9215
 2031SOL     vw 8124   0.355   2.182   5.285 -0.2819  1.2382 -0.1874
 2032SOL     ow 8125   0.072   4.007   5.988  0.1734 -0.0477  0.3984
 2032SOL     hw 8126   0.125   4.001   5.908  0.3356  0.4137  0.4723
 2032SOL     hw 8127   0.007   4.074   5.969  0.6280  0.5456  0.8924
 2032SOL     vw 8128   0.071   4.015   5.975  0.2548  0.0913  0.4735
 2033SOL     ow 8129   0.876   3.122   4.818 -0.1549 -0.2408  0.6481
 2033SOL     hw 8130   0.909   3.146   4.731  0.6984 -1.6379  0.5588
 2033SOL     hw 8131   0.789   3.162   4.822  1.2028  3.0806  0.6462
 2033SOL     vw 8132   0.869   3.131   4.807  0.1368  0.0131  0.6361
 2034SOL     ow 8133   4.332   3.364   5.129 -0.1307 -1.0149 -0.5474
 2034SOL     hw 8134   4.362   3.391   5.216  1.8544  1.8869 -1.9527
 2034SOL     hw 8135   4.259   3.423   5.110  0.6419 -0.3385 -1.5181
 2034SOL     vw 8136   4.326   3.376   5.138  0.2329 -0.5429 -0.8607
 2035SOL     ow 8137   1.272   4.436   1.800  0.0825 -0.2763  0.7656
 2035SOL     hw 8138   1.305   4.377   1.868 -1.0115  1.2538  2.7237
 2035SOL     hw 8139   1.337   4.505   1.795 -0.2413  0.0324  0.8254
 2035SOL     vw 8140   1.285   4.437   1.808 -0.1045 -0.0339  1.0318
 2036SOL     ow 8141   0.895   3.189   4.551 -0.3333 -0.6991 -0.2977
 2036SOL     hw 8142   0.943   3.267   4.523 -1.2278 -0.5887 -1.5931
 2036SOL     hw 8143   0.943   3.116   4.513 -1.4909 -0.5547 -2.1079
 2036SOL     vw 8144   0.908   3.190   4.542 -0.6040 -0.6655 -0.7074
 2037SOL     ow 8145   4.313   6.338   6.939  0.0332 -0.1353  0.3237
 2037SOL     hw 8146   4.361   6.351   7.021  0.1016 -0.5353  0.3470
 2037SOL     hw 8147   4.305   6.243   6.931  1.9309 -0.2084 -1.2415
 2037SOL     vw 8148   4.318   6.327   6.949  0.2925 -0.1976  0.1202
 2038SOL     ow 8149   3.949   1.141   6.593  0.8489 -0.4947 -0.0190
 2038SOL     hw 8150   3.934   1.101   6.678  1.6718 -1.1866 -0.1827
 2038SOL     hw 8151   4.027   1.194   6.605 -1.0146  2.3276  0.5848
 2038SOL     vw 8152   3.957   1.143   6.606  0.7117 -0.2136  0.0391
 2039SOL     ow 8153   5.070   6.050   4.656  0.6393  1.1172  0.2692
 2039SOL     hw 8154   5.148   6.013   4.615  1.1415  0.5931  1.6459
 2039SOL     hw 8155   5.054   5.994   4.732 -1.8997  0.3529 -0.7141
 2039SOL     vw 8156   5.078   6.037   4.661  0.3705  0.9472  0.3211
 2040SOL     ow 8157   3.063   1.274   5.283  0.3919 -0.7014  0.2110
 2040SOL     hw 8158   3.061   1.194   5.230 -0.4759  0.9836 -2.5066
 2040SOL     hw 8159   3.008   1.253   5.359  1.5724 -3.1832  0.4798
 2040SOL     vw 8160   3.055   1.261   5.286  0.4332 -0.8066 -0.1123
 2041SOL     ow 8161   2.100   1.679   6.212  0.7869  0.6336 -0.2526
 2041SOL     hw 8162   2.073   1.770   6.200 -1.7898  0.0761  0.6599
 2041SOL     hw 8163   2.020   1.634   6.238  2.3538 -1.5658  1.0740
 2041SOL     vw 8164   2.086   1.685   6.214  0.6537  0.2698  0.0429
 2042SOL     ow 8165   1.164   1.191   2.529 -0.0395 -0.3348 -0.0654
 2042SOL     hw 8166   1.240   1.134   2.513 -0.7740 -1.2878 -0.2114
 2042SOL     hw 8167   1.130   1.162   2.613 -0.8139 -0.5550 -0.4524
 2042SOL     vw 8168   1.170   1.180   2.538 -0.2386 -0.4895 -0.1358
 2043SOL     ow 8169   3.978   3.800   0.774 -0.0888  0.2316  0.4726
 2043SOL     hw 8170   3.884   3.801   0.757 -0.3915 -1.2077  1.7878
 2043SOL     hw 8171   4.015   3.862   0.712 -2.0456  1.7494  0.7449
 2043SOL     vw 8172   3.971   3.808   0.764 -0.3870  0.2419  0.6821
 2044SOL     ow 8173   0.587   5.351   2.521 -0.0007  0.5489  0.2496
 2044SOL     hw 8174   0.587   5.313   2.609 -0.4451 -2.0377 -0.7652
 2044SOL     hw 8175   0.654   5.419   2.524  1.5783 -0.9793  2.0128
 2044SOL     vw 8176   0.596   5.355   2.533  0.1490  0.0057  0.3484
 2045SOL     ow 8177   4.466   7.018   0.568 -0.8244  0.0709 -0.1400
 2045SOL     hw 8178   4.548   7.067   0.572  1.0156 -2.6500 -1.0578
 2045SOL     hw 8179   4.430   7.038   0.482  0.3270 -0.6823 -0.8370
 2045SOL     vw 8180   4.472   7.027   0.557 -0.4296 -0.3874 -0.3530
 2046SOL     ow 8181   5.758   4.496   4.800  0.4302  0.6776 -0.1599
 2046SOL     hw 8182   5.751   4.509   4.894  0.9547  1.7477 -0.2486
 2046SOL     hw 8183   5.668   4.497   4.768  0.0544 -2.0378  0.5704
 2046SOL     vw 8184   5.745   4.498   4.808  0.4497  0.4606 -0.0751
 2047SOL     ow 8185   5.692   6.752   0.422 -0.7491  0.4820  0.6838
 2047SOL     hw 8186   5.720   6.674   0.374 -1.0847  0.7440  0.0360
 2047SOL     hw 8187   5.734   6.746   0.507 -1.2863 -0.7353  0.8784
 2047SOL     vw 8188   5.701   6.741   0.427 -0.8643  0.3562  0.6240
 2048SOL     ow 8189   0.498   2.791   6.200  0.5234 -0.0229 -0.4438
 2048SOL     hw 8190   0.459   2.869   6.238  0.2638  0.3071 -1.3563
 2048SOL     hw 8191   0.462   2.719   6.251  1.5253  0.4905  1.0525
 2048SOL     vw 8192   0.488   2.792   6.212  0.6213  0.0885 -0.3669
 2049SOL     ow 8193   4.907   5.971   4.428 -0.2638  0.1511  0.0080
 2049SOL     hw 8194   4.838   5.915   4.392  0.1877  1.5035 -3.2759
 2049SOL     hw 8195   4.983   5.954   4.374  0.0934  3.2904 -0.6675
 2049SOL     vw 8196   4.908   5.962   4.416 -0.1569  0.7436 -0.5143
 2050SOL     ow 8197   4.805   3.954   5.208  0.3986 -0.2397  0.1279
 2050SOL     hw 8198   4.861   3.927   5.136 -0.7856 -1.7843 -0.2649
 2050SOL     hw 8199   4.720   3.917   5.187 -0.1798  0.0053  1.9110
 2050SOL     vw 8200   4.801   3.946   5.196  0.1662 -0.4113  0.3114
 2051SOL     ow 8201   0.333   1.403   6.385  0.8185  0.5347  0.5811
 2051SOL     hw 8202   0.365   1.432   6.470  0.7170 -3.2872  2.1180
 2051SOL     hw 8203   0.409   1.363   6.343  0.4617  0.8552 -0.4160
 2051SOL     vw 8204   0.347   1.402   6.391  0.7580  0.0728  0.6523
 2052SOL     ow 8205   1.993   4.057   3.929 -0.0184  0.7067  0.0708
 2052SOL     hw 8206   2.002   4.153   3.926 -0.8231  0.7816 -0.1121
 2052SOL     hw 8207   1.901   4.042   3.950 -0.1523 -0.0321 -0.9542
 2052SOL     vw 8208   1.982   4.068   3.931 -0.1423  0.6189 -0.0887
 2053SOL     ow 8209   2.429   7.146   1.602 -0.4545 -0.7506 -0.0203
 2053SOL     hw 8210   2.431   7.231   1.646  0.5178 -0.6951 -0.1618
 2053SOL     hw 8211   2.349   7.149   1.549 -2.5358 -1.3952  2.8464
 2053SOL     vw 8212   2.418   7.158   1.601 -0.6008 -0.8283  0.3392
 2054SOL     ow 8213   0.732   2.042   0.482 -0.2077  0.2426 -0.9441
 2054SOL     hw 8214   0.779   2.007   0.558  1.2776  0.1000 -1.8791
 2054SOL     hw 8215   0.732   2.137   0.495 -0.1827  0.2013 -0.6401
 2054SOL     vw 8216   0.738   2.050   0.494 -0.0084  0.2183 -1.0273
 2055SOL     ow 8217   0.686   0.301   0.825 -0.5302 -0.0898  0.2641
 2055SOL     hw 8218   0.699   0.207   0.840  2.0618  0.1258 -0.1218
 2055SOL     hw 8219   0.655   0.307   0.735  1.5382 -0.5321 -0.5358
 2055SOL     vw 8220   0.684   0.289   0.815  0.0847 -0.1197  0.1077
 2056SOL     ow 8221   0.025   5.045   5.770  0.2497 -0.5710  0.1253
 2056SOL     hw 8222  -0.047   4.983   5.771 -0.3751  0.1486  0.2524
 2056SOL     hw 8223   0.089   5.007   5.709 -1.1870 -0.1474 -1.7299
 2056SOL     vw 8224   0.024   5.032   5.762 -0.0223 -0.4203 -0.1023
 2057SOL     ow 8225   5.010   3.966   5.436  0.5159  0.2070  0.7133
 2057SOL     hw 8226   5.012   3.882   5.483 -1.9201 -1.3500 -1.6776
 2057SOL     hw 8227   5.103   3.988   5.423  1.2284 -1.3761  2.6048
 2057SOL     vw 8228   5.023   3.958   5.440  0.2882 -0.2073  0.6475
 2058SOL     ow 8229   5.143   6.187   5.472  0.2974  0.1997  0.6123
 2058SOL     hw 8230   5.170   6.203   5.563 -0.0217 -0.2752  0.7955
 2058SOL     hw 8231   5.222   6.151   5.431 -0.3305 -2.4738  1.4931
 2058SOL     vw 8232   5.157   6.184   5.479  0.1724 -0.2155  0.7529
 2059SOL     ow 8233   7.073   2.374   0.453 -0.4242  0.3653 -0.1506
 2059SOL     hw 8234   6.993   2.348   0.407  0.6157  0.3116 -2.0107
 2059SOL     hw 8235   7.058   2.465   0.477 -0.3339  0.9537 -2.1901
 2059SOL     vw 8236   7.061   2.382   0.450 -0.2749  0.4358 -0.6651
 2060SOL     ow 8237   1.662   2.999   3.360  0.0833  0.2045  0.2199
 2060SOL     hw 8238   1.669   2.930   3.426 -0.3122  0.2660  0.3257
 2060SOL     hw 8239   1.751   3.006   3.324  0.6375  1.0883  1.6613
 2060SOL     vw 8240   1.675   2.991   3.364  0.1042  0.3293  0.4240
 2061SOL     ow 8241   0.160   6.008   3.288 -0.5643  0.5310  0.2162
 2061SOL     hw 8242   0.153   6.100   3.312 -0.4588  0.2612  1.3312
 2061SOL     hw 8243   0.079   5.968   3.320 -1.2246  0.4677 -1.4456
 2061SOL     vw 8244   0.149   6.015   3.295 -0.6375  0.4871  0.1440
 2062SOL     ow 8245   3.846   4.967   4.653  0.5834  0.4851  0.3448
 2062SOL     hw 8246   3.789   4.908   4.702 -0.1282 -1.6616 -2.7430
 2062SOL     hw 8247   3.797   5.049   4.649 -0.0148  0.2297  1.8339
 2062SOL     vw 8248   3.832   4.970   4.659  0.4104  0.1681  0.1338
 2063SOL     ow 8249   2.969   7.116   2.699 -0.4634 -0.3498 -0.3678
 2063SOL     hw 8250   2.998   7.130   2.789 -1.4546  1.8004 -0.2998
 2063SOL     hw 8251   3.008   7.188   2.649 -2.4987  0.4393 -0.9657
 2063SOL     vw 8252   2.978   7.128   2.704 -0.8627  0.0381 -0.4376
 2064SOL     ow 8253   6.659   0.614   6.804  0.5005 -0.1006 -0.2279
 2064SOL     hw 8254   6.634   0.610   6.711 -2.0760  1.8634  0.2522
 2064SOL     hw 8255   6.619   0.537   6.843  0.6136 -0.3221 -0.5432
 2064SOL     vw 8256   6.650   0.603   6.797  0.1750  0.1293 -0.2060
 2065SOL     ow 8257   6.563   4.062   7.251 -0.1258 -0.1677  0.3345
 2065SOL     hw 8258   6.579   4.131   7.187 -0.9128 -1.6051 -1.5144
 2065SOL     hw 8259   6.483   4.019   7.220 -0.5426 -0.9295  2.3122
 2065SOL     vw 8260   6.555   4.066   7.238 -0.2847 -0.4582  0.3515
 2066SOL     ow 8261   0.458   4.204   4.390  0.1316  0.5022  0.0480
 2066SOL     hw 8262   0.466   4.145   4.315  0.6793 -1.5114  1.6327
 2066SOL     hw 8263   0.364   4.205   4.410  0.3739 -2.1010  1.6825
 2066SOL     vw 8264   0.447   4.196   4.382  0.2358 -0.1068  0.4725
 2067SOL     ow 8265   0.794   3.562   5.545  0.0961  0.2855  0.1716
 2067SOL     hw 8266   0.874   3.615   5.549 -0.3478  1.0419 -0.6034
 2067SOL     hw 8267   0.766   3.552   5.636  1.5596 -0.7782  0.5474
 2067SOL     vw 8268   0.801   3.567   5.557  0.2306  0.2450  0.1187
 2068SOL     ow 8269   5.358   6.098   0.602  0.7611 -0.0900 -0.2771
 2068SOL     hw 8270   5.274   6.053   0.593  0.6655  0.3952 -2.1234
 2068SOL     hw 8271   5.415   6.036   0.647 -0.2202 -0.8948 -0.1255
 2068SOL     vw 8272   5.354   6.084   0.607  0.6187 -0.1321 -0.5007
 2069SOL     ow 8273   6.493   4.443   0.584 -0.1728  0.4384 -0.2631
 2069SOL     hw 8274   6.518   4.357   0.550  0.9807 -0.5241  2.7066
 2069SOL     hw 8275   6.464   4.426   0.673  0.1808  3.1485  0.4625
 2069SOL     vw 8276   6.493   4.430   0.591  0.0260  0.6690  0.2244
 2070SOL     ow 8277   2.294   2.176   3.886 -0.5814  0.1150  0.0332
 2070SOL     hw 8278   2.328   2.104   3.834 -0.3164 -0.6085  1.1610
 2070SOL     hw 8279   2.248   2.134   3.959  0.6027  1.0365  1.3772
 2070SOL     vw 8280   2.293   2.161   3.889 -0.3901  0.1410  0.3592
 2071SOL     ow 8281   3.383   5.752   5.239 -0.2242  0.3136 -0.4169
 2071SOL     hw 8282   3.304   5.710   5.207 -1.5445  1.1633  1.5768
 2071SOL     hw 8283   3.428   5.782   5.159 -1.0917 -1.4997 -1.6577
 2071SOL     vw 8284   3.379   5.751   5.224 -0.5128  0.1862 -0.3178
 2072SOL     ow 8285   6.532   2.275   7.221 -0.5081 -0.4387 -0.4017
 2072SOL     hw 8286   6.545   2.220   7.299 -1.0202 -1.3906 -0.9663
 2072SOL     hw 8287   6.505   2.360   7.256 -2.3628 -1.3114  0.4578
 2072SOL     vw 8288   6.530   2.279   7.236 -0.8202 -0.6794 -0.3631
 2073SOL     ow 8289   1.799   0.758   3.661 -0.0373 -0.2214  0.2475
 2073SOL     hw 8290   1.795   0.836   3.607 -1.1927  0.3823  1.1572
 2073SOL     hw 8291   1.893   0.741   3.672  0.3314  2.1609  1.5659
 2073SOL     vw 8292   1.811   0.766   3.656 -0.1411  0.1726  0.5414
 2074SOL     ow 8293   2.147   2.731   2.345  0.8981  0.3780 -0.4567
 2074SOL     hw 8294   2.112   2.748   2.258  0.9755 -0.9560 -0.7610
 2074SOL     hw 8295   2.098   2.654   2.376  1.6468  0.1618  0.2185
 2074SOL     vw 8296   2.136   2.723   2.338  1.0072  0.1736 -0.4077
 2075SOL     ow 8297   1.253   0.578   7.179 -0.1532  0.0218  0.1188
 2075SOL     hw 8298   1.282   0.662   7.217 -0.4851 -0.1559  0.7927
 2075SOL     hw 8299   1.164   0.567   7.213 -0.0312 -0.7049  0.2082
 2075SOL     vw 8300   1.246   0.588   7.189 -0.1809 -0.0975  0.2196
 2076SOL     ow 8301   2.407   5.543   3.870  0.3220 -0.2133 -0.1030
 2076SOL     hw 8302   2.363   5.494   3.800  2.8210  0.3325 -2.2095
 2076SOL     hw 8303   2.499   5.545   3.844  1.4564 -0.1942  3.4053
 2076SOL     vw 8304   2.413   5.537   3.857  0.8014 -0.1388  0.0820
 2077SOL     ow 8305   0.585   5.444   6.459  0.2238  0.2596  0.2545
 2077SOL     hw 8306   0.548   5.532   6.459  4.5928  2.3364 -0.1869
 2077SOL     hw 8307   0.648   5.444   6.531  0.7292 -2.3504 -0.0803
 2077SOL     vw 8308   0.588   5.456   6.469  0.8669  0.1893  0.1521
 2078SOL     ow 8309   2.869   0.749   2.540 -0.0123  0.6541  1.5336
 2078SOL     hw 8310   2.776   0.765   2.531  0.0176  0.7610  1.4219
 2078SOL     hw 8311   2.908   0.836   2.550  0.4390  0.9068 -1.5729
 2078SOL     vw 8312   2.862   0.762   2.540  0.0511  0.7015  1.1091
 2079SOL     ow 8313   1.657   5.770   6.355  0.0465 -0.3561 -0.1872
 2079SOL     hw 8314   1.649   5.805   6.267 -1.0167  0.9242  0.3813
 2079SOL     hw 8315   1.587   5.812   6.405 -0.2109 -2.0355  0.9709
 2079SOL     vw 8316   1.647   5.780   6.350 -0.1277 -0.4084  0.0408
 2080SOL     ow 8317   0.100   2.184   0.417  0.0680 -0.1550  0.1081
 2080SOL     hw 8318   0.074   2.146   0.333 -0.2705 -0.4383  0.3397
 2080SOL     hw 8319   0.184   2.227   0.399  0.9236 -1.7965  0.0599
 2080SOL     vw 8320   0.108   2.185   0.403  0.1362 -0.4088  0.1323
 2081SOL     ow 8321   2.097   3.488   0.941  0.0128  0.8737  0.0078
 2081SOL     hw 8322   2.172   3.525   0.988  0.3081  2.9811 -1.9459
 2081SOL     hw 8323   2.061   3.562   0.891 -1.4679 -0.7823 -1.5304
 2081SOL     vw 8324   2.102   3.503   0.941 -0.1436  0.9333 -0.4529
 2082SOL     ow 8325   5.221   0.485   2.418 -0.0161  0.1656  0.1699
 2082SOL     hw 8326   5.253   0.502   2.329 -1.5907  1.9004 -0.1272
 2082SOL     hw 8327   5.126   0.479   2.409 -0.1277 -0.7927  1.6043
 2082SOL     vw 8328   5.213   0.486   2.405 -0.2384  0.2681  0.3198
 2083SOL     ow 8329   4.458   1.598   5.155  0.2932  0.5030 -0.2124
 2083SOL     hw 8330   4.404   1.644   5.219 -1.4842  0.4286 -1.5531
 2083SOL     hw 8331   4.395   1.555   5.097  1.7390  1.1612 -2.4397
 2083SOL     vw 8332   4.443   1.599   5.156  0.2494  0.5800 -0.6833
 2084SOL     ow 8333   3.734   0.252   4.395  0.4226  0.0934 -0.6290
 2084SOL     hw 8334   3.695   0.302   4.467 -0.0422  0.3374 -1.0432
 2084SOL     hw 8335   3.751   0.165   4.432  0.7543  0.3960 -0.0503
 2084SOL     vw 8336   3.731   0.247   4.410  0.4051  0.1655 -0.6070
 2085SOL     ow 8337   6.127   3.169   3.635 -0.8313 -0.4978 -0.2982
 2085SOL     hw 8338   6.119   3.185   3.541 -0.0140 -0.0811 -0.3086
 2085SOL     hw 8339   6.057   3.221   3.674 -0.6407  0.0107 -0.6209
 2085SOL     vw 8340   6.117   3.178   3.628 -0.6983 -0.3757 -0.3421
 2086SOL     ow 8341   4.946   4.786   2.426  0.1476 -0.0595  0.0245
 2086SOL     hw 8342   4.885   4.747   2.488  0.9590  0.3676  1.1145
 2086SOL     hw 8343   4.897   4.858   2.386 -0.0309  0.3812  1.0007
 2086SOL     vw 8344   4.932   4.790   2.429  0.2310  0.0546  0.2971
 2087SOL     ow 8345   0.273   0.172   5.886  0.4036  0.4028  0.6440
 2087SOL     hw 8346   0.308   0.096   5.933 -4.4220 -2.6389 -0.0024
 2087SOL     hw 8347   0.290   0.152   5.794 -0.5317  0.2805  0.4955
 2087SOL     vw 8348   0.280   0.159   5.880 -0.3565 -0.0147  0.5391
 2088SOL     ow 8349   7.234   7.041   0.966 -0.1351 -0.4543  0.0807
 2088SOL     hw 8350   7.293   7.064   0.894  0.2937 -1.5758  0.0453
 2088SOL     hw 8351   7.245   6.947   0.975 -0.5823 -0.3984  1.2727
 2088SOL     vw 8352   7.243   7.032   0.957 -0.1376 -0.5951  0.2333
 2089SOL     ow 8353   2.693   3.254   1.931 -0.0746  0.0327 -0.0764
 2089SOL     hw 8354   2.651   3.239   2.015 -2.7897  0.5453 -1.2310
 2089SOL     hw 8355   2.621   3.263   1.869  1.7781 -1.9337 -2.7948
 2089SOL     vw 8356   2.678   3.253   1.934 -0.1884 -0.1591 -0.5873
 2090SOL     ow 8357   0.250   3.771   2.486  0.4140  0.0144 -0.2714
 2090SOL     hw 8358   0.334   3.802   2.520  0.0917 -0.0569  0.6169
 2090SOL     hw 8359   0.268   3.680   2.461  0.4345 -0.2380  0.6042
 2090SOL     vw 8360   0.264   3.763   2.487  0.3742 -0.0284 -0.0386
 2091SOL     ow 8361   4.175   0.332   5.850 -0.1163  0.5082 -0.2735
 2091SOL     hw 8362   4.136   0.419   5.849  0.0084  0.5765 -1.6937
 2091SOL     hw 8363   4.177   0.306   5.758  0.3774 -0.7569  0.0770
 2091SOL     vw 8364   4.170   0.340   5.837 -0.0348  0.3503 -0.4146
 2092SOL     ow 8365   5.500   3.594   4.711  0.0067  0.2447  0.1841
 2092SOL     hw 8366   5.467   3.614   4.799  1.0244 -0.3840  0.7254
 2092SOL     hw 8367   5.423   3.562   4.664 -0.7948  1.5757  0.4996
 2092SOL     vw 8368   5.485   3.592   4.716  0.0350  0.3375  0.2971
 2093SOL     ow 8369   6.481   4.201   1.946 -0.1447  1.2051 -0.2906
 2093SOL     hw 8370   6.437   4.123   1.913  0.4968  1.6058 -2.2046
 2093SOL     hw 8371   6.547   4.167   2.007 -1.6723  0.4760  1.0204
 2093SOL     vw 8372   6.484   4.186   1.950 -0.2615  1.1618 -0.3701
 2094SOL     ow 8373   1.612   6.901   1.092 -0.5623 -0.2116 -0.2869
 2094SOL     hw 8374   1.644   6.964   1.027 -0.9834 -0.0105 -0.3033
 2094SOL     hw 8375   1.562   6.837   1.040 -0.5278 -0.2984 -0.2137
 2094SOL     vw 8376   1.609   6.901   1.076 -0.6133 -0.1965 -0.2794
 2095SOL     ow 8377   4.362   5.828   6.017  0.2021  0.4669 -0.3889
 2095SOL     hw 8378   4.401   5.905   5.977  1.9079 -0.0361  0.2175
 2095SOL     hw 8379   4.267   5.841   6.008  0.4544  2.5337 -0.4374
 2095SOL     vw 8380   4.354   5.840   6.010  0.4604  0.6733 -0.3154
 2096SOL     ow 8381   5.293   2.209   6.451 -0.1668 -0.0711 -0.0090
 2096SOL     hw 8382   5.263   2.261   6.525  1.4272 -2.2362  2.3297
 2096SOL     hw 8383   5.221   2.148   6.433  0.3787 -1.2372  1.5486
 2096SOL     vw 8384   5.280   2.208   6.458  0.1154 -0.5106  0.5052
 2097SOL     ow 8385   1.551   3.064   4.134  0.8644 -0.0510 -0.6289
 2097SOL     hw 8386   1.580   3.121   4.062  2.3420  0.8316  0.6178
 2097SOL     hw 8387   1.507   3.123   4.195  0.1891 -0.6941 -0.4783
 2097SOL     vw 8388   1.549   3.079   4.132  0.9702 -0.0194 -0.4449
 2098SOL     ow 8389   6.766   2.923   0.328  0.0984  0.1267 -0.6011
 2098SOL     hw 8390   6.752   2.850   0.267 -2.8740 -2.4189  2.7134
 2098SOL     hw 8391   6.828   2.889   0.392  0.6637  1.5404 -0.3526
 2098SOL     vw 8392   6.772   2.909   0.329 -0.2193 -0.0225 -0.1310
 2099SOL     ow 8393   4.610   4.332   1.530  0.4176 -0.0197 -0.6779
 2099SOL     hw 8394   4.579   4.423   1.532  1.1526  0.2408 -0.6460
 2099SOL     hw 8395   4.568   4.294   1.452 -1.5703 -0.2896  0.4611
 2099SOL     vw 8396   4.600   4.339   1.520  0.2522 -0.0212 -0.5234
 2100SOL     ow 8397   1.780   6.649   4.392 -0.1298  0.0512 -0.0242
 2100SOL     hw 8398   1.720   6.575   4.389 -2.9505  2.1776 -1.8216
 2100SOL     hw 8399   1.800   6.661   4.484 -0.4105 -2.2453  0.3988
 2100SOL     vw 8400   1.775   6.641   4.403 -0.5390  0.0288 -0.2058
 2101SOL     ow 8401   1.311   4.696   2.096  0.4616 -0.0575 -0.1190
 2101SOL     hw 8402   1.327   4.779   2.052 -0.5236 -0.0499 -0.4824
 2101SOL     hw 8403   1.378   4.637   2.061  2.1745  0.9542  1.2840
 2101SOL     vw 8404   1.322   4.699   2.086  0.5575  0.0768  0.0181
 2102SOL     ow 8405   3.667   0.877   0.255  0.1777 -0.2788  0.0583
 2102SOL     hw 8406   3.613   0.934   0.310  2.3414  1.2665  0.6943
 2102SOL     hw 8407   3.607   0.808   0.227 -2.6706  2.4123 -1.0182
 2102SOL     vw 8408   3.652   0.875   0.259  0.0873  0.2801  0.0002
 2103SOL     ow 8409   6.074   0.625   6.259 -0.1761 -0.0482 -0.1975
 2103SOL     hw 8410   6.144   0.664   6.207  0.0304  0.6830  0.6047
 2103SOL     hw 8411   6.053   0.691   6.325 -2.6890  0.4148 -1.3285
 2103SOL     vw 8412   6.081   0.638   6.261 -0.4804  0.1094 -0.2410
 2104SOL     ow 8413   4.055   5.139   6.727  0.3158 -0.3794 -0.3645
 2104SOL     hw 8414   4.117   5.096   6.669 -1.8282 -3.6885 -0.4587
 2104SOL     hw 8415   3.972   5.136   6.680 -0.1855  3.3782 -0.0090
 2104SOL     vw 8416   4.052   5.133   6.713 -0.0331 -0.3202 -0.3300
 2105SOL     ow 8417   5.637   1.009   0.814  0.3510  0.5498 -0.0263
 2105SOL     hw 8418   5.730   1.001   0.838 -0.1850 -0.1428  2.0049
 2105SOL     hw 8419   5.607   0.919   0.805 -1.0230  0.5327  3.3561
 2105SOL     vw 8420   5.646   0.996   0.816  0.0989  0.4562  0.6880
 2106SOL     ow 8421   5.217   6.782   2.248 -0.1869 -0.0229 -0.0299
 2106SOL     hw 8422   5.184   6.793   2.337 -1.4835 -2.2185 -0.1692
 2106SOL     hw 8423   5.213   6.870   2.210 -3.3799  0.3278  0.8579
 2106SOL     vw 8424   5.212   6.795   2.255 -0.7792 -0.2663  0.0689
 2107SOL     ow 8425   6.075   5.842   3.834  0.5569 -0.1483 -0.6489
 2107SOL     hw 8426   6.017   5.876   3.902  2.9320  1.5069  0.6739
 2107SOL     hw 8427   6.151   5.808   3.881  3.0183  2.4492 -2.3873
 2107SOL     vw 8428   6.077   5.842   3.849  1.1954  0.4127 -0.7038
 2108SOL     ow 8429   2.246   0.903   5.378  0.4657 -0.0893  0.9034
 2108SOL     hw 8430   2.337   0.889   5.404  1.8319  1.6523 -2.3373
 2108SOL     hw 8431   2.234   0.848   5.301 -0.9640  0.2895  0.8210
 2108SOL     vw 8432   2.257   0.894   5.371  0.4573  0.1905  0.4649
 2109SOL     ow 8433   4.976   2.788   0.043  0.0097  0.0319  0.6715
 2109SOL     hw 8434   5.025   2.827  -0.029 -1.8597 -0.7915 -1.1571
 2109SOL     hw 8435   4.965   2.696   0.017 -0.0076 -0.5099  2.4378
 2109SOL     vw 8436   4.981   2.781   0.030 -0.2391 -0.1482  0.6633
 2110SOL     ow 8437   6.578   4.246   7.068  0.1232  0.6484  0.4471
 2110SOL     hw 8438   6.538   4.191   7.002 -0.6440  0.5013  1.0159
 2110SOL     hw 8439   6.652   4.288   7.024 -0.5661  0.7951 -0.5771
 2110SOL     vw 8440   6.583   4.244   7.054 -0.0689  0.6483  0.3872
 2111SOL     ow 8441   5.849   3.233   5.485 -0.4132 -0.8762  0.5340
 2111SOL     hw 8442   5.878   3.276   5.565 -2.1010  0.0180  0.7281
 2111SOL     hw 8443   5.912   3.261   5.418 -1.3117  1.8368  0.7020
 2111SOL     vw 8444   5.861   3.243   5.486 -0.7544 -0.4004  0.5817
 2112SOL     ow 8445   0.921   6.377   5.752 -0.1402 -0.0963 -0.0413
 2112SOL     hw 8446   0.874   6.460   5.749  1.6011  0.9397  0.2213
 2112SOL     hw 8447   0.972   6.380   5.833 -1.5729 -2.3201  1.0455
 2112SOL     vw 8448   0.922   6.388   5.762 -0.0995 -0.2530  0.1366
 2113SOL     ow 8449   5.554   2.304   6.564 -0.7174 -0.5784 -0.2612
 2113SOL     hw 8450   5.475   2.249   6.570 -1.7959  1.0138  1.3637
 2113SOL     hw 8451   5.538   2.375   6.627  2.0664 -0.2289  0.1694
 2113SOL     vw 8452   5.541   2.306   6.573 -0.4926 -0.3222  0.0098
 2114SOL     ow 8453   5.299   4.003   4.031  0.7724 -0.1057 -0.2335
 2114SOL     hw 8454   5.355   3.927   4.021  0.0736 -0.8346  1.2059
 2114SOL     hw 8455   5.270   4.023   3.942  1.6939 -0.9407 -0.7363
 2114SOL     vw 8456   5.302   3.996   4.018  0.8018 -0.3122 -0.1097
 2115SOL     ow 8457   0.071   1.509   6.277  0.3662 -0.2451  0.3179
 2115SOL     hw 8458   0.076   1.582   6.339  2.9838 -0.3993  0.3837
 2115SOL     hw 8459   0.052   1.550   6.193  1.0894  0.4316  0.4784
 2115SOL     vw 8460   0.069   1.524   6.274  0.8070 -0.1761  0.3481
 2116SOL     ow 8461   1.284   6.840   5.374  0.1140  0.2689 -0.0532
 2116SOL     hw 8462   1.334   6.920   5.355  1.4921 -0.7364 -0.7863
 2116SOL     hw 8463   1.222   6.832   5.302  0.5131  0.2493 -0.3941
 2116SOL     vw 8464   1.282   6.850   5.362  0.3486  0.1335 -0.1948
 2117SOL     ow 8465   1.639   5.554   6.043  0.9568  0.1353  0.4495
 2117SOL     hw 8466   1.620   5.648   6.048 -0.4075  0.0679 -1.9747
 2117SOL     hw 8467   1.563   5.512   6.083  1.5263  0.0249  1.4520
 2117SOL     vw 8468   1.626   5.561   6.049  0.8519  0.1121  0.2620
 2118SOL     ow 8469   3.107   0.243   4.184 -1.1096  0.0407  0.2608
 2118SOL     hw 8470   3.095   0.266   4.276  0.6555 -2.1344  1.1299
 2118SOL     hw 8471   3.086   0.324   4.137 -0.7939  1.6336  2.6453
 2118SOL     vw 8472   3.103   0.257   4.190 -0.8351 -0.0361  0.6900
 2119SOL     ow 8473   2.526   2.284   5.206  0.2777 -0.4156  0.4397
 2119SOL     hw 8474   2.497   2.299   5.115  0.8204  1.4945  0.5219
 2119SOL     hw 8475   2.579   2.205   5.202  1.5406  0.4499 -1.2392
 2119SOL     vw 8476   2.529   2.276   5.193  0.5159 -0.0495  0.2289
 2120SOL     ow 8477   4.122   3.951   1.673  0.8475  0.0663  0.0347
 2120SOL     hw 8478   4.147   3.938   1.765 -0.8791 -1.5118  0.3438
 2120SOL     hw 8479   4.046   4.010   1.678  0.9539  0.2493 -0.4280
 2120SOL     vw 8480   4.115   3.957   1.686  0.6337 -0.1179  0.0144
 2121SOL     ow 8481   6.929   6.110   4.856 -0.6313 -0.3468 -0.0374
 2121SOL     hw 8482   6.983   6.189   4.854 -1.3973  0.1895 -0.0012
 2121SOL     hw 8483   6.978   6.047   4.804 -0.3634  0.3917 -0.7138
 2121SOL     vw 8484   6.942   6.112   4.849 -0.6969 -0.1783 -0.1221
 2122SOL     ow 8485   6.648   5.200   1.069  0.1001  0.1824  0.1806
 2122SOL     hw 8486   6.741   5.214   1.089 -0.1642 -0.0907  1.6701
 2122SOL     hw 8487   6.602   5.264   1.123 -0.5204  2.0239 -2.3244
 2122SOL     vw 8488   6.654   5.210   1.078 -0.0167  0.3896  0.0467
 2123SOL     ow 8489   6.653   6.342   2.902 -0.0777  1.1930  0.0926
 2123SOL     hw 8490   6.572   6.390   2.893 -1.1659 -0.4003  0.9293
 2123SOL     hw 8491   6.637   6.279   2.972  0.4549 -1.8638 -2.2912
 2123SOL     vw 8492   6.640   6.340   2.910 -0.1512  0.5794 -0.1115
 2124SOL     ow 8493   0.674   5.802   3.240  0.1584  0.6429 -0.3077
 2124SOL     hw 8494   0.672   5.819   3.146  0.5623 -0.6298 -0.5706
 2124SOL     hw 8495   0.702   5.711   3.247 -1.7427  0.0853  0.9589
 2124SOL     vw 8496   0.677   5.792   3.229 -0.0392  0.4015 -0.1754
 2125SOL     ow 8497   7.123   5.057   6.011 -0.3083 -0.1569 -0.9613
 2125SOL     hw 8498   7.083   4.972   5.997 -1.5486  0.4404 -1.1454
 2125SOL     hw 8499   7.074   5.117   5.955  1.1355  0.5350 -1.5452
 2125SOL     vw 8500   7.111   5.054   6.002 -0.2816  0.0134 -1.0626
 2126SOL     ow 8501   2.466   4.724   0.875  0.1731  0.3071  0.5503
 2126SOL     hw 8502   2.447   4.756   0.786  1.8976 -1.1501 -0.4198
 2126SOL     hw 8503   2.407   4.650   0.887  0.6477 -0.1353  0.1896
 2126SOL     vw 8504   2.456   4.719   0.865  0.4632  0.0563  0.3747
 2127SOL     ow 8505   0.612   2.208   5.465 -0.3072  0.2800 -0.4914
 2127SOL     hw 8506   0.625   2.269   5.538  1.0641 -1.1303  0.5003
 2127SOL     hw 8507   0.694   2.211   5.416 -0.1483 -0.8811 -0.3192
 2127SOL     vw 8508   0.625   2.216   5.469 -0.1053 -0.0592 -0.3378
 2128SOL     ow 8509   1.944   2.621   0.255 -0.0001 -0.1076 -0.8465
 2128SOL     hw 8510   2.013   2.674   0.296  0.7288  1.7855 -4.1457
 2128SOL     hw 8511   1.977   2.531   0.259  1.2964  0.3842  0.2274
 2128SOL     vw 8512   1.958   2.616   0.261  0.2671  0.2072 -1.1401
 2129SOL     ow 8513   2.803   0.690   0.144  0.9240 -0.3465 -0.5220
 2129SOL     hw 8514   2.746   0.706   0.219 -0.3276 -0.9365 -1.3021
 2129SOL     hw 8515   2.785   0.763   0.084 -3.1115 -3.0223 -3.0891
 2129SOL     vw 8516   2.793   0.702   0.146  0.2265 -0.7774 -0.9636
 2130SOL     ow 8517   5.865   7.160   1.125  0.5276 -0.6407 -0.2895
 2130SOL     hw 8518   5.956   7.175   1.099  0.8847  1.1753  1.7665
 2130SOL     hw 8519   5.867   7.158   1.221 -1.8895  1.9390 -0.0579
 2130SOL     vw 8520   5.877   7.161   1.134  0.2558 -0.0606  0.0123
 2131SOL     ow 8521   4.070   3.557   0.600  0.2233  0.0484 -0.7623
 2131SOL     hw 8522   4.011   3.564   0.525 -0.5393 -1.4353 -0.3385
 2131SOL     hw 8523   4.036   3.620   0.664 -0.1250  0.1131 -1.0093
 2131SOL     vw 8524   4.058   3.566   0.599  0.0770 -0.1389 -0.7390
 2132SOL     ow 8525   6.433   1.911   0.541 -0.1669 -0.3563 -0.2750
 2132SOL     hw 8526   6.490   1.931   0.616  0.1357  1.1760 -0.8780
 2132SOL     hw 8527   6.358   1.866   0.580 -0.1963  0.7446  1.0325
 2132SOL     vw 8528   6.431   1.908   0.556 -0.1311 -0.0090 -0.1820
 2133SOL     ow 8529   2.891   1.581   7.005 -0.4152  0.6817  0.5375
 2133SOL     hw 8530   2.805   1.581   7.047 -1.1527  2.2043 -0.8416
 2133SOL     hw 8531   2.872   1.602   6.914  1.3096 -0.4581 -0.1124
 2133SOL     vw 8532   2.877   1.584   6.999 -0.2849  0.7322  0.2697
 2134SOL     ow 8533   6.674   4.049   6.190  0.5602 -0.6527 -0.0947
 2134SOL     hw 8534   6.733   4.060   6.115 -0.7524  0.4514 -1.0154
 2134SOL     hw 8535   6.666   4.137   6.227 -0.2809 -0.8454  0.2000
 2134SOL     vw 8536   6.681   4.062   6.185  0.2759 -0.5324 -0.1771
 2135SOL     ow 8537   6.478   0.661   2.385  0.4044  0.1591  0.1983
 2135SOL     hw 8538   6.477   0.754   2.366 -1.1853 -0.1620 -1.6260
 2135SOL     hw 8539   6.570   0.635   2.376  1.1135  1.7518  2.1988
 2135SOL     vw 8540   6.490   0.670   2.381  0.2880  0.3269  0.2216
 2136SOL     ow 8541   5.177   3.624   6.975  1.1334 -0.4987  0.2164
 2136SOL     hw 8542   5.150   3.617   6.883  1.8552 -0.6570  0.0155
 2136SOL     hw 8543   5.244   3.692   6.976  3.0568 -2.2912  0.1644
 2136SOL     vw 8544   5.182   3.632   6.963  1.4822 -0.7563  0.1831
 2137SOL     ow 8545   4.450   4.951   3.892  0.1575  0.1547  0.3037
 2137SOL     hw 8546   4.443   4.996   3.976 -1.0358 -1.5364  1.1863
 2137SOL     hw 8547   4.465   5.020   3.829 -1.3038  1.7762  1.6087
 2137SOL     vw 8548   4.451   4.966   3.895 -0.1926  0.1452  0.5925
 2138SOL     ow 8549   3.475   3.497   6.043  0.2980 -0.2056 -0.3555
 2138SOL     hw 8550   3.459   3.429   5.977 -1.1068 -0.7559  0.5033
 2138SOL     hw 8551   3.403   3.559   6.032  0.4272  0.0541  0.2146
 2138SOL     vw 8552   3.464   3.496   6.033  0.1297 -0.2440 -0.1667
 2139SOL     ow 8553   2.491   6.159   5.488 -0.2112  0.0250 -1.1516
 2139SOL     hw 8554   2.550   6.171   5.563 -1.6549 -2.7302  0.6110
 2139SOL     hw 8555   2.432   6.234   5.491 -1.0585 -0.6101  1.4245
 2139SOL     vw 8556   2.491   6.170   5.499 -0.5134 -0.4225 -0.5791
 2140SOL     ow 8557   4.091   4.205   5.007 -0.3221 -0.1463 -0.1482
 2140SOL     hw 8558   4.162   4.142   5.016 -0.2318  0.0022  0.2002
 2140SOL     hw 8559   4.039   4.194   5.086 -1.5004 -1.2386 -1.0353
 2140SOL     vw 8560   4.094   4.195   5.018 -0.4656 -0.2708 -0.2193
 2141SOL     ow 8561   7.085   3.535   3.153 -0.2971  0.4547 -0.1831
 2141SOL     hw 8562   7.024   3.606   3.137 -1.0895 -0.1498  0.0712
 2141SOL     hw 8563   7.164   3.577   3.188 -1.6215  1.0350  2.3064
 2141SOL     vw 8564   7.088   3.550   3.156 -0.5765  0.4514  0.1788
 2142SOL     ow 8565   0.732   2.373   6.512 -0.0789  0.1932  0.0097
 2142SOL     hw 8566   0.707   2.368   6.420 -2.0254 -1.1182  0.5561
 2142SOL     hw 8567   0.700   2.292   6.551  4.4812 -1.4179  1.0666
 2142SOL     vw 8568   0.725   2.362   6.505  0.2659 -0.1923  0.2210
 2143SOL     ow 8569   4.072   5.248   7.172 -0.0683 -0.7850 -0.2136
 2143SOL     hw 8570   4.071   5.301   7.093 -0.8391 -0.4849 -0.0221
 2143SOL     hw 8571   4.017   5.298   7.234  0.4595 -1.0454  0.4803
 2143SOL     vw 8572   4.064   5.262   7.170 -0.1004 -0.7799 -0.0968
 2144SOL     ow 8573   0.725   3.830   0.862 -0.6424  0.3528  0.3008
 2144SOL     hw 8574   0.685   3.779   0.792  1.7821  1.1832 -1.8418
 2144SOL     hw 8575   0.677   3.805   0.941 -0.9194 -3.6825 -0.9267
 2144SOL     vw 8576   0.714   3.820   0.863 -0.3591 -0.0701 -0.1439
 2145SOL     ow 8577   7.012   2.397   4.784 -0.1392 -0.4639 -0.7395
 2145SOL     hw 8578   6.997   2.302   4.785 -0.3074 -0.4794  2.2725
 2145SOL     hw 8579   6.938   2.432   4.736 -0.0199 -1.8285 -2.0036
 2145SOL     vw 8580   7.001   2.389   4.777 -0.1459 -0.6459 -0.5088
 2146SOL     ow 8581   3.434   0.695   4.812 -0.3321 -0.0988  0.3437
 2146SOL     hw 8582   3.352   0.670   4.770  0.9315 -0.0488 -2.3042
 2146SOL     hw 8583   3.449   0.627   4.878 -1.4247 -1.3345 -0.6447
 2146SOL     vw 8584   3.426   0.683   4.815 -0.3095 -0.2552 -0.1361
 2147SOL     ow 8585   6.515   2.772   6.091 -0.1956  0.1428  0.0672
 2147SOL     hw 8586   6.422   2.758   6.075 -0.2900  1.3682 -0.5449
 2147SOL     hw 8587   6.535   2.716   6.166 -1.6540  0.6453  0.8601
 2147SOL     vw 8588   6.506   2.762   6.098 -0.4003  0.3707  0.0908
 2148SOL     ow 8589   3.825   3.294   4.277  0.6321  0.4033  0.4145
 2148SOL     hw 8590   3.789   3.233   4.213 -1.2626 -0.7111  2.3835
 2148SOL     hw 8591   3.780   3.377   4.259 -1.3336 -0.3872  1.3739
 2148SOL     vw 8592   3.814   3.297   4.267  0.1228  0.1519  0.8008
 2149SOL     ow 8593   6.773   4.266   2.642 -1.1122  0.4136 -0.1127
 2149SOL     hw 8594   6.816   4.201   2.698 -0.4939  0.3067 -0.7046
 2149SOL     hw 8595   6.725   4.213   2.578  0.6116  0.5118 -1.5344
 2149SOL     vw 8596   6.772   4.250   2.641 -0.8030  0.4125 -0.3784
 2150SOL     ow 8597   5.857   1.408   0.709 -0.3076  0.0137 -0.2892
 2150SOL     hw 8598   5.877   1.495   0.675 -1.7889  1.3047  1.8830
 2150SOL     hw 8599   5.896   1.406   0.796 -1.3551 -1.0122  0.1942
 2150SOL     vw 8600   5.865   1.419   0.716 -0.6411  0.0486  0.0612
 2151SOL     ow 8601   3.361   4.481   4.763  0.3039 -0.3637 -0.1083
 2151SOL     hw 8602   3.290   4.426   4.730 -0.7441  0.5594  0.5348
 2151SOL     hw 8603   3.420   4.492   4.688 -1.2003  0.3921 -1.2393
 2151SOL     vw 8604   3.360   4.475   4.749 -0.0329 -0.1421 -0.1726
 2152SOL     ow 8605   6.292   2.542   0.665 -0.4618  0.3037  0.7552
 2152SOL     hw 8606   6.258   2.555   0.576  0.7953  2.0898  0.4940
 2152SOL     hw 8607   6.279   2.448   0.682 -1.3407  0.0630 -1.0423
 2152SOL     vw 8608   6.286   2.531   0.656 -0.4117  0.5076  0.4835
 2153SOL     ow 8609   0.611   5.766   0.646 -0.1471 -0.0935 -0.1529
 2153SOL     hw 8610   0.655   5.683   0.666 -0.8715 -1.4162 -3.3765
 2153SOL     hw 8611   0.681   5.824   0.617  0.0905 -0.5150 -0.4439
 2153SOL     vw 8612   0.626   5.763   0.645 -0.2114 -0.3235 -0.6166
 2154SOL     ow 8613   2.128   5.119   0.225 -1.1755 -1.2363  0.1406
 2154SOL     hw 8614   2.077   5.042   0.201 -3.8084  0.7221 -1.0243
 2154SOL     hw 8615   2.081   5.158   0.298 -0.0081 -0.5665  0.5594
 2154SOL     vw 8616   2.115   5.114   0.231 -1.3689 -0.8895  0.0422
 2155SOL     ow 8617   7.095   1.006   4.201 -0.7943 -0.0193  0.3155
 2155SOL     hw 8618   7.037   1.080   4.220 -1.0347  0.1569 -0.9915
 2155SOL     hw 8619   7.068   0.977   4.114  0.7964 -0.2290 -0.1267
 2155SOL     vw 8620   7.084   1.012   4.192 -0.6161 -0.0237  0.0846
 2156SOL     ow 8621   4.366   1.170   3.328 -0.6842  0.1488 -0.0764
 2156SOL     hw 8622   4.439   1.115   3.356 -0.0345  1.6080  1.1980
 2156SOL     hw 8623   4.394   1.206   3.244 -0.1099  0.3736  0.2092
 2156SOL     vw 8624   4.379   1.167   3.320 -0.5231  0.3710  0.1295
 2157SOL     ow 8625   6.236   3.955   3.799 -0.2870  0.2337 -0.0202
 2157SOL     hw 8626   6.170   3.894   3.768 -0.2970 -0.4444  1.2505
 2157SOL     hw 8627   6.238   3.942   3.894 -0.0066  1.9211  0.2462
 2157SOL     vw 8628   6.228   3.945   3.808 -0.2515  0.3669  0.1826
 2158SOL     ow 8629   1.064   5.470   5.255 -0.1309  0.6619 -0.5321
 2158SOL     hw 8630   1.057   5.526   5.333  0.4295  1.2587 -0.8949
 2158SOL     hw 8631   1.158   5.466   5.237 -0.0695 -1.2420  0.0617
 2158SOL     vw 8632   1.075   5.477   5.263 -0.0488  0.4895 -0.5014
 2159SOL     ow 8633   2.443   3.753   1.245  0.1895  0.0648  0.2760
 2159SOL     hw 8634   2.403   3.667   1.235 -1.2536  0.6416  0.7690
 2159SOL     hw 8635   2.537   3.737   1.241 -0.0188 -1.6594  1.2528
 2159SOL     vw 8636   2.450   3.740   1.243 -0.0286 -0.0867  0.4699
 2160SOL     ow 8637   3.227   6.121   4.391 -0.3475  0.5985 -0.2463
 2160SOL     hw 8638   3.280   6.076   4.325 -0.6080  0.2828 -0.2430
 2160SOL     hw 8639   3.290   6.149   4.457 -0.4684 -2.1561  1.1374
 2160SOL     vw 8640   3.243   6.119   4.391 -0.3979  0.1934 -0.0634
 2161poe    c31 8641   6.634   2.420   3.962 -0.6477  0.6049  0.7540
 2161poe     o2 8642   6.767   2.407   4.006 -0.4183 -0.5300 -0.2033
 2161poe    c23 8643   6.783   2.458   4.137  0.5567  0.1560 -0.5797
 2161poe    c23 8644   6.920   2.447   4.207  0.0289  0.8097  0.5756
 2161poe     o2 8645   6.945   2.312   4.238 -0.1312  0.5913 -0.2168
 2161poe    c23 8646   7.005   2.273   4.360 -0.0692  0.1138 -0.3989
 2161poe    c23 8647   7.029   2.123   4.385 -0.6985  0.1211  0.2699
 2161poe     o2 8648   7.111   2.072   4.282 -0.7627  0.0331  0.2619
 2161poe    c23 8649   7.099   1.932   4.282  0.2120 -0.0594 -0.0819
 2161poe    c23 8650   7.143   1.897   4.139  0.2035  0.5784 -0.2401
 2161poe     o2 8651   7.073   1.975   4.044 -0.5482  0.0803 -0.1048
 2161poe    c31 8652   7.095   1.919   3.917 -0.6226 -0.1576 -0.0125
 2162poe    c31 8653   2.536   3.749   4.501  0.5936 -0.6072 -0.4309
 2162poe     o2 8654   2.643   3.820   4.559 -0.1077  0.1698 -0.0703
 2162poe    c23 8655   2.771   3.762   4.557 -0.1890 -0.0458  0.5435
 2162poe    c23 8656   2.817   3.753   4.703  0.1200 -0.1960  0.4393
 2162poe     o2 8657   2.782   3.875   4.765  0.1567 -0.1066  0.2837
 2162poe    c23 8658   2.835   3.893   4.895  0.0617 -0.0527  0.3153
 2162poe    c23 8659   2.754   3.998   4.973 -0.0175 -0.2152  0.4518
 2162poe     o2 8660   2.776   4.131   4.931  0.7095 -0.2925  0.5780
 2162poe    c23 8661   2.681   4.215   4.993  0.4557  0.0057 -0.2082
 2162poe    c23 8662   2.705   4.358   4.939  0.5794 -0.1788 -0.6481
 2162poe     o2 8663   2.648   4.374   4.811 -0.4148  0.2132 -0.1705
 2162poe    c31 8664   2.673   4.500   4.753 -0.6837  0.3387 -0.0144
 2163poe    c31 8665   2.607   5.560   7.031  0.1328 -0.1499  0.3322
 2163poe     o2 8666   2.557   5.472   7.129  0.1219 -0.2931  0.1971
 2163poe    c23 8667   2.416   5.485   7.136  0.0836 -0.8390  0.5539
 2163poe    c23 8668   2.340   5.371   7.205 -1.0953 -0.2798  0.1965
 2163poe     o2 8669   2.359   5.252   7.133  0.3218  0.1491 -0.1575
 2163poe    c23 8670   2.311   5.136   7.198 -0.4383  0.4151 -0.2419
 2163poe    c23 8671   2.301   5.017   7.102 -0.2584  0.1844  0.0240
 2163poe     o2 8672   2.422   5.003   7.032 -0.4249 -0.2399 -0.1887
 2163poe    c23 8673   2.450   4.881   6.968 -0.3258 -0.0561 -0.5018
 2163poe    c23 8674   2.602   4.884   6.941 -0.2179  0.4435  0.1454
 2163poe     o2 8675   2.611   5.010   6.878 -0.3981  0.0822 -0.6191
 2163poe    c31 8676   2.732   5.001   6.807 -0.3853  0.0023 -0.5864
 2164poe    c31 8677   2.043   3.796   5.258  0.4531  0.0963  0.4454
 2164poe     o2 8678   1.971   3.918   5.261 -0.1215 -0.2204 -0.2460
 2164poe    c23 8679   1.833   3.895   5.246 -0.1242 -0.0717 -0.4472
 2164poe    c23 8680   1.762   4.032   5.254 -0.0850 -0.0724 -0.0867
 2164poe     o2 8681   1.797   4.092   5.376  0.2745 -0.6500  0.1033
 2164poe    c23 8682   1.787   4.233   5.376  0.8199 -0.6089 -0.2956
 2164poe    c23 8683   1.851   4.298   5.500 -0.2553  0.3084 -0.2034
 2164poe     o2 8684   1.985   4.252   5.507 -0.2598  0.2938 -0.2140
 2164poe    c23 8685   2.033   4.305   5.629 -0.2333 -0.2891  0.0313
 2164poe    c23 8686   2.112   4.437   5.622 -0.2433 -0.2886 -0.0873
 2164poe     o2 8687   2.026   4.549   5.624  0.2885  0.1204  0.1916
 2164poe    c31 8688   2.081   4.676   5.593 -0.1201  0.2943  0.1808
 2165poe    c31 8689   3.245   4.661   0.349 -1.0759  0.5491  0.6826
 2165poe     o2 8690   3.340   4.640   0.452  0.1109 -0.0005 -0.4935
 2165poe    c23 8691   3.401   4.514   0.437  0.1828 -0.0332  0.0615
 2165poe    c23 8692   3.503   4.475   0.545  0.1118  0.3696  0.2744
 2165poe     o2 8693   3.444   4.438   0.668  0.1466  0.2958  0.2686
 2165poe    c23 8694   3.533   4.368   0.752 -0.1872  0.4101  0.7215
 2165poe    c23 8695   3.472   4.284   0.865 -0.5550  0.3961  0.5164
 2165poe     o2 8696   3.554   4.226   0.965 -0.0980 -0.3543 -0.2768
 2165poe    c23 8697   3.615   4.106   0.925 -0.5223 -0.7017  0.1073
 2165poe    c23 8698   3.713   4.049   1.029 -0.5219 -0.3838  0.2820
 2165poe     o2 8699   3.848   4.084   1.010 -0.6392 -0.0944 -0.0244
 2165poe    c31 8700   3.883   4.200   1.083 -0.6816 -0.2721  0.2823
 2166poe    c31 8701   0.102   7.010   3.761 -0.4656 -0.0055  0.0490
 2166poe     o2 8702   0.080   7.037   3.897  0.4833 -0.0906  0.2291
 2166poe    c23 8703  -0.034   7.114   3.928  0.2354 -0.2386 -0.3004
 2166poe    c23 8704  -0.094   7.101   4.070  0.0426 -0.2238 -0.3805
 2166poe     o2 8705  -0.195   7.005   4.089 -0.0321  0.0015  0.3967
 2166poe    c23 8706  -0.319   7.030   4.026  0.0096 -0.4809  0.1135
 2166poe    c23 8707  -0.428   6.991   4.127 -0.8254  0.4817 -0.3971
 2166poe     o2 8708  -0.434   6.861   4.182  0.4871  0.8014  0.5518
 2166poe    c23 8709  -0.555   6.837   4.252  0.0841 -0.2391 -0.4805
 2166poe    c23 8710  -0.673   6.774   4.175 -0.9157  0.2299  0.6409
 2166poe     o2 8711  -0.714   6.838   4.057 -0.0538 -0.5504 -0.1001
 2166poe    c31 8712  -0.798   6.758   3.978 -0.0120 -0.7868  0.0936
 2167poe    c31 8713   2.958   5.545   1.362 -0.1833 -0.1304 -0.2180
 2167poe     o2 8714   3.021   5.653   1.429 -0.3101 -0.3421  0.2464
 2167poe    c23 8715   3.148   5.675   1.372 -0.1014 -0.5890  0.6108
 2167poe    c23 8716   3.217   5.800   1.431 -0.0611 -0.2181 -0.2083
 2167poe     o2 8717   3.207   5.778   1.570 -0.2241  0.9177 -0.0297
 2167poe    c23 8718   3.266   5.892   1.629  0.5352  0.3066  0.4133
 2167poe    c23 8719   3.278   5.858   1.778 -0.3350 -0.1807  0.3833
 2167poe     o2 8720   3.149   5.835   1.831 -0.4260 -0.1643  0.1675
 2167poe    c23 8721   3.148   5.829   1.972  0.1848  0.1828  0.1914
 2167poe    c23 8722   3.008   5.809   2.032  0.0815 -0.1052 -0.1408
 2167poe     o2 8723   2.925   5.922   2.045 -0.1659 -0.2295 -0.6209
 2167poe    c31 8724   2.789   5.886   2.055 -0.2425  0.3352  0.5240
 2168poe    c31 8725   5.695   2.543   1.949  0.1918 -0.4490  0.1638
 2168poe     o2 8726   5.820   2.598   1.984 -0.3248  0.5650  0.4626
 2168poe    c23 8727   5.820   2.728   1.930 -0.0966  0.4230  0.1197
 2168poe    c23 8728   5.945   2.796   1.989  0.2484  0.0782 -0.2056
 2168poe     o2 8729   6.062   2.722   1.961  0.2293  0.1781 -0.5473
 2168poe    c23 8730   6.176   2.789   2.010 -0.4057  0.4547  0.5769
 2168poe    c23 8731   6.292   2.689   2.028 -0.3622  0.5159  0.6395
 2168poe     o2 8732   6.294   2.606   2.142  0.2576 -0.0726  0.2063
 2168poe    c23 8733   6.426   2.556   2.135  0.3037  0.0804 -0.0410
 2168poe    c23 8734   6.458   2.424   2.208 -0.0158 -0.3724 -0.7019
 2168poe     o2 8735   6.403   2.435   2.337  0.2925 -0.4283 -0.5633
 2168poe    c31 8736   6.413   2.320   2.418 -0.1182 -0.0945 -0.0257
 2169poe    c31 8737   3.719   3.000   4.177  0.0971 -0.6156 -0.1858
 2169poe     o2 8738   3.741   3.116   4.101  0.0765 -0.1467  0.5205
 2169poe    c23 8739   3.737   3.098   3.961 -0.1000 -0.3122  0.5466
 2169poe    c23 8740   3.694   3.230   3.895  0.0107 -0.6126 -0.1374
 2169poe     o2 8741   3.787   3.333   3.920 -0.0272 -0.5299 -0.3414
 2169poe    c23 8742   3.776   3.441   3.829  0.0404 -0.1168  0.1348
 2169poe    c23 8743   3.701   3.568   3.872  0.0123 -0.1433  0.1653
 2169poe     o2 8744   3.786   3.648   3.951  0.1862  0.3576 -0.5108
 2169poe    c23 8745   3.723   3.771   3.980 -0.1663  0.0798 -0.0813
 2169poe    c23 8746   3.811   3.846   4.081 -0.4600  0.5012 -0.1394
 2169poe     o2 8747   3.797   3.799   4.213  0.4110 -0.4574 -0.3817
 2169poe    c31 8748   3.875   3.873   4.303 -0.3564 -0.0838 -0.0122
 2170poe    c31 8749   5.460   5.062   3.563 -0.1230  0.1895  0.0284
 2170poe     o2 8750   5.486   5.197   3.530  0.4080  0.1180  0.1376
 2170poe    c23 8751   5.466   5.226   3.394 -0.1648  0.1678  0.2280
 2170poe    c23 8752   5.476   5.380   3.380  0.3010  0.1743  0.5967
 2170poe     o2 8753   5.588   5.419   3.456  0.5158  0.1495  0.2941
 2170poe    c23 8754   5.595   5.559   3.462  0.3233  0.1836 -0.1799
 2170poe    c23 8755   5.711   5.598   3.556  0.1505 -0.2386  0.2104
 2170poe     o2 8756   5.680   5.524   3.672  0.5819 -0.1907  0.3588
 2170poe    c23 8757   5.768   5.555   3.778  0.9841 -1.0036  0.2700
 2170poe    c23 8758   5.720   5.493   3.911 -0.1345 -0.3227  0.2003
 2170poe     o2 8759   5.771   5.362   3.923  0.5679 -0.0683  0.0903
 2170poe    c31 8760   5.740   5.307   4.049  0.5959 -0.4921 -0.0836
 2171poe    c31 8761   6.515   5.307   1.795  0.3917  0.6496  0.0710
 2171poe     o2 8762   6.389   5.363   1.824  0.0422 -0.2249  0.2614
 2171poe    c23 8763   6.385   5.501   1.798 -0.1615 -0.0478  1.1742
 2171poe    c23 8764   6.238   5.545   1.788  0.0132  0.3083 -0.0073
 2171poe     o2 8765   6.190   5.542   1.921  0.0649 -0.3493 -0.0010
 2171poe    c23 8766   6.056   5.573   1.951  0.1476  0.5784 -0.5519
 2171poe    c23 8767   6.043   5.603   2.101  0.1793  0.0353 -0.4395
 2171poe     o2 8768   6.166   5.642   2.158 -0.0416  0.3465 -0.1746
 2171poe    c23 8769   6.184   5.680   2.293  0.0177  0.1948 -0.1403
 2171poe    c23 8770   6.152   5.579   2.405  0.2582  0.9923  0.6624
 2171poe     o2 8771   6.237   5.468   2.420 -0.6108  0.1266 -0.5546
 2171poe    c31 8772   6.210   5.393   2.537 -0.1538  0.4103 -0.2622
 2172poe    c31 8773   0.973   2.932   5.781 -0.3966 -0.0641 -0.0853
 2172poe     o2 8774   0.837   2.906   5.754 -0.5006 -0.0432  0.4017
 2172poe    c23 8775   0.829   2.911   5.613  0.2665  0.2277  0.3616
 2172poe    c23 8776   0.689   2.912   5.547  0.3732  0.3893  0.1363
 2172poe     o2 8777   0.625   3.034   5.575  0.4185  0.1728  1.2217
 2172poe    c23 8778   0.489   3.029   5.535  0.7155  0.5189  0.1524
 2172poe    c23 8779   0.396   3.141   5.586 -0.1634 -0.0300 -0.2296
 2172poe     o2 8780   0.431   3.257   5.514  0.1947  0.0817  0.1205
 2172poe    c23 8781   0.401   3.369   5.594 -0.0655 -0.0839  0.2553
 2172poe    c23 8782   0.404   3.494   5.503  0.3769  0.1374  0.5731
 2172poe     o2 8783   0.532   3.542   5.469  0.0509  0.2157 -0.5727
 2172poe    c31 8784   0.504   3.669   5.416 -0.2837 -0.1611 -1.3233
 2173poe    c31 8785   4.599   5.720   0.607 -0.0312  0.3865  0.3861
 2173poe     o2 8786   4.466   5.765   0.591 -0.1373 -0.0626  0.0129
 2173poe    c23 8787   4.470   5.901   0.556 -0.1994  0.0977  0.6189
 2173poe    c23 8788   4.341   5.965   0.502 -0.2064 -0.2434  0.2227
 2173poe     o2 8789   4.317   5.920   0.371 -0.3692 -0.0637  0.1903
 2173poe    c23 8790   4.256   5.793   0.371 -0.6644  0.0779  0.6145
 2173poe    c23 8791   4.187   5.739   0.245 -0.1288 -0.2300  0.4512
 2173poe     o2 8792   4.291   5.741   0.150 -0.6003  0.2883 -0.0576
 2173poe    c23 8793   4.247   5.694   0.024  0.0956  0.3230 -0.3208
 2173poe    c23 8794   4.366   5.665  -0.069  0.3089 -0.5799  0.2226
 2173poe     o2 8795   4.461   5.767  -0.084 -0.4566  0.0436 -0.5297
 2173poe    c31 8796   4.510   5.778  -0.215  0.3044 -0.3922 -0.2903
 2174poe    c31 8797   2.702   5.806   5.513  0.1025  0.2242 -0.5772
 2174poe     o2 8798   2.627   5.840   5.398 -0.3210  0.5690 -0.1994
 2174poe    c23 8799   2.708   5.843   5.283  0.1392 -0.8347  0.0654
 2174poe    c23 8800   2.812   5.954   5.259 -0.7673  0.1756  0.7329
 2174poe     o2 8801   2.928   5.923   5.333 -0.2220 -0.1015 -0.2203
 2174poe    c23 8802   3.025   6.024   5.332 -0.6525  0.3201  0.1514
 2174poe    c23 8803   3.025   6.110   5.460 -0.3761 -0.1465  0.4676
 2174poe     o2 8804   3.084   6.071   5.582  0.4433 -0.6951 -0.0988
 2174poe    c23 8805   3.017   5.959   5.637 -0.8571  0.2189  0.2257
 2174poe    c23 8806   3.094   5.935   5.768 -0.3069 -0.1630 -0.1640
 2174poe     o2 8807   3.227   5.890   5.749 -0.1876  0.1130  0.0186
 2174poe    c31 8808   3.250   5.753   5.768 -0.9409  0.0259  0.3403
 2175poe    c31 8809   3.871   0.426   6.074  0.5638 -0.0535 -0.0048
 2175poe     o2 8810   3.844   0.288   6.057  0.3835 -0.0773  0.4692
 2175poe    c23 8811   3.717   0.259   6.004  0.3769  0.0293  0.4256
 2175poe    c23 8812   3.735   0.124   5.931  0.4322  0.2995 -0.0655
 2175poe     o2 8813   3.799   0.016   5.996  0.1699 -0.1308 -0.5194
 2175poe    c23 8814   3.790  -0.098   5.913 -0.1321 -0.2575 -0.3171
 2175poe    c23 8815   3.751  -0.221   5.997 -0.1162 -0.5617 -0.7557
 2175poe     o2 8816   3.842  -0.265   6.095 -0.4350  0.0510 -0.1796
 2175poe    c23 8817   3.769  -0.341   6.189 -0.1413 -0.3905 -0.3073
 2175poe    c23 8818   3.846  -0.358   6.321  0.0626 -0.0112 -0.3758
 2175poe     o2 8819   3.983  -0.389   6.308 -0.0116 -0.2343 -0.6272
 2175poe    c31 8820   4.027  -0.462   6.421  0.5171  1.4151  0.2601
 2176poe    c31 8821   0.785   3.325   0.689  0.3332 -0.2317 -0.2739
 2176poe     o2 8822   0.907   3.355   0.752 -0.0106 -0.0575  0.3259
 2176poe    c23 8823   0.930   3.494   0.758  0.2147 -0.0544 -0.4980
 2176poe    c23 8824   1.013   3.527   0.883 -0.5818 -0.5121  0.1633
 2176poe     o2 8825   1.139   3.466   0.867 -0.0356  0.5639  0.2414
 2176poe    c23 8826   1.180   3.410   0.990 -0.4504 -0.3978 -0.0468
 2176poe    c23 8827   1.326   3.364   0.973 -0.4952 -0.5370 -0.0566
 2176poe     o2 8828   1.334   3.246   0.896  0.1505 -0.5481  0.0208
 2176poe    c23 8829   1.465   3.195   0.898  0.5797  0.5372  0.4317
 2176poe    c23 8830   1.472   3.069   0.809  0.7026  0.6235  0.3197
 2176poe     o2 8831   1.378   3.096   0.707  0.4174 -0.0899  0.3926
 2176poe    c31 8832   1.380   3.015   0.592 -0.4324  0.1236  0.2209
 2177poe    c31 8833   1.418   3.231   3.198  0.7415  0.1567  0.0414
 2177poe     o2 8834   1.440   3.317   3.089 -0.2010  0.5184  0.1255
 2177poe    c23 8835   1.349   3.310   2.981 -0.2192  0.4777  0.1437
 2177poe    c23 8836   1.389   3.230   2.856  0.0210  0.2392  0.3703
 2177poe     o2 8837   1.359   3.094   2.875  0.2814  0.0801 -0.3252
 2177poe    c23 8838   1.411   3.012   2.773  0.2577 -0.1603 -0.1446
 2177poe    c23 8839   1.377   2.863   2.794  0.5368 -0.1951  0.0582
 2177poe     o2 8840   1.428   2.796   2.908  0.1120  0.1514  0.4574
 2177poe    c23 8841   1.405   2.657   2.900 -0.5370  0.2627  0.3614
 2177poe    c23 8842   1.481   2.564   2.996 -0.4399  0.4556  0.4700
 2177poe     o2 8843   1.619   2.594   3.002 -0.2063 -0.4810 -0.0791
 2177poe    c31 8844   1.678   2.486   3.071  0.0935 -0.3885 -0.1919
 2178poe    c31 8845   1.641   1.900   6.029  0.4775  0.1178 -0.5888
 2178poe     o2 8846   1.556   1.973   6.115  0.1501 -0.5164 -0.3631
 2178poe    c23 8847   1.421   1.987   6.075 -0.1205  0.3393  0.7974
 2178poe    c23 8848   1.330   1.863   6.082 -0.1232  0.2944  0.0708
 2178poe     o2 8849   1.308   1.819   6.214  0.0040 -0.4901 -0.1694
 2178poe    c23 8850   1.179   1.855   6.260  0.4926  0.4386  0.5054
 2178poe    c23 8851   1.133   1.768   6.378 -0.6771  0.6395  0.2135
 2178poe     o2 8852   1.213   1.783   6.494 -0.4648  0.4864  0.0890
 2178poe    c23 8853   1.145   1.852   6.597 -1.2861  0.1546 -0.2230
 2178poe    c23 8854   1.232   1.933   6.695 -0.2540 -0.2906 -0.7505
 2178poe     o2 8855   1.299   2.028   6.616  0.1817 -0.3518 -0.4553
 2178poe    c31 8856   1.390   2.101   6.694 -0.2875  0.2310 -0.4510
 2179poe    c31 8857   4.622   7.227   2.581  0.0308  0.1019  0.1410
 2179poe     o2 8858   4.694   7.189   2.466  0.3853  0.2655  0.3078
 2179poe    c23 8859   4.646   7.234   2.342  0.2223  0.2087  0.3505
 2179poe    c23 8860   4.648   7.111   2.249  0.4876  0.7662 -0.3960
 2179poe     o2 8861   4.766   7.079   2.179  0.1344 -0.2246 -0.5541
 2179poe    c23 8862   4.877   7.039   2.256 -0.3405 -0.3627  0.0743
 2179poe    c23 8863   4.999   7.132   2.244 -0.6485  0.0400  0.0800
 2179poe     o2 8864   5.060   7.128   2.118 -0.2314  0.1001  0.2787
 2179poe    c23 8865   5.201   7.126   2.121 -0.2177  0.6102  0.0670
 2179poe    c23 8866   5.273   7.115   1.985  0.3168  0.2170  0.3776
 2179poe     o2 8867   5.207   7.188   1.884 -0.1092 -0.4654  0.1559
 2179poe    c31 8868   5.219   7.130   1.755  0.2827  0.2128 -0.1163
 2180poe    c31 8869   2.634   4.585   6.104 -0.2007 -0.0184 -0.4545
 2180poe     o2 8870   2.598   4.707   6.043 -0.7608 -0.2893 -0.6740
 2180poe    c23 8871   2.565   4.680   5.909 -0.5538 -0.0684 -0.7694
 2180poe    c23 8872   2.672   4.708   5.801 -0.4281  0.1586 -0.5869
 2180poe     o2 8873   2.720   4.839   5.779  0.6244 -0.1221 -0.0327
 2180poe    c23 8874   2.809   4.832   5.669  0.2111  0.0559 -0.3806
 2180poe    c23 8875   2.849   4.973   5.623 -0.4222  0.3556 -0.0294
 2180poe     o2 8876   2.932   5.046   5.710 -0.5693  0.4015  0.0708
 2180poe    c23 8877   2.900   5.184   5.708 -0.1426  0.5112  0.4959
 2180poe    c23 8878   3.009   5.282   5.753  0.6609  0.0054 -0.3356
 2180poe     o2 8879   3.030   5.293   5.892 -0.3097 -0.0972 -0.1763
 2180poe    c31 8880   3.028   5.422   5.946 -0.5789 -0.2564  0.1937
 2181poe    c31 8881   1.666   5.431   7.237  0.0056  0.7493  0.1349
 2181poe     o2 8882   1.744   5.337   7.308  0.1002  0.5310 -0.2577
 2181poe    c23 8883   1.867   5.394   7.346  0.1194  0.8409 -0.7792
 2181poe    c23 8884   1.882   5.517   7.437  0.4650  0.0673  0.2276
 2181poe     o2 8885   1.869   5.503   7.577  0.3305 -0.3493  0.1740
 2181poe    c23 8886   1.957   5.422   7.652  0.5810  0.0690  0.3349
 2181poe    c23 8887   1.881   5.367   7.775  0.0076  0.0367 -0.0284
 2181poe     o2 8888   1.775   5.279   7.746  0.3370 -0.7883  1.2111
 2181poe    c23 8889   1.682   5.257   7.850  0.0357 -0.5874  0.9838
 2181poe    c23 8890   1.624   5.117   7.822 -0.4328 -0.1341 -0.4200
 2181poe     o2 8891   1.546   5.096   7.706  0.1925  0.2211 -0.9169
 2181poe    c31 8892   1.489   4.967   7.711 -0.6593  0.6207  0.0490
 2182poe    c31 8893   0.704   1.133   2.070  0.6516 -0.1214  0.2293
 2182poe     o2 8894   0.821   1.071   2.117  0.9792  0.3001 -0.0254
 2182poe    c23 8895   0.916   1.173   2.140  0.6395  0.5667  0.1939
 2182poe    c23 8896   1.056   1.114   2.164  0.2326 -0.3857  0.2731
 2182poe     o2 8897   1.051   1.021   2.271 -0.2846 -0.5275  0.1305
 2182poe    c23 8898   1.157   0.930   2.249  0.3695  0.1919  0.2300
 2182poe    c23 8899   1.197   0.856   2.378  0.1622  0.5601  0.5102
 2182poe     o2 8900   1.069   0.813   2.416  0.4328 -0.8454 -0.0954
 2182poe    c23 8901   1.071   0.752   2.544  0.8235 -1.0520 -0.1996
 2182poe    c23 8902   0.928   0.714   2.586  0.5842  0.2370  0.1916
 2182poe     o2 8903   0.847   0.818   2.538 -0.1114 -0.2494  0.2966
 2182poe    c31 8904   0.725   0.828   2.608 -0.3739 -0.4570 -0.1230
 2183poe    c31 8905   3.658   5.363   0.364 -0.1933 -0.1155  0.0501
 2183poe     o2 8906   3.636   5.500   0.393 -0.5780 -0.0964 -0.3127
 2183poe    c23 8907   3.762   5.557   0.365 -0.6213 -0.1781 -0.6835
 2183poe    c23 8908   3.749   5.702   0.416 -0.0668 -0.4062  0.1319
 2183poe     o2 8909   3.732   5.712   0.556  0.0588  0.2970  0.1003
 2183poe    c23 8910   3.853   5.707   0.627 -0.3530  0.2551  0.8118
 2183poe    c23 8911   3.933   5.838   0.644  0.6916 -0.3414  0.6068
 2183poe     o2 8912   3.982   5.885   0.521 -0.0722 -0.4748  0.2459
 2183poe    c23 8913   3.965   6.024   0.507  0.2950 -0.4768 -0.2687
 2183poe    c23 8914   3.982   6.077   0.363  0.1717  0.6986  0.1360
 2183poe     o2 8915   3.870   6.040   0.285  0.5644 -0.3248  0.0317
 2183poe    c31 8916   3.893   6.066   0.149  0.1114 -0.7404 -0.1243
 2184poe    c31 8917   2.778   0.725   1.028  0.3466 -0.2075 -0.3626
 2184poe     o2 8918   2.666   0.729   1.114  0.3944  0.1246 -0.3162
 2184poe    c23 8919   2.729   0.731   1.241 -0.0699  0.5195 -0.0891
 2184poe    c23 8920   2.647   0.636   1.330 -0.2104  0.2753 -0.4739
 2184poe     o2 8921   2.513   0.678   1.340 -0.2857 -0.0222 -0.2173
 2184poe    c23 8922   2.453   0.600   1.442 -0.2085  0.9700  0.6000
 2184poe    c23 8923   2.301   0.623   1.456 -0.4244 -0.4449  0.6842
 2184poe     o2 8924   2.234   0.633   1.332 -0.1461 -0.4399  0.5342
 2184poe    c23 8925   2.118   0.712   1.350 -0.0608 -0.1944  0.0184
 2184poe    c23 8926   2.128   0.863   1.378 -0.5878 -0.2472  0.5075
 2184poe     o2 8927   2.204   0.922   1.275 -0.5784 -0.4212  0.4139
 2184poe    c31 8928   2.208   1.062   1.292 -0.1431 -0.3513 -0.2070
 2185poe    c31 8929   4.778   1.532   6.922  0.7982 -0.4744 -0.2140
 2185poe     o2 8930   4.830   1.555   7.052 -0.5051 -0.6379  0.3510
 2185poe    c23 8931   4.724   1.597   7.135 -0.5006 -0.2667  0.1738
 2185poe    c23 8932   4.794   1.617   7.271 -0.1594  0.0950 -0.0549
 2185poe     o2 8933   4.917   1.685   7.257  0.0889 -0.4699 -0.6497
 2185poe    c23 8934   4.948   1.732   7.386  0.5085 -0.5151 -0.7323
 2185poe    c23 8935   5.082   1.805   7.404  0.2373 -0.2822  0.4724
 2185poe     o2 8936   5.191   1.733   7.350  0.0103 -0.4095  0.1788
 2185poe    c23 8937   5.297   1.822   7.324 -0.4688  0.0463 -0.2295
 2185poe    c23 8938   5.411   1.741   7.258 -0.1704  0.2019  0.0928
 2185poe     o2 8939   5.381   1.715   7.123  0.3607 -0.0017  0.0136
 2185poe    c31 8940   5.494   1.655   7.063  0.3199 -0.2345  0.1705
 2186poe    c31 8941   2.658   3.967   5.881 -0.4626 -0.0522 -0.6439
 2186poe     o2 8942   2.624   3.984   6.017 -0.1995  0.0483 -0.5919
 2186poe    c23 8943   2.675   4.109   6.059 -0.4129  0.0910 -0.4615
 2186poe    c23 8944   2.588   4.171   6.170  0.4941 -0.0228  0.3180
 2186poe     o2 8945   2.581   4.100   6.291  0.1204 -0.0631  0.2736
 2186poe    c23 8946   2.492   4.143   6.391 -0.0217  0.5495 -0.1162
 2186poe    c23 8947   2.423   4.035   6.476  0.3488  0.6783  0.3512
 2186poe     o2 8948   2.291   4.072   6.510  0.2052  0.2689  0.2490
 2186poe    c23 8949   2.226   3.962   6.568  0.3358  0.0369 -0.0438
 2186poe    c23 8950   2.083   3.981   6.623  0.3853  0.1061  0.0593
 2186poe     o2 8951   1.976   3.991   6.532  0.4003 -0.0285  0.0267
 2186poe    c31 8952   1.861   4.028   6.604  0.4366  0.0074  0.0664
 2187poe    c31 8953   6.165   6.163   1.241 -0.0047 -0.2247  0.1401
 2187poe     o2 8954   6.170   6.304   1.242 -0.3603 -0.2118 -0.0067
 2187poe    c23 8955   6.204   6.356   1.115 -0.2029  0.3850  0.2742
 2187poe    c23 8956   6.208   6.509   1.121 -0.1493  0.3812  0.3326
 2187poe     o2 8957   6.319   6.566   1.188  0.3092  0.1776 -0.2483
 2187poe    c23 8958   6.326   6.703   1.157  0.1235  0.1849 -0.2588
 2187poe    c23 8959   6.443   6.773   1.228 -0.1609 -0.2213  0.6205
 2187poe     o2 8960   6.423   6.844   1.348  0.0240  0.2339  0.3814
 2187poe    c23 8961   6.516   6.949   1.360  0.5440 -0.2050  0.2053
 2187poe    c23 8962   6.505   7.032   1.489 -0.0045 -0.1486  0.1228
 2187poe     o2 8963   6.565   6.987   1.608  0.4863 -0.1935 -0.1402
 2187poe    c31 8964   6.527   7.060   1.722  0.4400  0.9171 -0.8581
 2188poe    c31 8965   3.492   4.150   0.294 -0.1605  1.0721  0.2832
 2188poe     o2 8966   3.510   4.044   0.385  0.2537  0.3774 -0.6002
 2188poe    c23 8967   3.508   4.089   0.518  0.3894 -0.2799 -0.3724
 2188poe    c23 8968   3.455   3.967   0.596 -0.0727 -0.1026 -0.4083
 2188poe     o2 8969   3.526   3.860   0.538  0.4557  0.0568 -0.0634
 2188poe    c23 8970   3.539   3.761   0.637 -0.8535 -0.0711 -0.0074
 2188poe    c23 8971   3.590   3.624   0.587 -0.5574  0.3363 -0.8291
 2188poe     o2 8972   3.687   3.644   0.486  0.3540 -0.1247 -0.0596
 2188poe    c23 8973   3.719   3.527   0.415 -1.0328 -0.2218 -0.5492
 2188poe    c23 8974   3.836   3.547   0.317  0.0607 -1.1890  0.5336
 2188poe     o2 8975   3.958   3.596   0.370 -0.0941  0.5308 -0.6087
 2188poe    c31 8976   4.040   3.636   0.263 -0.1231  0.2044 -0.7550
 2189poe    c31 8977   0.216   2.221   3.393 -0.6064 -0.5047  0.6073
 2189poe     o2 8978   0.142   2.333   3.350 -0.0424 -0.3405  0.0397
 2189poe    c23 8979   0.102   2.411   3.461 -0.2234  0.5213 -0.6198
 2189poe    c23 8980  -0.015   2.508   3.439 -0.2671  0.6225  0.0721
 2189poe     o2 8981  -0.019   2.578   3.317  0.2123 -0.0009 -0.2994
 2189poe    c23 8982  -0.110   2.683   3.337  0.0267 -0.2083 -0.0427
 2189poe    c23 8983  -0.059   2.797   3.246 -0.3639  0.0174  0.0176
 2189poe     o2 8984  -0.060   2.755   3.111 -0.3575  0.3961 -0.1006
 2189poe    c23 8985   0.005   2.832   3.012 -0.2138 -0.0448 -0.3515
 2189poe    c23 8986  -0.000   2.745   2.885  0.5416 -0.4113 -0.1345
 2189poe     o2 8987   0.027   2.610   2.916 -0.0399 -0.4023  0.4309
 2189poe    c31 8988   0.038   2.549   2.789 -0.6009  0.3359  0.0222
 2190poe    c31 8989   1.740   1.212   0.351  0.4917  0.2006 -0.0702
 2190poe     o2 8990   1.810   1.093   0.378  0.1356  0.0448  0.1804
 2190poe    c23 8991   1.907   1.041   0.291  0.7479  0.8434  0.3685
 2190poe    c23 8992   1.949   0.899   0.333 -0.3772  0.5085  0.4033
 2190poe     o2 8993   2.034   0.884   0.445 -0.2239 -0.3880  0.1760
 2190poe    c23 8994   2.053   0.748   0.476 -0.0173 -0.5559 -0.6665
 2190poe    c23 8995   2.044   0.740   0.630 -0.1736  0.3096 -0.6301
 2190poe     o2 8996   2.143   0.825   0.682 -0.0907 -0.0499 -0.1943
 2190poe    c23 8997   2.153   0.822   0.822 -0.2067  0.2349 -0.1777
 2190poe    c23 8998   2.255   0.929   0.865  0.0893  0.0317 -0.3673
 2190poe     o2 8999   2.214   1.052   0.810 -0.4454  0.0412  0.0422
 2190poe    c31 9000   2.277   1.160   0.874 -0.7364  0.3764 -0.2339
 2191poe    c31 9001   2.724   1.206   2.078 -0.4780  0.0170 -0.1394
 2191poe     o2 9002   2.659   1.332   2.084 -0.1958  0.1704 -0.2866
 2191poe    c23 9003   2.733   1.430   2.016 -0.2463  0.4229  0.0214
 2191poe    c23 9004   2.668   1.570   2.006 -0.5721  0.2497 -0.2911
 2191poe     o2 9005   2.700   1.644   2.121  0.4268 -0.0563 -0.3664
 2191poe    c23 9006   2.696   1.784   2.108 -0.6266 -0.0498 -0.0504
 2191poe    c23 9007   2.783   1.847   2.219 -0.6715  0.3656 -0.2492
 2191poe     o2 9008   2.761   1.795   2.348 -0.0604 -0.0269 -0.2962
 2191poe    c23 9009   2.820   1.886   2.438  0.3040 -0.0477 -0.5109
 2191poe    c23 9010   2.831   1.825   2.579 -0.6178 -0.2561 -0.5230
 2191poe     o2 9011   2.914   1.711   2.578 -0.1734  0.0585  0.0293
 2191poe    c31 9012   2.927   1.645   2.702 -0.2042  0.1343  0.0728
 2192poe    c31 9013   5.914   4.931   4.704 -0.0429 -0.4616 -0.0545
 2192poe     o2 9014   6.006   4.826   4.719 -0.1852 -0.4967  0.6032
 2192poe    c23 9015   6.023   4.793   4.855  0.7788  0.0736  0.6298
 2192poe    c23 9016   6.113   4.670   4.872  1.0630  0.2179  0.1878
 2192poe     o2 9017   6.061   4.567   4.791  0.1975  0.5057  0.3687
 2192poe    c23 9018   6.142   4.451   4.791 -0.1421  0.2664  0.3031
 2192poe    c23 9019   6.070   4.330   4.728  0.1509  0.1322  0.2261
 2192poe     o2 9020   5.983   4.378   4.628 -0.0695 -0.2849  0.2157
 2192poe    c23 9021   6.013   4.298   4.516 -0.1485  0.0703 -0.0584
 2192poe    c23 9022   5.922   4.326   4.395  0.0421  0.4715 -0.1107
 2192poe     o2 9023   5.923   4.451   4.328  0.7572  0.4012 -0.2406
 2192poe    c31 9024   5.826   4.447   4.226  0.5493 -0.4711 -0.0186
 2193poe    c31 9025   6.306   4.143   6.112 -0.2271 -0.5035 -0.6605
 2193poe     o2 9026   6.357   4.011   6.111  0.3840 -0.2772 -0.1123
 2193poe    c23 9027   6.375   3.986   5.973 -0.4085  0.7483 -0.4168
 2193poe    c23 9028   6.436   3.848   5.945 -0.6941  0.4818  0.2515
 2193poe     o2 9029   6.569   3.846   5.993 -0.3739  0.0646 -0.6218
 2193poe    c23 9030   6.639   3.734   5.945 -0.4439 -0.0907 -0.3666
 2193poe    c23 9031   6.770   3.733   6.024 -0.4987  0.5465 -0.2640
 2193poe     o2 9032   6.734   3.756   6.159 -0.1979 -0.6423  0.0272
 2193poe    c23 9033   6.843   3.737   6.247  0.1736 -0.7571 -0.4535
 2193poe    c23 9034   6.824   3.802   6.385  0.6770 -1.2772 -0.1339
 2193poe     o2 9035   6.716   3.744   6.454  0.2363 -0.0244  0.2541
 2193poe    c31 9036   6.665   3.817   6.564 -0.3254 -0.4145  0.2535
 2194poe    c31 9037   5.326   5.659   4.654  0.3046  0.1915 -0.0925
 2194poe     o2 9038   5.256   5.576   4.564  0.1000  0.4797 -0.2005
 2194poe    c23 9039   5.126   5.628   4.552 -0.0737  0.0819 -0.0283
 2194poe    c23 9040   5.077   5.600   4.409 -0.5009  0.3795  0.0568
 2194poe     o2 9041   5.108   5.470   4.364 -0.0787  0.2529  0.7052
 2194poe    c23 9042   5.031   5.449   4.248 -0.2835  0.1776  0.8539
 2194poe    c23 9043   5.050   5.301   4.211  0.3819  0.3829  0.3648
 2194poe     o2 9044   5.184   5.277   4.172 -0.1812 -0.1692 -1.3036
 2194poe    c23 9045   5.203   5.138   4.170  0.2831 -0.1432  0.1454
 2194poe    c23 9046   5.343   5.090   4.128  0.0097 -0.4887 -0.3793
 2194poe     o2 9047   5.436   5.134   4.224 -0.3169 -0.4668 -0.0700
 2194poe    c31 9048   5.555   5.065   4.193 -0.2813 -0.0897 -0.7992
 2195poe    c31 9049   5.543   6.243   1.699 -0.6457 -0.5327 -0.1157
 2195poe     o2 9050   5.644   6.226   1.602 -0.1740  0.0520  0.2661
 2195poe    c23 9051   5.586   6.243   1.475  0.0952 -0.1876  0.1077
 2195poe    c23 9052   5.693   6.285   1.373 -0.5023 -0.2576 -0.5591
 2195poe     o2 9053   5.788   6.189   1.333  0.0931  0.0201  0.1624
 2195poe    c23 9054   5.734   6.089   1.249 -0.1543  0.1529  0.1646
 2195poe    c23 9055   5.836   5.975   1.237 -0.3887 -0.0346 -0.0713
 2195poe     o2 9056   5.860   5.907   1.358 -0.1426  0.4597  0.1630
 2195poe    c23 9057   5.973   5.822   1.348 -0.2329  0.2899  0.5499
 2195poe    c23 9058   6.004   5.759   1.485 -0.0442 -0.3004  0.2366
 2195poe     o2 9059   5.884   5.695   1.524 -0.7111  0.8019  0.0336
 2195poe    c31 9060   5.898   5.651   1.657 -0.1981 -0.4707 -0.4327
 2196poe    c31 9061   3.698   1.635   3.413 -0.1749  0.3166  0.4170
 2196poe     o2 9062   3.837   1.616   3.404 -0.1946  0.4014 -0.1359
 2196poe    c23 9063   3.893   1.648   3.530 -0.4692 -0.2222  0.1458
 2196poe    c23 9064   4.028   1.574   3.538 -0.4142 -0.1718 -0.2848
 2196poe     o2 9065   4.113   1.597   3.428 -0.1026 -0.2267 -0.0568
 2196poe    c23 9066   4.198   1.488   3.402 -0.2890 -0.5810  0.7940
 2196poe    c23 9067   4.281   1.515   3.275 -0.7239  0.3943  0.7099
 2196poe     o2 9068   4.199   1.497   3.162  0.2825 -0.7413  0.1476
 2196poe    c23 9069   4.271   1.436   3.057  0.1356  0.4711 -0.6694
 2196poe    c23 9070   4.194   1.352   2.954 -0.0328 -0.4048  0.1600
 2196poe     o2 9071   4.111   1.259   3.019  0.1412 -0.7694 -0.1335
 2196poe    c31 9072   4.034   1.213   2.910 -0.6159  0.0987  0.0318
 2197poe    c31 9073   1.960   2.897   0.686 -0.1822 -0.4103 -0.6686
 2197poe     o2 9074   2.013   2.778   0.740  0.5625  0.3641  0.3546
 2197poe    c23 9075   1.997   2.759   0.878  0.1768  0.4835  0.3279
 2197poe    c23 9076   1.963   2.611   0.906  0.1009  0.4399  0.0050
 2197poe     o2 9077   2.078   2.529   0.917 -0.2394  0.0036  0.3415
 2197poe    c23 9078   2.028   2.398   0.907 -0.1046 -0.0127 -0.1408
 2197poe    c23 9079   2.150   2.308   0.881 -0.3700 -0.4597  0.1522
 2197poe     o2 9080   2.211   2.340   0.759 -0.1067 -0.3202  0.3211
 2197poe    c23 9081   2.335   2.274   0.745  0.3791  0.6788 -0.2099
 2197poe    c23 9082   2.371   2.272   0.595  0.2572 -0.0550 -0.2302
 2197poe     o2 9083   2.360   2.406   0.552  0.5487  0.0376 -0.0200
 2197poe    c31 9084   2.420   2.429   0.427  0.1388 -0.3303 -0.2876
 2198poe    c31 9085   6.894   5.192   1.739 -0.2109  0.1292  0.0176
 2198poe     o2 9086   6.908   5.082   1.825 -0.4438  0.3289  0.3102
 2198poe    c23 9087   7.048   5.073   1.840 -0.3696  0.1093 -0.4734
 2198poe    c23 9088   7.096   4.987   1.959 -0.5774  0.1704 -0.3448
 2198poe     o2 9089   7.081   4.847   1.959  0.0413  0.1031  0.0018
 2198poe    c23 9090   7.152   4.786   2.064  0.3410  0.0550 -0.2257
 2198poe    c23 9091   7.179   4.643   2.012 -0.1152 -0.1837  0.1839
 2198poe     o2 9092   7.072   4.589   1.938  0.2427 -0.2289 -0.3030
 2198poe    c23 9093   7.098   4.465   1.877  0.1193 -0.0436 -0.7436
 2198poe    c23 9094   6.971   4.433   1.796 -0.1739 -0.5092 -0.1140
 2198poe     o2 9095   6.925   4.549   1.730 -0.0647 -0.3796  0.0344
 2198poe    c31 9096   6.830   4.522   1.629 -0.3831  0.0959  0.2041
 2199poe    c31 9097   3.904   0.377   2.963 -0.4363 -0.2644 -0.1800
 2199poe     o2 9098   3.844   0.466   3.055  0.1503 -0.1967  0.1426
 2199poe    c23 9099   3.853   0.603   3.025 -0.3691 -0.1799  0.0473
 2199poe    c23 9100   3.847   0.668   3.164  0.2507  0.2930 -0.1421
 2199poe     o2 9101   3.965   0.647   3.238  0.0013 -0.2838  0.0999
 2199poe    c23 9102   3.948   0.696   3.370  0.3222  0.0946  0.0044
 2199poe    c23 9103   4.063   0.652   3.463  0.5882 -0.0505 -0.3905
 2199poe     o2 9104   4.049   0.518   3.505  0.4814  0.0894  0.0246
 2199poe    c23 9105   4.113   0.504   3.629  0.3051  0.3916  0.1505
 2199poe    c23 9106   4.110   0.356   3.672  0.1677  0.1580 -0.6583
 2199poe     o2 9107   4.170   0.274   3.574 -0.2870 -0.3043 -0.5600
 2199poe    c31 9108   4.156   0.140   3.613  0.0466 -0.0845  0.3248
 2200poe    c31 9109   5.354   4.749   3.403  0.0935  0.0016 -0.2636
 2200poe     o2 9110   5.417   4.623   3.399 -0.2888 -0.1947 -0.1575
 2200poe    c23 9111   5.410   4.564   3.271 -0.1981 -0.2602 -0.1319
 2200poe    c23 9112   5.434   4.413   3.283  0.0975 -0.2288 -0.3126
 2200poe     o2 9113   5.547   4.414   3.366  0.2169 -0.7814 -0.4620
 2200poe    c23 9114   5.589   4.283   3.398 -0.2379 -0.8140  0.0173
 2200poe    c23 9115   5.703   4.305   3.499 -0.6896  0.4927  0.2634
 2200poe     o2 9116   5.683   4.417   3.582 -0.2104  0.6865  0.1232
 2200poe    c23 9117   5.750   4.419   3.706  0.2227 -0.8800 -0.0634
 2200poe    c23 9118   5.669   4.389   3.833 -0.1860 -0.7715 -0.2988
 2200poe     o2 9119   5.561   4.477   3.854  0.6132  0.1206  0.1359
 2200poe    c31 9120   5.519   4.472   3.988 -0.3029  0.0199 -0.1491
 2201poe    c31 9121   7.129   6.911   5.968  0.9382  0.9227  1.0672
 2201poe     o2 9122   7.258   6.914   5.910  0.5472 -0.2880  0.1009
 2201poe    c23 9123   7.266   6.811   5.813  0.6779  0.3593 -0.5808
 2201poe    c23 9124   7.229   6.852   5.669 -0.1213  0.8540 -0.2438
 2201poe     o2 9125   7.094   6.879   5.638 -0.3180  0.2925  0.1118
 2201poe    c23 9126   7.069   6.821   5.512  0.3400  0.2870 -0.0206
 2201poe    c23 9127   6.919   6.817   5.476  0.3564  0.7524 -0.1454
 2201poe     o2 9128   6.888   6.954   5.476  0.0193  0.6758  0.1167
 2201poe    c23 9129   6.758   6.984   5.430 -0.1877  0.2047  0.3890
 2201poe    c23 9130   6.765   7.009   5.278  0.2397  0.1311  0.3938
 2201poe     o2 9131   6.796   7.137   5.228  0.0796  0.1433  0.3261
 2201poe    c31 9132   6.885   7.140   5.118 -0.8180 -0.0346 -0.4198
 2202poe    c31 9133   0.436   2.204   0.251 -0.3848  0.2423 -0.1019
 2202poe     o2 9134   0.339   2.265   0.334 -0.1909 -0.1055  0.3869
 2202poe    c23 9135   0.365   2.403   0.339 -0.9166  0.0991 -0.8378
 2202poe    c23 9136   0.264   2.479   0.428  0.0403  0.4076  0.0103
 2202poe     o2 9137   0.227   2.408   0.544  0.4333  0.5876  0.2509
 2202poe    c23 9138   0.137   2.494   0.610  0.1128  0.4623 -0.0156
 2202poe    c23 9139   0.054   2.443   0.730 -0.0766  0.2779 -0.2228
 2202poe     o2 9140  -0.014   2.324   0.697  0.0342  0.0562  0.3404
 2202poe    c23 9141  -0.074   2.246   0.798 -0.4500  0.2672  0.2144
 2202poe    c23 9142  -0.228   2.261   0.805 -0.4403  0.4125  0.1336
 2202poe     o2 9143  -0.294   2.205   0.693 -0.4252 -0.0222  0.3385
 2202poe    c31 9144  -0.432   2.215   0.717 -0.5306  0.7011 -0.5319
 2203poe    c31 9145   6.865   1.411   2.241 -0.1692 -0.2918  0.4473
 2203poe     o2 9146   6.978   1.338   2.284 -0.1990 -0.0864  0.8835
 2203poe    c23 9147   7.055   1.282   2.180 -0.1992  0.0200  0.8256
 2203poe    c23 9148   7.204   1.316   2.164 -0.2566 -0.1270 -0.0730
 2203poe     o2 9149   7.224   1.453   2.135  0.1606 -0.0458  0.5759
 2203poe    c23 9150   7.347   1.461   2.066 -0.2672 -0.7734 -0.2939
 2203poe    c23 9151   7.397   1.599   2.019  0.6958 -1.2204 -0.6112
 2203poe     o2 9152   7.317   1.642   1.911  0.0128 -0.2026  0.2725
 2203poe    c23 9153   7.376   1.745   1.835 -0.4440 -0.5814 -0.6119
 2203poe    c23 9154   7.331   1.892   1.843  0.0788 -0.4571  0.1017
 2203poe     o2 9155   7.192   1.915   1.847  0.1675  0.1246 -0.0738
 2203poe    c31 9156   7.174   2.022   1.937 -0.2978 -0.0878  0.0909
 2204poe    c31 9157   1.137   0.912   6.982 -0.0241 -0.7252  0.3468
 2204poe     o2 9158   1.221   0.925   6.870  0.3225  0.4877  0.7350
 2204poe    c23 9159   1.202   1.056   6.820  0.6857  0.3013  0.0984
 2204poe    c23 9160   1.299   1.071   6.701  0.1883  0.3326 -0.3047
 2204poe     o2 9161   1.262   0.991   6.591  0.5163  0.0659 -0.2191
 2204poe    c23 9162   1.314   1.033   6.467  0.2627 -0.0989 -0.3830
 2204poe    c23 9163   1.339   0.938   6.348 -0.0582 -0.1989 -0.3701
 2204poe     o2 9164   1.225   0.923   6.265 -0.3598 -0.0629  0.0144
 2204poe    c23 9165   1.178   0.791   6.274 -0.1187 -0.1097  0.6818
 2204poe    c23 9166   1.043   0.775   6.202  0.1265  0.6826  0.0398
 2204poe     o2 9167   1.035   0.797   6.062  0.2071  0.1557 -0.0477
 2204poe    c31 9168   0.924   0.740   5.997  0.7007  0.3003 -1.0283
 2205poe    c31 9169   4.072   5.001   1.827  0.5806 -0.3264  0.1582
 2205poe     o2 9170   4.008   4.954   1.710 -0.3892  0.3704  0.3901
 2205poe    c23 9171   3.884   5.014   1.681 -0.5321 -0.3796 -0.5869
 2205poe    c23 9172   3.830   4.972   1.543 -0.6626  0.2131 -0.7195
 2205poe     o2 9173   3.945   4.974   1.461  0.0648 -0.6620  0.2472
 2205poe    c23 9174   3.911   4.931   1.331 -0.2622 -0.4298  0.2551
 2205poe    c23 9175   4.029   4.948   1.233 -0.8056  0.1055 -0.3152
 2205poe     o2 9176   4.150   4.912   1.296 -0.5012  0.3146 -0.7814
 2205poe    c23 9177   4.259   4.897   1.207  0.3556  0.3289  0.2506
 2205poe    c23 9178   4.388   4.844   1.272  0.5481  0.0363 -0.3706
 2205poe     o2 9179   4.424   4.924   1.383 -0.2843  0.6465 -0.5304
 2205poe    c31 9180   4.562   4.896   1.390 -0.4680  0.0620  0.9116
 2206poe    c31 9181   5.098   3.225   7.177  0.0085 -0.2846 -0.6275
 2206poe     o2 9182   5.159   3.278   7.062  0.4768  0.1351 -0.1905
 2206poe    c23 9183   5.261   3.188   7.023 -0.2302 -0.7505 -0.0225
 2206poe    c23 9184   5.316   3.239   6.888  0.1791 -0.2375  0.3337
 2206poe     o2 9185   5.355   3.375   6.894 -0.0956 -0.1325 -0.2210
 2206poe    c23 9186   5.462   3.409   6.810 -0.2223 -0.0342 -0.3418
 2206poe    c23 9187   5.493   3.560   6.803  0.1436 -0.0958 -0.0870
 2206poe     o2 9188   5.490   3.608   6.936 -1.1191  0.3095 -0.2497
 2206poe    c23 9189   5.552   3.729   6.975  0.4730 -0.4623 -0.2999
 2206poe    c23 9190   5.474   3.843   6.907  0.1511 -0.6370 -0.2281
 2206poe     o2 9191   5.338   3.819   6.938 -0.0791  0.1244 -0.6238
 2206poe    c31 9192   5.255   3.921   6.886 -0.1153 -0.0588 -0.9276
 2207poe    c31 9193   3.347   3.000   2.812  0.4927 -0.4894  0.1362
 2207poe     o2 9194   3.360   3.133   2.766  0.2404 -0.3946  0.3356
 2207poe    c23 9195   3.231   3.190   2.773  0.4217  0.1324 -0.5033
 2207poe    c23 9196   3.233   3.337   2.728 -0.8035  0.3260  0.0581
 2207poe     o2 9197   3.270   3.354   2.593  0.5224 -0.1179  0.3578
 2207poe    c23 9198   3.278   3.491   2.561  0.9071 -0.0677  0.6499
 2207poe    c23 9199   3.333   3.508   2.418 -0.0450 -0.1270  0.2679
 2207poe     o2 9200   3.471   3.481   2.405 -0.0713 -0.1706  0.0697
 2207poe    c23 9201   3.507   3.482   2.269 -0.0994  0.8817  0.0616
 2207poe    c23 9202   3.651   3.428   2.271 -0.4920 -0.1812  0.4484
 2207poe     o2 9203   3.651   3.302   2.333  0.1456 -0.3267  0.1548
 2207poe    c31 9204   3.783   3.251   2.332  0.1550 -0.3079  0.4569
 2208poe    c31 9205   4.091   3.162   1.757 -0.3315  0.0744 -0.6513
 2208poe     o2 9206   4.021   3.262   1.688 -0.2137  0.4777 -0.1895
 2208poe    c23 9207   4.111   3.344   1.616 -0.0058 -0.0523 -0.5356
 2208poe    c23 9208   4.042   3.460   1.543 -0.3268  0.1459  0.0779
 2208poe     o2 9209   4.124   3.534   1.456  0.0912  0.1140  0.4470
 2208poe    c23 9210   4.043   3.636   1.403 -0.0095 -0.3958 -0.3961
 2208poe    c23 9211   4.111   3.740   1.312  0.0274  0.1652  0.2603
 2208poe     o2 9212   4.181   3.841   1.381  0.1199  0.1676  0.1613
 2208poe    c23 9213   4.190   3.939   1.279  0.3858 -0.3353 -0.3060
 2208poe    c23 9214   4.180   4.079   1.342 -0.0836 -0.4907 -0.0258
 2208poe     o2 9215   4.255   4.083   1.461 -0.2901  0.3199  0.0843
 2208poe    c31 9216   4.297   4.209   1.509  0.4938  0.2271 -0.3439
 2209poe    c31 9217   0.403   6.974   4.758  0.4164  0.4492  0.2653
 2209poe     o2 9218   0.331   7.068   4.681 -0.1462 -0.4713 -0.3510
 2209poe    c23 9219   0.388   7.098   4.556 -0.0724  0.4142 -0.1115
 2209poe    c23 9220   0.277   7.143   4.459 -0.5578 -0.7217 -0.1076
 2209poe     o2 9221   0.198   7.253   4.498  0.4074  0.0759 -0.3498
 2209poe    c23 9222   0.102   7.286   4.400  0.1248 -0.0380 -0.1118
 2209poe    c23 9223   0.049   7.430   4.414  0.3509  0.0196  0.1718
 2209poe     o2 9224   0.010   7.443   4.549 -0.3570 -0.2485 -0.0008
 2209poe    c23 9225  -0.081   7.549   4.569 -0.0217  0.1369 -0.4835
 2209poe    c23 9226  -0.112   7.546   4.720  0.5250 -0.0411 -0.3727
 2209poe     o2 9227   0.009   7.527   4.790  0.2577 -0.0347  0.0945
 2209poe    c31 9228   0.038   7.645   4.860  0.7660  0.1639 -0.4388
 2210poe    c31 9229   3.165   6.088   4.041 -0.7177  0.8037 -0.9206
 2210poe     o2 9230   3.090   6.150   4.142 -0.3053 -0.0525 -0.0792
 2210poe    c23 9231   2.951   6.146   4.117 -0.2790  0.0761 -0.2453
 2210poe    c23 9232   2.882   6.160   4.254  0.0898 -0.7340  0.0279
 2210poe     o2 9233   2.931   6.265   4.335 -1.0036  0.0013 -0.2499
 2210poe    c23 9234   2.857   6.251   4.454 -0.1799  0.1833  0.2937
 2210poe    c23 9235   2.942   6.316   4.565 -0.0515  0.8275 -0.1772
 2210poe     o2 9236   3.079   6.313   4.531 -0.0000 -0.0608  0.1063
 2210poe    c23 9237   3.168   6.345   4.636  0.3645  0.1746 -0.2749
 2210poe    c23 9238   3.286   6.249   4.662 -0.2495 -0.3653  0.5502
 2210poe     o2 9239   3.373   6.226   4.554 -0.5839  0.3153  0.1282
 2210poe    c31 9240   3.483   6.154   4.605 -0.0597  0.9284 -0.1313
 2211poe    c31 9241   5.857   4.083   6.468 -0.6067  0.2489 -1.0751
 2211poe     o2 9242   5.721   4.051   6.490 -0.2214 -0.3889  0.4526
 2211poe    c23 9243   5.685   3.950   6.398  0.1052  0.0689 -0.1847
 2211poe    c23 9244   5.539   3.964   6.351  0.0354 -0.3587 -0.0983
 2211poe     o2 9245   5.435   3.987   6.443 -0.0863  0.0630 -0.3408
 2211poe    c23 9246   5.303   3.981   6.392 -0.3009 -1.1521  0.3127
 2211poe    c23 9247   5.197   4.019   6.498 -0.5206  0.2069 -0.3718
 2211poe     o2 9248   5.234   4.141   6.558 -0.1500  0.1445 -0.4673
 2211poe    c23 9249   5.144   4.171   6.662  0.8516  0.0424  0.4436
 2211poe    c23 9250   5.176   4.319   6.690  0.4975  0.2821 -0.3924
 2211poe     o2 9251   5.315   4.340   6.679  0.4647  0.6702 -0.0713
 2211poe    c31 9252   5.346   4.466   6.736  0.3621  0.7241 -0.1362
 2212poe    c31 9253   1.688   6.971   6.955  0.8292 -0.0484  0.0902
 2212poe     o2 9254   1.782   6.946   6.853  0.5224 -0.1343 -0.1710
 2212poe    c23 9255   1.885   7.041   6.856  0.3625  0.0473 -0.3485
 2212poe    c23 9256   2.007   6.993   6.776  0.4748  0.0158 -0.1599
 2212poe     o2 9257   2.098   7.091   6.732 -0.0338  0.6840  0.2681
 2212poe    c23 9258   2.043   7.140   6.612 -0.1289 -0.2361 -0.0703
 2212poe    c23 9259   2.124   7.232   6.519  0.3448  0.1227  0.6928
 2212poe     o2 9260   2.107   7.365   6.563 -0.8611  0.1381  0.1959
 2212poe    c23 9261   2.181   7.462   6.492 -0.0536 -0.2944  0.4422
 2212poe    c23 9262   2.158   7.486   6.342 -0.0515 -0.0191  0.4857
 2212poe     o2 9263   2.039   7.556   6.312  0.1061  0.0697  0.0703
 2212poe    c31 9264   2.062   7.694   6.291  0.4337  0.1484  0.9244
 2213poe    c31 9265   7.189   0.197   7.179 -0.6238 -0.9690 -0.8954
 2213poe     o2 9266   7.215   0.311   7.099  0.0153 -0.3883  0.1156
 2213poe    c23 9267   7.125   0.418   7.115  0.3892 -0.0450 -0.0703
 2213poe    c23 9268   7.146   0.530   7.011  0.8029 -0.2016 -0.1565
 2213poe     o2 9269   7.263   0.608   7.003  0.0493  0.9590 -0.1095
 2213poe    c23 9270   7.331   0.595   6.880  0.2989 -0.2113  0.1364
 2213poe    c23 9271   7.467   0.663   6.899  0.2018  0.0242 -0.0009
 2213poe     o2 9272   7.486   0.797   6.937 -0.3880  0.2449 -0.4752
 2213poe    c23 9273   7.612   0.854   6.910 -0.3132  0.1139 -0.4005
 2213poe    c23 9274   7.620   0.990   6.982 -0.0582 -0.5372  0.8429
 2213poe     o2 9275   7.600   0.991   7.121  0.0215 -0.3754  0.8530
 2213poe    c31 9276   7.564   1.124   7.152 -0.4138 -0.3248  0.1391
 2214poe    c31 9277   4.389   6.315   3.819 -0.0794 -0.2984  0.0974
 2214poe     o2 9278   4.448   6.348   3.696 -0.1900 -0.1571  0.0817
 2214poe    c23 9279   4.587   6.332   3.716 -0.0654  0.6787 -0.0878
 2214poe    c23 9280   4.672   6.299   3.592 -0.4272 -0.1023 -0.1365
 2214poe     o2 9281   4.655   6.401   3.496 -0.0234 -0.2651 -0.3861
 2214poe    c23 9282   4.755   6.383   3.398  0.1364 -0.5582 -0.1672
 2214poe    c23 9283   4.734   6.478   3.279 -0.5671 -0.4977 -0.0029
 2214poe     o2 9284   4.698   6.611   3.310 -0.3803 -0.4351 -0.0506
 2214poe    c23 9285   4.699   6.690   3.194 -0.3644  0.5295  0.5912
 2214poe    c23 9286   4.647   6.833   3.214 -0.4585  0.5486  0.2240
 2214poe     o2 9287   4.515   6.842   3.262 -0.4016 -0.1317  0.5139
 2214poe    c31 9288   4.472   6.977   3.264 -0.6487 -0.2114  0.6362
 2215poe    c31 9289   5.649   0.606   5.378  0.2278 -0.2508 -0.5481
 2215poe     o2 9290   5.560   0.694   5.313  0.4659  0.4564  0.0652
 2215poe    c23 9291   5.441   0.629   5.272  0.2474  0.9189 -0.0453
 2215poe    c23 9292   5.322   0.657   5.366 -0.2314  0.1789 -0.4268
 2215poe     o2 9293   5.320   0.796   5.387  0.2329  0.1206  0.0408
 2215poe    c23 9294   5.194   0.846   5.425  0.3262  0.0397  0.4566
 2215poe    c23 9295   5.210   0.999   5.415 -0.0464  0.0371 -0.2687
 2215poe     o2 9296   5.332   1.025   5.481  0.0053 -0.2672 -0.2405
 2215poe    c23 9297   5.359   1.160   5.513  0.3078 -0.3077 -0.3158
 2215poe    c23 9298   5.417   1.255   5.406 -0.3111  0.4637  0.0205
 2215poe     o2 9299   5.542   1.208   5.361 -0.7432 -0.2804 -0.4252
 2215poe    c31 9300   5.605   1.316   5.296  0.2274 -0.5275  0.0780
 2216poe    c31 9301   5.344   2.321   4.457 -0.1724 -0.2362 -0.0020
 2216poe     o2 9302   5.388   2.433   4.383 -0.4923 -0.2471 -0.2131
 2216poe    c23 9303   5.396   2.553   4.456 -0.5916 -0.1518 -0.3586
 2216poe    c23 9304   5.474   2.667   4.388 -0.0088 -0.5271 -0.3330
 2216poe     o2 9305   5.381   2.741   4.312  0.5721 -0.2717 -0.7958
 2216poe    c23 9306   5.425   2.750   4.178  0.5672  0.3515 -0.7610
 2216poe    c23 9307   5.306   2.788   4.088 -0.0641  0.0511 -0.0695
 2216poe     o2 9308   5.250   2.906   4.140  0.3466  0.4555 -0.5286
 2216poe    c23 9309   5.163   2.958   4.042 -0.5589 -0.0865 -0.0258
 2216poe    c23 9310   5.109   3.075   4.126 -0.0890 -0.0766  0.2704
 2216poe     o2 9311   5.085   3.042   4.261  0.1611  0.1510  0.3718
 2216poe    c31 9312   5.027   3.157   4.318  1.1411  0.9490 -0.2108
 2217poe    c31 9313   3.640   1.247   5.484  0.2052  0.2793  0.1863
 2217poe     o2 9314   3.523   1.281   5.555 -0.0657  0.1021 -0.1741
 2217poe    c23 9315   3.416   1.323   5.473  0.0824  0.7091 -0.0596
 2217poe    c23 9316   3.303   1.403   5.541 -0.5534 -0.2117 -0.0233
 2217poe     o2 9317   3.215   1.472   5.457 -0.3829 -0.5880 -0.5159
 2217poe    c23 9318   3.102   1.521   5.526 -0.0475 -0.1644 -0.2610
 2217poe    c23 9319   3.034   1.626   5.436  0.2161 -0.0471 -0.3251
 2217poe     o2 9320   2.975   1.553   5.330 -0.5257 -0.5658  0.4246
 2217poe    c23 9321   2.895   1.639   5.253  0.5282  0.2257  0.1808
 2217poe    c23 9322   2.844   1.560   5.130  0.5762 -0.3422  0.5229
 2217poe     o2 9323   2.947   1.479   5.078  0.3081 -0.1125 -0.3715
 2217poe    c31 9324   2.953   1.497   4.938 -0.8467 -0.0289 -0.4190
 2218poe    c31 9325   4.562   3.629   6.381 -0.2545  0.3488  0.4233
 2218poe     o2 9326   4.630   3.566   6.487  0.1906 -0.1130 -0.1267
 2218poe    c23 9327   4.619   3.427   6.468 -0.9833 -0.0455 -0.0009
 2218poe    c23 9328   4.646   3.351   6.599 -0.2368 -0.0040 -0.1258
 2218poe     o2 9329   4.565   3.405   6.702 -0.8410 -0.8203 -0.1564
 2218poe    c23 9330   4.574   3.333   6.823  0.1586 -0.4119  0.0274
 2218poe    c23 9331   4.698   3.365   6.909 -0.1042 -0.7579  0.5356
 2218poe     o2 9332   4.708   3.497   6.958 -0.2244 -0.3262 -0.5631
 2218poe    c23 9333   4.816   3.503   7.049 -0.2795  0.1472 -0.5299
 2218poe    c23 9334   4.804   3.644   7.109 -0.6525  0.0279 -0.3170
 2218poe     o2 9335   4.763   3.741   7.016  0.0926  0.1553 -0.5217
 2218poe    c31 9336   4.812   3.864   7.064 -0.1443 -0.1765  0.5870
 2219poe    c31 9337   4.096   4.407   2.182  0.5920  0.3252  0.2534
 2219poe     o2 9338   4.006   4.446   2.283  0.1520  0.1965 -0.0831
 2219poe    c23 9339   3.890   4.368   2.265  0.4903 -0.3166 -0.0556
 2219poe    c23 9340   3.788   4.391   2.379  0.4934  0.5735 -0.2290
 2219poe     o2 9341   3.673   4.464   2.342  0.2542  0.2335 -0.1580
 2219poe    c23 9342   3.571   4.452   2.439 -0.1021  0.2100 -0.5321
 2219poe    c23 9343   3.470   4.336   2.439 -0.0502  0.1619 -0.0828
 2219poe     o2 9344   3.520   4.212   2.485 -0.4013 -0.0106 -0.1648
 2219poe    c23 9345   3.531   4.098   2.403 -0.3535 -0.0169 -0.1498
 2219poe    c23 9346   3.482   3.964   2.462 -0.3189 -0.5834 -1.3733
 2219poe     o2 9347   3.592   3.903   2.525 -0.4444  0.2648 -0.3024
 2219poe    c31 9348   3.574   3.768   2.563 -0.3614  0.3215 -0.0582
 2220poe    c31 9349   0.882   6.017   6.776  0.2870  0.1536 -0.0508
 2220poe     o2 9350   0.780   6.111   6.800 -0.1664 -0.5936  1.0327
 2220poe    c23 9351   0.654   6.051   6.823 -0.2588 -0.4528  0.8996
 2220poe    c23 9352   0.541   6.155   6.835  0.0494 -0.0271  0.1554
 2220poe     o2 9353   0.573   6.265   6.917  0.0313 -0.1370  0.3086
 2220poe    c23 9354   0.469   6.358   6.905  0.0236 -0.2147 -0.2102
 2220poe    c23 9355   0.505   6.491   6.973 -0.9186 -0.0002 -0.1184
 2220poe     o2 9356   0.500   6.481   7.114  0.4688 -0.0203 -0.0646
 2220poe    c23 9357   0.468   6.611   7.156 -0.1565 -0.2202  0.0816
 2220poe    c23 9358   0.531   6.647   7.292 -0.7059  0.1521  0.2406
 2220poe     o2 9359   0.528   6.528   7.368  0.1011 -0.1772 -0.2281
 2220poe    c31 9360   0.508   6.565   7.503 -0.3184 -0.5422 -0.1866
 2221poe    c31 9361   3.854   5.632   3.624  0.2413 -0.1597 -0.0954
 2221poe     o2 9362   3.788   5.756   3.642  0.5302 -0.0379  0.1234
 2221poe    c23 9363   3.731   5.781   3.768  0.5298 -0.5315  0.2241
 2221poe    c23 9364   3.827   5.808   3.886 -0.3710  0.0669  0.8362
 2221poe     o2 9365   3.880   5.937   3.862 -0.0854 -0.0890  0.6310
 2221poe    c23 9366   4.001   5.963   3.929  0.0209 -0.0018  0.4066
 2221poe    c23 9367   4.100   6.028   3.831 -0.2913  0.0520  0.1254
 2221poe     o2 9368   4.051   6.140   3.760  0.1763  0.1278 -0.0843
 2221poe    c23 9369   4.118   6.159   3.637  0.1925  0.9502  0.0455
 2221poe    c23 9370   4.014   6.114   3.533  0.3244  0.6585  0.0400
 2221poe     o2 9371   3.899   6.194   3.551 -0.0887  0.1358 -0.2433
 2221poe    c31 9372   3.815   6.165   3.441 -0.2867  0.1752 -0.1019
 2222poe    c31 9373   5.422   6.935   3.274  0.5555  0.6990  0.1125
 2222poe     o2 9374   5.385   6.843   3.374  0.1683 -0.1143 -0.7614
 2222poe    c23 9375   5.456   6.871   3.492 -0.5557 -0.1866 -0.2978
 2222poe    c23 9376   5.486   6.751   3.584 -0.2892  0.0549 -0.0667
 2222poe     o2 9377   5.393   6.684   3.666 -0.0834 -0.0893  0.0484
 2222poe    c23 9378   5.435   6.565   3.730 -0.0394 -0.2909 -0.3495
 2222poe    c23 9379   5.300   6.508   3.775 -0.2392  0.4539  0.0114
 2222poe     o2 9380   5.235   6.430   3.677 -0.2862  0.3848  0.0971
 2222poe    c23 9381   5.111   6.366   3.694 -0.1034 -0.3193 -1.1035
 2222poe    c23 9382   5.124   6.218   3.734  0.4527  0.2051  0.7391
 2222poe     o2 9383   5.178   6.139   3.630 -0.5111  0.1548  0.2680
 2222poe    c31 9384   5.125   6.009   3.622  0.0731 -0.0508 -0.2886
 2223poe    c31 9385   4.929   0.972   6.560  0.0894 -0.7132  0.6689
 2223poe     o2 9386   4.955   1.012   6.428 -0.1585  0.2572  0.9087
 2223poe    c23 9387   4.853   1.100   6.385  0.1525  0.2062  0.0425
 2223poe    c23 9388   4.881   1.131   6.237 -0.4359 -0.4586 -0.2183
 2223poe     o2 9389   4.779   1.156   6.143 -0.7194  0.1080  0.2328
 2223poe    c23 9390   4.758   1.295   6.138 -0.6581  0.1402  0.7973
 2223poe    c23 9391   4.637   1.303   6.043  0.0742 -0.1786 -0.1748
 2223poe     o2 9392   4.664   1.230   5.925 -0.3037 -0.1694 -0.2662
 2223poe    c23 9393   4.574   1.255   5.818  0.2042  0.6790 -0.5046
 2223poe    c23 9394   4.651   1.209   5.693  0.4950 -0.1237 -0.0448
 2223poe     o2 9395   4.709   1.084   5.720  0.2058 -0.2736 -0.1068
 2223poe    c31 9396   4.814   1.055   5.631  0.3515 -0.6619  0.1839
 2224poe    c31 9397   0.868   1.793   1.062 -0.3009 -0.6403 -0.0811
 2224poe     o2 9398   0.880   1.923   1.008  0.0143 -0.7776 -0.3412
 2224poe    c23 9399   1.017   1.956   0.994 -0.3341  0.8352 -0.0928
 2224poe    c23 9400   1.049   2.070   0.896  0.0753  0.1599 -0.7459
 2224poe     o2 9401   1.014   2.193   0.954  0.1378 -0.2163  0.0980
 2224poe    c23 9402   1.051   2.297   0.867  0.8587 -0.1613  0.4573
 2224poe    c23 9403   1.050   2.427   0.950  0.7912  0.5026 -0.5610
 2224poe     o2 9404   1.132   2.410   1.063  0.0357 -0.3346 -0.1243
 2224poe    c23 9405   1.120   2.517   1.154  0.4074 -0.2986 -0.1149
 2224poe    c23 9406   1.261   2.580   1.165  0.1427  0.0934  1.2546
 2224poe     o2 9407   1.357   2.477   1.154 -0.3002 -0.2212  0.0475
 2224poe    c31 9408   1.485   2.537   1.154 -0.4132  0.0417  0.7543
 2225poe    c31 9409   1.081   2.248   2.612  0.3011  0.0024  0.8403
 2225poe     o2 9410   1.180   2.147   2.613 -0.0373 -0.3447  0.0310
 2225poe    c23 9411   1.238   2.121   2.739 -0.0428 -0.3070  0.0413
 2225poe    c23 9412   1.375   2.051   2.720 -0.5157 -1.1664 -0.2626
 2225poe     o2 9413   1.366   1.965   2.609 -0.1419 -0.4420 -0.8655
 2225poe    c23 9414   1.356   1.827   2.637  0.5046 -0.3329 -0.0722
 2225poe    c23 9415   1.375   1.755   2.503  0.0661 -0.2767 -0.1671
 2225poe     o2 9416   1.323   1.821   2.390  0.3886 -0.0082 -0.1620
 2225poe    c23 9417   1.362   1.755   2.272  0.4647  0.1749 -0.2394
 2225poe    c23 9418   1.314   1.820   2.140 -0.3859  0.0647  0.0073
 2225poe     o2 9419   1.356   1.954   2.132  0.4323 -0.1552  0.4911
 2225poe    c31 9420   1.359   1.997   1.998 -0.5009 -0.0671  0.4922
 2226poe    c31 9421   1.772   1.560   2.884 -0.2757  0.4823  0.3151
 2226poe     o2 9422   1.814   1.539   3.017  0.2026 -0.4601  0.0250
 2226poe    c23 9423   1.927   1.456   3.003  0.7091  0.2189  0.0214
 2226poe    c23 9424   1.962   1.409   3.146  0.1622 -0.3284 -0.0225
 2226poe     o2 9425   1.964   1.520   3.233  0.2079 -0.1957 -0.1919
 2226poe    c23 9426   2.057   1.505   3.338 -0.5144 -0.1171  0.4681
 2226poe    c23 9427   2.014   1.603   3.448 -0.5812  0.1413  0.2137
 2226poe     o2 9428   1.999   1.732   3.393 -0.6558  0.0697  0.0661
 2226poe    c23 9429   1.964   1.832   3.486 -0.0346 -0.5565  0.9925
 2226poe    c23 9430   1.919   1.967   3.427 -0.2303 -0.7755  0.6395
 2226poe     o2 9431   1.797   1.950   3.358 -0.2123 -0.1985  0.4567
 2226poe    c31 9432   1.729   2.073   3.356  0.3161  0.0822 -0.7793
 2227poe    c31 9433   3.507   5.811   2.645 -0.6451  0.0962  0.2705
 2227poe     o2 9434   3.610   5.752   2.722 -0.5749  0.1334  0.2054
 2227poe    c23 9435   3.576   5.622   2.764  0.7978 -0.4464 -0.4429
 2227poe    c23 9436   3.701   5.540   2.800  0.7949 -0.3973 -0.3204
 2227poe     o2 9437   3.797   5.629   2.852 -0.0440  0.2649  0.1105
 2227poe    c23 9438   3.915   5.555   2.874 -0.0818  0.1802  0.0290
 2227poe    c23 9439   4.018   5.622   2.967  0.0647  0.1147 -0.0857
 2227poe     o2 9440   4.049   5.749   2.912  0.1367 -0.0502 -0.4285
 2227poe    c23 9441   4.184   5.769   2.878  0.1721  0.0009 -0.2577
 2227poe    c23 9442   4.201   5.917   2.839  0.2427  0.0901  0.1108
 2227poe     o2 9443   4.116   5.966   2.738  0.0660 -0.2213  0.1079
 2227poe    c31 9444   4.157   6.081   2.668  0.1707 -0.1610  0.2663
 2228poe    c31 9445   6.620   6.114   7.013  0.1380 -0.4576 -0.3818
 2228poe     o2 9446   6.650   6.000   6.937  0.1175 -0.2001 -0.7821
 2228poe    c23 9447   6.595   5.879   6.985 -0.2888 -0.0435 -0.8530
 2228poe    c23 9448   6.668   5.809   7.101 -0.2466  0.2370 -0.7089
 2228poe     o2 9449   6.761   5.721   7.042  0.3631  0.3360  0.0912
 2228poe    c23 9450   6.873   5.747   7.124  0.4711 -0.1092  0.0876
 2228poe    c23 9451   7.004   5.689   7.069  0.3691 -0.2145 -0.0463
 2228poe     o2 9452   7.045   5.745   6.946 -0.3059 -0.2058 -0.2691
 2228poe    c23 9453   7.184   5.725   6.933 -0.1539  0.3869  0.3955
 2228poe    c23 9454   7.243   5.795   6.810 -0.2598 -0.1668  0.0288
 2228poe     o2 9455   7.240   5.936   6.818 -0.5571 -0.1682 -0.0281
 2228poe    c31 9456   7.314   6.010   6.913 -0.5935 -0.0748 -0.0732
 2229poe    c31 9457   4.748   2.929   2.593  0.6445  0.1515  0.5043
 2229poe     o2 9458   4.826   2.930   2.475  0.7640  0.2453  0.5829
 2229poe    c23 9459   4.872   2.802   2.439  0.6348  0.3448  0.0544
 2229poe    c23 9460   4.941   2.816   2.302  0.2605  0.1611 -0.1564
 2229poe     o2 9461   4.865   2.836   2.185  0.6495 -0.6590 -0.5545
 2229poe    c23 9462   4.952   2.853   2.075  0.6971  0.5201 -0.3476
 2229poe    c23 9463   4.965   2.733   1.979  0.1179 -0.0010  0.2095
 2229poe     o2 9464   4.851   2.715   1.898  0.1703 -0.1050  0.1589
 2229poe    c23 9465   4.882   2.645   1.780 -0.3521  0.2300 -0.1788
 2229poe    c23 9466   4.750   2.586   1.727 -0.1756 -0.2278 -0.1142
 2229poe     o2 9467   4.670   2.687   1.668 -0.1732 -0.2804 -0.2068
 2229poe    c31 9468   4.554   2.639   1.604 -0.3287 -0.0643 -0.0868
 2230poe    c31 9469   6.867   0.945   3.191  0.5598 -0.5526  0.4205
 2230poe     o2 9470   6.823   0.841   3.107  0.2170 -0.0314 -0.0532
 2230poe    c23 9471   6.937   0.769   3.065  0.2181 -0.3373  0.4597
 2230poe    c23 9472   6.914   0.624   3.016  0.1711 -0.3284  0.4548
 2230poe     o2 9473   6.885   0.610   2.879  0.3269 -0.0787  0.3947
 2230poe    c23 9474   6.882   0.472   2.849  0.0439 -0.0854  0.4483
 2230poe    c23 9475   6.926   0.452   2.702 -0.8815 -0.1259  0.1701
 2230poe     o2 9476   6.862   0.537   2.610 -0.1545 -0.0228 -0.2510
 2230poe    c23 9477   6.878   0.499   2.475 -0.3949 -0.4106 -0.1723
 2230poe    c23 9478   6.873   0.609   2.368  0.4107  0.3844  0.5897
 2230poe     o2 9479   6.754   0.681   2.346  0.1629 -0.2451 -0.1859
 2230poe    c31 9480   6.784   0.751   2.227  0.5175 -0.1919 -0.0641
 2231poe    c31 9481   1.262   6.547   2.992 -0.5186  0.7399  0.1608
 2231poe     o2 9482   1.160   6.477   2.923  0.3559 -0.2521 -0.1487
 2231poe    c23 9483   1.190   6.340   2.910  0.3894 -0.2384 -0.2174
 2231poe    c23 9484   1.070   6.250   2.874  0.2856 -0.2980  0.2723
 2231poe     o2 9485   1.018   6.242   2.743 -0.0928  0.2567  0.3815
 2231poe    c23 9486   0.977   6.365   2.688 -0.1432  0.1242  0.1230
 2231poe    c23 9487   1.043   6.399   2.553 -0.3768  0.5407  0.1125
 2231poe     o2 9488   1.034   6.283   2.473  0.2703  0.4998  0.0963
 2231poe    c23 9489   1.123   6.299   2.365  0.1040 -0.0106 -0.1194
 2231poe    c23 9490   1.190   6.164   2.333  0.3104  0.0509  0.0524
 2231poe     o2 9491   1.093   6.063   2.321  0.0832  0.2388  0.2946
 2231poe    c31 9492   1.154   5.946   2.270  0.1274  0.3486  0.0948
 2232poe    c31 9493   4.473   6.336   0.571  0.0936 -0.6063  0.4752
 2232poe     o2 9494   4.579   6.248   0.538  0.4067  0.1622 -0.6328
 2232poe    c23 9495   4.698   6.280   0.607 -0.1730  0.1442  0.4131
 2232poe    c23 9496   4.825   6.248   0.525 -0.6729 -0.4662 -0.1437
 2232poe     o2 9497   4.848   6.111   0.506  0.5316 -0.4113  0.7859
 2232poe    c23 9498   4.927   6.090   0.391 -0.0882 -0.2244  0.3198
 2232poe    c23 9499   4.944   5.942   0.350  0.7890 -0.0452 -0.0001
 2232poe     o2 9500   5.000   5.871   0.458 -0.1328 -0.7105  0.0491
 2232poe    c23 9501   5.053   5.750   0.407  0.0483 -0.4402 -0.4064
 2232poe    c23 9502   5.003   5.619   0.470  0.1009 -0.1466  0.2607
 2232poe     o2 9503   4.999   5.633   0.610 -0.3042 -0.1141  0.2461
 2232poe    c31 9504   4.898   5.554   0.669 -0.0851 -0.0362  0.7341
 2233poe    c31 9505   1.019   6.553   6.807  0.3647 -0.4805 -0.2132
 2233poe     o2 9506   1.045   6.511   6.939 -0.0410  0.0968  0.0549
 2233poe    c23 9507   1.118   6.606   7.013 -0.5716  0.2380  0.4008
 2233poe    c23 9508   1.121   6.571   7.163  0.7087 -0.4207  0.2330
 2233poe     o2 9509   1.115   6.430   7.176 -0.2749 -0.3806  0.2775
 2233poe    c23 9510   1.138   6.395   7.310 -0.4869  0.0081  0.4170
 2233poe    c23 9511   1.157   6.246   7.344  0.1470  0.1025  0.5004
 2233poe     o2 9512   1.048   6.178   7.286  0.4646 -0.1185  0.1626
 2233poe    c23 9513   1.020   6.049   7.335 -0.0156 -0.0987 -0.0554
 2233poe    c23 9514   0.957   5.954   7.232  0.3042  0.1530 -0.4836
 2233poe     o2 9515   1.024   5.974   7.109  0.5693  0.6149 -0.2656
 2233poe    c31 9516   1.110   5.867   7.080  0.1374  0.2320 -0.1398
 2234poe    c31 9517   2.174   4.609   2.595 -0.4879  0.2137  0.2836
 2234poe     o2 9518   2.287   4.557   2.530 -0.4922  0.5888 -0.0307
 2234poe    c23 9519   2.316   4.420   2.548  0.5734  0.7667 -0.3417
 2234poe    c23 9520   2.466   4.383   2.541  0.2575 -0.6084 -0.1890
 2234poe     o2 9521   2.506   4.253   2.576  0.0809 -0.6942 -0.3055
 2234poe    c23 9522   2.646   4.265   2.575  0.0309 -0.0429  0.2202
 2234poe    c23 9523   2.718   4.185   2.685  0.5326 -0.2328 -0.2366
 2234poe     o2 9524   2.654   4.191   2.811  0.4247 -0.1940 -0.2931
 2234poe    c23 9525   2.727   4.133   2.917  0.1322  0.3428  0.2074
 2234poe    c23 9526   2.697   4.153   3.067  0.2400  0.1007  0.2608
 2234poe     o2 9527   2.590   4.092   3.136  0.1836  0.4692  0.5031
 2234poe    c31 9528   2.600   3.952   3.151  0.6731  0.5227  0.7028
 2235poe    c31 9529   3.515   2.034   7.129  0.1153  0.4274  0.7119
 2235poe     o2 9530   3.379   2.067   7.144 -0.1716 -0.3522 -0.0790
 2235poe    c23 9531   3.306   1.984   7.057  0.0465 -0.1152 -0.4880
 2235poe    c23 9532   3.153   1.973   7.072  0.0709  0.3908  0.1426
 2235poe     o2 9533   3.114   1.881   7.171 -0.4530  0.5485  0.0866
 2235poe    c23 9534   2.979   1.897   7.207 -0.5291  0.0960  0.0065
 2235poe    c23 9535   2.923   1.835   7.337 -0.9369  0.4886  0.0193
 2235poe     o2 9536   2.851   1.720   7.301 -0.0033 -0.2109  0.3707
 2235poe    c23 9537   2.717   1.758   7.280  0.1605 -0.1068 -0.5609
 2235poe    c23 9538   2.622   1.647   7.232 -0.2816  0.2341 -0.4793
 2235poe     o2 9539   2.652   1.593   7.105  0.1223 -0.5651 -0.0528
 2235poe    c31 9540   2.572   1.483   7.071 -0.1238 -0.3369 -0.2167
 2236poe    c31 9541   5.741   1.966   4.126 -0.5697 -0.2885 -0.0094
 2236poe     o2 9542   5.837   1.898   4.204 -0.1662 -0.1275 -0.3583
 2236poe    c23 9543   5.839   1.761   4.172  0.3827 -0.2620  0.2164
 2236poe    c23 9544   5.897   1.672   4.283  0.2591 -0.4739  0.1114
 2236poe     o2 9545   6.008   1.752   4.318 -0.1667  0.2891 -0.2683
 2236poe    c23 9546   6.081   1.675   4.410 -0.0881 -0.0754 -0.6337
 2236poe    c23 9547   6.171   1.761   4.500 -0.4998 -1.1563  0.8567
 2236poe     o2 9548   6.273   1.829   4.430 -0.8537 -0.8995  0.5847
 2236poe    c23 9549   6.372   1.894   4.507 -0.3166 -0.2597 -0.6235
 2236poe    c23 9550   6.472   1.967   4.415 -0.0533  0.4687  0.2259
 2236poe     o2 9551   6.428   2.084   4.351  0.0181  0.2431 -0.2424
 2236poe    c31 9552   6.533   2.159   4.294  0.3765 -0.1788 -0.1424
 2237poe    c31 9553   1.038   0.046   3.897  0.2853 -0.3777  0.4676
 2237poe     o2 9554   1.062  -0.089   3.930 -0.5487 -0.5581  0.3643
 2237poe    c23 9555   1.029  -0.129   4.061 -0.7906 -0.3316  0.3738
 2237poe    c23 9556   1.075  -0.275   4.073 -0.0463 -0.1215  0.1417
 2237poe     o2 9557   1.215  -0.284   4.084  0.0211  0.6538 -0.0305
 2237poe    c23 9558   1.248  -0.421   4.078  0.1621  0.6971 -0.2823
 2237poe    c23 9559   1.399  -0.450   4.076  0.1352  0.5091  0.1547
 2237poe     o2 9560   1.462  -0.340   4.013  0.1739  0.4533  0.0955
 2237poe    c23 9561   1.603  -0.349   4.017  0.1334  0.0222  0.8916
 2237poe    c23 9562   1.682  -0.239   3.943  0.3026 -0.5265  0.2469
 2237poe     o2 9563   1.653  -0.113   4.000  0.8325  0.0632 -0.7529
 2237poe    c31 9564   1.688  -0.014   3.907 -0.1553  0.8057 -0.3465
 2238poe    c31 9565   2.720   2.288   2.301 -0.0784  0.1808 -0.6828
 2238poe     o2 9566   2.600   2.222   2.333  0.3290 -0.1679  0.1666
 2238poe    c23 9567   2.533   2.182   2.215  0.5944 -0.2920  0.0588
 2238poe    c23 9568   2.391   2.129   2.240  0.6403 -0.4418  0.0008
 2238poe     o2 9569   2.390   1.990   2.265 -0.2035 -0.4479 -0.0536
 2238poe    c23 9570   2.260   1.936   2.277 -0.4128  0.0447 -0.0833
 2238poe    c23 9571   2.257   1.788   2.316 -0.2066  0.2542  0.7389
 2238poe     o2 9572   2.293   1.712   2.203 -0.3629  0.9717  0.2056
 2238poe    c23 9573   2.182   1.655   2.138  0.3604 -0.6358  0.3397
 2238poe    c23 9574   2.216   1.543   2.037  0.3288 -0.0885 -0.2872
 2238poe     o2 9575   2.313   1.464   2.103  0.1684 -0.2337 -0.2234
 2238poe    c31 9576   2.360   1.366   2.013  0.2760 -0.1279 -0.2823
 2239poe    c31 9577   1.975   4.005   0.182 -0.2238 -0.6999 -0.2511
 2239poe     o2 9578   1.990   3.895   0.095  0.3610 -0.4628 -0.4579
 2239poe    c23 9579   1.984   3.772   0.164 -0.3151 -0.2536 -0.1411
 2239poe    c23 9580   2.048   3.651   0.094 -0.1444 -0.1005 -0.2493
 2239poe     o2 9581   1.968   3.598  -0.009  0.0355  0.6773 -0.8012
 2239poe    c23 9582   2.042   3.495  -0.068 -0.0551  0.0501  0.1462
 2239poe    c23 9583   2.012   3.489  -0.219  0.2194  0.2921  0.0796
 2239poe     o2 9584   1.871   3.501  -0.228  0.1667 -0.2472  0.1244
 2239poe    c23 9585   1.819   3.536  -0.354  0.3307  0.2904  0.2006
 2239poe    c23 9586   1.668   3.564  -0.344  0.3513  0.5092 -0.1078
 2239poe     o2 9587   1.651   3.632  -0.222 -0.0692  0.0511  0.0890
 2239poe    c31 9588   1.529   3.702  -0.219  0.0964  0.3564 -0.2545
 2240poe    c31 9589   0.151   6.154   1.792 -0.4894  0.3632 -0.3314
 2240poe     o2 9590   0.064   6.095   1.886  0.2048 -0.0825  0.0395
 2240poe    c23 9591   0.126   6.042   2.000 -0.1480 -0.2671  0.1459
 2240poe    c23 9592   0.009   5.960   2.060  0.0127 -0.2301  0.5115
 2240poe     o2 9593  -0.119   6.007   2.025  0.2725 -0.3256 -0.6071
 2240poe    c23 9594  -0.208   5.917   2.087 -0.0905  0.3909 -0.0696
 2240poe    c23 9595  -0.358   5.945   2.069 -0.1370  0.0380 -0.2326
 2240poe     o2 9596  -0.403   5.946   1.935 -0.3041 -0.2625 -0.1794
 2240poe    c23 9597  -0.434   5.819   1.883  1.1207 -0.7581  0.1558
 2240poe    c23 9598  -0.478   5.834   1.736  0.0689  0.3567  0.5742
 2240poe     o2 9599  -0.373   5.857   1.645  0.2168  0.4363  0.7634
 2240poe    c31 9600  -0.427   5.922   1.532  0.5464 -0.3097  0.1683
 2241poe    c31 9601   0.830   7.248   2.012  0.3221  0.3306  0.0454
 2241poe     o2 9602   0.919   7.235   2.120  0.4226  0.0430 -0.0723
 2241poe    c23 9603   1.022   7.142   2.091  0.1316 -0.2970 -0.0163
 2241poe    c23 9604   1.085   7.057   2.203  0.4482  0.1810  0.1702
 2241poe     o2 9605   0.985   7.000   2.285 -0.0099  0.8248  0.0658
 2241poe    c23 9606   1.029   6.882   2.348 -0.4912  0.9105  0.5747
 2241poe    c23 9607   0.932   6.781   2.412  0.5099 -0.1591  0.4273
 2241poe     o2 9608   0.846   6.729   2.312  0.1807  0.2986  0.4734
 2241poe    c23 9609   0.744   6.648   2.365 -0.1319  0.1278 -0.3745
 2241poe    c23 9610   0.617   6.666   2.280 -0.2714  0.2413 -0.1452
 2241poe     o2 9611   0.645   6.628   2.147  0.5345  0.1794  0.0355
 2241poe    c31 9612   0.519   6.604   2.087  0.4558  0.7127 -0.0117
 2242poe    c31 9613   3.555   2.867   0.833 -0.1660 -0.6409 -1.2573
 2242poe     o2 9614   3.426   2.830   0.875  0.0353  0.2687  0.2898
 2242poe    c23 9615   3.324   2.874   0.788  0.2871 -0.0100 -0.1538
 2242poe    c23 9616   3.223   2.758   0.789  0.3072 -0.0265 -0.0326
 2242poe     o2 9617   3.136   2.765   0.899 -0.7541 -0.1766 -0.8449
 2242poe    c23 9618   3.036   2.864   0.907 -0.3702  0.1635 -0.1275
 2242poe    c23 9619   2.947   2.831   1.028  0.4630 -0.4783  0.3178
 2242poe     o2 9620   3.040   2.801   1.130  0.8207 -0.0622  0.1195
 2242poe    c23 9621   2.965   2.778   1.247  0.3424 -0.0222 -0.1767
 2242poe    c23 9622   3.057   2.698   1.342  0.4536 -0.0510 -0.3097
 2242poe     o2 9623   3.132   2.612   1.259  0.3481 -0.5600  0.1197
 2242poe    c31 9624   3.199   2.507   1.326  0.0429 -0.7827  0.0787
 2243poe    c31 9625   6.437   1.226   1.335 -0.0822 -0.1180  0.1531
 2243poe     o2 9626   6.433   1.097   1.392  0.0094 -0.2523 -0.1410
 2243poe    c23 9627   6.550   1.068   1.465 -0.0348 -0.7037 -0.2435
 2243poe    c23 9628   6.545   0.940   1.550  0.2976 -0.2728  0.4380
 2243poe     o2 9629   6.449   0.958   1.651 -0.2746  0.1643 -0.1804
 2243poe    c23 9630   6.425   0.834   1.714  0.1797 -0.0268 -0.3790
 2243poe    c23 9631   6.327   0.856   1.831  0.0773 -0.5203 -0.3705
 2243poe     o2 9632   6.202   0.911   1.796  0.0315 -0.1562  0.3467
 2243poe    c23 9633   6.118   0.907   1.909 -0.4491  0.1862  0.0072
 2243poe    c23 9634   6.003   0.999   1.864 -0.6522 -0.0037  0.1350
 2243poe     o2 9635   6.046   1.073   1.752 -0.3371 -0.3989 -0.0069
 2243poe    c31 9636   5.948   1.172   1.732 -0.1254 -0.1389  0.2208
 2244poe    c31 9637   5.815   3.872   5.000  0.3144 -0.0804 -0.2812
 2244poe     o2 9638   5.825   3.931   4.873  0.0223 -0.1667 -0.3453
 2244poe    c23 9639   5.758   4.054   4.854  0.6014  0.2257  0.1033
 2244poe    c23 9640   5.698   4.060   4.712  0.9212 -0.0679 -0.0469
 2244poe     o2 9641   5.649   3.939   4.658  0.6348  0.3825 -0.8119
 2244poe    c23 9642   5.602   3.970   4.529 -0.6699  0.5846 -0.3004
 2244poe    c23 9643   5.533   3.852   4.457  0.7389 -0.5070  0.0965
 2244poe     o2 9644   5.623   3.745   4.479  0.6578 -0.4946  0.4924
 2244poe    c23 9645   5.636   3.678   4.356  0.0733 -0.3109  0.3226
 2244poe    c23 9646   5.605   3.531   4.388 -0.5378 -0.2863 -0.1430
 2244poe     o2 9647   5.674   3.503   4.508 -0.4623  0.3226 -0.0429
 2244poe    c31 9648   5.721   3.370   4.505 -0.1944  0.4198 -0.3240
 2245poe    c31 9649   2.746   4.107   3.943  0.0936 -0.3063 -0.6921
 2245poe     o2 9650   2.638   4.019   3.968 -0.0731 -0.0954 -0.6626
 2245poe    c23 9651   2.671   3.899   4.035 -0.0882  0.4472  0.3444
 2245poe    c23 9652   2.552   3.802   4.046  0.1467  0.1272  0.1080
 2245poe     o2 9653   2.471   3.784   3.932  0.6402 -0.0612 -0.2158
 2245poe    c23 9654   2.511   3.664   3.870 -0.0052 -0.4622  0.1280
 2245poe    c23 9655   2.388   3.586   3.819 -0.0341 -0.0794 -0.4047
 2245poe     o2 9656   2.309   3.667   3.736 -0.1279  0.1848 -0.0603
 2245poe    c23 9657   2.212   3.583   3.677  0.0817 -0.1451  0.0597
 2245poe    c23 9658   2.214   3.612   3.526  0.0119 -0.0709  0.0723
 2245poe     o2 9659   2.163   3.736   3.482 -0.5672 -0.1947  0.3940
 2245poe    c31 9660   2.176   3.765   3.344  0.3256  0.8195  0.6827
 2246poe    c31 9661   7.174   4.648   1.059 -0.3415 -0.3084  0.0369
 2246poe     o2 9662   7.142   4.520   1.110  0.8539 -0.4840  0.3769
 2246poe    c23 9663   7.196   4.489   1.236  0.4838 -0.2231  0.6007
 2246poe    c23 9664   7.320   4.398   1.232  0.8814  0.3324  0.0926
 2246poe     o2 9665   7.289   4.262   1.212 -0.0183  0.5360  0.0731
 2246poe    c23 9666   7.411   4.192   1.218 -0.1072  0.3545 -0.2358
 2246poe    c23 9667   7.360   4.050   1.185 -0.4533  0.4466 -0.0999
 2246poe     o2 9668   7.280   4.043   1.068 -0.0698 -0.4630 -0.3171
 2246poe    c23 9669   7.246   3.917   1.016 -0.2135 -0.6750  0.2874
 2246poe    c23 9670   7.119   3.936   0.931 -0.0283  0.7551  0.3050
 2246poe     o2 9671   7.118   4.055   0.856  0.0244  0.3836 -0.2915
 2246poe    c31 9672   7.002   4.058   0.776 -0.0790  0.5751 -0.1354
 2247poe    c31 9673   4.521   5.780   1.373  0.4893 -0.0505  0.4441
 2247poe     o2 9674   4.445   5.860   1.460 -0.3242 -0.2838 -0.0444
 2247poe    c23 9675   4.457   5.803   1.589 -0.1845 -0.4057 -0.1126
 2247poe    c23 9676   4.378   5.869   1.703  0.3985  0.0112  0.0536
 2247poe     o2 9677   4.246   5.897   1.662  0.5016  0.1155 -0.2118
 2247poe    c23 9678   4.174   5.967   1.761 -0.0732 -0.4696 -0.2072
 2247poe    c23 9679   4.108   6.095   1.706  0.3616 -0.1928 -0.0849
 2247poe     o2 9680   4.027   6.059   1.597  0.2716  0.2881 -0.1788
 2247poe    c23 9681   3.967   6.166   1.527  0.1879 -0.0090 -0.5690
 2247poe    c23 9682   3.862   6.096   1.439 -0.3034 -0.1481  0.1193
 2247poe     o2 9683   3.916   6.012   1.340  0.3492  0.1178  0.2458
 2247poe    c31 9684   3.827   6.022   1.232  0.5741 -0.2453  0.0256
 2248poe    c31 9685   2.100   0.242   4.596  0.7053 -0.2108 -0.5120
 2248poe     o2 9686   2.042   0.138   4.521 -0.4556  0.0647 -0.0208
 2248poe    c23 9687   2.141   0.038   4.519  0.2703  0.7820 -0.0891
 2248poe    c23 9688   2.091  -0.100   4.474 -0.1311  0.9562 -0.1842
 2248poe     o2 9689   2.056  -0.127   4.340 -0.2110 -0.2812  0.0678
 2248poe    c23 9690   1.948  -0.063   4.276 -0.3465 -0.5321  0.0445
 2248poe    c23 9691   1.814  -0.052   4.350 -0.1743  0.3102  0.2466
 2248poe     o2 9692   1.769  -0.185   4.369 -0.0954  0.2085 -0.2664
 2248poe    c23 9693   1.689  -0.168   4.484  0.0622 -0.0283 -0.1206
 2248poe    c23 9694   1.630  -0.307   4.515 -0.0835  0.0248 -0.1578
 2248poe     o2 9695   1.538  -0.358   4.421 -0.1483  0.6098 -0.4105
 2248poe    c31 9696   1.406  -0.350   4.471  0.0493  0.0314  0.2198
 2249poe    c31 9697   1.925   2.144   6.612 -0.2317  0.0158  0.1224
 2249poe     o2 9698   1.948   2.013   6.659 -0.2052 -0.1113 -0.2402
 2249poe    c23 9699   1.857   1.991   6.765 -0.4713 -0.0474 -0.4533
 2249poe    c23 9700   1.902   1.871   6.851 -0.7706  0.3662  0.2882
 2249poe     o2 9701   1.853   1.747   6.806  0.1950  0.0874 -0.0101
 2249poe    c23 9702   1.895   1.643   6.891  0.3012  0.5539  0.5101
 2249poe    c23 9703   1.847   1.511   6.828 -0.1845  0.6367  0.6984
 2249poe     o2 9704   1.708   1.497   6.846 -0.1828  0.1061  0.3351
 2249poe    c23 9705   1.650   1.388   6.779  0.0746  0.1945 -0.0346
 2249poe    c23 9706   1.497   1.403   6.783  0.0536 -0.0012 -0.0633
 2249poe     o2 9707   1.448   1.533   6.758  0.1925  0.0717  0.0398
 2249poe    c31 9708   1.322   1.539   6.694  0.0843  0.2068  0.2632
 2250poe    c31 9709   1.436   1.835   3.417  0.0746  0.1374  0.7508
 2250poe     o2 9710   1.486   1.803   3.289 -0.7423  0.4704  0.3448
 2250poe    c23 9711   1.379   1.797   3.197 -0.0966  0.9797 -0.4440
 2250poe    c23 9712   1.420   1.765   3.052  0.3099  0.0604 -0.1292
 2250poe     o2 9713   1.475   1.873   2.980 -0.2245  0.1490 -0.4089
 2250poe    c23 9714   1.602   1.916   3.025 -0.1979 -0.2047 -0.1470
 2250poe    c23 9715   1.692   2.005   2.937 -0.5303 -0.1745 -0.4589
 2250poe     o2 9716   1.830   2.008   2.961 -0.5468 -0.7825 -0.2674
 2250poe    c23 9717   1.904   2.063   2.855  0.0871  0.2696  0.6997
 2250poe    c23 9718   2.044   2.007   2.824 -0.0451  0.3276 -0.0428
 2250poe     o2 9719   2.055   1.885   2.753  0.3916  0.4126 -0.1284
 2250poe    c31 9720   2.188   1.843   2.741  0.4172  0.3900  0.2113
 2251poe    c31 9721   1.694   1.463   4.921  0.6722  0.2676  0.3207
 2251poe     o2 9722   1.783   1.382   4.846 -0.1110 -0.0486 -0.2852
 2251poe    c23 9723   1.730   1.253   4.826  0.0488 -0.0727 -0.5559
 2251poe    c23 9724   1.831   1.163   4.753 -0.3507 -0.5740 -0.4887
 2251poe     o2 9725   1.848   1.177   4.614 -0.3112  0.6928 -0.3615
 2251poe    c23 9726   1.898   1.054   4.568  0.0620  0.7703 -0.1661
 2251poe    c23 9727   1.927   1.060   4.417  0.1477  0.3895 -0.1662
 2251poe     o2 9728   1.815   1.115   4.354 -0.3172 -0.5529 -0.1806
 2251poe    c23 9729   1.848   1.155   4.222  0.2356 -0.4577 -0.0132
 2251poe    c23 9730   1.720   1.223   4.171  0.6265  0.4683  0.2118
 2251poe     o2 9731   1.657   1.311   4.261  0.7476  0.4197  0.3434
 2251poe    c31 9732   1.520   1.329   4.233  0.6443  0.3108  0.7640
 2252poe    c31 9733   2.372   2.503   6.508 -0.1714 -1.0696 -0.5776
 2252poe     o2 9734   2.282   2.598   6.455 -0.0747 -0.5762  0.1251
 2252poe    c23 9735   2.149   2.571   6.494  0.1005 -0.3564  0.8822
 2252poe    c23 9736   2.054   2.691   6.502  0.1580 -0.2533  0.0330
 2252poe     o2 9737   1.923   2.658   6.461  0.1529 -0.1621 -0.0269
 2252poe    c23 9738   1.841   2.772   6.453  0.9006  0.3892  0.1514
 2252poe    c23 9739   1.823   2.827   6.310  0.9875 -0.8740 -0.3599
 2252poe     o2 9740   1.748   2.747   6.223 -0.0868 -0.5902  0.2870
 2252poe    c23 9741   1.800   2.765   6.093 -0.3758  0.3841  0.3012
 2252poe    c23 9742   1.707   2.722   5.978  0.1805 -0.2784  0.0923
 2252poe     o2 9743   1.596   2.808   5.963  0.0851 -0.4274 -0.0492
 2252poe    c31 9744   1.486   2.756   6.034 -0.2358 -0.0104 -0.2384
 2253poe    c31 9745   3.147   6.990   2.428  0.0616 -0.4177 -0.1639
 2253poe     o2 9746   3.007   6.999   2.439  0.1035 -0.0147  0.0720
 2253poe    c23 9747   2.942   7.067   2.334  0.2931  0.0336 -0.0127
 2253poe    c23 9748   2.792   7.066   2.367  0.2417 -0.2812 -0.2409
 2253poe     o2 9749   2.757   7.092   2.501 -0.5404 -0.3899 -0.4206
 2253poe    c23 9750   2.622   7.057   2.522 -0.5288 -0.3398 -0.2592
 2253poe    c23 9751   2.603   7.031   2.673  0.6287  0.1585 -0.0177
 2253poe     o2 9752   2.703   6.937   2.703  0.2814 -0.2068  0.0030
 2253poe    c23 9753   2.694   6.897   2.838 -0.1575 -0.3854 -0.0768
 2253poe    c23 9754   2.702   6.745   2.861  0.0600 -0.2058  1.1237
 2253poe     o2 9755   2.831   6.689   2.851 -0.1208 -0.4081 -0.3303
 2253poe    c31 9756   2.842   6.561   2.908  0.1269 -0.2509 -0.0245
 2254poe    c31 9757   1.470   5.069   2.652  0.2353 -0.2415  0.3266
 2254poe     o2 9758   1.584   5.105   2.727  0.0353  0.5796  0.2445
 2254poe    c23 9759   1.689   5.162   2.652  0.3554 -0.5403 -0.1827
 2254poe    c23 9760   1.819   5.082   2.671  0.1481 -0.8444 -0.0277
 2254poe     o2 9761   1.875   5.089   2.800  0.2195  0.5022 -0.1150
 2254poe    c23 9762   2.011   5.050   2.801 -0.0102 -0.3235 -0.5333
 2254poe    c23 9763   2.052   4.995   2.939 -0.3797 -0.1104 -0.3360
 2254poe     o2 9764   2.069   4.855   2.940  0.3831 -0.0292 -0.8847
 2254poe    c23 9765   1.951   4.782   2.961  0.2000  0.4770 -0.1244
 2254poe    c23 9766   1.957   4.632   2.927  0.1815  0.5367 -0.3885
 2254poe     o2 9767   2.055   4.555   2.993 -0.1637  0.3660 -0.0758
 2254poe    c31 9768   2.003   4.425   2.985 -0.2078  0.3906 -0.1914
 2255poe    c31 9769   2.515   4.268   0.110 -0.3356  0.8711 -0.2728
 2255poe     o2 9770   2.603   4.378   0.102  0.3968  0.2912 -0.3297
 2255poe    c23 9771   2.732   4.345   0.148  0.4199  0.3892 -0.3242
 2255poe    c23 9772   2.842   4.417   0.068  0.3521  0.2020 -0.5862
 2255poe     o2 9773   2.846   4.558   0.080  0.1313  0.1540  0.1189
 2255poe    c23 9774   2.964   4.604   0.019  0.0969  0.3652  0.2091
 2255poe    c23 9775   2.987   4.755   0.030 -0.2575  0.4263  0.1132
 2255poe     o2 9776   2.904   4.836  -0.050 -0.4788  0.1230  0.0356
 2255poe    c23 9777   2.927   4.974  -0.035  0.1215  0.0797 -0.4526
 2255poe    c23 9778   2.795   5.052  -0.013 -0.2138 -0.3473 -0.9511
 2255poe     o2 9779   2.758   5.054   0.123  0.0379  0.0362 -0.8868
 2255poe    c31 9780   2.640   5.126   0.150 -0.1724 -0.5784 -0.1451
 2256poe    c31 9781   2.588   3.579   5.597 -0.1531 -0.2490  0.1132
 2256poe     o2 9782   2.672   3.474   5.554 -0.1559 -0.1048 -0.2487
 2256poe    c23 9783   2.641   3.446   5.419  0.1123  0.2469 -0.3845
 2256poe    c23 9784   2.697   3.323   5.345  0.4611  0.1964 -0.0439
 2256poe     o2 9785   2.835   3.332   5.319  0.4429  0.1607 -0.1553
 2256poe    c23 9786   2.887   3.209   5.273 -0.0716 -0.1901  0.1861
 2256poe    c23 9787   3.040   3.209   5.288 -0.0173  0.7817 -0.2890
 2256poe     o2 9788   3.072   3.224   5.424  0.0369 -0.3595 -0.1707
 2256poe    c23 9789   3.182   3.140   5.453 -0.4127 -0.6827  0.6397
 2256poe    c23 9790   3.260   3.188   5.577 -0.1342 -0.1580  0.2637
 2256poe     o2 9791   3.178   3.263   5.663  0.3958  0.4800  0.2204
 2256poe    c31 9792   3.251   3.300   5.778  1.0075 -0.3374  0.0968
 2257poe    c31 9793   4.773   1.226   1.082 -0.2178 -0.7735  0.0047
 2257poe     o2 9794   4.759   1.154   0.962 -0.5418 -0.2537 -0.2723
 2257poe    c23 9795   4.777   1.239   0.850  0.2341 -0.0134  0.0334
 2257poe    c23 9796   4.834   1.161   0.730  0.1509 -0.0208 -0.0008
 2257poe     o2 9797   4.747   1.052   0.711  0.0537 -0.0261  0.4594
 2257poe    c23 9798   4.815   0.942   0.655 -0.0470  0.1982 -0.1093
 2257poe    c23 9799   4.744   0.806   0.649  0.2266  0.0451  0.1127
 2257poe     o2 9800   4.728   0.755   0.779 -0.1068  0.2853  0.1671
 2257poe    c23 9801   4.619   0.665   0.784 -0.0165  0.1690  0.0531
 2257poe    c23 9802   4.590   0.606   0.923 -0.0569 -0.5275 -0.2471
 2257poe     o2 9803   4.563   0.707   1.018  0.2534 -0.6145 -0.0646
 2257poe    c31 9804   4.552   0.651   1.147  0.1922  0.1393  0.2607
 2258poe    c31 9805   2.814   2.788   1.680  0.1226  0.3776 -0.1290
 2258poe     o2 9806   2.686   2.828   1.640 -0.1795  0.1683  0.6004
 2258poe    c23 9807   2.696   2.959   1.587 -0.2084 -0.1802 -0.2851
 2258poe    c23 9808   2.561   3.005   1.530  0.0262  0.7042 -0.1289
 2258poe     o2 9809   2.522   2.914   1.430 -0.4929  0.0157  0.6852
 2258poe    c23 9810   2.384   2.934   1.409 -0.2697  0.5365 -0.3433
 2258poe    c23 9811   2.324   2.841   1.302 -0.3056  0.4285 -0.2290
 2258poe     o2 9812   2.327   2.708   1.347  0.4211  0.2594 -0.7511
 2258poe    c23 9813   2.227   2.626   1.290 -0.4076  0.8096 -0.1291
 2258poe    c23 9814   2.202   2.498   1.372  0.0717  0.4537 -0.5276
 2258poe     o2 9815   2.291   2.390   1.355  0.1729  0.5570 -0.6578
 2258poe    c31 9816   2.286   2.309   1.240  0.4200 -0.1604 -0.1709
 2259poe    c31 9817   6.059   6.038   4.269 -0.0505 -0.1258  0.2283
 2259poe     o2 9818   6.165   5.961   4.322  0.6714  0.5723 -0.1720
 2259poe    c23 9819   6.146   5.923   4.456  0.2475 -0.1397 -0.4306
 2259poe    c23 9820   6.233   5.807   4.505  0.4803  0.2983  0.1991
 2259poe     o2 9821   6.366   5.819   4.459  0.3488  0.1549 -0.2261
 2259poe    c23 9822   6.444   5.702   4.460 -0.2926 -0.2727 -0.2753
 2259poe    c23 9823   6.588   5.749   4.435 -0.3367  0.0309  0.0379
 2259poe     o2 9824   6.600   5.822   4.315  0.6262 -0.0471  0.0736
 2259poe    c23 9825   6.731   5.874   4.315  0.3959  0.5410 -0.0464
 2259poe    c23 9826   6.721   5.984   4.208  0.0868 -0.1568 -0.7474
 2259poe     o2 9827   6.607   6.058   4.244  0.5518  0.1698  0.1094
 2259poe    c31 9828   6.593   6.169   4.157 -0.6086 -0.0114  0.0485
 2260poe    c31 9829   5.839   1.823   2.827 -0.3751 -0.1409  0.2071
 2260poe     o2 9830   5.832   1.961   2.856  0.6865  0.0987 -0.6240
 2260poe    c23 9831   5.732   2.013   2.772  0.0116  0.0285  0.1308
 2260poe    c23 9832   5.722   2.166   2.775 -0.2535  0.0124  0.1406
 2260poe     o2 9833   5.853   2.217   2.773 -0.1860 -0.1461  0.4477
 2260poe    c23 9834   5.833   2.355   2.751 -0.2600 -0.2960 -0.4956
 2260poe    c23 9835   5.965   2.421   2.798 -0.3494 -0.2431 -0.3162
 2260poe     o2 9836   6.067   2.364   2.719  0.1396  0.3188 -0.0942
 2260poe    c23 9837   6.191   2.409   2.768  0.0848  0.3372  0.0258
 2260poe    c23 9838   6.312   2.318   2.743  0.0216  0.3375 -0.2796
 2260poe     o2 9839   6.279   2.203   2.817 -0.0428 -0.0830 -0.9488
 2260poe    c31 9840   6.375   2.099   2.811 -0.1279 -0.2456  0.2218
 2261poe    c31 9841   1.664   6.713   5.180  1.1360  0.3308 -0.2217
 2261poe     o2 9842   1.720   6.617   5.267  0.0592 -0.2954 -0.2002
 2261poe    c23 9843   1.861   6.601   5.265  0.1415  0.3959 -0.0823
 2261poe    c23 9844   1.899   6.587   5.414  0.1494 -0.2243 -0.1406
 2261poe     o2 9845   1.808   6.504   5.482  0.2736  0.2751  0.6481
 2261poe    c23 9846   1.838   6.476   5.617  0.4593  0.2284  0.5972
 2261poe    c23 9847   1.733   6.376   5.667  0.0690  0.1585 -0.3354
 2261poe     o2 9848   1.605   6.432   5.649 -0.1308 -0.0449  0.3986
 2261poe    c23 9849   1.510   6.346   5.708 -0.0374  0.2242  0.9442
 2261poe    c23 9850   1.371   6.412   5.696 -0.3082 -0.4925 -0.0264
 2261poe     o2 9851   1.312   6.424   5.569 -0.1974 -0.2515 -0.0547
 2261poe    c31 9852   1.295   6.563   5.548  0.4176 -0.1832 -0.1068
 2262poe    c31 9853   0.951   1.042   6.499  0.0635 -0.1004  0.7638
 2262poe     o2 9854   0.912   1.166   6.447  0.2871 -0.3714 -0.0552
 2262poe    c23 9855   0.811   1.230   6.522  0.7904  0.3421  0.0257
 2262poe    c23 9856   0.802   1.380   6.486 -0.9178  0.2838  0.1393
 2262poe     o2 9857   0.813   1.386   6.346 -0.9471  0.3727  0.1416
 2262poe    c23 9858   0.846   1.513   6.295  0.6757 -0.0842  0.0093
 2262poe    c23 9859   0.871   1.502   6.143 -0.3255  0.3897 -0.1954
 2262poe     o2 9860   0.956   1.390   6.131 -0.1194  0.5190  0.0499
 2262poe    c23 9861   1.028   1.409   6.011 -0.1980  0.1268 -0.0620
 2262poe    c23 9862   0.989   1.306   5.903  0.2541 -0.2596  0.1442
 2262poe     o2 9863   0.857   1.348   5.877  0.4060 -0.0015 -0.2207
 2262poe    c31 9864   0.806   1.250   5.788  0.1632  0.5464 -0.6889
 2263poe    c31 9865   5.516   4.315   1.442  0.0493 -0.4348 -0.0430
 2263poe     o2 9866   5.568   4.196   1.387  0.0928 -0.4863  0.1096
 2263poe    c23 9867   5.527   4.179   1.253  0.1194 -0.0782  0.0480
 2263poe    c23 9868   5.568   4.036   1.214 -0.1685 -0.2518  0.3767
 2263poe     o2 9869   5.484   3.931   1.258 -0.3553 -0.0630  0.4718
 2263poe    c23 9870   5.506   3.802   1.206  0.3428 -0.1670  1.0022
 2263poe    c23 9871   5.390   3.775   1.108  0.5334  0.3168  0.6381
 2263poe     o2 9872   5.276   3.736   1.180  0.4210 -0.5533  0.0130
 2263poe    c23 9873   5.160   3.750   1.101 -0.0562 -0.4425  0.7243
 2263poe    c23 9874   5.059   3.817   1.197  0.4621  0.8684  0.3714
 2263poe     o2 9875   5.001   3.732   1.294 -0.0221  0.6648 -0.0918
 2263poe    c31 9876   4.865   3.756   1.322 -0.1447 -0.6136  0.4482
 2264poe    c31 9877   2.087   2.418   4.108 -0.6208 -0.3953 -0.0713
 2264poe     o2 9878   2.215   2.374   4.147 -0.5057  0.2247  0.2546
 2264poe    c23 9879   2.215   2.343   4.285  0.1701  0.5800  0.3407
 2264poe    c23 9880   2.340   2.270   4.338 -0.2623 -0.1661  0.3524
 2264poe     o2 9881   2.461   2.318   4.283 -0.0752 -0.6467  0.3409
 2264poe    c23 9882   2.574   2.246   4.325  0.1993 -0.1912  0.3877
 2264poe    c23 9883   2.698   2.309   4.260 -0.4506  0.4810 -0.2143
 2264poe     o2 9884   2.708   2.296   4.120 -0.0204 -0.3797 -0.1103
 2264poe    c23 9885   2.782   2.409   4.077  0.0535 -0.3528  0.0853
 2264poe    c23 9886   2.867   2.393   3.949 -0.1884  1.1240 -0.2743
 2264poe     o2 9887   2.802   2.352   3.831  0.2402 -0.8561  0.1461
 2264poe    c31 9888   2.897   2.344   3.727  0.9143  0.4183  0.6445
 2265poe    c31 9889   1.411   2.210   4.811 -0.1602 -0.2233 -0.3233
 2265poe     o2 9890   1.306   2.271   4.738 -0.1343  0.2836  0.0570
 2265poe    c23 9891   1.321   2.410   4.749 -0.1663  0.2935 -0.0300
 2265poe    c23 9892   1.193   2.473   4.689 -0.1296  0.5343  0.1406
 2265poe     o2 9893   1.091   2.409   4.762 -0.0581  0.1688 -0.0746
 2265poe    c23 9894   0.960   2.435   4.717 -0.2027  0.5266  0.5406
 2265poe    c23 9895   0.922   2.370   4.583 -0.1149 -0.0820  0.8053
 2265poe     o2 9896   0.942   2.233   4.610 -0.2074 -0.2487  0.0579
 2265poe    c23 9897   0.933   2.146   4.500 -0.1550 -0.2419  0.0480
 2265poe    c23 9898   0.998   2.018   4.556 -0.1886 -0.1163  0.3786
 2265poe     o2 9899   1.125   2.053   4.605  0.1760 -0.3700 -0.3643
 2265poe    c31 9900   1.203   1.935   4.591  0.1978 -0.4570  0.4183
 2266poe    c31 9901   1.206   3.858   3.656 -0.2606  0.2360 -0.0071
 2266poe     o2 9902   1.104   3.803   3.576 -0.0852  0.2677 -0.2531
 2266poe    c23 9903   0.986   3.878   3.597  0.1670  0.6429 -0.1775
 2266poe    c23 9904   0.952   3.961   3.473  0.3222  0.3323 -0.4298
 2266poe     o2 9905   0.914   3.872   3.371 -0.4983 -0.1141  0.2527
 2266poe    c23 9906   0.824   3.919   3.273 -0.2264 -0.3703 -0.1254
 2266poe    c23 9907   0.748   3.798   3.214  0.0045  0.0446 -1.2955
 2266poe     o2 9908   0.614   3.785   3.257  0.2159 -0.2704 -0.7209
 2266poe    c23 9909   0.563   3.656   3.232  0.2100 -0.4045 -0.0272
 2266poe    c23 9910   0.433   3.636   3.151  0.3504 -0.4184 -0.2472
 2266poe     o2 9911   0.431   3.688   3.020 -0.5524 -0.2603 -0.1754
 2266poe    c31 9912   0.528   3.646   2.926 -0.3143  0.1753 -0.1301
 2267poe    c31 9913   0.327   5.525   5.216 -0.4315 -0.1766  0.0034
 2267poe     o2 9914   0.394   5.413   5.268  0.4610  0.0955 -0.5380
 2267poe    c23 9915   0.399   5.314   5.168  0.9269  0.0676 -0.4922
 2267poe    c23 9916   0.453   5.180   5.223  0.0454  0.0540  0.3859
 2267poe     o2 9917   0.589   5.194   5.259  0.2874  0.2683 -0.5684
 2267poe    c23 9918   0.646   5.067   5.282 -0.3708 -0.0405 -0.5933
 2267poe    c23 9919   0.796   5.080   5.315 -0.5075 -0.1017  0.0550
 2267poe     o2 9920   0.808   5.175   5.419  0.3873  0.1132 -0.2341
 2267poe    c23 9921   0.939   5.180   5.471  0.3790  0.7230 -0.2691
 2267poe    c23 9922   0.960   5.306   5.558  0.1051  0.5984 -0.0179
 2267poe     o2 9923   0.973   5.429   5.490  0.0625  0.4469 -0.3022
 2267poe    c31 9924   0.908   5.526   5.568 -0.3708  0.0560 -0.1721
 2268poe    c31 9925   0.306   0.393   3.758  0.7683 -0.2236  0.4219
 2268poe     o2 9926   0.184   0.409   3.827  0.8098  0.5290  0.3319
 2268poe    c23 9927   0.132   0.537   3.802  0.1351  0.1179 -0.4071
 2268poe    c23 9928   0.014   0.577   3.893  0.0018  0.0720 -0.5578
 2268poe     o2 9929  -0.099   0.493   3.890 -0.0587  0.1351 -0.1571
 2268poe    c23 9930  -0.208   0.563   3.947 -0.0889  0.5667 -0.7313
 2268poe    c23 9931  -0.336   0.481   3.924 -0.3804  0.9975 -0.6433
 2268poe     o2 9932  -0.340   0.356   3.990 -0.2594  1.3111 -0.0304
 2268poe    c23 9933  -0.401   0.389   4.112 -0.4946 -0.1127  0.2585
 2268poe    c23 9934  -0.411   0.279   4.220 -0.3020  0.2987  0.7007
 2268poe     o2 9935  -0.502   0.180   4.178  0.1218  0.1707  0.0617
 2268poe    c31 9936  -0.493   0.074   4.270 -0.0274  0.0454 -0.0669
 2269poe    c31 9937   0.002   0.290   1.327 -0.3186  0.2834  0.0057
 2269poe     o2 9938   0.055   0.203   1.229 -0.0956  0.7669 -0.3057
 2269poe    c23 9939   0.192   0.217   1.199 -0.2095  1.0945 -0.6749
 2269poe    c23 9940   0.230   0.093   1.116 -0.5774  0.3772  0.2158
 2269poe     o2 9941   0.188   0.092   0.982 -0.0452 -0.6623  0.0444
 2269poe    c23 9942   0.234  -0.027   0.921  0.2791 -0.5218  0.0108
 2269poe    c23 9943   0.198  -0.035   0.772 -0.0495 -0.6310  0.0936
 2269poe     o2 9944   0.170  -0.167   0.732  0.2251 -0.5532 -0.3750
 2269poe    c23 9945   0.210  -0.191   0.599  0.6882 -0.0963 -0.3190
 2269poe    c23 9946   0.156  -0.332   0.571 -0.1957  0.2337 -0.3200
 2269poe     o2 9947   0.192  -0.419   0.676  0.2365  0.4258 -0.3071
 2269poe    c31 9948   0.181  -0.550   0.626 -0.3984  0.2107  0.3779
 2270poe    c31 9949   4.035   1.912   5.963  0.2620  0.1474 -0.5611
 2270poe     o2 9950   4.018   1.960   5.832 -0.5310 -0.0726 -0.5422
 2270poe    c23 9951   4.142   1.983   5.769 -0.2366  0.6550  0.2827
 2270poe    c23 9952   4.108   2.023   5.624 -0.6426 -0.3290  0.0982
 2270poe     o2 9953   4.051   2.151   5.607  0.9130  0.3569 -0.1095
 2270poe    c23 9954   4.113   2.262   5.668 -0.0129  0.5507  0.4943
 2270poe    c23 9955   4.018   2.378   5.633 -0.3224  0.1918  0.1285
 2270poe     o2 9956   3.883   2.354   5.665 -0.4690 -0.0430 -0.6521
 2270poe    c23 9957   3.800   2.467   5.651 -0.1972  0.2368 -0.0366
 2270poe    c23 9958   3.662   2.397   5.655 -0.1512  0.1521  0.0948
 2270poe     o2 9959   3.675   2.293   5.561  0.2745 -0.0103  0.3305
 2270poe    c31 9960   3.547   2.244   5.532  0.2296 -0.0416  0.5847
 2271poe    c31 9961   2.873   0.907   4.396 -0.3161 -0.1221 -0.0843
 2271poe     o2 9962   2.749   0.847   4.426 -0.4564  0.3459  0.2877
 2271poe    c23 9963   2.743   0.815   4.563  0.5033 -0.4020  0.1670
 2271poe    c23 9964   2.604   0.755   4.590  0.4668 -0.2921  0.2238
 2271poe     o2 9965   2.568   0.653   4.499 -0.4597  0.2632 -0.0535
 2271poe    c23 9966   2.455   0.578   4.537  0.2274 -0.3819  0.7473
 2271poe    c23 9967   2.378   0.510   4.423 -0.4400 -0.5457  1.2856
 2271poe     o2 9968   2.444   0.394   4.377 -0.1594 -0.0487  0.4067
 2271poe    c23 9969   2.348   0.309   4.318  0.0208 -0.4838  0.7281
 2271poe    c23 9970   2.407   0.176   4.266 -0.1075 -0.3490  0.2306
 2271poe     o2 9971   2.467   0.104   4.371  0.1717 -0.2070  0.1685
 2271poe    c31 9972   2.488  -0.027   4.322  0.4673  0.0429 -0.3890
 2272poe    c31 9973   4.525   4.808   6.156 -0.4229 -0.2294 -0.0969
 2272poe     o2 9974   4.446   4.903   6.090 -0.0359 -0.4893 -0.9461
 2272poe    c23 9975   4.323   4.927   6.154  0.0952 -0.1462 -0.8222
 2272poe    c23 9976   4.235   5.016   6.064 -0.3802 -0.0287 -0.2503
 2272poe     o2 9977   4.304   5.137   6.045 -0.3287 -0.0226 -0.0259
 2272poe    c23 9978   4.295   5.235   6.146 -0.3459  0.5350 -0.5617
 2272poe    c23 9979   4.419   5.315   6.101  0.1302  0.1740  0.1007
 2272poe     o2 9980   4.520   5.219   6.081 -0.0062  0.0217  0.1431
 2272poe    c23 9981   4.633   5.277   6.020  0.0139 -0.1274  0.0367
 2272poe    c23 9982   4.734   5.163   5.999  0.2482  0.1092 -0.1354
 2272poe     o2 9983   4.658   5.050   5.961  0.2881  0.0306  0.0168
 2272poe    c31 9984   4.763   4.964   5.924  0.2842  0.2453 -0.5090
 2273poe    c31 9985   4.275   0.852   3.120 -0.1240  0.4985 -0.0681
 2273poe     o2 9986   4.337   0.880   3.243  0.0218  0.1908 -0.0697
 2273poe    c23 9987   4.473   0.844   3.249 -0.1143 -0.3581 -0.2359
 2273poe    c23 9988   4.530   0.836   3.392 -0.3621  0.0268 -0.1144
 2273poe     o2 9989   4.477   0.945   3.465 -0.2550 -0.0587  0.0922
 2273poe    c23 9990   4.525   0.948   3.597  0.4456 -0.1761 -0.1530
 2273poe    c23 9991   4.436   1.019   3.701  0.1394 -0.4665 -0.2139
 2273poe     o2 9992   4.307   0.965   3.714 -0.1538  0.2041 -0.3330
 2273poe    c23 9993   4.231   1.009   3.825  0.1992 -0.4755  0.1858
 2273poe    c23 9994   4.082   0.972   3.806  0.2010 -0.6187  0.4592
 2273poe     o2 9995   4.018   1.067   3.725 -0.2644 -0.7301  0.6911
 2273poe    c31 9996   3.878   1.053   3.736 -0.2740 -0.4190  0.9936
 2274poe    c31 9997   5.147   2.225   2.178 -0.5496 -0.1665  0.2892
 2274poe     o2 9998   5.008   2.210   2.198 -0.5566 -0.2070  0.2126
 2274poe    c23 9999   4.941   2.325   2.150 -0.1086 -0.0820 -0.1169
 2274poe    c2310000   4.792   2.297   2.177 -0.1579  0.0431 -0.2591
 2274poe     o210001   4.773   2.231   2.300 -0.3891 -0.1498 -0.3950
 2274poe    c2310002   4.643   2.181   2.321 -0.2629 -0.1708  0.3780
 2274poe    c2310003   4.647   2.100   2.452  0.2361 -0.6396  0.0787
 2274poe     o210004   4.765   2.023   2.437  0.3243 -0.4814 -0.0390
 2274poe    c2310005   4.781   1.905   2.513 -0.8833 -0.2770  0.5642
 2274poe    c2310006   4.704   1.784   2.458  0.2693 -0.7714  0.0051
 2274poe     o210007   4.746   1.755   2.327 -0.5115  0.2595 -0.4861
 2274poe    c3110008   4.701   1.629   2.282  0.2337 -0.1297 -0.1560
 2275poe    c3110009   4.744   0.354   6.972 -0.4167  0.0199 -0.3210
 2275poe     o210010   4.645   0.411   7.055 -0.2585 -0.1004 -0.0482
 2275poe    c2310011   4.549   0.486   6.984  0.2145  0.5734  0.0112
 2275poe    c2310012   4.437   0.538   7.076  0.0978 -0.1455  0.2805
 2275poe     o210013   4.493   0.616   7.179 -0.1452  0.0717  0.2486
 2275poe    c2310014   4.386   0.683   7.243  0.2660  0.4123  0.5795
 2275poe    c2310015   4.463   0.767   7.347  0.2979  0.3379  0.6170
 2275poe     o210016   4.525   0.663   7.419  0.1293 -0.1043  0.1304
 2275poe    c2310017   4.575   0.716   7.540  0.3041 -0.5728  0.2640
 2275poe    c2310018   4.647   0.598   7.608  0.1523 -0.6283  0.3300
 2275poe     o210019   4.731   0.524   7.521  0.5604  0.3528 -0.1248
 2275poe    c3110020   4.784   0.416   7.594  0.1622 -0.3387 -0.8371
 2276poe    c3110021   5.621   2.819   2.768  0.3796  0.0712  0.7615
 2276poe     o210022   5.484   2.788   2.761  0.3752  0.2436  0.0017
 2276poe    c2310023   5.434   2.833   2.637  0.3940  0.1221 -0.0498
 2276poe    c2310024   5.300   2.757   2.634  0.3870  0.1529 -0.5165
 2276poe     o210025   5.225   2.786   2.749 -0.2770  0.0484 -0.9152
 2276poe    c2310026   5.092   2.739   2.755 -0.2352  0.0027 -0.2055
 2276poe    c2310027   5.049   2.786   2.895  0.3183 -0.4427  0.1203
 2276poe     o210028   5.156   2.756   2.981  0.4429  0.0390  0.1356
 2276poe    c2310029   5.135   2.778   3.119  0.4925  0.4560  0.0784
 2276poe    c2310030   5.115   2.921   3.172 -0.1350  0.4591 -0.1485
 2276poe     o210031   5.241   2.982   3.150  0.3276 -0.3346  0.2476
 2276poe    c3110032   5.254   3.088   3.243 -0.0132 -0.4668  0.4505
 2277poe    c3110033   3.055   1.156   3.942 -0.1643 -0.0480  0.1155
 2277poe     o210034   2.924   1.106   3.931  0.2487 -1.1903  0.3153
 2277poe    c2310035   2.852   1.092   4.051 -0.1335 -0.2088  0.2060
 2277poe    c2310036   2.720   1.013   4.040 -0.1378 -0.2309  0.4162
 2277poe     o210037   2.644   1.068   3.935  0.0289 -0.5382  0.1342
 2277poe    c2310038   2.516   1.009   3.930 -0.1429 -0.1385 -0.4000
 2277poe    c2310039   2.404   1.097   3.989  0.3747  0.1524  0.1653
 2277poe     o210040   2.423   1.136   4.123  0.0276  0.8566  0.0146
 2277poe    c2310041   2.313   1.191   4.191 -0.3056 -0.0138  0.2000
 2277poe    c2310042   2.369   1.224   4.331 -0.2752 -0.3405  0.2652
 2277poe     o210043   2.430   1.112   4.389  0.5133  0.1878  0.4753
 2277poe    c3110044   2.502   1.144   4.506 -0.4459  0.0475  1.1209
 2278poe    c3110045   1.803   6.528   2.203 -0.2909  0.3818 -0.6173
 2278poe     o210046   1.818   6.639   2.289 -0.0691  0.0757 -0.2543
 2278poe    c2310047   1.691   6.691   2.323 -0.1313  0.0472 -0.4402
 2278poe    c2310048   1.717   6.831   2.380 -0.5972 -0.1403  0.2389
 2278poe     o210049   1.843   6.822   2.441 -0.5052 -0.6822 -0.0288
 2278poe    c2310050   1.897   6.948   2.475 -0.9407 -0.6857  0.6998
 2278poe    c2310051   2.010   6.929   2.578  0.1767  0.2547 -0.3190
 2278poe     o210052   2.100   6.845   2.509 -0.0253 -0.3145  0.1005
 2278poe    c2310053   2.219   6.822   2.581 -0.0430  0.0659  0.2510
 2278poe    c2310054   2.327   6.767   2.486 -0.1877  0.6999 -0.2933
 2278poe     o210055   2.365   6.862   2.389  0.3070  0.3701 -0.4229
 2278poe    c3110056   2.459   6.799   2.304 -0.0642 -0.8031  0.0075
 2279poe    c3110057   4.800   1.547   1.255 -0.8350  0.4003 -0.6876
 2279poe     o210058   4.908   1.638   1.264 -0.3749 -0.1838 -0.1019
 2279poe    c2310059   4.930   1.675   1.398  0.2092  0.1938 -0.2997
 2279poe    c2310060   5.065   1.745   1.424  0.0434  0.1780  0.6284
 2279poe     o210061   5.173   1.686   1.355 -0.5762 -0.5204  0.2342
 2279poe    c2310062   5.288   1.667   1.436 -0.0649  0.0339 -0.3525
 2279poe    c2310063   5.393   1.570   1.380  0.3707  0.0363  0.4501
 2279poe     o210064   5.466   1.633   1.278  0.0241 -0.0170  0.1667
 2279poe    c2310065   5.546   1.538   1.211 -0.0042  0.1457 -0.1019
 2279poe    c2310066   5.594   1.602   1.079 -0.1829  0.5115  0.0073
 2279poe     o210067   5.495   1.657   0.996 -0.0930  0.7350  0.0488
 2279poe    c3110068   5.551   1.681   0.868  0.4697 -0.9831 -0.0516
 2280poe    c3110069   1.381   0.274   1.996 -0.8549 -0.2352 -0.7558
 2280poe     o210070   1.490   0.254   1.910 -0.1659 -0.3463  0.1256
 2280poe    c2310071   1.513   0.374   1.840 -0.3365 -0.5880 -0.3547
 2280poe    c2310072   1.605   0.347   1.719  0.1865  0.4299 -0.1983
 2280poe     o210073   1.704   0.258   1.766 -0.2084 -0.0104 -0.1897
 2280poe    c2310074   1.804   0.251   1.667  0.1571  0.1828  0.1638
 2280poe    c2310075   1.919   0.153   1.695  0.3513  0.2164 -0.5055
 2280poe     o210076   1.879   0.022   1.725  0.0532  0.4509  0.1343
 2280poe    c2310077   1.994  -0.033   1.785 -0.0980  0.3294  0.3147
 2280poe    c2310078   1.967  -0.175   1.838  1.4185 -0.3190 -0.5887
 2280poe     o210079   1.925  -0.264   1.738 -0.0895 -0.0447 -0.2325
 2280poe    c3110080   1.870  -0.375   1.805  0.4300  0.1226  0.4827
 2281poe    c3110081   7.021   5.777   1.047  0.4423 -0.1546 -0.3081
 2281poe     o210082   7.001   5.683   1.150  0.1478  0.1078 -0.1229
 2281poe    c2310083   7.121   5.614   1.178  0.1114  0.0332 -0.1490
 2281poe    c2310084   7.115   5.539   1.313 -0.5514 -0.0532 -0.2219
 2281poe     o210085   7.150   5.610   1.429 -0.0139 -0.1016 -0.3526
 2281poe    c2310086   7.167   5.511   1.528 -0.0223 -0.0853 -0.3348
 2281poe    c2310087   7.242   5.562   1.652  0.2246 -0.7059 -0.2248
 2281poe     o210088   7.383   5.547   1.653  0.2955 -0.0807  0.2325
 2281poe    c2310089   7.457   5.613   1.753  0.3068  0.3008 -0.0270
 2281poe    c2310090   7.478   5.764   1.730  0.4918  0.2862  0.0461
 2281poe     o210091   7.545   5.795   1.610  1.0519 -0.3491  0.1874
 2281poe    c3110092   7.610   5.920   1.612  0.5710 -0.0831 -0.2464
 2282poe    c3110093   0.341   5.215   5.852 -0.5401 -0.5743 -0.0017
 2282poe     o210094   0.249   5.119   5.899 -0.8987 -0.0067  0.4800
 2282poe    c2310095   0.326   5.006   5.935 -0.1212  0.3069 -0.1761
 2282poe    c2310096   0.248   4.909   6.025 -0.1703  0.1795 -0.3553
 2282poe     o210097   0.122   4.885   5.966 -0.5507  0.4998  0.3114
 2282poe    c2310098   0.059   4.778   6.033  0.6304 -0.3469  0.0991
 2282poe    c2310099  -0.067   4.729   5.960  0.5956  0.0427 -0.1061
 2282poe     o210100  -0.174   4.821   5.961  0.6034  0.0545 -0.3246
 2282poe    c2310101  -0.278   4.769   5.882  0.4559 -0.0123 -0.0858
 2282poe    c2310102  -0.278   4.815   5.735  0.0476  0.1645 -0.0327
 2282poe     o210103  -0.250   4.952   5.719  0.6821  0.0001 -0.3598
 2282poe    c3110104  -0.269   5.003   5.589 -0.6213 -0.1554 -0.2425
 2283poe    c3110105   5.678   1.050   3.155  0.2091  0.1118  0.9616
 2283poe     o210106   5.654   0.964   3.264 -0.3804 -0.9341  0.0244
 2283poe    c2310107   5.763   0.947   3.352 -0.3318  0.7077  0.3256
 2283poe    c2310108   5.725   0.832   3.447  0.3880  0.4818  0.3461
 2283poe     o210109   5.616   0.841   3.537 -0.0012  0.5150 -0.1282
 2283poe    c2310110   5.665   0.856   3.668  0.1897  0.5717 -0.2041
 2283poe    c2310111   5.558   0.902   3.770 -0.0852 -0.6783  0.0912
 2283poe     o210112   5.464   0.812   3.822 -0.4294 -0.9449 -0.9634
 2283poe    c2310113   5.518   0.711   3.904 -0.1179 -0.0749 -0.0889
 2283poe    c2310114   5.412   0.600   3.917  0.2734 -0.3910  0.4791
 2283poe     o210115   5.376   0.517   3.809 -0.0567 -0.2470  0.4761
 2283poe    c3110116   5.474   0.424   3.769  0.1807  0.5416 -0.8347
 2284poe    c3110117   0.020   5.832   6.407 -0.1871  0.4846  0.0591
 2284poe     o210118  -0.068   5.810   6.299 -0.1742  0.1143  0.1214
 2284poe    c2310119  -0.124   5.681   6.298 -0.0436  0.0563  0.2762
 2284poe    c2310120  -0.235   5.672   6.192  0.0384 -0.3150  0.2199
 2284poe     o210121  -0.339   5.766   6.211  0.3605  0.1107 -0.0923
 2284poe    c2310122  -0.459   5.714   6.264  0.2780 -0.0069 -0.3900
 2284poe    c2310123  -0.569   5.818   6.235  0.1498 -0.0117  0.0721
 2284poe     o210124  -0.578   5.922   6.330 -0.1762  0.4145 -0.4217
 2284poe    c2310125  -0.687   6.012   6.329 -0.0311  0.6284  1.1056
 2284poe    c2310126  -0.810   5.963   6.407 -0.3577 -0.0636  0.1605
 2284poe     o210127  -0.782   5.986   6.543  0.9590  0.0635 -0.1229
 2284poe    c3110128  -0.847   5.890   6.623  0.0418  0.5759 -0.2365
 2285poe    c3110129   5.021   5.278   1.424 -0.1613 -0.3870  0.0083
 2285poe     o210130   5.034   5.327   1.292 -0.1805 -0.1207  0.1060
 2285poe    c2310131   5.033   5.468   1.285  0.5488 -0.1214 -0.1092
 2285poe    c2310132   5.045   5.522   1.141 -0.2568  0.7726  0.1487
 2285poe     o210133   5.009   5.658   1.130 -0.6038  0.6459 -0.3021
 2285poe    c2310134   5.076   5.726   1.027  0.5053  0.4747  0.2846
 2285poe    c2310135   4.986   5.835   0.965 -0.5025  0.0721  1.0155
 2285poe     o210136   4.976   5.945   1.052 -0.0651  0.4069  0.6435
 2285poe    c2310137   4.914   6.047   0.978  0.3736 -0.0951 -0.4426
 2285poe    c2310138   4.901   6.175   1.064 -0.4579 -0.1972 -0.4107
 2285poe     o210139   4.865   6.148   1.197  0.1166 -0.2674 -0.2679
 2285poe    c3110140   4.861   6.277   1.254  0.6485 -0.3887  0.0559
 2286poe    c3110141   0.651   2.450   1.588 -0.1340 -0.7378  0.4881
 2286poe     o210142   0.641   2.325   1.525  0.3616 -0.2143 -0.6479
 2286poe    c2310143   0.550   2.321   1.417 -0.0887  0.8424 -0.3159
 2286poe    c2310144   0.581   2.205   1.320  0.3802  0.6591  0.0486
 2286poe     o210145   0.686   2.205   1.226 -0.3983 -0.4329 -0.8441
 2286poe    c2310146   0.806   2.195   1.299 -0.6711 -0.3850 -0.3876
 2286poe    c2310147   0.853   2.049   1.320  0.1000 -0.0582  0.2499
 2286poe     o210148   0.974   2.054   1.391  0.2030  0.6785  0.0352
 2286poe    c2310149   0.978   1.949   1.485  0.0164  0.5872 -0.0588
 2286poe    c2310150   1.111   1.970   1.560 -0.0037 -0.5324  0.3033
 2286poe     o210151   1.217   1.954   1.469 -0.1750 -0.7368  0.1380
 2286poe    c3110152   1.341   1.933   1.534 -0.0507 -0.6064 -0.0562
 2287poe    c3110153   2.181   1.473   2.632 -0.1345  0.6463 -0.4442
 2287poe     o210154   2.139   1.414   2.511  0.1404 -0.4474 -0.0200
 2287poe    c2310155   2.234   1.316   2.475 -0.3095 -0.7565 -0.3814
 2287poe    c2310156   2.175   1.298   2.334  0.4495  0.1567 -0.8275
 2287poe     o210157   2.044   1.247   2.344  0.4404  0.3499  0.1905
 2287poe    c2310158   2.007   1.216   2.211 -0.1263  0.7066  0.2608
 2287poe    c2310159   1.855   1.196   2.198 -0.0474 -0.0414  0.4281
 2287poe     o210160   1.768   1.307   2.192 -0.0352 -0.0786 -0.8544
 2287poe    c2310161   1.795   1.376   2.072  0.4294  0.7693 -0.2771
 2287poe    c2310162   1.760   1.526   2.078  0.1065  0.6963 -0.2912
 2287poe     o210163   1.832   1.593   2.179  0.0266  0.1437  0.1367
 2287poe    c3110164   1.792   1.728   2.178  0.3068  0.2256 -0.0812
 2288poe    c3110165   4.240   1.922   6.370  0.1991 -0.3140 -0.4402
 2288poe     o210166   4.295   1.908   6.498  0.1210 -0.1543 -0.3884
 2288poe    c2310167   4.234   2.001   6.584  0.2562 -0.3331 -0.0944
 2288poe    c2310168   4.261   1.977   6.734  0.7691  0.4761 -0.0466
 2288poe     o210169   4.199   1.873   6.806  0.1638 -0.0095 -1.2280
 2288poe    c2310170   4.289   1.767   6.826  0.0704  0.1882  0.4083
 2288poe    c2310171   4.246   1.633   6.763 -0.5503  0.5792 -0.0018
 2288poe     o210172   4.257   1.621   6.623 -0.0313 -0.0884  0.0921
 2288poe    c2310173   4.131   1.613   6.560 -0.1230  0.1754  0.2395
 2288poe    c2310174   4.111   1.489   6.469  0.0107  0.1606  0.2302
 2288poe     o210175   4.238   1.439   6.433 -0.3893 -0.2625 -0.5965
 2288poe    c3110176   4.229   1.328   6.347 -0.2502 -0.5544 -0.2331
 2289poe    c3110177   1.462   4.745   0.051  0.7655  0.0409 -0.7208
 2289poe     o210178   1.459   4.767  -0.088 -1.1513 -0.0835 -0.7252
 2289poe    c2310179   1.414   4.898  -0.117  0.1708  0.7294  0.7478
 2289poe    c2310180   1.412   4.916  -0.270 -0.0790 -0.0710  0.6487
 2289poe     o210181   1.499   4.825  -0.333 -0.0443  0.3020  0.1537
 2289poe    c2310182   1.489   4.825  -0.474 -0.0206  0.1250  0.1514
 2289poe    c2310183   1.590   4.726  -0.534 -0.2021  0.1643 -0.2250
 2289poe     o210184   1.563   4.592  -0.499 -0.3705  0.2376 -0.0705
 2289poe    c2310185   1.616   4.516  -0.606 -0.4931  0.1583 -0.0748
 2289poe    c2310186   1.552   4.377  -0.586  0.0200  0.0066  0.5371
 2289poe     o210187   1.576   4.324  -0.457 -0.1748  0.1949  0.6511
 2289poe    c3110188   1.509   4.200  -0.454 -0.4129  0.2957 -0.0765
 2290poe    c3110189   0.574   2.078   6.578 -0.1190 -0.1715  0.0236
 2290poe     o210190   0.666   2.167   6.636 -0.1641 -0.1974  0.1358
 2290poe    c2310191   0.744   2.097   6.730  0.0571 -0.3897 -0.1875
 2290poe    c2310192   0.803   2.169   6.854 -0.2977  0.1726 -0.3419
 2290poe     o210193   0.888   2.273   6.812 -0.2202  0.2385 -0.0220
 2290poe    c2310194   0.896   2.361   6.922 -0.3535  0.1992  0.0202
 2290poe    c2310195   1.038   2.417   6.946 -0.1619 -0.1566 -0.2706
 2290poe     o210196   1.064   2.529   6.864 -0.3152  0.3186  0.3237
 2290poe    c2310197   1.162   2.601   6.936  0.2683  0.0257 -0.1646
 2290poe    c2310198   1.183   2.732   6.858 -0.4032 -0.0972 -0.5651
 2290poe     o210199   1.276   2.705   6.756  0.1353  0.0536 -0.1225
 2290poe    c3110200   1.334   2.816   6.691  0.4120 -0.0081  0.0183
 2291poe    c3110201   6.028   5.971   5.699 -0.4629 -0.3683  0.0128
 2291poe     o210202   6.157   5.985   5.645 -0.5579  0.1678 -0.0733
 2291poe    c2310203   6.201   6.119   5.648  0.2462 -0.0892 -0.0793
 2291poe    c2310204   6.338   6.150   5.585  0.4587  0.4720  0.6474
 2291poe     o210205   6.424   6.042   5.614  0.0863 -0.1068 -0.3684
 2291poe    c2310206   6.519   6.034   5.509  0.6035 -0.5413  0.1262
 2291poe    c2310207   6.499   5.899   5.439 -0.2185 -0.2275 -0.2622
 2291poe     o210208   6.462   5.790   5.521 -0.0467 -0.3112 -0.2937
 2291poe    c2310209   6.415   5.677   5.452  0.3827 -0.6866  0.0227
 2291poe    c2310210   6.326   5.600   5.551 -0.3656  0.3439  0.1717
 2291poe     o210211   6.239   5.699   5.601 -0.2642  0.4000  0.2371
 2291poe    c3110212   6.119   5.631   5.632 -0.0151 -0.4232 -0.5485
 2292poe    c3110213   1.094   6.140   0.853 -0.4640 -0.2366  0.3978
 2292poe     o210214   1.177   6.069   0.942  0.2366  0.1490  0.0571
 2292poe    c2310215   1.117   6.026   1.062  0.8634 -0.3119  0.2171
 2292poe    c2310216   1.210   5.928   1.136  0.4742 -0.5269  0.4294
 2292poe     o210217   1.335   5.984   1.101  0.1158 -0.2798 -0.4979
 2292poe    c2310218   1.447   5.910   1.142  0.4562  0.5207  0.0519
 2292poe    c2310219   1.589   5.968   1.127  0.7248 -0.1385  0.0096
 2292poe     o210220   1.613   6.010   0.995 -0.5937  0.2638 -0.1162
 2292poe    c2310221   1.730   6.083   0.964 -0.6723  0.5476  0.2468
 2292poe    c2310222   1.739   6.137   0.820  0.5854  0.4239  0.2696
 2292poe     o210223   1.682   6.038   0.738  0.6256  0.8962 -0.3389
 2292poe    c3110224   1.709   6.068   0.603 -0.1053  0.7694 -0.5184
 2293poe    c3110225   3.547   6.729   1.225  0.6914  1.1894 -0.2252
 2293poe     o210226   3.667   6.717   1.298  0.0456 -0.5142  0.6327
 2293poe    c2310227   3.766   6.672   1.208 -0.0213  1.1712 -0.3328
 2293poe    c2310228   3.892   6.647   1.293 -0.4318  0.3003  0.0279
 2293poe     o210229   3.917   6.757   1.377 -0.8204  0.1968  0.2858
 2293poe    c2310230   4.032   6.746   1.458 -0.3471 -0.0574 -0.4127
 2293poe    c2310231   4.078   6.616   1.528 -0.4574  0.2050  0.1500
 2293poe     o210232   4.000   6.586   1.641 -0.4278 -0.1503  0.0768
 2293poe    c2310233   4.088   6.585   1.751  0.0430  0.4692 -0.2909
 2293poe    c2310234   4.018   6.600   1.888  0.5400  0.0149  0.0143
 2293poe     o210235   3.994   6.731   1.932 -0.3052 -0.0725 -0.1696
 2293poe    c3110236   3.940   6.734   2.062 -0.1412 -0.1416 -0.0994
 2294poe    c3110237   6.720   7.188   2.836  0.0772  0.1761 -0.4738
 2294poe     o210238   6.686   7.051   2.824 -0.0310  0.1403  0.2233
 2294poe    c2310239   6.555   7.051   2.773  0.1161  0.2235 -0.1626
 2294poe    c2310240   6.515   6.905   2.747 -0.0735  0.2245  0.1133
 2294poe     o210241   6.591   6.838   2.648 -0.5913  0.2730 -0.3275
 2294poe    c2310242   6.552   6.861   2.515 -0.0130  0.3414 -0.4892
 2294poe    c2310243   6.632   6.793   2.402 -0.0066 -0.0827 -0.2326
 2294poe     o210244   6.686   6.678   2.464  0.3320  0.2684  0.1278
 2294poe    c2310245   6.772   6.615   2.372  0.0855 -0.0963  0.1452
 2294poe    c2310246   6.847   6.507   2.453 -0.6120 -0.2975  0.5248
 2294poe     o210247   6.896   6.575   2.566  0.4783 -0.2521  0.0383
 2294poe    c3110248   7.003   6.527   2.644  0.2421 -0.2297  0.3794
 2295poe    c3110249   3.562   1.539   0.959  0.6178  0.7562  0.1983
 2295poe     o210250   3.424   1.554   0.986  0.2535 -0.9008 -0.6234
 2295poe    c2310251   3.352   1.584   0.869 -0.1790 -0.9823 -0.3789
 2295poe    c2310252   3.208   1.637   0.883  0.1396 -0.2352  0.0994
 2295poe     o210253   3.135   1.546   0.962  0.1207 -0.2850  0.0237
 2295poe    c2310254   2.997   1.562   0.935  0.0998  0.2152  0.4254
 2295poe    c2310255   2.920   1.497   1.051 -0.3694 -0.2239 -0.1320
 2295poe     o210256   2.928   1.541   1.185  0.4895 -0.3190 -0.1480
 2295poe    c2310257   2.804   1.529   1.250  0.4649 -0.0372 -0.1404
 2295poe    c2310258   2.799   1.576   1.397 -0.3266 -0.2328 -0.0978
 2295poe     o210259   2.885   1.504   1.482 -0.3193  0.0748  0.1562
 2295poe    c3110260   2.868   1.561   1.610 -0.3128  0.0166  0.1831
 2296poe    c3110261   5.908   3.050   1.745  0.6941  0.1455 -0.1147
 2296poe     o210262   5.940   3.031   1.609  0.5692 -0.7200 -0.0285
 2296poe    c2310263   6.003   3.150   1.568 -0.6012 -0.2433 -0.4901
 2296poe    c2310264   6.080   3.107   1.442  0.2843 -0.6827  0.1911
 2296poe     o210265   5.997   3.018   1.372 -0.7753  0.1934  0.3002
 2296poe    c2310266   6.055   2.956   1.259 -0.4440  0.2226  0.4524
 2296poe    c2310267   5.971   2.835   1.213  0.8561 -0.4472 -0.2022
 2296poe     o210268   5.914   2.776   1.328  0.6790  0.0265 -0.0436
 2296poe    c2310269   5.860   2.648   1.303 -0.5824  0.6133 -0.3861
 2296poe    c2310270   5.776   2.612   1.427 -0.2950  1.3988  0.0436
 2296poe     o210271   5.852   2.572   1.539 -0.0301 -0.1070 -0.6559
 2296poe    c3110272   5.830   2.439   1.579 -0.0657  0.2816  0.6454
 2297poe    c3110273   6.491   3.913   4.797  0.1512  0.7754 -0.2760
 2297poe     o210274   6.510   3.871   4.930  0.2710  0.4868 -0.3845
 2297poe    c2310275   6.392   3.880   5.007  0.8660  0.1177  0.5967
 2297poe    c2310276   6.342   4.022   5.041 -0.0266  0.1230 -0.6663
 2297poe     o210277   6.450   4.087   5.103 -0.3878  0.0633  0.0361
 2297poe    c2310278   6.442   4.228   5.093  0.0277  0.0794 -0.0878
 2297poe    c2310279   6.530   4.309   5.190 -0.0677 -0.5285  0.5184
 2297poe     o210280   6.454   4.347   5.303  0.0747  0.3069  0.3434
 2297poe    c2310281   6.460   4.250   5.406 -0.6335 -0.1091 -0.0040
 2297poe    c2310282   6.389   4.292   5.535  0.5914  0.2562  0.5684
 2297poe     o210283   6.249   4.285   5.518  0.6540 -0.0159  0.1526
 2297poe    c3110284   6.173   4.297   5.637  0.0954  0.2885 -0.2301
 2298poe    c3110285   0.533   6.176   2.078  1.1822  0.1909 -0.3827
 2298poe     o210286   0.544   6.235   2.205 -0.5152 -0.3947  0.0592
 2298poe    c2310287   0.450   6.180   2.294 -0.2485 -0.0597  0.5531
 2298poe    c2310288   0.461   6.233   2.438  0.4284  0.2519  0.3894
 2298poe     o210289   0.584   6.186   2.487  0.1387 -0.8973  0.0281
 2298poe    c2310290   0.595   6.237   2.617 -0.0904 -0.3602 -0.1613
 2298poe    c2310291   0.690   6.161   2.712 -0.3434 -0.1705  0.2484
 2298poe     o210292   0.655   6.030   2.750 -0.2265 -0.3281 -0.1788
 2298poe    c2310293   0.672   5.928   2.653  0.3259 -0.4846  0.0742
 2298poe    c2310294   0.578   5.806   2.659 -0.6233  0.1998 -0.5745
 2298poe     o210295   0.573   5.739   2.783 -0.5670  0.2484 -0.5458
 2298poe    c3110296   0.532   5.604   2.779  0.0290  0.0339  0.4390
 2299poe    c3110297   1.330   6.520   6.350 -0.0892 -0.4655  0.0747
 2299poe     o210298   1.435   6.566   6.432  0.1336 -0.0023 -0.4649
 2299poe    c2310299   1.389   6.629   6.550  0.0687  0.3958 -0.7037
 2299poe    c2310300   1.490   6.735   6.598 -0.2005  0.1352  0.4667
 2299poe     o210301   1.617   6.676   6.584 -0.2273  0.0239  0.6874
 2299poe    c2310302   1.721   6.765   6.617  0.0091 -0.0189  0.0850
 2299poe    c2310303   1.831   6.672   6.672  0.0106 -0.2839 -0.3625
 2299poe     o210304   1.849   6.559   6.590  0.2896 -0.4352 -0.0958
 2299poe    c2310305   1.921   6.453   6.649  0.4223  0.0490  0.6205
 2299poe    c2310306   1.858   6.371   6.763 -0.0581 -0.0062  0.3172
 2299poe     o210307   1.752   6.282   6.737 -0.1552  0.1069  0.3289
 2299poe    c3110308   1.713   6.227   6.861  0.1070 -0.5397  0.1244
 2300poe    c3110309   4.710   2.033   2.875 -0.2752  0.1797  1.3333
 2300poe     o210310   4.620   1.932   2.837  0.4992 -0.1102  0.2280
 2300poe    c2310311   4.542   1.894   2.948 -0.6336  0.0128 -0.5135
 2300poe    c2310312   4.419   1.819   2.895 -0.5887 -0.4769  0.0616
 2300poe     o210313   4.310   1.898   2.852 -0.3334 -0.1416  0.0241
 2300poe    c2310314   4.329   1.942   2.720  0.2806  0.0363  0.1703
 2300poe    c2310315   4.226   2.046   2.672 -0.0161 -0.3839 -0.1039
 2300poe     o210316   4.212   2.145   2.771  0.1060 -0.0256 -0.4398
 2300poe    c2310317   4.123   2.245   2.727 -0.3636 -0.3164 -0.1608
 2300poe    c2310318   4.145   2.380   2.796  0.4926 -0.2267 -0.6015
 2300poe     o210319   4.140   2.381   2.937 -0.9107  0.1364 -0.6433
 2300poe    c3110320   4.129   2.516   2.978 -0.1124  0.1650 -0.5071
 2301poe    c3110321   5.285   4.626   5.018  0.7762 -0.4607  0.6286
 2301poe     o210322   5.271   4.765   4.999  0.4717 -0.6059 -0.2334
 2301poe    c2310323   5.386   4.841   4.968  0.1438  0.1115  0.3002
 2301poe    c2310324   5.349   4.990   4.981  0.5436  0.2858 -0.4870
 2301poe     o210325   5.246   5.042   4.900 -0.3052 -0.1916  0.2622
 2301poe    c2310326   5.176   5.124   4.990 -0.2128 -0.6040  0.7185
 2301poe    c2310327   5.031   5.154   4.947  0.0537  0.3854  0.4842
 2301poe     o210328   4.944   5.047   4.978  0.2369  0.2467  0.5161
 2301poe    c2310329   4.809   5.082   4.956  0.2688  0.0383 -0.0285
 2301poe    c2310330   4.732   5.058   5.087  0.9394 -0.0448  0.3583
 2301poe     o210331   4.689   4.925   5.107  0.8399 -0.0168  0.3291
 2301poe    c3110332   4.646   4.934   5.241 -0.6412 -0.2609 -0.1127
 2302poe    c3110333   2.254   0.191   5.659  0.2752 -0.3726 -0.4375
 2302poe     o210334   2.349   0.086   5.663 -0.1278 -0.7183  0.3600
 2302poe    c2310335   2.476   0.147   5.669 -0.2295 -0.4559 -0.0838
 2302poe    c2310336   2.583   0.041   5.700 -0.0141 -0.2373 -0.0700
 2302poe     o210337   2.584  -0.051   5.593 -0.0669  0.0946 -0.3568
 2302poe    c2310338   2.714  -0.101   5.573  0.0121  0.1570  0.0019
 2302poe    c2310339   2.708  -0.141   5.425  0.0307  0.1898 -0.0078
 2302poe     o210340   2.601  -0.230   5.407 -0.1550  0.4270 -0.0815
 2302poe    c2310341   2.595  -0.232   5.267 -0.1390 -0.4377 -0.0754
 2302poe    c2310342   2.463  -0.289   5.212 -0.4998  0.1931  0.1412
 2302poe     o210343   2.360  -0.194   5.234  0.0034  0.6742  0.4399
 2302poe    c3110344   2.234  -0.246   5.198  0.4419 -0.1991  0.1273
 2303poe    c3110345   4.937   0.289   2.538  0.2680 -0.3493  0.5915
 2303poe     o210346   4.927   0.368   2.654 -0.3910  0.4600 -0.0018
 2303poe    c2310347   5.000   0.299   2.753 -0.9239  0.4128  0.3580
 2303poe    c2310348   4.982   0.374   2.887  0.3477  0.0287  0.7517
 2303poe     o210349   5.052   0.496   2.886 -0.0602  0.2570  0.2914
 2303poe    c2310350   5.073   0.544   3.017 -0.1004  0.3948  0.2486
 2303poe    c2310351   5.172   0.662   3.019 -0.1904  0.4769 -0.0170
 2303poe     o210352   5.300   0.635   2.967 -0.4336 -0.1784 -0.2797
 2303poe    c2310353   5.385   0.747   2.973 -0.5003 -0.1688  0.5605
 2303poe    c2310354   5.531   0.698   2.967 -0.2679  0.5901 -0.1909
 2303poe     o210355   5.572   0.655   3.095 -0.1584  0.8303 -0.1462
 2303poe    c3110356   5.676   0.560   3.082 -0.6673  0.2314  0.1082
 2304poe    c3110357   3.006   3.014   5.955 -0.3478 -0.4050 -0.5268
 2304poe     o210358   3.028   2.995   5.817 -0.3898 -0.3160 -0.5454
 2304poe    c2310359   3.047   2.858   5.792 -0.4424 -0.4403  0.0827
 2304poe    c2310360   3.027   2.838   5.641  0.2244  0.1441 -0.0849
 2304poe     o210361   2.897   2.875   5.605  0.0389 -0.4317 -0.0266
 2304poe    c2310362   2.888   2.857   5.465 -0.2712 -0.4131 -0.0101
 2304poe    c2310363   2.744   2.883   5.415  0.0761  0.3667 -0.6342
 2304poe     o210364   2.651   2.789   5.465  0.1415  0.3462 -0.5518
 2304poe    c2310365   2.523   2.847   5.473  0.1727  0.3524 -0.0370
 2304poe    c2310366   2.439   2.732   5.532  0.1192  0.1385 -0.5219
 2304poe     o210367   2.483   2.674   5.653 -0.5248  0.0392 -0.3339
 2304poe    c3110368   2.385   2.604   5.726 -0.2439  0.1532  0.1583
 2305poe    c3110369   2.366   6.764   1.100  0.0331  1.0693 -0.1701
 2305poe     o210370   2.492   6.822   1.126  0.2601  0.2250  0.6857
 2305poe    c2310371   2.567   6.889   1.026 -0.0639  0.5452  0.6567
 2305poe    c2310372   2.542   7.038   0.997  0.4873  0.4673 -0.2224
 2305poe     o210373   2.412   7.077   0.959  0.1584 -0.1599  0.2361
 2305poe    c2310374   2.395   7.217   0.953 -0.1199 -0.1796  0.5669
 2305poe    c2310375   2.259   7.256   0.892  0.0555 -1.0009 -0.3698
 2305poe     o210376   2.248   7.257   0.751  0.0226 -0.6702 -0.3656
 2305poe    c2310377   2.129   7.321   0.711  0.3433 -0.0201 -0.3008
 2305poe    c2310378   2.059   7.282   0.580 -0.1068  0.0682 -0.0873
 2305poe     o210379   2.141   7.286   0.465 -0.1538 -0.3257 -0.1340
 2305poe    c3110380   2.073   7.280   0.342 -0.2101 -0.0370 -0.1163
 2306poe    c3110381   4.282   4.183   1.889  0.3361 -0.1667 -0.1584
 2306poe     o210382   4.402   4.256   1.903  0.1764  0.0861 -0.0897
 2306poe    c2310383   4.432   4.287   2.037  0.3422  0.2260 -0.1594
 2306poe    c2310384   4.583   4.308   2.060  0.2988 -0.3107  0.6405
 2306poe     o210385   4.666   4.197   2.039  0.4716 -0.0105 -0.3102
 2306poe    c2310386   4.654   4.094   2.136 -0.1721  0.1943 -0.1670
 2306poe    c2310387   4.748   3.980   2.093 -0.0585  0.2400 -0.0398
 2306poe     o210388   4.740   3.970   1.953  0.0435 -0.0031 -0.0293
 2306poe    c2310389   4.799   3.854   1.897 -0.0089 -0.2282  0.3816
 2306poe    c2310390   4.820   3.856   1.745  0.6963  0.0765  0.4785
 2306poe     o210391   4.855   3.991   1.727 -0.2239  0.2660  0.0039
 2306poe    c3110392   4.873   4.021   1.591 -0.4727 -0.5039 -0.2034
 2307poe    c3110393   5.779   7.245   5.069  0.0772 -0.4636 -0.2596
 2307poe     o210394   5.772   7.172   4.949  0.2993 -0.3626 -0.3354
 2307poe    c2310395   5.872   7.221   4.864  0.3901  0.1781  0.0798
 2307poe    c2310396   5.883   7.173   4.718 -0.4357 -0.0649  0.0921
 2307poe     o210397   5.921   7.038   4.703 -0.2239 -0.0252  0.2528
 2307poe    c2310398   6.058   7.017   4.726 -0.1629  0.0048 -0.0760
 2307poe    c2310399   6.156   7.035   4.608  0.3297 -0.8735  0.1962
 2307poe     o210400   6.129   6.975   4.484 -0.6681  0.1230 -0.0788
 2307poe    c2310401   6.141   6.834   4.481 -0.4971  0.1429 -0.3990
 2307poe    c2310402   6.061   6.774   4.363 -0.3697 -0.6572 -0.0835
 2307poe     o210403   5.928   6.811   4.392 -0.1049  0.3134 -0.0520
 2307poe    c3110404   5.831   6.727   4.332  0.2777  0.1909 -0.5030
 2308poe    c3110405   6.304   3.191   0.333 -0.4984  0.5462  0.0362
 2308poe     o210406   6.192   3.253   0.394 -0.1282  0.3570  0.9235
 2308poe    c2310407   6.077   3.175   0.373  0.2230  0.0148  0.2212
 2308poe    c2310408   5.973   3.253   0.456 -0.2340 -0.2369 -0.1079
 2308poe     o210409   6.032   3.318   0.566 -0.1151 -0.1272 -0.2356
 2308poe    c2310410   5.940   3.347   0.668  0.3098  0.4324 -0.0052
 2308poe    c2310411   6.000   3.437   0.778  0.2144  0.3811  0.0891
 2308poe     o210412   6.084   3.538   0.727  0.5559  0.1692  0.2281
 2308poe    c2310413   6.133   3.621   0.830  0.5563  0.1155  0.2710
 2308poe    c2310414   6.257   3.700   0.783 -0.1475  0.5472 -0.8950
 2308poe     o210415   6.361   3.619   0.732 -0.1265 -0.0889  0.1178
 2308poe    c3110416   6.494   3.619   0.778 -0.0414  0.3522 -0.1168
 2309poe    c3110417   2.061   3.433   2.471  0.2215  0.0754 -0.0968
 2309poe     o210418   2.177   3.509   2.443  0.4176 -0.2646 -0.2114
 2309poe    c2310419   2.168   3.520   2.303 -0.1848  0.5577 -0.1174
 2309poe    c2310420   2.306   3.562   2.249  0.1619 -0.2775  0.1004
 2309poe     o210421   2.348   3.691   2.286  0.4486 -0.4147  0.2588
 2309poe    c2310422   2.382   3.763   2.169 -0.2709  0.2150  0.4270
 2309poe    c2310423   2.427   3.901   2.219 -0.0717  0.0886  0.5961
 2309poe     o210424   2.326   3.958   2.299  0.1455  0.2466  0.7587
 2309poe    c2310425   2.285   4.088   2.263 -0.3242 -0.0222  0.3254
 2309poe    c2310426   2.154   4.107   2.341 -0.4399  0.7500 -0.0504
 2309poe     o210427   2.186   4.078   2.476  0.3097  0.9737 -0.1758
 2309poe    c3110428   2.069   4.079   2.555  0.2239 -0.1590 -0.2706
 2310poe    c3110429   2.695   1.164   5.020 -0.1069 -0.2692 -0.8242
 2310poe     o210430   2.771   1.046   5.009  0.5980  0.1030 -0.0469
 2310poe    c2310431   2.684   0.940   4.976 -0.4127  0.9830 -0.2461
 2310poe    c2310432   2.669   0.825   5.077 -0.0123  0.7909 -0.4052
 2310poe     o210433   2.788   0.749   5.071  0.1646  0.9084  1.0565
 2310poe    c2310434   2.802   0.632   5.148  0.1321 -0.1103 -0.4365
 2310poe    c2310435   2.952   0.598   5.138  0.0362 -0.5287 -0.4513
 2310poe     o210436   3.039   0.692   5.195 -0.1887 -0.4106 -0.3020
 2310poe    c2310437   3.173   0.653   5.179 -0.1089 -0.3296  0.1387
 2310poe    c2310438   3.257   0.755   5.259  0.1466 -0.3916 -0.0486
 2310poe     o210439   3.192   0.879   5.251  0.5596 -0.1997 -0.4755
 2310poe    c3110440   3.261   0.970   5.333  0.2578  0.1609 -0.6162
 2311poe    c3110441   4.193   0.997   0.653 -0.5362 -0.5244  0.1111
 2311poe     o210442   4.240   0.966   0.524 -0.1094 -0.2210  0.1942
 2311poe    c2310443   4.241   1.084   0.448 -0.5617 -0.1895  0.2395
 2311poe    c2310444   4.255   1.076   0.295 -0.3735  0.1062  0.2405
 2311poe     o210445   4.148   1.009   0.233 -0.0678 -0.2159  0.0551
 2311poe    c2310446   4.129   1.041   0.097 -0.1085  0.7279  0.2745
 2311poe    c2310447   4.008   0.956   0.055  0.2061  0.4772 -0.1336
 2311poe     o210448   4.051   0.825   0.084 -0.3920  0.2174 -0.3879
 2311poe    c2310449   3.937   0.744   0.072 -0.0525 -0.3057 -0.1443
 2311poe    c2310450   3.963   0.603   0.127 -0.9116 -0.3270  0.2384
 2311poe     o210451   4.008   0.630   0.258 -0.5938 -0.1504  0.0941
 2311poe    c3110452   3.937   0.544   0.344 -0.4364  0.2836  0.6571
 2312poe    c3110453   0.728   1.004   4.719  0.6530 -0.4955 -0.1917
 2312poe     o210454   0.824   0.928   4.790  0.1074 -0.9051  0.1227
 2312poe    c2310455   0.903   1.014   4.870 -0.0992 -0.3848 -0.2261
 2312poe    c2310456   1.019   0.927   4.920  0.2966 -0.0272 -0.5081
 2312poe     o210457   1.144   0.967   4.868  0.3632  0.4188 -0.0162
 2312poe    c2310458   1.242   0.915   4.955  0.0475  0.4353  0.3550
 2312poe    c2310459   1.391   0.940   4.924  0.0033 -0.1296 -0.3499
 2312poe     o210460   1.449   0.862   4.822 -0.8471 -0.2115 -0.7785
 2312poe    c2310461   1.583   0.906   4.813 -0.7005 -0.5987 -0.5166
 2312poe    c2310462   1.676   0.829   4.717  0.9242  0.1162  0.4671
 2312poe     o210463   1.728   0.713   4.779  0.1134 -0.5917 -0.1640
 2312poe    c3110464   1.856   0.741   4.831 -0.1454  0.3609 -0.0137
 2313poe    c3110465   6.698   5.642   1.059  0.1698  0.8729 -0.5839
 2313poe     o210466   6.577   5.607   0.995  0.2754  0.1287 -0.3851
 2313poe    c2310467   6.594   5.500   0.904  0.2233 -0.1422 -0.0745
 2313poe    c2310468   6.451   5.454   0.870  0.1769 -0.3228  0.3489
 2313poe     o210469   6.387   5.564   0.809  0.2165 -0.3772  0.2107
 2313poe    c2310470   6.249   5.561   0.836  0.1290  0.6360 -0.0951
 2313poe    c2310471   6.176   5.655   0.737 -0.4020  0.3386  0.0136
 2313poe     o210472   6.252   5.773   0.734  0.7014 -0.3606  0.0693
 2313poe    c2310473   6.151   5.864   0.699  0.4113 -0.4954  0.5521
 2313poe    c2310474   6.228   5.996   0.683  0.4868 -0.5749  0.2549
 2313poe     o210475   6.347   5.992   0.607  0.2891 -0.3069 -0.0695
 2313poe    c3110476   6.378   6.125   0.574 -0.5904 -0.0875 -0.0394
 2314poe    c3110477   3.515   0.503   2.851  0.5481  0.1948 -0.1194
 2314poe     o210478   3.489   0.470   2.985 -0.0443 -0.9838 -0.4998
 2314poe    c2310479   3.386   0.553   3.035  0.3930 -0.7269 -0.0061
 2314poe    c2310480   3.373   0.527   3.186  0.2182  0.1492  0.1359
 2314poe     o210481   3.370   0.389   3.218  0.4964  0.1833  0.3172
 2314poe    c2310482   3.312   0.365   3.344 -0.5393 -0.0057 -0.1840
 2314poe    c2310483   3.315   0.211   3.353 -0.1001 -0.0187 -0.5176
 2314poe     o210484   3.434   0.170   3.289  0.0415  0.0042 -0.2713
 2314poe    c2310485   3.438   0.030   3.294 -0.1057  0.0397  1.0507
 2314poe    c2310486   3.566  -0.035   3.237 -0.5534  0.0850 -0.0311
 2314poe     o210487   3.583  -0.041   3.097  0.0143  0.3137  0.0250
 2314poe    c3110488   3.706  -0.108   3.076 -0.0517  0.2688 -0.2200
 2315poe    c3110489   0.580   4.190   4.818 -0.2428 -0.2798 -0.8001
 2315poe     o210490   0.445   4.230   4.826  0.0344  0.4271  0.5182
 2315poe    c2310491   0.384   4.259   4.702  0.0995  0.2652  0.4485
 2315poe    c2310492   0.257   4.343   4.723  0.1281  0.3410  0.3173
 2315poe     o210493   0.273   4.477   4.763  0.5501  0.4415 -0.1755
 2315poe    c2310494   0.293   4.562   4.652  0.3325 -0.3220 -0.8019
 2315poe    c2310495   0.292   4.716   4.655 -0.4134 -0.3337  0.6691
 2315poe     o210496   0.410   4.789   4.679 -0.2186 -0.2923 -0.3553
 2315poe    c2310497   0.411   4.915   4.615 -0.0915 -0.0772  0.0690
 2315poe    c2310498   0.516   5.017   4.664 -0.8280  0.2678  0.9606
 2315poe     o210499   0.471   5.063   4.789 -0.7257  0.3079  0.9828
 2315poe    c3110500   0.519   5.191   4.823  0.1051  0.1997  0.2462
 2316poe    c3110501   4.654   0.011   4.460  0.3680 -0.1744  0.0901
 2316poe     o210502   4.704   0.141   4.483 -0.3440  0.1240 -0.0128
 2316poe    c2310503   4.722   0.204   4.358 -0.2493 -0.0763 -0.1009
 2316poe    c2310504   4.733   0.352   4.401  0.4049 -0.2834  0.4592
 2316poe     o210505   4.810   0.368   4.518  0.0723 -0.5298  0.7128
 2316poe    c2310506   4.839   0.503   4.545  0.1238 -0.4425  0.2367
 2316poe    c2310507   4.941   0.522   4.660  0.3040  0.2217 -0.0312
 2316poe     o210508   4.889   0.442   4.764 -0.4554  0.5042 -0.1839
 2316poe    c2310509   4.902   0.502   4.891  0.2210  0.1229 -0.0681
 2316poe    c2310510   4.893   0.394   5.001  0.6264  0.3722  0.2100
 2316poe     o210511   4.785   0.305   5.018  0.6137  0.2670 -0.3763
 2316poe    c3110512   4.775   0.259   5.151  0.3240  0.1051 -0.4554
 2317poe    c3110513   4.472   0.248   3.768  0.2579 -0.1611 -0.5559
 2317poe     o210514   4.554   0.141   3.807 -0.7430 -0.5831  0.4515
 2317poe    c2310515   4.503   0.120   3.937 -0.0282 -0.3563  0.7723
 2317poe    c2310516   4.594   0.030   4.022  0.2461 -0.3218  0.5175
 2317poe     o210517   4.729   0.072   4.028  0.0472  0.4568 -0.2811
 2317poe    c2310518   4.811  -0.040   4.051 -0.7561 -0.0268  0.3060
 2317poe    c2310519   4.955  -0.012   4.003 -0.6475 -0.2169  0.5136
 2317poe     o210520   4.967   0.028   3.868  0.0455 -0.1148  0.6026
 2317poe    c2310521   5.088   0.098   3.858 -0.3955  0.5600 -0.0762
 2317poe    c2310522   5.143   0.101   3.714 -0.3155 -0.0868 -0.0612
 2317poe     o210523   5.143  -0.033   3.672 -0.3096  0.0121 -0.3843
 2317poe    c3110524   5.214  -0.069   3.555  0.0394 -0.2102 -0.1062
 2318poe    c3110525   1.861   5.237   6.386  1.0758  0.0065  0.3620
 2318poe     o210526   1.782   5.349   6.422  0.1624 -0.5658  0.1642
 2318poe    c2310527   1.668   5.289   6.478 -0.1229 -0.0492  0.1347
 2318poe    c2310528   1.560   5.397   6.504 -0.1406 -0.2466  0.9145
 2318poe     o210529   1.611   5.499   6.587 -0.0096  0.1131  0.3945
 2318poe    c2310530   1.522   5.607   6.607 -0.0231  0.1618  0.0829
 2318poe    c2310531   1.588   5.709   6.700  0.1495  0.1620 -0.0407
 2318poe     o210532   1.702   5.755   6.631 -0.2964 -0.0011 -0.8942
 2318poe    c2310533   1.778   5.827   6.725 -0.5692 -0.5663 -0.2336
 2318poe    c2310534   1.848   5.929   6.633 -0.6875 -0.1508  0.1332
 2318poe     o210535   1.909   5.858   6.528 -0.0504  0.1236  0.3143
 2318poe    c3110536   2.004   5.934   6.455  0.0492 -0.5054 -0.2260
 2319poe    c3110537   1.244   4.633   1.437  0.1954 -0.3842  0.3291
 2319poe     o210538   1.268   4.716   1.548  0.1119 -0.3189  0.2990
 2319poe    c2310539   1.398   4.767   1.531 -0.1684  0.2246 -0.2385
 2319poe    c2310540   1.471   4.829   1.652 -0.3485  0.1528 -0.0928
 2319poe     o210541   1.476   4.730   1.753 -1.1003  0.1570 -0.0487
 2319poe    c2310542   1.545   4.767   1.870 -0.1880 -0.4875 -0.3741
 2319poe    c2310543   1.609   4.643   1.935 -0.2066  0.0543  0.7062
 2319poe     o210544   1.515   4.551   1.987  0.2552 -0.3571  0.8230
 2319poe    c2310545   1.566   4.422   2.013  0.5938 -0.2766  0.5753
 2319poe    c2310546   1.464   4.319   2.065 -0.2366  0.4468  0.4035
 2319poe     o210547   1.352   4.293   1.983 -0.0595  0.3977  0.1800
 2319poe    c3110548   1.248   4.236   2.058  0.0335  0.8249  0.6340
 2320poe    c3110549   4.876   3.807   6.402 -0.6071 -0.2434 -0.3073
 2320poe     o210550   4.938   3.830   6.277  0.6487 -0.2108  0.3022
 2320poe    c2310551   4.913   3.723   6.189  0.0477  0.0324  0.1662
 2320poe    c2310552   4.799   3.755   6.091  0.0183 -0.2218  0.1157
 2320poe     o210553   4.828   3.829   5.975  0.0492 -0.0300  0.2448
 2320poe    c2310554   4.910   3.768   5.878 -0.0156  0.4414 -0.1105
 2320poe    c2310555   4.950   3.860   5.761  0.4933 -0.2572 -0.5019
 2320poe     o210556   4.850   3.873   5.663 -0.0130 -0.2694  0.0082
 2320poe    c2310557   4.727   3.934   5.699  0.0463 -0.1789  0.0578
 2320poe    c2310558   4.622   3.941   5.587 -0.0219 -0.6875  0.0892
 2320poe     o210559   4.669   4.001   5.469 -0.3518 -0.0839  0.2613
 2320poe    c3110560   4.554   4.048   5.403  0.1153  0.1026 -0.4347
 2321poe    c3110561   5.452   6.031   4.971  0.5452 -0.4607  0.8200
 2321poe     o210562   5.506   5.912   4.915 -0.3417 -0.3717 -0.2562
 2321poe    c2310563   5.618   5.945   4.836  0.0042  0.0792  0.4065
 2321poe    c2310564   5.694   5.821   4.785  0.2686  0.2314  0.4313
 2321poe     o210565   5.739   5.731   4.883 -0.0753  0.0840  0.4542
 2321poe    c2310566   5.854   5.661   4.841 -0.1676  0.0568  0.2433
 2321poe    c2310567   5.894   5.571   4.959 -0.9471  0.5052  0.8588
 2321poe     o210568   5.811   5.457   4.965 -0.2234 -0.0748 -0.0166
 2321poe    c2310569   5.850   5.371   5.070 -0.3701 -0.1011  0.0159
 2321poe    c2310570   5.762   5.246   5.088 -0.3092 -0.1536 -0.0495
 2321poe     o210571   5.642   5.284   5.151  0.0973  0.0768  0.6077
 2321poe    c3110572   5.551   5.183   5.189  0.2275 -0.3473 -0.1719
 2322poe    c3110573   7.003   0.772   6.767  0.6509  0.4949 -0.5306
 2322poe     o210574   6.894   0.791   6.855  0.2020  0.0017 -0.9724
 2322poe    c2310575   6.945   0.851   6.972 -0.1237 -0.3865 -0.6295
 2322poe    c2310576   6.855   0.810   7.090 -0.1790  0.4697 -0.3663
 2322poe     o210577   6.728   0.783   7.036 -0.4024 -0.2300  0.4865
 2322poe    c2310578   6.639   0.788   7.146 -0.3535  0.7267  0.4858
 2322poe    c2310579   6.510   0.709   7.121 -0.1008  0.5389 -0.2696
 2322poe     o210580   6.545   0.573   7.112  0.1409  0.5715  0.1416
 2322poe    c2310581   6.429   0.506   7.066  0.4126  0.2212 -0.0355
 2322poe    c2310582   6.472   0.369   7.008  0.5583 -0.1052  0.8273
 2322poe     o210583   6.560   0.388   6.900  0.2947 -0.2733  0.5839
 2322poe    c3110584   6.607   0.263   6.854 -0.4724 -0.3120 -0.1278
 2323poe    c3110585   3.539   1.221   2.768  0.1600  0.1235  0.5117
 2323poe     o210586   3.434   1.301   2.718  0.2657  0.0196  0.1243
 2323poe    c2310587   3.498   1.403   2.644 -0.2113  0.1385 -0.1309
 2323poe    c2310588   3.416   1.493   2.550 -0.4549 -0.0951 -0.1427
 2323poe     o210589   3.379   1.597   2.639 -0.1958 -0.0841 -0.0475
 2323poe    c2310590   3.331   1.702   2.558  0.2227 -0.0679 -0.2807
 2323poe    c2310591   3.300   1.834   2.632 -0.3158 -0.0568 -0.5232
 2323poe     o210592   3.405   1.905   2.693 -0.4092 -0.0270 -0.3984
 2323poe    c2310593   3.475   1.981   2.597  0.2348  0.0191  0.1036
 2323poe    c2310594   3.621   1.937   2.576  0.3525  0.4119  0.0985
 2323poe     o210595   3.697   1.912   2.692  0.6242  0.3132 -0.0998
 2323poe    c3110596   3.825   1.874   2.645  0.5271  0.0478 -0.1569
 2324poe    c3110597   6.744   0.982   0.302  0.9873  0.0773 -0.0078
 2324poe     o210598   6.719   1.100   0.374  0.1251 -0.2881  0.3066
 2324poe    c2310599   6.827   1.190   0.380  0.1735 -0.3239 -0.0099
 2324poe    c2310600   6.758   1.317   0.434  0.9512  0.0993  0.0037
 2324poe     o210601   6.701   1.310   0.563 -0.2461 -0.9350 -0.5594
 2324poe    c2310602   6.609   1.413   0.587  0.0983 -0.7484 -0.0147
 2324poe    c2310603   6.583   1.432   0.737  0.2006 -0.8509  0.0160
 2324poe     o210604   6.557   1.304   0.790  0.0698 -0.6843  0.3581
 2324poe    c2310605   6.543   1.302   0.930  0.0906  0.0373  0.3729
 2324poe    c2310606   6.550   1.153   0.966 -0.1729  0.0021  0.2773
 2324poe     o210607   6.660   1.102   0.894 -0.1382  0.2430  0.1606
 2324poe    c3110608   6.695   0.976   0.945 -0.2486  0.0371 -0.2726
 2325poe    c3110609   7.070   4.712   3.022  0.3624 -0.3315  0.0664
 2325poe     o210610   7.079   4.641   2.901 -0.0524 -0.5036  0.1340
 2325poe    c2310611   7.201   4.663   2.833 -0.0310 -0.1572  0.2815
 2325poe    c2310612   7.215   4.555   2.724  0.1803  0.3885 -0.2409
 2325poe     o210613   7.104   4.563   2.637 -0.0306 -0.2543 -0.0435
 2325poe    c2310614   7.128   4.498   2.514  0.1419  0.7061 -0.5252
 2325poe    c2310615   7.019   4.556   2.423 -0.1302  1.4176  0.2427
 2325poe     o210616   6.890   4.535   2.476 -0.2130  0.4177 -0.3324
 2325poe    c2310617   6.805   4.635   2.424  0.1624  0.8715 -0.0826
 2325poe    c2310618   6.664   4.581   2.454  0.7298 -0.4926  0.2049
 2325poe     o210619   6.657   4.536   2.588 -0.3293  0.5350  0.5160
 2325poe    c3110620   6.523   4.511   2.624 -0.3579  0.2901  0.2427
 2326poe    c3110621   0.636   4.201   5.211 -0.4422 -0.3519 -0.0871
 2326poe     o210622   0.600   4.091   5.131 -0.4318 -0.3002 -0.1634
 2326poe    c2310623   0.708   4.000   5.133 -0.1629  0.0210 -0.2160
 2326poe    c2310624   0.692   3.877   5.042 -0.1371 -0.3757  0.3135
 2326poe     o210625   0.694   3.911   4.905  0.2346 -0.0988  0.3850
 2326poe    c2310626   0.671   3.790   4.837  0.0933  0.0602  0.1510
 2326poe    c2310627   0.747   3.765   4.705  0.1943  0.3956  0.1455
 2326poe     o210628   0.874   3.707   4.723  0.0587 -0.0776 -0.3676
 2326poe    c2310629   0.864   3.568   4.739  0.1084 -0.0443 -0.0309
 2326poe    c2310630   0.975   3.483   4.674  0.3718  0.2078  0.0879
 2326poe     o210631   0.981   3.487   4.534 -0.3899  0.1775  0.0542
 2326poe    c3110632   1.062   3.586   4.475 -0.1431 -0.0525  0.0058
 2327poe    c3110633   0.275   3.208   3.384 -0.2466 -0.6385 -0.8255
 2327poe     o210634   0.140   3.249   3.382  0.0815  0.4613 -0.5850
 2327poe    c2310635   0.099   3.367   3.447 -0.9497  0.1770 -0.6915
 2327poe    c2310636  -0.044   3.379   3.501 -0.6302  0.1767  0.1734
 2327poe     o210637  -0.142   3.413   3.406 -0.1969 -0.4911 -0.5261
 2327poe    c2310638  -0.258   3.397   3.485 -0.0901  0.1080 -0.2422
 2327poe    c2310639  -0.372   3.399   3.382 -0.2173  0.6699 -0.0957
 2327poe     o210640  -0.346   3.300   3.285 -0.2096  0.3121  0.2701
 2327poe    c2310641  -0.445   3.268   3.190  0.3327 -0.2622 -0.1090
 2327poe    c2310642  -0.361   3.178   3.098  0.6207 -0.5135  0.3916
 2327poe     o210643  -0.264   3.259   3.035  0.1600 -0.2967 -0.0514
 2327poe    c3110644  -0.224   3.206   2.911 -0.0585 -0.3600 -0.0954
 2328poe    c3110645   0.067   6.434   2.913 -0.2564 -0.3342 -0.0366
 2328poe     o210646   0.006   6.318   2.964 -0.4624 -0.1472  0.1392
 2328poe    c2310647   0.054   6.198   2.910 -0.7960 -0.1047 -0.2528
 2328poe    c2310648  -0.041   6.081   2.944 -0.1257 -0.6843 -0.3292
 2328poe     o210649  -0.140   6.063   2.845 -0.3771  0.3037 -0.2772
 2328poe    c2310650  -0.188   5.935   2.882  0.1477  0.0200 -0.5615
 2328poe    c2310651  -0.261   5.879   2.759 -0.5353 -0.3585  0.0079
 2328poe     o210652  -0.343   5.979   2.703 -0.2644 -0.0109  0.2258
 2328poe    c2310653  -0.456   5.925   2.639  0.1858 -0.3344 -0.3167
 2328poe    c2310654  -0.523   6.054   2.587  0.5546  0.2679  0.6675
 2328poe     o210655  -0.420   6.134   2.534  0.2875  0.2870  0.1729
 2328poe    c3110656  -0.454   6.158   2.399 -0.3874 -0.6647  0.1630
 2329poe    c3110657   2.475   1.080   6.459  0.5104  0.5019 -0.1587
 2329poe     o210658   2.569   0.976   6.471  0.0142  0.0119 -0.4597
 2329poe    c2310659   2.669   1.002   6.566 -0.3180 -0.0314 -0.0982
 2329poe    c2310660   2.786   0.901   6.564 -0.1277  0.1835  0.0812
 2329poe     o210661   2.859   0.888   6.444 -0.3148  0.2391 -0.0396
 2329poe    c2310662   2.937   0.772   6.452 -0.5810  0.0536 -0.1222
 2329poe    c2310663   3.014   0.750   6.320  0.0656 -0.0358  0.2642
 2329poe     o210664   2.919   0.745   6.216  0.0508 -0.0556  0.2788
 2329poe    c2310665   2.959   0.706   6.087 -0.3333 -0.4333  0.2713
 2329poe    c2310666   2.849   0.736   5.983 -0.0727 -0.5224 -0.0343
 2329poe     o210667   2.783   0.860   5.998 -0.3646 -0.6320 -0.3970
 2329poe    c3110668   2.704   0.870   5.882 -0.0392  0.1104 -0.5613
 2330poe    c3110669   5.990   4.062   0.479 -0.0216 -0.5050 -0.5102
 2330poe     o210670   6.106   4.094   0.405  0.1303  0.1144 -0.0155
 2330poe    c2310671   6.077   4.208   0.327 -0.2955 -0.5142 -0.7949
 2330poe    c2310672   6.173   4.216   0.207  0.3842 -0.4345 -0.2541
 2330poe     o210673   6.124   4.129   0.107 -0.3661  0.2609 -0.4980
 2330poe    c2310674   6.198   4.151  -0.011  0.3665  0.4728 -0.0040
 2330poe    c2310675   6.152   4.056  -0.123  0.3121  0.1701  0.2750
 2330poe     o210676   6.167   3.923  -0.080 -0.1160  0.1950  0.5113
 2330poe    c2310677   6.141   3.832  -0.185 -0.5508  0.1995  0.6145
 2330poe    c2310678   6.166   3.693  -0.125  0.0923  0.2250  0.4083
 2330poe     o210679   6.150   3.711   0.014 -0.3180  0.7435  0.2947
 2330poe    c3110680   6.119   3.584   0.065 -0.7312  0.8601  0.3333
 2331poe    c3110681   1.795   2.848   2.020 -0.1032 -0.5859  0.2124
 2331poe     o210682   1.672   2.798   1.974 -0.3825  0.2065  0.0903
 2331poe    c2310683   1.588   2.904   1.934 -0.1404  0.5161  0.3949
 2331poe    c2310684   1.558   2.909   1.783 -0.1999 -0.0351  0.3874
 2331poe     o210685   1.505   2.785   1.739 -0.0257 -0.0676  0.2694
 2331poe    c2310686   1.498   2.776   1.599 -0.2944  0.6918  0.2273
 2331poe    c2310687   1.618   2.739   1.509 -0.5254 -0.0621  0.2213
 2331poe     o210688   1.676   2.618   1.552  0.3372  0.2093 -0.1491
 2331poe    c2310689   1.815   2.610   1.570  0.3139 -0.0982 -0.0920
 2331poe    c2310690   1.831   2.458   1.590  0.1482 -0.1248 -0.1585
 2331poe     o210691   1.787   2.408   1.714 -0.1713 -0.3087 -0.3475
 2331poe    c3110692   1.849   2.284   1.738 -0.3492 -0.2355  0.5269
 2332poe    c3110693   4.524   2.365   3.751  0.0551  0.2522  0.8372
 2332poe     o210694   4.457   2.243   3.776  0.0094  0.0890 -0.0503
 2332poe    c2310695   4.555   2.146   3.806 -0.1439 -0.0649 -0.0463
 2332poe    c2310696   4.498   2.051   3.913  0.1141 -0.2650 -0.0848
 2332poe     o210697   4.376   1.993   3.874 -0.1067  0.3319 -0.2966
 2332poe    c2310698   4.324   1.909   3.974 -0.2664  0.8191  0.0340
 2332poe    c2310699   4.170   1.915   3.975 -0.3021  0.0377  0.1152
 2332poe     o210700   4.104   2.038   3.990  0.0399  0.2507 -0.1037
 2332poe    c2310701   4.087   2.071   4.126  0.4979  0.5014 -0.1038
 2332poe    c2310702   3.996   2.195   4.131  0.0582  0.1731  0.1632
 2332poe     o210703   4.062   2.303   4.069 -0.3921  0.4164  0.0963
 2332poe    c3110704   4.132   2.385   4.160  0.3840 -0.3897  0.2425
 2333poe    c3110705   6.536   2.484   5.980 -0.2710 -0.0898  0.4028
 2333poe     o210706   6.537   2.376   6.071 -0.5179 -0.1638  0.3176
 2333poe    c2310707   6.458   2.275   6.013 -0.3297 -0.1906  0.1056
 2333poe    c2310708   6.424   2.184   6.133 -0.0232 -0.0241  0.3197
 2333poe     o210709   6.546   2.172   6.202  0.3235  0.2573 -0.2348
 2333poe    c2310710   6.545   2.066   6.295  0.1925 -0.1740 -0.7233
 2333poe    c2310711   6.681   2.059   6.366  0.1607  0.1664 -0.6277
 2333poe     o210712   6.697   2.141   6.480 -0.0482 -0.4949 -0.1168
 2333poe    c2310713   6.831   2.133   6.523 -0.1283 -0.0680  0.2183
 2333poe    c2310714   6.855   2.215   6.651  0.2200  0.1161  0.0354
 2333poe     o210715   6.876   2.350   6.615  0.0609  0.0027 -0.4855
 2333poe    c3110716   6.926   2.418   6.727 -0.0090 -0.1460 -0.3643
 2334poe    c3110717   4.054   6.858   2.991  0.1684 -0.2556 -0.0398
 2334poe     o210718   4.195   6.868   2.991  0.1143  0.6536  0.4887
 2334poe    c2310719   4.228   6.966   2.895  0.1647  0.0539 -0.1075
 2334poe    c2310720   4.379   6.992   2.884  0.1756 -0.0449 -0.1966
 2334poe     o210721   4.459   6.880   2.913  0.7868  0.4807  0.1620
 2334poe    c2310722   4.503   6.816   2.795 -0.3063  0.0204 -0.0065
 2334poe    c2310723   4.577   6.682   2.806  0.1954  0.3184  0.2926
 2334poe     o210724   4.488   6.593   2.869 -0.2908  0.2033 -0.5381
 2334poe    c2310725   4.535   6.461   2.857  0.1638  0.3108 -0.0074
 2334poe    c2310726   4.425   6.360   2.896  0.2614  0.0782 -0.3336
 2334poe     o210727   4.355   6.384   3.015 -0.0175 -0.3095 -0.4179
 2334poe    c3110728   4.221   6.348   2.988 -0.1225  0.4080 -0.8581
 2335poe    c3110729   1.773   0.692   6.539  0.5700  0.3334 -0.3576
 2335poe     o210730   1.748   0.562   6.587  0.2218  0.4409 -0.2453
 2335poe    c2310731   1.873   0.510   6.626 -0.1056  0.3960  0.7827
 2335poe    c2310732   1.854   0.363   6.668 -0.2984  0.1761 -0.0492
 2335poe     o210733   1.759   0.361   6.772 -0.2010  0.4387  0.0454
 2335poe    c2310734   1.744   0.230   6.821 -0.0677  0.4173  0.0300
 2335poe    c2310735   1.630   0.231   6.925 -0.0872  0.4222  0.0089
 2335poe     o210736   1.501   0.249   6.873 -0.0433 -0.2958 -0.3664
 2335poe    c2310737   1.407   0.205   6.969 -0.1485  0.5501 -0.0757
 2335poe    c2310738   1.267   0.181   6.911 -0.1333  0.4987 -0.0912
 2335poe     o210739   1.201   0.303   6.884 -0.6013  0.3317  0.2743
 2335poe    c3110740   1.088   0.285   6.802 -0.1225  0.2156 -0.3628
 2336poe    c3110741   2.401   0.198   1.445 -0.5667  0.5871 -0.0854
 2336poe     o210742   2.362   0.093   1.360 -0.0248  0.4392 -0.1552
 2336poe    c2310743   2.223   0.104   1.344 -0.3674 -0.6501  1.8299
 2336poe    c2310744   2.162  -0.025   1.286  0.5271 -0.3263  0.1179
 2336poe     o210745   2.180  -0.119   1.390  0.1845 -0.0849  0.3961
 2336poe    c2310746   2.088  -0.225   1.376 -0.4560  0.5306 -0.1465
 2336poe    c2310747   2.097  -0.338   1.480  0.2235 -0.1675 -0.9471
 2336poe     o210748   2.230  -0.374   1.509  0.0332 -0.0026  0.1693
 2336poe    c2310749   2.237  -0.480   1.602 -0.3166 -0.5479 -0.4158
 2336poe    c2310750   2.382  -0.529   1.620 -0.1870  0.1673  0.5888
 2336poe     o210751   2.465  -0.423   1.661  0.5563 -0.0152 -0.3892
 2336poe    c3110752   2.487  -0.423   1.800 -0.2787 -0.3260 -0.2513
 2337poe    c3110753   6.100   2.608   6.365  0.1361 -0.2041  0.1412
 2337poe     o210754   6.060   2.478   6.402 -0.2611 -0.0062  0.4045
 2337poe    c2310755   6.177   2.403   6.378 -0.1551  0.1358  0.4742
 2337poe    c2310756   6.154   2.257   6.420  0.1413 -0.0893 -0.1446
 2337poe     o210757   6.042   2.188   6.368  0.1883 -0.3468  0.0981
 2337poe    c2310758   6.037   2.156   6.231  0.4603 -0.2889  0.0734
 2337poe    c2310759   5.980   2.263   6.135 -0.1164 -0.2509  0.4508
 2337poe     o210760   5.851   2.277   6.190 -0.0963 -0.1669  0.4748
 2337poe    c2310761   5.768   2.363   6.114 -0.3083 -0.2089  0.6582
 2337poe    c2310762   5.626   2.365   6.172 -0.6904  1.0930 -0.2803
 2337poe     o210763   5.624   2.418   6.303 -0.0320 -0.0278  0.1985
 2337poe    c3110764   5.595   2.556   6.307  0.3033  0.0630 -0.3146
 2338poe    c3110765   6.338   6.619   4.720 -0.4974 -0.0084 -0.1199
 2338poe     o210766   6.379   6.541   4.610 -0.1073  0.3709 -0.2451
 2338poe    c2310767   6.298   6.427   4.597 -0.3871  0.5387  0.0164
 2338poe    c2310768   6.292   6.356   4.460 -0.8210  0.0564  0.2780
 2338poe     o210769   6.245   6.430   4.349 -0.1013 -0.3763 -0.3264
 2338poe    c2310770   6.318   6.401   4.232  0.0042 -0.0464 -0.3414
 2338poe    c2310771   6.250   6.460   4.107  0.2137  0.4244 -0.2360
 2338poe     o210772   6.123   6.405   4.078  0.3102 -0.1187  0.3420
 2338poe    c2310773   6.036   6.492   4.008  0.4315 -0.4180 -0.1901
 2338poe    c2310774   5.888   6.450   4.001  0.4059 -0.3332 -0.1488
 2338poe     o210775   5.804   6.469   4.112  0.3663 -0.5808 -0.1344
 2338poe    c3110776   5.686   6.392   4.109  0.1784 -0.3391  0.6982
 2339poe    c3110777   7.106   5.843   5.793  0.1129  0.3793 -0.4620
 2339poe     o210778   6.987   5.826   5.720  0.1334 -0.1667 -0.3726
 2339poe    c2310779   6.868   5.815   5.795  0.0587  0.2093 -0.4337
 2339poe    c2310780   6.780   5.934   5.750 -0.7352  0.0047  0.5406
 2339poe     o210781   6.775   6.043   5.840 -0.0856  0.3881  0.1231
 2339poe    c2310782   6.680   6.140   5.802 -0.2475  0.2454  0.1609
 2339poe    c2310783   6.663   6.246   5.912 -0.2240  0.6825 -0.2540
 2339poe     o210784   6.779   6.323   5.936 -0.0608  0.3581  0.0139
 2339poe    c2310785   6.732   6.445   5.990 -0.8351 -0.0792  0.3359
 2339poe    c2310786   6.805   6.570   5.940 -0.1893 -0.2224  0.9035
 2339poe     o210787   6.939   6.598   5.975  0.0533  0.0949 -0.2317
 2339poe    c3110788   7.032   6.516   5.908 -0.2053  0.1717 -0.6882
 2340poe    c3110789   2.618   3.718   1.535  0.2710 -0.1635 -0.5923
 2340poe     o210790   2.731   3.723   1.619  0.1670 -0.8136 -0.4056
 2340poe    c2310791   2.796   3.845   1.591  0.0229 -0.7452 -0.4430
 2340poe    c2310792   2.907   3.889   1.689 -0.1051 -0.1831 -0.5446
 2340poe     o210793   3.029   3.825   1.660  0.3813  0.5981 -0.2487
 2340poe    c2310794   3.066   3.730   1.758 -0.4426  0.5539  0.0233
 2340poe    c2310795   3.124   3.604   1.690 -0.5363  0.4418  0.1494
 2340poe     o210796   3.232   3.631   1.603 -0.5905  0.1147 -0.0222
 2340poe    c2310797   3.302   3.509   1.593  0.5960  0.7761 -0.0167
 2340poe    c2310798   3.438   3.514   1.520  0.1091 -0.2578 -1.0333
 2340poe     o210799   3.547   3.571   1.588 -0.0488  0.0018 -0.9936
 2340poe    c3110800   3.609   3.472   1.667  0.3433  0.7709 -0.3235
 2341poe    c3110801   4.850   1.918   5.750 -0.3960  0.2716 -0.3300
 2341poe     o210802   4.841   1.891   5.612  0.1737  0.2642 -0.3686
 2341poe    c2310803   4.706   1.864   5.582  0.0792 -0.0188  0.2965
 2341poe    c2310804   4.685   1.823   5.435 -0.5327 -0.4218  0.4919
 2341poe     o210805   4.746   1.700   5.400  0.4888  0.2011  0.0508
 2341poe    c2310806   4.694   1.586   5.463  1.0249 -0.0973 -0.0440
 2341poe    c2310807   4.756   1.484   5.366  0.1736 -0.1544 -0.5376
 2341poe     o210808   4.700   1.493   5.237 -0.3912 -0.1931 -0.2997
 2341poe    c2310809   4.773   1.404   5.156  0.5472  0.3315 -0.0465
 2341poe    c2310810   4.700   1.373   5.024 -0.0178  0.3449  0.2588
 2341poe     o210811   4.673   1.495   4.958  0.3319  0.2972  0.0254
 2341poe    c3110812   4.600   1.471   4.839  0.3221  0.1909  0.0520
 2342poe    c3110813   5.215   6.378   1.184  0.0745  0.3664 -0.2803
 2342poe     o210814   5.178   6.252   1.134 -0.1414  0.2059  0.2692
 2342poe    c2310815   5.284   6.209   1.051 -0.4974  0.4221 -0.3026
 2342poe    c2310816   5.304   6.057   1.069  0.3814  0.5230 -0.3813
 2342poe     o210817   5.358   6.024   1.195  0.0892 -0.0858 -0.4143
 2342poe    c2310818   5.392   5.887   1.204 -0.6364 -0.2181  0.4881
 2342poe    c2310819   5.419   5.844   1.349 -0.1540 -0.6633  0.2676
 2342poe     o210820   5.291   5.818   1.402 -0.4411 -0.2292 -0.1957
 2342poe    c2310821   5.299   5.687   1.456 -0.2073 -0.2942 -0.3839
 2342poe    c2310822   5.202   5.672   1.575  0.1915  0.4617  0.0450
 2342poe     o210823   5.081   5.734   1.538  0.0635  0.1032 -0.1449
 2342poe    c3110824   5.011   5.768   1.656 -0.2113 -0.2646 -0.1990
 2343poe    c3110825   3.669   5.821   0.950  0.2884 -0.3806 -0.6624
 2343poe     o210826   3.597   5.831   0.830  0.6003 -0.4624 -0.8567
 2343poe    c2310827   3.605   5.961   0.774 -0.2689  0.0979  0.2764
 2343poe    c2310828   3.515   5.988   0.653 -0.2565 -0.8416  0.0438
 2343poe     o210829   3.377   5.983   0.678 -0.2089 -0.2002  0.4792
 2343poe    c2310830   3.314   6.045   0.568  0.3532  0.3480  0.4626
 2343poe    c2310831   3.164   6.014   0.585  0.3707  0.2682  0.4723
 2343poe     o210832   3.171   5.878   0.623  0.6757 -0.0018 -0.5088
 2343poe    c2310833   3.043   5.821   0.611  0.5851 -0.0222  0.4266
 2343poe    c2310834   3.035   5.687   0.686 -0.3559 -0.1651  0.0875
 2343poe     o210835   3.115   5.714   0.799  0.7632 -0.2294 -0.6719
 2343poe    c3110836   3.060   5.655   0.914  0.1386  0.2002 -0.7465
 2344poe    c3110837   2.626   1.068   3.267  0.0073 -0.3913  0.4118
 2344poe     o210838   2.608   1.191   3.335 -0.2071  0.2452 -0.7687
 2344poe    c2310839   2.473   1.230   3.341 -0.3174 -0.2345 -0.0078
 2344poe    c2310840   2.472   1.366   3.413  0.9907 -0.0977 -0.2171
 2344poe     o210841   2.486   1.347   3.552  0.0013  0.3370 -0.0471
 2344poe    c2310842   2.475   1.478   3.605 -0.4967  0.3636 -0.2122
 2344poe    c2310843   2.492   1.498   3.757  0.5141  0.1411 -0.2874
 2344poe     o210844   2.622   1.505   3.811  0.3064  0.7440  0.1435
 2344poe    c2310845   2.628   1.578   3.931 -0.1438  0.3077  0.4344
 2344poe    c2310846   2.600   1.505   4.064 -0.2266 -0.8417 -0.2037
 2344poe     o210847   2.679   1.398   4.110  0.3914 -0.1681  0.3148
 2344poe    c3110848   2.682   1.360   4.246  1.0478 -0.6607  0.1711
 2345poe    c3110849   6.708   4.817   4.553 -0.1108  0.4092  1.0251
 2345poe     o210850   6.593   4.819   4.472  0.8399  0.4019 -0.3569
 2345poe    c2310851   6.589   4.702   4.393 -0.7188  0.1373  0.0721
 2345poe    c2310852   6.472   4.610   4.434  0.0350 -0.7871  0.1954
 2345poe     o210853   6.354   4.629   4.360  0.2253  0.4734  0.1836
 2345poe    c2310854   6.337   4.563   4.236  0.5361  1.0569 -0.1746
 2345poe    c2310855   6.197   4.588   4.178 -0.0047  0.4954  0.8550
 2345poe     o210856   6.179   4.726   4.157  0.3112  0.3567 -0.4087
 2345poe    c2310857   6.042   4.758   4.164  0.1230 -0.5163 -0.0491
 2345poe    c2310858   5.995   4.851   4.278  0.0006 -0.8107  0.1437
 2345poe     o210859   6.027   4.819   4.411 -0.4658 -0.1471  0.4190
 2345poe    c3110860   6.157   4.868   4.436 -0.5346  0.4633 -0.3960
 2346poe    c3110861   3.736   0.497   6.486  0.0760  0.0415 -0.7268
 2346poe     o210862   3.835   0.533   6.580 -0.5272 -0.3000  0.0528
 2346poe    c2310863   3.808   0.659   6.638  0.1981  0.0703 -0.3957
 2346poe    c2310864   3.929   0.702   6.722 -0.1264  0.4190 -0.1030
 2346poe     o210865   3.956   0.602   6.818 -0.1018  0.4575 -0.0695
 2346poe    c2310866   4.039   0.647   6.923  0.3600  0.1550 -0.3027
 2346poe    c2310867   4.058   0.539   7.031  0.5500  0.5181  0.0274
 2346poe     o210868   4.082   0.417   6.964 -0.1722  0.4178 -0.0566
 2346poe    c2310869   4.092   0.310   7.055  0.8434  0.3974 -0.1756
 2346poe    c2310870   4.135   0.179   6.985 -0.1451 -0.3145  0.5186
 2346poe     o210871   4.021   0.153   6.906 -0.1313 -0.1853  0.4552
 2346poe    c3110872   4.042   0.053   6.808 -0.4099  0.2263 -0.0285
 2347poe    c3110873   3.251   2.839   5.073 -0.3051  0.0204  0.2569
 2347poe     o210874   3.281   2.704   5.049 -0.4999 -0.0251  0.2629
 2347poe    c2310875   3.416   2.666   5.062 -0.5242 -0.3359 -0.3269
 2347poe    c2310876   3.442   2.515   5.085 -0.0152 -0.1851  0.1147
 2347poe     o210877   3.577   2.477   5.097  0.2096  0.5207 -0.0800
 2347poe    c2310878   3.587   2.349   5.157  0.5814  0.5305 -0.1177
 2347poe    c2310879   3.673   2.251   5.075 -0.1157 -0.0332 -0.1872
 2347poe     o210880   3.809   2.261   5.112 -0.1304 -0.3241 -0.0511
 2347poe    c2310881   3.881   2.182   5.021  0.0639 -0.0753 -0.1134
 2347poe    c2310882   4.016   2.153   5.090  0.0295  0.1200  0.0375
 2347poe     o210883   3.994   2.085   5.211  0.4872 -0.1328 -0.0181
 2347poe    c3110884   4.124   2.060   5.258  0.4198  0.2357  0.3679
 2348poe    c3110885   0.296   3.179   6.733 -0.0940 -0.4524  0.6224
 2348poe     o210886   0.181   3.122   6.674 -0.0421 -0.0270  0.1075
 2348poe    c2310887   0.082   3.082   6.766 -0.5683  0.1581 -0.3691
 2348poe    c2310888  -0.025   3.025   6.670 -0.8572 -0.2207  0.1750
 2348poe     o210889   0.029   2.919   6.594 -0.1098  0.0324  0.3396
 2348poe    c2310890  -0.073   2.872   6.508 -0.4506 -0.1107  0.8161
 2348poe    c2310891  -0.003   2.790   6.398  0.2140  0.3769  0.8668
 2348poe     o210892   0.095   2.874   6.341 -0.1579 -0.0720 -0.4740
 2348poe    c2310893   0.155   2.851   6.216  0.5112  0.1078 -0.1893
 2348poe    c2310894   0.087   2.932   6.104  0.2317 -0.3644 -0.3602
 2348poe     o210895   0.062   3.067   6.138  0.5319 -0.1510 -0.9879
 2348poe    c3110896   0.049   3.155   6.029  0.0816  0.7056 -0.2475
 2349poe    c3110897   5.926   1.537   5.441 -0.2100 -0.1708 -0.1548
 2349poe     o210898   6.009   1.425   5.421  0.0006 -0.0507  0.0491
 2349poe    c2310899   6.059   1.414   5.289 -0.6303  0.0204 -0.1985
 2349poe    c2310900   6.090   1.266   5.258 -0.1945 -0.0299  0.4504
 2349poe     o210901   6.175   1.203   5.351  0.5863 -0.0893 -0.2968
 2349poe    c2310902   6.196   1.066   5.328  0.2759 -0.2061  0.1066
 2349poe    c2310903   6.314   1.020   5.416  0.3549 -0.1735  0.0181
 2349poe     o210904   6.301   1.086   5.540 -0.8011 -0.1460 -0.1080
 2349poe    c2310905   6.393   1.032   5.633 -0.7140  0.4337  0.1480
 2349poe    c2310906   6.358   1.068   5.778 -0.5135  0.2542  0.2416
 2349poe     o210907   6.373   1.208   5.778 -0.8625  0.2939 -0.1683
 2349poe    c3110908   6.374   1.249   5.912 -0.3995  0.4490 -0.2159
 2350poe    c3110909   4.653   4.745   0.028  0.5750  0.3227 -0.8427
 2350poe     o210910   4.728   4.672   0.121  0.0849  0.5629 -0.2528
 2350poe    c2310911   4.867   4.665   0.095  0.1410 -0.0319  0.1701
 2350poe    c2310912   4.970   4.628   0.204  0.4141  0.4170  0.0686
 2350poe     o210913   4.976   4.734   0.296 -0.2474  0.0493  0.5422
 2350poe    c2310914   5.106   4.748   0.349 -0.0672  0.6743 -0.0668
 2350poe    c2310915   5.198   4.851   0.279  0.2583  0.3387 -0.1345
 2350poe     o210916   5.232   4.796   0.154 -0.1039  0.1564 -0.1552
 2350poe    c2310917   5.272   4.902   0.070 -0.1008  0.0560 -0.2810
 2350poe    c2310918   5.371   4.853  -0.038  0.3969  0.1943  0.1097
 2350poe     o210919   5.496   4.808   0.011  0.3229  0.0964  0.2086
 2350poe    c3110920   5.571   4.750  -0.094 -0.3623  0.2838 -0.3938
 2351poe    c3110921   5.221   2.561   5.327  0.3250  0.3245  0.0837
 2351poe     o210922   5.201   2.506   5.198 -0.3594  0.5011  0.1102
 2351poe    c2310923   5.086   2.558   5.135 -0.1704  0.8119  0.0176
 2351poe    c2310924   5.135   2.546   4.990 -0.0536 -0.1374  0.1292
 2351poe     o210925   5.159   2.407   4.976 -0.6213 -0.2265 -0.0059
 2351poe    c2310926   5.214   2.370   4.851  0.4739 -0.0806  0.4174
 2351poe    c2310927   5.217   2.218   4.825  0.1562  0.0020 -0.1153
 2351poe     o210928   5.296   2.170   4.931 -0.8139 -0.3567  0.4557
 2351poe    c2310929   5.292   2.029   4.938  0.3254 -0.4202  0.0297
 2351poe    c2310930   5.432   1.970   4.964  0.5590 -0.0082 -0.2908
 2351poe     o210931   5.492   2.005   5.087  0.0053 -0.1112  0.0077
 2351poe    c3110932   5.629   1.974   5.072  0.0748 -0.0463  0.4776
 2352poe    c3110933   4.152   2.125   1.620 -0.2107  0.0863  1.1360
 2352poe     o210934   4.041   2.040   1.603  0.3783 -0.4500 -0.1903
 2352poe    c2310935   4.047   1.941   1.704  0.2481 -0.0367  0.2257
 2352poe    c2310936   3.962   1.817   1.673  0.4513 -0.0141 -0.4488
 2352poe     o210937   3.824   1.844   1.670  0.4351  0.0898  0.6127
 2352poe    c2310938   3.765   1.802   1.791 -0.1561  0.9569  0.6360
 2352poe    c2310939   3.612   1.791   1.777 -0.0145 -0.2649 -0.1096
 2352poe     o210940   3.575   1.919   1.732  0.0576 -0.0401  0.4573
 2352poe    c2310941   3.434   1.929   1.740 -0.0017 -0.3696 -0.0928
 2352poe    c2310942   3.406   2.073   1.696 -0.7530 -0.6601 -0.5810
 2352poe     o210943   3.489   2.102   1.585  0.2772 -0.2964  0.2705
 2352poe    c3110944   3.454   2.225   1.526  0.5447 -0.2693  0.1686
 2353poe    c3110945   6.337   6.990   0.872  0.5282  0.0736 -0.9236
 2353poe     o210946   6.267   7.091   0.804  0.2216  0.1991 -0.4217
 2353poe    c2310947   6.347   7.184   0.735  0.1701  0.2359 -0.4320
 2353poe    c2310948   6.270   7.305   0.679  0.0399  0.2223 -0.2836
 2353poe     o210949   6.242   7.274   0.544 -0.1742 -0.2995 -0.1223
 2353poe    c2310950   6.210   7.400   0.489 -0.0472 -0.1807  0.0729
 2353poe    c2310951   6.229   7.406   0.336 -0.1453  0.4052  0.0821
 2353poe     o210952   6.127   7.327   0.280  0.3143 -0.1594  0.0356
 2353poe    c2310953   6.115   7.368   0.145 -0.1366 -0.4094 -0.0031
 2353poe    c2310954   6.022   7.282   0.058 -0.1186 -0.6465  0.2099
 2353poe     o210955   5.889   7.261   0.099 -0.1112 -0.2030  0.4638
 2353poe    c3110956   5.789   7.339   0.038  0.2771  0.5464  0.7789
 2354poe    c3110957   3.118   4.269   2.025  0.3455  0.5475  0.2070
 2354poe     o210958   3.085   4.223   2.154  0.4893 -0.1340  0.0085
 2354poe    c2310959   3.168   4.297   2.241  0.1502 -0.0738  0.2846
 2354poe    c2310960   3.107   4.298   2.382 -0.6471 -0.0363 -0.0535
 2354poe     o210961   3.078   4.161   2.397 -0.8408  0.0059 -0.0477
 2354poe    c2310962   3.025   4.133   2.525 -0.1960  0.2438  0.2747
 2354poe    c2310963   2.993   3.983   2.541  0.5360 -0.0191 -0.6195
 2354poe     o210964   2.874   3.949   2.473 -0.1561  0.3402  0.3946
 2354poe    c2310965   2.852   3.809   2.468 -0.3342  0.3785  0.0983
 2354poe    c2310966   2.709   3.764   2.434 -0.2411  0.5138 -0.4812
 2354poe     o210967   2.610   3.793   2.530  0.1905  0.3014  0.0251
 2354poe    c3110968   2.609   3.686   2.622  0.1905 -0.4241 -0.8059
 2355poe    c3110969   0.591   0.327   1.754  0.1875  0.3361  0.1327
 2355poe     o210970   0.489   0.392   1.681  0.0680  0.2220  0.1984
 2355poe    c2310971   0.462   0.318   1.565  0.1289  0.3045  0.1307
 2355poe    c2310972   0.362   0.392   1.474  0.5958 -0.1370 -0.7576
 2355poe     o210973   0.390   0.528   1.455  0.2788 -0.0105 -0.3461
 2355poe    c2310974   0.325   0.588   1.345 -0.6363 -0.6629 -0.1671
 2355poe    c2310975   0.345   0.735   1.387 -1.1752 -0.5530 -0.2795
 2355poe     o210976   0.300   0.748   1.520 -0.0269 -0.3422  0.1050
 2355poe    c2310977   0.257   0.882   1.537 -0.6538 -0.4024 -0.8938
 2355poe    c2310978   0.204   0.913   1.678 -0.0602  0.1011 -0.7748
 2355poe     o210979   0.086   0.837   1.694  0.3149 -0.3746 -0.2653
 2355poe    c3110980   0.066   0.831   1.834  0.3698  0.6185 -0.2135
 2356poe    c3110981   5.461   1.002   0.283  0.4820 -0.0063  0.4080
 2356poe     o210982   5.537   1.077   0.191 -0.2148  0.4053  0.1640
 2356poe    c2310983   5.491   1.076   0.058  0.0148 -0.6181  0.0825
 2356poe    c2310984   5.586   1.134  -0.048 -0.1533  0.5330  0.5490
 2356poe     o210985   5.620   1.266  -0.012  0.0506  0.5946  0.1404
 2356poe    c2310986   5.744   1.313  -0.061 -0.0845  0.6742 -0.1327
 2356poe    c2310987   5.781   1.454  -0.013  0.3927  0.6198 -0.3334
 2356poe     o210988   5.753   1.452   0.126  0.2573  0.0020 -0.3668
 2356poe    c2310989   5.777   1.583   0.172 -0.1225 -0.0518 -0.0161
 2356poe    c2310990   5.718   1.608   0.312  0.0745 -0.1808  0.0907
 2356poe     o210991   5.581   1.637   0.296  0.0232 -0.5984 -0.2194
 2356poe    c3110992   5.527   1.676   0.420 -0.5111 -0.1915 -0.5794
 2357poe    c3110993   3.520   6.980   6.952 -0.3894  0.1969  0.2965
 2357poe     o210994   3.428   6.943   6.852  0.0037  0.1109 -0.0399
 2357poe    c2310995   3.322   7.032   6.827 -0.2265 -0.1176  0.1079
 2357poe    c2310996   3.195   6.959   6.779 -0.1587  0.0986 -0.4079
 2357poe     o210997   3.242   6.888   6.667  0.5080 -0.6123  0.3147
 2357poe    c2310998   3.140   6.814   6.604  0.5965 -0.4401 -0.0290
 2357poe    c2310999   3.179   6.733   6.478 -0.2719 -0.4352 -0.3081
 2357poe     o211000   3.271   6.633   6.515 -0.0892 -0.3518 -0.5431
 2357poe    c2311001   3.339   6.585   6.401  0.6290 -0.0528 -0.2526
 2357poe    c2311002   3.366   6.438   6.438  0.2493 -0.1871 -0.4981
 2357poe     o211003   3.251   6.365   6.473  0.3846 -0.1331  0.0645
 2357poe    c3111004   3.242   6.309   6.603  0.7914 -0.1272  0.0985
 2358poe    c3111005   5.455   0.787   4.714 -1.2313  0.1451 -0.0990
 2358poe     o211006   5.454   0.928   4.710  0.3504  0.1591 -0.7613
 2358poe    c2311007   5.487   0.989   4.587 -0.2687  0.6528 -0.6826
 2358poe    c2311008   5.397   0.951   4.468  0.0834 -0.0239 -0.7316
 2358poe     o211009   5.275   1.021   4.470  0.1020 -0.0133  0.3127
 2358poe    c2311010   5.202   1.009   4.350 -0.2900 -0.0441  0.5538
 2358poe    c2311011   5.077   1.098   4.335 -0.5226 -0.5434 -0.5368
 2358poe     o211012   4.984   1.119   4.439  0.2242  0.1512  0.0060
 2358poe    c2311013   5.015   1.197   4.552  0.2470  0.1845 -0.0227
 2358poe    c2311014   4.982   1.347   4.540  0.0154  0.1220 -0.1565
 2358poe     o211015   4.846   1.380   4.560 -0.1817 -0.6600 -0.1459
 2358poe    c3111016   4.844   1.515   4.519  0.0543 -0.7673 -0.5156
 2359poe    c3111017   5.453   6.811   4.238  0.0342 -0.4637 -0.2758
 2359poe     o211018   5.501   6.759   4.359  0.2544 -0.4162 -0.3417
 2359poe    c2311019   5.423   6.655   4.413 -0.1042  0.1057  0.1511
 2359poe    c2311020   5.509   6.587   4.522  0.0172  0.0743  0.0349
 2359poe     o211021   5.425   6.501   4.596 -0.1037  0.0823 -0.0925
 2359poe    c2311022   5.496   6.392   4.651 -0.1117  0.1375  0.0267
 2359poe    c2311023   5.458   6.370   4.799  0.9532  0.2347  0.3212
 2359poe     o211024   5.487   6.487   4.872 -0.3829  0.5241  0.4089
 2359poe    c2311025   5.512   6.457   5.008 -0.1664 -0.6768  0.1213
 2359poe    c2311026   5.574   6.584   5.069 -0.0744 -0.2300 -0.8753
 2359poe     o211027   5.699   6.614   5.011  0.4171  0.2747  0.3937
 2359poe    c3111028   5.796   6.609   5.113 -0.1129 -0.1255  0.8831
 2360poe    c3111029   6.655   0.029   0.046  0.0165  0.1599 -0.5524
 2360poe     o211030   6.680  -0.068  -0.052 -0.4707 -0.3672 -0.1612
 2360poe    c2311031   6.569  -0.081  -0.138 -0.3899  0.1577 -0.3455
 2360poe    c2311032   6.615  -0.139  -0.273 -0.3588  0.0141 -0.2725
 2360poe     o211033   6.715  -0.067  -0.341  0.1465 -0.0100  0.4315
 2360poe    c2311034   6.751  -0.129  -0.463 -0.0690 -0.2870  0.5083
 2360poe    c2311035   6.878  -0.067  -0.522 -0.3982  0.8468  0.9594
 2360poe     o211036   7.000  -0.085  -0.453  0.1047 -0.1228 -0.1371
 2360poe    c2311037   7.092   0.014  -0.494 -0.5408  0.2251 -0.7840
 2360poe    c2311038   7.065   0.162  -0.461 -0.3988  0.0423  0.1853
 2360poe     o211039   6.984   0.234  -0.550  0.2190  0.2542 -0.2123
 2360poe    c3111040   6.928   0.355  -0.503  0.2653  0.3676 -0.4463
 2361poe    c3111041   1.827   6.989   5.841 -0.4495 -0.3022 -0.5845
 2361poe     o211042   1.860   7.074   5.734  0.2591 -0.0453 -0.1676
 2361poe    c2311043   1.839   7.015   5.607  0.7570 -1.2477  0.2940
 2361poe    c2311044   1.928   7.092   5.509 -0.4556 -0.4664 -0.2212
 2361poe     o211045   1.878   7.223   5.493 -0.3025 -0.3898 -0.0864
 2361poe    c2311046   1.942   7.279   5.380 -0.1724 -0.1803  0.0907
 2361poe    c2311047   1.979   7.424   5.414 -0.4878 -0.1381  0.2583
 2361poe     o211048   1.867   7.509   5.419 -0.4595 -0.0655 -0.2873
 2361poe    c2311049   1.924   7.638   5.418 -0.2293 -0.1671 -0.1955
 2361poe    c2311050   1.815   7.741   5.455  0.5149  0.2099  0.9998
 2361poe     o211051   1.741   7.674   5.554 -0.1338  0.0510  0.4113
 2361poe    c3111052   1.649   7.770   5.602 -0.6380 -0.4591  0.4794
 2362poe    c3111053   4.602   5.849   5.328 -0.1044 -0.4938  0.4224
 2362poe     o211054   4.480   5.779   5.319 -0.2499 -0.1991  0.0914
 2362poe    c2311055   4.373   5.841   5.387 -0.2115  0.0838 -0.1066
 2362poe    c2311056   4.256   5.848   5.287 -0.3184  0.2145  0.0286
 2362poe     o211057   4.198   5.725   5.250 -0.1457  0.0468  0.3152
 2362poe    c2311058   4.120   5.749   5.135  0.1190 -0.3340  0.0508
 2362poe    c2311059   4.197   5.754   5.002 -0.0341 -0.2684 -0.0355
 2362poe     o211060   4.289   5.650   4.977 -0.3645 -0.5680 -0.0145
 2362poe    c2311061   4.355   5.671   4.854  0.3266  0.2824  0.4974
 2362poe    c2311062   4.476   5.578   4.830 -0.1873 -0.3139  0.1959
 2362poe     o211063   4.438   5.442   4.833  0.5988 -0.5445 -0.1252
 2362poe    c3111064   4.535   5.348   4.873  0.6816  0.0153  1.0175
 2363poe    c3111065   0.109   0.848   5.421 -0.5059 -0.4692  0.3112
 2363poe     o211066   0.196   0.890   5.319 -0.8909 -0.1157  0.1276
 2363poe    c2311067   0.185   1.030   5.320 -0.6880 -0.0946 -0.2667
 2363poe    c2311068   0.294   1.085   5.226 -0.5542 -0.1072 -0.1198
 2363poe     o211069   0.304   1.004   5.110 -0.9035 -0.1000 -0.1564
 2363poe    c2311070   0.297   1.099   5.006 -0.6559  0.1077  0.0159
 2363poe    c2311071   0.318   1.025   4.873  0.0721  0.6189 -0.1609
 2363poe     o211072   0.189   0.986   4.832  0.1327 -0.0119  0.2279
 2363poe    c2311073   0.202   0.894   4.727  0.0125  1.0326 -0.7189
 2363poe    c2311074   0.075   0.821   4.677 -0.0571  0.4481  0.2851
 2363poe     o211075   0.021   0.730   4.769  0.2434  0.0804  0.1031
 2363poe    c3111076  -0.116   0.751   4.799  0.2346  0.4656 -0.2114
 2364poe    c3111077   0.725   6.275   5.429  0.1983  0.0225 -0.5459
 2364poe     o211078   0.830   6.217   5.503 -0.4009 -0.0225  0.2790
 2364poe    c2311079   0.890   6.104   5.443  0.0363  0.2169  0.2592
 2364poe    c2311080   0.929   5.997   5.548  0.5107  0.4894  0.3603
 2364poe     o211081   0.993   6.074   5.647 -0.2041  0.7302  0.6366
 2364poe    c2311082   1.070   5.999   5.738  0.3497  0.3622 -0.1250
 2364poe    c2311083   1.140   6.097   5.834  0.7826 -0.1210  0.0539
 2364poe     o211084   1.061   6.158   5.934  0.2603 -0.4402 -0.1613
 2364poe    c2311085   1.135   6.234   6.027 -0.7414 -0.0310  0.3138
 2364poe    c2311086   1.070   6.357   6.094  0.4465  0.7060  0.1467
 2364poe     o211087   0.996   6.435   6.004 -0.4623  0.0156  0.2786
 2364poe    c3111088   0.925   6.543   6.061 -0.1065  0.4033  0.0024
 2365poe    c3111089   1.644   2.356   5.847  0.0326 -0.7700  0.1028
 2365poe     o211090   1.533   2.355   5.761 -0.0785 -0.1275  0.2362
 2365poe    c2311091   1.465   2.479   5.772  0.1598  0.0798 -0.5549
 2365poe    c2311092   1.331   2.469   5.698 -0.0575  0.0237 -0.1542
 2365poe     o211093   1.232   2.386   5.757  0.2094 -0.1661  0.0289
 2365poe    c2311094   1.142   2.332   5.663 -0.1747 -0.1439  0.3830
 2365poe    c2311095   1.075   2.202   5.711 -0.5672  0.1102  0.5243
 2365poe     o211096   1.163   2.093   5.694 -0.3796  0.2538  0.5762
 2365poe    c2311097   1.100   1.974   5.735  0.1821 -0.0077  0.6808
 2365poe    c2311098   1.162   1.834   5.714  0.0754  0.0372  0.0186
 2365poe     o211099   1.281   1.822   5.789  0.2837  1.0349 -0.1425
 2365poe    c3111100   1.360   1.711   5.751 -0.4547  0.2619  0.5539
 2366poe    c3111101   4.167   5.193   3.038 -0.4526  0.3197  0.2780
 2366poe     o211102   4.043   5.146   3.087 -0.3462 -0.3162 -0.0480
 2366poe    c2311103   3.967   5.232   3.169 -0.0995 -0.2637  0.1277
 2366poe    c2311104   3.857   5.135   3.217 -0.1896 -0.2800 -0.1119
 2366poe     o211105   3.803   5.070   3.104 -0.2800  0.1494 -0.3216
 2366poe    c2311106   3.681   5.006   3.134  0.4009 -0.8164  0.4722
 2366poe    c2311107   3.640   4.958   2.993  0.7105  0.7419 -0.1677
 2366poe     o211108   3.707   4.842   2.950 -0.4279  0.1344 -0.3475
 2366poe    c2311109   3.652   4.816   2.823 -0.1242  0.5983 -0.5799
 2366poe    c2311110   3.747   4.755   2.718  0.5391 -0.0074  0.3581
 2366poe     o211111   3.849   4.842   2.675  0.4091  0.1774  0.4223
 2366poe    c3111112   3.947   4.764   2.611 -0.2358 -0.5899  0.3579
 2367poe    c3111113   2.441   2.783   3.102 -0.1618  0.0144  0.4051
 2367poe     o211114   2.368   2.884   3.169 -0.2222  0.1352  0.1584
 2367poe    c2311115   2.262   2.836   3.247 -0.2209 -0.4891 -0.2134
 2367poe    c2311116   2.247   2.936   3.363 -0.1315  0.0963 -0.7063
 2367poe     o211117   2.199   3.056   3.306 -0.1506  0.3300 -0.2070
 2367poe    c2311118   2.184   3.153   3.407 -0.1589  0.3010 -0.1803
 2367poe    c2311119   2.136   3.280   3.333 -0.7112  0.5240  0.5502
 2367poe     o211120   2.013   3.268   3.266 -0.4062 -0.1288  0.0934
 2367poe    c2311121   1.958   3.365   3.178  0.3700 -0.1311 -0.4006
 2367poe    c2311122   1.813   3.337   3.135  0.2312  0.4302 -0.3074
 2367poe     o211123   1.832   3.243   3.031 -0.2164  0.1510 -0.1410
 2367poe    c3111124   1.711   3.198   2.974 -0.1919  0.2924 -0.3063
 2368poe    c3111125   5.805   0.855   0.232 -0.7145  0.1362  0.8668
 2368poe     o211126   5.830   0.937   0.344 -0.1841  0.5038  0.4803
 2368poe    c2311127   5.798   0.879   0.468 -0.3669 -0.5835 -0.0646
 2368poe    c2311128   5.920   0.827   0.546  0.0653  0.3238 -0.1344
 2368poe     o211129   5.990   0.921   0.625 -0.2863  0.3098  0.1951
 2368poe    c2311130   6.058   0.881   0.742  0.1427  0.4652  0.0015
 2368poe    c2311131   6.000   0.934   0.875 -0.3469 -0.1861  0.0528
 2368poe     o211132   5.871   0.884   0.902 -0.4390  0.1763  0.2924
 2368poe    c2311133   5.859   0.864   1.041  0.2142 -0.5399  0.2505
 2368poe    c2311134   5.744   0.768   1.075 -0.2237 -0.2017 -0.2605
 2368poe     o211135   5.614   0.819   1.056 -0.0950  0.1526 -0.1925
 2368poe    c3111136   5.525   0.720   1.101  0.0612  0.2364  0.3060
 2369poe    c3111137   5.545   6.791   2.080  0.0112 -0.0885 -0.2527
 2369poe     o211138   5.445   6.692   2.078 -0.2273  0.1520 -0.2983
 2369poe    c2311139   5.487   6.581   2.001  0.4821  0.3609 -0.2153
 2369poe    c2311140   5.359   6.498   1.982  0.1677  0.6320  0.6514
 2369poe     o211141   5.297   6.500   2.109 -0.1097 -0.0779  0.5347
 2369poe    c2311142   5.182   6.418   2.108 -0.1982  0.0448  0.1125
 2369poe    c2311143   5.112   6.392   2.243  0.0083  0.0614  0.2239
 2369poe     o211144   5.061   6.517   2.285 -0.4549  0.0771 -0.3645
 2369poe    c2311145   5.027   6.508   2.422  0.3576 -0.8370 -0.2082
 2369poe    c2311146   4.959   6.631   2.486  0.9219 -0.3229 -0.5746
 2369poe     o211147   5.039   6.745   2.505  0.2215 -0.0209  0.6966
 2369poe    c3111148   5.025   6.805   2.631 -1.0374 -0.1779  0.6471
 2370poe    c3111149   6.285   4.646   0.057 -0.5017  0.1117  0.1422
 2370poe     o211150   6.365   4.531   0.075  0.1870  0.5365 -0.1249
 2370poe    c2311151   6.458   4.519  -0.030  0.6006  0.0608  0.2923
 2370poe    c2311152   6.608   4.539   0.002  0.5703  0.0806  0.4210
 2370poe     o211153   6.616   4.427   0.087 -0.4012  0.0029  0.4263
 2370poe    c2311154   6.743   4.366   0.080 -0.3164  0.1128  0.9730
 2370poe    c2311155   6.770   4.261   0.189 -0.6257 -0.7485  0.2273
 2370poe     o211156   6.711   4.303   0.310 -0.1519 -0.2707  0.2950
 2370poe    c2311157   6.762   4.216   0.408 -0.7125 -0.6018  0.2964
 2370poe    c2311158   6.649   4.123   0.457 -0.9656 -0.4456  0.0128
 2370poe     o211159   6.554   4.204   0.523 -0.0509  0.3397  0.3777
 2370poe    c3111160   6.458   4.128   0.591  0.0847 -0.1392  0.0356
 2371poe    c3111161   0.710   2.089   4.788 -0.4424  0.3299 -0.3561
 2371poe     o211162   0.674   2.016   4.673  0.0352 -0.1746 -0.1880
 2371poe    c2311163   0.584   2.079   4.584  0.0080  0.0949  0.0296
 2371poe    c2311164   0.452   2.003   4.606 -0.0076  0.2076  0.3268
 2371poe     o211165   0.479   1.867   4.581  0.2076  0.3899 -0.4603
 2371poe    c2311166   0.356   1.800   4.586  0.2167  0.3968 -0.0727
 2371poe    c2311167   0.369   1.647   4.599  0.7182  0.4815  0.4098
 2371poe     o211168   0.463   1.612   4.500 -0.0750  0.3520 -0.3097
 2371poe    c2311169   0.503   1.477   4.496 -0.0133  0.3603 -0.0479
 2371poe    c2311170   0.605   1.472   4.380  0.0559  0.6165  0.0026
 2371poe     o211171   0.692   1.582   4.394  0.3674  0.4326 -0.4761
 2371poe    c3111172   0.827   1.554   4.365  0.1359 -0.2566 -0.9065
 2372poe    c3111173   5.266   4.367   6.341  0.5916  0.5114 -0.0951
 2372poe     o211174   5.381   4.293   6.376  0.5504  0.3943 -0.2074
 2372poe    c2311175   5.490   4.313   6.288  0.6284 -0.5065 -0.3263
 2372poe    c2311176   5.556   4.452   6.286 -0.0428 -0.1838 -0.3106
 2372poe     o211177   5.595   4.477   6.419  0.4490 -0.5354 -0.3866
 2372poe    c2311178   5.704   4.565   6.438 -0.4566  0.4528  0.3465
 2372poe    c2311179   5.787   4.545   6.566 -0.7170 -0.3088  0.4033
 2372poe     o211180   5.858   4.659   6.611 -0.6075 -0.3769  0.4008
 2372poe    c2311181   5.932   4.643   6.730 -0.0415  0.2906  0.1398
 2372poe    c2311182   6.059   4.730   6.741  0.2163  0.0217 -0.6339
 2372poe     o211183   6.016   4.862   6.719 -0.0019  0.0703  0.0409
 2372poe    c3111184   6.131   4.940   6.744  0.3450 -0.4843  0.1955
 2373poe    c3111185   6.963   3.916   1.857 -0.0363 -0.4111  0.0049
 2373poe     o211186   6.848   3.836   1.850  0.3018 -0.8941 -0.0711
 2373poe    c2311187   6.774   3.864   1.733  0.1850 -0.0764  0.1906
 2373poe    c2311188   6.631   3.808   1.742 -0.0475  0.4754 -0.0422
 2373poe     o211189   6.631   3.684   1.808 -1.0453  0.3243 -0.3120
 2373poe    c2311190   6.500   3.641   1.840 -0.8143 -0.2832 -0.1546
 2373poe    c2311191   6.530   3.530   1.942  0.1562 -0.1962 -0.3344
 2373poe     o211192   6.619   3.567   2.045 -0.1157  0.2772 -0.2660
 2373poe    c2311193   6.612   3.488   2.162  0.5392 -0.0495 -0.4435
 2373poe    c2311194   6.675   3.556   2.284 -0.8502  0.0531  0.2333
 2373poe     o211195   6.615   3.678   2.323  0.2092  0.6484  0.0586
 2373poe    c3111196   6.681   3.726   2.438 -0.0939  0.4329  0.3244
 2374poe    c3111197   1.512   5.110   5.578  0.1626 -0.3405  0.2867
 2374poe     o211198   1.631   5.077   5.646  0.2303  0.1746  0.4248
 2374poe    c2311199   1.622   5.101   5.785 -0.0774 -0.3090  0.4929
 2374poe    c2311200   1.594   5.244   5.835 -0.0949 -0.0009 -0.3812
 2374poe     o211201   1.691   5.347   5.839 -0.3929  0.2468  0.6721
 2374poe    c2311202   1.704   5.395   5.707 -0.2128  0.0442  0.6174
 2374poe    c2311203   1.842   5.464   5.711 -0.2650  0.2022 -0.0864
 2374poe     o211204   1.862   5.522   5.839 -0.0125 -0.2885  0.0966
 2374poe    c2311205   1.959   5.623   5.832 -0.1343 -0.1869 -0.1336
 2374poe    c2311206   2.056   5.583   5.945  0.0110  0.6107  0.0302
 2374poe     o211207   1.970   5.526   6.040  0.1584  0.7708  0.2590
 2374poe    c3111208   2.037   5.522   6.165 -0.2838 -0.6901  0.4677
 2375poe    c3111209   5.387   4.032   0.069 -0.2657 -0.4434  0.5598
 2375poe     o211210   5.394   4.097   0.193 -0.3407  0.5944  0.0301
 2375poe    c2311211   5.348   4.011   0.295  0.6747  0.0864  0.0680
 2375poe    c2311212   5.434   4.028   0.421  0.2116  0.2196  0.3664
 2375poe     o211213   5.434   4.168   0.437  0.3370  0.2701 -0.0642
 2375poe    c2311214   5.507   4.215   0.548  1.0720 -0.4310 -0.2401
 2375poe    c2311215   5.468   4.364   0.539  0.6852 -0.5045  0.1538
 2375poe     o211216   5.490   4.446   0.426 -0.0229  0.2614  0.5595
 2375poe    c2311217   5.558   4.563   0.465  0.1185  0.1263  0.7228
 2375poe    c2311218   5.708   4.584   0.439 -0.0295  0.6277  0.2330
 2375poe     o211219   5.742   4.565   0.304  0.4349 -0.1196  0.4416
 2375poe    c3111220   5.873   4.539   0.261  0.0955 -0.2359 -0.5502
 2376poe    c3111221   1.876   0.553   0.135 -0.5105  0.6096  0.4328
 2376poe     o211222   1.872   0.629   0.017 -0.0399  0.2622  0.1883
 2376poe    c2311223   1.817   0.552  -0.087  0.0192  0.2845  0.1410
 2376poe    c2311224   1.808   0.634  -0.217 -0.1364  0.1609  0.0733
 2376poe     o211225   1.936   0.663  -0.268 -0.1347  0.0349  0.0062
 2376poe    c2311226   1.949   0.775  -0.353  0.3765 -0.1079 -0.1102
 2376poe    c2311227   2.096   0.812  -0.378  0.2305  0.1541 -0.5863
 2376poe     o211228   2.150   0.790  -0.250 -0.4361 -0.1569 -0.3561
 2376poe    c2311229   2.291   0.785  -0.251 -0.4116  0.1716  0.4091
 2376poe    c2311230   2.319   0.775  -0.100 -0.2379 -0.1343  0.3581
 2376poe     o211231   2.260   0.869  -0.012  0.2539  0.5818 -0.0636
 2376poe    c3111232   2.340   0.880   0.103  0.7925 -0.2937 -0.3437
 2377poe    c3111233   4.833   0.078   5.462 -0.4695 -0.3935 -0.2861
 2377poe     o211234   4.817   0.084   5.602  0.2278 -0.2588 -0.2086
 2377poe    c2311235   4.940   0.073   5.669  0.0383  0.6204  0.2978
 2377poe    c2311236   4.930  -0.048   5.764  0.5761  0.2225 -0.1473
 2377poe     o211237   4.822  -0.040   5.854  0.4514  0.1592 -0.2901
 2377poe    c2311238   4.722  -0.139   5.839  0.3398  0.2521 -0.1545
 2377poe    c2311239   4.580  -0.083   5.823  0.2528  0.2185  0.4667
 2377poe     o211240   4.557   0.008   5.928 -0.7486 -0.1446  0.5762
 2377poe    c2311241   4.434   0.077   5.920 -0.7027 -0.1469 -0.2606
 2377poe    c2311242   4.401   0.167   6.041 -0.3705 -0.1161 -0.1916
 2377poe     o211243   4.508   0.257   6.061 -0.2875 -0.2793  0.0965
 2377poe    c3111244   4.467   0.358   6.151  0.2225 -0.2586  0.3051
 2378poe    c3111245   0.841   4.381   6.176  0.4384 -0.0829 -0.0066
 2378poe     o211246   0.832   4.301   6.292  0.2490 -0.2542 -0.1387
 2378poe    c2311247   0.706   4.300   6.355  0.1211  0.4806 -0.3692
 2378poe    c2311248   0.707   4.237   6.496  0.3753 -0.0808 -0.6197
 2378poe     o211249   0.835   4.251   6.555  0.1814 -0.2836 -0.1469
 2378poe    c2311250   0.806   4.215   6.688  0.0270  0.3183 -0.0164
 2378poe    c2311251   0.940   4.232   6.763 -0.0788  0.4426  0.1467
 2378poe     o211252   0.980   4.364   6.732  0.1538  0.3357 -0.0125
 2378poe    c2311253   1.092   4.373   6.817 -0.1400  0.2770  0.3833
 2378poe    c2311254   1.132   4.517   6.855  0.5623  0.1131  0.2647
 2378poe     o211255   1.174   4.597   6.747  0.3078 -0.3753 -0.1999
 2378poe    c3111256   1.151   4.731   6.782 -0.0271 -0.3334 -0.5776
 2379poe    c3111257   0.170   2.061   1.009  0.0599  0.1137  0.2025
 2379poe     o211258   0.143   2.013   1.139 -0.2059  0.1550  0.1631
 2379poe    c2311259   0.185   1.881   1.164 -0.3562  0.1372  0.3245
 2379poe    c2311260   0.120   1.832   1.295  0.3212  0.4272  0.7707
 2379poe     o211261  -0.020   1.841   1.287  0.3222  0.0275  0.2097
 2379poe    c2311262  -0.078   1.785   1.403  0.5403 -0.0184  0.2978
 2379poe    c2311263  -0.231   1.803   1.389  0.4890 -0.2953  0.4948
 2379poe     o211264  -0.248   1.943   1.376 -0.1561 -0.3955  0.2500
 2379poe    c2311265  -0.384   1.967   1.406 -0.1257  0.1570 -0.0643
 2379poe    c2311266  -0.390   2.118   1.375  0.0941  0.3151  0.6646
 2379poe     o211267  -0.314   2.151   1.261 -0.1577 -0.4722  0.2637
 2379poe    c3111268  -0.343   2.280   1.211  0.5309 -0.4001  0.0434
 2380poe    c3111269   0.655   3.424   2.217 -0.2051 -0.3896 -0.2523
 2380poe     o211270   0.628   3.290   2.178 -0.5477 -0.2110 -0.6435
 2380poe    c2311271   0.531   3.225   2.258  0.4127 -0.4350  0.3701
 2380poe    c2311272   0.495   3.091   2.191  0.2196 -0.0070 -0.3987
 2380poe     o211273   0.470   3.091   2.052 -0.0416  0.0971 -0.3503
 2380poe    c2311274   0.366   3.003   2.017  0.2348 -0.3008 -0.1787
 2380poe    c2311275   0.286   3.064   1.900  0.7749  0.5884 -0.0889
 2380poe     o211276   0.233   3.190   1.935 -0.5198  0.0196  0.0616
 2380poe    c2311277   0.123   3.211   1.849 -0.4023 -0.1637 -0.1331
 2380poe    c2311278   0.012   3.311   1.884 -0.5766 -0.3445 -0.1674
 2380poe     o211279   0.062   3.442   1.897  0.1748 -0.6199 -0.2339
 2380poe    c3111280  -0.038   3.539   1.919  0.4360 -0.6281  1.1050
 2381poe    c3111281   3.576   5.043   4.335  0.0346 -0.0915 -0.1073
 2381poe     o211282   3.609   5.180   4.329 -0.0869 -0.0283  0.6587
 2381poe    c2311283   3.743   5.203   4.369  0.2526 -0.2089 -0.3383
 2381poe    c2311284   3.770   5.352   4.345 -0.4257  0.1213  0.8273
 2381poe     o211285   3.660   5.425   4.394 -0.8000 -0.1049  0.3335
 2381poe    c2311286   3.637   5.535   4.309  0.4784  0.2400  0.4144
 2381poe    c2311287   3.548   5.650   4.361  0.3782  0.0988  0.5585
 2381poe     o211288   3.426   5.608   4.419  0.0074 -0.0550 -0.3039
 2381poe    c2311289   3.336   5.714   4.442 -0.2307 -0.4173  0.4799
 2381poe    c2311290   3.205   5.643   4.479 -0.4389 -0.3682 -0.1522
 2381poe     o211291   3.225   5.522   4.550  0.6054  0.2494  0.6382
 2381poe    c3111292   3.102   5.461   4.583  0.4301  0.0041 -0.4273
 2382poe    c3111293   1.347   1.350   0.954 -0.1829 -0.1966  0.1480
 2382poe     o211294   1.271   1.406   1.059  0.1565  0.1200  0.2283
 2382poe    c2311295   1.345   1.520   1.095  0.5425 -0.1720  0.3581
 2382poe    c2311296   1.297   1.555   1.237 -0.2662 -0.1718  0.0879
 2382poe     o211297   1.161   1.523   1.256 -0.5064  0.6358 -0.2062
 2382poe    c2311298   1.104   1.537   1.384 -0.0715  0.7466 -0.0213
 2382poe    c2311299   0.953   1.530   1.352 -0.0274  0.2664 -0.1188
 2382poe     o211300   0.943   1.401   1.295 -0.1337  0.3144 -0.2103
 2382poe    c2311301   0.808   1.366   1.279 -0.0404  0.0061 -0.3372
 2382poe    c2311302   0.773   1.217   1.298  0.3577 -0.0520 -0.0313
 2382poe     o211303   0.794   1.164   1.427  0.1042  0.1023  0.0744
 2382poe    c3111304   0.708   1.215   1.526 -0.1486  0.2359 -0.2123
 2383poe    c3111305   2.937   6.069   2.810  0.2748  0.2808 -0.0639
 2383poe     o211306   2.887   6.072   2.941  0.1650  0.3343 -0.1066
 2383poe    c2311307   2.835   6.199   2.972 -0.9546 -0.0789 -0.2534
 2383poe    c2311308   2.787   6.197   3.119  0.0625 -0.1876  0.0839
 2383poe     o211309   2.895   6.215   3.208  0.5989 -0.1476 -0.5650
 2383poe    c2311310   2.925   6.348   3.244  0.1028 -0.2219  0.1526
 2383poe    c2311311   3.070   6.395   3.217  0.2988 -0.7547  0.2652
 2383poe     o211312   3.166   6.326   3.294  0.4778 -0.7954  0.0052
 2383poe    c2311313   3.293   6.385   3.280  0.1645 -0.0250  0.3523
 2383poe    c2311314   3.352   6.445   3.410  0.7602 -0.0561  0.0986
 2383poe     o211315   3.354   6.345   3.509 -0.4091  0.0965  0.2875
 2383poe    c3111316   3.428   6.416   3.606 -0.2603  0.4281 -0.0658
 2384poe    c3111317   5.916   3.597   1.785 -0.4687 -0.5186 -0.7809
 2384poe     o211318   5.776   3.613   1.782 -0.3892  0.3180 -0.2028
 2384poe    c2311319   5.721   3.600   1.911 -0.0630 -0.1059 -0.1054
 2384poe    c2311320   5.575   3.649   1.907 -0.1709 -0.4189 -0.0621
 2384poe     o211321   5.517   3.586   1.796  0.2063 -0.0437 -0.4794
 2384poe    c2311322   5.389   3.533   1.825  0.1047  0.3175 -0.2567
 2384poe    c2311323   5.277   3.631   1.785 -0.3537  0.0076  0.2546
 2384poe     o211324   5.276   3.760   1.841  0.4299  0.1941 -0.1437
 2384poe    c2311325   5.188   3.837   1.761 -0.7693 -0.0410  0.9184
 2384poe    c2311326   5.202   3.990   1.774 -0.0333  0.0274 -0.4293
 2384poe     o211327   5.324   4.030   1.717  0.1659 -0.3249 -0.2509
 2384poe    c3111328   5.341   4.168   1.737 -0.2716 -0.2451 -0.4149
 2385poe    c3111329   2.002   0.168   2.173 -0.3185 -0.2696  0.6969
 2385poe     o211330   1.901   0.266   2.183 -0.3335 -0.2167  0.0588
 2385poe    c2311331   1.943   0.389   2.130 -0.1346 -0.3308 -0.0525
 2385poe    c2311332   1.815   0.475   2.124 -0.0335 -0.1738  0.0359
 2385poe     o211333   1.754   0.492   2.250 -0.1786  0.3316 -0.0993
 2385poe    c2311334   1.758   0.627   2.290  0.5385  0.2540  0.1116
 2385poe    c2311335   1.618   0.647   2.353  0.5095  0.5776 -0.0507
 2385poe     o211336   1.596   0.569   2.468  0.1078  0.3179 -0.3011
 2385poe    c2311337   1.469   0.598   2.520 -0.1036  0.0103 -0.6425
 2385poe    c2311338   1.430   0.487   2.620  0.3587  0.2593 -0.1863
 2385poe     o211339   1.549   0.457   2.690 -0.1916  0.0428  0.6712
 2385poe    c3111340   1.528   0.332   2.752 -0.4200  0.0932  0.6942
 2386poe    c3111341   3.835   0.737   1.701 -0.7047  0.1842 -0.4822
 2386poe     o211342   3.903   0.847   1.646 -0.1009  0.0280 -0.0589
 2386poe    c2311343   4.041   0.817   1.633 -0.0980 -0.1859  0.4505
 2386poe    c2311344   4.085   0.943   1.556  0.3613 -0.8797 -0.4318
 2386poe     o211345   4.072   0.922   1.417 -0.1895  0.1851 -0.5523
 2386poe    c2311346   4.128   1.025   1.339  0.3784  0.2768 -0.0307
 2386poe    c2311347   4.151   0.977   1.195  0.0442  0.0441 -0.0079
 2386poe     o211348   4.032   1.000   1.123  0.1747  0.1715 -0.1854
 2386poe    c2311349   4.030   0.940   0.995  0.2933 -0.0762 -0.0699
 2386poe    c2311350   3.916   0.837   0.991 -0.2534  0.5167  0.1235
 2386poe     o211351   3.815   0.901   1.065 -0.1799  0.7164  0.0512
 2386poe    c3111352   3.692   0.841   1.030 -0.1719  0.4631  0.4492
 2387poe    c3111353   3.475   2.123   3.998  0.1115 -0.7273  0.2594
 2387poe     o211354   3.491   2.179   4.126 -0.0408  0.1518 -0.0995
 2387poe    c2311355   3.413   2.296   4.136 -0.1598  0.0815 -0.2104
 2387poe    c2311356   3.463   2.385   4.251 -0.2845 -0.1957  0.0587
 2387poe     o211357   3.437   2.324   4.375  0.3782 -0.6329 -0.0128
 2387poe    c2311358   3.513   2.372   4.484  0.1727 -0.6660  0.1454
 2387poe    c2311359   3.462   2.295   4.607 -0.0928 -0.0018  0.4558
 2387poe     o211360   3.511   2.163   4.617  0.3035  0.0932 -0.2455
 2387poe    c2311361   3.447   2.114   4.732 -0.1416 -0.0125 -0.5364
 2387poe    c2311362   3.504   2.003   4.822 -1.2550  0.0763  0.2959
 2387poe     o211363   3.493   1.866   4.789 -0.2742  0.0564  0.0232
 2387poe    c3111364   3.624   1.817   4.774 -0.2109  0.2277  0.0114
 2388poe    c3111365   2.846   4.922   1.078  0.2158  0.6772  0.2826
 2388poe     o211366   2.718   4.923   1.017  0.1652 -0.1928  0.3575
 2388poe    c2311367   2.683   5.059   1.009  0.2464 -0.1991 -0.1991
 2388poe    c2311368   2.530   5.066   0.988  0.2078  0.0376  0.1497
 2388poe     o211369   2.495   5.012   0.863 -0.2069 -0.0024  0.2803
 2388poe    c2311370   2.355   5.022   0.851 -0.2261 -0.3461  0.1989
 2388poe    c2311371   2.307   5.006   0.706 -0.3285 -0.1076  0.2063
 2388poe     o211372   2.366   4.900   0.635  0.3916  0.2129  0.3220
 2388poe    c2311373   2.264   4.856   0.548  0.3158 -0.0223  0.5278
 2388poe    c2311374   2.304   4.716   0.500  0.3290  0.0940  0.1996
 2388poe     o211375   2.429   4.703   0.436  0.2568 -0.3159  0.1358
 2388poe    c3111376   2.443   4.564   0.417 -0.2024 -0.3808  0.2755
 2389poe    c3111377   6.700   3.983   3.519  0.2318  0.2526  0.1408
 2389poe     o211378   6.697   4.119   3.484 -0.9769  0.1674 -0.1093
 2389poe    c2311379   6.763   4.150   3.363 -0.3469 -0.2781  0.1163
 2389poe    c2311380   6.703   4.106   3.228  0.3924  0.4912 -0.4712
 2389poe     o211381   6.584   4.168   3.186  0.0499  0.2573  0.1400
 2389poe    c2311382   6.572   4.152   3.046  0.0872  0.4552  0.1138
 2389poe    c2311383   6.437   4.204   2.993 -0.2379 -0.0589  0.4275
 2389poe     o211384   6.343   4.100   3.013 -0.2524 -0.2087 -0.3721
 2389poe    c2311385   6.212   4.151   3.003 -0.2614 -0.1316  0.1063
 2389poe    c2311386   6.149   4.155   2.862 -0.2685 -0.1802  0.1085
 2389poe     o211387   6.192   4.273   2.798 -0.0180 -0.6002 -0.5028
 2389poe    c3111388   6.154   4.273   2.662 -0.8080 -0.3390 -0.2835
 2390poe    c3111389   3.404   0.064   4.296 -0.3846 -0.3269 -0.3826
 2390poe     o211390   3.268   0.027   4.282 -0.3854 -0.0485 -1.1468
 2390poe    c2311391   3.240  -0.098   4.341 -0.3738  0.1306 -0.7579
 2390poe    c2311392   3.087  -0.112   4.344 -0.3461 -0.0554 -0.2392
 2390poe     o211393   3.043  -0.044   4.229 -0.1989  0.2463 -0.1181
 2390poe    c2311394   2.906  -0.076   4.222 -0.0941 -0.1207 -0.5588
 2390poe    c2311395   2.833   0.026   4.132 -0.2191 -0.2337 -0.5846
 2390poe     o211396   2.890   0.022   4.004  0.2094 -0.1648 -0.3981
 2390poe    c2311397   2.867   0.147   3.942 -0.0110  0.0027  0.0189
 2390poe    c2311398   2.916   0.134   3.797 -0.3929 -0.4426 -0.0763
 2390poe     o211399   3.057   0.141   3.792 -0.3912 -0.1879  0.2677
 2390poe    c3111400   3.111   0.170   3.665  0.0295 -0.4158  0.3926
 2391poe    c3111401   6.276   4.426   6.864  0.6247  0.2388 -0.3249
 2391poe     o211402   6.379   4.348   6.807  0.1539 -0.4460 -0.2578
 2391poe    c2311403   6.467   4.437   6.740 -0.2150 -0.1399 -0.3408
 2391poe    c2311404   6.598   4.363   6.708 -0.1121 -0.0956 -0.0216
 2391poe     o211405   6.672   4.330   6.824  0.5597  0.5574 -0.2566
 2391poe    c2311406   6.806   4.291   6.807  0.4716  0.1689 -0.0663
 2391poe    c2311407   6.907   4.293   6.923  0.3458 -0.2937  0.0564
 2391poe     o211408   6.866   4.215   7.032  0.1832 -0.9082 -0.4400
 2391poe    c2311409   6.967   4.223   7.130 -0.2117  0.0302 -0.1051
 2391poe    c2311410   7.085   4.125   7.118 -0.3439 -0.1930  0.3920
 2391poe     o211411   7.029   3.995   7.118 -0.1826 -0.2621  0.0090
 2391poe    c3111412   7.110   3.905   7.046  0.1299  0.4349 -0.5264
 2392poe    c3111413   2.788   0.831   1.725  0.1395 -0.2870 -0.2638
 2392poe     o211414   2.884   0.737   1.683  0.5718  0.1226 -0.2099
 2392poe    c2311415   3.011   0.782   1.725  0.3570  0.3646  0.1770
 2392poe    c2311416   3.121   0.675   1.715 -0.0976 -0.0624 -0.2819
 2392poe     o211417   3.090   0.568   1.802 -0.0496  0.0357 -0.1449
 2392poe    c2311418   3.202   0.483   1.794  0.0381  0.1900 -0.5883
 2392poe    c2311419   3.178   0.350   1.868 -0.2645  0.4374 -0.2394
 2392poe     o211420   3.064   0.284   1.820 -0.3827  0.5580 -0.1281
 2392poe    c2311421   3.051   0.152   1.868 -0.0435  0.1454 -1.1245
 2392poe    c2311422   2.918   0.089   1.822  0.0689 -0.6128 -0.4471
 2392poe     o211423   2.877   0.161   1.708 -0.5732  0.3799  0.3891
 2392poe    c3111424   2.798   0.075   1.630  0.2294 -0.1985  0.1972
 2393poe    c3111425   6.765   4.688   5.317  0.3102  0.4759 -0.1123
 2393poe     o211426   6.658   4.666   5.407  0.3314  0.1133 -0.1756
 2393poe    c2311427   6.697   4.609   5.530 -0.4343  0.0437  0.0371
 2393poe    c2311428   6.592   4.594   5.641 -0.2503 -0.1988  0.1786
 2393poe     o211429   6.559   4.720   5.695  0.3915  0.2472 -0.4624
 2393poe    c2311430   6.446   4.716   5.779  0.3739 -0.1104 -0.5000
 2393poe    c2311431   6.409   4.862   5.815  0.9170  0.1383 -0.9348
 2393poe     o211432   6.366   4.943   5.708 -0.1133  0.3016 -0.4029
 2393poe    c2311433   6.303   5.066   5.737 -0.1818  0.0783  0.4332
 2393poe    c2311434   6.259   5.109   5.595 -0.0054  0.3521  0.4609
 2393poe     o211435   6.235   4.999   5.510 -0.6967  0.2778  0.7501
 2393poe    c3111436   6.202   5.036   5.378 -1.3441 -0.2029  0.7675
 2394poe    c3111437   2.637   2.385   1.352 -0.4333  0.2162 -0.7958
 2394poe     o211438   2.751   2.307   1.323 -0.2491  0.0471  0.3466
 2394poe    c2311439   2.851   2.345   1.415  0.2404  0.4165 -0.3265
 2394poe    c2311440   2.890   2.228   1.507 -0.1773  0.0640 -0.5977
 2394poe     o211441   2.923   2.125   1.416 -0.3837 -0.3538 -0.2040
 2394poe    c2311442   2.963   2.013   1.491  0.4502 -0.0295 -0.1550
 2394poe    c2311443   3.035   1.906   1.407  0.3278 -0.3567  0.1514
 2394poe     o211444   3.153   1.966   1.359  0.1228 -0.1298 -0.0773
 2394poe    c2311445   3.212   1.888   1.258 -0.5202 -0.3830 -0.2612
 2394poe    c2311446   3.323   1.968   1.187  0.0533 -1.0439 -0.1215
 2394poe     o211447   3.442   2.003   1.254 -0.3248  0.0154  0.0226
 2394poe    c3111448   3.538   2.041   1.158 -0.0290  0.2688  0.4177
 2395poe    c3111449   6.009   4.675   3.037  0.2270  0.0137 -0.2033
 2395poe     o211450   6.057   4.689   3.169 -0.8158  0.0601  0.1803
 2395poe    c2311451   6.151   4.794   3.171 -0.7593  0.0037  0.5868
 2395poe    c2311452   6.091   4.932   3.202 -0.0497  0.4835 -0.1309
 2395poe     o211453   6.007   4.995   3.107 -0.4030 -0.1208 -0.2257
 2395poe    c2311454   5.894   5.065   3.157 -0.4111 -0.2662 -0.0383
 2395poe    c2311455   5.770   4.978   3.183 -0.6178  0.2016  0.5480
 2395poe     o211456   5.788   4.895   3.296  0.8553 -0.2340  0.0077
 2395poe    c2311457   5.719   4.774   3.274  0.1649  0.2185 -0.3535
 2395poe    c2311458   5.775   4.682   3.384 -0.0942  0.5965  0.0934
 2395poe     o211459   5.685   4.664   3.491 -0.1686 -0.0370 -0.0777
 2395poe    c3111460   5.679   4.769   3.584  0.0357 -0.5164  0.4870
 2396poe    c3111461   5.430   3.023   0.665  0.0343 -0.1188  0.0035
 2396poe     o211462   5.356   3.071   0.555  0.3289 -0.5571 -0.3949
 2396poe    c2311463   5.441   3.120   0.454  0.0788  0.1356 -0.2772
 2396poe    c2311464   5.362   3.147   0.324  0.4419  0.3494 -0.4542
 2396poe     o211465   5.353   3.040   0.232 -0.6768  0.5749 -0.6191
 2396poe    c2311466   5.465   3.018   0.149  0.3625 -0.6945  1.0552
 2396poe    c2311467   5.449   2.892   0.061 -0.1480 -0.0517  0.2093
 2396poe     o211468   5.345   2.900  -0.033 -0.0301  0.1132  0.0933
 2396poe    c2311469   5.331   2.783  -0.110  0.5427  0.0527  0.0754
 2396poe    c2311470   5.232   2.790  -0.228  0.4258 -0.6755  0.1232
 2396poe     o211471   5.103   2.812  -0.177  0.4657 -0.2523  0.0464
 2396poe    c3111472   4.997   2.844  -0.265  0.7247  0.0641 -0.1502
 2397poe    c3111473   3.129   6.887   0.785  0.1442 -0.1526 -0.7347
 2397poe     o211474   3.150   6.810   0.901  0.4214  0.0295 -0.6612
 2397poe    c2311475   3.246   6.708   0.884  0.7829  0.1256  0.6589
 2397poe    c2311476   3.208   6.559   0.875  0.1764  0.2899  0.4526
 2397poe     o211477   3.110   6.508   0.962 -0.1175  0.6685  0.3488
 2397poe    c2311478   3.103   6.370   0.936 -0.5061  0.7117  0.2197
 2397poe    c2311479   2.956   6.326   0.953 -0.3228 -0.2661 -0.6246
 2397poe     o211480   2.913   6.407   1.060  0.2859 -0.0074 -0.5673
 2397poe    c2311481   2.774   6.390   1.080  0.3890 -0.2136 -0.0107
 2397poe    c2311482   2.732   6.441   1.219  0.0558  0.1413 -0.2406
 2397poe     o211483   2.783   6.570   1.240 -0.3712  0.2291  0.2883
 2397poe    c3111484   2.747   6.628   1.363 -0.2479 -0.3296  0.5871
 2398poe    c3111485   5.316   2.912   6.232 -0.2097 -0.4441 -0.7249
 2398poe     o211486   5.289   3.031   6.161 -0.2144  0.6957  1.1055
 2398poe    c2311487   5.153   3.030   6.122 -0.1498  0.0207  0.8826
 2398poe    c2311488   5.147   3.159   6.039 -0.2898 -0.4153  0.2109
 2398poe     o211489   5.226   3.257   6.101  0.1720 -0.2707 -0.5937
 2398poe    c2311490   5.173   3.387   6.083 -0.3860 -0.4528 -0.2605
 2398poe    c2311491   5.213   3.475   6.203  0.7396 -0.4638 -0.6165
 2398poe     o211492   5.346   3.444   6.238  0.6515 -0.0181  0.1435
 2398poe    c2311493   5.404   3.544   6.318  0.4351 -0.0928  0.3960
 2398poe    c2311494   5.549   3.499   6.343  0.5205 -0.1036 -0.1063
 2398poe     o211495   5.547   3.380   6.419  0.1561 -0.4144 -0.5929
 2398poe    c3111496   5.679   3.358   6.465 -0.2002 -0.2204  0.5584
 2399poe    c3111497   0.840   7.049   1.603 -0.3855  0.5100  0.2703
 2399poe     o211498   0.880   6.919   1.638  0.4883  0.7552  0.2234
 2399poe    c2311499   1.019   6.910   1.618  0.4643 -0.1105  0.3745
 2399poe    c2311500   1.066   6.832   1.494 -0.1973 -0.2904  0.2375
 2399poe     o211501   1.104   6.696   1.492 -0.5245 -0.3776 -0.7137
 2399poe    c2311502   1.006   6.600   1.526 -0.6945  0.0533  0.0495
 2399poe    c2311503   1.071   6.463   1.554 -0.1691  0.3460  0.2904
 2399poe     o211504   1.135   6.451   1.679  0.1589 -0.5587  0.0434
 2399poe    c2311505   1.174   6.319   1.708  0.1052 -0.6102 -0.1203
 2399poe    c2311506   1.216   6.284   1.852  0.9166  0.5062 -0.0724
 2399poe     o211507   1.116   6.226   1.932  0.6174 -0.0267 -0.8160
 2399poe    c3111508   1.115   6.085   1.926 -1.0869 -0.0964  0.3344
 2400poe    c3111509   7.103   6.008   0.140  0.3965  1.1632 -0.0820
 2400poe     o211510   7.046   6.060   0.258  0.1995  0.2145  0.2481
 2400poe    c2311511   7.096   5.983   0.365  0.6482 -0.1824 -0.2395
 2400poe    c2311512   7.176   6.069   0.465  0.5850 -0.3350 -0.0557
 2400poe     o211513   7.090   6.158   0.535  0.5101 -0.5509  0.1264
 2400poe    c2311514   7.167   6.224   0.633  0.3269  0.1864 -0.2244
 2400poe    c2311515   7.074   6.313   0.719  0.7330  0.9020 -0.5172
 2400poe     o211516   7.134   6.353   0.840 -0.1135  0.3236  0.0976
 2400poe    c2311517   7.034   6.421   0.913 -0.4085 -0.4208  0.4025
 2400poe    c2311518   7.077   6.503   1.036 -0.1732  0.7409 -0.4337
 2400poe     o211519   7.180   6.597   1.018 -0.0062  0.6738  0.1343
 2400poe    c3111520   7.169   6.697   1.116  0.3387  0.8347  0.0113
 2401poe    c3111521   2.181   2.661   1.842  0.1442 -0.0525  0.2248
 2401poe     o211522   2.321   2.673   1.848  0.1665  0.0301 -0.3923
 2401poe    c2311523   2.351   2.807   1.880  0.8187 -0.0718 -0.5537
 2401poe    c2311524   2.501   2.817   1.913  0.7208 -0.7857  0.1242
 2401poe     o211525   2.534   2.722   2.013 -0.6317  0.0774  1.4345
 2401poe    c2311526   2.658   2.769   2.061  0.1565 -0.0793 -0.3739
 2401poe    c2311527   2.698   2.719   2.201 -0.2953 -1.2162 -0.6422
 2401poe     o211528   2.590   2.736   2.290  0.3414  0.0539 -0.0947
 2401poe    c2311529   2.633   2.709   2.421  0.4523  0.4420 -0.0519
 2401poe    c2311530   2.519   2.649   2.505  0.1779  0.8510 -0.1265
 2401poe     o211531   2.406   2.729   2.479 -0.4389 -0.0208 -0.1670
 2401poe    c3111532   2.340   2.763   2.600  0.6128  0.4799  0.2746
 2402poe    c3111533   5.914   5.343   2.801  0.1227 -0.1496 -0.0297
 2402poe     o211534   5.838   5.425   2.716 -0.5802  0.1817  0.9061
 2402poe    c2311535   5.734   5.349   2.659 -0.5960  0.5211  0.4766
 2402poe    c2311536   5.664   5.431   2.549 -0.4922 -0.2083 -0.1398
 2402poe     o211537   5.655   5.560   2.605 -0.3903 -0.2076 -0.1245
 2402poe    c2311538   5.594   5.646   2.511 -0.1939  0.1542  0.0762
 2402poe    c2311539   5.524   5.754   2.595 -0.5999 -0.0845  0.0494
 2402poe     o211540   5.631   5.806   2.671 -0.0178 -0.4414 -0.5187
 2402poe    c2311541   5.603   5.934   2.723  0.4378 -0.6771  0.3327
 2402poe    c2311542   5.719   5.980   2.814 -0.3576  0.5629  0.7317
 2402poe     o211543   5.737   5.905   2.932  0.1382  0.0750  0.3500
 2402poe    c3111544   5.848   5.956   3.003  0.3411 -0.6270  0.5386
 2403poe    c3111545   6.234   1.448   2.839  0.3863  0.1500 -0.3399
 2403poe     o211546   6.120   1.381   2.888  0.4035  0.2768 -0.1253
 2403poe    c2311547   6.113   1.254   2.828 -0.2484  0.2955 -0.1002
 2403poe    c2311548   6.010   1.160   2.894  0.1022  0.0233  0.0705
 2403poe     o211549   6.036   1.160   3.032 -0.4583 -0.0657  0.1783
 2403poe    c2311550   5.987   1.259   3.119 -0.0387  0.0690  0.2643
 2403poe    c2311551   6.051   1.265   3.259  0.1093  0.0478  0.1977
 2403poe     o211552   6.191   1.281   3.266  0.0513  0.5466  0.2880
 2403poe    c2311553   6.226   1.333   3.392  0.6348 -0.3257  0.4991
 2403poe    c2311554   6.206   1.482   3.429 -0.4952 -0.3243 -0.0604
 2403poe     o211555   6.072   1.523   3.440 -0.4727 -0.2334 -0.1291
 2403poe    c3111556   6.007   1.494   3.562 -0.2603  0.3048  0.1185
 2404poe    c3111557   2.497   2.942   7.226  0.2199 -0.0078 -0.0706
 2404poe     o211558   2.425   3.023   7.136 -0.1990  0.4415  0.6672
 2404poe    c2311559   2.521   3.078   7.049 -0.3659  0.3798  0.4427
 2404poe    c2311560   2.455   3.184   6.959 -0.0863  0.1836  0.0037
 2404poe     o211561   2.346   3.103   6.922  0.0241  0.1713 -0.2976
 2404poe    c2311562   2.252   3.171   6.842 -0.0479  0.3660 -0.0496
 2404poe    c2311563   2.171   3.053   6.787  0.6385  0.0098 -0.3059
 2404poe     o211564   2.121   2.972   6.891 -0.5260  0.8826 -0.1680
 2404poe    c2311565   2.034   2.876   6.834  0.1022  0.0865  0.1994
 2404poe    c2311566   2.022   2.737   6.900 -0.2547 -0.0052 -0.0555
 2404poe     o211567   2.137   2.658   6.877 -0.2801 -0.1650  0.3647
 2404poe    c3111568   2.133   2.519   6.855 -0.5313 -0.0560 -0.2820
 2405poe    c3111569   3.902   4.331   6.194  0.4108 -0.0741 -0.6409
 2405poe     o211570   3.832   4.351   6.073 -0.2485  0.0172 -0.2517
 2405poe    c2311571   3.715   4.277   6.044  0.0529 -0.2862 -0.7046
 2405poe    c2311572   3.625   4.359   5.949 -0.0377  0.2788 -0.1398
 2405poe     o211573   3.689   4.376   5.825 -0.4662 -0.4057 -0.4633
 2405poe    c2311574   3.609   4.431   5.722 -0.2108  0.2255 -0.3297
 2405poe    c2311575   3.606   4.584   5.706 -0.4014  0.2108 -0.4331
 2405poe     o211576   3.737   4.637   5.704 -0.1920 -0.2744  0.1457
 2405poe    c2311577   3.739   4.772   5.662  0.1803 -0.1491  0.5608
 2405poe    c2311578   3.864   4.800   5.578 -0.1725  0.0948  0.1093
 2405poe     o211579   3.970   4.749   5.657 -0.0618  0.5140  0.2358
 2405poe    c3111580   4.098   4.777   5.606 -0.4099  0.4402 -0.6973
 2406poe    c3111581   5.026   6.137   7.019 -1.0662  0.4129 -0.3592
 2406poe     o211582   5.046   6.181   6.886  0.1098  0.0207 -0.3183
 2406poe    c2311583   5.028   6.072   6.799  0.4871 -0.4241  0.1519
 2406poe    c2311584   5.065   6.102   6.652 -0.4125  0.5301  0.1054
 2406poe     o211585   4.996   6.193   6.570 -0.0897  0.3697 -0.3500
 2406poe    c2311586   5.059   6.223   6.448  0.9550 -0.5758 -0.0610
 2406poe    c2311587   5.007   6.346   6.371  0.4290 -0.4920  0.4262
 2406poe     o211588   4.880   6.343   6.309  0.5389 -0.2334  0.1867
 2406poe    c2311589   4.833   6.474   6.286  0.5567 -0.3290 -0.4095
 2406poe    c2311590   4.703   6.462   6.204  0.4376 -0.3318 -0.2202
 2406poe     o211591   4.615   6.368   6.261 -0.1245  0.2480 -0.1138
 2406poe    c3111592   4.485   6.380   6.208 -0.2031 -0.6539 -0.1459
 2407poe    c3111593   3.701   5.034   3.943  0.0796  0.4661  0.1857
 2407poe     o211594   3.578   5.047   3.876  0.3976  0.1359 -0.4628
 2407poe    c2311595   3.502   5.143   3.945  0.2304 -0.1573 -0.2387
 2407poe    c2311596   3.354   5.148   3.902 -0.0006  0.4855  0.5965
 2407poe     o211597   3.292   5.029   3.946  0.2102  0.2070  0.1432
 2407poe    c2311598   3.168   5.040   3.880  0.3987 -0.2444 -0.2944
 2407poe    c2311599   3.071   4.926   3.916  0.5826 -0.2360  0.2368
 2407poe     o211600   3.070   4.876   4.048  0.0420  0.2014  0.4008
 2407poe    c2311601   2.998   4.756   4.065 -0.4718  0.4380 -0.0740
 2407poe    c2311602   3.035   4.705   4.205 -0.2494  0.4594 -0.1255
 2407poe     o211603   3.169   4.736   4.239 -0.1274 -0.2530  0.0697
 2407poe    c3111604   3.237   4.642   4.319 -0.0080 -0.2012  0.0294
 2408poe    c3111605   4.682   2.792   3.020 -0.4986  0.4163 -0.3106
 2408poe     o211606   4.653   2.878   3.128  0.2993  0.3487 -0.0383
 2408poe    c2311607   4.704   3.009   3.110 -0.1454  0.5124 -0.1296
 2408poe    c2311608   4.648   3.106   3.215 -0.6746  0.1778 -0.0958
 2408poe     o211609   4.509   3.092   3.200 -0.6312  0.0730 -0.3911
 2408poe    c2311610   4.430   3.184   3.272  0.2503  0.4384  0.1256
 2408poe    c2311611   4.291   3.132   3.229  0.5083 -0.0363 -0.1420
 2408poe     o211612   4.281   2.992   3.230  0.2126 -0.0276 -1.0985
 2408poe    c2311613   4.162   2.955   3.164 -0.4692 -0.2636  0.2241
 2408poe    c2311614   4.052   2.915   3.264 -0.1786 -0.0715  0.6205
 2408poe     o211615   3.990   3.023   3.331 -0.7669  0.0401 -0.0871
 2408poe    c3111616   3.903   2.991   3.437  0.2656  0.0203  0.7830
 2409poe    c3111617   0.791   4.177   4.394  0.4939  0.5277 -0.9498
 2409poe     o211618   0.725   4.301   4.408 -0.5027 -0.0473 -0.4356
 2409poe    c2311619   0.815   4.410   4.403  0.1007 -0.4883  0.5014
 2409poe    c2311620   0.745   4.544   4.434  1.1206  0.2674 -0.3866
 2409poe     o211621   0.634   4.536   4.347  0.4243  0.4798  0.4702
 2409poe    c2311622   0.549   4.648   4.346 -0.1837  0.0211 -0.0368
 2409poe    c2311623   0.414   4.631   4.274  0.0041  0.1929 -0.4377
 2409poe     o211624   0.373   4.508   4.330  0.2584 -0.1261 -0.9569
 2409poe    c2311625   0.268   4.458   4.251 -0.1287 -0.3740 -0.2898
 2409poe    c2311626   0.162   4.372   4.322 -0.1086  0.0504  0.2573
 2409poe     o211627   0.217   4.259   4.387  0.2280 -0.0371 -0.1716
 2409poe    c3111628   0.143   4.149   4.341  0.2815 -0.1958  0.1200
 2410poe    c3111629   4.584   7.007   6.931  0.1992 -1.0839 -0.3356
 2410poe     o211630   4.683   7.056   7.019 -0.3965 -0.1361 -0.1759
 2410poe    c2311631   4.660   7.042   7.158  0.2954 -0.0859 -0.0549
 2410poe    c2311632   4.780   7.091   7.242  0.5634 -0.2786 -0.3229
 2410poe     o211633   4.893   7.012   7.211  0.4493 -0.5305 -0.1117
 2410poe    c2311634   5.010   7.062   7.272  0.1899  0.2457 -0.2401
 2410poe    c2311635   5.121   6.956   7.279  0.4293  0.5096 -0.0544
 2410poe     o211636   5.176   6.920   7.154 -0.1179 -0.2248 -0.0883
 2410poe    c2311637   5.313   6.951   7.140 -0.2622  0.2454 -0.4813
 2410poe    c2311638   5.403   6.830   7.110 -0.1152  0.1751  0.2332
 2410poe     o211639   5.381   6.792   6.976  0.4125  0.5201  0.0494
 2410poe    c3111640   5.488   6.839   6.896  0.4025  0.6881  0.1335
 2411poe    c3111641   5.004   4.599   6.908 -0.0659 -0.5847  0.0652
 2411poe     o211642   5.019   4.708   6.996  0.2180 -0.0186 -0.6754
 2411poe    c2311643   4.954   4.821   6.941 -0.2305 -0.0245 -0.1652
 2411poe    c2311644   4.954   4.956   7.016  0.5490 -0.3174  0.3702
 2411poe     o211645   4.879   4.980   7.132  0.2089 -0.4205  0.1721
 2411poe    c2311646   4.781   5.081   7.123  0.1664 -0.4895 -0.1305
 2411poe    c2311647   4.840   5.212   7.177 -0.4596  0.0335 -0.7001
 2411poe     o211648   4.906   5.287   7.078 -0.3075  0.2080 -0.4688
 2411poe    c2311649   4.829   5.382   7.007 -0.6073  0.1447 -0.2311
 2411poe    c2311650   4.926   5.475   6.932 -0.2579  0.2387  0.3300
 2411poe     o211651   4.969   5.410   6.815 -0.0919  0.1723  0.4269
 2411poe    c3111652   5.102   5.362   6.807 -0.1812  0.0251 -0.1870
 2412poe    c3111653   0.115   5.337   3.504  0.0811 -0.0653 -0.1195
 2412poe     o211654   0.039   5.273   3.404  0.9013  0.0075 -0.8001
 2412poe    c2311655   0.079   5.138   3.394 -0.5220 -0.4820 -0.1517
 2412poe    c2311656  -0.020   5.064   3.302 -0.4700 -0.4443 -0.2376
 2412poe     o211657  -0.154   5.080   3.342 -0.4120  0.1233 -0.2574
 2412poe    c2311658  -0.242   4.996   3.271  0.5211 -0.8654 -0.2728
 2412poe    c2311659  -0.363   4.932   3.341  0.3711 -0.0590  0.2223
 2412poe     o211660  -0.320   4.852   3.449  0.1881 -0.2161  0.1788
 2412poe    c2311661  -0.431   4.787   3.509 -0.2277  0.6223  0.3378
 2412poe    c2311662  -0.365   4.689   3.608 -0.7065  0.2519  0.2956
 2412poe     o211663  -0.323   4.754   3.726  0.2638 -0.7532  0.5153
 2412poe    c3111664  -0.284   4.657   3.821  0.4359 -0.5519  0.6497
 2413poe    c3111665   1.781   5.681   1.010  0.0726  0.8331  0.0063
 2413poe     o211666   1.645   5.660   0.979  0.2000 -0.1402  0.0783
 2413poe    c2311667   1.620   5.522   0.966 -0.0663 -0.1614  0.7817
 2413poe    c2311668   1.481   5.495   0.905  0.1845 -0.2717  0.2621
 2413poe     o211669   1.484   5.485   0.764  0.6307 -0.4258  0.2790
 2413poe    c2311670   1.363   5.424   0.723  0.6623 -0.3590  0.0834
 2413poe    c2311671   1.357   5.417   0.570  0.2053 -0.1769  0.0927
 2413poe     o211672   1.351   5.545   0.511 -0.1907 -0.2334  0.0027
 2413poe    c2311673   1.400   5.537   0.379  0.4050  0.7808  0.1474
 2413poe    c2311674   1.372   5.682   0.335 -0.3574  0.4413 -0.5034
 2413poe     o211675   1.406   5.779   0.432  0.3184  0.0299 -0.3237
 2413poe    c3111676   1.401   5.909   0.379  0.4248  0.4261  0.6170
 2414poe    c3111677   0.733   4.274   2.833 -0.6754  0.2265  0.3176
 2414poe     o211678   0.732   4.326   2.964 -0.1475  0.1134  0.3672
 2414poe    c2311679   0.694   4.226   3.056 -0.2321 -0.0443  0.1613
 2414poe    c2311680   0.714   4.270   3.202 -0.0974 -0.0180  0.1356
 2414poe     o211681   0.833   4.340   3.227 -0.0924 -0.0994  0.3398
 2414poe    c2311682   0.821   4.386   3.360  0.1826 -0.1936  0.3972
 2414poe    c2311683   0.937   4.473   3.412  0.4690  0.2270 -0.9159
 2414poe     o211684   1.057   4.401   3.431 -0.0040 -0.1564  0.7745
 2414poe    c2311685   1.172   4.483   3.435 -0.1531  0.0870  0.2774
 2414poe    c2311686   1.298   4.393   3.428 -0.2939 -0.1017  0.1493
 2414poe     o211687   1.307   4.346   3.296 -1.0336 -0.2578  0.1507
 2414poe    c3111688   1.371   4.221   3.293 -0.5284  0.0122 -0.5572
 2415poe    c3111689   3.994   7.014   4.725 -0.1062 -0.0068 -0.1083
 2415poe     o211690   3.879   6.959   4.785 -0.1527  0.2998  0.0834
 2415poe    c2311691   3.793   7.067   4.817  0.1310  0.5028  0.1643
 2415poe    c2311692   3.672   7.000   4.885  0.3111 -0.1506 -0.1458
 2415poe     o211693   3.734   6.904   4.968  0.4994  0.2198  0.1437
 2415poe    c2311694   3.644   6.845   5.059 -0.1782  0.1426 -0.5705
 2415poe    c2311695   3.699   6.712   5.114  0.0527  0.4838  0.0227
 2415poe     o211696   3.840   6.722   5.122  0.0483  0.4069  0.2061
 2415poe    c2311697   3.892   6.600   5.167 -0.0881  0.2830  0.0278
 2415poe    c2311698   4.040   6.601   5.210 -0.0452 -0.2988 -0.0974
 2415poe     o211699   4.129   6.602   5.100 -0.0357  0.4739 -0.0850
 2415poe    c3111700   4.254   6.624   5.161 -0.1641 -0.6263  0.6096
 2416poe    c3111701   2.667   4.379   0.694 -0.3187  0.3494  0.4438
 2416poe     o211702   2.766   4.476   0.666 -0.0418 -0.0597 -0.0122
 2416poe    c2311703   2.849   4.498   0.777  0.0735  0.1979 -0.1455
 2416poe    c2311704   2.961   4.592   0.729  0.0468  0.1043 -0.3866
 2416poe     o211705   2.931   4.729   0.717  0.5531  0.3157  0.6895
 2416poe    c2311706   3.045   4.810   0.700  0.8301 -0.2532 -0.2202
 2416poe    c2311707   3.111   4.848   0.834 -0.1533  0.5363  0.0490
 2416poe     o211708   3.224   4.769   0.862 -0.2879  0.3606  0.0967
 2416poe    c2311709   3.266   4.782   0.996  0.3129  0.2735 -0.0831
 2416poe    c2311710   3.404   4.842   1.031  0.0597  0.2970  0.8951
 2416poe     o211711   3.500   4.802   0.936 -0.3784  0.4446  0.3870
 2416poe    c3111712   3.628   4.834   0.985 -0.1867  0.5209 -0.1613
 2417poe    c3111713   5.396   4.332   7.080  0.0522  0.2388  0.4122
 2417poe     o211714   5.261   4.293   7.092  0.1789 -0.3127  0.0869
 2417poe    c2311715   5.170   4.393   7.131  0.3252 -0.1719  0.0644
 2417poe    c2311716   5.053   4.338   7.213  0.3235  0.6012  0.5893
 2417poe     o211717   5.074   4.303   7.348 -0.3323 -0.4699  0.4259
 2417poe    c2311718   4.967   4.236   7.412 -0.1007 -1.0646  0.1850
 2417poe    c2311719   4.972   4.225   7.565 -0.1931 -0.2723  0.2472
 2417poe     o211720   4.912   4.335   7.629  0.6812  0.3670 -0.0149
 2417poe    c2311721   4.887   4.295   7.762 -0.0352 -0.0062 -0.2611
 2417poe    c2311722   4.794   4.388   7.843  0.4412  0.1656  0.0894
 2417poe     o211723   4.656   4.386   7.814  0.4181  0.1587  0.1997
 2417poe    c3111724   4.618   4.465   7.703  0.2622  0.3845  0.4140
 2418poe    c3111725   6.997   0.453   3.584  0.4193  0.4009  0.0425
 2418poe     o211726   7.089   0.355   3.541  0.3663  0.1303  0.5398
 2418poe    c2311727   7.123   0.350   3.405 -0.1783  0.3457  0.3902
 2418poe    c2311728   7.225   0.456   3.360 -0.3133  0.3954  0.1959
 2418poe     o211729   7.194   0.557   3.267 -0.4313 -0.2294 -0.4528
 2418poe    c2311730   7.318   0.623   3.253 -0.5082 -0.0275 -0.1906
 2418poe    c2311731   7.319   0.744   3.159 -0.2647  0.0772 -0.0563
 2418poe     o211732   7.387   0.710   3.040 -0.5692 -0.6182 -0.0383
 2418poe    c2311733   7.420   0.830   2.973  0.5376 -0.8845  0.0010
 2418poe    c2311734   7.436   0.787   2.826  0.1715 -0.7466 -0.0831
 2418poe     o211735   7.333   0.716   2.761 -0.4281 -0.0359  0.0812
 2418poe    c3111736   7.347   0.576   2.773 -0.3365 -0.0480 -0.1450
 2419poe    c3111737   7.249   2.349   5.403  0.0821  0.3171  0.7625
 2419poe     o211738   7.341   2.409   5.315 -0.3708 -0.5797 -0.3452
 2419poe    c2311739   7.435   2.494   5.377 -0.4414  0.0151 -1.0355
 2419poe    c2311740   7.563   2.525   5.297  0.5330 -0.4819  0.2814
 2419poe     o211741   7.644   2.419   5.251  0.1061 -0.7378  0.1089
 2419poe    c2311742   7.746   2.479   5.174  0.1009 -0.3095  0.4312
 2419poe    c2311743   7.745   2.410   5.036 -0.4975  0.4248  0.0670
 2419poe     o211744   7.623   2.440   4.973 -0.2896  0.3529 -0.3692
 2419poe    c2311745   7.622   2.377   4.847  0.3771 -0.4428  0.0155
 2419poe    c2311746   7.696   2.455   4.736 -0.0627  0.1207  0.1152
 2419poe     o211747   7.650   2.403   4.613 -0.2091  0.2079  0.1327
 2419poe    c3111748   7.744   2.446   4.518 -0.3595  0.2424 -0.0004
 2420poe    c3111749   4.280   4.375   5.266  0.2982  0.1188 -0.2661
 2420poe     o211750   4.417   4.406   5.254  0.4181 -0.3264 -0.0669
 2420poe    c2311751   4.434   4.459   5.125  0.3256  0.1462  0.1121
 2420poe    c2311752   4.555   4.402   5.048  0.5397  0.6275  0.0854
 2420poe     o211753   4.567   4.436   4.912  0.0020  0.1289 -0.0927
 2420poe    c2311754   4.534   4.345   4.809 -0.0798  0.4261 -0.3288
 2420poe    c2311755   4.599   4.374   4.672  0.2991 -0.1314 -0.2680
 2420poe     o211756   4.554   4.494   4.614 -0.0919 -0.1387  0.0136
 2420poe    c2311757   4.594   4.513   4.480 -0.4424  0.0588 -0.0645
 2420poe    c2311758   4.506   4.619   4.411 -0.4491 -0.1251 -0.3400
 2420poe     o211759   4.375   4.574   4.388 -0.1884 -1.0813  0.0074
 2420poe    c3111760   4.305   4.615   4.273 -0.6141 -1.1798  0.2291
 2421poe    c3111761   5.555   5.891   6.081 -0.6192 -0.0430 -0.0172
 2421poe     o211762   5.490   5.912   5.958 -0.4187 -0.1871 -0.1501
 2421poe    c2311763   5.439   5.792   5.905  0.2054 -0.3020 -0.4929
 2421poe    c2311764   5.398   5.798   5.757 -0.0359  0.0542 -0.4126
 2421poe     o211765   5.290   5.888   5.746 -0.0203  0.1053 -0.1602
 2421poe    c2311766   5.235   5.872   5.617  0.0081 -0.7014 -0.0746
 2421poe    c2311767   5.092   5.814   5.615 -0.3031  0.0529  0.1810
 2421poe     o211768   5.001   5.904   5.676 -0.3484  0.1091  0.0333
 2421poe    c2311769   4.878   5.844   5.707  0.1081 -0.9868 -0.2184
 2421poe    c2311770   4.785   5.963   5.735  0.8415 -0.3522 -0.4521
 2421poe     o211771   4.834   6.029   5.849 -0.1253  0.0266 -0.2426
 2421poe    c3111772   4.772   6.156   5.857 -0.9238 -0.3721  0.0032
 2422poe    c3111773   4.115   0.852   2.308 -0.0268 -0.8031  0.4924
 2422poe     o211774   4.223   0.764   2.285  0.4911 -0.2135  0.6337
 2422poe    c2311775   4.222   0.710   2.155 -0.4322  0.1654  0.4767
 2422poe    c2311776   4.344   0.621   2.125 -0.9143 -0.3568  0.0337
 2422poe     o211777   4.357   0.539   2.239 -0.3481 -0.3476 -0.0181
 2422poe    c2311778   4.466   0.451   2.229  0.5259  0.7433 -0.2667
 2422poe    c2311779   4.453   0.364   2.355  0.4962  0.1570 -0.6664
 2422poe     o211780   4.426   0.453   2.462  0.6895 -0.2933 -0.2372
 2422poe    c2311781   4.464   0.402   2.587 -0.6788  0.1019  0.3586
 2422poe    c2311782   4.439   0.506   2.698  0.3157  0.2542  0.4511
 2422poe     o211783   4.509   0.626   2.672 -0.0608  0.3420 -0.1648
 2422poe    c3111784   4.533   0.689   2.795 -0.0549 -0.3277  0.1807
 2423poe    c3111785   2.261   3.067   4.690 -0.5379 -0.0498 -0.3055
 2423poe     o211786   2.300   3.202   4.685 -0.4933 -0.0187  0.6920
 2423poe    c2311787   2.392   3.245   4.783  0.1430 -0.4033  0.2727
 2423poe    c2311788   2.330   3.303   4.912 -0.4500  0.4657 -0.3833
 2423poe     o211789   2.271   3.204   4.994  0.0133  0.7260  0.2802
 2423poe    c2311790   2.354   3.152   5.095  0.2901  0.1451 -0.2418
 2423poe    c2311791   2.345   3.245   5.217  0.2684  0.0258 -0.1521
 2423poe     o211792   2.215   3.259   5.269  0.4140  0.2614  0.1505
 2423poe    c2311793   2.189   3.362   5.362  0.1180  0.4770 -0.1696
 2423poe    c2311794   2.043   3.376   5.409  0.1069 -0.1734 -0.0040
 2423poe     o211795   1.941   3.402   5.316 -0.0738 -0.1834  0.1893
 2423poe    c3111796   1.837   3.471   5.380  0.2319  0.6849 -0.2375
 2424poe    c3111797   3.692   0.844   0.616 -0.2392  0.2005  0.1028
 2424poe     o211798   3.801   0.933   0.602 -0.0671 -0.0870 -0.3771
 2424poe    c2311799   3.796   1.039   0.694  0.3226  0.0990 -0.5660
 2424poe    c2311800   3.673   1.131   0.708  0.1651 -0.1775 -0.0564
 2424poe     o211801   3.680   1.218   0.597  0.3317  0.2706  0.3032
 2424poe    c2311802   3.627   1.349   0.610  0.1198  0.1088  1.1093
 2424poe    c2311803   3.718   1.460   0.554 -0.6334  0.0145 -0.3421
 2424poe     o211804   3.784   1.436   0.432  0.1804  0.2303  0.0471
 2424poe    c2311805   3.893   1.525   0.425  0.3305  0.0326 -0.1509
 2424poe    c2311806   3.859   1.639   0.326 -0.0853  0.0417 -0.0018
 2424poe     o211807   3.892   1.764   0.381 -0.2562  0.0640  0.0480
 2424poe    c3111808   3.937   1.865   0.294  0.1119 -0.6602 -0.6120
 2425poe    c3111809   3.094   2.140   2.504  0.3230 -0.2066  0.4562
 2425poe     o211810   3.196   2.120   2.409 -0.0445  0.1721 -0.0218
 2425poe    c2311811   3.260   2.242   2.380  0.6576 -0.1463  0.1668
 2425poe    c2311812   3.312   2.253   2.235 -0.3693 -0.0283 -0.2032
 2425poe     o211813   3.444   2.207   2.215 -0.0668  0.7018  0.0786
 2425poe    c2311814   3.453   2.137   2.093 -0.0997 -0.2380  0.6098
 2425poe    c2311815   3.580   2.054   2.068  0.2446  0.2767  0.6318
 2425poe     o211816   3.684   2.148   2.070  0.4970  0.0525 -0.6940
 2425poe    c2311817   3.802   2.089   2.019  0.3368 -0.7440 -0.1634
 2425poe    c2311818   3.868   2.195   1.929 -0.1144 -0.0311  0.3238
 2425poe     o211819   3.925   2.288   2.017 -0.0541  0.2821 -0.0402
 2425poe    c3111820   4.062   2.313   1.993  0.0006  0.2137  0.1911
 2426poe    c3111821   3.773   3.388   4.681 -0.0607  0.0537  0.0128
 2426poe     o211822   3.867   3.302   4.621 -0.0542 -0.0150  0.1206
 2426poe    c2311823   3.815   3.173   4.597 -0.0975 -0.0358  0.3245
 2426poe    c2311824   3.916   3.080   4.527 -0.0201  0.0936  0.2628
 2426poe     o211825   3.986   3.124   4.413 -0.1410  0.0881  0.1865
 2426poe    c2311826   4.091   3.037   4.378  0.0843  0.4767 -0.1083
 2426poe    c2311827   4.095   3.054   4.225  0.0355 -0.0438 -0.1687
 2426poe     o211828   4.088   3.194   4.210  0.1739 -0.0518 -0.3048
 2426poe    c2311829   4.089   3.232   4.074  0.4365 -0.2774 -0.3669
 2426poe    c2311830   4.136   3.379   4.065  0.3219 -0.2361 -0.2948
 2426poe     o211831   4.086   3.433   4.185  1.0197 -0.0200 -0.0984
 2426poe    c3111832   4.106   3.573   4.183  0.1096  0.1093 -0.7341
 2427poe    c3111833   5.396   0.657   6.552  0.4000 -0.3298 -0.3541
 2427poe     o211834   5.523   0.692   6.601  0.2199 -0.1847  0.0211
 2427poe    c2311835   5.535   0.723   6.738  0.3387 -0.1550  0.0048
 2427poe    c2311836   5.518   0.600   6.829  0.1505 -0.1595 -0.0342
 2427poe     o211837   5.605   0.492   6.802  0.2597 -0.1133  0.1347
 2427poe    c2311838   5.600   0.408   6.915  0.8189  0.2469  0.4363
 2427poe    c2311839   5.652   0.266   6.887 -0.3923 -0.1907  0.3184
 2427poe     o211840   5.752   0.276   6.787 -0.3582  0.2105  0.3925
 2427poe    c2311841   5.822   0.157   6.761 -0.6616  0.1661 -0.2265
 2427poe    c2311842   5.888   0.186   6.624 -0.1625 -0.6261 -0.1635
 2427poe     o211843   5.896   0.321   6.584  0.2915 -0.4675  0.4516
 2427poe    c3111844   5.957   0.329   6.458  0.2741 -0.3703  0.4490
 2428poe    c3111845   2.206   6.676   3.067 -0.0869  0.3254 -0.3377
 2428poe     o211846   2.117   6.687   2.959 -0.0397  0.1535 -0.3941
 2428poe    c2311847   2.032   6.578   2.930  0.2293 -0.0567 -0.3946
 2428poe    c2311848   1.923   6.625   2.832  0.5247  0.3729 -0.5194
 2428poe     o211849   1.826   6.709   2.889 -0.0001 -0.5048 -0.0907
 2428poe    c2311850   1.713   6.731   2.807  0.0454  0.4587  0.0917
 2428poe    c2311851   1.590   6.779   2.887 -0.0588  0.2676  0.0449
 2428poe     o211852   1.629   6.895   2.956  0.1578  0.2033  0.0329
 2428poe    c2311853   1.533   6.948   3.045  0.2821  0.1409  0.2056
 2428poe    c2311854   1.594   7.076   3.104 -0.1730  0.3321  0.2692
 2428poe     o211855   1.733   7.052   3.103 -0.1561  0.4411 -0.1202
 2428poe    c3111856   1.787   7.182   3.112 -0.0528  0.3581  0.4666
 2429poe    c3111857   2.699   4.586   2.891 -0.1177 -0.4821  0.2972
 2429poe     o211858   2.626   4.551   3.007 -1.0395  0.3482 -0.0098
 2429poe    c2311859   2.682   4.619   3.117 -0.0041  0.2101 -0.4397
 2429poe    c2311860   2.636   4.549   3.245  0.0054  0.1286 -0.4808
 2429poe     o211861   2.501   4.516   3.218 -0.1977  0.3451  0.2343
 2429poe    c2311862   2.439   4.474   3.337 -0.1764 -0.8912 -0.1765
 2429poe    c2311863   2.295   4.424   3.311 -0.3765 -0.7156  0.5719
 2429poe     o211864   2.286   4.325   3.211  0.0225 -0.1639 -0.0168
 2429poe    c2311865   2.288   4.195   3.266  0.4501 -0.3317 -0.4189
 2429poe    c2311866   2.233   4.087   3.172 -0.3961  0.0143 -0.3282
 2429poe     o211867   2.285   4.106   3.043  0.0896  0.1873 -0.1071
 2429poe    c3111868   2.283   3.989   2.965 -0.4458  0.1437 -0.0277
 2430poe    c3111869   4.785   0.615   2.364 -0.0186  0.2419  0.4030
 2430poe     o211870   4.923   0.642   2.350 -0.1407  0.6494 -0.0386
 2430poe    c2311871   4.944   0.764   2.281 -0.0273  0.7893  0.2404
 2430poe    c2311872   5.092   0.786   2.246  0.0463 -0.3125 -0.1958
 2430poe     o211873   5.170   0.803   2.362 -0.1618 -0.5876 -0.0157
 2430poe    c2311874   5.307   0.814   2.329 -0.1853  0.6599  0.2743
 2430poe    c2311875   5.403   0.793   2.448 -0.0853 -0.1567  0.0534
 2430poe     o211876   5.414   0.664   2.503  0.4106 -0.2143 -0.1759
 2430poe    c2311877   5.517   0.666   2.599  0.1897 -0.0148  0.0577
 2430poe    c2311878   5.521   0.520   2.647  0.3822  0.1176  0.4547
 2430poe     o211879   5.389   0.482   2.679  0.3932  0.0536  0.4247
 2430poe    c3111880   5.380   0.341   2.684  0.2347  0.0533  0.1704
 2431poe    c3111881   2.286   4.040   5.537  0.1296 -0.2213 -0.0861
 2431poe     o211882   2.224   3.937   5.612 -0.0227 -0.1307 -0.0869
 2431poe    c2311883   2.285   3.812   5.589 -0.0935 -0.1389 -0.2277
 2431poe    c2311884   2.226   3.714   5.693  0.3403 -0.4185 -0.2454
 2431poe     o211885   2.117   3.639   5.645 -0.1594  0.1579 -0.0199
 2431poe    c2311886   2.066   3.551   5.743  0.4522 -0.5845 -0.3559
 2431poe    c2311887   1.913   3.543   5.748  0.4434 -0.1402  0.1517
 2431poe     o211888   1.848   3.656   5.802 -0.4414 -0.5108 -0.1206
 2431poe    c2311889   1.709   3.641   5.825 -0.4220  0.1804  0.5100
 2431poe    c2311890   1.615   3.647   5.704 -0.1521 -0.2824  0.2715
 2431poe     o211891   1.633   3.773   5.643 -0.0993 -0.3291  0.1894
 2431poe    c3111892   1.537   3.791   5.541  0.2955 -0.0914 -0.1423
 2432poe    c3111893   6.331   3.103   6.130 -0.2969 -0.8117 -0.9831
 2432poe     o211894   6.395   3.149   6.013  0.6930  0.2033 -0.0628
 2432poe    c2311895   6.334   3.092   5.900 -0.1020 -0.2608  0.5941
 2432poe    c2311896   6.435   3.043   5.795  0.3787  0.6136  0.6404
 2432poe     o211897   6.540   2.978   5.862  0.5305 -0.2047 -0.3653
 2432poe    c2311898   6.634   2.937   5.765  0.5239  0.4218 -0.6363
 2432poe    c2311899   6.700   2.814   5.829  0.8501  0.7676 -0.3048
 2432poe     o211900   6.767   2.853   5.946  0.3401  0.0521  0.2296
 2432poe    c2311901   6.848   2.752   6.002 -0.0665 -0.2739  0.2301
 2432poe    c2311902   6.889   2.813   6.138 -0.7248 -0.0696  0.3397
 2432poe     o211903   6.770   2.862   6.195 -0.6230  0.3322  0.2067
 2432poe    c3111904   6.785   2.873   6.335 -0.4038  0.4903  0.1705
 2433poe    c3111905   1.990   3.433   4.990  0.5584  0.0435 -0.2683
 2433poe     o211906   1.967   3.316   4.914 -0.7471  0.2061 -0.1545
 2433poe    c2311907   1.990   3.337   4.776 -0.4541  0.8187 -0.0188
 2433poe    c2311908   1.885   3.262   4.691 -0.0463 -0.2889  0.4378
 2433poe     o211909   1.857   3.125   4.674 -0.6551 -0.1217  0.0901
 2433poe    c2311910   1.733   3.118   4.606 -0.5820 -0.0672 -0.0495
 2433poe    c2311911   1.698   2.969   4.592 -0.6081 -0.0527 -0.1335
 2433poe     o211912   1.659   2.915   4.716  0.3664  0.2899  0.3320
 2433poe    c2311913   1.706   2.784   4.734 -0.2087  0.0109 -0.1436
 2433poe    c2311914   1.676   2.747   4.881 -0.4779 -0.1014 -0.2263
 2433poe     o211915   1.771   2.812   4.963 -0.2207 -0.3726 -0.3075
 2433poe    c3111916   1.718   2.827   5.093 -0.7058  0.1164 -0.5604
 2434poe    c3111917   1.421   5.691   3.302 -0.2094 -0.2445 -0.2934
 2434poe     o211918   1.551   5.664   3.256 -0.2824 -0.4971 -0.3495
 2434poe    c2311919   1.585   5.538   3.310  0.4775 -0.2628 -0.2702
 2434poe    c2311920   1.736   5.519   3.286  0.6737  0.2897  0.4828
 2434poe     o211921   1.809   5.639   3.300  0.4540  0.4269  0.4502
 2434poe    c2311922   1.948   5.623   3.282  0.4094  0.2748  0.2290
 2434poe    c2311923   1.994   5.760   3.336  0.5323  0.4818 -0.3994
 2434poe     o211924   1.931   5.846   3.243  0.1310  0.4793 -0.1344
 2434poe    c2311925   1.991   5.973   3.254  0.2814  0.3996 -0.0207
 2434poe    c2311926   2.067   6.042   3.139  0.3837  0.6916  0.2212
 2434poe     o211927   1.979   6.052   3.029 -0.2097  0.0794  0.6353
 2434poe    c3111928   1.951   6.183   2.985  0.6247 -0.1527 -0.6227
 2435poe    c3111929   5.586   3.223   2.632 -0.4593 -0.2770  0.1704
 2435poe     o211930   5.626   3.338   2.703 -0.2091 -0.0711 -0.2998
 2435poe    c2311931   5.511   3.417   2.724  0.1763  0.4045  0.0526
 2435poe    c2311932   5.540   3.559   2.775 -0.9718  0.5299  0.3945
 2435poe     o211933   5.610   3.564   2.898  0.0291 -0.6025 -0.1116
 2435poe    c2311934   5.614   3.693   2.954 -0.6335 -0.7664  0.3294
 2435poe    c2311935   5.709   3.687   3.075 -0.5999  0.0882  0.3520
 2435poe     o211936   5.667   3.583   3.161 -0.3840 -0.6025 -0.3736
 2435poe    c2311937   5.759   3.553   3.263  0.2466  0.1729 -0.7021
 2435poe    c2311938   5.685   3.449   3.350  0.1928  0.4581 -0.4031
 2435poe     o211939   5.636   3.348   3.264  0.5059  0.0290 -0.0859
 2435poe    c3111940   5.586   3.238   3.337  0.1212 -0.1363 -0.5987
 2436poe    c3111941   6.277   3.356   2.417  0.2030  0.0694  0.0452
 2436poe     o211942   6.299   3.249   2.506  0.1316  0.1483  0.1583
 2436poe    c2311943   6.435   3.212   2.517  0.1518  0.2728  0.3398
 2436poe    c2311944   6.465   3.087   2.602 -0.0441  0.1896  0.2888
 2436poe     o211945   6.425   2.978   2.521  0.5187  0.4401 -0.3350
 2436poe    c2311946   6.469   2.863   2.589 -0.8509 -0.1484 -0.4175
 2436poe    c2311947   6.401   2.743   2.521  0.5375 -0.4275 -1.3592
 2436poe     o211948   6.274   2.784   2.477  0.1053 -0.2251  0.0286
 2436poe    c2311949   6.187   2.678   2.444 -0.7128  0.2277  0.6732
 2436poe    c2311950   6.035   2.697   2.459 -0.8415 -0.1112 -0.1463
 2436poe     o211951   5.963   2.578   2.440 -0.4457 -0.5295  0.8828
 2436poe    c3111952   5.828   2.594   2.479 -0.8215  0.0032 -0.5770
 2437poe    c3111953   7.235   0.196   5.613  0.1491 -0.4292  0.0523
 2437poe     o211954   7.168   0.073   5.597  0.4203 -0.5077 -0.4976
 2437poe    c2311955   7.170   0.019   5.466  0.1323  1.0996 -1.1854
 2437poe    c2311956   7.303  -0.047   5.428  0.0632  0.2186  0.0419
 2437poe     o211957   7.349  -0.141   5.523  0.5026  0.6420  0.2490
 2437poe    c2311958   7.461  -0.210   5.472  0.5072  0.6498  0.2487
 2437poe    c2311959   7.577  -0.204   5.573  0.2843  0.3040  0.5292
 2437poe     o211960   7.556  -0.275   5.693  0.3495 -0.0251  0.3452
 2437poe    c2311961   7.659  -0.256   5.787  0.8638 -0.5742 -0.1010
 2437poe    c2311962   7.693  -0.122   5.856  0.0548 -0.2589 -0.3103
 2437poe     o211963   7.579  -0.083   5.929  0.2465 -0.3656  0.0428
 2437poe    c3111964   7.603  -0.099   6.068  0.9790 -0.5238 -0.0978
 2438poe    c3111965   3.375   5.165   0.718 -0.1432 -1.3235  0.3207
 2438poe     o211966   3.377   5.134   0.580  0.0255 -0.2715  0.0819
 2438poe    c2311967   3.307   5.227   0.500  0.0146 -0.0889  0.3002
 2438poe    c2311968   3.259   5.186   0.360 -0.3572  0.2936  0.3160
 2438poe     o211969   3.378   5.181   0.285 -0.5042 -0.0719  0.1023
 2438poe    c2311970   3.369   5.191   0.145  0.1915 -0.1053  0.0504
 2438poe    c2311971   3.506   5.214   0.078  0.3815 -0.4127  0.3340
 2438poe     o211972   3.543   5.336   0.018 -0.4399 -0.4507 -0.2622
 2438poe    c2311973   3.628   5.328  -0.093  0.1507  0.5785  0.0981
 2438poe    c2311974   3.701   5.463  -0.099  0.1015  0.6288  0.6035
 2438poe     o211975   3.817   5.460  -0.019  0.4730 -0.5031  0.0428
 2438poe    c3111976   3.906   5.564  -0.053  0.4332 -0.5605 -0.2401
 2439poe    c3111977   5.941   5.531   0.451 -0.2644 -0.2931 -0.4626
 2439poe     o211978   6.021   5.472   0.351  0.2714  0.3115 -0.3931
 2439poe    c2311979   6.011   5.540   0.228  0.1082  0.6958 -0.1693
 2439poe    c2311980   6.043   5.440   0.115 -0.2906  0.4098 -0.0302
 2439poe     o211981   5.961   5.332   0.076 -0.0433  0.1725  0.0990
 2439poe    c2311982   6.018   5.250  -0.023 -0.2132 -0.3647  0.4439
 2439poe    c2311983   5.934   5.122  -0.037  0.1250 -0.5390  0.0041
 2439poe     o211984   5.940   5.048   0.083  0.4652 -0.3321  0.1153
 2439poe    c2311985   5.830   4.960   0.082 -0.3121  0.6005  0.6757
 2439poe    c2311986   5.797   4.905   0.222 -0.1754  0.0971  0.5162
 2439poe     o211987   5.745   5.008   0.304 -0.3925 -0.1249  0.6582
 2439poe    c3111988   5.607   4.982   0.320 -0.5167  0.0552 -0.0605
 2440poe    c3111989   1.162   2.745   3.482 -0.0489  0.2430 -0.1688
 2440poe     o211990   1.231   2.622   3.488 -0.3515  0.0664 -0.2630
 2440poe    c2311991   1.363   2.637   3.440 -0.1545  0.1490  0.2903
 2440poe    c2311992   1.428   2.503   3.403  0.1132  0.2665  0.3335
 2440poe     o211993   1.399   2.415   3.510  0.6215  0.3379  0.5330
 2440poe    c2311994   1.498   2.316   3.493  0.1123 -0.0328 -0.3390
 2440poe    c2311995   1.464   2.233   3.618 -0.3285  0.3800 -0.1823
 2440poe     o211996   1.330   2.189   3.616 -0.0348 -0.5165 -0.5952
 2440poe    c2311997   1.276   2.154   3.741  0.3152  0.0558 -0.2797
 2440poe    c2311998   1.122   2.154   3.732  0.2735 -0.1429  0.3364
 2440poe     o211999   1.054   2.139   3.854  0.0362 -0.5208  0.1599
 2440poe    c3112000   0.924   2.092   3.828  0.0663 -0.7191  0.3606
 2441poe    c3112001   0.562   4.989   5.622 -0.0891  0.0360 -0.1609
 2441poe     o212002   0.661   5.040   5.708  0.1879 -0.2865 -0.2852
 2441poe    c2312003   0.753   4.943   5.754  0.2895 -0.0486  0.0165
 2441poe    c2312004   0.821   4.994   5.883  0.0222  0.5580 -0.0794
 2441poe     o212005   0.950   5.044   5.857  0.1630  0.2439  0.0107
 2441poe    c2312006   1.021   5.080   5.973  0.1502 -0.0109  0.0982
 2441poe    c2312007   1.149   5.161   5.944  0.3131 -0.0941  0.5718
 2441poe     o212008   1.119   5.289   5.893  0.3276 -0.3686 -0.1364
 2441poe    c2312009   1.232   5.355   5.841  0.5007  0.2835  1.0189
 2441poe    c2312010   1.225   5.508   5.833 -0.2303  0.2210  0.3071
 2441poe     o212011   1.253   5.555   5.964  0.4243 -0.1402  0.3023
 2441poe    c3112012   1.237   5.694   5.973 -0.1773 -0.2080  0.3560
 2442poe    c3112013   1.414   4.454   2.894 -0.3215 -0.2036 -0.1961
 2442poe     o212014   1.345   4.577   2.899 -0.2556 -0.2035  0.8276
 2442poe    c2312015   1.428   4.666   2.972  0.0091  0.0048  0.2772
 2442poe    c2312016   1.375   4.810   2.968  0.8319  0.2983 -0.2507
 2442poe     o212017   1.255   4.837   3.036  0.6023  0.0709 -0.5656
 2442poe    c2312018   1.226   4.974   3.048 -0.6992 -0.2352  0.0217
 2442poe    c2312019   1.199   5.051   2.918 -0.2180 -0.1224 -0.0153
 2442poe     o212020   1.103   5.004   2.826 -0.0968 -0.3354 -0.0327
 2442poe    c2312021   0.976   5.040   2.875  0.0173 -0.5418  0.4177
 2442poe    c2312022   0.858   5.019   2.779  0.7980 -0.2352 -0.6276
 2442poe     o212023   0.818   4.884   2.780 -0.7719  0.2059  0.0708
 2442poe    c3112024   0.703   4.875   2.700 -0.3823  0.1056 -0.4811
 2443poe    c3112025   2.606   1.178   0.742  0.1506 -0.1512 -0.2319
 2443poe     o212026   2.624   1.306   0.685  0.1258 -0.2132 -0.3799
 2443poe    c2312027   2.684   1.315   0.558  0.3171  0.4980 -0.2394
 2443poe    c2312028   2.721   1.455   0.505  0.3209  0.6109  0.0570
 2443poe     o212029   2.605   1.524   0.464  0.0771 -0.2862 -0.8060
 2443poe    c2312030   2.630   1.659   0.430 -0.3431  0.1147  0.4222
 2443poe    c2312031   2.499   1.722   0.380 -0.0881 -0.3431 -0.8504
 2443poe     o212032   2.391   1.669   0.453  0.2028  0.6382  0.3240
 2443poe    c2312033   2.269   1.720   0.406 -0.2452 -0.1823  0.5668
 2443poe    c2312034   2.154   1.688   0.503 -0.9559  0.1454 -0.1595
 2443poe     o212035   2.148   1.547   0.504  0.0506  0.1009  0.8821
 2443poe    c3112036   2.061   1.504   0.607  0.0866 -0.8074  0.5429
 2444poe    c3112037   5.432   4.343   2.075  0.2683  0.2537  0.5747
 2444poe     o212038   5.380   4.437   1.983  0.0798  0.1759  0.6020
 2444poe    c2312039   5.425   4.566   2.020  0.3185  0.2600  0.0170
 2444poe    c2312040   5.387   4.671   1.914 -0.4740  0.0385  0.0769
 2444poe     o212041   5.247   4.680   1.921 -0.5016 -0.1822 -0.1920
 2444poe    c2312042   5.194   4.764   1.821 -0.6341  0.1760  0.1778
 2444poe    c2312043   5.120   4.687   1.710 -0.2541  0.1129 -0.0320
 2444poe     o212044   5.019   4.612   1.773  0.0340  0.0590  0.3659
 2444poe    c2312045   4.921   4.569   1.681  0.8085 -0.8378 -0.0634
 2444poe    c2312046   4.796   4.519   1.755  0.4386  0.2772  0.0853
 2444poe     o212047   4.720   4.614   1.826  0.5537  0.2075  0.3028
 2444poe    c3112048   4.582   4.586   1.814  0.5065  0.6002 -0.1159
 2445poe    c3112049   5.635   1.359   3.514 -0.3457 -0.0144  0.5094
 2445poe     o212050   5.560   1.477   3.499 -0.1492  0.0628  0.1177
 2445poe    c2312051   5.427   1.463   3.544 -0.0627 -0.2336  0.2874
 2445poe    c2312052   5.396   1.463   3.695  0.6498  0.2926  0.4391
 2445poe     o212053   5.402   1.333   3.749  0.3683  0.0363 -0.1298
 2445poe    c2312054   5.441   1.330   3.885 -0.2254  0.0812  0.0457
 2445poe    c2312055   5.409   1.205   3.969 -0.1728  0.1313  0.1406
 2445poe     o212056   5.273   1.179   3.998 -0.0856 -0.1403  0.3053
 2445poe    c2312057   5.192   1.134   3.892  0.3320 -0.1193 -0.0268
 2445poe    c2312058   5.082   1.040   3.944 -0.1537  0.4755  0.0446
 2445poe     o212059   5.062   0.911   3.889 -0.3452  0.6730 -0.3474
 2445poe    c3112060   4.946   0.847   3.936  0.3162 -0.3706 -0.1195
 2446poe    c3112061   5.055   0.467   4.049 -0.2176  0.4363  0.0406
 2446poe     o212062   4.992   0.464   3.923  0.3378 -0.0796 -0.2365
 2446poe    c2312063   4.852   0.482   3.934  0.4280  0.4355  0.0653
 2446poe    c2312064   4.782   0.420   3.812 -0.1319  0.4151  0.3925
 2446poe     o212065   4.764   0.503   3.700  1.0910 -0.3245 -0.3815
 2446poe    c2312066   4.727   0.429   3.586 -0.4870  0.1619 -0.2071
 2446poe    c2312067   4.820   0.449   3.465  0.6632  0.0766  0.6486
 2446poe     o212068   4.949   0.393   3.471  0.7338  0.1271 -0.2998
 2446poe    c2312069   5.008   0.366   3.345  0.0021 -0.3112 -0.5554
 2446poe    c2312070   5.140   0.291   3.369  0.0834 -0.0384 -0.1230
 2446poe     o212071   5.250   0.371   3.405  0.1838 -0.3463  0.2647
 2446poe    c3112072   5.373   0.302   3.413  0.0979 -0.5143  0.1378
 2447poe    c3112073   2.570   3.972   0.989  0.0328  0.2776  0.2688
 2447poe     o212074   2.491   4.007   1.101 -0.7482  0.3044 -0.2762
 2447poe    c2312075   2.580   4.069   1.192 -0.5441  0.0913 -0.3282
 2447poe    c2312076   2.485   4.132   1.296  0.2432  0.0537  0.4255
 2447poe     o212077   2.406   4.028   1.349 -0.0403  0.2576  0.4069
 2447poe    c2312078   2.311   4.053   1.450 -0.8797  0.1718 -0.3535
 2447poe    c2312079   2.233   3.926   1.488  0.8523 -0.7794  0.1368
 2447poe     o212080   2.203   3.861   1.366 -0.0532 -0.8961  0.4069
 2447poe    c2312081   2.133   3.745   1.402 -0.5955 -0.8439 -0.4636
 2447poe    c2312082   2.015   3.705   1.311 -1.0509 -0.2856 -0.1231
 2447poe     o212083   1.928   3.807   1.269 -0.3713  0.2735 -0.1951
 2447poe    c3112084   1.837   3.750   1.178  0.0881  0.1788 -0.6021
 2448poe    c3112085   6.831   1.052   2.012  0.7231 -0.4260  0.3493
 2448poe     o212086   6.922   1.015   1.910  0.2888  0.6768 -0.4561
 2448poe    c2312087   6.853   1.008   1.788  0.2936  0.9526 -0.4769
 2448poe    c2312088   6.946   1.023   1.666  0.6166 -0.1233 -0.3737
 2448poe     o212089   7.024   1.139   1.649  0.6553 -0.1373 -0.2902
 2448poe    c2312090   7.088   1.126   1.524  0.3267 -0.0124 -0.4694
 2448poe    c2312091   7.199   1.230   1.502  0.5492 -0.2758 -0.5928
 2448poe     o212092   7.294   1.226   1.607  0.4684 -0.4291 -0.5255
 2448poe    c2312093   7.422   1.268   1.565  0.4668 -0.4961 -0.5969
 2448poe    c2312094   7.493   1.375   1.650 -0.4527 -0.4602  0.1433
 2448poe     o212095   7.545   1.335   1.775  0.2463  0.1509  0.0527
 2448poe    c3112096   7.679   1.292   1.771  0.2302  0.1185 -0.1533
 2449poe    c3112097   5.949   2.305   4.213  0.1404  0.1130  0.4317
 2449poe     o212098   5.842   2.227   4.264 -0.1272  0.0649 -0.1943
 2449poe    c2312099   5.759   2.313   4.338 -0.5054 -0.0672 -0.4630
 2449poe    c2312100   5.675   2.257   4.454 -0.2023  0.5941  0.0851
 2449poe     o212101   5.765   2.206   4.551 -0.4006 -0.1693 -0.1255
 2449poe    c2312102   5.698   2.189   4.674 -0.1380  0.2643  0.0782
 2449poe    c2312103   5.789   2.109   4.769  0.0384  0.4054  0.0304
 2449poe     o212104   5.917   2.166   4.784  0.0125  0.4984 -0.1018
 2449poe    c2312105   6.022   2.079   4.820 -0.2804  0.4386  0.6370
 2449poe    c2312106   6.139   2.177   4.842 -0.1691  0.6710 -0.8948
 2449poe     o212107   6.157   2.279   4.746 -0.2042  0.9553 -0.5987
 2449poe    c3112108   6.241   2.239   4.640 -0.2479 -0.5760 -0.0785
 2450poe    c3112109   4.437   3.383   4.330  0.1953  0.3276 -0.0127
 2450poe     o212110   4.507   3.352   4.212  0.0124 -0.4546  0.0781
 2450poe    c2312111   4.644   3.387   4.213 -0.1142  0.0611 -0.3092
 2450poe    c2312112   4.696   3.350   4.073  0.6544  0.4055 -0.1164
 2450poe     o212113   4.691   3.211   4.049  0.4786  0.3532  0.2192
 2450poe    c2312114   4.705   3.181   3.911  0.2296  0.0059  0.2679
 2450poe    c2312115   4.733   3.030   3.900  0.2309  0.0068  0.2597
 2450poe     o212116   4.625   2.946   3.933  0.0615 -0.0119 -0.3251
 2450poe    c2312117   4.646   2.818   3.877 -0.4800 -0.1829 -0.1398
 2450poe    c2312118   4.550   2.706   3.921 -0.1265 -0.6551 -0.5566
 2450poe     o212119   4.552   2.657   4.054 -0.6310  0.3121 -0.1815
 2450poe    c3112120   4.662   2.575   4.081 -0.6041  0.1148 -0.8608
 2451poe    c3112121   0.664   2.551   1.985  0.3959 -0.0034  0.2638
 2451poe     o212122   0.525   2.563   1.972  0.4906  0.6832 -0.1422
 2451poe    c2312123   0.463   2.606   2.091  0.2644 -0.5188  0.1818
 2451poe    c2312124   0.315   2.632   2.055  0.2280 -0.8573  0.0761
 2451poe     o212125   0.265   2.539   1.962 -0.3491 -0.2468 -0.2331
 2451poe    c2312126   0.125   2.550   1.953 -0.4017  0.1227  0.8656
 2451poe    c2312127   0.049   2.434   1.888  1.2065 -0.9124  0.7898
 2451poe     o212128   0.088   2.419   1.753 -0.0257  0.5759  0.2333
 2451poe    c2312129   0.016   2.317   1.688  0.3136  0.0747  0.6328
 2451poe    c2312130   0.108   2.229   1.601 -1.1159 -0.6493 -0.1879
 2451poe     o212131   0.178   2.158   1.701 -0.2173  0.9496  0.3598
 2451poe    c3112132   0.309   2.124   1.661 -0.2826  0.2672  0.7094
 2452poe    c3112133   5.870   6.850   3.314  0.3805 -0.1680  0.5160
 2452poe     o212134   5.979   6.940   3.312  0.1033  0.1700  0.4995
 2452poe    c2312135   6.075   6.921   3.413 -0.1789 -0.3079  0.6800
 2452poe    c2312136   6.150   7.054   3.431 -0.1776 -0.1843 -0.2220
 2452poe     o212137   6.194   7.113   3.311  0.5945 -0.2924  0.0056
 2452poe    c2312138   6.217   7.252   3.320 -0.1450 -0.1509 -0.2013
 2452poe    c2312139   6.237   7.304   3.176 -0.3079  1.1459  0.2318
 2452poe     o212140   6.114   7.294   3.109 -0.2265  0.3105  0.1946
 2452poe    c2312141   6.136   7.338   2.977 -0.7152 -0.2861 -0.0959
 2452poe    c2312142   6.032   7.288   2.876 -0.2437  0.5738 -1.0180
 2452poe     o212143   6.029   7.148   2.867  0.6071  0.5094 -0.3705
 2452poe    c3112144   5.969   7.090   2.753  0.3325 -0.3642  0.2069
 2453poe    c3112145   6.134   2.924   6.682  0.3092 -0.0025  0.2077
 2453poe     o212146   6.114   3.019   6.784  0.1790  0.3207 -0.1147
 2453poe    c2312147   6.027   3.120   6.739 -0.5576 -0.1113  0.3242
 2453poe    c2312148   6.007   3.235   6.840  0.4712  0.0896  0.3087
 2453poe     o212149   5.994   3.154   6.955 -0.1110  0.1028  0.2529
 2453poe    c2312150   5.962   3.229   7.070 -0.2327  0.0507  0.2534
 2453poe    c2312151   5.860   3.142   7.144 -0.1459 -0.1890  0.0924
 2453poe     o212152   5.897   3.013   7.188 -0.1210 -0.2148 -0.0040
 2453poe    c2312153   5.804   2.962   7.281 -0.1622 -0.0619  0.0391
 2453poe    c2312154   5.887   2.893   7.391  0.1291 -0.1150 -0.2129
 2453poe     o212155   5.990   2.806   7.350  0.1026 -0.3134  0.1351
 2453poe    c3112156   6.103   2.826   7.433  0.0563 -0.0652  0.1409
 2454poe    c3112157   7.195   0.203   1.776  0.2353  0.2641  0.0390
 2454poe     o212158   7.172   0.215   1.915 -0.2185 -0.8538  0.0716
 2454poe    c2312159   7.192   0.088   1.973 -0.2437 -0.6769  0.4651
 2454poe    c2312160   7.152   0.100   2.122 -0.7450  0.2755  0.2614
 2454poe     o212161   7.195   0.223   2.175 -0.3493  0.3605 -0.2425
 2454poe    c2312162   7.176   0.225   2.315  0.3864  0.5770 -0.1443
 2454poe    c2312163   7.245   0.335   2.397 -0.0466  0.3678  0.5067
 2454poe     o212164   7.200   0.465   2.365  0.2634  0.4482  0.3909
 2454poe    c2312165   7.305   0.555   2.393  0.7939 -0.1147  0.2265
 2454poe    c2312166   7.259   0.702   2.385  1.2014 -0.0009 -0.0402
 2454poe     o212167   7.239   0.731   2.249 -0.8963  0.0219  0.2464
 2454poe    c3112168   7.206   0.867   2.240  0.6439  0.3879 -0.1576
 2455poe    c3112169   1.173   5.031   1.827 -0.1885  0.4326  0.5318
 2455poe     o212170   1.080   5.026   1.721  0.1176  0.7015  0.2500
 2455poe    c2312171   1.117   4.975   1.595 -1.3589 -0.9861  0.4615
 2455poe    c2312172   1.019   5.018   1.484 -0.3360  0.1385 -0.0312
 2455poe     o212173   0.887   4.991   1.526 -0.5005 -0.0115 -0.6252
 2455poe    c2312174   0.800   5.001   1.416 -0.6664 -0.6116 -0.5518
 2455poe    c2312175   0.658   4.965   1.464 -0.8188  0.3004 -0.2951
 2455poe     o212176   0.610   5.068   1.548 -0.4514  0.5697 -0.4136
 2455poe    c2312177   0.492   5.046   1.622 -0.2051  0.7633  0.0393
 2455poe    c2312178   0.473   5.173   1.707 -0.1768  0.4454  0.5209
 2455poe     o212179   0.594   5.240   1.736  0.1196  0.1893 -0.1126
 2455poe    c3112180   0.559   5.328   1.841  0.3689 -0.0542  0.1767
 2456poe    c3112181   0.613   1.891   5.290 -0.8238 -0.2724 -0.7770
 2456poe     o212182   0.521   1.930   5.388 -0.2637  0.3770 -0.5046
 2456poe    c2312183   0.417   1.834   5.388 -0.1315  0.2308 -0.1454
 2456poe    c2312184   0.332   1.864   5.512 -0.1766 -0.0557 -0.1072
 2456poe     o212185   0.304   2.002   5.528  0.0166 -0.0700  0.3712
 2456poe    c2312186   0.270   2.040   5.659 -0.1678  0.0361  0.2923
 2456poe    c2312187   0.391   2.085   5.742 -0.4335  0.5527  0.4018
 2456poe     o212188   0.438   2.205   5.683  0.2836  0.2106  0.2604
 2456poe    c2312189   0.526   2.272   5.770  0.7008 -0.6028  0.4766
 2456poe    c2312190   0.569   2.410   5.717  0.1246 -0.4636  0.3646
 2456poe     o212191   0.676   2.397   5.627  0.0956 -0.7085  0.3651
 2456poe    c3112192   0.797   2.450   5.677 -0.0708  0.2553 -0.2266
 2457poe    c3112193   3.586   6.789   2.937 -0.6763 -0.5130  0.1754
 2457poe     o212194   3.624   6.719   2.821 -0.0648  0.0110  0.0554
 2457poe    c2312195   3.763   6.729   2.802  0.0840 -0.7848  0.7051
 2457poe    c2312196   3.813   6.647   2.682 -0.4796 -0.2475  0.1013
 2457poe     o212197   3.733   6.708   2.583  0.1988  0.0670 -0.2577
 2457poe    c2312198   3.740   6.643   2.458 -0.2764 -0.6920  0.1070
 2457poe    c2312199   3.630   6.686   2.360  0.2031  0.6511  0.1285
 2457poe     o212200   3.510   6.636   2.416  0.1722 -0.2856 -0.7235
 2457poe    c2312201   3.398   6.671   2.338 -0.3396  0.1560  0.1916
 2457poe    c2312202   3.269   6.590   2.361  0.0192 -0.3339  0.5146
 2457poe     o212203   3.208   6.618   2.485 -0.7112  0.9511 -0.1198
 2457poe    c3112204   3.077   6.567   2.496 -0.0894 -0.6621 -0.0151
 2458poe    c3112205   4.594   0.910   2.197  0.4032  0.0010 -0.5426
 2458poe     o212206   4.686   1.016   2.209  0.5937 -0.2403  0.1604
 2458poe    c2312207   4.699   1.064   2.341  0.2422 -0.9992  0.4784
 2458poe    c2312208   4.834   1.136   2.357 -0.1995 -0.0404 -0.0049
 2458poe     o212209   4.866   1.187   2.230  0.4637  0.1681  0.2400
 2458poe    c2312210   4.989   1.256   2.237  0.2384  0.5972  0.0391
 2458poe    c2312211   5.036   1.297   2.096  0.0255  0.2896 -0.1240
 2458poe     o212212   4.952   1.395   2.038 -0.5214  0.0075  0.1821
 2458poe    c2312213   4.970   1.431   1.903 -0.4657  0.3540  0.2823
 2458poe    c2312214   4.849   1.523   1.880 -0.2401  0.5763 -0.0226
 2458poe     o212215   4.725   1.460   1.899  0.2298 -0.2950  0.2055
 2458poe    c3112216   4.627   1.556   1.867  0.4800 -0.2983 -0.6089
 2459poe    c3112217   6.847   1.079   5.645  0.0894  0.1275  0.5118
 2459poe     o212218   6.866   1.195   5.566  0.3804 -0.3360 -0.1027
 2459poe    c2312219   6.824   1.317   5.622  0.7286 -0.2378 -0.0554
 2459poe    c2312220   6.874   1.432   5.532 -0.4722  0.1039 -0.3024
 2459poe     o212221   7.005   1.417   5.482  0.0778  0.6148  0.9472
 2459poe    c2312222   7.031   1.544   5.427 -0.4697  0.2398 -0.2020
 2459poe    c2312223   7.140   1.537   5.319 -0.0318  0.2901  0.2353
 2459poe     o212224   7.110   1.443   5.218  0.4203  0.0577  0.3145
 2459poe    c2312225   7.189   1.468   5.104 -0.2844  0.2585 -0.1304
 2459poe    c2312226   7.149   1.357   5.005 -0.2480 -0.1145  0.2689
 2459poe     o212227   7.135   1.233   5.071 -0.3403 -0.1703  0.1463
 2459poe    c3112228   7.095   1.126   4.990 -0.4573 -0.1608  0.1904
 2460poe    c3112229   0.723   5.994   0.975 -0.3610  1.0873  0.0375
 2460poe     o212230   0.593   5.999   1.031 -0.1202 -0.4683  0.7804
 2460poe    c2312231   0.494   5.940   0.950  0.2968  0.2806 -0.2985
 2460poe    c2312232   0.349   5.985   0.972  0.3732  0.1008  0.6280
 2460poe     o212233   0.293   5.952   1.097 -0.0836 -0.2171  0.3430
 2460poe    c2312234   0.245   6.074   1.148 -0.3602 -0.5034  0.7793
 2460poe    c2312235   0.199   6.073   1.295 -0.2472  0.0880  0.8228
 2460poe     o212236   0.072   6.022   1.327 -0.5530  0.0298 -0.4189
 2460poe    c2312237  -0.043   6.084   1.274 -1.0972 -0.4558  0.1649
 2460poe    c2312238  -0.097   6.215   1.335  0.0987  0.1113  0.0415
 2460poe     o212239  -0.157   6.177   1.457  0.0851  0.2402  0.0744
 2460poe    c3112240  -0.237   6.277   1.518  0.9131  1.0995 -0.2252
 2461poe    c3112241   3.173   3.503   6.603  0.4437  0.2744  0.3778
 2461poe     o212242   3.118   3.627   6.642  0.1329  0.1664  0.2865
 2461poe    c2312243   3.194   3.702   6.734  0.3537  0.2894  0.0031
 2461poe    c2312244   3.311   3.780   6.670  0.5897 -0.0034  0.0778
 2461poe     o212245   3.275   3.891   6.591  0.3027  0.3530  0.7042
 2461poe    c2312246   3.397   3.921   6.528  0.2901  0.0333  0.5219
 2461poe    c2312247   3.410   4.033   6.423  0.5503 -0.4040  0.0899
 2461poe     o212248   3.370   3.997   6.292  0.7923  0.2869 -0.1802
 2461poe    c2312249   3.367   4.110   6.209  0.2425 -0.0315 -0.6002
 2461poe    c2312250   3.345   4.075   6.060 -0.1948 -1.0402 -0.3074
 2461poe     o212251   3.451   3.999   6.008  0.5338 -0.1444 -0.1734
 2461poe    c3112252   3.417   3.962   5.876  0.0717 -0.2730 -0.0185
 2462poe    c3112253   2.012   1.995   4.546  0.2541 -1.0517 -0.1231
 2462poe     o212254   1.957   2.013   4.675  0.5042  0.0039 -0.1556
 2462poe    c2312255   1.822   2.048   4.691  0.5538  0.2348 -0.2434
 2462poe    c2312256   1.766   2.113   4.819  0.1763 -0.4662 -0.0480
 2462poe     o212257   1.751   2.016   4.920 -0.0540 -0.1776  0.1974
 2462poe    c2312258   1.695   2.071   5.037 -0.3775 -0.5410  0.2158
 2462poe    c2312259   1.611   1.972   5.120 -0.0414 -0.2657  0.8895
 2462poe     o212260   1.501   1.942   5.038  0.5401 -0.4094  0.1512
 2462poe    c2312261   1.444   1.820   5.080  0.0756 -0.3413 -0.2631
 2462poe    c2312262   1.339   1.767   4.980  0.2445 -0.2058 -0.5155
 2462poe     o212263   1.214   1.830   4.995 -0.0155 -0.7767 -0.2393
 2462poe    c3112264   1.108   1.747   4.951  0.1941 -1.0098 -0.3075
 2463poe    c3112265   2.089   1.093   3.204  0.2326  0.4679  0.1979
 2463poe     o212266   2.086   0.952   3.210  0.0608  0.4481 -0.2651
 2463poe    c2312267   2.190   0.919   3.300 -0.3060 -0.4316 -0.1609
 2463poe    c2312268   2.180   0.772   3.347 -0.5776 -0.2420  0.3731
 2463poe     o212269   2.199   0.682   3.241 -0.1279 -0.0328  0.2743
 2463poe    c2312270   2.224   0.553   3.290 -0.7530 -0.2423  0.0503
 2463poe    c2312271   2.209   0.448   3.178 -0.2394 -0.2241 -0.0371
 2463poe     o212272   2.072   0.442   3.144 -0.2922  0.3348  0.0649
 2463poe    c2312273   2.029   0.350   3.047 -0.2833 -0.6174  0.9498
 2463poe    c2312274   1.879   0.369   3.021 -0.1048 -0.2700  0.1448
 2463poe     o212275   1.831   0.488   3.078  0.2902  0.1390 -0.3724
 2463poe    c3112276   1.691   0.484   3.082  0.2480  0.7357 -1.0424
 2464poe    c3112277   1.869   3.741   6.327 -0.0028 -0.1391 -0.4597
 2464poe     o212278   1.986   3.763   6.251  0.2450 -0.1325 -0.0796
 2464poe    c2312279   2.089   3.666   6.261  0.4799  0.1174 -0.0717
 2464poe    c2312280   2.190   3.693   6.149  0.9795 -0.0945  0.3261
 2464poe     o212281   2.189   3.828   6.108 -0.1447 -0.1827  0.0527
 2464poe    c2312282   2.316   3.868   6.063 -0.2911  0.0753 -0.1401
 2464poe    c2312283   2.314   4.001   5.986  0.5993  0.1500 -0.0514
 2464poe     o212284   2.235   4.094   6.057  0.4708 -0.1591  0.2133
 2464poe    c2312285   2.231   4.209   5.976  0.6681 -0.1175  0.2629
 2464poe    c2312286   2.138   4.309   6.048 -0.5900 -1.1218  0.0769
 2464poe     o212287   2.150   4.327   6.187 -0.6717  0.3539 -0.0898
 2464poe    c3112288   2.177   4.458   6.234  0.0680  0.0670  0.3159
 2465poe    c3112289   5.826   1.653   6.309  0.0743  0.8242 -0.1201
 2465poe     o212290   5.692   1.689   6.335 -0.0698  0.1716  0.0701
 2465poe    c2312291   5.602   1.655   6.231 -0.1314  0.0171  0.1747
 2465poe    c2312292   5.464   1.722   6.240 -0.4004 -0.4568 -0.3614
 2465poe     o212293   5.425   1.701   6.374 -0.0386  0.3398 -0.1240
 2465poe    c2312294   5.314   1.779   6.411 -0.5267 -0.2724 -0.2686
 2465poe    c2312295   5.286   1.773   6.563  0.1585  0.0461 -0.1255
 2465poe     o212296   5.418   1.790   6.611  0.1691  0.1633 -0.1934
 2465poe    c2312297   5.420   1.815   6.750 -0.1411  0.0409 -0.1645
 2465poe    c2312298   5.461   1.961   6.775 -0.2549 -0.0173  0.3667
 2465poe     o212299   5.600   1.979   6.759 -0.3206  0.0068 -0.2141
 2465poe    c3112300   5.649   2.091   6.830  0.2462 -0.9684  0.9877
 2466poe    c3112301   3.938   5.009   0.390 -0.0204 -0.1919 -0.0099
 2466poe     o212302   4.004   4.908   0.317  0.0183 -0.1481 -0.0362
 2466poe    c2312303   4.025   4.788   0.387  0.5715 -0.1585 -0.2181
 2466poe    c2312304   4.038   4.659   0.305 -0.5799 -0.2853 -0.2107
 2466poe     o212305   4.141   4.674   0.210 -0.6155 -0.1184 -0.2240
 2466poe    c2312306   4.146   4.545   0.152  0.2354 -0.1977  0.0100
 2466poe    c2312307   4.269   4.529   0.061  0.0594 -0.7055 -0.1429
 2466poe     o212308   4.267   4.602  -0.060  0.1609 -0.5996 -0.0816
 2466poe    c2312309   4.371   4.579  -0.152  0.1198 -0.4753 -0.1590
 2466poe    c2312310   4.317   4.620  -0.290 -0.1115  0.7663  0.2872
 2466poe     o212311   4.239   4.737  -0.300  0.5172  1.1265 -0.5714
 2466poe    c3112312   4.173   4.726  -0.424 -0.0784  0.4437 -0.2028
 2467poe    c3112313   5.133   1.568   5.314  0.3962  0.0525  0.2665
 2467poe     o212314   5.158   1.699   5.267  0.2581 -0.0135  0.0037
 2467poe    c2312315   5.251   1.696   5.160  0.1979 -0.4505 -0.0389
 2467poe    c2312316   5.182   1.669   5.025  0.4483  0.9029 -0.4553
 2467poe     o212317   5.094   1.771   4.986  0.0004  0.6561 -0.1164
 2467poe    c2312318   5.045   1.735   4.858  0.2444 -0.1193  0.0066
 2467poe    c2312319   4.985   1.853   4.780  0.3868  0.1275  0.2650
 2467poe     o212320   4.864   1.899   4.835  0.3450  0.7419 -0.3249
 2467poe    c2312321   4.764   1.966   4.763 -0.0976 -0.0080 -0.4133
 2467poe    c2312322   4.633   1.974   4.844  0.3624  0.0342  0.3242
 2467poe     o212323   4.662   2.030   4.971  0.1574  1.0402 -0.0659
 2467poe    c3112324   4.548   2.049   5.052 -0.2464  0.0225 -0.3728
 2468poe    c3112325   5.473   1.659   1.790  0.0448 -0.0347 -0.0109
 2468poe     o212326   5.599   1.599   1.810 -0.0499 -0.1279  0.3074
 2468poe    c2312327   5.685   1.673   1.894 -0.3506  0.2942  0.2512
 2468poe    c2312328   5.784   1.580   1.969 -0.3413  0.4379  0.4192
 2468poe     o212329   5.720   1.488   2.055  0.4464 -0.3710  0.1507
 2468poe    c2312330   5.822   1.405   2.105  0.3692 -0.3245  0.3836
 2468poe    c2312331   5.749   1.302   2.194  0.0234 -0.5675 -0.1784
 2468poe     o212332   5.658   1.230   2.114 -0.0844 -0.3271 -0.2717
 2468poe    c2312333   5.635   1.108   2.180  0.0891 -0.3234 -0.2048
 2468poe    c2312334   5.544   1.043   2.074 -0.2904 -0.4248  0.1815
 2468poe     o212335   5.451   1.141   2.036 -0.3460 -0.4048  0.3639
 2468poe    c3112336   5.329   1.077   2.005 -0.2930 -0.1578 -0.3879
 2469poe    c3112337   4.028   1.234   4.370  0.3027 -0.0982 -0.0816
 2469poe     o212338   4.084   1.347   4.432 -0.0433 -0.0991  0.2305
 2469poe    c2312339   4.146   1.306   4.552 -0.4166 -0.5781  0.2635
 2469poe    c2312340   4.193   1.421   4.643 -0.6487 -0.1344 -0.1733
 2469poe     o212341   4.118   1.535   4.678  0.0415  0.2263  0.1558
 2469poe    c2312342   4.166   1.586   4.800  0.6871 -0.7781  0.3352
 2469poe    c2312343   4.067   1.643   4.904  0.5508 -0.3332 -0.0345
 2469poe     o212344   4.013   1.537   4.979 -0.3612  0.2918  0.2101
 2469poe    c2312345   3.891   1.566   5.044 -0.6266 -0.0638 -0.1251
 2469poe    c2312346   3.832   1.433   5.092  0.1674 -0.4341 -0.1533
 2469poe     o212347   3.784   1.370   4.975  0.1578  0.4392 -0.6225
 2469poe    c3112348   3.751   1.239   5.015 -0.0037  0.5014 -0.5504
 2470poe    c3112349   0.814   4.796   1.909  0.3472  0.2588  0.2023
 2470poe     o212350   0.853   4.664   1.941  0.0928  0.0996 -0.1441
 2470poe    c2312351   0.740   4.604   2.000  0.0869 -0.1616 -0.4198
 2470poe    c2312352   0.749   4.450   2.001 -0.1143 -0.1695  0.2076
 2470poe     o212353   0.738   4.386   1.876 -0.4329 -0.5600  0.4308
 2470poe    c2312354   0.610   4.363   1.822 -0.2064 -0.0167 -0.3654
 2470poe    c2312355   0.614   4.327   1.673 -0.1130 -0.3926 -0.2729
 2470poe     o212356   0.657   4.425   1.581  0.3060 -0.0722  0.2563
 2470poe    c2312357   0.642   4.376   1.449  0.4434  0.2977  0.1032
 2470poe    c2312358   0.754   4.424   1.354 -0.1734  0.7347 -0.4089
 2470poe     o212359   0.880   4.375   1.394 -0.2257  0.5402 -0.4797
 2470poe    c3112360   0.983   4.428   1.313 -0.2047  0.4795 -0.4924
 2471poe    c3112361   4.107   7.014   0.597  0.3023 -0.2233  0.4264
 2471poe     o212362   4.036   7.046   0.479 -0.2120 -0.1332  0.7577
 2471poe    c2312363   4.009   7.184   0.488 -0.9076 -0.2343  0.2847
 2471poe    c2312364   3.908   7.208   0.373 -0.4785 -0.5349 -0.1560
 2471poe     o212365   3.944   7.141   0.254  0.1718 -0.2969 -0.1002
 2471poe    c2312366   3.895   7.193   0.133  0.3689  0.1572  0.0142
 2471poe    c2312367   3.953   7.099   0.027  0.4160 -0.3591  0.4925
 2471poe     o212368   3.949   6.965   0.070 -0.4287 -0.3753  0.3773
 2471poe    c2312369   4.024   6.875  -0.008  0.1542  0.1317  0.3408
 2471poe    c2312370   4.170   6.871   0.038  0.2655  0.2760  0.0057
 2471poe     o212371   4.156   6.862   0.178 -0.1950 -0.1314 -0.0639
 2471poe    c3112372   4.278   6.821   0.236 -0.0973  0.2619  0.0140
 2472poe    c3112373   0.150   0.480   0.643 -0.4057 -0.0914 -0.0299
 2472poe     o212374   0.056   0.585   0.636 -0.2844  0.0018 -0.2546
 2472poe    c2312375  -0.043   0.585   0.535  0.1574  0.0339 -0.6908
 2472poe    c2312376   0.001   0.653   0.403 -0.0265 -0.3426 -0.9467
 2472poe     o212377   0.010   0.793   0.402 -0.1660 -0.3057  0.3715
 2472poe    c2312378  -0.111   0.861   0.374  0.3318  0.3967 -0.1212
 2472poe    c2312379  -0.102   1.014   0.377 -0.0070  0.4167 -0.0342
 2472poe     o212380  -0.005   1.063   0.287 -0.1639 -0.1699 -0.5237
 2472poe    c2312381  -0.007   1.204   0.284  0.1935 -0.1592 -0.2900
 2472poe    c2312382   0.140   1.247   0.288  0.2003 -0.2425  0.4329
 2472poe     o212383   0.196   1.233   0.417 -0.0597 -0.3598  0.5313
 2472poe    c3112384   0.296   1.330   0.435 -0.2323  0.0543 -0.6907
 2473poe    c3112385   0.820   5.031   2.248 -0.2105  0.1160 -0.1251
 2473poe     o212386   0.926   5.097   2.182  0.0741  0.2987  0.5071
 2473poe    c2312387   0.882   5.210   2.111  0.4023  0.2838  0.2758
 2473poe    c2312388   0.968   5.330   2.068  0.6878  0.0699  0.2503
 2473poe     o212389   1.004   5.308   1.933  0.7581  0.6560  0.1743
 2473poe    c2312390   1.079   5.421   1.893  0.6021  1.0890  1.0570
 2473poe    c2312391   1.142   5.399   1.754 -0.9896  0.6153  0.3878
 2473poe     o212392   1.058   5.379   1.642 -0.3055 -0.0066 -0.0259
 2473poe    c2312393   1.120   5.413   1.520 -0.3641  0.2178  0.0061
 2473poe    c2312394   1.136   5.564   1.494 -0.8313  0.5033  1.2801
 2473poe     o212395   1.266   5.608   1.527 -0.3819  0.2131 -0.0310
 2473poe    c3112396   1.268   5.749   1.524  0.2997  0.2095 -0.0574
 2474poe    c3112397   1.485   3.937   3.070 -0.1758  0.6199  0.4881
 2474poe     o212398   1.455   3.865   3.188  0.6566 -0.5168  0.0248
 2474poe    c2312399   1.531   3.915   3.296  0.0236 -0.4205  0.4293
 2474poe    c2312400   1.613   3.795   3.345  0.6558 -0.2786 -0.2686
 2474poe     o212401   1.526   3.688   3.375 -0.3373  0.6336  0.1235
 2474poe    c2312402   1.602   3.615   3.468 -0.2395 -0.4170 -0.7690
 2474poe    c2312403   1.550   3.474   3.501 -0.6389  0.0611  0.7061
 2474poe     o212404   1.410   3.481   3.494 -0.5731  0.8743  0.1023
 2474poe    c2312405   1.337   3.361   3.514 -0.2108  0.6994  0.3736
 2474poe    c2312406   1.199   3.405   3.461 -0.3480 -0.2036 -0.0308
 2474poe     o212407   1.219   3.447   3.328 -0.0835 -0.0131  0.0688
 2474poe    c3112408   1.096   3.421   3.266 -0.1899 -0.2531  0.3782
 2475poe    c3112409   4.985   2.196   3.157  1.2325  0.0251  0.4073
 2475poe     o212410   5.013   2.177   3.020  0.3231 -0.0965  0.2322
 2475poe    c2312411   5.153   2.179   3.003  0.3449  0.1558  0.4372
 2475poe    c2312412   5.210   2.135   2.867 -0.6397  0.5220 -0.1014
 2475poe     o212413   5.192   1.995   2.857 -0.0939  0.4241  0.2083
 2475poe    c2312414   5.156   1.952   2.727  0.1303  0.1959  0.2215
 2475poe    c2312415   5.271   1.935   2.627 -0.1606 -0.8322  0.0526
 2475poe     o212416   5.378   1.862   2.683  0.2126 -0.1146  0.2892
 2475poe    c2312417   5.388   1.729   2.638  0.3022 -0.0617  0.1498
 2475poe    c2312418   5.510   1.670   2.711  0.1760 -0.4462  0.0524
 2475poe     o212419   5.484   1.648   2.848 -0.2348 -0.0861  0.0351
 2475poe    c3112420   5.587   1.572   2.907  0.2791  0.2390 -0.4247
 2476poe    c3112421   6.613   1.203   5.305  0.0416  0.6675 -0.1819
 2476poe     o212422   6.614   1.237   5.168  0.4766  0.3346 -0.2640
 2476poe    c2312423   6.750   1.245   5.132  0.4904  0.2373 -0.2345
 2476poe    c2312424   6.766   1.306   4.992 -0.2197  0.3661 -0.2647
 2476poe     o212425   6.687   1.245   4.892  0.5015 -0.3820 -0.3864
 2476poe    c2312426   6.567   1.314   4.865  0.7940 -0.0179 -0.7650
 2476poe    c2312427   6.473   1.227   4.780  0.5749 -0.5904  0.0496
 2476poe     o212428   6.417   1.103   4.819  0.5110 -0.4766  0.3244
 2476poe    c2312429   6.320   1.122   4.919  0.1701  0.1448 -0.1200
 2476poe    c2312430   6.264   0.987   4.966  0.5307 -0.0655 -0.2953
 2476poe     o212431   6.379   0.905   4.979  0.1081 -0.7489 -0.7931
 2476poe    c3112432   6.360   0.792   5.061 -0.5425 -0.9097 -1.1593
 2477poe    c3112433   0.396   1.759   6.293  0.2743 -0.1171  0.3839
 2477poe     o212434   0.365   1.739   6.430  0.6556 -0.1905  0.4604
 2477poe    c2312435   0.485   1.709   6.498  1.0322 -0.1674 -0.1840
 2477poe    c2312436   0.458   1.634   6.629 -0.4214 -0.0503 -0.3992
 2477poe     o212437   0.369   1.526   6.612 -0.6149  0.0381  0.0326
 2477poe    c2312438   0.306   1.490   6.733  0.0693  0.1559  0.4326
 2477poe    c2312439   0.188   1.394   6.708  0.0624  0.1707  0.4087
 2477poe     o212440   0.093   1.442   6.616 -0.0094 -0.3583  0.2028
 2477poe    c2312441  -0.032   1.378   6.609 -0.0032 -0.3100 -0.4873
 2477poe    c2312442  -0.021   1.233   6.558  0.0845 -0.3127 -0.4614
 2477poe     o212443   0.058   1.230   6.442 -0.5392  0.2281 -0.9076
 2477poe    c3112444   0.045   1.097   6.398 -0.4964  0.0123 -0.2698
 2478poe    c3112445   3.739   0.794   3.932 -0.0757 -0.0145 -0.1297
 2478poe     o212446   3.782   0.828   4.062 -0.0856 -0.4004 -0.0230
 2478poe    c2312447   3.921   0.813   4.081  0.0296  0.7918  0.1318
 2478poe    c2312448   3.986   0.831   4.219  0.2325 -0.0989  0.1570
 2478poe     o212449   3.978   0.714   4.297 -0.1642 -0.3099 -0.1994
 2478poe    c2312450   3.997   0.731   4.435  1.0223 -0.1694 -0.3675
 2478poe    c2312451   4.008   0.597   4.510 -0.0395 -0.1047 -0.0787
 2478poe     o212452   3.883   0.555   4.561 -0.0391 -0.2375 -0.1861
 2478poe    c2312453   3.909   0.449   4.650 -0.0688 -0.4316 -0.4068
 2478poe    c2312454   3.772   0.411   4.709 -0.2640  0.0272 -0.5609
 2478poe     o212455   3.663   0.374   4.626 -0.0574  0.0411 -0.8389
 2478poe    c3112456   3.556   0.323   4.701  0.5647  0.0932  0.1049
 2479poe    c3112457   4.769   5.162   2.544  0.4574  0.1300 -0.1625
 2479poe     o212458   4.791   5.280   2.470 -0.2009 -0.2380 -0.9633
 2479poe    c2312459   4.703   5.385   2.504  0.2507 -0.2383  0.2273
 2479poe    c2312460   4.580   5.376   2.412  0.3995  0.0442 -0.0002
 2479poe     o212461   4.623   5.391   2.278  0.3028 -0.1727 -0.0545
 2479poe    c2312462   4.509   5.415   2.199  0.1995 -0.9264 -0.1404
 2479poe    c2312463   4.565   5.465   2.064  0.1596  0.0052  0.1864
 2479poe     o212464   4.677   5.397   2.013  0.0572 -0.0881  0.0875
 2479poe    c2312465   4.685   5.425   1.875  0.0964 -0.1179  0.0837
 2479poe    c2312466   4.772   5.314   1.813 -0.2153 -0.2478 -0.1250
 2479poe     o212467   4.899   5.305   1.875 -0.1389 -0.1571 -0.2695
 2479poe    c3112468   5.002   5.242   1.802  0.5412  0.3118  0.2770
 2480poe    c3112469   7.008   5.206   1.211 -0.0156  0.0163 -0.3730
 2480poe     o212470   6.954   5.264   1.094 -0.1431  0.4742 -0.0904
 2480poe    c2312471   7.021   5.224   0.977  0.4445 -0.1297  0.4462
 2480poe    c2312472   6.943   5.248   0.847  0.3695 -0.2385  0.4712
 2480poe     o212473   6.868   5.143   0.788 -0.2211  0.2982  0.2601
 2480poe    c2312474   6.952   5.051   0.723 -0.3338  0.0875  0.4149
 2480poe    c2312475   6.887   4.932   0.650  0.3861 -0.1631  0.1720
 2480poe     o212476   6.854   4.833   0.745  0.1975  0.1888  0.4728
 2480poe    c2312477   6.836   4.708   0.683 -0.2041  0.5734 -0.2000
 2480poe    c2312478   6.847   4.584   0.774 -0.0888  0.7657  0.0505
 2480poe     o212479   6.717   4.533   0.793  0.0993  0.0610 -0.4912
 2480poe    c3112480   6.705   4.402   0.843  0.3573  0.1442 -0.2076
 2481poe    c3112481   0.177   6.374   4.310 -0.3655 -0.1759  0.1910
 2481poe     o212482   0.193   6.285   4.418 -0.0390 -0.0426  0.2548
 2481poe    c2312483   0.328   6.290   4.456 -0.1503  0.3933  0.6001
 2481poe    c2312484   0.343   6.276   4.609  0.2560  0.0472  0.5302
 2481poe     o212485   0.259   6.365   4.679 -0.3019 -0.1475  0.1178
 2481poe    c2312486   0.277   6.368   4.819 -0.7026  0.2838  0.1610
 2481poe    c2312487   0.158   6.324   4.906 -0.3521 -0.3212  0.3380
 2481poe     o212488   0.035   6.373   4.857 -0.1087 -0.6188 -0.5844
 2481poe    c2312489  -0.031   6.461   4.945  0.4509 -0.0363 -0.7354
 2481poe    c2312490  -0.171   6.493   4.889  0.0826  0.1068  0.2333
 2481poe     o212491  -0.249   6.377   4.872  0.3518 -0.0764  0.2398
 2481poe    c3112492  -0.373   6.401   4.811  0.5260  0.2661  0.0174
 2482poe    c3112493   4.049   2.305   6.642 -0.5487  0.0776  0.5887
 2482poe     o212494   3.963   2.202   6.597 -0.1520 -0.0672  0.1515
 2482poe    c2312495   3.891   2.148   6.705  0.2362 -0.2939  0.3012
 2482poe    c2312496   3.830   2.008   6.683 -0.2904  0.0755 -0.6729
 2482poe     o212497   3.768   2.031   6.559 -0.1823  0.0127 -0.7383
 2482poe    c2312498   3.690   1.924   6.511 -0.2574 -0.1670 -0.2195
 2482poe    c2312499   3.636   1.953   6.370  0.0250 -0.4184 -0.3804
 2482poe     o212500   3.647   2.090   6.340 -0.0727 -0.2681  0.2744
 2482poe    c2312501   3.577   2.109   6.219 -0.1849 -0.0675  0.3699
 2482poe    c2312502   3.622   2.226   6.130 -0.3094 -0.8988 -0.8100
 2482poe     o212503   3.752   2.195   6.085 -0.0892 -0.8626 -0.2085
 2482poe    c3112504   3.807   2.282   5.989 -1.2467  0.7077  0.5066
 2483poe    c3112505   3.545   5.831   5.531 -0.1138  0.5147 -0.6212
 2483poe     o212506   3.513   5.925   5.631  0.0619 -0.5248  0.4404
 2483poe    c2312507   3.630   5.935   5.709  0.2277  0.7560  0.0542
 2483poe    c2312508   3.596   5.912   5.857  0.1699 -0.2257 -0.1024
 2483poe     o212509   3.492   6.004   5.884  0.4059  0.0838 -0.2467
 2483poe    c2312510   3.475   6.021   6.023  0.4125  0.6402 -0.3125
 2483poe    c2312511   3.407   6.159   6.031 -0.4670  0.1676  0.5256
 2483poe     o212512   3.289   6.149   5.955 -0.2458 -0.5741  0.2721
 2483poe    c2312513   3.195   6.243   6.002 -0.2123 -0.4035  0.0021
 2483poe    c2312514   3.212   6.385   5.945  0.0561 -0.3359  0.2499
 2483poe     o212515   3.196   6.404   5.806 -0.4961 -0.2361  0.3221
 2483poe    c3112516   3.062   6.396   5.766 -0.4140 -0.4755  0.0929
 2484poe    c3112517   2.127   6.605   4.094  0.4365 -0.0062  1.0514
 2484poe     o212518   2.051   6.720   4.068 -0.0148 -0.4457  0.4101
 2484poe    c2312519   1.918   6.684   4.039 -0.2244  0.4382  0.2416
 2484poe    c2312520   1.891   6.656   3.890 -0.1128 -0.0272  0.3077
 2484poe     o212521   1.900   6.776   3.816  0.3908  0.3325  0.9326
 2484poe    c2312522   1.883   6.772   3.676  0.1171  0.7065  0.9564
 2484poe    c2312523   1.910   6.915   3.625  0.1645  0.3431 -0.0662
 2484poe     o212524   2.047   6.947   3.624  0.2554 -0.0401  0.0391
 2484poe    c2312525   2.053   7.046   3.523 -0.2604 -0.3369 -0.2859
 2484poe    c2312526   2.185   7.122   3.503 -0.3938 -0.1924 -0.6180
 2484poe     o212527   2.194   7.201   3.386  0.0537  0.2984 -0.2567
 2484poe    c3112528   2.247   7.331   3.390 -0.4633  0.5049  0.0050
 2485poe    c3112529   1.609   3.463   1.426 -0.2553 -0.2612  0.4904
 2485poe     o212530   1.476   3.484   1.469 -0.3715 -0.1566  0.0838
 2485poe    c2312531   1.464   3.616   1.518 -0.6829  0.0478 -0.5340
 2485poe    c2312532   1.326   3.647   1.580 -0.2109  0.3246  0.3949
 2485poe     o212533   1.217   3.615   1.496  0.0689  0.1668  0.0891
 2485poe    c2312534   1.137   3.731   1.489 -0.0603  0.0553 -0.3051
 2485poe    c2312535   1.049   3.718   1.364 -0.0706 -0.1283 -0.2795
 2485poe     o212536   0.997   3.587   1.360 -0.0967 -0.1242 -0.0485
 2485poe    c2312537   0.864   3.568   1.318 -0.2511 -0.4233  0.5603
 2485poe    c2312538   0.864   3.423   1.264 -0.5206 -0.2004 -0.0496
 2485poe     o212539   0.958   3.350   1.340  0.1628  0.2317 -0.4720
 2485poe    c3112540   0.982   3.222   1.285 -0.4616 -0.0810 -0.0282
 2486poe    c3112541   5.905   0.875   1.421 -0.5669  0.5125 -0.3021
 2486poe     o212542   5.913   0.756   1.496  0.1362  0.7639  0.0300
 2486poe    c2312543   5.837   0.757   1.615 -0.0008  0.0357 -0.0435
 2486poe    c2312544   5.846   0.622   1.688  0.7773  0.1444  0.0698
 2486poe     o212545   5.957   0.586   1.768  0.4888 -0.4721  0.1972
 2486poe    c2312546   5.946   0.475   1.855  0.2611 -0.7283 -0.1539
 2486poe    c2312547   6.082   0.449   1.922  0.2452  0.2469  0.2823
 2486poe     o212548   6.173   0.448   1.815 -0.1942 -0.0574 -0.0958
 2486poe    c2312549   6.302   0.414   1.861 -0.3290 -0.3915  0.0411
 2486poe    c2312550   6.388   0.356   1.746 -0.2946 -0.2983  0.0196
 2486poe     o212551   6.367   0.455   1.648  0.4446 -0.3545 -0.1974
 2486poe    c3112552   6.457   0.442   1.540 -0.2529 -0.5363 -0.7645
 2487poe    c3112553   0.163   6.721   6.754 -0.2285 -0.7180  0.4893
 2487poe     o212554   0.249   6.736   6.643 -0.2932 -0.1027  0.5183
 2487poe    c2312555   0.370   6.789   6.693 -0.4105  0.4877  0.1856
 2487poe    c2312556   0.490   6.814   6.600 -0.2156  0.2670  0.3744
 2487poe     o212557   0.575   6.708   6.564 -0.0264  0.4801  0.1858
 2487poe    c2312558   0.662   6.722   6.454  0.1897  0.0155  0.2929
 2487poe    c2312559   0.780   6.625   6.471  0.0558 -0.1148  0.4884
 2487poe     o212560   0.759   6.498   6.414  0.9295  0.0184 -0.1606
 2487poe    c2312561   0.842   6.402   6.475  0.0293 -0.1685  0.7883
 2487poe    c2312562   0.804   6.256   6.444 -0.2292  0.1311 -0.3710
 2487poe     o212563   0.854   6.214   6.319  0.7360 -0.5680  0.2362
 2487poe    c3112564   0.865   6.074   6.313 -0.2834 -0.6608  0.3143
 2488poe    c3112565   5.471   5.869   0.325  0.6816 -0.2070  0.1928
 2488poe     o212566   5.540   5.802   0.222  0.2772 -0.0063 -0.2167
 2488poe    c2312567   5.658   5.870   0.185 -0.1333  0.5912 -0.4242
 2488poe    c2312568   5.727   5.768   0.093 -0.4641 -0.6131  0.6448
 2488poe     o212569   5.632   5.713   0.004 -0.1855 -0.2242  0.1016
 2488poe    c2312570   5.677   5.601  -0.068 -0.4319 -0.0418 -0.3384
 2488poe    c2312571   5.559   5.534  -0.141 -0.4141 -0.4201 -0.0219
 2488poe     o212572   5.447   5.534  -0.055 -0.4000  0.1228 -0.0035
 2488poe    c2312573   5.340   5.490  -0.134 -0.0847 -0.3480 -0.1692
 2488poe    c2312574   5.224   5.448  -0.042 -0.2917  0.9210  0.1689
 2488poe     o212575   5.270   5.363   0.060  0.4818  1.7292  0.5043
 2488poe    c3112576   5.156   5.320   0.131  0.9118 -0.5349 -0.0967
 2489poe    c3112577   3.496   3.369   3.084 -0.1812 -0.2017 -0.0150
 2489poe     o212578   3.446   3.255   3.151  0.1737 -0.2237  0.2093
 2489poe    c2312579   3.521   3.137   3.133  0.4563 -0.0692  0.3662
 2489poe    c2312580   3.640   3.135   3.231  0.2084  0.7819  0.6931
 2489poe     o212581   3.597   3.098   3.360  0.0203  0.0761  0.4293
 2489poe    c2312582   3.572   3.206   3.447 -0.5722  0.1797  0.1312
 2489poe    c2312583   3.492   3.153   3.567 -0.0915 -0.0262  0.3645
 2489poe     o212584   3.376   3.078   3.537 -0.2660  0.2519  0.3364
 2489poe    c2312585   3.297   3.029   3.642 -0.5777  0.3665  0.1570
 2489poe    c2312586   3.148   2.997   3.622 -0.5561  0.3933 -0.0487
 2489poe     o212587   3.132   2.902   3.519 -0.0803 -0.3736  0.5705
 2489poe    c3112588   2.999   2.855   3.512  0.1226 -0.8224 -0.4325
 2490poe    c3112589   6.356   6.387   6.989 -0.1344 -0.4625  0.3764
 2490poe     o212590   6.326   6.374   6.852  0.0718  0.1579  0.2699
 2490poe    c2312591   6.303   6.238   6.822 -0.1434  0.2874 -0.1690
 2490poe    c2312592   6.271   6.228   6.672 -0.7344  0.4399 -0.0561
 2490poe     o212593   6.167   6.309   6.623 -0.8389  0.4628  0.2069
 2490poe    c2312594   6.144   6.288   6.486 -0.0897  0.1108  0.1347
 2490poe    c2312595   6.003   6.330   6.442  0.1595 -0.0161 -0.8138
 2490poe     o212596   5.985   6.465   6.476 -0.0118 -0.4388  0.8470
 2490poe    c2312597   5.856   6.514   6.448  0.2019 -0.2991  0.0899
 2490poe    c2312598   5.843   6.656   6.507  0.8526 -0.1965 -0.0065
 2490poe     o212599   5.907   6.653   6.632  0.2110 -0.6786  0.3183
 2490poe    c3112600   5.879   6.774   6.699  0.4797 -0.4820  0.0792
 2491poe    c3112601   3.651   3.728   2.966  0.3447 -0.1973 -0.3487
 2491poe     o212602   3.669   3.850   2.898 -0.4901  0.0677 -0.1031
 2491poe    c2312603   3.567   3.943   2.927 -0.6487 -0.0843 -0.1691
 2491poe    c2312604   3.582   4.069   2.841  0.2353  0.2953  0.5184
 2491poe     o212605   3.710   4.125   2.858  0.4845 -0.2027  0.3030
 2491poe    c2312606   3.720   4.232   2.767 -0.6091  0.4119  0.8805
 2491poe    c2312607   3.863   4.289   2.772 -0.3383 -0.2175  0.4625
 2491poe     o212608   3.869   4.392   2.868 -0.1182  0.0951  0.1137
 2491poe    c2312609   3.993   4.411   2.933 -0.0247 -0.0403 -0.0261
 2491poe    c2312610   4.097   4.506   2.871 -0.2296 -0.1587 -0.5624
 2491poe     o212611   4.150   4.450   2.753 -0.0014  0.5171 -0.7877
 2491poe    c3112612   4.269   4.514   2.713  0.6092  0.0361  0.2115
 2492poe    c3112613   1.141   3.580   0.074 -0.4508  0.2289  0.2904
 2492poe     o212614   1.068   3.557   0.193 -0.0290  0.2033  0.5453
 2492poe    c2312615   1.034   3.681   0.250 -0.6235  0.4424 -0.3165
 2492poe    c2312616   1.074   3.691   0.398  0.0630 -0.0190 -0.4671
 2492poe     o212617   1.207   3.734   0.417 -0.1991  0.4307  0.4427
 2492poe    c2312618   1.244   3.735   0.553  0.4402  0.0410  0.2761
 2492poe    c2312619   1.390   3.776   0.581  0.3797  0.4714 -0.0223
 2492poe     o212620   1.413   3.911   0.547  0.2673  0.6170  0.4650
 2492poe    c2312621   1.546   3.943   0.578  0.3549  0.4613  0.2509
 2492poe    c2312622   1.578   4.084   0.523  0.5697  0.2717 -0.1178
 2492poe     o212623   1.513   4.180   0.603  0.0249 -0.3054  0.1441
 2492poe    c3112624   1.545   4.307   0.552  0.7675 -0.5615 -0.0446
 2493poe    c3112625   0.147   2.037   6.410 -0.3100  0.1463  0.2143
 2493poe     o212626   0.096   1.988   6.531  0.5097 -0.5454  0.2881
 2493poe    c2312627   0.180   2.021   6.640  0.2258  0.0387  0.3303
 2493poe    c2312628   0.098   1.965   6.757 -0.5358  0.2302 -0.1021
 2493poe     o212629   0.068   1.831   6.724 -0.7673  0.1859  0.2819
 2493poe    c2312630   0.045   1.761   6.845  0.4295 -0.4886  0.1284
 2493poe    c2312631  -0.102   1.747   6.888  0.6515 -1.0259  0.7128
 2493poe     o212632  -0.162   1.695   6.771  0.6660  0.2949  0.1034
 2493poe    c2312633  -0.300   1.693   6.796  0.5527 -0.4146 -0.5823
 2493poe    c2312634  -0.377   1.774   6.689  0.1633  0.1272  0.1016
 2493poe     o212635  -0.350   1.725   6.560  0.2397 -0.2341  0.2524
 2493poe    c3112636  -0.450   1.640   6.509  0.1734 -0.0191  0.0239
 2494poe    c3112637   4.683   2.795   6.790  0.8764 -0.0932 -0.4746
 2494poe     o212638   4.627   2.823   6.664 -0.2710  0.2131  0.0914
 2494poe    c2312639   4.500   2.771   6.630 -0.0478 -0.5446  0.3759
 2494poe    c2312640   4.371   2.811   6.705 -0.4072 -0.6257 -0.1958
 2494poe     o212641   4.335   2.944   6.676  0.3882 -0.3948 -0.1498
 2494poe    c2312642   4.241   2.976   6.777 -0.1008 -0.2212 -0.6547
 2494poe    c2312643   4.183   3.119   6.776  0.5513  0.0545 -0.3883
 2494poe     o212644   4.129   3.138   6.647 -0.2840  0.2588 -0.0190
 2494poe    c2312645   4.103   3.274   6.623  0.1605  0.3204 -0.1604
 2494poe    c2312646   4.044   3.275   6.480 -0.0806  0.1700 -0.0618
 2494poe     o212647   4.136   3.247   6.377 -0.0131 -0.0586  0.0586
 2494poe    c3112648   4.178   3.365   6.313 -0.0612  0.2113  0.5250
 2495poe    c3112649   5.702   0.305   1.132 -0.3674 -0.6700 -0.0206
 2495poe     o212650   5.608   0.241   1.049 -0.5404 -0.9275  0.3691
 2495poe    c2312651   5.500   0.332   1.045 -0.0687 -0.3977 -0.4940
 2495poe    c2312652   5.411   0.278   0.932  0.1569 -0.2481 -0.7459
 2495poe     o212653   5.342   0.161   0.972  0.5768 -0.2719 -0.0769
 2495poe    c2312654   5.321   0.077   0.861  0.3841 -0.1646 -0.1225
 2495poe    c2312655   5.209  -0.019   0.906  0.1535  0.0100 -0.3211
 2495poe     o212656   5.294  -0.103   0.981 -0.0043  0.0065 -0.1482
 2495poe    c2312657   5.219  -0.216   1.020 -0.1713 -0.0518 -0.6264
 2495poe    c2312658   5.313  -0.313   1.094 -0.1120  0.3984 -0.1052
 2495poe     o212659   5.386  -0.218   1.169 -0.0558  0.2548  0.0217
 2495poe    c3112660   5.430  -0.257   1.297 -0.5556  0.4827  0.2667
 2496poe    c3112661   0.515   7.125   5.039 -0.1076 -0.0135  0.6362
 2496poe     o212662   0.631   7.204   5.031  0.1762 -0.4629  0.2410
 2496poe    c2312663   0.688   7.251   4.910 -0.2442  0.2753  0.3230
 2496poe    c2312664   0.840   7.253   4.935 -0.1807 -0.1866 -0.0083
 2496poe     o212665   0.858   7.312   5.062  0.0071  0.2265 -0.2248
 2496poe    c2312666   0.994   7.333   5.091  0.0164 -0.0982 -0.0396
 2496poe    c2312667   1.010   7.399   5.229  0.3692 -0.4534  0.0918
 2496poe     o212668   0.935   7.327   5.324  0.5250 -0.1666  0.4333
 2496poe    c2312669   0.943   7.357   5.462  0.2343  0.6546  0.2742
 2496poe    c2312670   0.865   7.260   5.551  0.0691  0.6955  0.1745
 2496poe     o212671   0.729   7.288   5.527 -0.1767 -0.2333  0.4065
 2496poe    c3112672   0.633   7.216   5.601 -0.7564  0.0908 -0.0165
 2497poe    c3112673   1.244   6.823   3.711 -0.4345 -0.3010  0.2289
 2497poe     o212674   1.128   6.836   3.631 -0.7269  0.7164  0.8006
 2497poe    c2312675   1.121   6.965   3.575  0.2544  0.2758 -0.3745
 2497poe    c2312676   0.987   6.989   3.503 -0.0104  0.2542  0.1091
 2497poe     o212677   0.969   6.874   3.423  0.5646  0.3261 -0.1342
 2497poe    c2312678   0.849   6.882   3.349  0.3001 -0.0539  0.2467
 2497poe    c2312679   0.826   6.748   3.278 -0.4717  0.1539  0.0979
 2497poe     o212680   0.780   6.645   3.364 -0.3263  0.5069  0.6057
 2497poe    c2312681   0.641   6.656   3.388 -0.3542  0.3719  0.5073
 2497poe    c2312682   0.597   6.548   3.489 -0.2455 -0.1366  0.0171
 2497poe     o212683   0.656   6.548   3.617 -0.0477 -0.2965 -0.0733
 2497poe    c3112684   0.608   6.440   3.693 -1.0164  0.2822  0.1580
 2498poe    c3112685   3.064   0.882   2.851  0.0632 -0.4626 -0.1458
 2498poe     o212686   3.178   0.907   2.771 -0.2439 -0.4452 -0.5801
 2498poe    c2312687   3.267   0.798   2.770  0.3887  0.0385  0.6945
 2498poe    c2312688   3.380   0.816   2.666 -0.2314 -0.2444 -0.0461
 2498poe     o212689   3.337   0.812   2.532 -0.0413 -0.3941 -0.1014
 2498poe    c2312690   3.449   0.807   2.446  0.1829 -0.3159  0.1845
 2498poe    c2312691   3.409   0.800   2.298 -0.4036  0.0083  0.3230
 2498poe     o212692   3.330   0.909   2.257  0.2742  0.2347 -0.4224
 2498poe    c2312693   3.248   0.859   2.154 -0.5996 -0.3375  0.5282
 2498poe    c2312694   3.122   0.944   2.132  0.1909  0.8036  0.3225
 2498poe     o212695   3.019   0.912   2.223  0.2685  0.2343  0.2130
 2498poe    c3112696   2.963   0.786   2.198  0.6657  0.1158 -0.0883
 2499poe    c3112697   2.887   3.716   0.612 -0.1698 -0.4791 -0.4050
 2499poe     o212698   2.750   3.698   0.584 -0.1980 -0.6463 -0.1628
 2499poe    c2312699   2.682   3.607   0.668 -0.1448 -0.2629  0.3011
 2499poe    c2312700   2.556   3.564   0.591  0.2258 -0.0607 -0.4303
 2499poe     o212701   2.517   3.686   0.533  0.3206 -0.1503 -0.6843
 2499poe    c2312702   2.378   3.690   0.513  0.2595  0.6057 -0.1763
 2499poe    c2312703   2.342   3.721   0.366 -0.2445  0.4839 -0.0817
 2499poe     o212704   2.425   3.824   0.316  0.4679 -0.0146  0.0576
 2499poe    c2312705   2.394   3.848   0.180  0.2865 -0.5001  0.0085
 2499poe    c2312706   2.516   3.904   0.105  0.3205 -0.6866 -0.0739
 2499poe     o212707   2.624   3.816   0.083  0.3497 -0.4624 -0.8484
 2499poe    c3112708   2.710   3.878  -0.010  0.8626  0.0163 -0.0640
 2500poe    c3112709   3.026   5.534   5.420  0.2108 -0.0614  0.7638
 2500poe     o212710   3.122   5.524   5.523  0.1425 -0.5328  0.7834
 2500poe    c2312711   3.255   5.532   5.477 -0.2058 -0.2065 -0.1964
 2500poe    c2312712   3.351   5.455   5.569 -0.0206 -0.2277 -0.4060
 2500poe     o212713   3.490   5.474   5.550  0.0897 -0.8190 -0.1968
 2500poe    c2312714   3.570   5.412   5.648  0.2477 -0.6753 -0.2347
 2500poe    c2312715   3.721   5.428   5.620  0.2811 -0.2342  0.1850
 2500poe     o212716   3.749   5.371   5.494 -0.4221  0.2386 -0.1910
 2500poe    c2312717   3.837   5.262   5.508  0.0806  0.6193 -0.3441
 2500poe    c2312718   3.832   5.183   5.376  0.2897  0.1522 -0.0736
 2500poe     o212719   3.800   5.279   5.278 -0.4407 -0.0598 -0.0472
 2500poe    c3112720   3.772   5.210   5.158  0.3859 -0.3162 -0.0945
 2501poe    c3112721   2.443   6.338   0.003 -0.2798  0.4437 -0.0443
 2501poe     o212722   2.546   6.316   0.097 -0.3220  0.0036 -0.1003
 2501poe    c2312723   2.630   6.217   0.042 -0.0938  0.2017 -0.1093
 2501poe    c2312724   2.746   6.180   0.135 -0.4558  0.0313  0.2750
 2501poe     o212725   2.817   6.282   0.201 -0.4896  0.0784  0.2388
 2501poe    c2312726   2.820   6.256   0.340 -0.3664  0.1074  0.2415
 2501poe    c2312727   2.853   6.380   0.426  0.3300 -0.0766  0.2410
 2501poe     o212728   2.992   6.404   0.426  0.3900 -0.3754 -0.4668
 2501poe    c2312729   3.021   6.518   0.504  0.1095 -0.2670 -0.5224
 2501poe    c2312730   3.168   6.559   0.483  0.1251  0.1062  0.2897
 2501poe     o212731   3.256   6.474   0.554  0.2713  0.2922  0.3322
 2501poe    c3112732   3.363   6.436   0.471 -0.3179  0.0249 -0.3195
 2502poe    c3112733   2.915   6.407   5.264  0.1987  0.2682  0.1983
 2502poe     o212734   3.004   6.319   5.200  0.0753  0.2362  0.0709
 2502poe    c2312735   3.118   6.379   5.143 -0.0900  0.1007 -0.4069
 2502poe    c2312736   3.242   6.288   5.136 -0.1097  0.0269  0.1132
 2502poe     o212737   3.325   6.276   5.249 -0.0521 -0.1267  0.0560
 2502poe    c2312738   3.445   6.208   5.222 -0.1242 -0.2198 -0.0288
 2502poe    c2312739   3.538   6.174   5.340  0.1143 -0.3978 -0.2656
 2502poe     o212740   3.614   6.278   5.397 -0.0825 -0.3974  0.0009
 2502poe    c2312741   3.677   6.238   5.517 -0.1225  0.1483  0.2084
 2502poe    c2312742   3.754   6.364   5.560 -0.4084  0.2448  0.4391
 2502poe     o212743   3.674   6.479   5.569 -0.4725  0.2263  0.1076
 2502poe    c3112744   3.748   6.592   5.611 -0.4122 -0.0761  0.8198
 2503poe    c3112745   2.189   4.477   1.687 -0.5185  0.8623  0.0914
 2503poe     o212746   2.127   4.525   1.805 -0.7929 -0.8321  0.6721
 2503poe    c2312747   2.027   4.614   1.762 -0.1569 -0.4118  0.0377
 2503poe    c2312748   1.968   4.675   1.890  0.3523  0.0071  0.0747
 2503poe     o212749   2.053   4.756   1.969  1.1125 -0.5192 -0.1880
 2503poe    c2312750   2.089   4.875   1.902  0.0426 -0.2598 -0.3320
 2503poe    c2312751   2.169   4.954   2.008 -0.5591 -0.3280  0.1768
 2503poe     o212752   2.295   4.905   2.048 -0.1960  0.6577  0.2618
 2503poe    c2312753   2.351   4.965   2.163 -0.1996  1.0543  0.0581
 2503poe    c2312754   2.484   4.888   2.173 -0.8265 -0.1127 -0.3632
 2503poe     o212755   2.475   4.766   2.243 -0.0630  0.2475  0.3733
 2503poe    c3112756   2.591   4.754   2.323  0.0934 -0.2248  0.0802
 2504poe    c3112757   0.398   0.424   2.917  0.3038 -0.0796  0.4382
 2504poe     o212758   0.515   0.483   2.971  0.2365  0.7190 -0.2745
 2504poe    c2312759   0.619   0.391   2.994 -0.5580 -0.2137 -0.3366
 2504poe    c2312760   0.601   0.273   3.091 -0.2652 -0.4219 -0.5337
 2504poe     o212761   0.707   0.182   3.112  0.1555  0.1371 -0.2160
 2504poe    c2312762   0.691   0.109   3.232  0.3741  0.5895  0.0907
 2504poe    c2312763   0.810   0.036   3.297  0.1689 -0.0551 -0.2520
 2504poe     o212764   0.871  -0.068   3.224 -0.0286 -0.0519 -0.4249
 2504poe    c2312765   0.990  -0.011   3.175  0.1224  0.1378  0.1530
 2504poe    c2312766   1.077  -0.123   3.114 -0.1189  0.0029  0.0579
 2504poe     o212767   1.027  -0.152   2.985  0.1713 -0.1848 -0.0116
 2504poe    c3112768   1.099  -0.256   2.923  0.6119 -0.1196  0.3773
 2505poe    c3112769   2.560   4.390   6.751  0.3023  0.3377 -0.3108
 2505poe     o212770   2.424   4.421   6.729 -0.0316 -0.6960  0.2026
 2505poe    c2312771   2.395   4.520   6.633  0.0633 -0.5789  0.2929
 2505poe    c2312772   2.242   4.505   6.622  0.0474 -0.2828  0.0706
 2505poe     o212773   2.180   4.468   6.744 -0.2142  0.0169  0.0281
 2505poe    c2312774   2.040   4.449   6.742 -0.2162 -0.0378  0.7348
 2505poe    c2312775   1.978   4.415   6.879 -0.5229 -0.2662  0.5409
 2505poe     o212776   2.005   4.284   6.926  0.0203 -0.3545  0.0017
 2505poe    c2312777   1.999   4.278   7.067 -1.0179  0.4296  0.0025
 2505poe    c2312778   2.017   4.127   7.086  0.1810  0.5884  0.1836
 2505poe     o212779   2.122   4.055   7.026 -0.2267  0.1915 -0.0575
 2505poe    c3112780   2.154   3.930   7.083 -0.5362  0.0504 -0.1940
 2506poe    c3112781   4.599   2.283   6.352 -0.3135  0.7884 -0.2415
 2506poe     o212782   4.715   2.353   6.390 -0.1253  0.3952 -0.0883
 2506poe    c2312783   4.743   2.339   6.528  0.1517  0.0909 -0.1727
 2506poe    c2312784   4.886   2.361   6.579 -0.1390  0.1145  0.6503
 2506poe     o212785   4.913   2.499   6.575  0.1309  0.0740  1.0012
 2506poe    c2312786   5.031   2.552   6.631  0.3017  0.4009  0.3471
 2506poe    c2312787   5.175   2.511   6.593  0.3211  0.5876  0.2219
 2506poe     o212788   5.216   2.382   6.631 -0.4690  0.3423  0.2668
 2506poe    c2312789   5.272   2.380   6.760 -0.2495  0.3371  0.1723
 2506poe    c2312790   5.202   2.277   6.850  0.2081  0.2004  0.3767
 2506poe     o212791   5.218   2.145   6.803  0.2871  0.1160  0.6398
 2506poe    c3112792   5.121   2.073   6.875  0.3562 -0.3417  0.2801
 2507poe    c3112793   7.200   6.668   1.900  0.4216  0.2475  0.1579
 2507poe     o212794   7.083   6.732   1.945  0.0852 -0.2720  0.0300
 2507poe    c2312795   7.099   6.766   2.081  0.1407  0.1229 -0.0750
 2507poe    c2312796   6.990   6.863   2.132 -0.2394 -0.2834 -0.1127
 2507poe     o212797   6.983   6.991   2.074  0.0465 -0.0845  0.2866
 2507poe    c2312798   6.852   7.028   2.036  0.1059  0.3070  0.4568
 2507poe    c2312799   6.854   7.095   1.897  0.0204 -0.2787  0.1685
 2507poe     o212800   6.880   6.993   1.803  0.4186  0.0333 -0.0681
 2507poe    c2312801   6.961   7.041   1.699  0.2739  0.3108 -0.0516
 2507poe    c2312802   7.002   6.916   1.619 -0.2122  0.0667  0.0769
 2507poe     o212803   6.891   6.851   1.561  0.4930 -0.4151 -0.7609
 2507poe    c3112804   6.859   6.920   1.442 -0.7664  0.2963 -0.0346
 2508poe    c3112805   5.960   0.520   0.772  0.3039  0.0961  0.1212
 2508poe     o212806   5.938   0.389   0.725  0.5939  0.0626  0.0736
 2508poe    c2312807   5.949   0.291   0.826 -0.1917  0.1024  0.2031
 2508poe    c2312808   5.829   0.195   0.838  0.3421 -0.5295  0.5775
 2508poe     o212809   5.810   0.087   0.749 -0.3996  0.1348 -0.0817
 2508poe    c2312810   5.701   0.007   0.790 -0.6337  0.2804 -0.4127
 2508poe    c2312811   5.688  -0.124   0.710 -0.0795  0.0289 -0.0981
 2508poe     o212812   5.794  -0.214   0.734 -0.2683 -0.2133 -0.1653
 2508poe    c2312813   5.777  -0.294   0.849  0.4169  0.3156  0.3157
 2508poe    c2312814   5.865  -0.418   0.825  0.2993  0.2364  0.2916
 2508poe     o212815   5.833  -0.473   0.699  0.3620  0.2718  0.2604
 2508poe    c3112816   5.948  -0.518   0.632  0.3230 -0.0388  0.4027
 2509poe    c3112817   6.965   2.725   5.276  0.7606  0.1542  0.1725
 2509poe     o212818   6.951   2.773   5.144 -0.0486 -0.3064  0.0810
 2509poe    c2312819   7.081   2.819   5.112  0.1909 -1.1377 -0.1460
 2509poe    c2312820   7.074   2.916   4.993 -0.2218 -0.4589  0.4260
 2509poe     o212821   6.986   3.018   5.035 -0.2276 -0.3475  0.1470
 2509poe    c2312822   6.989   3.133   4.954 -0.1452 -0.3947  0.0830
 2509poe    c2312823   6.935   3.261   5.021  0.2290 -0.1545 -0.0657
 2509poe     o212824   6.795   3.244   5.036  0.2900 -0.3468  0.3072
 2509poe    c2312825   6.734   3.359   5.090  0.0947 -0.3089  0.0078
 2509poe    c2312826   6.603   3.307   5.152  0.1762  0.0222  0.4545
 2509poe     o212827   6.620   3.228   5.268 -0.0823 -0.2941  0.2788
 2509poe    c3112828   6.497   3.205   5.333 -0.0624 -0.4514  0.2596
 2510poe    c3112829   6.400   5.513   7.180  0.2265 -0.2468  0.7458
 2510poe     o212830   6.498   5.453   7.098  0.0324 -0.1112  0.4120
 2510poe    c2312831   6.575   5.357   7.167  0.4945  0.0514  0.1303
 2510poe    c2312832   6.709   5.333   7.095  0.1952 -0.5067 -0.2465
 2510poe     o212833   6.676   5.311   6.960  0.2934  0.4700 -0.4358
 2510poe    c2312834   6.801   5.300   6.896  0.3452 -0.4312 -0.1985
 2510poe    c2312835   6.785   5.274   6.745 -0.2335 -0.2397 -0.1713
 2510poe     o212836   6.709   5.387   6.707 -0.2488 -0.1600  0.0939
 2510poe    c2312837   6.677   5.376   6.570  0.2039 -0.2660 -0.0034
 2510poe    c2312838   6.613   5.507   6.520  0.1079 -0.2839  0.0741
 2510poe     o212839   6.500   5.558   6.587 -0.0435 -0.3261 -0.1512
 2510poe    c3112840   6.375   5.535   6.524 -0.3878 -0.1296  0.4516
 2511poe    c3112841   5.947   5.959   6.475 -0.2714 -0.0393  0.6400
 2511poe     o212842   5.874   5.864   6.401 -0.1244  0.3391  0.0091
 2511poe    c2312843   5.944   5.743   6.390  0.3146  0.6244 -0.3801
 2511poe    c2312844   5.858   5.628   6.335  0.2565  0.2572  0.4600
 2511poe     o212845   5.733   5.623   6.401 -0.2443  0.2668 -0.4795
 2511poe    c2312846   5.638   5.528   6.356  0.0445  0.0211 -0.5727
 2511poe    c2312847   5.507   5.569   6.425  0.1401 -0.4523 -0.1008
 2511poe     o212848   5.487   5.709   6.421  0.6119 -0.3372  1.1903
 2511poe    c2312849   5.352   5.745   6.441  0.4898 -0.1703  0.1026
 2511poe    c2312850   5.327   5.789   6.587 -0.3286  0.1207 -0.1174
 2511poe     o212851   5.381   5.916   6.615  0.0150  0.0220 -0.3219
 2511poe    c3112852   5.396   5.936   6.754 -0.4912 -0.2074 -0.2334
 2512poe    c3112853   2.262   5.365   1.572  0.3847  0.2731  0.1969
 2512poe     o212854   2.222   5.252   1.648  0.0431  0.2511 -0.0092
 2512poe    c2312855   2.191   5.146   1.561  0.6359 -0.1677  0.2837
 2512poe    c2312856   2.297   5.035   1.550  0.3607 -0.4421  0.3828
 2512poe     o212857   2.327   4.981   1.677  0.3454 -0.0811  0.5421
 2512poe    c2312858   2.418   4.874   1.684 -0.0165 -0.4679 -0.5046
 2512poe    c2312859   2.566   4.912   1.703  0.1088 -0.8681 -0.6519
 2512poe     o212860   2.596   4.988   1.587  0.2434 -0.0350 -0.0819
 2512poe    c2312861   2.736   4.996   1.573  0.1841  0.2403 -0.5165
 2512poe    c2312862   2.775   5.056   1.436  0.0036  0.8408 -0.3085
 2512poe     o212863   2.763   5.196   1.441 -0.2667  0.7956  0.6653
 2512poe    c3112864   2.645   5.236   1.374 -0.0936 -0.1292 -0.2135
 2513poe    c3112865   3.531   0.089   5.015 -0.3586  0.2479  0.9019
 2513poe     o212866   3.667   0.078   4.978 -0.6157  0.1734 -0.0544
 2513poe    c2312867   3.750   0.117   5.085 -0.5904 -1.5360  0.5831
 2513poe    c2312868   3.892   0.074   5.045 -0.3795  0.0567 -0.4912
 2513poe     o212869   3.926   0.130   4.920  0.2418  0.2084 -0.2607
 2513poe    c2312870   4.053   0.078   4.888  0.0813 -0.2399 -0.1773
 2513poe    c2312871   4.134   0.145   4.775 -0.1557  0.2330 -0.0660
 2513poe     o212872   4.177   0.269   4.827  0.2195  0.0183  0.1390
 2513poe    c2312873   4.266   0.339   4.744  0.2579 -0.3595 -0.1411
 2513poe    c2312874   4.303   0.479   4.796 -0.0531 -0.5089  0.4945
 2513poe     o212875   4.185   0.549   4.827  0.0383 -0.1045 -0.0529
 2513poe    c3112876   4.196   0.684   4.787  0.7022 -0.0392  0.3444
 2514poe    c3112877   4.156   4.752   3.969 -0.4302 -0.2720 -0.0067
 2514poe     o212878   4.160   4.612   3.955 -0.0215 -0.3385  0.7093
 2514poe    c2312879   4.072   4.578   3.850 -0.2145  0.2103  0.6896
 2514poe    c2312880   3.965   4.479   3.902 -0.0015 -0.0603  0.6116
 2514poe     o212881   4.011   4.346   3.898 -0.0044 -0.0423 -0.7294
 2514poe    c2312882   3.919   4.243   3.926 -0.2925  0.2071 -0.7595
 2514poe    c2312883   4.001   4.139   4.005 -0.0202  0.7004 -0.3893
 2514poe     o212884   4.108   4.085   3.932 -0.4913 -0.7546 -0.0259
 2514poe    c2312885   4.228   4.060   4.002  0.2599  0.6280 -0.7752
 2514poe    c2312886   4.343   4.037   3.902  0.7878 -0.0618 -0.0237
 2514poe     o212887   4.336   4.147   3.814  0.6148  0.0168  0.0871
 2514poe    c3112888   4.457   4.158   3.742  0.2935 -0.1913 -0.4931
 2515poe    c3112889   1.127   3.547   6.702 -0.0812 -0.1602  0.4366
 2515poe     o212890   0.992   3.583   6.682  0.1102  0.6383  0.5290
 2515poe    c2312891   0.906   3.519   6.774  0.0618 -0.2873 -0.1421
 2515poe    c2312892   0.780   3.605   6.792  0.4820  0.3554 -0.2159
 2515poe     o212893   0.735   3.602   6.658 -0.5238 -0.3267  0.1197
 2515poe    c2312894   0.603   3.653   6.656 -0.0850  0.8460 -0.3217
 2515poe    c2312895   0.556   3.641   6.510  0.0250 -0.1467 -0.2843
 2515poe     o212896   0.630   3.730   6.430  0.0934 -0.2519 -0.3391
 2515poe    c2312897   0.545   3.787   6.334  0.2187 -0.4255 -0.5523
 2515poe    c2312898   0.638   3.837   6.222  0.2242  0.2213 -0.2575
 2515poe     o212899   0.735   3.926   6.274 -0.3541  0.7587 -0.0926
 2515poe    c3112900   0.829   3.976   6.182 -0.5958  0.5446 -0.4573
 2516poe    c3112901   5.042   3.208   2.126 -0.2270 -0.1693  0.2470
 2516poe     o212902   5.007   3.311   2.217 -0.4008  0.1443 -0.1742
 2516poe    c2312903   5.056   3.438   2.181 -0.8200  0.1875 -0.6140
 2516poe    c2312904   5.035   3.520   2.310  0.7802 -0.4026  0.0515
 2516poe     o212905   4.910   3.497   2.370  0.6396 -0.1418 -0.1391
 2516poe    c2312906   4.882   3.576   2.483  0.2902  0.3805 -0.5810
 2516poe    c2312907   4.735   3.557   2.525  0.5719 -0.1975  0.1586
 2516poe     o212908   4.704   3.419   2.536  0.0031 -0.1095 -0.3348
 2516poe    c2312909   4.587   3.404   2.614  0.0664 -0.4944 -0.3155
 2516poe    c2312910   4.461   3.376   2.531 -0.5016 -0.4349  0.5135
 2516poe     o212911   4.487   3.267   2.445 -0.0337 -0.3021  0.4827
 2516poe    c3112912   4.381   3.260   2.353  0.2990  0.0893  0.0648
 2517poe    c3112913   0.996   5.289   4.312 -0.8902 -0.6172 -0.0528
 2517poe     o212914   1.002   5.179   4.224 -0.8316 -0.4687 -0.2347
 2517poe    c2312915   1.025   5.227   4.093  0.0140 -0.1918  0.0124
 2517poe    c2312916   0.991   5.128   3.981 -0.7494 -0.0293  0.0939
 2517poe     o212917   1.072   5.016   3.954 -0.5063  0.2211 -0.2379
 2517poe    c2312918   1.204   5.047   3.915 -0.4932 -0.1883 -0.5351
 2517poe    c2312919   1.301   4.928   3.924 -0.3837 -0.0486  0.2276
 2517poe     o212920   1.290   4.841   4.034 -0.0765 -0.1590  0.1730
 2517poe    c2312921   1.334   4.713   3.995 -0.5278 -0.2022 -0.1966
 2517poe    c2312922   1.310   4.619   4.114  0.0150  0.1743  0.2163
 2517poe     o212923   1.194   4.670   4.176 -0.6314 -0.3436 -0.5379
 2517poe    c3112924   1.188   4.606   4.302  0.5211 -0.0241 -0.3092
 2518poe    c3112925   3.971   2.712   5.947 -0.5972  0.2324 -0.0643
 2518poe     o212926   3.909   2.831   5.991 -0.3394  0.1704  0.4781
 2518poe    c2312927   3.825   2.879   5.888 -0.0312 -0.0738  0.1123
 2518poe    c2312928   3.748   3.009   5.913  0.1636  0.1297 -0.3349
 2518poe     o212929   3.814   3.133   5.926  0.1150  0.1070  0.1331
 2518poe    c2312930   3.838   3.196   5.802  0.1671 -0.5390 -0.1884
 2518poe    c2312931   3.921   3.325   5.808 -0.2161 -0.3187  0.5747
 2518poe     o212932   3.824   3.427   5.822  0.1064  0.0498  0.1395
 2518poe    c2312933   3.851   3.519   5.718 -0.3640 -0.1903 -0.1953
 2518poe    c2312934   3.709   3.578   5.714 -0.3148 -0.0367  0.3315
 2518poe     o212935   3.606   3.491   5.675 -0.6353  0.8310 -0.8215
 2518poe    c3112936   3.563   3.492   5.541 -0.0919  0.6764 -1.0012
 2519poe    c3112937   5.114   1.475   4.152 -0.5562 -0.6311 -0.5131
 2519poe     o212938   4.977   1.506   4.139 -0.3483  0.3707 -0.3861
 2519poe    c2312939   4.942   1.633   4.188  0.1930  0.3898 -0.0310
 2519poe    c2312940   4.805   1.670   4.126  0.1781 -0.1259 -0.3051
 2519poe     o212941   4.726   1.555   4.148 -0.1547  0.1325 -0.1584
 2519poe    c2312942   4.592   1.591   4.124 -0.1714 -0.5095 -1.0882
 2519poe    c2312943   4.495   1.474   4.145  0.2693 -0.7412 -0.2972
 2519poe     o212944   4.497   1.423   4.277  0.5674 -0.5496 -0.2278
 2519poe    c2312945   4.432   1.298   4.288 -0.4604 -0.0003 -0.0199
 2519poe    c2312946   4.477   1.227   4.417  0.3104  0.9293  0.2366
 2519poe     o212947   4.609   1.179   4.414  0.0497  0.2157 -0.2185
 2519poe    c3112948   4.617   1.128   4.545 -0.4905 -0.3612 -0.4052
 2520poe    c3112949   2.732   2.157   0.425  0.0750  0.7090 -0.4709
 2520poe     o212950   2.784   2.287   0.444  0.7255  0.3328  0.3995
 2520poe    c2312951   2.767   2.356   0.322 -0.5051 -0.1374  0.2885
 2520poe    c2312952   2.774   2.509   0.339 -0.0765 -0.1804  0.5220
 2520poe     o212953   2.888   2.579   0.381  0.0567 -0.1851  0.1746
 2520poe    c2312954   2.870   2.717   0.402 -1.2097 -0.4111  0.6431
 2520poe    c2312955   2.990   2.774   0.480 -0.4053 -0.5565 -0.4780
 2520poe     o212956   3.103   2.733   0.406  0.3342  0.1266  0.2528
 2520poe    c2312957   3.208   2.822   0.437  0.2814  0.2787  0.0027
 2520poe    c2312958   3.336   2.799   0.355  0.1850 -0.1937 -0.0205
 2520poe     o212959   3.440   2.713   0.396 -0.0312 -0.6421 -0.4031
 2520poe    c3112960   3.540   2.776   0.472 -0.7017  0.1001 -0.1190
 2521poe    c3112961   0.920   5.698   6.040 -0.4011 -0.0890  0.3099
 2521poe     o212962   0.919   5.586   6.126 -0.3541 -0.2835  0.0568
 2521poe    c2312963   0.964   5.619   6.255  0.0162 -0.7084  0.0382
 2521poe    c2312964   1.017   5.501   6.339  0.2407 -0.5006  0.1908
 2521poe     o212965   0.909   5.430   6.395 -0.0740 -0.5643 -0.4836
 2521poe    c2312966   0.949   5.380   6.521 -0.1010  0.0711 -0.2205
 2521poe    c2312967   0.893   5.475   6.629  0.4877 -0.3146  0.4310
 2521poe     o212968   0.756   5.449   6.645  0.2217  0.6079 -0.2668
 2521poe    c2312969   0.713   5.488   6.773 -0.3454 -0.5560 -0.0876
 2521poe    c2312970   0.563   5.463   6.797 -0.4573 -0.4288 -0.6452
 2521poe     o212971   0.533   5.328   6.771  0.2736 -0.6661 -0.2743
 2521poe    c3112972   0.394   5.311   6.785  0.1324  0.3001 -0.4446
 2522poe    c3112973   6.639   0.027   5.730 -0.2588  0.0691  0.5885
 2522poe     o212974   6.560   0.081   5.627  0.0862 -0.3702  0.0884
 2522poe    c2312975   6.428   0.091   5.676  0.3272 -0.1886  0.7017
 2522poe    c2312976   6.355   0.169   5.565  0.4307 -0.1493  0.6613
 2522poe     o212977   6.448   0.230   5.478  0.3117 -0.4483  0.3179
 2522poe    c2312978   6.373   0.321   5.400  0.6571  0.6520  1.2353
 2522poe    c2312979   6.465   0.421   5.326  0.0688  0.4727  0.2395
 2522poe     o212980   6.579   0.363   5.267 -0.5437 -0.1563 -0.3393
 2522poe    c2312981   6.657   0.441   5.178 -0.0352 -0.3946 -0.1060
 2522poe    c2312982   6.781   0.374   5.117 -0.2850 -0.1437 -0.8928
 2522poe     o212983   6.869   0.341   5.222 -0.5934  0.8859 -0.2983
 2522poe    c3112984   6.988   0.293   5.163 -0.4717  0.5942  0.1725
 2523poe    c3112985   4.199   5.985   0.912 -0.3596 -0.0683  0.0874
 2523poe     o212986   4.295   5.892   0.958  0.6295  0.6508 -0.5042
 2523poe    c2312987   4.428   5.935   0.935  0.8570  0.1795 -0.0946
 2523poe    c2312988   4.536   5.841   0.991  0.1737 -0.4993  0.1007
 2523poe     o212989   4.554   5.722   0.917  0.2284 -0.2242 -0.3332
 2523poe    c2312990   4.634   5.642   1.001 -0.2506 -0.1640  0.1859
 2523poe    c2312991   4.613   5.495   0.962  0.2562 -0.2940  0.3957
 2523poe     o212992   4.481   5.446   0.974  0.1202 -0.1212 -0.3760
 2523poe    c2312993   4.466   5.313   0.928 -0.0117 -0.2021 -0.0980
 2523poe    c2312994   4.324   5.270   0.966  0.1615 -0.4257  0.3104
 2523poe     o212995   4.234   5.368   0.917  0.0138 -0.5970  0.2370
 2523poe    c3112996   4.102   5.358   0.966 -0.2054  0.2949 -0.1593
 2524poe    c3112997   2.236   0.123   4.951  0.3324  0.3056  0.7195
 2524poe     o212998   2.364   0.092   4.901 -0.1527 -0.1493 -0.2774
 2524poe    c2312999   2.453   0.117   5.008 -0.1524 -0.6852 -0.1482
 2524poe    c2313000   2.596   0.074   4.967  0.3452  0.2730  0.5504
 2524poe     o213001   2.591  -0.052   4.903 -0.0501  0.8201 -0.5042
 2524poe    c2313002   2.718  -0.096   4.862 -0.0139  0.3286  0.1192
 2524poe    c2313003   2.711  -0.222   4.773  0.2279 -0.0684  0.6588
 2524poe     o213004   2.614  -0.210   4.671  1.0313  0.1032 -0.0981
 2524poe    c2313005   2.600  -0.325   4.591 -0.4887  0.3150 -0.1683
 2524poe    c2313006   2.527  -0.449   4.645  0.0738  0.0697  0.0332
 2524poe     o213007   2.397  -0.415   4.687  0.0533  0.2417 -0.1685
 2524poe    c3113008   2.333  -0.529   4.742 -0.2860  0.4580 -0.1145
 2525poe    c3113009   3.379   4.353   6.677  0.2707  0.0158  0.0481
 2525poe     o213010   3.512   4.306   6.668  0.2742  0.1161 -0.4346
 2525poe    c2313011   3.604   4.399   6.615  0.3370  0.3999  0.1595
 2525poe    c2313012   3.704   4.472   6.707  0.0983  0.6666  0.2082
 2525poe     o213013   3.781   4.380   6.781 -0.2579  0.3707  0.2180
 2525poe    c2313014   3.897   4.444   6.830 -0.4781  0.5253  0.5308
 2525poe    c2313015   3.971   4.342   6.918 -0.1664  0.3402  0.0569
 2525poe     o213016   3.872   4.248   6.956 -0.0389  0.0982 -0.2051
 2525poe    c2313017   3.917   4.149   7.045  0.7865  0.6470  0.0059
 2525poe    c2313018   3.953   4.022   6.965 -0.0413  0.4047  0.0033
 2525poe     o213019   3.828   3.999   6.904 -0.0809  0.3043  0.1235
 2525poe    c3113020   3.816   3.865   6.862  0.3218  0.3604 -0.1768
 2526poe    c3113021   0.598   6.111   5.157 -0.2321 -0.3679 -0.0872
 2526poe     o213022   0.722   6.053   5.192  0.1896  0.2644 -0.5312
 2526poe    c2313023   0.740   5.945   5.104 -0.1508 -0.2803  0.0639
 2526poe    c2313024   0.883   5.929   5.050  0.0475  0.2962  0.4232
 2526poe     o213025   0.903   6.002   4.931  0.0207 -0.3185  0.0388
 2526poe    c2313026   1.044   6.005   4.921  0.0047  0.2820 -0.0211
 2526poe    c2313027   1.098   5.963   4.784  0.5973  0.0831  0.2731
 2526poe     o213028   1.113   5.823   4.769 -0.4885  0.0201 -0.2622
 2526poe    c2313029   1.153   5.779   4.641  0.9428  0.3272  0.0652
 2526poe    c2313030   1.180   5.628   4.643 -0.4055  0.0678 -0.2950
 2526poe     o213031   1.075   5.544   4.685  0.1018 -0.2988  0.2548
 2526poe    c3113032   1.104   5.411   4.648  0.0780 -0.1057 -0.4602
 2527poe    c3113033   6.754   6.473   4.375  0.3661 -0.0295 -0.3796
 2527poe     o213034   6.858   6.478   4.280  0.3938  0.1737 -0.3384
 2527poe    c2313035   6.817   6.498   4.147  0.0136 -0.0758 -0.2604
 2527poe    c2313036   6.940   6.489   4.054 -0.0089  0.6347 -0.3631
 2527poe     o213037   7.027   6.597   4.077 -0.1828  0.7865 -0.4190
 2527poe    c2313038   7.141   6.602   3.994  0.1435  0.0818 -0.0197
 2527poe    c2313039   7.239   6.711   4.041 -0.3525  0.2695  0.5870
 2527poe     o213040   7.280   6.715   4.176  0.1707  0.4165  0.4253
 2527poe    c2313041   7.369   6.812   4.226  0.0115  0.7078  0.1519
 2527poe    c2313042   7.391   6.781   4.375 -0.2794  0.5835  0.1697
 2527poe     o213043   7.282   6.711   4.431  0.2155 -0.2094  0.1622
 2527poe    c3113044   7.300   6.688   4.569  0.6555  0.5459  0.2376
 2528poe    c3113045   1.213   2.861   4.716  0.3538  0.5871 -0.1172
 2528poe     o213046   1.176   2.946   4.823  0.0944 -0.1451  0.3813
 2528poe    c2313047   1.286   2.979   4.905  0.3432  0.4212 -0.1738
 2528poe    c2313048   1.227   3.082   5.004 -0.0145 -0.1356  0.2007
 2528poe     o213049   1.103   3.036   5.053  0.2025 -0.0159  0.8636
 2528poe    c2313050   1.054   3.127   5.150 -0.2005  0.0304  0.6158
 2528poe    c2313051   0.927   3.054   5.198 -0.1739  0.0581  0.7263
 2528poe     o213052   0.838   3.037   5.090 -0.0840  0.3181  0.6112
 2528poe    c2313053   0.722   2.980   5.144 -0.1989  0.0500  0.0922
 2528poe    c2313054   0.625   2.956   5.027 -0.2046 -0.2239  0.1511
 2528poe     o213055   0.671   2.866   4.929  0.2674  0.0634  0.1057
 2528poe    c3113056   0.607   2.883   4.805 -0.6767 -0.2197  0.5411
 2529poe    c3113057   5.454   6.842   5.380 -0.5592  0.1944  0.2516
 2529poe     o213058   5.320   6.814   5.413 -0.6144 -0.3284 -0.3878
 2529poe    c2313059   5.249   6.932   5.440  0.6366  0.4358 -0.3743
 2529poe    c2313060   5.097   6.909   5.449  0.6578  0.2701 -0.4366
 2529poe     o213061   5.050   6.844   5.333  0.0628 -0.3664  0.1525
 2529poe    c2313062   4.914   6.810   5.345  0.0563 -0.3514  0.1215
 2529poe    c2313063   4.852   6.740   5.222  0.4659  0.2913 -0.4605
 2529poe     o213064   4.915   6.618   5.189 -0.2629 -0.2849  0.2394
 2529poe    c2313065   4.884   6.594   5.054 -0.5433 -0.6930  0.3737
 2529poe    c2313066   4.923   6.454   5.003  0.3364 -0.2527 -0.1971
 2529poe     o213067   5.060   6.431   5.026  0.2607  0.0431  0.5560
 2529poe    c3113068   5.118   6.321   4.960 -0.4325  0.0117 -0.0141
 2530poe    c3113069   2.951   4.517   1.175 -0.2949 -0.3595  0.1285
 2530poe     o213070   2.825   4.524   1.239 -0.4561 -0.0870 -0.2151
 2530poe    c2313071   2.828   4.608   1.352  0.0594 -0.0869 -0.2258
 2530poe    c2313072   2.692   4.606   1.425 -0.2657  0.3375 -0.8168
 2530poe     o213073   2.598   4.684   1.355 -0.4399  0.4809 -0.4255
 2530poe    c2313074   2.475   4.616   1.345 -0.1594 -0.1206  0.1366
 2530poe    c2313075   2.358   4.705   1.301 -0.4450 -0.5182  0.0907
 2530poe     o213076   2.250   4.624   1.259 -0.3496 -0.4469 -0.2950
 2530poe    c2313077   2.146   4.718   1.242 -0.4170 -0.4449  0.1116
 2530poe    c2313078   2.016   4.636   1.254 -0.1371 -0.8724  0.2394
 2530poe     o213079   1.903   4.718   1.277  0.3853 -0.0017 -0.2552
 2530poe    c3113080   1.813   4.621   1.325  0.2309  0.1880 -0.1648
 2531poe    c3113081   0.124   2.593   2.367 -0.3099 -0.0466 -0.1938
 2531poe     o213082   0.052   2.657   2.265 -0.3224  0.1062 -0.0885
 2531poe    c2313083  -0.082   2.670   2.307 -0.1972  0.6237  0.1682
 2531poe    c2313084  -0.177   2.700   2.189  0.4801  0.4546 -0.4284
 2531poe     o213085  -0.205   2.594   2.100 -0.0943  0.1125  0.1456
 2531poe    c2313086  -0.329   2.613   2.035  0.1289  0.0906 -0.2935
 2531poe    c2313087  -0.385   2.491   1.960  0.6322 -0.2023 -0.1952
 2531poe     o213088  -0.423   2.390   2.050  0.0905 -0.2868 -0.5108
 2531poe    c2313089  -0.447   2.261   2.000  0.3983 -0.4437 -0.2657
 2531poe    c2313090  -0.574   2.191   2.052  0.1238  0.4686  0.3207
 2531poe     o213091  -0.548   2.128   2.176  0.4002 -0.3220 -0.1305
 2531poe    c3113092  -0.660   2.046   2.203 -0.0124  0.2548 -0.0837
 2532poe    c3113093   3.443   7.144   2.795  0.3558  0.4509  0.4450
 2532poe     o213094   3.386   7.262   2.743 -0.0427  0.0049 -0.1495
 2532poe    c2313095   3.411   7.265   2.605  0.7886 -0.1293 -0.0082
 2532poe    c2313096   3.402   7.409   2.552 -0.1469 -0.1721  0.0144
 2532poe     o213097   3.281   7.479   2.569  0.0778  0.2389 -0.0493
 2532poe    c2313098   3.308   7.607   2.517  0.3617  0.1773 -0.0518
 2532poe    c2313099   3.197   7.708   2.550  0.2133  0.1416 -0.4346
 2532poe     o213100   3.072   7.679   2.493 -0.0471 -0.2404  0.3142
 2532poe    c2313101   3.054   7.695   2.354 -0.0458  0.6589  0.4127
 2532poe    c2313102   2.919   7.658   2.291  0.3487  0.6062 -0.4218
 2532poe     o213103   2.892   7.522   2.316 -0.3872  0.8660  0.2458
 2532poe    c3113104   2.771   7.491   2.250  0.0344 -1.0044  0.3120
 2533poe    c3113105   2.176   4.460   3.709 -0.0709 -0.8415  0.2798
 2533poe     o213106   2.153   4.497   3.843  0.6728 -0.0417  0.1915
 2533poe    c2313107   2.202   4.625   3.879 -0.4671  0.6010 -0.4976
 2533poe    c2313108   2.179   4.653   4.028  0.3545  0.0739 -0.2652
 2533poe     o213109   2.230   4.781   4.059  0.4166 -0.1248  0.4773
 2533poe    c2313110   2.149   4.841   4.157 -0.8709  0.4219 -0.8806
 2533poe    c2313111   2.203   4.982   4.189 -0.3171  0.0515 -0.1663
 2533poe     o213112   2.343   4.971   4.206 -0.3771 -0.8609 -0.2082
 2533poe    c2313113   2.400   5.098   4.225 -0.0963 -1.0048 -0.0779
 2533poe    c2313114   2.552   5.100   4.206 -0.0711 -0.1993  0.1745
 2533poe     o213115   2.573   5.031   4.085 -0.4678  0.3461 -0.2063
 2533poe    c3113116   2.711   5.017   4.062 -0.3678  0.5981  0.2265
 2534poe    c3113117   6.971   5.202   5.242 -1.1688 -0.2493  0.2487
 2534poe     o213118   6.970   5.176   5.103 -0.1599  0.3912  0.1160
 2534poe    c2313119   6.952   5.286   5.016 -0.3959  0.3088  0.0587
 2534poe    c2313120   6.910   5.232   4.879  0.3574 -0.6559  0.1918
 2534poe     o213121   6.773   5.199   4.886  0.2501 -0.2779 -0.0710
 2534poe    c2313122   6.719   5.176   4.757 -0.1057  0.1296  0.0026
 2534poe    c2313123   6.576   5.123   4.772 -0.0412 -0.0278  0.0612
 2534poe     o213124   6.565   5.000   4.841  0.1358  0.0556  0.2385
 2534poe    c2313125   6.430   4.982   4.879  0.2335  0.1233  0.6121
 2534poe    c2313126   6.430   4.833   4.918 -0.2204 -0.0734 -0.1343
 2534poe     o213127   6.518   4.814   5.027 -0.3164 -0.2527 -0.0881
 2534poe    c3113128   6.524   4.674   5.045  0.5546 -0.1416  0.5094
 2535poe    c3113129   1.742   4.312   6.198 -0.2511  0.6829  0.2067
 2535poe     o213130   1.646   4.285   6.098  0.4788  0.1608 -0.3668
 2535poe    c2313131   1.659   4.152   6.053 -0.4413  0.0782 -0.4139
 2535poe    c2313132   1.668   4.147   5.900 -0.4616 -0.0724 -0.4102
 2535poe     o213133   1.550   4.203   5.845 -0.2694  0.6018 -0.1365
 2535poe    c2313134   1.537   4.200   5.705  0.2667  0.0682 -0.1819
 2535poe    c2313135   1.392   4.238   5.669  0.4412  0.2330 -0.7182
 2535poe     o213136   1.342   4.353   5.732  0.2655 -0.1901 -0.0751
 2535poe    c2313137   1.203   4.365   5.714  0.1984 -0.5843  0.1771
 2535poe    c2313138   1.169   4.507   5.765 -0.1840 -0.6250  0.0400
 2535poe     o213139   1.238   4.520   5.887 -0.0747 -0.7974 -0.0027
 2535poe    c3113140   1.213   4.643   5.952 -0.5632 -0.7848 -0.2088
 2536poe    c3113141   4.755   3.072   4.537  0.0779  0.3439 -0.2348
 2536poe     o213142   4.628   3.011   4.525  0.4056 -0.2915 -0.4776
 2536poe    c2313143   4.554   3.022   4.644  0.2373 -0.3093 -0.5792
 2536poe    c2313144   4.410   2.970   4.629  0.0341  0.0482  0.0963
 2536poe     o213145   4.423   2.841   4.574  0.0402 -0.0477  0.3188
 2536poe    c2313146   4.303   2.767   4.569  0.1875 -0.2562 -0.1868
 2536poe    c2313147   4.340   2.618   4.582  0.5651 -0.1090  0.4808
 2536poe     o213148   4.439   2.597   4.483 -0.0925  0.1898 -0.2540
 2536poe    c2313149   4.481   2.463   4.477 -0.0405  0.2039 -0.2081
 2536poe    c2313150   4.616   2.421   4.415  0.0958  0.5762 -0.1645
 2536poe     o213151   4.724   2.495   4.468  0.3096  0.0735  0.1098
 2536poe    c3113152   4.844   2.423   4.484  0.4759  0.3345  0.0377
 2537poe    c3113153   4.085   3.027   0.031 -0.0230  0.2380  0.4526
 2537poe     o213154   4.218   2.982   0.017  0.1067  0.7637 -0.0684
 2537poe    c2313155   4.309   3.083  -0.018  0.4185  0.6164  0.3032
 2537poe    c2313156   4.452   3.061   0.035  0.3804  0.4012  0.3155
 2537poe     o213157   4.470   3.094   0.170 -0.3185 -0.0921  0.5353
 2537poe    c2313158   4.602   3.051   0.196 -0.2455 -0.4787 -0.4520
 2537poe    c2313159   4.633   2.998   0.337 -0.0735  0.0603 -0.2827
 2537poe     o213160   4.589   2.865   0.356 -0.1528  0.1461  0.1354
 2537poe    c2313161   4.645   2.808   0.473  0.6048  0.3961 -0.0993
 2537poe    c2313162   4.677   2.657   0.468 -0.0184  0.2562  0.0739
 2537poe     o213163   4.808   2.630   0.425 -0.0706  0.6533 -0.3427
 2537poe    c3113164   4.817   2.491   0.447 -0.8401  0.7400  0.5460
 2538poe    c3113165   3.943   0.603   5.633  0.0446 -0.0804  0.6519
 2538poe     o213166   4.040   0.523   5.569  0.1334  0.6428 -0.1380
 2538poe    c2313167   4.001   0.389   5.587  0.3371  0.5252 -0.5576
 2538poe    c2313168   4.077   0.282   5.507 -0.5054 -0.2904 -0.2849
 2538poe     o213169   4.195   0.253   5.578 -0.5991  0.2174  0.0829
 2538poe    c2313170   4.297   0.215   5.489 -0.3578 -0.2018  0.5355
 2538poe    c2313171   4.436   0.211   5.556 -0.2970 -1.0563  0.3781
 2538poe     o213172   4.488   0.341   5.575 -0.2315 -1.0056 -0.1241
 2538poe    c2313173   4.598   0.330   5.662  0.0322  0.3404 -0.2679
 2538poe    c2313174   4.674   0.464   5.671  0.5558  0.0639 -0.5049
 2538poe     o213175   4.616   0.568   5.748 -0.1217 -0.5034 -0.2345
 2538poe    c3113176   4.645   0.565   5.886 -0.6344  0.1008 -0.1117
 2539poe    c3113177   0.613   7.228   6.718 -0.4421  0.6984  0.0011
 2539poe     o213178   0.683   7.284   6.609  0.0737  0.0799  0.0105
 2539poe    c2313179   0.667   7.424   6.611  0.3030  0.1058  0.2088
 2539poe    c2313180   0.791   7.494   6.550 -0.1662  0.4340 -0.3886
 2539poe     o213181   0.832   7.411   6.444  0.0682  0.1948 -0.1134
 2539poe    c2313182   0.945   7.457   6.373  0.1796 -0.4465 -0.3623
 2539poe    c2313183   0.974   7.357   6.259  0.5297  0.1927 -0.8406
 2539poe     o213184   1.017   7.239   6.322  0.0295  0.5667  0.2339
 2539poe    c2313185   1.083   7.156   6.229 -0.2063  0.4616  0.1583
 2539poe    c2313186   1.117   7.015   6.281 -0.0332  0.4808  0.1006
 2539poe     o213187   0.997   6.947   6.311  0.4783 -0.3630  0.2530
 2539poe    c3113188   1.033   6.817   6.271 -0.5077 -0.3905 -0.5820
 2540poe    c3113189   0.238   1.503   3.436 -0.5149  0.5103 -0.1139
 2540poe     o213190   0.283   1.627   3.388 -0.2690  0.5292  0.1646
 2540poe    c2313191   0.269   1.733   3.480  0.2202  0.5521  0.2155
 2540poe    c2313192   0.333   1.856   3.413  0.4966  0.3709  0.1434
 2540poe     o213193   0.436   1.811   3.328  0.0795  0.0335 -0.1867
 2540poe    c2313194   0.457   1.911   3.230 -0.2092  0.6510  0.3748
 2540poe    c2313195   0.590   1.862   3.171 -0.7731 -0.7261  0.2124
 2540poe     o213196   0.564   1.739   3.107 -0.1803 -0.4920 -0.4915
 2540poe    c2313197   0.642   1.743   2.990  0.3894  0.3230 -0.0951
 2540poe    c2313198   0.600   1.627   2.897 -0.0131  0.4874 -0.1186
 2540poe     o213199   0.461   1.641   2.879 -0.2258 -0.4998  0.6449
 2540poe    c3113200   0.404   1.539   2.801 -0.2829  0.2074 -0.2531
 2541poe    c3113201   5.840   3.206   4.207  0.4241  0.1707  0.1389
 2541poe     o213202   5.715   3.185   4.268  0.3994 -0.4875 -0.1320
 2541poe    c2313203   5.641   3.113   4.172 -0.3298 -0.5478  0.4700
 2541poe    c2313204   5.488   3.133   4.177 -0.3124 -0.1275 -0.5239
 2541poe     o213205   5.404   3.079   4.277 -0.3120  0.6398 -0.1056
 2541poe    c2313206   5.383   3.173   4.380 -0.2785  0.6161 -0.0764
 2541poe    c2313207   5.355   3.094   4.509  0.2052 -0.2248 -0.4804
 2541poe     o213208   5.249   3.008   4.473  0.0998 -0.0587 -0.5698
 2541poe    c2313209   5.207   2.912   4.567  0.3443  0.2974 -0.0928
 2541poe    c2313210   5.083   2.834   4.516  0.2650  0.3504  0.0171
 2541poe     o213211   5.115   2.807   4.382  0.1617  0.6771 -0.0758
 2541poe    c3113212   5.030   2.707   4.329  0.1168  0.4171  0.4821
 2542poe    c3113213   3.648   3.844   4.594 -0.2547 -0.3090  0.3581
 2542poe     o213214   3.571   3.741   4.653  0.0655 -0.6325  0.2162
 2542poe    c2313215   3.535   3.772   4.786  0.1716  0.3766  0.0201
 2542poe    c2313216   3.522   3.646   4.873 -0.6135  0.5943  0.2264
 2542poe     o213217   3.421   3.560   4.825 -0.1677  0.0888  0.1884
 2542poe    c2313218   3.412   3.437   4.894 -0.4645  0.1781  0.3125
 2542poe    c2313219   3.306   3.344   4.832  0.3066 -0.0805 -0.6557
 2542poe     o213220   3.325   3.341   4.692  0.8852 -0.4764 -0.5708
 2542poe    c2313221   3.258   3.235   4.628 -0.2348 -0.3555  0.3606
 2542poe    c2313222   3.293   3.237   4.478  0.2063 -0.2875  0.4630
 2542poe     o213223   3.275   3.371   4.439 -0.2959 -0.4551  0.1185
 2542poe    c3113224   3.270   3.378   4.298 -0.5633  1.4982  0.1903
 2543poe    c3113225   0.954   2.901   0.266  0.2652 -0.2917  0.1342
 2543poe     o213226   1.009   2.992   0.173 -0.2257 -0.5355 -0.4050
 2543poe    c2313227   1.084   2.902   0.095  0.2826 -0.4745  0.0013
 2543poe    c2313228   1.126   2.980  -0.032  0.3163 -0.6368 -0.0875
 2543poe     o213229   1.118   3.117   0.002 -0.2171 -0.6122 -0.2964
 2543poe    c2313230   1.146   3.196  -0.111 -0.4925 -0.8788 -0.5556
 2543poe    c2313231   1.011   3.255  -0.153 -0.3812 -0.4423 -0.3033
 2543poe     o213232   0.958   3.298  -0.029 -0.1515 -0.3927 -0.2220
 2543poe    c2313233   0.829   3.357  -0.028  0.0576  0.0642  0.3215
 2543poe    c2313234   0.771   3.337   0.113 -0.2466 -0.1223  0.1696
 2543poe     o213235   0.824   3.211   0.148  0.1576  0.1551  0.5705
 2543poe    c3113236   0.758   3.166   0.264 -0.1198  0.0866  0.3879
 2544poe    c3113237   2.422   5.917   4.990  0.3253 -0.1656  0.2234
 2544poe     o213238   2.344   5.806   5.028  0.0685  0.0015  0.1873
 2544poe    c2313239   2.438   5.703   5.049  0.0728 -0.0739 -0.1955
 2544poe    c2313240   2.363   5.572   5.080  0.0527 -0.1309 -0.4771
 2544poe     o213241   2.241   5.584   5.010 -0.1212  0.3974 -0.0955
 2544poe    c2313242   2.170   5.463   5.022  0.2324  0.1438 -0.5161
 2544poe    c2313243   2.037   5.465   4.945 -0.2583 -0.0387  0.3209
 2544poe     o213244   1.955   5.574   4.984 -0.1698  0.2954 -0.4117
 2544poe    c2313245   1.855   5.525   5.070 -0.2368  0.0025 -0.6557
 2544poe    c2313246   1.770   5.642   5.122  0.7236  0.3873  0.0754
 2544poe     o213247   1.853   5.731   5.193  0.6055 -0.2610  1.0354
 2544poe    c3113248   1.787   5.847   5.237 -0.3545  0.0786 -1.1716
 2545poe    c3113249   4.718   4.987   4.572  0.3869  0.1152 -0.0229
 2545poe     o213250   4.777   4.866   4.530 -0.1467  0.0170 -0.4983
 2545poe    c2313251   4.823   4.807   4.649 -0.2248  0.2312 -0.3615
 2545poe    c2313252   4.901   4.676   4.625  0.1954  0.4971 -0.4523
 2545poe     o213253   4.910   4.598   4.743 -0.2997  0.2650 -0.5639
 2545poe    c2313254   4.935   4.464   4.710  0.0514  0.3002 -0.4475
 2545poe    c2313255   5.014   4.412   4.832 -0.2777  0.3275 -0.2223
 2545poe     o213256   4.957   4.468   4.948 -0.0974  0.1699 -0.0571
 2545poe    c2313257   4.995   4.396   5.063  0.0115 -0.1434 -0.2887
 2545poe    c2313258   4.977   4.471   5.196  0.1971  0.1408 -0.4215
 2545poe     o213259   4.983   4.608   5.166 -0.1860  0.2618  0.0375
 2545poe    c3113260   5.004   4.693   5.277  0.6381  0.0716  0.0371
 2546poe    c3113261   4.639   6.885   3.856  0.4557 -0.5363 -0.0907
 2546poe     o213262   4.732   6.838   3.761  0.4017  0.0968 -0.4579
 2546poe    c2313263   4.707   6.709   3.710  0.2653 -0.0542 -0.0139
 2546poe    c2313264   4.844   6.656   3.663  0.4851  0.3494  0.1700
 2546poe     o213265   4.896   6.747   3.568  0.1637  0.2179 -0.1306
 2546poe    c2313266   4.993   6.669   3.503 -0.2039  0.2110 -0.6846
 2546poe    c2313267   5.065   6.750   3.393 -0.2871  0.1359 -0.7951
 2546poe     o213268   4.969   6.848   3.364 -0.2664  0.4720  0.2303
 2546poe    c2313269   5.020   6.927   3.259 -0.2098 -0.5396 -0.5152
 2546poe    c2313270   4.938   7.057   3.262  0.8753  0.1545  0.3358
 2546poe     o213271   4.924   7.103   3.394  0.3950 -0.1464  0.3938
 2546poe    c3113272   4.864   7.230   3.399  0.3790 -0.1360 -0.0423
 2547poe    c3113273   3.894   2.013   3.307  0.3153  0.3573  0.6337
 2547poe     o213274   3.984   1.931   3.378  0.5734  0.1213  0.0400
 2547poe    c2313275   4.070   2.006   3.460  0.0824  0.6409  0.0841
 2547poe    c2313276   4.198   1.927   3.494 -1.0508 -1.3483 -0.1581
 2547poe     o213277   4.273   1.915   3.375  0.0753  0.0533  0.3823
 2547poe    c2313278   4.411   1.892   3.384  0.1028 -0.2570 -0.7057
 2547poe    c2313279   4.499   2.017   3.400 -0.0672 -0.2518  0.2838
 2547poe     o213280   4.498   2.090   3.279 -0.0527  0.1771  0.5407
 2547poe    c2313281   4.534   2.224   3.306 -0.1239  0.2407  0.3272
 2547poe    c2313282   4.679   2.265   3.335  0.1421 -0.4679  0.0202
 2547poe     o213283   4.722   2.244   3.468  0.1090 -0.1920  0.0757
 2547poe    c3113284   4.856   2.285   3.485  0.0582  0.0890 -0.1992
 2548poe    c3113285   5.648   0.538   0.595 -0.6347  0.4533  0.0094
 2548poe     o213286   5.579   0.649   0.543 -0.7522  0.3869  0.0243
 2548poe    c2313287   5.461   0.660   0.620 -0.8205 -0.3595  0.0350
 2548poe    c2313288   5.384   0.792   0.600  0.2598  0.2925  0.0845
 2548poe     o213289   5.326   0.817   0.474  0.1286  0.5085  0.1876
 2548poe    c2313290   5.186   0.817   0.489  0.1035  0.1165 -0.0194
 2548poe    c2313291   5.102   0.814   0.360 -0.0965  0.4193  0.1026
 2548poe     o213292   5.135   0.687   0.309 -0.0037  0.4927 -0.0191
 2548poe    c2313293   5.075   0.658   0.185  0.2562  0.0364 -0.0394
 2548poe    c2313294   5.098   0.509   0.152  0.2961  0.1271 -0.4262
 2548poe     o213295   5.232   0.477   0.121  0.2785  0.0423 -0.4149
 2548poe    c3113296   5.230   0.347   0.068 -0.5349 -0.1684  0.1249
 2549poe    c3113297   4.472   6.793   6.116  0.5551 -1.0026 -0.1657
 2549poe     o213298   4.359   6.801   6.031 -0.0721 -0.0834  0.7266
 2549poe    c2313299   4.248   6.722   6.068 -0.1191 -0.2243  0.2884
 2549poe    c2313300   4.141   6.735   5.958  0.0208  0.4145  0.2264
 2549poe     o213301   4.199   6.698   5.835  0.1440  1.1606  0.0568
 2549poe    c2313302   4.112   6.671   5.728  0.5181  0.1132  0.0118
 2549poe    c2313303   4.200   6.607   5.619  0.2488 -0.2956  0.0330
 2549poe     o213304   4.290   6.708   5.579 -0.1830  0.2034  0.3134
 2549poe    c2313305   4.400   6.657   5.506 -0.0365  0.7757  0.1318
 2549poe    c2313306   4.461   6.780   5.436  0.0722  0.5404 -0.1878
 2549poe     o213307   4.513   6.874   5.527  0.5728  0.2847 -0.2103
 2549poe    c3113308   4.598   6.962   5.458 -0.4442  0.9326 -0.6567
 2550poe    c3113309   2.149   6.185   4.646 -0.2748 -0.8936  0.0633
 2550poe     o213310   2.095   6.230   4.524 -0.2601  0.4106  0.5269
 2550poe    c2313311   2.074   6.369   4.527 -0.0717  0.4515  0.0891
 2550poe    c2313312   1.981   6.390   4.406 -0.1423  0.2701  0.1111
 2550poe     o213313   1.999   6.281   4.319 -0.6620 -0.3011  0.7118
 2550poe    c2313314   1.902   6.303   4.219 -0.1045 -0.6516  0.0843
 2550poe    c2313315   1.902   6.205   4.100 -0.0576 -0.0854 -0.3875
 2550poe     o213316   1.869   6.078   4.151  0.3985 -0.1123 -0.1538
 2550poe    c2313317   1.782   5.994   4.079  0.4341 -0.1049 -0.2039
 2550poe    c2313318   1.751   5.854   4.137 -0.5631  0.1893 -0.0137
 2550poe     o213319   1.863   5.769   4.139 -0.5541  0.2043  0.1041
 2550poe    c3113320   1.849   5.640   4.196 -0.1944  0.1401  0.0477
 2551poe    c3113321   6.395   4.543   2.072  0.0215  0.2294 -0.1979
 2551poe     o213322   6.291   4.526   2.165 -0.1945 -0.0149 -0.4834
 2551poe    c2313323   6.295   4.620   2.270 -0.6366 -0.0634 -0.4168
 2551poe    c2313324   6.195   4.582   2.380 -0.2468 -0.1022 -0.0747
 2551poe     o213325   6.077   4.546   2.311 -0.0719 -0.2228 -0.3135
 2551poe    c2313326   5.993   4.485   2.407 -0.1829  0.0713 -0.2224
 2551poe    c2313327   5.868   4.453   2.323 -0.3050 -0.6649  0.2382
 2551poe     o213328   5.910   4.433   2.190  0.0209 -0.3338  0.2896
 2551poe    c2313329   5.801   4.385   2.115 -0.0338  0.0023  0.1543
 2551poe    c2313330   5.823   4.408   1.965  0.1779 -0.1889  0.1553
 2551poe     o213331   5.815   4.542   1.920  0.1644 -0.4334 -0.5845
 2551poe    c3113332   5.772   4.552   1.786  0.1063 -0.0069 -0.5356
 2552poe    c3113333   2.356   2.928   6.278  0.0997 -0.0969  0.3976
 2552poe     o213334   2.410   2.818   6.207 -0.3741  0.0519 -0.2033
 2552poe    c2313335   2.317   2.724   6.158 -0.0324 -0.4126  0.0289
 2552poe    c2313336   2.393   2.598   6.114  0.4339 -0.2617  0.3838
 2552poe     o213337   2.525   2.629   6.076  0.4558 -0.1145  0.5819
 2552poe    c2313338   2.603   2.511   6.075  0.3665 -0.1734  0.5400
 2552poe    c2313339   2.749   2.559   6.063  0.1899  0.3257  0.3530
 2552poe     o213340   2.811   2.618   6.175  0.1651 -0.1608  0.6236
 2552poe    c2313341   2.916   2.697   6.124 -0.1407  0.0668  0.3401
 2552poe    c2313342   3.012   2.754   6.230  0.6512  0.0889 -0.3773
 2552poe     o213343   2.951   2.864   6.293  0.0112 -0.3541 -0.2128
 2552poe    c3113344   3.005   2.905   6.416 -0.3908 -0.1572 -0.0984
 2553poe    c3113345   0.786   6.079   4.207  0.5794  0.1025  0.0325
 2553poe     o213346   0.898   6.078   4.292  0.1931  0.6749  0.5604
 2553poe    c2313347   1.003   6.001   4.237 -0.1995 -0.0186  0.7750
 2553poe    c2313348   1.131   6.083   4.259  0.3872 -0.7943  0.3001
 2553poe     o213349   1.128   6.144   4.387  0.5605 -0.0903 -0.0248
 2553poe    c2313350   1.237   6.231   4.407  0.1404  0.3877  0.1870
 2553poe    c2313351   1.217   6.293   4.547  0.1194  0.3090  0.2187
 2553poe     o213352   1.105   6.379   4.555  0.0372  0.2465 -0.2327
 2553poe    c2313353   1.090   6.467   4.663  0.0386  0.2317 -0.2201
 2553poe    c2313354   0.947   6.491   4.718  0.0589 -0.0254 -0.0533
 2553poe     o213355   0.875   6.371   4.737  0.0555  0.0238  0.2439
 2553poe    c3113356   0.771   6.412   4.822 -0.2693  0.3550 -0.3048
 2554poe    c3113357   3.998   2.669   0.628  0.1151  0.6020 -0.6406
 2554poe     o213358   4.013   2.799   0.679 -0.4054  0.3694  0.1152
 2554poe    c2313359   3.949   2.880   0.583 -0.4543 -0.1439 -0.2899
 2554poe    c2313360   3.952   3.030   0.618  0.3373 -0.2531  0.1198
 2554poe     o213361   3.883   3.073   0.733 -0.2186  0.1635 -0.3666
 2554poe    c2313362   3.880   3.212   0.758  0.4146  0.1764 -0.3593
 2554poe    c2313363   3.818   3.231   0.897  0.5002 -0.0859 -0.2863
 2554poe     o213364   3.905   3.190   1.001  0.2736 -0.1905 -0.1383
 2554poe    c2313365   3.841   3.213   1.125  0.0365  0.5117 -0.3895
 2554poe    c2313366   3.943   3.209   1.240  0.1759  0.1241 -0.5250
 2554poe     o213367   3.959   3.074   1.278 -0.5671  0.1436 -0.1047
 2554poe    c3113368   4.061   3.045   1.371 -0.4752 -0.3808 -0.3633
 2555poe    c3113369   0.716   3.071   2.942 -0.2891  0.0743 -0.3365
 2555poe     o213370   0.745   2.987   2.832 -0.7698  0.1205 -0.4985
 2555poe    c2313371   0.789   3.066   2.724 -0.2220  0.1955 -0.2217
 2555poe    c2313372   0.862   2.969   2.630 -0.0419  0.1702 -0.0570
 2555poe     o213373   0.771   2.862   2.616 -0.0004  0.2024 -0.5863
 2555poe    c2313374   0.805   2.798   2.495 -0.2380 -0.5647 -0.2560
 2555poe    c2313375   0.789   2.647   2.517  0.1617 -0.5273  0.3089
 2555poe     o213376   0.664   2.621   2.578 -0.5789 -0.0948 -0.9799
 2555poe    c2313377   0.626   2.491   2.618 -0.0803  0.1420  0.3383
 2555poe    c2313378   0.507   2.489   2.716 -0.0229 -0.3797  0.4011
 2555poe     o213379   0.566   2.533   2.836  0.3830 -0.2757  0.1643
 2555poe    c3113380   0.480   2.518   2.946  0.8638 -0.0879  0.5692
 2556poe    c3113381   3.125   5.703   3.055 -0.0900  0.3916 -0.3916
 2556poe     o213382   3.159   5.837   3.082  0.0382  0.3505 -0.3490
 2556poe    c2313383   3.272   5.864   3.001  0.0337  0.4755 -0.3144
 2556poe    c2313384   3.359   5.978   3.055  0.4181  0.1695 -0.2828
 2556poe     o213385   3.400   5.946   3.186 -0.6956 -0.1877 -0.0152
 2556poe    c2313386   3.455   6.062   3.244 -0.6198 -0.1230 -0.2197
 2556poe    c2313387   3.493   6.012   3.384  0.2661 -0.5603 -0.6074
 2556poe     o213388   3.372   5.966   3.438  0.3019 -0.1894 -0.2070
 2556poe    c2313389   3.391   5.849   3.516  0.2538  0.1061  0.2540
 2556poe    c2313390   3.258   5.772   3.508  0.3026  0.0248  0.2267
 2556poe     o213391   3.153   5.866   3.496  0.0198 -0.4153 -0.8522
 2556poe    c3113392   3.041   5.836   3.576  0.1737 -0.0956 -0.5149
 2557poe    c3113393   1.383   2.366   0.793  0.2753  0.3059  0.3241
 2557poe     o213394   1.362   2.310   0.921  0.1603  0.0073  0.1731
 2557poe    c2313395   1.445   2.196   0.924 -0.5999 -0.5680 -0.0791
 2557poe    c2313396   1.412   2.112   1.049  0.4270 -0.4242  0.3009
 2557poe     o213397   1.391   2.187   1.167 -0.4006  0.1931 -0.2264
 2557poe    c2313398   1.500   2.154   1.250 -0.2028  0.2537 -0.4598
 2557poe    c2313399   1.509   2.252   1.369  0.7114 -0.3608 -0.0096
 2557poe     o213400   1.392   2.250   1.447  0.9171 -0.2808  0.3009
 2557poe    c2313401   1.390   2.367   1.527 -0.2539 -0.0457 -0.0521
 2557poe    c2313402   1.252   2.390   1.591 -0.3311 -0.4705 -0.0630
 2557poe     o213403   1.163   2.412   1.485  0.3680  0.4265 -0.4773
 2557poe    c3113404   1.040   2.352   1.519  0.3956  0.6547  0.0220
 2558poe    c3113405   4.381   3.742   1.669 -0.5879 -0.6527 -0.6600
 2558poe     o213406   4.391   3.839   1.568  0.2293  0.5953  0.5876
 2558poe    c2313407   4.488   3.783   1.483  0.0483  0.4148  0.5011
 2558poe    c2313408   4.583   3.895   1.436 -0.0457  0.2000 -0.2123
 2558poe     o213409   4.529   3.977   1.335 -0.7840  0.0840  0.0789
 2558poe    c2313410   4.638   4.050   1.282 -0.5368 -0.3615 -0.0270
 2558poe    c2313411   4.572   4.157   1.193 -0.8238  0.0685  0.6981
 2558poe     o213412   4.521   4.260   1.274 -0.2137  0.3845  0.6877
 2558poe    c2313413   4.483   4.375   1.202  0.2080  0.1146  0.0325
 2558poe    c2313414   4.347   4.385   1.129  0.5248 -0.0952 -0.5942
 2558poe     o213415   4.328   4.311   1.011  0.0412 -0.5129 -0.2576
 2558poe    c3113416   4.199   4.317   0.955 -0.0443 -0.2953 -0.0365
 2559poe    c3113417   0.688   6.955   1.947  0.0812  0.2165  0.3738
 2559poe     o213418   0.607   7.025   2.038  0.0451  0.4214  0.1859
 2559poe    c2313419   0.482   6.959   2.042  0.2702 -0.0461 -0.3236
 2559poe    c2313420   0.408   7.050   2.142  0.6276  0.1291 -0.2134
 2559poe     o213421   0.471   7.072   2.266  0.6141  0.5220 -0.2730
 2559poe    c2313422   0.388   7.146   2.353 -0.1656 -0.4149 -0.1922
 2559poe    c2313423   0.443   7.143   2.497  0.3910 -0.7276 -0.4049
 2559poe     o213424   0.570   7.202   2.509 -0.2131  0.4985  0.2219
 2559poe    c2313425   0.595   7.176   2.645 -0.7903 -0.3477  0.1747
 2559poe    c2313426   0.730   7.247   2.665 -0.8691  0.0623 -0.7128
 2559poe     o213427   0.822   7.197   2.570  0.1563  0.4060  0.0806
 2559poe    c3113428   0.955   7.194   2.615  0.2699  0.3132 -0.2602
 2560poe    c3113429   3.972   3.808   3.703  0.4900 -0.5268  0.1985
 2560poe     o213430   3.960   3.909   3.605  0.5905 -0.3103  0.4058
 2560poe    c2313431   3.885   3.858   3.497  0.4032  0.3864  0.2032
 2560poe    c2313432   3.863   3.935   3.365  0.3880  0.5233  0.2855
 2560poe     o213433   3.977   3.970   3.290 -0.1121  0.1846 -0.6518
 2560poe    c2313434   3.956   4.091   3.221 -0.3124  0.4818 -0.0784
 2560poe    c2313435   4.092   4.110   3.150  0.0602 -0.9122  0.2428
 2560poe     o213436   4.189   4.104   3.252  0.2467 -0.6954  0.0783
 2560poe    c2313437   4.311   4.153   3.202  0.1483 -0.4104  0.1111
 2560poe    c2313438   4.411   4.155   3.320  0.3285  0.1220 -0.0494
 2560poe     o213439   4.429   4.025   3.371  0.3394  0.4534  0.7969
 2560poe    c3113440   4.560   3.978   3.350  0.1241 -0.0566  0.6057
 2561poe    c3113441   7.036   7.108   3.160 -0.3929  0.1473 -1.0089
 2561poe     o213442   6.944   7.055   3.253 -0.2296  0.8637 -0.4208
 2561poe    c2313443   6.967   7.128   3.371  0.1798 -0.0893  0.1049
 2561poe    c2313444   6.932   7.053   3.500 -0.2446  0.7518  0.4868
 2561poe     o213445   6.808   6.989   3.475  0.3953 -0.4082  0.2216
 2561poe    c2313446   6.747   6.955   3.597  0.5478 -0.4850  0.2774
 2561poe    c2313447   6.594   6.968   3.586  0.5483 -0.5614  0.1869
 2561poe     o213448   6.506   6.921   3.486  0.1477 -0.1435  0.3371
 2561poe    c2313449   6.507   6.780   3.477 -0.2291 -0.1117 -0.1906
 2561poe    c2313450   6.434   6.724   3.353 -0.3678  0.1819 -0.2424
 2561poe     o213451   6.486   6.779   3.233 -0.1495  0.5096 -0.0010
 2561poe    c3113452   6.410   6.767   3.115 -0.0576  0.5418 -0.0636
 2562poe    c3113453   3.223   5.235   6.538  0.2667  0.5233  0.0407
 2562poe     o213454   3.278   5.107   6.512  0.1982  0.4601  0.2074
 2562poe    c2313455   3.350   5.122   6.392  0.0113 -0.0292  0.0327
 2562poe    c2313456   3.424   4.987   6.382  0.1373 -0.0063  0.6016
 2562poe     o213457   3.320   4.892   6.381  0.0425  0.0957  0.7282
 2562poe    c2313458   3.372   4.763   6.359 -0.2673  0.0840  0.0374
 2562poe    c2313459   3.255   4.663   6.371 -0.2181  0.0686  0.4192
 2562poe     o213460   3.195   4.677   6.497  0.2372  0.2030  0.6231
 2562poe    c2313461   3.077   4.599   6.499 -0.2437  0.9055  0.0749
 2562poe    c2313462   3.059   4.573   6.650  0.5411  0.4036  0.0861
 2562poe     o213463   3.079   4.704   6.700 -0.1426  0.6573 -0.2922
 2562poe    c3113464   3.048   4.702   6.838 -0.1128 -0.0733 -0.2874
 2563poe    c3113465   0.983   0.939   0.540  0.1456 -0.7181 -0.8161
 2563poe     o213466   1.118   0.902   0.551  0.3027  0.0898  0.1748
 2563poe    c2313467   1.202   1.015   0.548 -0.0729  0.3624 -0.1136
 2563poe    c2313468   1.349   0.970   0.553 -0.1268  0.2131  0.1126
 2563poe     o213469   1.389   0.891   0.663  0.5921  0.3887 -0.0124
 2563poe    c2313470   1.484   0.797   0.619  0.3898 -0.1559  0.6784
 2563poe    c2313471   1.527   0.681   0.710 -0.3655 -0.1347  1.0652
 2563poe     o213472   1.426   0.586   0.736 -0.5935 -0.2903 -0.3047
 2563poe    c2313473   1.463   0.464   0.797  0.5777 -0.3962 -1.1880
 2563poe    c2313474   1.358   0.352   0.784 -0.3098  0.4119 -1.0701
 2563poe     o213475   1.253   0.367   0.878  0.4490 -0.2897 -0.0874
 2563poe    c3113476   1.164   0.258   0.872  0.1116 -0.0269  0.1034
 2564poe    c3113477   2.037   6.935   0.190  0.4394 -0.6053 -0.6807
 2564poe     o213478   2.148   6.857   0.228  0.5026 -0.2227 -0.0606
 2564poe    c2313479   2.238   6.945   0.292  0.6347  0.0339 -0.5931
 2564poe    c2313480   2.366   6.866   0.325  0.2251 -0.2761  0.2856
 2564poe     o213481   2.310   6.743   0.362 -0.7535 -0.0310 -0.3460
 2564poe    c2313482   2.391   6.640   0.310 -0.6544  0.0572 -0.3658
 2564poe    c2313483   2.334   6.521   0.390  0.1241  0.1058  0.2668
 2564poe     o213484   2.193   6.526   0.388  0.1308  0.3565  0.3360
 2564poe    c2313485   2.150   6.398   0.428 -0.4156  0.2389 -0.6066
 2564poe    c2313486   2.024   6.399   0.518  0.4678  0.4808  0.6613
 2564poe     o213487   1.907   6.449   0.458  0.3220  0.0748  0.5995
 2564poe    c3113488   1.803   6.462   0.553  0.0667 -0.0732  0.3426
 2565poe    c3113489   1.998   3.977   4.379 -0.8308  0.4425 -0.2824
 2565poe     o213490   1.937   3.852   4.402 -0.0404  0.0123 -0.4882
 2565poe    c2313491   2.039   3.756   4.422 -0.1014  0.1174  0.3410
 2565poe    c2313492   1.973   3.625   4.470  0.1794 -0.0881  0.1651
 2565poe     o213493   1.868   3.599   4.380  0.5585  0.4139 -0.4349
 2565poe    c2313494   1.822   3.467   4.403 -0.0984  0.6848 -0.1506
 2565poe    c2313495   1.722   3.426   4.293 -0.5278 -0.4335  0.6478
 2565poe     o213496   1.628   3.527   4.266  0.1522 -0.1724 -0.7764
 2565poe    c2313497   1.510   3.463   4.222 -0.3937  0.5452 -0.3834
 2565poe    c2313498   1.423   3.379   4.316  0.4057  0.0672 -0.0593
 2565poe     o213499   1.459   3.244   4.336 -0.4787 -0.1939 -0.1922
 2565poe    c3113500   1.364   3.179   4.419 -0.4098 -0.1331 -0.0647
 2566poe    c3113501   5.992   2.315   6.832  0.3257  0.5503  0.2183
 2566poe     o213502   6.027   2.358   6.962  0.4575  0.0341  0.3570
 2566poe    c2313503   6.003   2.497   6.977 -0.6164 -0.1402  0.3280
 2566poe    c2313504   6.006   2.521   7.129 -0.5174 -0.0941  0.3188
 2566poe     o213505   6.051   2.407   7.199 -0.5735 -0.2799  0.0542
 2566poe    c2313506   6.116   2.438   7.320  0.4423 -0.3009 -0.4828
 2566poe    c2313507   6.125   2.314   7.410  0.0284 -0.1459 -0.2246
 2566poe     o213508   6.186   2.215   7.329  0.0329 -0.2158 -0.1368
 2566poe    c2313509   6.203   2.096   7.402 -0.5881 -0.3703 -0.2399
 2566poe    c2313510   6.084   2.001   7.425 -0.4203 -0.5058  0.0768
 2566poe     o213511   6.032   1.961   7.300  0.5071 -0.1518 -0.4265
 2566poe    c3113512   6.063   1.824   7.287 -0.2424 -0.3066 -0.6087
 2567poe    c3113513   3.118   0.058   0.565  0.0009  0.4553 -0.4106
 2567poe     o213514   3.045   0.176   0.594  0.2106  0.3753  0.4742
 2567poe    c2313515   2.923   0.183   0.523  0.2748  0.0971  0.3333
 2567poe    c2313516   2.860   0.322   0.544 -0.1312  0.0327 -0.4298
 2567poe     o213517   2.945   0.419   0.488  0.3979 -0.0294  0.2447
 2567poe    c2313518   2.936   0.530   0.574 -0.5390  0.3796 -0.3695
 2567poe    c2313519   3.050   0.629   0.544  0.3365 -0.3547  0.4995
 2567poe     o213520   3.174   0.564   0.524  0.4721 -0.1550  0.6797
 2567poe    c2313521   3.272   0.663   0.505  0.1680  0.1366  0.6139
 2567poe    c2313522   3.411   0.603   0.476  0.4268  1.1097 -0.1927
 2567poe     o213523   3.463   0.529   0.584 -0.1283 -0.0219 -0.6884
 2567poe    c3113524   3.576   0.449   0.556  0.1875  0.2365 -0.1593
 2568poe    c3113525   6.182   4.509   6.398  0.2796 -0.1108  0.4072
 2568poe     o213526   6.279   4.596   6.345 -0.4346  0.0685 -0.6257
 2568poe    c2313527   6.362   4.536   6.248  0.0678 -0.4943  0.1428
 2568poe    c2313528   6.508   4.586   6.245 -0.0479 -0.1650 -0.0092
 2568poe     o213529   6.515   4.727   6.236 -0.2366 -0.1483  0.0833
 2568poe    c2313530   6.650   4.769   6.246 -0.3659  0.2720  0.0689
 2568poe    c2313531   6.658   4.921   6.220  0.9163  0.1294 -0.4107
 2568poe     o213532   6.554   4.990   6.285  0.7786 -0.0883 -0.3979
 2568poe    c2313533   6.544   5.122   6.235  0.1514 -0.2267 -0.6539
 2568poe    c2313534   6.425   5.188   6.307  0.3927 -0.0218 -0.4401
 2568poe     o213535   6.315   5.100   6.300  0.1952  0.2154 -0.3037
 2568poe    c3113536   6.193   5.171   6.312 -0.5668 -1.1641  0.3050
 2569poe    c3113537   0.508   0.625   3.571  0.1241  0.1285 -0.1667
 2569poe     o213538   0.643   0.586   3.570  0.0322 -0.1949  0.1352
 2569poe    c2313539   0.666   0.495   3.676  0.1229 -0.0249  0.2640
 2569poe    c2313540   0.777   0.392   3.650 -0.0492 -0.2213  0.3012
 2569poe     o213541   0.906   0.443   3.626  0.0031 -0.4415  0.1099
 2569poe    c2313542   0.962   0.509   3.737 -0.1499  0.0791 -0.1191
 2569poe    c2313543   1.114   0.518   3.714 -0.0504 -0.3158  0.3642
 2569poe     o213544   1.141   0.634   3.639 -0.7551 -0.2958  0.1396
 2569poe    c2313545   1.255   0.608   3.560 -0.7390  0.3019 -0.0355
 2569poe    c2313546   1.282   0.709   3.447  0.2190  0.1186  0.0272
 2569poe     o213547   1.316   0.818   3.529 -0.1474  0.2235  0.0403
 2569poe    c3113548   1.382   0.906   3.440 -0.4690  0.5125  0.0842
 2570poe    c3113549   0.945   5.480   3.403 -0.6358 -0.0426 -0.3814
 2570poe     o213550   0.900   5.612   3.419 -0.5557 -0.0643  0.0475
 2570poe    c2313551   0.890   5.634   3.558  0.1624 -0.1630  0.1149
 2570poe    c2313552   0.841   5.778   3.582 -0.4343 -0.2922 -0.2979
 2570poe     o213553   0.947   5.866   3.550 -0.2349 -0.3814  0.1060
 2570poe    c2313554   0.889   5.994   3.557  0.5648 -0.0197  0.2683
 2570poe    c2313555   0.995   6.103   3.534  0.2928  0.2415  0.2430
 2570poe     o213556   1.071   6.072   3.419 -0.6068  0.5394 -0.4445
 2570poe    c2313557   1.185   6.154   3.424  0.3208 -0.7406 -0.1686
 2570poe    c2313558   1.262   6.145   3.291  0.0581 -0.0325 -0.3783
 2570poe     o213559   1.196   6.052   3.209  1.0491 -0.8426 -0.2874
 2570poe    c3113560   1.261   6.036   3.085  0.1513  0.7553 -0.9871
 2571poe    c3113561   4.650   1.706   0.723  0.1177  0.3474 -0.5428
 2571poe     o213562   4.561   1.798   0.664 -0.5441  0.3017  0.3726
 2571poe    c2313563   4.436   1.773   0.725 -0.7169 -0.2033 -0.1752
 2571poe    c2313564   4.331   1.793   0.614 -0.6931  0.2583 -0.1177
 2571poe     o213565   4.366   1.915   0.553 -0.3262  0.2913  0.1513
 2571poe    c2313566   4.254   1.981   0.497 -0.3823  0.1778  0.1287
 2571poe    c2313567   4.309   2.116   0.446  0.3529  0.1349  0.7944
 2571poe     o213568   4.418   2.101   0.357 -0.1579  0.0781  0.1717
 2571poe    c2313569   4.451   2.230   0.310  0.1395  0.2346  0.7929
 2571poe    c2313570   4.587   2.219   0.239 -0.2916 -0.6051  0.0767
 2571poe     o213571   4.703   2.203   0.317 -0.2092  0.2492  0.1383
 2571poe    c3113572   4.815   2.157   0.244 -0.0786  0.3566  0.2683
 2572poe    c3113573   6.295   2.182   0.786  0.6764  0.0398 -0.5291
 2572poe     o213574   6.247   2.314   0.778  0.2953 -0.0300  0.4449
 2572poe    c2313575   6.199   2.320   0.910  0.0888 -0.0222  0.3713
 2572poe    c2313576   6.129   2.454   0.934  0.3894  0.2375 -0.1754
 2572poe     o213577   6.219   2.561   0.951  0.1434  0.3933  0.1817
 2572poe    c2313578   6.234   2.588   1.089  0.3603 -0.3432  0.3069
 2572poe    c2313579   6.337   2.703   1.091  0.0054 -0.0256  0.4587
 2572poe     o213580   6.451   2.651   1.027 -0.1137  0.2666  0.0063
 2572poe    c2313581   6.554   2.746   1.013 -0.0948  0.2893  0.2964
 2572poe    c2313582   6.657   2.690   0.914 -0.3154  0.5924 -0.1110
 2572poe     o213583   6.595   2.642   0.797  0.1444  0.0581 -0.1458
 2572poe    c3113584   6.686   2.623   0.692  0.2731  0.7461 -0.1657
 2573poe    c3113585   5.449   7.202   6.230  0.2683  0.4288 -0.1882
 2573poe     o213586   5.512   7.197   6.103  0.8825  0.1747  0.1241
 2573poe    c2313587   5.486   7.081   6.027  0.4371  0.1684  0.2810
 2573poe    c2313588   5.600   7.045   5.930 -0.1503 -0.5482 -0.1463
 2573poe     o213589   5.613   7.141   5.827 -0.8555 -0.3193 -0.0253
 2573poe    c2313590   5.665   7.073   5.715 -0.3393  0.2607 -0.1436
 2573poe    c2313591   5.653   7.177   5.602 -0.3784  0.1046 -0.2836
 2573poe     o213592   5.739   7.277   5.652 -0.3328 -0.1071  0.0680
 2573poe    c2313593   5.754   7.377   5.553 -0.7489 -0.0929  0.0166
 2573poe    c2313594   5.790   7.510   5.622  0.0480 -0.4989  0.4037
 2573poe     o213595   5.680   7.531   5.708 -0.1168 -0.1041  0.0994
 2573poe    c3113596   5.629   7.661   5.722 -0.3548 -0.2134  0.2665
 2574poe    c3113597   1.411   5.208   4.871 -0.0151  0.4496  0.2523
 2574poe     o213598   1.523   5.258   4.802  0.0137 -0.0506 -0.0711
 2574poe    c2313599   1.479   5.283   4.671  0.0973 -0.3068 -0.1497
 2574poe    c2313600   1.590   5.357   4.593 -0.1652  0.5801  0.3055
 2574poe     o213601   1.706   5.278   4.599 -0.4178  0.1117 -0.7598
 2574poe    c2313602   1.823   5.342   4.554 -0.2222 -0.0490 -0.4808
 2574poe    c2313603   1.946   5.273   4.618 -0.7155 -0.1608  0.3572
 2574poe     o213604   1.927   5.135   4.600 -0.6910 -0.1330  0.1148
 2574poe    c2313605   2.030   5.055   4.655 -0.6817 -0.3407 -0.2019
 2574poe    c2313606   2.012   4.909   4.611 -0.1694 -0.3564 -0.3590
 2574poe     o213607   1.875   4.886   4.636 -0.1837  0.6627  0.5759
 2574poe    c3113608   1.860   4.769   4.712  0.8782  0.1509  0.0261
 2575poe    c3113609   5.397   5.879   3.337 -0.1244 -0.6446 -0.5388
 2575poe     o213610   5.305   5.900   3.231 -0.3922 -0.1590 -0.2171
 2575poe    c2313611   5.297   5.766   3.186 -0.8613 -0.3572  0.4335
 2575poe    c2313612   5.200   5.770   3.066 -0.0104 -0.5477 -0.2718
 2575poe     o213613   5.066   5.791   3.105  0.1292  0.1876 -0.1626
 2575poe    c2313614   4.979   5.807   2.995 -0.0169 -0.3826 -0.1314
 2575poe    c2313615   4.931   5.687   2.911  0.5829 -0.8657  0.2036
 2575poe     o213616   4.852   5.593   2.980  0.4453 -0.6046  0.4071
 2575poe    c2313617   4.807   5.503   2.881  0.5403  0.2284 -0.3989
 2575poe    c2313618   4.774   5.376   2.961  0.3128  0.6905  0.2455
 2575poe     o213619   4.677   5.427   3.050  0.2026 -0.2955  0.6982
 2575poe    c3113620   4.599   5.322   3.103 -0.0598 -0.6507 -0.3821
 2576poe    c3113621   2.630   3.378   3.555 -0.5315 -0.6274  0.1697
 2576poe     o213622   2.629   3.390   3.415  0.0003  0.8274  0.2686
 2576poe    c2313623   2.603   3.520   3.368 -0.3520  0.6358 -0.0716
 2576poe    c2313624   2.576   3.539   3.217  0.2154  0.2761 -0.2198
 2576poe     o213625   2.443   3.497   3.198  0.1699  0.2847  0.0708
 2576poe    c2313626   2.426   3.505   3.058  0.2995 -0.4476  0.0080
 2576poe    c2313627   2.298   3.443   2.999  0.0436  0.1600 -0.0825
 2576poe     o213628   2.303   3.308   2.959 -0.5122 -0.0165  0.4245
 2576poe    c2313629   2.243   3.279   2.835  0.1884 -0.3904  0.1610
 2576poe    c2313630   2.326   3.302   2.708  0.3747  0.4310  0.4242
 2576poe     o213631   2.435   3.212   2.714  0.3266  0.3597  0.2348
 2576poe    c3113632   2.503   3.214   2.591 -0.9232  0.9576 -0.4689
 2577poe    c3113633   3.765   7.144   0.782  0.3425  0.3166  0.0391
 2577poe     o213634   3.663   7.232   0.823  0.2327 -0.1515  0.7952
 2577poe    c2313635   3.536   7.181   0.788  0.4388  0.0916 -0.3335
 2577poe    c2313636   3.430   7.292   0.785 -0.1517 -0.4333  0.8133
 2577poe     o213637   3.406   7.350   0.912  0.0923 -0.3388  0.8157
 2577poe    c2313638   3.282   7.314   0.969 -0.4557  0.3906  0.1101
 2577poe    c2313639   3.244   7.441   1.047 -0.0270  0.5113  0.1299
 2577poe     o213640   3.245   7.549   0.956 -1.1239  0.1644 -0.3103
 2577poe    c2313641   3.230   7.669   1.027 -0.7948 -0.0975  0.2084
 2577poe    c2313642   3.233   7.800   0.946  0.5946  0.0496  0.4842
 2577poe     o213643   3.352   7.829   0.876  0.3544 -0.1632 -0.0182
 2577poe    c3113644   3.373   7.968   0.889  0.3960 -0.1632 -0.0801
 2578poe    c3113645   2.729   2.148   6.106  0.7661 -0.8223  0.1123
 2578poe     o213646   2.778   2.151   6.238 -0.2770 -0.3294  0.4984
 2578poe    c2313647   2.686   2.222   6.319 -0.0768  0.5232 -0.0054
 2578poe    c2313648   2.750   2.246   6.457 -0.2948 -0.0196  0.1914
 2578poe     o213649   2.793   2.134   6.532 -0.4542  0.0438  0.3796
 2578poe    c2313650   2.847   2.187   6.651 -0.4793  0.5682  0.1618
 2578poe    c2313651   2.817   2.086   6.763 -0.7051  0.5720  0.1055
 2578poe     o213652   2.680   2.055   6.766 -0.7173  0.6110 -0.0618
 2578poe    c2313653   2.672   1.972   6.879 -0.3873  0.1442 -0.3765
 2578poe    c2313654   2.535   1.905   6.903 -0.0732 -0.1200  0.7492
 2578poe     o213655   2.521   1.790   6.823 -0.3969  0.1148  0.4657
 2578poe    c3113656   2.384   1.758   6.835 -0.4389  0.1315  0.0387
 2579poe    c3113657   6.451   3.251   3.410 -0.0808 -0.1525 -0.6381
 2579poe     o213658   6.432   3.122   3.463 -0.5047  0.2691  0.2525
 2579poe    c2313659   6.459   3.027   3.362  0.3157  0.6511  0.1054
 2579poe    c2313660   6.542   2.910   3.418 -0.0770  0.4501  0.2738
 2579poe     o213661   6.481   2.849   3.529  0.2365  0.1386  0.2754
 2579poe    c2313662   6.570   2.766   3.601  0.4015  0.2567  0.2083
 2579poe    c2313663   6.496   2.688   3.711  0.2867  0.0091 -0.0438
 2579poe     o213664   6.417   2.773   3.790  0.1330  0.2380 -0.4410
 2579poe    c2313665   6.332   2.708   3.883  0.5046 -0.3635 -0.5183
 2579poe    c2313666   6.199   2.652   3.830 -0.1190  0.2549  0.3653
 2579poe     o213667   6.128   2.748   3.756 -0.7211 -0.4166  0.0586
 2579poe    c3113668   6.068   2.691   3.642 -0.0268 -0.3295 -0.3520
 2580poe    c3113669   1.173   1.377   3.452 -0.3258  0.3310 -0.3223
 2580poe     o213670   1.090   1.263   3.454  0.1341 -0.0008  0.0970
 2580poe    c2313671   1.004   1.264   3.343 -0.0223 -0.2572  0.2151
 2580poe    c2313672   0.953   1.121   3.316 -1.0705  0.2107 -0.3754
 2580poe     o213673   0.895   1.080   3.438 -0.4965 -0.1518 -0.2203
 2580poe    c2313674   0.880   0.942   3.463 -0.1143 -0.2377 -0.4640
 2580poe    c2313675   0.829   0.922   3.607 -0.0662  0.1463 -0.3924
 2580poe     o213676   0.916   0.976   3.703 -0.0824 -0.1685 -0.1979
 2580poe    c2313677   0.907   0.923   3.833  0.6624 -0.5206 -0.2835
 2580poe    c2313678   0.965   1.013   3.944  0.4115 -0.9177  0.1730
 2580poe     o213679   0.917   1.145   3.933  0.1259 -1.0181  0.2208
 2580poe    c3113680   0.924   1.239   4.037  0.4368 -0.7614 -0.0336
 2581poe    c3113681   1.620   1.615   0.545  0.0241 -0.7393  0.2547
 2581poe     o213682   1.577   1.529   0.443 -0.0784 -0.1673 -0.1911
 2581poe    c2313683   1.464   1.458   0.488 -0.2176  0.1372 -0.0564
 2581poe    c2313684   1.391   1.387   0.371 -0.0754  0.1737 -0.1673
 2581poe     o213685   1.318   1.475   0.289  0.1858  0.2771 -0.2915
 2581poe    c2313686   1.307   1.415   0.162 -0.0937  0.1279 -0.1982
 2581poe    c2313687   1.260   1.522   0.060 -0.5488  0.0026 -0.1235
 2581poe     o213688   1.358   1.619   0.030 -0.2889 -0.1678  0.1575
 2581poe    c2313689   1.400   1.583  -0.100  0.1889 -0.3878  0.3697
 2581poe    c2313690   1.492   1.686  -0.169 -0.0346 -0.6388 -0.3184
 2581poe     o213691   1.569   1.729  -0.058  0.2584 -0.7181 -0.4893
 2581poe    c3113692   1.675   1.814  -0.094 -0.4657  0.5375  0.3005
 2582poe    c3113693   0.906   3.485   4.130  0.4834  0.1133 -0.5077
 2582poe     o213694   0.768   3.506   4.109  0.3709 -0.4316 -0.3219
 2582poe    c2313695   0.735   3.643   4.114 -0.2576 -0.5894 -0.1193
 2582poe    c2313696   0.775   3.742   4.003 -0.1249 -0.4041  0.0940
 2582poe     o213697   0.728   3.873   4.030  0.5730 -0.0977 -0.1689
 2582poe    c2313698   0.777   3.946   3.920 -0.3117  0.1936 -0.3770
 2582poe    c2313699   0.799   4.097   3.943 -0.4616  0.2857 -0.8298
 2582poe     o213700   0.685   4.180   3.943 -0.8668 -0.2604 -0.0827
 2582poe    c2313701   0.624   4.184   3.816 -0.6182 -0.5693 -0.2108
 2582poe    c2313702   0.550   4.319   3.816  0.3083 -0.0463  0.7304
 2582poe     o213703   0.415   4.326   3.856  0.1918  0.1190  0.3109
 2582poe    c3113704   0.397   4.444   3.932 -0.7205  0.7897 -0.9151
 2583poe    c3113705   6.556   2.986   1.566  0.7119  0.3398  0.9193
 2583poe     o213706   6.546   3.060   1.446 -0.3067 -0.3876  0.5384
 2583poe    c2313707   6.654   3.027   1.362 -0.8195 -0.3540 -0.1407
 2583poe    c2313708   6.681   3.122   1.244  0.8270  0.1769  0.6286
 2583poe     o213709   6.711   3.250   1.295  0.3961  0.2810  0.6249
 2583poe    c2313710   6.677   3.354   1.207  0.4323 -0.0386  0.2311
 2583poe    c2313711   6.668   3.491   1.276 -0.4923  0.1020 -0.1510
 2583poe     o213712   6.548   3.499   1.349 -0.3820 -0.1909  0.0649
 2583poe    c2313713   6.510   3.628   1.392 -0.2476 -0.2079  0.2330
 2583poe    c2313714   6.371   3.621   1.459 -0.3932 -0.4238 -0.0890
 2583poe     o213715   6.379   3.509   1.544  0.0346 -0.2726  0.0768
 2583poe    c3113716   6.258   3.491   1.615  0.0280 -0.4108  0.0304
 2584poe    c3113717   7.098   2.006   5.519 -0.1472 -1.0174 -0.3992
 2584poe     o213718   6.995   2.065   5.444 -0.2573 -0.4351  0.2029
 2584poe    c2313719   6.871   2.023   5.497 -0.3694 -0.5754 -0.1657
 2584poe    c2313720   6.769   1.989   5.388 -0.2989 -0.2859 -0.3229
 2584poe     o213721   6.724   2.105   5.321  0.1844 -0.0510 -0.2422
 2584poe    c2313722   6.618   2.081   5.231 -0.1965  0.4659  0.0663
 2584poe    c2313723   6.589   2.214   5.160 -0.5120  0.2352 -0.2395
 2584poe     o213724   6.710   2.278   5.126 -0.1477 -0.3568 -0.0618
 2584poe    c2313725   6.704   2.387   5.038 -0.6093 -0.0793  0.3097
 2584poe    c2313726   6.672   2.354   4.891 -0.0676  0.8466 -0.0276
 2584poe     o213727   6.735   2.243   4.832 -0.1317  0.5375  0.4870
 2584poe    c3113728   6.692   2.245   4.698  0.3390  0.4120  0.3337
 2585poe    c3113729   5.321   2.614   1.854  0.1379 -0.0766 -0.2767
 2585poe     o213730   5.303   2.515   1.755  0.0237 -0.5323  0.1956
 2585poe    c2313731   5.420   2.496   1.679  0.1095  0.4971  0.0487
 2585poe    c2313732   5.413   2.353   1.622  0.3621  0.5083 -0.0080
 2585poe     o213733   5.322   2.326   1.518  0.2256  0.1398  0.2094
 2585poe    c2313734   5.343   2.199   1.460 -0.4981  0.2005 -0.1946
 2585poe    c2313735   5.266   2.181   1.328 -0.9456  0.0832  0.0816
 2585poe     o213736   5.141   2.239   1.359 -0.8262  0.0773  0.5881
 2585poe    c2313737   5.058   2.221   1.246 -0.2458  0.5426  0.0781
 2585poe    c2313738   4.917   2.282   1.258 -0.3865  0.1521  0.4610
 2585poe     o213739   4.937   2.421   1.240 -0.3484  0.0998  0.0896
 2585poe    c3113740   4.820   2.500   1.247 -0.5087 -0.1061 -0.1865
 2586poe    c3113741   5.515   4.973   5.573 -0.1292 -0.2051 -0.2303
 2586poe     o213742   5.499   4.901   5.693 -0.9419  0.2310 -0.0688
 2586poe    c2313743   5.537   4.765   5.691 -0.9032  0.2229  0.7900
 2586poe    c2313744   5.548   4.705   5.832  0.3273  0.2923  0.7412
 2586poe     o213745   5.446   4.777   5.898  0.0078  0.3249  0.2169
 2586poe    c2313746   5.462   4.765   6.038  0.1521  0.0836  0.1799
 2586poe    c2313747   5.339   4.816   6.116  0.2402  0.1258  0.2919
 2586poe     o213748   5.308   4.944   6.066 -0.0004 -0.1351 -0.2381
 2586poe    c2313749   5.191   5.003   6.119 -0.2230 -0.7151 -0.0813
 2586poe    c2313750   5.198   5.154   6.089 -0.0324 -0.7300 -0.1152
 2586poe     o213751   5.305   5.225   6.147 -0.2444 -0.0858 -0.5035
 2586poe    c3113752   5.277   5.363   6.137 -0.2680 -0.0714 -0.2366
 2587poe    c3113753   6.712   5.981   3.756  0.1991  0.1578  0.5937
 2587poe     o213754   6.605   5.913   3.818 -0.0176 -0.0517 -0.0119
 2587poe    c2313755   6.655   5.800   3.886  0.2616  0.0552 -0.0376
 2587poe    c2313756   6.539   5.717   3.946 -0.0957  0.3797 -0.2708
 2587poe     o213757   6.449   5.656   3.856  0.0993 -0.2319 -0.0558
 2587poe    c2313758   6.497   5.542   3.789  0.2059 -0.0714 -0.2515
 2587poe    c2313759   6.389   5.467   3.708  0.2213 -0.5030  0.1211
 2587poe     o213760   6.305   5.401   3.800  0.0429 -0.3180  0.0912
 2587poe    c2313761   6.184   5.366   3.737 -0.4148  0.2764  0.6296
 2587poe    c2313762   6.085   5.281   3.819 -0.2573  0.0276  0.5618
 2587poe     o213763   6.116   5.144   3.806 -0.4692  0.0263  0.0597
 2587poe    c3113764   6.048   5.079   3.911 -0.3988 -0.1810 -0.0208
 2588poe    c3113765   6.349   1.258   0.372 -0.4564  0.2748 -0.4480
 2588poe     o213766   6.367   1.152   0.463 -0.0809  0.4454 -0.3205
 2588poe    c2313767   6.262   1.059   0.462 -0.0241  0.3819 -0.3380
 2588poe    c2313768   6.251   0.952   0.351  0.1030 -0.3117  0.3142
 2588poe     o213769   6.235   1.006   0.222  0.6751  0.0579  0.3961
 2588poe    c2313770   6.275   0.907   0.131  0.0430 -0.0519  0.2343
 2588poe    c2313771   6.255   0.964  -0.011 -0.2961 -0.3515  0.1585
 2588poe     o213772   6.330   1.078  -0.047 -0.6811 -0.2466 -0.3086
 2588poe    c2313773   6.298   1.107  -0.182  0.7967  0.3369 -0.5462
 2588poe    c2313774   6.387   1.229  -0.212  1.0637  0.3736  0.3527
 2588poe     o213775   6.320   1.337  -0.150 -0.3125 -0.0008 -0.4486
 2588poe    c3113776   6.380   1.464  -0.145 -0.7494  0.1983 -0.1946
 2589poe    c3113777   6.606   3.650   3.323  0.0515  0.0919  0.0940
 2589poe     o213778   6.593   3.579   3.444  0.5097  0.3091  0.2741
 2589poe    c2313779   6.599   3.654   3.564  0.1577  0.0367  0.4664
 2589poe    c2313780   6.593   3.564   3.688 -0.1225 -0.3846  0.1518
 2589poe     o213781   6.593   3.649   3.800  0.2093  0.1089 -0.2191
 2589poe    c2313782   6.599   3.582   3.924 -0.8480 -0.1372 -0.2843
 2589poe    c2313783   6.539   3.632   4.057  0.4770 -0.0160  0.2851
 2589poe     o213784   6.625   3.725   4.118  0.2842  0.0217  0.4972
 2589poe    c2313785   6.553   3.807   4.208 -0.3741  0.4036 -0.3660
 2589poe    c2313786   6.611   3.819   4.350 -0.4672 -0.2217 -0.2701
 2589poe     o213787   6.716   3.913   4.360 -0.5727 -0.1768  0.4795
 2589poe    c3113788   6.775   3.908   4.488  0.4079  0.6480  0.0792
 2590poe    c3113789   1.154   4.436   0.435  0.9164  0.2391  0.3155
 2590poe     o213790   1.092   4.318   0.480  0.2210  0.5314  0.1393
 2590poe    c2313791   0.990   4.367   0.564 -0.0628  0.7154 -0.3054
 2590poe    c2313792   0.851   4.385   0.502 -0.2032  0.5009 -0.0533
 2590poe     o213793   0.796   4.257   0.475 -0.0887  0.3946  0.2149
 2590poe    c2313794   0.670   4.272   0.414  0.0517  0.2917 -0.1014
 2590poe    c2313795   0.565   4.160   0.424  0.1577  0.2127  0.1367
 2590poe     o213796   0.538   4.133   0.560  0.6124 -0.5354  0.0838
 2590poe    c2313797   0.422   4.054   0.568  0.3674 -0.1413  0.4257
 2590poe    c2313798   0.358   4.053   0.708 -0.0134 -0.2574  0.2520
 2590poe     o213799   0.446   4.013   0.810 -0.0395 -0.1288  0.3242
 2590poe    c3113800   0.396   4.060   0.934 -0.1341 -0.0511  0.2566
 2591poe    c3113801   1.687   7.239   6.542  0.0009 -0.2331  0.0867
 2591poe     o213802   1.619   7.361   6.519  0.5157  0.0111 -0.1723
 2591poe    c2313803   1.484   7.339   6.550  0.4549  0.3018 -0.2294
 2591poe    c2313804   1.399   7.467   6.544  0.2447  0.1823  0.1010
 2591poe     o213805   1.388   7.504   6.408 -0.1348 -0.1778  0.0330
 2591poe    c2313806   1.330   7.632   6.404  0.6440  0.2000  0.4795
 2591poe    c2313807   1.322   7.687   6.260  0.3084 -0.5086  0.2208
 2591poe     o213808   1.453   7.711   6.215  0.2592 -0.9558 -0.1645
 2591poe    c2313809   1.455   7.777   6.090  0.1785  0.1492  0.4056
 2591poe    c2313810   1.595   7.832   6.060  0.1761  0.1318  0.3622
 2591poe     o213811   1.702   7.740   6.062  0.4603  0.4339 -0.3936
 2591poe    c3113812   1.823   7.812   6.054  0.5806  0.2522 -0.2335
 2592poe    c3113813   5.146   6.578   0.180  0.1479 -0.5034 -0.3258
 2592poe     o213814   5.281   6.543   0.167  0.1464 -0.7780  0.3297
 2592poe    c2313815   5.315   6.418   0.111  0.2875 -0.5405 -0.1252
 2592poe    c2313816   5.411   6.422  -0.009 -0.3494  0.3085 -0.6154
 2592poe     o213817   5.531   6.481   0.036 -0.2768  0.1379 -0.5840
 2592poe    c2313818   5.619   6.494  -0.074  0.0293  0.4410 -0.3035
 2592poe    c2313819   5.737   6.583  -0.031 -0.0089  0.2672  0.1747
 2592poe     o213820   5.822   6.522   0.063 -0.0951  0.1962  0.2054
 2592poe    c2313821   5.926   6.445   0.007 -0.0542  0.4345 -0.0414
 2592poe    c2313822   6.032   6.410   0.113  0.2733  0.4444 -0.3611
 2592poe     o213823   6.112   6.296   0.092  0.4172  0.4428  0.1875
 2592poe    c3113824   6.199   6.278   0.202 -0.3089  0.0252  0.7075
 2593poe    c3113825   0.094   1.547   2.459  0.3669 -0.0330  0.1990
 2593poe     o213826   0.023   1.576   2.577  0.3928  0.3003  0.1325
 2593poe    c2313827   0.092   1.666   2.662  0.3699  0.7653 -0.3386
 2593poe    c2313828   0.044   1.646   2.807 -0.7287 -0.9086 -0.9015
 2593poe     o213829   0.069   1.515   2.851  0.5964 -0.4195 -0.1303
 2593poe    c2313830   0.060   1.498   2.991  0.2468 -0.2300 -0.1296
 2593poe    c2313831   0.042   1.352   3.035 -0.1163 -0.0658  0.2672
 2593poe     o213832  -0.070   1.280   2.989  0.1873 -0.3946  0.0386
 2593poe    c2313833  -0.037   1.143   2.994  0.3890 -0.3414  0.1844
 2593poe    c2313834  -0.126   1.051   2.907 -0.2767  0.3389  0.1369
 2593poe     o213835  -0.125   1.077   2.769 -0.7844  0.0660  0.0795
 2593poe    c3113836  -0.167   0.970   2.687 -0.2087  0.0807 -0.2455
 2594poe    c3113837   0.335   4.068   2.304 -0.5068 -0.4437 -1.1333
 2594poe     o213838   0.222   3.983   2.311 -0.5498 -0.3418 -0.4555
 2594poe    c2313839   0.111   4.071   2.311 -0.0709  0.2797  0.3230
 2594poe    c2313840  -0.002   3.993   2.380 -0.2409 -0.0211 -0.2833
 2594poe     o213841  -0.022   3.883   2.294  0.4131 -0.1442 -0.2839
 2594poe    c2313842  -0.097   3.794   2.374 -0.2737  0.3086 -0.4103
 2594poe    c2313843  -0.070   3.646   2.345 -0.1587  0.4229 -0.8902
 2594poe     o213844   0.067   3.626   2.319  0.0317 -0.5497  0.7143
 2594poe    c2313845   0.098   3.489   2.312 -0.4780 -0.6380  0.1218
 2594poe    c2313846   0.246   3.450   2.332 -0.5690 -0.5037  1.1056
 2594poe     o213847   0.288   3.527   2.443  0.1530 -0.2900  0.6902
 2594poe    c3113848   0.405   3.467   2.495  0.5343 -0.4418 -0.3123
 2595poe    c3113849   5.595   2.906   3.725  0.4482  0.0933 -0.6265
 2595poe     o213850   5.604   2.767   3.746 -0.6136  0.1485  0.3214
 2595poe    c2313851   5.662   2.740   3.872  0.1882  0.1198 -0.0421
 2595poe    c2313852   5.708   2.593   3.866  0.6279  0.2463  0.2191
 2595poe     o213853   5.602   2.509   3.906  0.1523  0.4999 -0.4881
 2595poe    c2313854   5.636   2.374   3.926 -0.2560  0.3362 -0.8663
 2595poe    c2313855   5.538   2.300   4.019  0.3358 -0.0713 -0.5570
 2595poe     o213856   5.404   2.310   3.976  0.0015 -0.2472  0.4293
 2595poe    c2313857   5.314   2.235   4.054 -0.4730 -0.0139  0.1155
 2595poe    c2313858   5.176   2.269   3.997 -0.5170  0.0824  0.2786
 2595poe     o213859   5.145   2.405   3.981 -0.0442  0.1938  0.3081
 2595poe    c3113860   5.005   2.403   3.963  0.0395  0.1589 -0.3723
 2596poe    c3113861   0.055   6.342   3.339  0.4915  0.6884  0.4402
 2596poe     o213862   0.183   6.283   3.339 -0.0622 -0.5643 -0.2130
 2596poe    c2313863   0.267   6.345   3.243  0.0965 -0.5162 -0.0441
 2596poe    c2313864   0.375   6.254   3.182  0.7614  0.2143  0.0335
 2596poe     o213865   0.322   6.146   3.107  0.4191  0.2035  0.2866
 2596poe    c2313866   0.400   6.106   2.996  0.0472 -0.4965  0.2779
 2596poe    c2313867   0.378   5.961   2.949 -0.1286 -0.2898 -0.2848
 2596poe     o213868   0.336   5.876   3.054 -0.6563 -0.3016 -0.5000
 2596poe    c2313869   0.316   5.742   3.015 -0.4412 -0.3381 -0.4831
 2596poe    c2313870   0.350   5.649   3.134 -0.2848  0.0526 -0.2192
 2596poe     o213871   0.330   5.732   3.246 -0.0324  0.5457 -0.5308
 2596poe    c3113872   0.244   5.671   3.340  0.3532  0.4422 -0.2403
 2597poe    c3113873   0.307   5.294   0.738 -1.4518  0.3559 -0.6446
 2597poe     o213874   0.259   5.161   0.733 -0.4101 -0.0850  0.5128
 2597poe    c2313875   0.133   5.149   0.670  0.2343 -0.0145 -0.8149
 2597poe    c2313876   0.080   5.005   0.677  0.2204  0.0481  0.4618
 2597poe     o213877   0.165   4.920   0.603 -0.0530 -0.2208  0.4534
 2597poe    c2313878   0.209   4.807   0.674 -0.4057 -0.1820  0.7364
 2597poe    c2313879   0.314   4.845   0.780  0.6997 -0.6721 -0.1682
 2597poe     o213880   0.431   4.907   0.733  0.2789  0.2506 -0.0158
 2597poe    c2313881   0.514   4.944   0.840  0.4564 -0.1295 -0.0222
 2597poe    c2313882   0.628   5.030   0.782 -0.2212  0.4097 -0.5610
 2597poe     o213883   0.569   5.115   0.686 -0.3541  0.9594 -0.0081
 2597poe    c3113884   0.654   5.202   0.614  0.6841 -0.0728 -0.0712
 2598poe    c3113885   6.502   3.462   2.920  0.1371  0.4250  0.0481
 2598poe     o213886   6.380   3.483   2.853  0.1753  0.2014 -0.0952
 2598poe    c2313887   6.283   3.428   2.939  0.2997  0.0299 -0.0634
 2598poe    c2313888   6.172   3.356   2.859  0.2181 -0.0808  0.1507
 2598poe     o213889   6.104   3.453   2.782 -0.2219 -0.6794 -0.2214
 2598poe    c2313890   6.019   3.388   2.691 -0.8177 -0.4587  0.1646
 2598poe    c2313891   5.921   3.488   2.627 -0.0998 -0.2165 -0.5803
 2598poe     o213892   5.993   3.607   2.601 -0.3429  0.1812  0.4783
 2598poe    c2313893   5.911   3.707   2.544  0.0518  0.2841  0.0852
 2598poe    c2313894   6.005   3.819   2.497 -0.7064  0.8516 -0.0908
 2598poe     o213895   6.109   3.830   2.591 -0.6768 -0.0887 -0.0027
 2598poe    c3113896   6.199   3.933   2.556 -0.7855  0.1540  0.4131
 2599poe    c3113897   2.185   6.296   1.294 -0.6868  0.2973 -0.0785
 2599poe     o213898   2.183   6.159   1.260  0.2828  0.2335  0.1153
 2599poe    c2313899   2.239   6.127   1.134  0.0379 -0.1441  0.1004
 2599poe    c2313900   2.196   5.982   1.107 -0.4892  0.1691 -0.7834
 2599poe     o213901   2.193   5.912   1.230 -0.1730  0.1372 -0.7932
 2599poe    c2313902   2.113   5.799   1.203 -0.7992  0.5049 -0.5035
 2599poe    c2313903   2.123   5.714   1.331 -0.8884  0.5784 -0.4475
 2599poe     o213904   2.075   5.794   1.436 -0.4507  0.2568 -0.0003
 2599poe    c2313905   2.076   5.726   1.560  0.2612 -0.1079 -0.2022
 2599poe    c2313906   2.012   5.792   1.684  0.3206 -0.0995 -0.1758
 2599poe     o213907   2.120   5.852   1.752  0.0478  0.1411  0.0507
 2599poe    c3113908   2.072   5.921   1.864 -0.6280  0.0499 -0.1785
 2600poe    c3113909   6.139   6.868   2.376 -0.4566 -0.2381  0.3873
 2600poe     o213910   6.108   7.005   2.373  0.1014 -0.1183 -0.2884
 2600poe    c2313911   6.218   7.089   2.351  0.2313 -0.1419  0.2591
 2600poe    c2313912   6.184   7.231   2.402  0.1592  0.1442 -0.5791
 2600poe     o213913   6.101   7.292   2.305 -0.7192  0.2991  0.2620
 2600poe    c2313914   6.023   7.391   2.368 -0.3454  0.3947  0.5827
 2600poe    c2313915   5.924   7.472   2.282 -0.4104 -0.5257 -0.2334
 2600poe     o213916   5.869   7.372   2.200  0.1369 -0.4877 -0.6541
 2600poe    c2313917   5.757   7.416   2.126 -0.1314  0.1447  0.1160
 2600poe    c2313918   5.754   7.320   2.006 -0.1931 -0.1818  0.3779
 2600poe     o213919   5.779   7.189   2.050 -0.3570 -0.3910 -0.1404
 2600poe    c3113920   5.771   7.096   1.944 -0.8402 -0.6288  0.1002
 2601poe    c3113921   3.730   2.225   2.395 -0.0200  0.3637  0.2887
 2601poe     o213922   3.821   2.306   2.324  0.2505 -0.1068  0.0969
 2601poe    c2313923   3.856   2.427   2.389  0.2284 -0.2032  0.2891
 2601poe    c2313924   3.961   2.488   2.294 -0.2258 -0.1261 -0.1682
 2601poe     o213925   3.895   2.517   2.173  0.2326 -0.3645 -0.4766
 2601poe    c2313926   3.927   2.646   2.124  0.1233 -0.2485 -0.2416
 2601poe    c2313927   3.843   2.701   2.007 -0.1662 -0.1250  0.0225
 2601poe     o213928   3.748   2.778   2.077 -0.3874  0.0684 -0.4869
 2601poe    c2313929   3.628   2.788   2.004 -0.4591 -0.2456 -0.4150
 2601poe    c2313930   3.591   2.936   1.979  0.4668  0.1347  0.4023
 2601poe     o213931   3.581   2.997   2.106  0.2086 -0.1758  0.5327
 2601poe    c3113932   3.487   3.102   2.105  0.3574 -0.0462 -0.1349
 2602poe    c3113933   1.298   3.936   2.356  0.2614  0.2122 -0.5794
 2602poe     o213934   1.423   3.870   2.356  0.1304 -0.0458 -0.1218
 2602poe    c2313935   1.498   3.872   2.475 -0.4517  0.3166  0.2415
 2602poe    c2313936   1.643   3.852   2.430 -0.4584  0.0850  0.3208
 2602poe     o213937   1.638   3.758   2.325  0.2588 -0.0206  0.3701
 2602poe    c2313938   1.770   3.744   2.279 -0.1919 -0.0546 -0.9547
 2602poe    c2313939   1.792   3.611   2.203  0.2330 -0.4659 -0.1301
 2602poe     o213940   1.804   3.627   2.063  0.1541 -0.2364 -0.1117
 2602poe    c2313941   1.824   3.502   2.002  0.3469 -0.2383 -0.0458
 2602poe    c2313942   1.710   3.399   1.990  0.6331 -0.5275 -0.3038
 2602poe     o213943   1.692   3.344   2.119  0.2172  0.1382 -0.0750
 2602poe    c3113944   1.594   3.243   2.129  0.3476  0.0359  0.1868
 2603poe    c3113945   2.449   1.883   3.799  0.0816 -0.0714  0.7556
 2603poe     o213946   2.399   2.000   3.739 -0.1611 -0.2073  0.6927
 2603poe    c2313947   2.363   1.970   3.606  0.9690  0.4209  0.2286
 2603poe    c2313948   2.304   2.095   3.540 -0.6632  0.1020  1.0042
 2603poe     o213949   2.399   2.198   3.522 -0.5326 -0.1449  0.2369
 2603poe    c2313950   2.394   2.238   3.387  0.1987  0.0611  0.2629
 2603poe    c2313951   2.498   2.347   3.359 -0.3586  0.4626 -0.2896
 2603poe     o213952   2.453   2.451   3.444  0.0972  0.1532  0.3409
 2603poe    c2313953   2.544   2.557   3.458 -0.1448  0.4196 -0.0740
 2603poe    c2313954   2.510   2.667   3.559  0.2148  0.6260 -0.1750
 2603poe     o213955   2.497   2.624   3.693 -0.1016  1.0865 -0.0543
 2603poe    c3113956   2.616   2.635   3.768  0.1592  0.9237 -0.4412
 2604poe    c3113957   0.461   3.360   1.511 -0.2399  0.8171 -0.0376
 2604poe     o213958   0.390   3.338   1.391  0.2520 -0.2249 -0.1546
 2604poe    c2313959   0.471   3.301   1.282  0.1980  0.4351 -0.4252
 2604poe    c2313960   0.489   3.149   1.270 -0.1395  0.3255  0.3952
 2604poe     o213961   0.365   3.082   1.264 -0.0590  0.1743  0.3978
 2604poe    c2313962   0.361   2.952   1.318 -0.0243  0.2662  0.6238
 2604poe    c2313963   0.227   2.900   1.373  0.2547  0.0745  1.1257
 2604poe     o213964   0.164   2.968   1.479 -0.1458  0.0658  0.8939
 2604poe    c2313965   0.080   2.886   1.556  0.3062 -0.5114  0.7761
 2604poe    c2313966  -0.069   2.923   1.546  0.5645  0.3715  0.1499
 2604poe     o213967  -0.083   3.057   1.589  0.5707  0.5733 -0.4653
 2604poe    c3113968  -0.218   3.100   1.595  0.3488 -0.1493 -0.0735
 2605poe    c3113969   4.604   4.508   2.988  0.3390 -0.6985  0.4368
 2605poe     o213970   4.691   4.453   2.892 -0.0552  0.0674 -0.3749
 2605poe    c2313971   4.793   4.543   2.852  0.1130 -0.0465 -0.2043
 2605poe    c2313972   4.911   4.474   2.781  0.5708 -0.1247  0.6195
 2605poe     o213973   4.981   4.400   2.878  0.4445 -0.7452  0.2406
 2605poe    c2313974   5.106   4.362   2.824  0.2604 -0.5863 -0.3109
 2605poe    c2313975   5.174   4.261   2.919  0.2456 -0.1845  0.1353
 2605poe     o213976   5.120   4.132   2.938  0.4922 -0.2786  0.1918
 2605poe    c2313977   5.213   4.027   2.952  0.3287 -0.3548  0.7486
 2605poe    c2313978   5.144   3.891   2.934  0.0923 -0.1333 -0.0388
 2605poe     o213979   5.099   3.872   2.802  0.4007  0.4117 -0.2248
 2605poe    c3113980   5.146   3.758   2.733 -0.4388 -0.0228 -0.0909
 2606poe    c3113981   2.789   3.537   0.005 -0.3015  0.0035  0.7815
 2606poe     o213982   2.923   3.491   0.006 -0.5290 -0.7101 -0.0170
 2606poe    c2313983   2.975   3.519   0.134 -0.0614 -0.0896 -0.3351
 2606poe    c2313984   3.107   3.443   0.158 -0.4121 -0.6870 -0.2721
 2606poe     o213985   3.213   3.474   0.070 -0.3365  0.7609  0.3114
 2606poe    c2313986   3.337   3.446   0.130 -0.3344 -0.4708 -0.2435
 2606poe    c2313987   3.451   3.460   0.027 -0.2953 -0.0021 -0.1379
 2606poe     o213988   3.470   3.598   0.003 -0.4792 -0.0730 -0.6988
 2606poe    c2313989   3.574   3.607  -0.092  0.4863 -0.2569  0.3245
 2606poe    c2313990   3.638   3.747  -0.100  0.4519 -0.2884 -0.5636
 2606poe     o213991   3.691   3.783   0.025 -0.0234 -0.6922 -0.2440
 2606poe    c3113992   3.800   3.872   0.018 -1.0064  0.5883  0.3969
 2607poe    c3113993   1.832   6.214   5.341  0.0657 -0.1169  0.3257
 2607poe     o213994   1.784   6.217   5.209  0.0785  0.2524  0.3280
 2607poe    c2313995   1.892   6.201   5.119 -0.1671  0.1937  0.0422
 2607poe    c2313996   1.860   6.172   4.971  0.0562 -0.5444  0.1371
 2607poe     o213997   1.817   6.296   4.919  0.7331 -0.3328  0.0744
 2607poe    c2313998   1.755   6.282   4.794  0.7590  0.1110  0.0129
 2607poe    c2313999   1.666   6.406   4.771 -0.3836 -0.6814  0.0527
 2607poe     o214000   1.565   6.425   4.868 -0.7826 -0.8812 -0.3183
 2607poe    c2314001   1.474   6.527   4.836  0.2900  0.2368  0.0851
 2607poe    c2314002   1.360   6.551   4.937  0.1052 -0.0936 -0.0431
 2607poe     o214003   1.294   6.432   4.974 -0.5961  0.1173 -0.6171
 2607poe    c3114004   1.208   6.453   5.084  0.6616 -0.8731  0.5757
 2608poe    c3114005   7.100   5.954   3.817  0.1483  0.0475  0.5543
 2608poe     o214006   7.104   5.818   3.782 -0.5169  0.1452  0.0670
 2608poe    c2314007   7.238   5.780   3.756 -0.2228  0.7848  0.6071
 2608poe    c2314008   7.251   5.627   3.736 -0.0778  0.8260  0.3828
 2608poe     o214009   7.232   5.564   3.860  0.4285 -0.1381 -0.0264
 2608poe    c2314010   7.206   5.429   3.827  0.0685 -0.0676 -0.0276
 2608poe    c2314011   7.181   5.340   3.951 -0.0729  0.4799  0.3416
 2608poe     o214012   7.055   5.361   4.010 -0.4395  0.1732 -0.3109
 2608poe    c2314013   7.040   5.286   4.129 -0.7304  0.5215 -0.1259
 2608poe    c2314014   6.907   5.333   4.191 -0.7549  0.0272  0.1997
 2608poe     o214015   6.802   5.292   4.106 -0.5413 -0.0391 -0.0327
 2608poe    c3114016   6.678   5.352   4.134 -0.3489  0.1622  0.4062
 2609poe    c3114017   1.215   3.352   5.730  0.5623  0.0950  0.5843
 2609poe     o214018   1.286   3.279   5.828  0.6432  0.0849  0.5178
 2609poe    c2314019   1.225   3.288   5.954 -0.3376 -0.1074  0.0620
 2609poe    c2314020   1.319   3.333   6.067  0.0334  1.1291 -0.7202
 2609poe     o214021   1.441   3.263   6.075 -0.3708  0.5136  0.3503
 2609poe    c2314022   1.533   3.318   6.167 -0.0676 -0.4831  0.6567
 2609poe    c2314023   1.665   3.241   6.149 -0.1733 -0.6644  0.6526
 2609poe     o214024   1.675   3.215   6.011 -0.5026  0.1924  0.4613
 2609poe    c2314025   1.804   3.166   5.980 -0.6552  0.3058 -0.3747
 2609poe    c2314026   1.806   3.108   5.837  0.1699 -0.2843 -0.1291
 2609poe     o214027   1.763   3.195   5.735 -1.1407 -0.3337  0.3555
 2609poe    c3114028   1.794   3.139   5.610 -0.3570 -0.0313  0.4064
 2610poe    c3114029   5.872   0.968   6.302 -0.1702  0.4038 -0.0526
 2610poe     o214030   5.741   1.018   6.292 -0.0657  0.6765 -0.0565
 2610poe    c2314031   5.671   0.897   6.279  0.2377  0.3438  1.3211
 2610poe    c2314032   5.533   0.937   6.224  0.4470 -0.3650  0.2353
 2610poe     o214033   5.481   1.017   6.329  0.0611  0.1091 -0.3090
 2610poe    c2314034   5.347   1.055   6.311  0.1469  0.6756  0.2355
 2610poe    c2314035   5.321   1.173   6.407 -0.3886  0.8173 -0.0784
 2610poe     o214036   5.432   1.259   6.411  0.0497  0.2524 -0.0007
 2610poe    c2314037   5.405   1.389   6.459 -0.0793  0.2994 -0.2021
 2610poe    c2314038   5.368   1.408   6.607 -0.8526  0.5478 -0.4222
 2610poe     o214039   5.274   1.309   6.642  0.2497 -0.5532 -0.4631
 2610poe    c3114040   5.208   1.350   6.760 -0.3340  0.4110 -1.1079
 2611poe    c3114041   3.014   6.035   6.225  0.7319  0.9436 -0.2128
 2611poe     o214042   3.089   6.028   6.344  0.2011 -0.7073  0.0456
 2611poe    c2314043   3.058   5.912   6.418 -0.1181 -0.2332  0.6642
 2611poe    c2314044   3.103   5.912   6.565  0.1654  0.1913  0.5787
 2611poe     o214045   3.244   5.899   6.564  0.1746  0.2962  0.1943
 2611poe    c2314046   3.288   5.890   6.698  0.7875  0.2654 -0.0086
 2611poe    c2314047   3.434   5.842   6.711  0.8337  0.4878  0.2980
 2611poe     o214048   3.508   5.920   6.620  0.1473  0.6638 -0.1180
 2611poe    c2314049   3.645   5.887   6.618  0.0595  0.2802  0.1345
 2611poe    c2314050   3.701   5.965   6.498 -0.6992  0.4958 -0.0854
 2611poe     o214051   3.642   5.908   6.384 -0.3054 -0.4067  0.1517
 2611poe    c3114052   3.723   5.911   6.268 -0.1540 -0.7007  0.2495
 2612poe    c3114053   4.774   7.149   0.557 -0.3357  0.7258  0.1051
 2612poe     o214054   4.668   7.160   0.649 -0.0861 -0.0310  0.4980
 2612poe    c2314055   4.648   7.291   0.698 -0.4161 -0.0444  0.4070
 2612poe    c2314056   4.502   7.314   0.741 -0.2982  0.5442  0.5093
 2612poe     o214057   4.454   7.195   0.800  0.1774  0.1741  0.1653
 2612poe    c2314058   4.321   7.233   0.829 -0.2238 -0.3240 -0.9316
 2612poe    c2314059   4.271   7.117   0.918  1.3290 -0.2916  0.0249
 2612poe     o214060   4.294   6.997   0.848  0.3677 -0.3555 -0.1930
 2612poe    c2314061   4.300   6.885   0.933 -0.2176 -0.1867  0.0723
 2612poe    c2314062   4.342   6.762   0.850 -0.1056  0.0725 -0.2551
 2612poe     o214063   4.448   6.805   0.768 -0.0938 -0.0715 -0.3166
 2612poe    c3114064   4.482   6.708   0.672  0.1477 -0.3620  0.0585
 2613poe    c3114065   1.404   6.906   0.610 -0.3798  0.1877  0.5260
 2613poe     o214066   1.464   6.938   0.486  0.0036 -0.2926  0.5860
 2613poe    c2314067   1.605   6.931   0.496  0.0461 -0.1752  0.0920
 2613poe    c2314068   1.676   6.798   0.468 -0.3224 -0.2795 -0.3678
 2613poe     o214069   1.716   6.788   0.333 -0.5184  0.2227 -0.4656
 2613poe    c2314070   1.629   6.711   0.253 -0.4441  0.1284 -0.4560
 2613poe    c2314071   1.675   6.690   0.108  0.2541 -0.5551 -0.1440
 2613poe     o214072   1.615   6.575   0.052  0.2512 -0.9477  0.6623
 2613poe    c2314073   1.707   6.523  -0.041  0.1805 -0.1610  0.1440
 2613poe    c2314074   1.653   6.458  -0.169  0.3493  0.2607 -0.1429
 2613poe     o214075   1.600   6.557  -0.254  0.1732 -0.1571 -0.5245
 2613poe    c3114076   1.500   6.510  -0.343 -0.3475 -0.7571  0.3582
 2614poe    c3114077   1.085   0.631   1.356  0.5867  0.2055 -0.3577
 2614poe     o214078   1.116   0.687   1.482 -0.3723 -0.1007  0.0255
 2614poe    c2314079   1.095   0.826   1.474 -0.5180 -0.1353 -0.2161
 2614poe    c2314080   1.095   0.892   1.614 -0.0023 -0.0134 -0.2712
 2614poe     o214081   1.006   0.834   1.707 -0.0127  0.1136 -0.2014
 2614poe    c2314082   1.052   0.849   1.839  0.3282 -0.2982 -0.2695
 2614poe    c2314083   0.985   0.776   1.958  0.4711  0.2316  0.1394
 2614poe     o214084   1.010   0.638   1.950 -0.8932 -0.0013 -0.2725
 2614poe    c2314085   0.926   0.571   2.042  0.0348 -0.1792  0.4673
 2614poe    c2314086   0.990   0.505   2.165  1.1970 -0.1782 -0.1264
 2614poe     o214087   1.083   0.405   2.128  0.6730 -0.5812 -0.3675
 2614poe    c3114088   1.134   0.331   2.236  0.1481 -0.2256  0.1297
 2615poe    c3114089   1.788   5.564   2.900  0.1502  0.4413  0.6334
 2615poe     o214090   1.686   5.642   2.843 -0.2960  0.0765  0.9270
 2615poe    c2314091   1.581   5.564   2.791  0.1142  0.4569 -0.5108
 2615poe    c2314092   1.545   5.589   2.643 -0.5729  0.2413 -0.3815
 2615poe     o214093   1.655   5.537   2.573 -0.3118 -0.0077  0.2041
 2615poe    c2314094   1.638   5.565   2.436 -0.2943 -0.5014  0.0988
 2615poe    c2314095   1.776   5.551   2.369 -0.1561  0.6786  0.1157
 2615poe     o214096   1.871   5.654   2.381  0.2558  0.3445 -0.2706
 2615poe    c2314097   1.980   5.617   2.300  0.2130 -0.6187  0.1032
 2615poe    c2314098   2.058   5.748   2.279 -0.6450 -0.2219 -0.6446
 2615poe     o214099   1.973   5.850   2.232 -0.0300  0.3379 -0.5449
 2615poe    c3114100   2.026   5.977   2.265  0.3628  0.0140  0.0815
 2616poe    c3114101   3.753   7.076   1.148 -0.2663 -0.0402  0.4521
 2616poe     o214102   3.793   7.210   1.166 -0.1676 -0.0325  0.1725
 2616poe    c2314103   3.685   7.297   1.143  0.1945  0.5452  0.6534
 2616poe    c2314104   3.739   7.441   1.133  0.0905  0.5365 -0.1181
 2616poe     o214105   3.778   7.481   1.263 -0.1744 -0.4605  0.2779
 2616poe    c2314106   3.779   7.622   1.268 -0.0289 -0.4514 -0.0026
 2616poe    c2314107   3.825   7.665   1.408  0.2325 -0.5513 -0.0566
 2616poe     o214108   3.943   7.594   1.437  0.4883  0.0240  0.3133
 2616poe    c2314109   4.008   7.676   1.531 -0.1082  0.2832  0.5040
 2616poe    c2314110   4.115   7.764   1.463 -0.2014 -0.0188 -0.0320
 2616poe     o214111   4.229   7.687   1.428 -0.1982  0.2947 -0.7188
 2616poe    c3114112   4.323   7.768   1.361 -0.5603  0.7069 -0.7421
 2617poe    c3114113   3.082   2.347   6.260 -0.0181 -0.4452  0.0422
 2617poe     o214114   3.122   2.249   6.167  0.4485 -0.4818  0.2758
 2617poe    c2314115   3.245   2.282   6.107  0.1878  0.1798  0.0960
 2617poe    c2314116   3.254   2.230   5.962  0.4275  0.1099  0.1358
 2617poe     o214117   3.299   2.097   5.949 -0.4155 -0.1663 -0.0541
 2617poe    c2314118   3.317   2.098   5.809  0.4822  0.9849  0.0489
 2617poe    c2314119   3.320   1.964   5.733  0.0672  0.9753  0.0467
 2617poe     o214120   3.442   1.903   5.770 -0.3327  0.1979  0.1135
 2617poe    c2314121   3.468   1.795   5.684 -0.3326  0.4519 -0.2062
 2617poe    c2314122   3.618   1.778   5.653 -0.2525  0.7066  0.0445
 2617poe     o214123   3.689   1.735   5.767 -0.4961 -0.8474 -0.3688
 2617poe    c3114124   3.823   1.700   5.742 -0.0993  0.1358  0.2713
 2618poe    c3114125   6.978   6.929   0.354 -0.2722  0.2264  0.1468
 2618poe     o214126   6.998   6.955   0.217 -0.1323 -0.2183  0.0806
 2618poe    c2314127   7.082   7.067   0.200  0.3077 -0.5245  0.2361
 2618poe    c2314128   7.127   7.046   0.054 -0.0044 -0.4186  0.1245
 2618poe     o214129   7.009   7.051  -0.024  0.0370 -0.0483  0.0856
 2618poe    c2314130   7.036   7.038  -0.161 -0.3721  0.1531 -0.0157
 2618poe    c2314131   6.939   6.930  -0.213  0.6320 -0.5653 -0.4454
 2618poe     o214132   6.923   6.823  -0.123  0.4125 -0.1916 -0.0328
 2618poe    c2314133   6.870   6.713  -0.194 -0.2311  0.1315 -0.0591
 2618poe    c2314134   6.721   6.686  -0.167 -0.1894  0.0076  0.0479
 2618poe     o214135   6.707   6.634  -0.037  0.1620 -0.6285 -0.1682
 2618poe    c3114136   6.578   6.592   0.002 -0.1334  0.1181 -0.3261
 2619poe    c3114137   5.759   7.056   4.155 -0.6443 -0.2371 -0.0376
 2619poe     o214138   5.797   7.157   4.246 -1.0625  0.1885 -0.3335
 2619poe    c2314139   5.750   7.279   4.192 -0.0138  0.5539 -0.4548
 2619poe    c2314140   5.786   7.392   4.290 -0.5176  0.1047  0.2580
 2619poe     o214141   5.924   7.417   4.292 -0.5846  0.6245 -1.0393
 2619poe    c2314142   5.938   7.507   4.399 -0.0516 -0.0539 -0.5263
 2619poe    c2314143   6.084   7.554   4.383  0.0767 -0.0044  0.7004
 2619poe     o214144   6.157   7.434   4.386  0.0235 -0.0705 -0.4198
 2619poe    c2314145   6.294   7.463   4.400 -0.1103  0.3168  0.0973
 2619poe    c2314146   6.381   7.339   4.429 -0.2304  0.2371  0.1195
 2619poe     o214147   6.354   7.242   4.331  0.3508  0.3077 -0.1183
 2619poe    c3114148   6.434   7.127   4.346  0.0337  0.1265  0.2203
 2620poe    c3114149   5.409   3.708   5.647 -0.3121 -0.3815  0.0785
 2620poe     o214150   5.544   3.706   5.607 -0.1890  0.3214  0.4486
 2620poe    c2314151   5.574   3.605   5.513 -0.1826  1.0513 -0.3498
 2620poe    c2314152   5.727   3.615   5.495  0.0159  0.3658  0.8707
 2620poe     o214153   5.752   3.752   5.477 -0.5583  0.3399 -0.2012
 2620poe    c2314154   5.892   3.766   5.469 -0.4758 -0.2114  0.2098
 2620poe    c2314155   5.913   3.918   5.457  0.9603 -0.3122  1.1330
 2620poe     o214156   5.813   3.985   5.530  0.3562  0.0532  0.0003
 2620poe    c2314157   5.857   4.118   5.552  0.6112 -0.0841  0.3269
 2620poe    c2314158   5.752   4.185   5.643  0.5293 -0.1393  0.2737
 2620poe     o214159   5.740   4.132   5.773  0.3614  0.1477  0.3762
 2620poe    c3114160   5.646   4.208   5.846 -0.1579  0.2286 -0.3645
 2621poe    c3114161   2.725   5.275   2.351  0.0196  0.6543  0.4218
 2621poe     o214162   2.700   5.249   2.215  0.6865  0.6118  0.3046
 2621poe    c2314163   2.817   5.262   2.137  0.2370  0.0962 -0.4593
 2621poe    c2314164   2.791   5.237   1.987  0.7127  0.8883 -0.6762
 2621poe     o214165   2.683   5.318   1.949 -0.0787  0.2755  0.2243
 2621poe    c2314166   2.723   5.438   1.886 -0.4945  0.0992 -0.3948
 2621poe    c2314167   2.612   5.544   1.897  0.0591  0.7163 -0.7124
 2621poe     o214168   2.488   5.486   1.863 -0.0394  0.2695  0.3711
 2621poe    c2314169   2.380   5.575   1.876 -0.4334 -0.1287 -0.1562
 2621poe    c2314170   2.248   5.497   1.897 -0.4770  0.2062  0.8717
 2621poe     o214171   2.268   5.403   2.000  0.0806 -0.6799 -0.0260
 2621poe    c3114172   2.145   5.349   2.041  0.2391 -0.6484  0.4949
 2622poe    c3114173   1.390   1.921   4.245 -0.0927 -0.0205  0.2405
 2622poe     o214174   1.445   1.876   4.124 -0.1971  0.5332 -0.0149
 2622poe    c2314175   1.344   1.844   4.031  0.1940 -0.7005 -0.0282
 2622poe    c2314176   1.435   1.775   3.927  0.1532 -0.1601 -0.4284
 2622poe     o214177   1.554   1.848   3.905 -0.2667  0.7803  0.3486
 2622poe    c2314178   1.606   1.812   3.780 -0.1136  0.7365  0.4245
 2622poe    c2314179   1.753   1.852   3.761  0.1158  0.0691  0.7549
 2622poe     o214180   1.774   1.992   3.768 -0.0476  0.1627 -0.3890
 2622poe    c2314181   1.895   2.016   3.836 -0.4185  0.7243  0.0852
 2622poe    c2314182   1.942   2.162   3.836  0.1231  0.5599  0.6552
 2622poe     o214183   1.831   2.230   3.891 -0.3069  0.4349 -0.0413
 2622poe    c3114184   1.829   2.367   3.861  0.7153  0.5137  0.2275
 2623poe    c3114185   2.840   6.561   6.613 -0.1426 -0.2852 -0.5253
 2623poe     o214186   2.747   6.663   6.588 -0.0983 -0.2338 -0.4819
 2623poe    c2314187   2.803   6.763   6.507 -0.1949  0.6193  0.4787
 2623poe    c2314188   2.710   6.882   6.475  0.2615  0.7633 -0.3427
 2623poe     o214189   2.685   6.970   6.582 -0.1027  0.1900  0.0443
 2623poe    c2314190   2.668   7.098   6.527 -0.3933  0.1239 -0.0196
 2623poe    c2314191   2.702   7.209   6.628  0.0660 -0.1080  0.0784
 2623poe     o214192   2.625   7.169   6.739 -0.2347  0.2552 -0.0006
 2623poe    c2314193   2.615   7.261   6.846 -0.2405  0.1881  0.0558
 2623poe    c2314194   2.738   7.283   6.936 -0.1690  0.3424 -0.0806
 2623poe     o214195   2.737   7.171   7.022  0.2157  0.1100 -0.3751
 2623poe    c3114196   2.824   7.197   7.129 -0.0648 -0.3485 -0.0358
 2624poe    c3114197   6.284   2.405   5.669 -0.0033 -0.2794 -0.3177
 2624poe     o214198   6.172   2.335   5.619 -0.2078 -0.3069  0.1759
 2624poe    c2314199   6.107   2.412   5.520 -0.0667 -0.2950  0.0925
 2624poe    c2314200   5.960   2.366   5.517 -0.1726  0.0667 -0.6570
 2624poe     o214201   5.969   2.227   5.495  0.2122 -0.1033  0.4842
 2624poe    c2314202   5.841   2.176   5.466  0.3332  0.0649 -0.3685
 2624poe    c2314203   5.853   2.025   5.439 -0.1278 -0.1513  0.6157
 2624poe     o214204   5.883   1.951   5.556  0.3772 -0.4209  0.3160
 2624poe    c2314205   5.776   1.896   5.628 -0.0049 -0.1171 -0.0145
 2624poe    c2314206   5.809   1.833   5.765 -0.8825 -0.0331  0.2483
 2624poe     o214207   5.839   1.946   5.844  0.6755 -0.2284 -0.0323
 2624poe    c3114208   5.841   1.913   5.981 -0.3680 -0.5031 -0.0792
 2625poe    c3114209   4.010   3.280   5.369  0.3275 -0.4327  0.3205
 2625poe     o214210   4.104   3.344   5.453  0.5603  0.3841 -0.5482
 2625poe    c2314211   4.147   3.466   5.396  1.1280  0.3007 -0.2980
 2625poe    c2314212   4.252   3.537   5.484  0.2599 -0.1637  1.1475
 2625poe     o214213   4.381   3.488   5.453  0.1517  0.4489 -0.3525
 2625poe    c2314214   4.471   3.567   5.528 -0.2838 -0.1433  0.8164
 2625poe    c2314215   4.603   3.507   5.478 -0.6950 -0.4648  0.1038
 2625poe     o214216   4.650   3.564   5.358 -0.3518 -0.2527  0.3367
 2625poe    c2314217   4.779   3.519   5.324 -0.4294 -0.0053 -0.3084
 2625poe    c2314218   4.831   3.534   5.180  0.2801 -0.4186 -0.0998
 2625poe     o214219   4.789   3.429   5.096 -0.1923  0.0589 -0.4655
 2625poe    c3114220   4.869   3.313   5.105 -0.9013 -0.3985  0.1350
 2626poe    c3114221   4.266   4.496   6.558  0.9239  0.7162  0.3068
 2626poe     o214222   4.394   4.491   6.499  0.4080 -0.7079 -0.7429
 2626poe    c2314223   4.489   4.471   6.601  0.2886  0.2027 -0.4371
 2626poe    c2314224   4.630   4.477   6.538  0.3169  0.6272 -0.3324
 2626poe     o214225   4.667   4.360   6.469 -0.4728  0.3235 -0.2524
 2626poe    c2314226   4.793   4.390   6.413  0.1191 -0.6293  0.5398
 2626poe    c2314227   4.830   4.281   6.311 -0.4190 -0.3899  0.0846
 2626poe     o214228   4.712   4.224   6.259 -0.4092 -0.4310  0.1080
 2626poe    c2314229   4.732   4.118   6.168  0.1299 -0.7525  0.5955
 2626poe    c2314230   4.608   4.106   6.077  0.3889  0.2657  0.0895
 2626poe     o214231   4.508   4.151   6.166  0.3289 -0.2363  0.2797
 2626poe    c3114232   4.385   4.162   6.099 -0.0695 -0.6517  0.9340
 2627poe    c3114233   4.854   3.973   3.903  0.2246 -0.0223  0.4251
 2627poe     o214234   4.914   3.847   3.887 -0.0929 -0.1795  0.4608
 2627poe    c2314235   4.859   3.745   3.967  0.1234 -0.1229  0.6833
 2627poe    c2314236   4.914   3.608   3.922 -0.7459 -0.0530 -0.6350
 2627poe     o214237   4.898   3.603   3.781  0.7250  0.2617 -0.8250
 2627poe    c2314238   4.878   3.475   3.727  0.2902 -0.2044  0.4037
 2627poe    c2314239   4.795   3.514   3.604 -0.3036  0.9274  1.1433
 2627poe     o214240   4.865   3.608   3.526  0.2059 -0.5220 -0.2128
 2627poe    c2314241   4.802   3.636   3.403  0.2940  0.1322 -0.1135
 2627poe    c2314242   4.878   3.726   3.304  0.7860 -0.2549 -0.0901
 2627poe     o214243   4.860   3.861   3.341  0.2346 -0.3308 -0.0749
 2627poe    c3114244   4.938   3.927   3.244  0.5503  0.4504  0.6947
 2628poe    c3114245   1.667   5.385   1.337 -0.3198 -0.0096  0.2502
 2628poe     o214246   1.698   5.421   1.470  0.2228  0.7972 -0.0871
 2628poe    c2314247   1.832   5.431   1.513  0.1579  0.0941  0.3071
 2628poe    c2314248   1.829   5.372   1.655 -0.0506 -0.3741  0.1094
 2628poe     o214249   1.780   5.469   1.744 -0.0423 -0.4656  0.2149
 2628poe    c2314250   1.810   5.435   1.877  0.3510  0.4707  0.3703
 2628poe    c2314251   1.709   5.485   1.982 -0.1315  0.1224  0.0746
 2628poe     o214252   1.692   5.625   1.977  0.9911  0.2510 -0.4173
 2628poe    c2314253   1.620   5.682   1.870  0.3940  0.5261  0.1278
 2628poe    c2314254   1.474   5.711   1.911  0.2314 -0.2934  0.1518
 2628poe     o214255   1.475   5.833   1.981 -0.2131  0.1105 -0.5349
 2628poe    c3114256   1.454   5.795   2.115  0.2523 -0.5222 -0.6385
 2629poe    c3114257   1.757   4.194   4.798 -0.2003  0.0510 -0.4897
 2629poe     o214258   1.665   4.270   4.723 -0.3948  0.3724  0.0696
 2629poe    c2314259   1.593   4.358   4.806 -0.0233  0.5309  0.2298
 2629poe    c2314260   1.473   4.424   4.734 -0.2522 -0.0087  0.1124
 2629poe     o214261   1.348   4.362   4.750 -0.1061 -0.2671  0.2723
 2629poe    c2314262   1.236   4.443   4.718  0.0804  0.1080  0.5646
 2629poe    c2314263   1.118   4.375   4.790  0.0530 -0.1096  0.3177
 2629poe     o214264   1.117   4.238   4.757  0.1975 -0.1446  0.4570
 2629poe    c2314265   0.998   4.166   4.778 -0.0482  0.0452 -0.2690
 2629poe    c2314266   1.042   4.021   4.748  0.1886  0.0722 -0.0586
 2629poe     o214267   1.170   4.000   4.802  0.2233  0.0847 -0.1369
 2629poe    c3114268   1.207   3.865   4.818 -0.2953 -0.0274  0.1193
 2630poe    c3114269   3.348   1.098   6.129  0.0178 -0.4104  0.2246
 2630poe     o214270   3.293   1.072   6.256  0.0366  0.0200  0.3254
 2630poe    c2314271   3.214   1.184   6.289 -0.3370 -0.0025 -0.4685
 2630poe    c2314272   3.249   1.228   6.432 -0.1779 -0.5612 -0.3316
 2630poe     o214273   3.219   1.125   6.523  0.0412  0.1212  0.5197
 2630poe    c2314274   3.235   1.182   6.651  0.3255  0.7569  0.2056
 2630poe    c2314275   3.180   1.095   6.766 -0.0383  0.9712  0.1941
 2630poe     o214276   3.248   0.971   6.769 -0.5517  0.7019  0.9329
 2630poe    c2314277   3.172   0.863   6.818  0.2197 -0.1803  0.2170
 2630poe    c2314278   3.247   0.730   6.800  0.8455  0.1731  0.1855
 2630poe     o214279   3.299   0.736   6.669  0.2771  0.1647 -0.0444
 2630poe    c3114280   3.384   0.627   6.644 -0.5387 -0.5141  0.1247
 2631poe    c3114281   4.317   2.865   2.272  0.1137 -0.2647 -0.0034
 2631poe     o214282   4.345   2.815   2.143 -0.6108  0.3664 -0.4092
 2631poe    c2314283   4.483   2.807   2.118 -0.5221 -0.0160  0.1772
 2631poe    c2314284   4.530   2.769   1.976 -0.0174  0.0309  0.3299
 2631poe     o214285   4.531   2.859   1.867  0.1439  0.6565  0.8411
 2631poe    c2314286   4.405   2.907   1.824 -0.0592 -0.4644  0.1458
 2631poe    c2314287   4.429   3.002   1.705 -0.0231  0.3120  0.7628
 2631poe     o214288   4.521   2.937   1.620 -0.4770  0.4708  0.1427
 2631poe    c2314289   4.515   2.996   1.493 -0.1166  0.5216  0.1475
 2631poe    c2314290   4.620   2.924   1.407 -0.2868  0.2439  0.1700
 2631poe     o214291   4.731   2.916   1.494  0.0023  0.3367 -0.1868
 2631poe    c3114292   4.841   2.865   1.423 -0.1551  0.0017 -0.1908
 2632poe    c3114293   2.181   5.552   0.706 -0.1221  0.3336  0.0650
 2632poe     o214294   2.180   5.648   0.603 -0.1009  0.3854  0.1131
 2632poe    c2314295   2.172   5.774   0.667  0.2267  0.4500  0.0291
 2632poe    c2314296   2.109   5.877   0.572  0.1140  0.4729  0.1273
 2632poe     o214297   2.171   5.858   0.446 -0.2482  0.1341  0.0003
 2632poe    c2314298   2.155   5.971   0.364  0.6598  0.0844 -0.2509
 2632poe    c2314299   2.179   5.935   0.216  0.3697  0.2660 -0.3432
 2632poe     o214300   2.313   5.890   0.224  0.3222  0.2310  0.3084
 2632poe    c2314301   2.339   5.829   0.100  0.3006  1.0272 -0.0899
 2632poe    c2314302   2.490   5.801   0.090  0.0720 -0.1394 -0.3763
 2632poe     o214303   2.531   5.753   0.217  0.1833  0.0536 -0.3386
 2632poe    c3114304   2.671   5.741   0.223  0.1457 -0.0864  0.2724
 2633poe    c3114305   2.779   2.070   5.336 -0.0354 -0.9345 -0.1164
 2633poe     o214306   2.748   2.098   5.202 -0.1494  0.6273  0.2197
 2633poe    c2314307   2.694   1.986   5.137 -0.0776  0.3896  0.5708
 2633poe    c2314308   2.634   2.017   4.998 -0.2824  0.3325  0.6456
 2633poe     o214309   2.515   2.091   5.012 -0.1944  0.4984  0.5151
 2633poe    c2314310   2.441   2.098   4.892  0.7758  0.0170 -0.1222
 2633poe    c2314311   2.334   2.206   4.915  0.3106 -0.3679 -0.4669
 2633poe     o214312   2.394   2.333   4.927  0.5116 -0.4318 -0.7880
 2633poe    c2314313   2.303   2.434   4.892  0.7277  0.0984  0.1598
 2633poe    c2314314   2.346   2.582   4.901  0.2529  0.2422  0.0649
 2633poe     o214315   2.362   2.633   5.032 -0.3394 -0.1219  0.2812
 2633poe    c3114316   2.245   2.670   5.102 -0.3131 -0.1976  0.3659
 2634poe    c3114317   3.240   6.455   1.967 -0.2219  0.2662 -0.0190
 2634poe     o214318   3.211   6.319   1.990  0.3068  0.0108 -0.8070
 2634poe    c2314319   3.328   6.260   2.045  0.0453  0.6064  0.4319
 2634poe    c2314320   3.286   6.137   2.127 -0.2163  0.2632 -0.2117
 2634poe     o214321   3.179   6.174   2.210  0.2075 -0.4595  0.6705
 2634poe    c2314322   3.130   6.067   2.288  0.2851 -0.3488  0.8726
 2634poe    c2314323   3.001   6.114   2.356  0.4562  0.5973  0.5579
 2634poe     o214324   2.906   6.169   2.267  0.3591  0.2912  0.4714
 2634poe    c2314325   2.777   6.169   2.324  0.1418 -0.1183 -0.0204
 2634poe    c2314326   2.726   6.310   2.359  0.5446 -0.0202  0.1647
 2634poe     o214327   2.732   6.385   2.240 -0.1208  0.6055  0.5229
 2634poe    c3114328   2.643   6.495   2.250 -0.9689 -0.0574  0.3917
 2635poe    c3114329   2.794   6.534   1.856 -0.5705  0.2314 -0.3986
 2635poe     o214330   2.768   6.398   1.830 -0.5606  0.2608 -0.5634
 2635poe    c2314331   2.788   6.382   1.691  0.3451  0.2603 -0.4413
 2635poe    c2314332   2.775   6.233   1.652  0.5539  0.0974  0.0982
 2635poe     o214333   2.643   6.184   1.643  0.4990  0.2139  0.2695
 2635poe    c2314334   2.643   6.047   1.675 -0.2489  0.1243 -0.0839
 2635poe    c2314335   2.542   6.015   1.787 -0.5039  0.2071 -0.2922
 2635poe     o214336   2.562   6.068   1.916 -0.0060  0.4227 -0.4590
 2635poe    c2314337   2.451   6.066   2.002  0.1608 -0.0713 -0.2565
 2635poe    c2314338   2.372   5.937   2.033 -0.5295  0.4795  0.3104
 2635poe     o214339   2.443   5.826   2.082  0.0732  0.6761 -0.1041
 2635poe    c3114340   2.466   5.822   2.221  0.1049  0.2010 -0.1209
 2636poe    c3114341   4.046   5.787   2.197 -0.4799  0.5143 -0.7121
 2636poe     o214342   4.023   5.677   2.112 -0.0828  0.1450 -0.3507
 2636poe    c2314343   4.110   5.686   2.002  0.0796  0.2128 -0.2160
 2636poe    c2314344   4.077   5.576   1.899 -0.0552  0.3048 -0.2720
 2636poe     o214345   3.946   5.595   1.852  0.0779  0.6465 -0.5136
 2636poe    c2314346   3.944   5.504   1.744 -0.0971  0.4950 -0.3832
 2636poe    c2314347   3.811   5.497   1.666  0.1340  0.1574 -0.7529
 2636poe     o214348   3.785   5.628   1.619 -0.2475  0.2864 -0.1969
 2636poe    c2314349   3.649   5.639   1.585 -0.2131  0.3956 -0.2987
 2636poe    c2314350   3.631   5.777   1.519 -0.1636  0.6506  0.2219
 2636poe     o214351   3.582   5.857   1.624 -0.3323  0.0803  0.5856
 2636poe    c3114352   3.675   5.939   1.691 -0.0247  0.0786  0.1597
 2637poe    c3114353   6.547   3.719   5.377 -0.1805  0.0720 -0.6512
 2637poe     o214354   6.677   3.711   5.323  0.0815  0.0655 -0.0327
 2637poe    c2314355   6.779   3.648   5.397 -0.3217 -0.0437  0.4393
 2637poe    c2314356   6.896   3.605   5.307 -0.2725  0.5368  0.2207
 2637poe     o214357   6.900   3.687   5.193 -0.5360  0.3884  0.1024
 2637poe    c2314358   7.025   3.689   5.127 -0.2953  0.2856  0.5534
 2637poe    c2314359   7.049   3.826   5.060  0.1978 -0.1219 -0.1115
 2637poe     o214360   6.927   3.897   5.064  0.2979  0.0397  0.1324
 2637poe    c2314361   6.925   4.015   4.986  0.7929  0.0222  0.0851
 2637poe    c2314362   6.960   4.135   5.075  0.2429  0.0324  0.2907
 2637poe     o214363   6.858   4.152   5.171 -0.3501 -0.8864 -0.1584
 2637poe    c3114364   6.879   4.267   5.251 -0.3741 -0.7316 -0.3756
 2638poe    c3114365   1.216   1.945   0.573 -0.7250 -0.5674 -0.1259
 2638poe     o214366   1.102   2.027   0.587 -0.1607  0.1642  0.3097
 2638poe    c2314367   1.080   2.070   0.455 -0.3577  0.2252  0.3626
 2638poe    c2314368   1.053   2.221   0.438 -0.2114  0.2460  0.3208
 2638poe     o214369   0.944   2.259   0.519 -0.3365 -0.1564  0.3443
 2638poe    c2314370   0.878   2.384   0.513  0.4446  0.2472 -0.0027
 2638poe    c2314371   0.763   2.400   0.613  0.0599  0.0336 -0.4082
 2638poe     o214372   0.654   2.312   0.594  0.0260  0.0604 -0.3416
 2638poe    c2314373   0.562   2.326   0.699  0.1465 -0.0895 -0.2163
 2638poe    c2314374   0.468   2.204   0.691  0.4112 -0.2515 -0.8797
 2638poe     o214375   0.536   2.082   0.713  0.3701 -0.1785 -0.3514
 2638poe    c3114376   0.448   1.982   0.668 -0.4193  0.4100 -0.1396
 2639poe    c3114377   6.469   0.862   6.180 -0.3114  0.0347  0.0744
 2639poe     o214378   6.437   0.733   6.133 -0.2837 -0.1242  0.4860
 2639poe    c2314379   6.554   0.666   6.092 -0.3842 -0.0672  0.1046
 2639poe    c2314380   6.532   0.514   6.080  0.6337 -0.2228  0.1556
 2639poe     o214381   6.491   0.445   6.196 -0.1528 -0.2335 -0.1217
 2639poe    c2314382   6.351   0.457   6.210 -0.2173 -0.3515 -0.6674
 2639poe    c2314383   6.313   0.451   6.359  0.7010 -0.4673 -0.4317
 2639poe     o214384   6.325   0.317   6.402  0.4845 -0.1967  0.4778
 2639poe    c2314385   6.340   0.309   6.542  1.6416  0.0783  0.3807
 2639poe    c2314386   6.339   0.168   6.605 -0.0298 -0.0588  0.0794
 2639poe     o214387   6.455   0.091   6.583  0.3046  0.4116  0.1874
 2639poe    c3114388   6.446  -0.048   6.600  0.6501  0.3880  0.1796
 2640poe    c3114389   6.488   6.922   4.927 -0.1796 -0.3924 -0.0273
 2640poe     o214390   6.535   6.835   5.028  0.1465  0.2988  0.4192
 2640poe    c2314391   6.616   6.726   4.992 -0.5023 -0.1890  0.4256
 2640poe    c2314392   6.660   6.633   5.107  0.0617 -0.5528 -0.0810
 2640poe     o214393   6.544   6.586   5.172 -0.0684 -0.2170 -0.0688
 2640poe    c2314394   6.552   6.479   5.264 -0.2804 -0.0644  0.1263
 2640poe    c2314395   6.611   6.511   5.402 -0.4328 -0.6328  0.3242
 2640poe     o214396   6.519   6.593   5.470 -0.1612 -0.0910  0.0431
 2640poe    c2314397   6.571   6.633   5.595  0.4613  0.4218 -0.3712
 2640poe    c2314398   6.477   6.745   5.645 -0.2863 -0.3087 -0.1067
 2640poe     o214399   6.475   6.831   5.533 -0.6754 -0.3849 -0.1599
 2640poe    c3114400   6.437   6.957   5.585  0.4518 -0.4148  0.7772
 2641poe    c3114401   4.905   1.794   3.259  0.2765 -0.4813 -0.5110
 2641poe     o214402   4.927   1.717   3.142  0.0331 -0.3672 -0.6320
 2641poe    c2314403   4.942   1.812   3.039 -0.0105 -0.1858 -0.4721
 2641poe    c2314404   4.936   1.737   2.905  0.1410 -0.1274 -0.5112
 2641poe     o214405   5.028   1.635   2.938  0.0898  0.0738  0.2729
 2641poe    c2314406   5.079   1.577   2.820 -0.0306  0.4257  0.0469
 2641poe    c2314407   5.199   1.495   2.870 -0.6556 -0.4876  0.0698
 2641poe     o214408   5.155   1.396   2.961  0.4145 -0.4710  0.6234
 2641poe    c2314409   5.245   1.288   2.963  0.3852 -0.5061  0.1784
 2641poe    c2314410   5.196   1.202   3.082 -0.3007  0.2540  0.4552
 2641poe     o214411   5.215   1.273   3.202  0.2613  0.1668  0.4213
 2641poe    c3114412   5.181   1.186   3.308 -0.2739 -0.6848 -0.4315
 2642poe    c3114413   3.371   2.303   0.163 -0.6893 -0.2452 -0.3492
 2642poe     o214414   3.344   2.421   0.090  0.0242  0.3695  0.3529
 2642poe    c2314415   3.442   2.446  -0.007  1.1191 -0.1978  1.2920
 2642poe    c2314416   3.489   2.592  -0.012  0.0040  0.1477  0.4633
 2642poe     o214417   3.375   2.667  -0.048  0.0087 -0.0174  0.0997
 2642poe    c2314418   3.411   2.794  -0.097 -0.1787 -0.0568 -0.1414
 2642poe    c2314419   3.289   2.867  -0.156 -0.1238  0.3288  0.2172
 2642poe     o214420   3.190   2.902  -0.062 -0.5744  0.0282 -0.1415
 2642poe    c2314421   3.193   3.036  -0.017  0.0791  0.2250 -0.7532
 2642poe    c2314422   3.076   3.075   0.075  0.5677 -0.6916  0.2739
 2642poe     o214423   2.955   3.050   0.006  0.4405 -0.1957  0.3180
 2642poe    c3114424   2.861   3.141   0.059  0.3062 -0.2071  0.1005
 2643poe    c3114425   2.650   5.150   5.272  0.0809  0.4779  0.3805
 2643poe     o214426   2.600   5.168   5.141  0.3204 -0.5860  0.1383
 2643poe    c2314427   2.699   5.226   5.059 -0.3926 -0.0648 -0.3618
 2643poe    c2314428   2.635   5.278   4.929 -0.0626 -0.0527 -0.5218
 2643poe     o214429   2.544   5.184   4.875 -0.4373 -0.1490  0.2630
 2643poe    c2314430   2.479   5.238   4.763  0.1303 -0.1571 -0.0722
 2643poe    c2314431   2.451   5.126   4.661 -0.2620 -0.2531  0.1407
 2643poe     o214432   2.391   5.016   4.725  0.1116 -0.5490 -0.0180
 2643poe    c2314433   2.420   4.891   4.667  0.2052 -0.4980 -0.0811
 2643poe    c2314434   2.371   4.776   4.757  0.2513 -0.1793  0.3526
 2643poe     o214435   2.408   4.811   4.889  0.5282  0.1692  0.1836
 2643poe    c3114436   2.349   4.720   4.978  0.2550  0.0253 -0.1449
 2644poe    c3114437   4.294   2.980   5.847  0.5513  0.2347 -0.1975
 2644poe     o214438   4.401   2.896   5.809  0.4323  0.2713 -0.6146
 2644poe    c2314439   4.386   2.772   5.873  0.5458  0.4355 -0.2695
 2644poe    c2314440   4.492   2.676   5.816  0.1053 -0.1427 -0.1265
 2644poe     o214441   4.630   2.698   5.833  0.0901 -0.2617  0.1569
 2644poe    c2314442   4.685   2.584   5.772  0.3455 -0.2648  0.3920
 2644poe    c2314443   4.838   2.563   5.770  0.2048 -1.3103  0.1030
 2644poe     o214444   4.892   2.587   5.898  0.4292  0.6335 -0.3303
 2644poe    c2314445   5.030   2.559   5.901  0.2660 -0.1741 -0.0645
 2644poe    c2314446   5.099   2.665   5.989  0.2178 -0.1681 -0.0344
 2644poe     o214447   5.061   2.654   6.125  0.1076 -0.2048 -0.0675
 2644poe    c3114448   5.136   2.557   6.194  0.7048  0.0370 -0.3675
 2645poe    c3114449   5.141   1.660   2.287  0.2369  0.5535 -0.1486
 2645poe     o214450   5.272   1.700   2.321 -0.1475  1.4787  0.2794
 2645poe    c2314451   5.321   1.778   2.215 -0.0152  0.4981 -0.3932
 2645poe    c2314452   5.469   1.813   2.241 -0.1196  0.2938  0.4973
 2645poe     o214453   5.542   1.695   2.262 -0.4110  0.0133 -0.0502
 2645poe    c2314454   5.647   1.720   2.352 -0.2129 -0.3326 -0.1798
 2645poe    c2314455   5.752   1.610   2.376  0.5666  0.4796  0.2149
 2645poe     o214456   5.852   1.654   2.466  0.0044  0.4505  0.8621
 2645poe    c2314457   5.979   1.594   2.460 -0.4664 -0.5370  0.5100
 2645poe    c2314458   6.079   1.637   2.568  0.4096 -0.3297 -0.3645
 2645poe     o214459   6.132   1.768   2.565  0.0383 -0.1679 -0.0132
 2645poe    c3114460   6.268   1.756   2.531  0.1481  0.1845  0.3034
 2646poe    c3114461   1.182   2.508   1.966 -0.2402 -0.4800  0.2359
 2646poe     o214462   1.319   2.478   1.985 -0.1185 -0.2328 -0.2107
 2646poe    c2314463   1.356   2.399   2.097 -0.3316 -0.7892 -0.5261
 2646poe    c2314464   1.289   2.435   2.231  0.2662  0.0268 -0.4338
 2646poe     o214465   1.295   2.575   2.244  0.4281 -0.0251  0.0484
 2646poe    c2314466   1.191   2.618   2.329  0.1930 -0.1879 -0.1558
 2646poe    c2314467   1.224   2.750   2.401  0.2664 -0.1192 -0.3147
 2646poe     o214468   1.219   2.864   2.318  0.4252  0.0110 -0.1463
 2646poe    c2314469   1.230   2.988   2.384 -0.2611  0.2439 -0.4629
 2646poe    c2314470   1.150   3.112   2.340 -0.3336  0.1358 -0.6380
 2646poe     o214471   1.015   3.090   2.377 -0.3274  0.4593 -0.4157
 2646poe    c3114472   0.930   3.141   2.276 -0.5064 -0.2621 -0.6346
 2647poe    c3114473   5.694   3.376   5.850 -0.3595 -0.2805 -0.3189
 2647poe     o214474   5.659   3.240   5.845 -0.5547 -0.2487  0.1294
 2647poe    c2314475   5.566   3.231   5.740 -0.5269 -0.1648  0.0973
 2647poe    c2314476   5.542   3.082   5.706 -0.4181 -0.3263  0.7232
 2647poe     o214477   5.655   3.025   5.644 -0.8012  0.1445 -0.4248
 2647poe    c2314478   5.618   2.909   5.573 -0.0566 -0.0608 -0.4827
 2647poe    c2314479   5.735   2.816   5.532  0.0736 -0.3891  0.6020
 2647poe     o214480   5.837   2.893   5.474 -0.3644 -0.0670  0.2481
 2647poe    c2314481   5.933   2.815   5.406  0.0176  0.4038  0.2375
 2647poe    c2314482   6.046   2.909   5.360  0.3079  0.0931  0.3128
 2647poe     o214483   6.070   3.012   5.453 -0.2550  0.8465 -0.3615
 2647poe    c3114484   6.177   3.095   5.415  0.4114  0.0541 -0.2348
 2648poe    c3114485   6.363   1.802   3.081 -0.2360 -0.0516  0.2872
 2648poe     o214486   6.498   1.790   3.118 -0.3045 -0.1198  0.5217
 2648poe    c2314487   6.585   1.759   3.011 -0.0683 -0.0676  0.6983
 2648poe    c2314488   6.709   1.847   3.033  0.1350 -0.2534  0.3035
 2648poe     o214489   6.675   1.983   3.017 -0.0901 -0.3147  0.2627
 2648poe    c2314490   6.791   2.063   3.005 -0.0361 -0.5414 -0.7933
 2648poe    c2314491   6.770   2.215   3.018 -0.7894 -0.7093  0.1439
 2648poe     o214492   6.715   2.249   3.143 -0.3139  0.4946  0.0396
 2648poe    c2314493   6.722   2.386   3.175 -0.2099  0.4699  0.1241
 2648poe    c2314494   6.650   2.411   3.309 -0.1380  0.8313  0.0959
 2648poe     o214495   6.528   2.340   3.315  0.0893  0.3797 -0.5113
 2648poe    c3114496   6.417   2.426   3.324 -0.4144 -0.3213  0.0332
 2649poe    c3114497   5.206   3.722   0.736 -0.0898  0.3970 -0.1402
 2649poe     o214498   5.192   3.583   0.717  0.5467  0.3716 -0.4524
 2649poe    c2314499   5.319   3.523   0.723  0.6390  0.6046 -0.0509
 2649poe    c2314500   5.288   3.416   0.830 -0.4139  0.2524 -0.6949
 2649poe     o214501   5.157   3.365   0.832 -0.2069 -0.2766 -0.4790
 2649poe    c2314502   5.146   3.232   0.878 -0.0627  0.0889  0.6337
 2649poe    c2314503   5.000   3.198   0.846  0.0610  0.2079 -0.0631
 2649poe     o214504   4.951   3.263   0.731  0.4935  0.2414 -0.2314
 2649poe    c2314505   4.814   3.237   0.705  0.4780 -0.1693  0.2443
 2649poe    c2314506   4.737   3.322   0.602 -0.2895 -0.5260  0.5252
 2649poe     o214507   4.771   3.301   0.467 -1.1138 -0.4057  0.2910
 2649poe    c3114508   4.683   3.366   0.378 -0.5631  0.1474  0.1438
 2650poe    c3114509   0.968   1.668   0.174 -0.4860  0.3736  0.0616
 2650poe     o214510   0.911   1.794   0.147 -0.1800  0.4695 -0.1429
 2650poe    c2314511   0.972   1.840   0.029  0.4057  0.4587  0.1493
 2650poe    c2314512   0.897   1.971   0.000  0.6169  0.5032 -0.2039
 2650poe     o214513   0.761   1.935   0.011  0.7403  0.0626 -0.0928
 2650poe    c2314514   0.681   2.035  -0.050 -0.0313 -0.4732  0.0289
 2650poe    c2314515   0.544   1.969  -0.075 -0.0689 -0.3775 -0.0165
 2650poe     o214516   0.496   1.905   0.041 -0.3280 -0.2036 -0.0275
 2650poe    c2314517   0.362   1.873   0.012 -0.4542  0.2473  0.0585
 2650poe    c2314518   0.273   1.857   0.137 -0.3088 -0.2883  0.0934
 2650poe     o214519   0.302   1.740   0.210 -0.2899 -0.2390  0.1646
 2650poe    c3114520   0.216   1.715   0.319  0.5276 -0.4114  0.7783
 2651poe    c3114521   2.534   5.245   3.731 -0.8560  0.0907 -0.3569
 2651poe     o214522   2.608   5.308   3.630 -0.0960  0.0438  0.1640
 2651poe    c2314523   2.738   5.355   3.661  0.1640 -0.3066 -0.3812
 2651poe    c2314524   2.788   5.426   3.534 -0.3540 -0.1411 -0.4956
 2651poe     o214525   2.748   5.561   3.526  0.2180  0.0904  0.4231
 2651poe    c2314526   2.778   5.613   3.398  0.0898 -0.2131  0.2694
 2651poe    c2314527   2.684   5.727   3.356  0.1369 -0.2108  0.1718
 2651poe     o214528   2.551   5.683   3.336  0.0563  0.2024 -0.2246
 2651poe    c2314529   2.460   5.789   3.315 -0.3681 -0.1744 -0.2981
 2651poe    c2314530   2.349   5.730   3.226 -0.3570 -0.0536 -0.3913
 2651poe     o214531   2.380   5.756   3.091 -0.1561 -0.2521 -0.3840
 2651poe    c3114532   2.437   5.649   3.018  0.8628  0.4418 -0.6194
 2652poe    c3114533   5.811   5.521   1.133  0.3968 -0.9170 -0.8657
 2652poe     o214534   5.699   5.435   1.128 -0.3618 -0.0097 -0.0867
 2652poe    c2314535   5.606   5.469   1.228 -0.4665  0.0095 -0.1911
 2652poe    c2314536   5.457   5.431   1.219 -0.5594  0.3347 -0.0351
 2652poe     o214537   5.462   5.290   1.222  0.6019  0.3686  0.0826
 2652poe    c2314538   5.335   5.240   1.187  0.4554  0.0628  1.0188
 2652poe    c2314539   5.366   5.091   1.170  0.1541  0.0682  0.4029
 2652poe     o214540   5.430   5.049   1.051  0.1527  0.1620  0.3697
 2652poe    c2314541   5.330   5.016   0.957  0.7378 -0.4652 -0.0391
 2652poe    c2314542   5.370   4.952   0.823  0.7549 -0.0339 -0.2415
 2652poe     o214543   5.463   4.847   0.841 -0.0221 -0.6165  0.4584
 2652poe    c3114544   5.508   4.834   0.708  0.2866  0.4374  0.4481
 2653poe    c3114545   7.009   2.998   1.059 -0.4415  0.1385 -1.1245
 2653poe     o214546   7.099   3.093   1.006  0.2151  0.0615 -0.1744
 2653poe    c2314547   7.037   3.182   0.915 -0.3161 -0.1566 -0.0342
 2653poe    c2314548   7.133   3.300   0.891 -0.2022 -0.1596  0.3901
 2653poe     o214549   7.261   3.244   0.879  0.1188  0.5805  0.2772
 2653poe    c2314550   7.342   3.313   0.787  0.1196  0.3315  0.0899
 2653poe    c2314551   7.490   3.278   0.812  0.0094  0.0411  0.3399
 2653poe     o214552   7.520   3.144   0.842  0.2497  0.0834  0.2870
 2653poe    c2314553   7.657   3.114   0.856  0.1989 -0.1960  0.2123
 2653poe    c2314554   7.695   2.977   0.915 -0.2279 -0.0577  0.8187
 2653poe     o214555   7.643   2.873   0.834  0.0076  0.2435  0.2747
 2653poe    c3114556   7.707   2.748   0.841 -0.4226 -0.0019 -0.1288
 2654poe    c3114557   0.031   5.735   2.527 -0.2142  0.0069  0.2642
 2654poe     o214558   0.120   5.631   2.560 -0.4097 -0.0933  0.4804
 2654poe    c2314559   0.140   5.603   2.697 -0.0591 -0.6343  0.3239
 2654poe    c2314560   0.030   5.517   2.761 -0.2164 -0.0793  0.8080
 2654poe     o214561  -0.001   5.384   2.725 -0.5232  0.2302 -0.1019
 2654poe    c2314562  -0.057   5.341   2.848  0.2706 -0.6200 -0.0248
 2654poe    c2314563  -0.050   5.188   2.836  0.9283 -0.5910 -0.0471
 2654poe     o214564  -0.097   5.162   2.706  1.0712 -0.2846 -0.1621
 2654poe    c2314565  -0.094   5.025   2.673 -0.5576 -0.2177 -0.6685
 2654poe    c2314566  -0.185   5.006   2.550 -0.5045 -0.0229 -0.7382
 2654poe     o214567  -0.122   5.101   2.467 -0.3448 -0.0254 -0.6205
 2654poe    c3114568  -0.153   5.084   2.330 -0.1113  0.2487 -0.7091
 2655poe    c3114569   4.725   7.068   6.216  0.0836  0.3922  0.5174
 2655poe     o214570   4.819   7.167   6.183  0.0665  0.0630 -0.5963
 2655poe    c2314571   4.943   7.120   6.232 -0.2425 -0.2231 -0.0816
 2655poe    c2314572   5.045   7.220   6.174 -0.3829 -0.1838 -0.2593
 2655poe     o214573   4.995   7.350   6.157 -0.2787 -0.0694  0.3009
 2655poe    c2314574   5.100   7.442   6.141  0.1710 -0.6754 -0.2734
 2655poe    c2314575   5.033   7.578   6.112  0.3346 -0.5861 -0.2378
 2655poe     o214576   4.962   7.637   6.218  0.6639 -0.2120 -0.2227
 2655poe    c2314577   4.875   7.740   6.176  0.7140  0.0793  0.3861
 2655poe    c2314578   4.805   7.812   6.293  0.4337 -0.0267  0.2846
 2655poe     o214579   4.761   7.723   6.394  0.8306 -0.0120  0.4737
 2655poe    c3114580   4.682   7.797   6.484  0.6434 -0.2392  0.4991
 2656poe    c3114581   7.187   3.933   4.748  0.5754  0.1729 -0.1021
 2656poe     o214582   7.278   3.940   4.856  0.3263  0.0236  0.1167
 2656poe    c2314583   7.381   3.845   4.840 -0.0541 -0.3427 -0.1918
 2656poe    c2314584   7.457   3.811   4.969 -0.0623 -0.6970 -0.2790
 2656poe     o214585   7.374   3.754   5.067 -0.1028 -0.0534  0.0601
 2656poe    c2314586   7.449   3.740   5.186 -0.2259 -0.2999  0.1103
 2656poe    c2314587   7.360   3.752   5.311 -0.1125  0.5274  0.1156
 2656poe     o214588   7.293   3.875   5.330 -0.1691  0.5158 -0.0056
 2656poe    c2314589   7.244   3.877   5.462 -0.3936  0.2889 -0.0840
 2656poe    c2314590   7.184   4.013   5.503 -0.4019  0.1238  0.4648
 2656poe     o214591   7.267   4.128   5.499  0.5101 -0.5397 -0.0352
 2656poe    c3114592   7.220   4.217   5.598 -0.1307 -0.5828 -0.2959
 2657poe    c3114593   2.987   4.531   5.415  0.0748 -0.3120  0.0736
 2657poe     o214594   3.076   4.445   5.349  0.3678  0.1918 -0.1922
 2657poe    c2314595   3.211   4.461   5.387  0.3654 -0.0863 -0.0598
 2657poe    c2314596   3.294   4.332   5.376 -0.2120 -0.4409 -0.2796
 2657poe     o214597   3.237   4.240   5.466  0.0744 -0.2047  0.1449
 2657poe    c2314598   3.325   4.131   5.478  0.1764 -0.1020  0.3461
 2657poe    c2314599   3.263   4.003   5.537 -0.3223 -0.1184 -0.2027
 2657poe     o214600   3.148   3.948   5.476 -0.2588 -0.2782 -0.1785
 2657poe    c2314601   3.085   3.840   5.542 -0.6087  0.2180  0.3090
 2657poe    c2314602   2.946   3.813   5.482 -0.2024 -0.6557 -0.2604
 2657poe     o214603   2.871   3.922   5.434  0.5035 -0.0804 -0.0808
 2657poe    c3114604   2.742   3.877   5.398  0.5457  0.2164 -0.6267
 2658poe    c3114605   3.917   1.777   1.233  0.3056 -0.0968 -0.2282
 2658poe     o214606   3.942   1.825   1.103  0.2513 -0.0751 -0.2309
 2658poe    c2314607   4.048   1.755   1.042  0.5707  0.0303  0.1955
 2658poe    c2314608   4.118   1.829   0.926 -0.1347  0.2492 -0.0958
 2658poe     o214609   4.219   1.925   0.948  0.1564 -0.0223 -0.2455
 2658poe    c2314610   4.291   1.932   1.069  0.4517 -0.1313 -0.4135
 2658poe    c2314611   4.344   2.066   1.124 -0.1028 -0.1109  0.0800
 2658poe     o214612   4.235   2.138   1.176 -0.0697  0.2768 -0.3920
 2658poe    c2314613   4.263   2.275   1.197 -0.3957  0.3125 -0.1880
 2658poe    c2314614   4.133   2.338   1.251 -0.5030 -0.5225  0.5564
 2658poe     o214615   4.016   2.340   1.173 -0.2744  0.3364  0.2211
 2658poe    c3114616   3.983   2.476   1.154 -0.3730  0.3649  0.5750
 2659poe    c3114617   7.229   3.910   6.388 -0.1270  0.2774 -1.1297
 2659poe     o214618   7.340   3.983   6.343  0.1090  0.6845  0.0640
 2659poe    c2314619   7.389   4.081   6.432  0.0096  0.3802  0.4576
 2659poe    c2314620   7.523   4.132   6.377  0.0186 -0.0641  0.0626
 2659poe     o214621   7.499   4.130   6.238  0.1820  0.3374  0.0290
 2659poe    c2314622   7.557   4.244   6.178 -0.5491  0.7981  0.1847
 2659poe    c2314623   7.592   4.242   6.028 -0.5773 -0.4930  0.1900
 2659poe     o214624   7.648   4.118   5.989  0.2743  0.1025 -0.5200
 2659poe    c2314625   7.686   4.124   5.853 -0.3471 -0.2410 -0.7123
 2659poe    c2314626   7.714   3.979   5.809  0.5525 -0.4276  0.4313
 2659poe     o214627   7.603   3.894   5.824  0.2926 -0.2161 -0.2335
 2659poe    c3114628   7.624   3.770   5.762 -0.6299  0.1556 -1.3101
 2660poe    c3114629   6.326   0.951   3.477 -0.1446 -0.4943 -0.1354
 2660poe     o214630   6.276   0.870   3.374 -0.3393 -0.3779 -0.1331
 2660poe    c2314631   6.207   0.765   3.438 -0.4046  0.1310  0.6427
 2660poe    c2314632   6.182   0.641   3.350  0.0728  0.2898  0.2767
 2660poe     o214633   6.080   0.652   3.252  0.1913 -0.0520  0.1153
 2660poe    c2314634   6.045   0.541   3.172  0.0771 -0.5476  0.8435
 2660poe    c2314635   6.129   0.500   3.050 -0.0229  0.1279  0.5414
 2660poe     o214636   6.128   0.597   2.948 -0.6847 -0.3036  0.1290
 2660poe    c2314637   6.226   0.568   2.851 -0.2926  0.2560  0.3539
 2660poe    c2314638   6.250   0.689   2.758  0.5025 -0.3194 -0.2083
 2660poe     o214639   6.287   0.806   2.827 -0.3487  0.0313 -0.3284
 2660poe    c3114640   6.330   0.899   2.730  0.3655  0.1452  0.0858
 2661poe    c3114641   2.392   4.953   2.631 -0.0894  0.3714 -0.9074
 2661poe     o214642   2.517   4.926   2.691 -0.3062  0.4923 -0.3977
 2661poe    c2314643   2.616   4.994   2.618 -0.0214  0.1444 -0.3353
 2661poe    c2314644   2.762   4.949   2.637 -0.1283 -0.0574  0.0198
 2661poe     o214645   2.826   4.992   2.755 -0.1681 -0.0765  0.0487
 2661poe    c2314646   2.950   4.926   2.763 -0.1508 -0.0668 -0.1244
 2661poe    c2314647   3.036   4.995   2.870 -0.2040  0.0231 -0.1396
 2661poe     o214648   2.943   4.996   2.976  0.1516 -0.3759  0.1803
 2661poe    c2314649   2.999   5.074   3.078  0.0251  0.3196 -0.2697
 2661poe    c2314650   2.879   5.084   3.174 -0.1969 -0.9171 -0.3966
 2661poe     o214651   2.766   5.123   3.099 -0.2394 -0.7706 -0.2568
 2661poe    c3114652   2.671   5.168   3.194  0.4164  0.7212 -0.2871
 2662poe    c3114653   5.311   6.616   1.476  0.3578  0.0467  0.6761
 2662poe     o214654   5.171   6.598   1.484  0.1782  0.9021 -0.3229
 2662poe    c2314655   5.111   6.677   1.384 -0.0019  0.4678 -0.5602
 2662poe    c2314656   4.965   6.629   1.385 -0.0801  0.7083 -0.0403
 2662poe     o214657   4.882   6.680   1.487 -0.1927  0.3047  0.0700
 2662poe    c2314658   4.758   6.613   1.480 -0.1559  0.2430 -0.0064
 2662poe    c2314659   4.664   6.667   1.590 -0.1038 -0.1957  0.2557
 2662poe     o214660   4.730   6.690   1.712 -0.2948  0.6110  0.2103
 2662poe    c2314661   4.661   6.747   1.822 -0.2569  0.2940  0.3997
 2662poe    c2314662   4.753   6.716   1.942  0.1996 -1.0936 -0.2745
 2662poe     o214663   4.892   6.729   1.921  0.1667  0.0980  0.1768
 2662poe    c3114664   4.962   6.691   2.037  0.3059 -1.1043 -0.2930
 2663poe    c3114665   5.026   4.496   3.182 -0.3942 -0.0564  0.1239
 2663poe     o214666   5.135   4.565   3.125 -0.0957 -0.7244 -0.1204
 2663poe    c2314667   5.110   4.661   3.025 -0.1134  0.3189  0.8657
 2663poe    c2314668   5.231   4.740   2.973 -0.7580  0.5921 -0.2529
 2663poe     o214669   5.275   4.701   2.844  0.2509  0.0696  0.2391
 2663poe    c2314670   5.399   4.760   2.814  0.2652  0.1787  0.5103
 2663poe    c2314671   5.449   4.690   2.686 -0.5731 -0.2536  0.4140
 2663poe     o214672   5.396   4.737   2.564  0.4341 -0.0064  0.0650
 2663poe    c2314673   5.414   4.636   2.467 -0.2181 -0.0363 -0.0259
 2663poe    c2314674   5.306   4.649   2.357  0.0483 -0.2197 -0.3140
 2663poe     o214675   5.306   4.781   2.309  0.7048  0.0436  0.3783
 2663poe    c3114676   5.207   4.801   2.210  0.5576  0.3825  0.5922
 2664poe    c3114677   1.195   0.226   4.604 -0.1710  0.3534  0.2667
 2664poe     o214678   1.187   0.195   4.467  0.4701  0.3666  0.2247
 2664poe    c2314679   1.050   0.178   4.441  0.3830  1.0305  0.2337
 2664poe    c2314680   0.981   0.293   4.365 -0.2014  0.3977 -0.2038
 2664poe     o214681   0.980   0.403   4.453  0.4108  0.5004 -0.3233
 2664poe    c2314682   0.891   0.492   4.391  0.0297  0.6346  0.4073
 2664poe    c2314683   0.975   0.593   4.311 -0.2039  0.3798 -0.1659
 2664poe     o214684   1.028   0.701   4.385 -1.0159  0.5997  0.1012
 2664poe    c2314685   1.085   0.802   4.305  0.3044 -0.1532  0.0651
 2664poe    c2314686   1.080   0.936   4.382 -0.1699  0.0544 -0.3261
 2664poe     o214687   1.102   0.911   4.519 -0.6577  0.3104 -0.1975
 2664poe    c3114688   1.157   1.022   4.587  0.1337 -0.0211 -0.2839
 2665poe    c3114689   2.793   6.486   6.242 -0.4940  0.5303  0.1942
 2665poe     o214690   2.695   6.385   6.242 -0.4016  0.4415  0.0924
 2665poe    c2314691   2.697   6.314   6.364 -0.3386 -0.4517 -0.4156
 2665poe    c2314692   2.613   6.188   6.335 -0.0293 -0.6799 -0.3135
 2665poe     o214693   2.513   6.208   6.238  0.1720  0.0938 -0.3641
 2665poe    c2314694   2.426   6.097   6.232 -0.4003  0.5210 -0.0972
 2665poe    c2314695   2.293   6.133   6.163 -0.4842 -0.2202 -0.3291
 2665poe     o214696   2.245   6.247   6.231 -0.2449 -0.4487  0.2283
 2665poe    c2314697   2.120   6.279   6.175 -0.0279 -0.1997 -0.1133
 2665poe    c2314698   2.101   6.432   6.184 -0.6342 -0.2745 -0.0876
 2665poe     o214699   2.100   6.483   6.316  0.8630  0.6461 -0.4074
 2665poe    c3114700   2.031   6.606   6.330  0.1996  0.2551 -0.2032
 2666poe    c3114701   2.997   7.007   3.567  0.3042 -0.2329 -0.5311
 2666poe     o214702   2.991   6.875   3.618 -0.3302 -0.1754 -0.4578
 2666poe    c2314703   3.120   6.828   3.645 -0.0490  0.8263  0.0213
 2666poe    c2314704   3.084   6.703   3.727  0.4392  0.3184 -0.5220
 2666poe     o214705   2.983   6.633   3.659  0.1192  0.3130 -0.0503
 2666poe    c2314706   2.918   6.557   3.758 -0.1610  0.1074 -0.3912
 2666poe    c2314707   2.796   6.478   3.706 -0.2801  0.0861 -0.0808
 2666poe     o214708   2.758   6.541   3.586 -0.3408 -0.2921 -0.2621
 2666poe    c2314709   2.651   6.471   3.527 -0.4553 -0.2471 -0.1085
 2666poe    c2314710   2.578   6.550   3.417  0.6676  0.7132 -0.1822
 2666poe     o214711   2.474   6.633   3.464 -0.4453 -0.5940 -0.2781
 2666poe    c3114712   2.450   6.714   3.351  0.2364 -0.2897 -0.2106
 2667poe    c3114713   3.347   1.520   3.705  0.1103 -0.5449  0.8016
 2667poe     o214714   3.220   1.463   3.681 -0.0377  0.1816 -0.2330
 2667poe    c2314715   3.225   1.385   3.564  0.2061  0.3644 -0.3456
 2667poe    c2314716   3.178   1.239   3.572 -0.0595  0.4629 -0.0892
 2667poe     o214717   3.038   1.224   3.558 -0.0268 -0.4387  0.4867
 2667poe    c2314718   3.018   1.085   3.542 -0.4315 -0.3084 -0.1964
 2667poe    c2314719   2.875   1.030   3.554 -0.6854  0.3280 -0.2981
 2667poe     o214720   2.838   0.993   3.685  0.4907 -0.0149 -0.0511
 2667poe    c2314721   2.839   0.855   3.716 -0.1770  0.0909  0.4722
 2667poe    c2314722   2.742   0.752   3.656 -0.0398  0.0904  0.2482
 2667poe     o214723   2.605   0.757   3.692 -0.2316 -0.0137 -0.4418
 2667poe    c3114724   2.552   0.634   3.736  0.6067 -0.4323 -0.5763
 2668poe    c3114725   3.248   4.411   3.942 -0.2956 -0.0069  0.0782
 2668poe     o214726   3.371   4.387   3.877 -0.4482 -0.0290 -0.2052
 2668poe    c2314727   3.379   4.258   3.820  0.9162 -0.3613  0.6895
 2668poe    c2314728   3.511   4.235   3.745  0.8222  0.1015  0.3786
 2668poe     o214729   3.526   4.319   3.633  0.2328 -0.1246  0.1310
 2668poe    c2314730   3.491   4.243   3.519  0.1234  0.0381  0.0550
 2668poe    c2314731   3.528   4.308   3.384 -0.4316  0.3115  0.0329
 2668poe     o214732   3.667   4.330   3.379 -0.4597  0.4619 -0.0843
 2668poe    c2314733   3.703   4.378   3.252 -0.2634 -0.3997 -0.3639
 2668poe    c2314734   3.699   4.530   3.226 -0.7100 -0.3093  0.2315
 2668poe     o214735   3.568   4.583   3.215 -0.3217  0.6471  0.1620
 2668poe    c3114736   3.526   4.568   3.081  0.3062 -0.9559  0.1311
 2669poe    c3114737   2.419   0.531   2.345  0.0624 -0.4805 -0.3418
 2669poe     o214738   2.462   0.615   2.450  0.2544 -0.2979 -0.5630
 2669poe    c2314739   2.541   0.718   2.395  0.6611 -0.2356  0.1226
 2669poe    c2314740   2.546   0.853   2.469  0.2447 -0.2851  0.2475
 2669poe     o214741   2.642   0.854   2.573  0.2324 -0.1979  0.2577
 2669poe    c2314742   2.571   0.827   2.692 -0.2302  0.1414  0.0629
 2669poe    c2314743   2.482   0.933   2.759 -0.7954 -0.1090 -0.2820
 2669poe     o214744   2.542   1.059   2.779 -0.0696 -0.4440 -0.3204
 2669poe    c2314745   2.651   1.052   2.868 -0.5615  0.2563  0.3499
 2669poe    c2314746   2.723   1.188   2.865  0.0132 -0.0562 -0.1770
 2669poe     o214747   2.814   1.191   2.757 -0.0604  0.1037 -0.2347
 2669poe    c3114748   2.903   1.290   2.803 -0.1744  0.0810  0.0333
 2670poe    c3114749   0.892   2.807   3.150 -0.2341  0.2407  0.0645
 2670poe     o214750   0.773   2.749   3.101 -0.3678  0.0352  0.6358
 2670poe    c2314751   0.655   2.771   3.175 -0.5845 -0.1220  0.3369
 2670poe    c2314752   0.599   2.660   3.266  0.1833 -0.7252  0.0844
 2670poe     o214753   0.496   2.707   3.350  0.0987  0.0111 -0.4213
 2670poe    c2314754   0.547   2.778   3.461 -0.9416 -0.6482  0.4995
 2670poe    c2314755   0.437   2.839   3.550  0.0149  1.0846  0.5306
 2670poe     o214756   0.415   2.778   3.675 -0.4331 -0.1071 -0.1047
 2670poe    c2314757   0.292   2.819   3.730 -0.2571  0.1925  0.0705
 2670poe    c2314758   0.309   2.819   3.883 -0.6078  0.4406  0.1119
 2670poe     o214759   0.386   2.928   3.930  0.1770  0.1262 -0.4144
 2670poe    c3114760   0.520   2.889   3.950 -0.0529 -0.5596 -0.1707
 2671poe    c3114761   1.752   0.261   4.976 -0.2472  0.6272  0.4713
 2671poe     o214762   1.705   0.260   4.843 -0.2199  0.3064  0.4639
 2671poe    c2314763   1.599   0.170   4.822  0.2064 -0.0440 -0.2159
 2671poe    c2314764   1.593   0.140   4.671  0.1646 -0.1207 -0.1990
 2671poe     o214765   1.650   0.255   4.613 -0.1415 -0.0400 -0.3427
 2671poe    c2314766   1.679   0.230   4.478 -0.3772 -0.0223 -0.3957
 2671poe    c2314767   1.722   0.360   4.409 -0.1432  0.0905 -0.0358
 2671poe     o214768   1.856   0.403   4.424 -0.2698  0.3188  0.4491
 2671poe    c2314769   1.874   0.513   4.339  0.7522 -0.6098 -0.5601
 2671poe    c2314770   2.008   0.570   4.391  0.2694  0.2387 -0.2232
 2671poe     o214771   1.993   0.601   4.527  0.0216 -0.3681 -0.1061
 2671poe    c3114772   2.093   0.689   4.575 -0.1978  0.3009 -0.8548
 2672poe    c3114773   1.806   7.149   0.920 -0.1716  0.5715  0.3952
 2672poe     o214774   1.678   7.102   0.954 -0.2183  0.3163 -0.1109
 2672poe    c2314775   1.576   7.196   0.928 -0.2291  0.3171 -0.0679
 2672poe    c2314776   1.442   7.157   0.993 -0.0138  0.4518  0.4555
 2672poe     o214777   1.449   7.148   1.134  0.0881 -0.2770  0.4080
 2672poe    c2314778   1.319   7.117   1.179  0.0790 -0.0090  0.5680
 2672poe    c2314779   1.326   7.060   1.322  0.2095  0.3625  0.7087
 2672poe     o214780   1.433   6.970   1.344 -0.4247 -0.4663  0.4269
 2672poe    c2314781   1.424   6.917   1.474 -0.4062  0.1211  0.6737
 2672poe    c2314782   1.527   6.802   1.477 -0.4683  0.0387 -0.1866
 2672poe     o214783   1.646   6.847   1.416 -0.3794 -0.1473 -0.1502
 2672poe    c3114784   1.730   6.749   1.358 -0.4381 -0.0558 -0.3912
 2673poe    c3114785   0.608   1.110   0.308  0.6185 -0.3576 -0.0833
 2673poe     o214786   0.552   1.054   0.425 -0.2469 -0.1058 -0.3676
 2673poe    c2314787   0.634   1.048   0.539 -0.4057  0.1090 -0.2420
 2673poe    c2314788   0.585   0.961   0.656 -0.1802 -0.4879 -0.5902
 2673poe     o214789   0.453   0.990   0.697 -0.0354 -0.8261  0.1282
 2673poe    c2314790   0.429   0.934   0.825 -0.0157 -0.5560  0.2498
 2673poe    c2314791   0.341   1.019   0.918  0.0325  0.5582 -0.6912
 2673poe     o214792   0.224   1.054   0.846 -0.5697 -0.3765 -0.1917
 2673poe    c2314793   0.131   1.119   0.929 -0.5140 -0.6424  0.0818
 2673poe    c2314794   0.048   1.220   0.847  0.0955  0.1746  0.4568
 2673poe     o214795  -0.004   1.161   0.731  0.0167  0.9035  0.1149
 2673poe    c3114796  -0.048   1.264   0.646  0.3676  0.1997 -0.9551
 2674poe    c3114797   2.654   1.815   5.874 -0.4952  0.1177 -0.7177
 2674poe     o214798   2.616   1.693   5.931  0.4395 -0.0309 -0.3932
 2674poe    c2314799   2.650   1.576   5.859 -0.0393 -0.4976  0.1297
 2674poe    c2314800   2.674   1.464   5.962  0.0809 -0.0101  0.6364
 2674poe     o214801   2.542   1.420   5.986  0.0176 -0.4537 -0.4968
 2674poe    c2314802   2.539   1.293   6.048 -0.5553 -0.5489 -0.7157
 2674poe    c2314803   2.401   1.266   6.111 -0.4321  0.6368  0.1048
 2674poe     o214804   2.289   1.263   6.026 -0.2095 -0.1788 -0.1722
 2674poe    c2314805   2.178   1.237   6.110 -0.3027  0.4095 -0.1074
 2674poe    c2314806   2.051   1.269   6.029 -0.1114  0.0496 -0.5621
 2674poe     o214807   2.072   1.391   5.962 -0.0214 -0.1965 -0.9826
 2674poe    c3114808   1.953   1.463   5.942 -0.4006 -0.5578 -0.0751
 2675poe    c3114809   0.515   6.395   6.003  0.3327  0.1870 -0.4040
 2675poe     o214810   0.468   6.469   6.113  0.4148  0.3036 -0.4480
 2675poe    c2314811   0.459   6.609   6.101 -0.2470  0.2840 -0.2003
 2675poe    c2314812   0.315   6.652   6.067 -0.0912  0.2824 -0.8898
 2675poe     o214813   0.216   6.640   6.167  0.2347  0.5718 -0.5287
 2675poe    c2314814   0.084   6.645   6.118 -0.0466 -0.3369  0.0965
 2675poe    c2314815  -0.016   6.635   6.235 -0.3410 -0.2570 -0.1462
 2675poe     o214816  -0.009   6.511   6.302 -0.7859 -0.2367 -0.0600
 2675poe    c2314817  -0.014   6.535   6.441 -0.3298 -0.0008 -0.0806
 2675poe    c2314818   0.010   6.416   6.536 -0.4686  0.1316  0.1185
 2675poe     o214819   0.145   6.379   6.542 -0.3700  0.4262 -0.2465
 2675poe    c3114820   0.162   6.240   6.565  0.0136  0.4596 -0.3145
 2676poe    c3114821   0.011   5.119   6.966  0.1545 -0.0868  0.3470
 2676poe     o214822   0.102   5.059   7.055  0.1145 -0.4102  0.1744
 2676poe    c2314823   0.069   5.062   7.192 -0.7895  0.4381 -0.0479
 2676poe    c2314824  -0.048   4.971   7.235 -0.0962 -0.1148  0.6899
 2676poe     o214825  -0.015   4.834   7.246  0.0346 -0.1676 -0.3065
 2676poe    c2314826  -0.116   4.752   7.300 -0.1530  0.2792  0.0300
 2676poe    c2314827  -0.067   4.608   7.276 -0.1326  0.2429  0.2845
 2676poe     o214828   0.073   4.593   7.290 -0.1695 -0.0768  0.3193
 2676poe    c2314829   0.116   4.464   7.252 -0.4006 -0.0269 -0.1133
 2676poe    c2314830   0.242   4.443   7.338 -0.2681 -0.4311 -0.4018
 2676poe     o214831   0.320   4.560   7.326 -0.3820 -0.3042  0.0648
 2676poe    c3114832   0.442   4.554   7.395 -0.1224  1.0081 -0.2581
 2677poe    c3114833   0.215   3.792   6.915 -0.4104  0.5762  0.3673
 2677poe     o214834   0.202   3.797   7.055 -0.0532 -0.4049  0.4383
 2677poe    c2314835   0.259   3.915   7.107  0.3660 -0.3746 -0.0819
 2677poe    c2314836   0.198   3.929   7.248 -0.2919 -0.4648 -0.3551
 2677poe     o214837   0.209   3.809   7.321 -0.4312 -0.2299  0.0546
 2677poe    c2314838   0.189   3.828   7.459  0.3234  0.2751  0.1034
 2677poe    c2314839   0.178   3.687   7.519  0.3397  0.3031  0.1718
 2677poe     o214840   0.254   3.602   7.437  0.1390  0.4272 -0.1440
 2677poe    c2314841   0.286   3.478   7.496  0.1428  0.3705 -0.2640
 2677poe    c2314842   0.311   3.368   7.392  0.1593 -0.3132  0.4547
 2677poe     o214843   0.421   3.365   7.305 -0.3451  0.3678 -0.2188
 2677poe    c3114844   0.398   3.252   7.224 -0.3837 -0.2695  0.6738
 2678poe    c3114845   0.088   6.027   5.204 -0.2465 -0.2474  0.7799
 2678poe     o214846  -0.009   5.925   5.186 -0.4023 -0.0207  0.3457
 2678poe    c2314847  -0.065   5.926   5.057  0.0415  0.0389  0.1492
 2678poe    c2314848  -0.122   5.785   5.028  0.3596 -0.1444  0.4099
 2678poe     o214849  -0.199   5.750   5.140 -0.0673 -0.5300 -0.0044
 2678poe    c2314850  -0.289   5.643   5.116 -0.0430 -0.5745  0.1018
 2678poe    c2314851  -0.372   5.612   5.242 -0.3002  0.0717  0.0971
 2678poe     o214852  -0.277   5.575   5.339  0.0277  0.4132 -0.0915
 2678poe    c2314853  -0.338   5.511   5.449  0.3636 -0.3642 -0.3494
 2678poe    c2314854  -0.235   5.485   5.561  0.0863  0.2992  0.0637
 2678poe     o214855  -0.131   5.397   5.526  0.5447  0.8589  0.0086
 2678poe    c3114856  -0.061   5.360   5.643  0.1167 -0.0631 -0.0174
 2679poe    c3114857   5.118   0.343   6.503 -0.0034  0.6805 -0.2710
 2679poe     o214858   5.240   0.292   6.454  0.0095  0.1838  0.2719
 2679poe    c2314859   5.342   0.282   6.552  0.5984  0.2654 -0.3268
 2679poe    c2314860   5.455   0.197   6.492  0.5493  0.1352 -0.2342
 2679poe     o214861   5.551   0.266   6.415  0.4362  0.5649  0.0077
 2679poe    c2314862   5.507   0.278   6.281  0.0138 -0.0099  0.0884
 2679poe    c2314863   5.566   0.392   6.195 -0.1222  0.2772  0.3722
 2679poe     o214864   5.706   0.374   6.206 -0.0871  0.0345 -0.3804
 2679poe    c2314865   5.773   0.433   6.097 -0.5826 -0.5620 -1.0182
 2679poe    c2314866   5.916   0.375   6.098 -0.4007 -0.1576  0.6637
 2679poe     o214867   5.907   0.238   6.064 -0.3707  0.0093 -0.0453
 2679poe    c3114868   6.020   0.164   6.105 -0.5084  0.0227  0.3676
 2680poe    c3114869   5.838   3.337   3.737 -0.0077 -0.1499 -0.4698
 2680poe     o214870   5.968   3.386   3.761 -0.0421 -0.3487  0.1452
 2680poe    c2314871   5.956   3.503   3.840  0.3225 -0.6113  0.5952
 2680poe    c2314872   6.091   3.556   3.891  0.2125 -0.1388  0.3996
 2680poe     o214873   6.120   3.469   3.998 -0.5571 -0.4967  0.3236
 2680poe    c2314874   6.206   3.524   4.095  0.1386 -0.1756 -0.4590
 2680poe    c2314875   6.253   3.435   4.211 -0.2041  0.1253 -0.0841
 2680poe     o214876   6.354   3.341   4.180 -0.0106  0.3914 -0.2605
 2680poe    c2314877   6.323   3.225   4.254  0.3685  0.4694  0.0272
 2680poe    c2314878   6.411   3.101   4.232 -0.5986 -0.2138 -0.1018
 2680poe     o214879   6.428   3.073   4.095 -0.5036 -0.4123 -0.0510
 2680poe    c3114880   6.519   2.968   4.070 -0.0018  0.0587 -0.2325
 2681poe    c3114881   4.845   6.591   6.846  0.3080  0.2390  0.1002
 2681poe     o214882   4.770   6.529   6.745  0.2631 -0.5152  0.5861
 2681poe    c2314883   4.634   6.555   6.774  0.2235 -0.5848  0.4658
 2681poe    c2314884   4.531   6.536   6.661  0.3542 -0.0755  0.2555
 2681poe     o214885   4.538   6.396   6.643  0.3968 -0.0125 -0.2049
 2681poe    c2314886   4.425   6.347   6.574  0.3997 -0.1993 -0.0766
 2681poe    c2314887   4.430   6.195   6.550  0.3785 -0.2600  0.2916
 2681poe     o214888   4.517   6.175   6.441 -0.0410  0.5240 -0.2000
 2681poe    c2314889   4.550   6.038   6.430  0.2623  0.5557  0.3059
 2681poe    c2314890   4.615   5.993   6.298  0.0577  0.4161  0.2513
 2681poe     o214891   4.722   6.085   6.282  0.4398 -0.0737 -0.0486
 2681poe    c3114892   4.808   6.037   6.181  0.0320  0.2539 -0.5552
 2682poe    c3114893   1.291   1.243   5.625 -0.1348  0.4462 -0.2844
 2682poe     o214894   1.258   1.109   5.653 -0.0240  0.5411  0.3231
 2682poe    c2314895   1.269   1.079   5.790 -0.2885  0.1092  0.2530
 2682poe    c2314896   1.246   0.928   5.810 -0.3530  0.1302  0.3373
 2682poe     o214897   1.156   0.875   5.715  0.6980  0.0681 -0.6519
 2682poe    c2314898   1.167   0.734   5.717  0.7844  0.0761  0.2177
 2682poe    c2314899   1.072   0.689   5.604  0.7496  0.5671  0.0470
 2682poe     o214900   1.072   0.779   5.495 -0.2667  0.1797 -0.2864
 2682poe    c2314901   1.015   0.712   5.386  0.1989 -0.3753 -0.1914
 2682poe    c2314902   0.989   0.821   5.280  0.2806  0.4567  0.6358
 2682poe     o214903   0.882   0.893   5.338  0.0823  0.0231  0.8126
 2682poe    c3114904   0.766   0.870   5.262  0.6999  1.0258 -0.4716
 2683poe    c3114905   3.221   7.160   5.588 -0.7041 -0.2455  0.0376
 2683poe     o214906   3.278   7.285   5.621 -0.6475 -0.2477 -0.0497
 2683poe    c2314907   3.368   7.334   5.525  0.3738  0.0599  1.0385
 2683poe    c2314908   3.366   7.482   5.567 -0.4194  0.5892 -0.7350
 2683poe     o214909   3.382   7.493   5.707 -0.3057 -0.1620 -0.6815
 2683poe    c2314910   3.337   7.623   5.740 -0.9763 -0.6144  0.2511
 2683poe    c2314911   3.361   7.630   5.892 -0.1790 -0.3147  0.1181
 2683poe     o214912   3.292   7.521   5.948 -0.3796 -0.0733  0.3401
 2683poe    c2314913   3.215   7.581   6.049 -0.3600  0.2896  0.1377
 2683poe    c2314914   3.103   7.496   6.111  0.0414 -0.3285  0.0139
 2683poe     o214915   3.001   7.469   6.017 -0.1638  0.4364  0.0121
 2683poe    c3114916   2.875   7.450   6.079 -0.2295  0.7656 -0.0181
 2684poe    c3114917   6.683   4.336   4.232 -0.2818 -0.2273  0.4725
 2684poe     o214918   6.665   4.257   4.116  0.2874  0.0674  0.1831
 2684poe    c2314919   6.547   4.181   4.110  0.2697  0.1531 -0.8085
 2684poe    c2314920   6.550   4.106   3.976  0.4739 -0.5264 -0.4272
 2684poe     o214921   6.672   4.034   3.974  0.5875 -0.3525  0.0510
 2684poe    c2314922   6.692   3.961   3.855 -0.1097  0.3236 -0.4991
 2684poe    c2314923   6.832   3.897   3.870 -0.0475  0.5010 -0.3172
 2684poe     o214924   6.929   3.993   3.902  0.1589 -0.0366  0.7012
 2684poe    c2314925   7.048   3.974   3.830 -0.6504  0.9438 -0.9395
 2684poe    c2314926   7.153   4.070   3.889 -0.3087 -0.3259  0.5863
 2684poe     o214927   7.109   4.201   3.858  0.1925 -0.3257 -0.1769
 2684poe    c3114928   7.202   4.269   3.778 -0.0281 -0.2978 -0.4094
 2685poe    c3114929   1.012   1.707   2.554  0.5810 -0.4496  0.3652
 2685poe     o214930   0.995   1.835   2.610  0.2606 -0.4117  0.1773
 2685poe    c2314931   0.912   1.816   2.723  0.2222  0.4348  0.3035
 2685poe    c2314932   0.809   1.929   2.734 -0.0057  0.2870 -0.2783
 2685poe     o214933   0.711   1.897   2.638 -0.0003  0.3585 -0.3080
 2685poe    c2314934   0.639   2.017   2.618 -0.0997  0.3680  0.1091
 2685poe    c2314935   0.518   1.982   2.530 -0.1294  0.6242  0.0492
 2685poe     o214936   0.549   1.911   2.413  0.0882  0.7341  0.0406
 2685poe    c2314937   0.437   1.848   2.354  0.4731 -0.0470  0.1244
 2685poe    c2314938   0.486   1.812   2.213 -0.4662 -0.3696 -0.1249
 2685poe     o214939   0.585   1.711   2.215  0.2164  0.2915 -0.2702
 2685poe    c3114940   0.604   1.657   2.086 -0.1831  0.0154 -0.2125
 2686poe    c3114941   4.260   2.066   0.017 -0.7790  0.2892 -0.8055
 2686poe     o214942   4.274   1.928  -0.009  0.1201  0.1532  0.3245
 2686poe    c2314943   4.148   1.875  -0.042  0.1761 -0.0406  0.4209
 2686poe    c2314944   4.164   1.724  -0.067 -0.1161 -0.0053 -0.0009
 2686poe     o214945   4.190   1.658   0.056  0.0093  0.5179  0.2543
 2686poe    c2314946   4.257   1.538   0.031  0.2205  0.6061  0.3966
 2686poe    c2314947   4.261   1.455   0.160 -0.6035  0.1695  0.1485
 2686poe     o214948   4.356   1.513   0.247 -0.0657  0.0260 -0.3323
 2686poe    c2314949   4.452   1.422   0.294 -0.2761  0.3148  0.7018
 2686poe    c2314950   4.505   1.437   0.437  0.4088  0.1517  0.4711
 2686poe     o214951   4.593   1.546   0.454 -0.0448  0.6012 -0.0483
 2686poe    c3114952   4.726   1.522   0.414  0.1646  1.2073  0.2682
 2687poe    c3114953   3.540   2.210   3.620  0.3280  0.0572  0.3185
 2687poe     o214954   3.514   2.299   3.514 -0.2029 -0.1167  0.3016
 2687poe    c2314955   3.447   2.238   3.406  0.1356  0.3741 -0.1910
 2687poe    c2314956   3.538   2.192   3.290 -0.4054 -0.1514 -0.4119
 2687poe     o214957   3.499   2.104   3.187 -0.6733 -0.2087 -0.2624
 2687poe    c2314958   3.430   2.159   3.077 -0.6710  0.5903  0.1305
 2687poe    c2314959   3.354   2.057   2.991  0.1446  0.1957 -0.1265
 2687poe     o214960   3.246   1.996   3.058  0.3852 -0.2995 -0.1843
 2687poe    c2314961   3.177   1.914   2.967 -0.5670  0.1729  0.0971
 2687poe    c2314962   3.036   1.867   3.008 -0.3639  0.2715  0.9248
 2687poe     o214963   2.935   1.954   2.960 -0.4118 -0.3405 -0.1169
 2687poe    c3114964   2.808   1.893   2.966 -0.5130 -0.1680 -0.5061
 2688poe    c3114965   0.313   4.621   2.966 -0.0228 -0.1014  0.6320
 2688poe     o214966   0.328   4.481   2.957  0.0686 -0.0565  0.0370
 2688poe    c2314967   0.405   4.463   2.840  0.1240 -0.1767  0.0919
 2688poe    c2314968   0.367   4.330   2.772  0.3823  0.0113 -0.4186
 2688poe     o214969   0.423   4.217   2.835  0.5337  0.1133 -0.3696
 2688poe    c2314970   0.400   4.124   2.732  0.1591 -0.4937  0.2595
 2688poe    c2314971   0.479   3.992   2.724  0.4142 -0.3287  0.0637
 2688poe     o214972   0.480   3.935   2.595  0.0433 -0.3551  0.0720
 2688poe    c2314973   0.591   3.849   2.576 -0.3528 -0.7601 -0.4619
 2688poe    c2314974   0.625   3.822   2.428  0.3869  0.3455 -0.5080
 2688poe     o214975   0.527   3.782   2.335  0.2223 -0.5181  0.0175
 2688poe    c3114976   0.561   3.806   2.200  0.2112 -0.3568  0.0426
 2689poe    c3114977   6.004   7.113   6.482  0.2145 -0.9567 -0.0013
 2689poe     o214978   5.929   7.024   6.403 -0.1666 -0.1225 -0.5897
 2689poe    c2314979   5.979   7.022   6.270 -0.0658  1.1026 -0.5827
 2689poe    c2314980   5.897   6.943   6.166  0.7088 -0.0102 -0.3740
 2689poe     o214981   5.875   6.806   6.192  0.2475  0.1659  0.2171
 2689poe    c2314982   5.770   6.754   6.114  0.4219  0.0158  0.0790
 2689poe    c2314983   5.809   6.666   5.994 -0.1864 -0.2459  0.0656
 2689poe     o214984   5.861   6.734   5.882 -0.2253 -0.3368 -0.0082
 2689poe    c2314985   5.920   6.641   5.794 -0.2541 -0.0182 -0.3719
 2689poe    c2314986   5.977   6.720   5.675  0.0123 -0.1001 -0.2986
 2689poe     o214987   6.090   6.792   5.719 -0.6550  0.4285  0.5946
 2689poe    c3114988   6.071   6.929   5.747  0.0125  0.6288  0.1077
 2690poe    c3114989   5.407   1.129   5.921 -0.2918 -0.0268  0.5439
 2690poe     o214990   5.516   1.209   5.960 -0.5513  0.9183 -0.6008
 2690poe    c2314991   5.613   1.216   5.858 -0.0358 -0.1990 -0.2074
 2690poe    c2314992   5.729   1.308   5.901 -0.3486 -0.0979  0.4391
 2690poe     o214993   5.811   1.235   5.988 -0.1288 -0.9132 -0.4360
 2690poe    c2314994   5.948   1.264   5.972 -0.3658  0.4239 -0.1124
 2690poe    c2314995   6.023   1.226   6.101 -0.8116 -0.1947 -0.0324
 2690poe     o214996   6.003   1.310   6.212  0.0856  0.1884 -0.1539
 2690poe    c2314997   6.098   1.285   6.313 -0.5955 -0.5281  0.3162
 2690poe    c2314998   6.053   1.380   6.426  0.0503  0.6707 -0.4060
 2690poe     o214999   5.935   1.339   6.492  0.6891  0.1395  0.4342
 2690poe    c3115000   5.918   1.400   6.618  0.3802  0.0067  0.4571
 2691poe    c3115001   5.813   1.087   6.814  0.3860 -0.1116  0.2062
 2691poe     o215002   5.723   1.137   6.718  0.0641 -0.2477  0.4371
 2691poe    c2315003   5.605   1.166   6.790 -0.0659 -0.2880  0.2414
 2691poe    c2315004   5.479   1.085   6.755 -0.5222  0.6764 -0.3747
 2691poe     o215005   5.409   1.068   6.876  0.4096 -0.9830 -0.0463
 2691poe    c2315006   5.295   0.984   6.876  0.2869 -0.8142 -0.5280
 2691poe    c2315007   5.217   1.008   7.006  0.0100 -0.5598 -0.7386
 2691poe     o215008   5.164   1.138   7.013  0.1024 -0.5833  0.7819
 2691poe    c2315009   5.075   1.146   7.122 -0.0075 -0.4394  0.6823
 2691poe    c2315010   5.061   1.294   7.165  0.0221 -0.3172  0.2819
 2691poe     o215011   5.188   1.353   7.179 -0.1913  0.1965  0.0401
 2691poe    c3115012   5.248   1.388   7.302 -0.2293 -0.0265  0.1208
 2692poe    c3115013   0.745   0.917   5.652 -0.3969 -0.6586  0.5746
 2692poe     o215014   0.629   0.925   5.731 -0.4180  0.0312  0.4756
 2692poe    c2315015   0.513   0.925   5.652 -0.1769  0.4649  0.1171
 2692poe    c2315016   0.412   0.843   5.735 -0.0914  0.1316 -0.1068
 2692poe     o215017   0.350   0.912   5.840 -0.3392 -0.0208 -0.1528
 2692poe    c2315018   0.247   0.846   5.911 -0.1750  0.3052  0.3922
 2692poe    c2315019   0.166   0.918   6.021 -0.5337  0.3531  0.0967
 2692poe     o215020   0.238   0.961   6.134  0.3773 -0.1790 -0.2765
 2692poe    c2315021   0.274   0.850   6.214 -0.2785  0.2159  0.5785
 2692poe    c2315022   0.382   0.877   6.320  0.1829  0.6135  0.0121
 2692poe     o215023   0.322   0.923   6.439  0.2038 -0.5853  0.5008
 2692poe    c3115024   0.394   1.026   6.503  0.2340 -0.0063 -0.4468
 2693poe    c3115025   2.593   6.868   0.030  0.3826  0.1931 -0.4955
 2693poe     o215026   2.488   6.960   0.009 -0.1053 -0.2394  0.0165
 2693poe    c2315027   2.396   6.914  -0.088  0.0466  0.0333 -0.2618
 2693poe    c2315028   2.332   7.029  -0.167 -0.2436  0.1398  0.1232
 2693poe     o215029   2.253   7.115  -0.088 -0.0176 -0.1909  0.7145
 2693poe    c2315030   2.217   7.227  -0.166  0.7025 -0.1776  0.3936
 2693poe    c2315031   2.213   7.360  -0.089  0.3113 -0.0487  0.1509
 2693poe     o215032   2.338   7.378  -0.028  0.1518  0.2453  0.3985
 2693poe    c2315033   2.384   7.510  -0.013  0.4627  0.1778  0.0631
 2693poe    c2315034   2.533   7.507   0.025  0.5455 -0.2686 -0.2850
 2693poe     o215035   2.565   7.458   0.153  0.4467  0.3564 -0.0136
 2693poe    c3115036   2.705   7.460   0.167  0.4371 -0.4466  0.3144
 2694poe    c3115037   6.774   5.628   0.567  0.5842  0.0279 -0.0882
 2694poe     o215038   6.687   5.660   0.462  0.1880 -0.5207  0.0703
 2694poe    c2315039   6.715   5.607   0.334  0.2284 -0.4998  0.0708
 2694poe    c2315040   6.675   5.684   0.207  0.4390 -0.4113  0.0570
 2694poe     o215041   6.738   5.805   0.171  0.0329 -0.3085 -0.3162
 2694poe    c2315042   6.758   5.907   0.266 -0.3011 -0.3552 -0.1921
 2694poe    c2315043   6.636   5.976   0.329 -0.1468  0.5940 -0.9137
 2694poe     o215044   6.553   6.064   0.257 -0.1711  0.6608 -0.8041
 2694poe    c2315045   6.481   6.009   0.150 -0.1155  0.1011 -0.5543
 2694poe    c2315046   6.352   5.925   0.160 -0.1231  0.2011  0.2370
 2694poe     o215047   6.376   5.789   0.190 -0.3689  0.1311  0.1243
 2694poe    c3115048   6.273   5.748   0.277 -0.5463  0.2556 -0.0276
 2695poe    c3115049   2.636   2.742   4.308  0.2329 -0.1596  0.0438
 2695poe     o215050   2.692   2.650   4.398  0.1381  0.0127  0.2794
 2695poe    c2315051   2.590   2.575   4.460 -0.6436  0.6466 -0.2120
 2695poe    c2315052   2.658   2.486   4.566 -0.2288  0.6597 -0.4636
 2695poe     o215053   2.780   2.543   4.606 -0.0910  0.2116 -0.2403
 2695poe    c2315054   2.872   2.451   4.661 -0.3244 -0.0372 -0.2669
 2695poe    c2315055   2.957   2.549   4.744  0.1345 -0.3106 -0.4084
 2695poe     o215056   3.013   2.647   4.659 -0.1230 -0.0956 -0.3332
 2695poe    c2315057   3.111   2.715   4.734 -0.0698 -0.0835 -0.4135
 2695poe    c2315058   3.189   2.828   4.664  0.2294  0.2555  0.4524
 2695poe     o215059   3.212   2.786   4.532 -0.4745 -0.3365  0.5068
 2695poe    c3115060   3.351   2.797   4.512 -0.5275 -0.0981  0.2637
 2696poe    c3115061   3.688   5.166   2.407 -0.7032 -0.1669 -0.0265
 2696poe     o215062   3.710   5.044   2.339 -0.0873 -0.0157 -0.1094
 2696poe    c2315063   3.849   5.027   2.326 -0.0841  0.0328 -0.1340
 2696poe    c2315064   3.870   4.880   2.286 -0.7763 -0.1672  0.2249
 2696poe     o215065   3.824   4.841   2.158 -0.2908 -0.6827  0.2039
 2696poe    c2315066   3.895   4.737   2.094  0.2208  0.0705 -0.4815
 2696poe    c2315067   3.850   4.731   1.947 -0.0146 -0.4116 -0.3909
 2696poe     o215068   3.710   4.720   1.965  0.0613 -0.1735  0.3898
 2696poe    c2315069   3.648   4.686   1.843 -0.2493  0.5283  0.3472
 2696poe    c2315070   3.500   4.711   1.875 -0.3502  0.2469  0.1077
 2696poe     o215071   3.486   4.825   1.957 -0.7623 -0.1424  0.5807
 2696poe    c3115072   3.349   4.859   1.964 -0.6898  0.3945 -0.4725
 2697poe    c3115073   4.290   1.076   1.845 -0.0647 -0.4189  0.6100
 2697poe     o215074   4.214   1.170   1.917 -0.4760  0.0548 -0.4291
 2697poe    c2315075   4.217   1.291   1.843  0.5934  0.6500  0.5525
 2697poe    c2315076   4.140   1.394   1.927  0.3121  0.7943  0.1185
 2697poe     o215077   4.002   1.372   1.942  0.4302  0.0455  0.1459
 2697poe    c2315078   3.942   1.483   2.007 -0.1556 -0.1753 -0.0081
 2697poe    c2315079   3.791   1.476   1.977 -0.0802  0.4383 -0.5489
 2697poe     o215080   3.760   1.343   2.009  0.2734  0.2575 -0.9475
 2697poe    c2315081   3.630   1.294   1.982  0.1131  0.1627 -0.0216
 2697poe    c2315082   3.595   1.162   2.054  0.4514  0.0939  0.0156
 2697poe     o215083   3.708   1.081   2.030  0.4040 -0.0486  0.2658
 2697poe    c3115084   3.676   0.945   2.047  0.5220 -0.2447 -0.9718
 2698poe    c3115085   2.632   5.805   6.677  0.4069 -0.1291  0.5527
 2698poe     o215086   2.679   5.798   6.545 -0.6392  0.0805  0.1562
 2698poe    c2315087   2.572   5.814   6.455 -0.4297 -0.2428 -0.1548
 2698poe    c2315088   2.498   5.685   6.415 -0.5949  0.0287 -0.7424
 2698poe     o215089   2.398   5.641   6.504  0.1120 -0.2031 -0.0476
 2698poe    c2315090   2.319   5.544   6.438 -0.1352  0.0117 -0.0703
 2698poe    c2315091   2.227   5.477   6.541  0.3146 -0.5150 -0.0069
 2698poe     o215092   2.134   5.554   6.613  0.5104  0.1263 -0.4322
 2698poe    c2315093   2.185   5.587   6.740 -0.1872 -0.0338 -0.1031
 2698poe    c2315094   2.096   5.657   6.845 -0.3714 -0.8083  0.2673
 2698poe     o215095   2.144   5.686   6.974 -0.2536 -0.2923  0.1120
 2698poe    c3115096   2.028   5.705   7.051 -0.2248 -0.6898  0.2554
 2699poe    c3115097   3.667   6.601   3.900  0.7251  0.3864  0.4163
 2699poe     o215098   3.806   6.594   3.923  0.7590 -0.3345 -0.0004
 2699poe    c2315099   3.859   6.702   3.996  0.2664 -0.2001  0.1628
 2699poe    c2315100   4.011   6.680   3.994  0.3362  0.3373 -0.4211
 2699poe     o215101   4.029   6.607   4.113 -0.1527  0.3192 -0.3590
 2699poe    c2315102   4.161   6.559   4.112 -0.3237 -0.1504 -0.5760
 2699poe    c2315103   4.171   6.419   4.177  0.1273  0.0742 -0.1562
 2699poe     o215104   4.146   6.429   4.315 -0.0094  0.0902 -0.1821
 2699poe    c2315105   4.094   6.305   4.358 -0.2964  0.0281 -0.6971
 2699poe    c2315106   4.105   6.293   4.512  0.3075  0.2488 -0.7196
 2699poe     o215107   4.064   6.416   4.565  0.0201 -0.1041 -0.1136
 2699poe    c3115108   4.031   6.401   4.701 -0.1558  0.5909 -0.0774
 2700poe    c3115109   5.692   4.058   1.645  0.1326  0.1185  0.2466
 2700poe     o215110   5.824   4.033   1.604 -0.0201 -0.1365 -0.0988
 2700poe    c2315111   5.839   3.908   1.540 -0.2988 -0.2141 -0.0103
 2700poe    c2315112   5.983   3.858   1.563 -0.1992  0.0227 -0.1184
 2700poe     o215113   6.065   3.963   1.517  0.0886 -0.1280  0.0500
 2700poe    c2315114   6.200   3.923   1.516  0.0002 -0.4206 -0.0925
 2700poe    c2315115   6.273   4.033   1.437  0.4095 -0.3482  0.3835
 2700poe     o215116   6.210   4.153   1.473  0.1800 -0.2432 -0.3529
 2700poe    c2315117   6.289   4.260   1.426 -0.9240  0.2053 -1.2546
 2700poe    c2315118   6.209   4.391   1.439 -0.5913  0.2908  0.0965
 2700poe     o215119   6.214   4.421   1.577 -0.6021  0.1015  0.1395
 2700poe    c3115120   6.152   4.540   1.620 -0.2296  0.6085 -0.6929
 2701lim     li15121   4.315   0.629   2.393  1.0746 -1.0222 -0.4966
 2702lim     li15122   4.888   5.988   1.294 -0.1359 -0.2520 -0.0635
 2703lim     li15123   0.409   0.604   1.628  0.3295  0.0531 -0.4744
 2704lim     li15124   0.326   5.935   3.224 -0.5532 -0.3075 -1.0863
 2705lim     li15125   0.593   5.284   6.352 -2.2012 -0.0900  1.0567
 2706lim     li15126   3.688   5.577   2.115  0.6823  0.1149  0.4514
 2707lim     li15127   6.072   4.487   2.122  0.3533 -0.7560  0.0706
 2708lim     li15128   6.218   1.064   1.692  0.4610  0.1509  0.9393
 2709lim     li15129   6.119   1.864   1.141 -0.0128  0.4618  0.5586
 2710lim     li15130   3.029   4.055   5.419  0.1551  1.5624 -0.3086
 2711lim     li15131   1.693   0.496   2.591  0.4402  0.0814  0.1156
 2712lim     li15132   2.368   3.919   1.208 -0.5547 -0.0961 -0.2657
 2713lim     li15133   2.400   1.495   0.497  0.3375 -0.5214 -0.5087
 2714lim     li15134   2.557   4.815   0.364 -0.0855  0.8761 -0.4806
 2715lim     li15135   2.765   3.247   6.297  0.7144  0.4782  0.8550
 2716lim     li15136   6.237   3.093   3.808 -0.1683 -0.8544 -0.7209
 2717lim     li15137   5.408   7.220   1.107 -0.1947  0.5353  0.0232
 2718lim     li15138   4.888   2.636   6.159  1.3345  0.0299  1.2260
 2719lim     li15139   6.875   5.948   6.649  0.6047 -0.3850 -1.3849
 2720lim     li15140   5.246   2.345   5.130  0.3366 -0.0953 -0.3150
 2721lim     li15141   3.809   2.328   2.145  0.7596 -0.7483  0.1483
 2722lim     li15142   1.727   0.400   4.705 -1.1541  0.3877 -0.4828
 2723lim     li15143   4.497   4.868   0.365 -0.6724 -0.0528  0.4319
 2724lim     li15144   4.968   1.661   7.097 -0.0233  0.3600 -0.0869
 2725lim     li15145   4.116   4.949   1.470 -0.7440  0.3608  0.6670
 2726lim     li15146   4.007   4.328   4.891 -1.3716  0.4786 -0.0654
 2727lim     li15147   5.270   5.449   4.425  1.1265  0.3103 -0.7248
 2728lim     li15148   5.567   5.325   3.607 -0.1170  0.6498 -0.4160
 2729lim     li15149   7.194   2.239   0.521  1.3059 -0.5200  0.2493
 2730lim     li15150   4.897   6.112   4.559  0.0689  0.1658 -0.4813
 2731lim     li15151   4.482   5.454   3.832 -0.3757  0.7325  0.8272
 2732lim     li15152   1.401   4.441   5.878  0.0877  0.4836  0.3374
 2733lim     li15153   1.761   5.090   4.614 -0.1045  0.9673  1.0341
 2734lim     li15154   0.431   0.302   7.089 -0.0993 -0.8374  0.2063
 2735lim     li15155   3.505   2.668   3.413  0.4180 -0.6081  0.4120
 2736lim     li15156   6.311   4.207   3.502 -1.0814  0.9936  0.9504
 2737lim     li15157   1.698   2.761   3.034  0.5426 -1.3910 -0.3486
 2738lim     li15158   3.903   6.855   4.940  0.6594 -0.9110 -0.1315
 2739lim     li15159   4.467   2.906   3.262  0.1991 -0.0041 -0.3340
 2740lim     li15160   2.673   4.006   4.657  0.0016  0.4788  0.6102
 2741lim     li15161   3.280   5.839   0.754 -0.9414  0.7601 -0.0229
 2742lim     li15162   5.810   5.990   1.815  0.0116 -0.1093 -1.0163
 2743lim     li15163   6.116   3.902   0.090 -0.2185 -0.4414 -0.0221
 2744lim     li15164   1.790   4.981   5.607 -0.0675 -0.5090  0.0929
 2745lim     li15165   0.169   3.804   2.298 -0.8211  0.5522  0.4049
 2746lim     li15166   2.058   1.558   5.194 -0.1143 -1.1347 -0.3076
 2747lim     li15167   5.344   6.284   0.641 -0.8761  0.4270 -1.2088
 2748lim     li15168   2.616   4.897   6.118 -0.3457  0.1121 -0.1088
 2749lim     li15169   3.316   1.657   4.471 -0.8837 -0.3855 -0.7302
 2750lim     li15170   5.429   1.036   4.849  0.2968 -1.2920  0.0962
 2751lim     li15171   0.406   5.035   0.612 -1.0153 -0.0937 -0.7655
 2752lim     li15172   5.712   5.069   6.528 -0.0525  0.8598  0.4737
 2753lim     li15173   6.611   0.155   5.461 -1.3015  0.1657 -0.5153
 2754lim     li15174   5.920   2.892   1.488  1.2972 -0.2914 -0.5803
 2755lim     li15175   0.605   2.767   6.033  0.1108  0.6816  1.1363
 2756lim     li15176   4.471   6.994   0.756  0.1980 -0.3004  0.3009
 2757lim     li15177   2.327   2.744   2.329 -0.9205  1.1640 -0.1668
 2758lim     li15178   3.323   3.491   4.591 -0.9809 -1.1262 -0.3133
 2759lim     li15179   0.449   2.077   5.448 -0.4483  1.1044  0.0044
 2760lim     li15180   3.641   4.855   2.061 -0.1068  0.2270 -0.4917
 2761lim     li15181   0.031   1.028   4.225 -0.3248  0.7972  0.4307
 2762lim     li15182   6.724   0.778   6.869 -0.9255 -0.5408 -0.9330
 2763lim     li15183   4.569   0.894   0.981  0.0672  0.2141  0.2857
 2764lim     li15184   3.656   6.788   1.597 -0.1585 -0.1078  0.4667
 2765lim     li15185   6.544   4.451   0.260 -0.8528  0.9179 -0.8635
 2766lim     li15186   0.907   0.179   0.192  0.0011 -0.6334 -0.2235
 2767lim     li15187   5.780   5.618   2.726  0.8598  0.1970  0.8406
 2768lim     li15188   6.632   2.355   6.222  0.7340 -0.4389  0.3470
 2769lim     li15189   7.005   2.235   2.389 -0.1400  0.9049 -0.7622
 2770lim     li15190   3.013   3.275   5.602 -0.6802  0.7711  1.5753
 2771lim     li15191   1.152   0.948   5.548  2.1409  0.5331 -0.2275
 2772lim     li15192   6.807   3.098   0.275 -0.2695 -0.2092 -0.6202
 2773lim     li15193   3.500   0.282   3.144  0.5299  0.6601 -0.7701
 2774lim     li15194   1.365   3.608   3.334  0.3640  0.3773  0.6444
 2775lim     li15195   4.234   3.910   1.538 -0.0412 -0.4399  0.3870
 2776lim     li15196   4.806   0.213   4.618 -0.0960  0.2296 -0.1812
 2777lim     li15197   6.635   3.586   6.430  0.8739  1.1653  1.2191
 2778lim     li15198   5.775   5.055   1.100  0.9607  0.1162 -1.5590
 2779lim     li15199   6.610   5.750   4.944 -1.0544  0.6833  0.1090
 2780lim     li15200   5.392   4.234   6.566 -0.1539 -0.0808  0.5768
 2781lim     li15201   1.732   5.777   3.237  1.6100  0.1943 -1.6129
 2782lim     li15202   3.911   4.592   5.739  0.1110 -0.3286 -1.7970
 2783lim     li15203   6.785   6.320   0.438 -0.5860 -0.9970  0.2146
 2784lim     li15204   3.190   4.821   6.615  0.6909  0.3906 -0.1425
 2785lim     li15205   5.585   1.162   6.350 -0.0769 -0.3214  0.7452
 2786lim     li15206   1.160   6.960   0.294  0.8264  0.5175  0.0587
 2787lim     li15207   2.138   6.028   1.374 -0.2056 -0.1028  0.2542
 2788lim     li15208   1.508   3.228   5.915  0.9470 -0.5170  0.1772
 2789lim     li15209   5.355   2.777   2.888  1.2678  0.8384  1.2054
 2790lim     li15210   6.827   4.454   2.620  0.6457  0.5388 -0.5602
 2791lim     li15211   4.765   1.087   5.904  1.3403 -1.6033  0.2270
 2792lim     li15212   5.166   2.382   1.465  0.5860 -0.5662  0.3856
 2793lim     li15213   1.437   6.115   5.039 -1.0687 -0.3421  0.1752
 2794lim     li15214   2.351   2.232   5.515  0.0335  1.3158 -0.4521
 2795lim     li15215   5.636   0.107   5.812  0.0020  0.4175  0.8826
 2796lim     li15216   4.367   1.534   6.502  0.0146  0.2528 -0.1471
 2797lim     li15217   6.853   6.918   3.186 -0.1766 -0.0340 -0.1051
 2798lim     li15218   0.887   1.222   6.272 -0.3957 -0.0676  1.0312
 2799lim     li15219   4.380   6.757   5.843 -0.9008  0.9391 -0.9920
 2800lim     li15220   1.440   5.674   0.591  0.3028 -0.4295 -1.4152
 2801lim     li15221   4.821   0.097   6.170  0.8440 -0.5210  0.6174
 2802lim     li15222   1.240   2.454   3.567 -0.4808 -0.8395  0.3248
 2803lim     li15223   4.331   5.538   0.921  0.3113  0.7955  0.0977
 2804lim     li15224   2.151   1.003   0.621 -0.5832 -0.0327 -0.1032
 2805lim     li15225   0.230   5.748   4.100  0.5407 -2.1142 -0.1389
 2806lim     li15226   4.351   5.413   5.188  0.6028  0.7711 -0.6114
 2807lim     li15227   2.567   2.790   6.144  0.7544  1.6134 -0.2330
 2808lim     li15228   1.845   1.635   3.161  0.3906 -0.6913 -0.6528
 2809lim     li15229   5.373   3.180   6.188 -1.0269 -0.4888 -0.2669
 2810lim     li15230   0.515   6.938   1.259 -0.7152 -1.0751 -0.3910
 2811lim     li15231   0.854   2.629   3.901 -0.1938 -0.1408 -1.4277
 2812lim     li15232   1.085   3.453   1.441 -0.0807 -0.1391 -1.6098
 2813lim     li15233   6.864   0.308   6.366  0.3199 -0.8313  1.3547
 2814lim     li15234   7.238   4.641   6.691  0.6306  0.3901 -0.6437
 2815lim     li15235   6.608   0.481   0.835 -0.6666  0.1380  1.2744
 2816lim     li15236   2.106   4.525   2.191 -0.1274 -0.8301  0.3416
 2817lim     li15237   2.448   7.220   4.795  0.4939  0.9644  0.5141
 2818lim     li15238   3.753   5.807   2.802  0.5987 -0.2383  0.9340
 2819lim     li15239   6.039   7.160   0.412 -1.2772 -0.4246 -0.1901
 2820lim     li15240   2.666   6.693   5.519  0.2266  0.5306  0.7042
 2821lim     li15241   3.574   6.763   2.639 -0.8717 -0.7420  0.0765
 2822lim     li15242   3.568   0.783   4.712  0.3232 -0.4709  0.8366
 2823lim     li15243   4.419   6.020   0.236  0.3851 -0.1295  1.1634
 2824lim     li15244   2.644   3.786   0.451  1.4480 -0.0272  0.1844
 2825lim     li15245   4.169   7.080   1.888 -1.1415 -0.7637  0.6532
 2826lim     li15246   5.997   6.502   6.655 -0.2571  0.9324 -1.0691
 2827lim     li15247   5.332   6.640   2.217  0.7141 -0.1866  0.8187
 2828lim     li15248   4.538   1.921   0.529  0.2726  0.5298  0.2079
 2829lim     li15249   0.217   3.350   1.392  0.6832 -1.0298 -0.9409
 2830lim     li15250   3.392   5.437   4.504  0.4655 -0.8285 -0.7415
 2831lim     li15251   4.744   4.060   2.777 -0.0347 -0.2693 -1.1201
 2832lim     li15252   6.294   5.539   2.058  0.2301 -0.5705 -0.5648
 2833lim     li15253   7.220   2.579   3.107 -0.2072 -0.3731  0.3987
 2834lim     li15254   0.583   1.732   4.472  0.1972 -0.1939 -1.0820
 2835lim     li15255   0.991   3.168   0.116 -0.5413 -0.5907 -0.0941
 2836lim     li15256   2.982   6.563   1.104 -0.1122  0.0971 -0.2350
 2837lim     li15257   4.798   6.709   4.664  0.0099  0.1182  0.9574
 2838lim     li15258   1.593   1.934   4.057 -0.2877  0.7263  0.0946
 2839lim     li15259   2.433   4.849   4.092  0.4588 -0.5062 -1.3758
 2840lim     li15260   1.040   6.345   7.044  0.4541 -0.8448  0.0732
 2841lim     li15261   5.461   0.901   5.413  0.4949  0.7493 -1.4109
 2842lim     li15262   3.869   1.074   6.424 -0.0230 -0.3592 -0.9474
 2843lim     li15263   0.185   2.998   6.546 -0.3717  0.7278 -0.7485
 2844lim     li15264   6.058   5.937   3.686  0.6141 -0.5458 -0.6323
 2845lim     li15265   7.219   6.155   6.033 -0.7253  0.1960 -1.4665
 2846lim     li15266   3.944   5.043   3.004 -0.0164  0.0800  0.5722
 2847lim     li15267   6.833   2.234   5.241  0.6055 -0.0559  0.4130
 2848lim     li15268   5.547   1.173   0.754  1.4828  1.6447 -0.8249
 2849lim     li15269   6.153   3.092   4.903 -1.3405  0.5636  0.4221
 2850lim     li15270   1.284   3.239   0.722  0.7701  1.1027 -0.2153
 2851lim     li15271   1.788   5.442   5.984  0.7370  0.9620  0.3766
 2852lim     li15272   0.049   3.095   0.968 -0.7148 -0.2203 -0.9702
 2853lim     li15273   5.861   3.054   5.539 -0.1194  0.0901  0.9823
 2854lim     li15274   3.121   6.402   0.096  0.3704 -0.5565 -0.5737
 2855lim     li15275   4.327   2.673   0.141  0.0394 -0.5139  0.0946
 2856lim     li15276   5.869   1.108   0.317  0.8614  0.5938 -0.9204
 2857lim     li15277   2.024   3.887   6.130 -0.0437 -0.4502  0.0231
 2858lim     li15278   4.701   5.578   3.141 -0.6096 -0.4276  0.3894
 2859lim     li15279   3.991   4.933   4.535 -1.2082  0.3105 -0.3227
 2860lim     li15280   2.635   0.733   4.355 -0.8989  0.4994  0.2685
 2861lim     li15281   1.605   4.997   1.254  0.9911 -0.6541 -0.6527
 2862lim     li15282   5.558   4.544   3.490  0.6040 -1.0280 -0.2274
 2863lim     li15283   4.155   3.964   3.347  0.3922  0.0015 -0.2883
 2864lim     li15284   6.044   2.176   2.741  0.5638  0.1657  0.3233
 2865lim     li15285   0.725   7.191   2.421  1.0274 -0.4669 -0.6428
 2866lim     li15286   0.292   6.450   6.464  0.5256  0.3156 -0.1770
 2867lim     li15287   4.563   4.273   6.318  0.2967  0.5141 -0.7946
 2868lim     li15288   4.750   4.130   1.873 -0.7522 -0.1018  1.4564
 2869lim     li15289   6.124   2.274   7.123 -0.8633 -0.9591 -0.2253
 2870lim     li15290   5.473   3.268   5.151 -0.9899 -0.1245  0.4263
 2871lim     li15291   7.145   7.192   1.041  0.4448 -0.1830 -1.1664
 2872lim     li15292   5.431   4.253   0.273 -0.2235  0.3376 -0.1878
 2873lim     li15293   6.491   0.952   4.853 -0.1724 -0.4189 -0.8113
 2874lim     li15294   2.295   6.712   3.765  0.1005 -1.5647  1.7512
 2875lim     li15295   7.217   2.820   0.055  0.1929 -0.9810 -0.2282
 2876lim     li15296   2.143   6.692   0.369 -0.3509 -0.0977  0.1024
 2877lim     li15297   2.101   0.897   7.143  0.1658  0.2612 -0.8140
 2878lim     li15298   7.188   2.478   4.749 -0.1905  0.3939  1.4506
 2879lim     li15299   3.936   2.930   1.150  0.8506  0.0285 -0.0322
 2880lim     li15300   5.506   6.757   0.466  0.0701 -0.6012 -0.7947
 2881lim     li15301   7.112   7.228   5.756 -0.0958 -0.2384  0.6813
 2882lim     li15302   7.067   2.025   1.232 -0.1267  0.3389 -1.5250
 2883lim     li15303   3.270   0.123   5.780 -0.5696 -1.0774  1.3229
 2884lim     li15304   0.563   4.376   4.327  0.8289  0.2915 -0.3995
 2885lim     li15305   0.236   0.835   5.144  0.2593 -0.5735  0.9719
 2886lim     li15306   2.763   2.155   1.231 -1.0071 -0.6638  0.8204
 2887lim     li15307   6.290   0.868   4.392 -0.4378 -0.3416 -0.5469
 2888lim     li15308   3.890   1.221   1.970 -1.7788  0.0698 -0.1108
 2889lim     li15309   0.141   0.269   3.918 -0.3051 -0.2616  0.3335
 2890lim     li15310   1.744   0.225   5.543  0.4868  0.0279 -0.0761
 2891lim     li15311   0.208   0.314   5.984 -0.5211 -0.6166  0.5004
 2892lim     li15312   0.008   1.837   6.547  0.4782 -2.0944 -0.5440
 2893lim     li15313   0.919   0.920   2.395  0.6057  0.0285 -0.4312
 2894lim     li15314   0.953   6.188   4.427  0.5899  0.1140 -0.6253
 2895lim     li15315   5.239   3.453   7.020  0.0466  0.3956  1.1210
 2896lim     li15316   3.741   5.438   5.325 -0.0854 -0.1621  0.4904
 2897lim     li15317   6.197   6.484   1.543  1.0803  0.0507 -0.8772
 2898lim     li15318   6.392   6.736   5.414  0.3778  0.0917 -0.4818
 2899lim     li15319   5.130   4.247   4.275 -0.7425 -0.9247 -0.0975
 2900lim     li15320   5.527   1.303   2.016 -0.1286 -0.9411 -1.4180
 2901lim     li15321   0.067   5.111   5.953  1.0445 -1.2106  0.4888
 2902lim     li15322   6.158   1.714   1.763  0.7908  0.2663  0.3850
 2903lim     li15323   5.325   6.314   3.274 -0.0934 -0.3481  0.1621
 2904lim     li15324   1.118   4.825   2.403 -0.2633 -0.0005  0.1776
 2905lim     li15325   4.670   2.857   1.705 -0.4424 -0.5783 -0.9552
 2906lim     li15326   2.190   2.463   0.625 -0.4259 -0.3971 -0.0278
 2907lim     li15327   0.661   1.821   0.106 -0.1432 -0.7927 -0.6262
 2908lim     li15328   0.900   6.602   1.902 -1.5072  0.6593 -0.2343
 2909lim     li15329   2.923   3.839   6.404 -0.0016  0.0621 -0.4051
 2910lim     li15330   1.130   2.189   4.704  0.3064  0.1475 -1.9575
 2911lim     li15331   2.474   4.464   3.056 -0.2023  0.1063 -0.2846
 2912lim     li15332   5.398   0.525   0.124 -0.6474 -0.0773 -0.3701
 2913lim     li15333   3.172   2.694   1.077 -0.1155  0.0694 -0.8398
 2914lim     li15334   7.229   0.337   2.056  0.0031 -0.0698  0.3846
 2915lim     li15335   6.075   2.445   4.750 -0.2231  0.2446  0.5380
 2916lim     li15336   0.875   3.649   6.551  0.4231  0.7422 -0.2431
 2917lim     li15337   2.226   1.359   5.878  1.5712  0.2784  0.6175
 2918lim     li15338   5.677   3.632   4.627  0.0070 -0.5379 -0.4950
 2919lim     li15339   0.721   5.169   1.645 -0.4639  0.4079  0.5019
 2920lim     li15340   5.636   6.815   4.777 -0.3710  1.0050 -0.0657
 2921lim     li15341   3.593   1.604   3.070 -0.2893 -0.0975 -0.5922
 2922lim     li15342   3.871   1.015   1.191 -0.3514 -0.1877 -0.4824
 2923lim     li15343   7.115   1.618   1.880  0.4931  0.9089  0.7571
 2924lim     li15344   7.166   6.674   4.305 -0.5764 -0.7238 -0.8188
 2925lim     li15345   5.683   2.336   6.440 -0.4965  0.8202  0.5045
 2926lim     li15346   6.383   4.936   6.290 -0.0396  0.1319  0.0542
 2927lim     li15347   1.633   0.149   1.893 -1.1186  1.2703 -0.3304
 2928lim     li15348   4.093   0.841   0.271 -0.2861  0.1073 -0.1126
 2929lim     li15349   6.504   1.890   0.356  0.6032  0.0693 -0.0848
 2930lim     li15350   0.937   4.403   6.550  0.1499  0.0619  0.1546
 2931lim     li15351   0.576   4.641   5.028 -0.5100  0.6176  0.5145
 2932lim     li15352   6.471   5.962   4.319  0.5966 -0.3054 -0.1211
 2933lim     li15353   1.279   2.293   6.351  0.0036 -0.5195  0.1435
 2934lim     li15354   4.467   0.859   5.467  1.9376  1.1748  0.5460
 2935lim     li15355   6.021   7.076   3.217 -0.4423  0.0542 -0.9062
 2936lim     li15356   2.577   6.969   6.723 -0.8856 -0.2455 -0.7408
 2937lim     li15357   2.404   2.562   1.731 -0.0745  1.1534  0.5141
 2938lim     li15358   6.419   5.050   3.966 -0.0228  0.6280  0.1181
 2939lim     li15359   1.212   0.585   1.604  0.2720  0.6153  0.5199
 2940lim     li15360   6.669   4.928   4.975  0.3039 -0.1660  0.0182
 2941lim     li15361   2.745   1.126   3.795 -0.1137 -0.1286  0.7645
 2942lim     li15362   7.060   3.351   3.182 -0.1230 -0.2405 -0.7041
 2943lim     li15363   0.169   1.334   6.324 -0.8603  0.1566 -1.1767
 2944lim     li15364   5.755   0.432   6.684 -0.1870  0.0278 -0.6361
 2945lim     li15365   6.272   2.959   2.430 -1.0984 -0.4635  0.7581
 2946lim     li15366   2.176   5.749   4.973  0.2714  1.0291  0.2479
 2947lim     li15367   3.506   1.208   0.269  1.2083 -0.5399 -0.1629
 2948lim     li15368   0.702   5.307   5.376 -0.7778 -0.0393  0.6908
 2949lim     li15369   0.183   4.731   0.011 -0.0440  0.7638  0.2730
 2950lim     li15370   3.982   3.967   2.681 -0.3331  0.2063  0.8833
 2951lim     li15371   3.356   0.421   0.781  0.8333  0.1190  0.0128
 2952lim     li15372   1.262   2.025   2.474  0.3491 -0.7721  0.1728
 2953lim     li15373   6.981   6.136   2.735 -0.8869  0.5673 -0.6076
 2954lim     li15374   3.379   6.808   6.730  0.1470 -0.4844  0.6158
 2955lim     li15375   3.423   4.598   4.881 -0.6260  0.3572 -0.5425
 2956lim     li15376   6.097   0.066   4.265  0.2335 -0.5688 -0.7022
 2957lim     li15377   5.932   7.212   2.148 -0.5831 -0.6678 -0.5279
 2958lim     li15378   0.720   0.756   3.163  0.8108 -0.0248  0.0460
 2959lim     li15379   3.007   4.095   2.251  1.0020  0.3148  0.2521
 2960lim     li15380   2.282   2.969   7.018  1.3989 -0.2913 -0.7503
 2961lim     li15381   4.007   3.294   4.332 -0.2368  0.1382 -0.1107
 2962lim     li15382   6.082   5.027   1.860  0.1165 -0.0045 -0.0340
 2963lim     li15383   2.668   1.616   2.293  0.0712  0.1925 -1.1102
 2964lim     li15384   4.011   2.258   3.890  0.1553  0.0900 -1.1862
 2965lim     li15385   1.794   5.709   6.475 -0.0483 -0.5288 -0.4677
 2966lim     li15386   4.466   4.788   3.793 -0.1145  0.3308 -0.2448
 2967lim     li15387   1.711   5.190   0.136  0.0322 -0.3685  0.6253
 2968lim     li15388   4.177   1.130   3.381 -1.6889 -0.6038  0.7158
 2969lim     li15389   2.502   0.728   1.151  1.2895 -0.1956  0.3049
 2970lim     li15390   6.183   0.512   1.644  0.4089  0.1955 -0.0027
 2971lim     li15391   1.784   3.605   7.166 -1.1621  0.1327  1.1110
 2972lim     li15392   2.407   2.326   3.851 -0.0967 -0.0968 -0.6574
 2973lim     li15393   3.111   6.252   4.328  0.0710  1.0622 -0.6987
 2974lim     li15394   3.404   4.737   3.600 -0.6520 -0.5951  0.1130
 2975lim     li15395   3.944   0.041   6.103  0.1133 -0.3471 -0.2529
 2976lim     li15396   2.101   0.982   5.486 -0.2336  0.5025  0.8396
 2977lim     li15397   0.697   2.824   2.756  1.0035 -0.8689 -0.3513
 2978lim     li15398   5.668   5.787   6.473  0.4423  0.1005 -0.2292
 2979lim     li15399   5.566   1.765   6.509  0.0974  0.7532  0.5116
 2980lim     li15400   6.768   3.798   5.148 -0.5781 -0.7986 -0.0262
 2981lim     li15401   3.091   2.069   6.214  0.4708  0.7970 -0.5058
 2982lim     li15402   1.002   6.735   3.547  0.0480  0.0451 -0.7510
 2983lim     li15403   6.903   6.907   0.066  0.0940 -0.2757 -0.3639
 2984lim     li15404   3.909   0.164   1.369  0.5796  0.8998  0.2330
 2985lim     li15405   6.855   2.945   5.128 -0.0059  1.2451 -0.8362
 2986lim     li15406   6.810   4.119   4.053 -0.3770  0.0022  0.9481
 2987lim     li15407   5.654   3.857   5.584 -0.8074  0.0959  0.2843
 2988lim     li15408   6.317   6.089   3.246 -1.4768  0.1268  1.1341
 2989lim     li15409   0.821   3.982   0.812  0.0268 -0.3548  0.1473
 2990lim     li15410   6.746   6.716   2.626  0.6074  0.1269 -0.2287
 2991lim     li15411   5.991   2.552   2.003  0.3629 -0.3205  0.8826
 2992lim     li15412   5.083   3.614   1.407  0.5910  0.5439  0.6134
 2993lim     li15413   5.345   1.730   1.054  0.1739 -0.3174 -0.4749
 2994lim     li15414   1.958   0.582   3.158  0.2651 -0.4976  1.2963
 2995lim     li15415   5.373   2.464   3.673 -0.6535  0.6550  0.1319
 2996lim     li15416   5.404   4.523   0.977 -1.1544  0.0154  0.1869
 2997lim     li15417   4.148   5.581   6.251  0.3251 -0.6632 -1.1177
 2998lim     li15418   3.237   4.968   5.968 -0.1499  0.3022  0.4772
 2999lim     li15419   4.621   2.919   5.426  0.4636  0.8906  0.4053
 3000lim     li15420   3.986   6.962   0.243  0.2572 -0.4914  1.1038
 3001lim     li15421   4.188   4.272   3.851  1.1717 -0.7836 -0.8738
 3002lim     li15422   3.963   2.187   0.801  0.6211  1.4685  0.1319
 3003lim     li15423   6.407   1.502   4.001 -0.1955  0.5086 -0.3255
 3004lim     li15424   3.233   0.235   6.931 -0.4213 -1.4068 -0.1593
 3005lim     li15425   1.577   6.994   1.250  0.5212 -0.4558  0.8996
 3006lim     li15426   1.470   1.732   0.105 -0.0736 -0.6431  0.4352
 3007lim     li15427   0.532   1.298   3.749 -0.2927  1.5533  0.1632
 3008lim     li15428   2.782   5.061   2.921  0.3645 -0.0817  0.4822
 3009lim     li15429   4.893   6.719   1.748 -0.8525 -0.3314  0.0041
 3010lim     li15430   6.739   3.690   1.971  0.4639  0.8636  0.3391
 3011lim     li15431   1.496   3.776   2.220  0.9614 -0.8891 -0.2480
 3012lim     li15432   2.764   0.361   2.657 -0.0128 -0.7367  0.3131
 3013lim     li15433   5.233   6.020   5.841 -1.2009 -0.5996 -0.1790
 3014lim     li15434   5.065   2.816   0.208 -0.3175  1.0296  0.1072
 3015lim     li15435   5.627   3.570   1.673  1.1746  0.0914 -0.5884
 3016lim     li15436   2.873   2.662   4.514  0.1777  1.0949  0.5777
 3017lim     li15437   0.404   2.470   1.882  0.8202  0.0509 -0.3446
 3018lim     li15438   3.200   3.217   1.075 -0.2039 -0.5990  0.3553
 3019lim     li15439   1.032   0.755   4.547  0.6575 -0.1025 -0.0974
 3020lim     li15440   1.641   6.563   5.438 -0.2358  1.0417  0.6359
 3021lim     li15441   1.266   2.303   1.123  0.3382 -0.1346 -0.3542
 3022lim     li15442   0.642   3.241   1.977  0.5007 -0.4229  0.3087
 3023lim     li15443   6.179   3.394   0.509 -0.5787 -0.1058  0.0780
 3024lim     li15444   3.561   4.886   0.569  0.4205  1.1021 -0.9523
 3025lim     li15445   6.177   4.985   2.775  0.3292  0.8718  0.4161
 3026lim     li15446   3.230   1.240   1.253  0.5980 -0.5468  0.3114
 3027lim     li15447   6.331   2.037   3.333  0.3769  0.9286  1.1160
 3028lim     li15448   5.593   6.813   2.923 -0.6941 -0.1890 -0.8684
 3029lim     li15449   4.995   1.557   3.098 -0.6114  0.0926  0.6977
 3030lim     li15450   1.566   1.121   1.391 -1.2005 -0.6805  0.5749
 3031lim     li15451   3.380   0.899   6.649  0.7793 -1.0760 -0.0674
 3032lim     li15452   0.245   3.656   0.012  0.8562 -0.0819  0.0542
 3033lim     li15453   0.738   1.677   2.317  0.3235 -0.0434 -0.4846
 3034lim     li15454   5.908   4.538   4.680 -0.6593 -0.7726  1.3710
 3035lim     li15455   2.894   2.299   0.610  0.3069  0.3494 -0.1369
 3036lim     li15456   1.815   4.689   3.703  1.1075  1.3026  1.2151
 3037lim     li15457   0.449   6.990   3.127 -0.1743  0.0822 -0.3479
 3038lim     li15458   0.403   6.780   3.880  0.4224 -0.6807 -0.3488
 3039lim     li15459   4.657   0.546   0.077  0.4501  0.3604  0.6705
 3040lim     li15460   2.336   5.723   3.885 -0.4194  0.8865 -0.7803
 3041lim     li15461   5.120   1.869   5.313 -0.2242 -0.5032  0.6353
 3042lim     li15462   7.173   1.439   2.637  0.5641  1.0393  1.6463
 3043lim     li15463   0.277   4.994   3.813  0.2154 -0.9957  0.6350
 3044lim     li15464   5.287   0.578   2.566  0.4529 -0.0018 -0.0022
 3045lim     li15465   4.403   6.715   3.272 -0.2633  0.6890 -0.0742
 3046lim     li15466   1.927   3.165   5.009  0.1460 -1.9073  0.7112
 3047lim     li15467   2.324   4.416   6.867  0.8964  0.3822  0.3131
 3048lim     li15468   1.000   2.995   4.911 -0.5634  0.3408 -0.1810
 3049lim     li15469   2.480   0.084   0.262  1.3441 -0.6538  0.7219
 3050lim     li15470   1.359   7.045   4.043 -0.3369 -0.9748 -0.0665
 3051lim     li15471   3.643   5.394   6.741 -0.0233  0.4871  1.1658
 3052lim     li15472   3.021   3.514   7.097  2.3282  0.0649 -0.9045
 3053lim     li15473   6.130   2.167   5.548  0.0841  0.4044 -0.7403
 3054lim     li15474   5.046   3.434   0.720 -0.1258 -0.4576 -0.0597
 3055lim     li15475   1.604   1.758   6.480  0.0170 -0.6503 -1.1193
 3056lim     li15476   1.745   1.273   4.510  0.6660 -0.4829 -0.0597
 3057lim     li15477   4.651   1.614   5.117 -1.3855 -0.5479 -0.4529
 3058lim     li15478   1.515   5.983   3.807  0.5694  1.5753 -1.0502
 3059lim     li15479   3.865   1.662   4.426 -0.8087 -0.6271  0.0059
 3060lim     li15480   5.428   1.843   3.185 -0.3873 -0.5904  0.1133
 3061lim     li15481   0.735   0.022   5.174 -0.4786  0.1299 -0.5495
 3062lim     li15482   1.286   4.137   4.787  0.7877  0.9549  0.0128
 3063lim     li15483   6.369   6.645   6.400  0.0776  0.7073 -0.1019
 3064lim     li15484   1.108   4.152   0.407  1.7849  0.2839  0.4102
 3065lim     li15485   5.343   4.872   2.454 -1.2772  0.6210 -1.3828
 3066lim     li15486   3.637   2.003   1.593  0.0439  0.6970 -0.6309
 3067lim     li15487   0.537   6.383   0.017 -0.1757  0.4532  0.2382
 3068lim     li15488   0.943   5.594   4.793 -1.2124  1.2111  0.0578
 3069lim     li15489   3.164   1.124   2.493  0.3738 -1.1782  0.1519
 3070lim     li15490   1.042   5.977   3.264  0.3784  1.4479  0.0033
 3071lim     li15491   1.637   2.625   1.993  0.0117 -0.1588 -0.3876
 3072lim     li15492   1.012   1.154   3.560  0.6416  0.6975 -1.1092
 3073lim     li15493   6.336   4.477   1.017 -0.0653  0.4779 -0.2215
 3074lim     li15494   3.607   3.591   6.131  0.3875  0.6990  0.3903
 3075lim     li15495   3.774   4.199   6.814 -0.2932 -0.1296 -0.0452
 3076lim     li15496   0.419   1.639   3.294  0.1967 -1.0546 -0.2061
 3077lim     li15497   4.538   2.761   4.460 -0.7430 -0.3861 -0.3437
 3078lim     li15498   2.937   3.821   3.518  1.0506  0.4856  1.7199
 3079lim     li15499   0.250   5.723   1.461 -0.6225 -0.1861 -0.2602
 3080lim     li15500   4.115   0.535   4.975  1.0377 -0.5517 -1.1846
 3081lim     li15501   2.373   3.070   3.083  0.4392 -0.6277 -1.5036
 3082lim     li15502   2.651   2.439   5.219  0.2624  0.3707 -0.2911
 3083lim     li15503   6.011   4.125   1.573 -0.2557 -0.1989  0.5579
 3084lim     li15504   1.376   0.645   6.812 -0.1914  0.1827  0.5139
 3085lim     li15505   2.515   6.364   6.190 -0.3751 -0.6152 -0.2972
 3086lim     li15506   1.530   4.682   7.024 -1.0962  0.9255 -0.3051
 3087lim     li15507   3.823   2.160   6.438  1.9983 -1.3310 -0.3699
 3088lim     li15508   3.080   3.217   3.224  1.4496 -0.2797  0.8009
 3089lim     li15509   7.184   5.276   2.572 -0.2986 -0.8199  1.2912
 3090lim     li15510   1.113   1.376   1.170 -1.1322  0.0457 -1.2823
 3091lim     li15511   2.075   6.943   4.276  1.4821  0.0654 -0.1895
 3092lim     li15512   3.144   0.064   4.146 -0.3698  0.6537  0.1287
 3093lim     li15513   0.113   1.019   0.703 -0.2055 -0.1097  0.3586
 3094lim     li15514   5.815   5.165   0.361 -0.1573 -0.2133  0.4259
 3095lim     li15515   4.008   2.887   5.055  1.1958 -0.7239 -1.1517
 3096lim     li15516   4.334   6.083   2.190  1.8811  0.1993  0.3079
 3097lim     li15517   3.735   6.566   0.115 -0.3406 -0.2471  0.1250
 3098lim     li15518   4.108   5.932   1.498 -0.9022  0.6409 -0.5244
 3099lim     li15519   1.699   0.695   3.807  0.3455  0.0729 -0.2887
 3100lim     li15520   4.894   3.321   2.331  0.6623  0.0371  0.1497
 3101lim     li15521   4.832   4.034   5.400  0.3393  1.0429 -0.7157
 3102lim     li15522   3.994   0.419   6.810  0.1728 -0.5577 -0.4325
 3103lim     li15523   2.320   5.838   5.594 -0.6069  0.4534 -0.7544
 3104lim     li15524   3.831   2.197   5.594 -0.2533 -0.2993 -0.3548
 3105lim     li15525   2.799   0.907   6.193 -0.3424  0.3759 -0.1311
 3106lim     li15526   2.698   2.305   3.034 -0.0803  0.2820  1.0049
 3107lim     li15527   2.250   1.570   1.490  0.5338 -0.5702  0.6213
 3108lim     li15528   7.033   1.223   5.523  1.3630  1.0494 -0.4190
 3109lim     li15529   7.119   6.079   1.869 -0.2163 -0.8073 -0.4189
 3110lim     li15530   7.152   5.793   5.290 -0.2761 -0.2041 -0.0083
 3111lim     li15531   2.826   3.349   1.847 -1.1492 -0.0314  0.5470
 3112lim     li15532   4.479   5.057   5.992  0.8088 -0.0549  0.0952
 3113lim     li15533   1.349   6.106   0.970 -0.4015  0.2053  1.2968
 3114lim     li15534   2.627   4.797   0.928 -0.3082  1.2456 -0.4726
 3115lim     li15535   0.361   3.112   4.001  0.2151  0.7290 -0.1327
 3116lim     li15536   1.865   2.675   0.087  0.5857 -0.8265 -0.6387
 3117lim     li15537   3.071   6.269   2.097  0.1332 -0.4148 -0.8804
 3118lim     li15538   4.659   4.919   2.005  0.2225  1.0997 -0.4124
 3119lim     li15539   0.581   6.367   1.110 -0.1446 -0.5189  0.6353
 3120lim     li15540   6.262   0.884   3.200 -0.8946  0.6048 -0.5535
 3121lim     li15541   2.398   7.195   5.551  0.9018 -0.6474  0.1460
 3122lim     li15542   4.548   4.413   0.709 -0.3256  0.3030 -1.0594
 3123lim     li15543   2.939   0.325   1.705  0.6749 -0.6276  1.2044
 3124lim     li15544   1.683   0.311   6.114 -0.1372  0.0392  0.1211
 3125lim     li15545   5.245   0.574   3.666 -0.3127 -0.7011 -0.2922
 3126lim     li15546   3.739   2.848   6.756  1.0142 -0.5667  0.6898
 3127lim     li15547   6.495   3.393   1.473 -0.3397  0.9739 -0.2137
 3128lim     li15548   0.693   4.949   6.857  0.0579  0.0017 -0.2927
 3129lim     li15549   1.977   6.708   2.380 -0.6925  0.6716 -0.7501
 3130lim     li15550   5.522   2.333   0.774  0.4893  1.0321 -0.5273
 3131lim     li15551   6.639   2.931   6.062  0.3152  0.9110  0.0308
 3132lim     li15552   4.902   0.819   1.152  0.5641  1.0074 -0.0297
 3133lim     li15553   0.116   0.178   4.690  0.4130  0.0129 -0.3806
 3134lim     li15554   4.589   3.623   4.824  0.4544 -0.1118 -0.0813
 3135lim     li15555   7.180   4.186   0.964 -0.3087  1.2444 -0.4810
 3136lim     li15556   4.244   3.487   0.560  0.3356  0.0490 -0.7414
 3137lim     li15557   7.082   2.141   4.064  1.0574 -0.7383  0.4327
 3138lim     li15558   3.054   5.705   1.624  0.2715 -0.5413  0.4335
 3139lim     li15559   4.637   3.653   6.906 -0.1394  0.0123 -1.5864
 3140lim     li15560   3.376   5.991   5.731  1.0175  0.6021 -0.0327
 3141lim     li15561   3.028   1.504   7.124  0.9553 -0.4069 -1.6541
 3142lim     li15562   5.976   1.927   4.331  1.2007 -0.6195 -0.4576
 3143lim     li15563   2.273   3.260   4.512 -0.3370  0.9082 -1.0850
 3144lim     li15564   4.930   0.300   1.570 -0.5091 -0.4106 -0.5278
 3145lim     li15565   6.646   6.467   1.885  0.4540  1.5598 -0.4436
 3146lim     li15566   6.231   1.251   5.523  0.5885 -0.9393 -0.3670
 3147lim     li15567   2.446   5.336   1.953  0.0475  0.7385 -0.4103
 3148lim     li15568   2.491   6.965   1.526  0.6473  0.2296 -0.1324
 3149lim     li15569   3.864   1.288   5.903  0.2609  0.1346 -0.2277
 3150lim     li15570   0.688   3.454   5.435  0.0028  0.4420 -1.0011
 3151lim     li15571   1.196   0.490   1.000 -0.1714 -0.3039 -0.1165
 3152lim     li15572   2.373   5.773   0.343  0.4597  1.3773  1.5312
 3153lim     li15573   6.540   5.389   6.905 -0.1947 -0.1158 -0.3257
 3154lim     li15574   4.699   6.254   6.366 -0.9284  0.2492 -0.2126
 3155lim     li15575   0.782   7.229   6.462  0.1172  0.3901 -0.6197
 3156lim     li15576   0.706   2.529   6.620  0.4963  0.7707 -0.2655
 3157lim     li15577   2.456   1.779   6.368  0.0423  0.9229  0.6021
 3158lim     li15578   5.592   3.422   3.089  0.0175 -0.2109  0.8737
 3159lim     li15579   1.541   6.193   1.974  1.0878  0.0856  0.6096
 3160lim     li15580   0.480   5.752   0.515 -0.3212  1.5471 -0.4395
 3161lim     li15581   6.690   1.177   0.726 -1.1198 -0.1288 -1.1736
 3162lim     li15582   1.808   3.758   4.326  0.1933  0.5317  1.0312
 3163lim     li15583   3.064   1.455   5.205  1.2372  0.4798 -0.3752
 3164lim     li15584   2.516   5.004   4.904 -0.6161 -0.0957 -0.5388
 3165lim     li15585   5.228   2.941   4.303  0.0613 -0.5565  0.2900
 3166lim     li15586   5.518   0.096   4.730 -0.0146 -0.9666 -0.6178
 3167lim     li15587   6.692   3.924   7.165  0.3324  0.1237  0.9766
 3168lim     li15588   3.826   0.315   4.246  1.0445  0.4316  1.1797
 3169lim     li15589   6.322   2.636   0.824  0.0379 -1.1670  0.0014
 3170lim     li15590   1.567   2.868   4.149  0.2583  0.7181 -1.1159
 3171lim     li15591   3.191   6.000   3.394  0.6231 -0.4466  0.3927
 3172lim     li15592   3.618   3.904   0.383  1.0886  0.7313 -1.1987
 3173lim     li15593   1.152   4.840   4.146 -0.4967  0.8341  0.4977
 3174lim     li15594   2.298   3.938   2.467  0.9080  0.2831 -0.0100
 3175lim     li15595   4.731   1.151   2.108  1.1364  1.7282 -1.1588
 3176lim     li15596   3.343   5.576   0.250  0.2283  0.5012  1.0115
 3177lim     li15597   4.426   2.996   6.306  0.0235 -0.0999  2.1399
 3178lim     li15598   3.411   5.926   6.445 -0.9981 -0.5444  0.3313
 3179lim     li15599   6.133   3.678   2.723  0.6581 -0.1006 -0.7527
 3180lim     li15600   0.194   4.208   5.131 -0.0734 -0.3900  0.2837
 3181lim     li15601   1.979   1.359   2.469 -0.0754  0.1525 -0.0360
 3182lim     li15602   4.905   6.916   3.523 -0.2541  0.8924 -1.4962
 3183lim     li15603   1.802   6.953   2.980  0.0638  0.1454  0.6225
 3184lim     li15604   6.719   0.665   2.686 -0.4416 -1.5488 -1.0553
 3185lim     li15605   0.241   0.858   7.220 -0.3293 -0.0810  0.0243
 3186lim     li15606   5.383   4.955   5.876  0.3579  0.0545 -0.3842
 3187lim     li15607   1.980   5.834   2.703 -1.3990  0.7677  1.2058
 3188lim     li15608   0.466   5.364   2.378  0.7633 -0.1882  0.2599
 3189lim     li15609   5.478   5.666   0.099  1.0993 -0.3179  0.6346
 3190lim     li15610   2.495   5.145   6.965  0.0231 -0.2018  0.9039
 3191lim     li15611   6.346   4.863   5.544  0.2484  0.9888 -0.3107
 3192lim     li15612   2.898   6.986   2.590  0.7006 -1.0994 -0.7183
 3193lim     li15613   2.103   6.151   4.363  0.2207 -1.4636 -0.5277
 3194lim     li15614   6.284   5.856   5.667 -0.4398 -0.0571 -0.1592
 3195lim     li15615   1.096   4.490   1.817  0.0044 -0.2030  1.8983
 3196lim     li15616   3.018   2.505   0.048 -0.4925 -0.3861  0.2666
 3197lim     li15617   6.861   3.348   4.161 -1.1810 -0.5030  1.1691
 3198lim     li15618   1.628   6.520   6.484 -0.4256  1.3329  0.7020
 3199lim     li15619   5.495   5.588   5.159  0.2601  0.7767  0.4801
 3200lim     li15620   6.114   3.018   6.965 -0.4301 -0.7066  0.6211
 3201lim     li15621   4.935   3.782   3.721 -0.7966  0.0492  0.4178
 3202lim     li15622   5.064   6.517   5.206  0.2981 -1.4576  0.9756
 3203lim     li15623   0.963   4.568   2.997  0.7364 -1.1315 -0.1683
 3204lim     li15624   4.884   4.650   4.916  0.3900  0.1706  0.3007
 3205lim     li15625   4.819   5.296   6.455  0.0992  0.4234  0.3104
 3206lim     li15626   0.630   1.997   0.842 -0.7460  0.1170  0.2725
 3207lim     li15627   4.189   5.114   7.229  0.4785  0.7277  0.5740
 3208lim     li15628   0.162   3.995   6.157  0.8660  0.5352 -0.1374
 3209lim     li15629   2.107   3.303   0.921 -0.1760 -0.6398  0.3628
 3210lim     li15630   5.068   6.876   7.019  0.7325  0.9665  0.5836
 3211lim     li15631   2.090   3.922   3.841 -0.8189  0.1219  0.3260
 3212lim     li15632   3.889   6.248   3.721 -0.2238 -0.5198 -0.7063
 3213lim     li15633   4.195   2.040   2.936  1.2989  0.6901 -0.9696
 3214lim     li15634   3.222   4.904   4.146  0.3535  0.7718  0.6586
 3215lim     li15635   2.887   1.558   3.355 -0.6115 -0.2507  0.6961
 3216lim     li15636   1.533   2.029   5.597  0.2860 -0.0055  0.2313
 3217lim     li15637   6.591   3.890   6.155  0.8150  0.4392 -0.9021
 3218lim     li15638   3.530   4.272   1.378  0.3322  0.1484 -0.1868
 3219lim     li15639   2.242   4.227   5.205 -0.3032  0.8101 -0.5926
 3220lim     li15640   6.416   5.742   0.783  0.1489  0.0440 -0.0583
 3221lim     li15641   2.870   6.736   3.569 -0.1200 -0.7507 -1.1433
 3222lim     li15642   0.886   6.215   5.667 -0.2351  0.1003  0.0265
 3223lim     li15643   4.035   6.590   4.499 -0.4741  0.7908 -1.2922
 3224lim     li15644   3.491   6.520   5.544  0.0620  1.4545 -0.0258
 3225lim     li15645   6.985   4.707   1.827  0.4216  0.3963  0.4010
 3226lim     li15646   3.167   3.853   1.547  0.1248 -0.7167  0.1095
 3227lim     li15647   0.286   4.166   3.208 -0.2668  0.0779  0.5230
 3228lim     li15648   4.828   1.426   4.111 -0.9076  1.1507 -0.0055
 3229lim     li15649   3.524   3.307   2.459 -1.6426  0.1668 -0.3863
 3230lim     li15650   6.899   5.320   3.646 -0.2266  0.0702 -0.3967
 3231lim     li15651   1.197   4.001   2.781 -0.9774 -0.4042 -0.1639
 3232lim     li15652   1.724   4.208   1.032 -0.7891 -0.7351  0.0049
 3233lim     li15653   0.971   6.123   2.438 -0.1429  0.5756 -0.0377
 3234lim     li15654   3.017   0.864   5.207 -0.4641 -0.1797  0.7796
 3235lim     li15655   6.595   5.054   0.965  0.2615  1.9136 -0.2664
 3236lim     li15656   5.081   5.752   2.189 -0.0606  0.1782  1.6000
 3237lim     li15657   4.035   0.218   3.302 -0.8740 -0.6187  0.3925
 3238lim     li15658   4.894   2.100   2.347 -0.8508  0.0686  0.1835
 3239lim     li15659   6.474   0.056   3.863 -1.2598 -0.4848 -0.7276
 3240lim     li15660   0.554   3.542   4.419 -1.0346 -0.9304  0.4222
 3241ntf    cn115661   1.990   5.954   5.939  0.2989 -0.3623 -0.0763
 3241ntf    sn215662   1.866   5.989   5.811  0.1339 -0.5821  0.0240
 3241ntf    nn315663   1.744   5.907   5.868 -0.4365  0.0493 -0.2778
 3241ntf    sn215664   1.637   5.937   5.978 -0.1448 -0.2093  0.0779
 3241ntf    cn115665   1.494   5.957   5.867 -0.1008  0.0085  0.0607
 3241ntf    fn415666   1.942   5.893   6.046  0.7085 -0.3946  0.0912
 3241ntf    fn415667   2.084   5.871   5.894  0.4115 -0.3584  0.1493
 3241ntf    fn415668   2.053   6.066   5.972  0.2155 -0.2371 -0.3407
 3241ntf    on515669   1.851   6.132   5.817 -0.1112 -0.6010 -0.1260
 3241ntf    on515670   1.916   5.935   5.687 -0.7014  0.1171 -0.6349
 3241ntf    on515671   1.641   6.065   6.045  0.4532  0.1064 -0.5513
 3241ntf    on515672   1.617   5.819   6.059  0.0606 -0.6997 -0.5842
 3241ntf    fn415673   1.483   5.857   5.781  0.1937  0.2497 -0.2609
 3241ntf    fn415674   1.376   5.955   5.928 -0.0603  0.0666  0.1411
 3241ntf    fn415675   1.502   6.068   5.797 -0.3819  0.2765  0.4500
 3242ntf    cn115676   3.561   4.693   6.939  0.2766 -0.4409  0.0463
 3242ntf    sn215677   3.496   4.820   7.052 -0.0539 -0.2354 -0.3720
 3242ntf    nn315678   3.516   4.741   7.186 -0.0567 -0.4585 -0.5021
 3242ntf    sn215679   3.636   4.739   7.287 -0.1844 -0.1627 -0.3421
 3242ntf    cn115680   3.642   4.559   7.309 -0.0897 -0.0849  0.2988
 3242ntf    fn415681   3.533   4.570   6.979 -0.4460 -0.0764  0.6906
 3242ntf    fn415682   3.493   4.711   6.827  0.2046 -0.1052  0.1448
 3242ntf    fn415683   3.688   4.714   6.912  0.1366  0.1145 -0.1845
 3242ntf    on515684   3.583   4.932   7.030  0.1409 -0.3662 -0.2637
 3242ntf    on515685   3.358   4.845   7.019 -0.2922 -0.0393  0.7267
 3242ntf    on515686   3.608   4.795   7.417  0.1353 -0.6117 -0.0748
 3242ntf    on515687   3.766   4.762   7.229 -0.3981  1.0757 -0.3651
 3242ntf    fn415688   3.731   4.526   7.401  0.2722 -0.1327 -0.0665
 3242ntf    fn415689   3.521   4.510   7.335 -0.1127  0.0227  0.3955
 3242ntf    fn415690   3.676   4.497   7.197 -0.3408  0.1546  0.0892
 3243ntf    cn115691   3.031   6.982   6.012  0.0545 -0.0071  0.2979
 3243ntf    sn215692   3.107   6.872   6.135 -0.1276 -0.1216  0.3082
 3243ntf    nn315693   3.192   6.778   6.042 -0.7767  0.1106 -0.5314
 3243ntf    sn215694   3.312   6.828   5.952 -0.0990 -0.1968  0.1897
 3243ntf    cn115695   3.447   6.741   6.037  0.1077  0.0313  0.0938
 3243ntf    fn415696   3.113   7.072   5.962 -0.7183  0.5752  0.0547
 3243ntf    fn415697   2.975   6.914   5.914 -0.1590 -0.2850  0.6092
 3243ntf    fn415698   2.929   7.046   6.068 -0.1364  0.6945 -0.8300
 3243ntf    on515699   3.177   6.959   6.226 -0.0098  0.1848 -0.0702
 3243ntf    on515700   3.000   6.793   6.191 -0.6317 -0.2972 -0.8735
 3243ntf    on515701   3.353   6.965   5.966 -0.4943 -0.1170  0.6209
 3243ntf    on515702   3.308   6.770   5.820 -0.5684 -0.2462  0.2228
 3243ntf    fn415703   3.568   6.775   5.995 -0.1330  0.8758  0.0607
 3243ntf    fn415704   3.436   6.753   6.168 -0.0768  0.2851  0.0575
 3243ntf    fn415705   3.429   6.612   6.016 -0.6630  0.1723 -0.1162
 3244ntf    cn115706   2.477   6.330   2.970  0.3714 -0.1496  0.0029
 3244ntf    sn215707   2.473   6.371   2.793 -0.2660  0.0583  0.0621
 3244ntf    nn315708   2.371   6.267   2.734 -0.3988  0.2473 -0.0424
 3244ntf    sn215709   2.285   6.262   2.603  0.0379  0.3507 -0.3353
 3244ntf    cn115710   2.404   6.174   2.498 -0.1973 -0.5032  0.1033
 3244ntf    fn415711   2.363   6.366   3.028  0.2263 -0.3383 -0.1660
 3244ntf    fn415712   2.506   6.202   2.987  0.5592 -0.1517 -0.3347
 3244ntf    fn415713   2.570   6.392   3.041  0.1264  0.7028 -0.4125
 3244ntf    on515714   2.452   6.513   2.789 -0.4037  0.0163 -1.0181
 3244ntf    on515715   2.609   6.345   2.753 -0.2864  0.4270 -0.2439
 3244ntf    on515716   2.274   6.393   2.544  0.2322  0.2113 -0.6837
 3244ntf    on515717   2.167   6.180   2.602  0.3068 -0.0456  0.1251
 3244ntf    fn415718   2.529   6.214   2.516 -0.3635  0.1317 -0.1121
 3244ntf    fn415719   2.407   6.046   2.530 -0.1414 -0.5002  0.1106
 3244ntf    fn415720   2.365   6.172   2.372  0.2114 -0.5664 -0.0248
 3245ntf    cn115721   3.328   0.717   7.223 -0.0601 -0.0534  0.1134
 3245ntf    sn215722   3.504   0.677   7.250 -0.0654  0.1425  0.4482
 3245ntf    nn315723   3.497   0.526   7.209  0.3192  0.1682  0.2819
 3245ntf    sn215724   3.603   0.414   7.183 -0.3863 -0.4568  0.0586
 3245ntf    cn115725   3.621   0.340   7.348  0.0696 -0.0547  0.1909
 3245ntf    fn415726   3.297   0.704   7.096  0.1341  0.8585 -0.0352
 3245ntf    fn415727   3.245   0.637   7.288  0.0625  0.1268  0.5000
 3245ntf    fn415728   3.300   0.842   7.257  0.2267 -0.0086  0.1946
 3245ntf    on515729   3.584   0.750   7.156 -0.6604 -0.4201 -0.5112
 3245ntf    on515730   3.529   0.701   7.390 -0.0739 -0.1528  0.4996
 3245ntf    on515731   3.735   0.468   7.158 -0.4511 -0.1515  0.3768
 3245ntf    on515732   3.557   0.312   7.092 -0.2598 -0.0552 -0.4617
 3245ntf    fn415733   3.704   0.237   7.351  0.0979 -0.0501 -0.3941
 3245ntf    fn415734   3.678   0.426   7.430  0.3336  0.5545 -0.6196
 3245ntf    fn415735   3.509   0.309   7.412  0.0234 -0.4521 -0.0755
 3246ntf    cn115736   4.665   3.931   0.398  0.0823 -0.0679  0.2594
 3246ntf    sn215737   4.795   3.824   0.467  0.3197  0.2365  0.2865
 3246ntf    nn315738   4.915   3.843   0.367  0.2143 -0.4265  0.0270
 3246ntf    sn215739   4.938   3.754   0.240  0.0465 -0.2681 -0.1159
 3246ntf    cn115740   5.077   3.656   0.306  0.1498  0.3501  0.5917
 3246ntf    fn415741   4.652   3.911   0.268 -0.3941  0.7676  0.1733
 3246ntf    fn415742   4.555   3.898   0.464 -0.2670  0.2800 -0.1459
 3246ntf    fn415743   4.685   4.061   0.409 -0.4644  0.0118  0.3428
 3246ntf    on515744   4.833   3.886   0.591  0.2192 -0.1669  0.5170
 3246ntf    on515745   4.737   3.693   0.484 -0.0849  0.3248 -0.3671
 3246ntf    on515746   4.994   3.832   0.132  0.2375 -0.0339  0.1513
 3246ntf    on515747   4.845   3.647   0.214 -1.1394  0.5971  0.4910
 3246ntf    fn415748   5.117   3.575   0.209 -0.7575  0.2005  0.3338
 3246ntf    fn415749   5.182   3.729   0.341 -0.0132  0.5267  0.7125
 3246ntf    fn415750   5.037   3.581   0.407 -0.8486  0.1578  0.0684
 3247ntf    cn115751   4.399   3.773   2.130  0.1125 -0.0317 -0.2842
 3247ntf    sn215752   4.230   3.835   2.108 -0.0046 -0.3317 -0.2353
 3247ntf    nn315753   4.147   3.705   2.141 -0.4171  0.0106  0.0875
 3247ntf    sn215754   4.113   3.653   2.285 -0.2462  0.2134  0.2026
 3247ntf    cn115755   4.051   3.491   2.229 -0.1137 -0.0504  0.8152
 3247ntf    fn415756   4.410   3.653   2.075  0.0997 -0.4186  0.5380
 3247ntf    fn415757   4.487   3.856   2.077  0.4863 -0.6068 -0.5888
 3247ntf    fn415758   4.426   3.754   2.259 -0.2933  0.1865 -0.1674
 3247ntf    on515759   4.226   3.940   2.206 -0.1266 -1.0962  0.5911
 3247ntf    on515760   4.238   3.870   1.969  0.6768 -0.1733 -0.1600
 3247ntf    on515761   4.009   3.732   2.347 -0.1802  0.3370  0.1572
 3247ntf    on515762   4.221   3.619   2.374 -0.6687 -0.7871  0.3495
 3247ntf    fn415763   3.952   3.496   2.142  0.4521  1.1586  0.2095
 3247ntf    fn415764   4.146   3.426   2.166 -0.8884 -0.4659  0.0558
 3247ntf    fn415765   4.014   3.414   2.329  0.3479 -0.8334  0.3880
 3248ntf    cn115766   6.716   4.121   1.450  0.5022 -0.0617 -0.3439
 3248ntf    sn215767   6.757   4.152   1.275  0.5895  0.2860 -0.2619
 3248ntf    nn315768   6.700   4.016   1.221  0.2892  0.3882 -0.2024
 3248ntf    sn215769   6.595   3.983   1.109  0.1896  0.0674 -0.0149
 3248ntf    cn115770   6.705   3.889   0.998 -0.3619  0.0288 -0.5295
 3248ntf    fn415771   6.781   4.011   1.485  0.5934  0.1549  0.1778
 3248ntf    fn415772   6.760   4.215   1.532  0.2457 -0.2895  0.0590
 3248ntf    fn415773   6.588   4.102   1.478  0.6250 -0.2214  0.1062
 3248ntf    on515774   6.691   4.277   1.245 -0.6661 -0.3097 -0.0213
 3248ntf    on515775   6.901   4.156   1.268  0.5958  0.4607 -0.0681
 3248ntf    on515776   6.561   4.095   1.026  0.8668  0.0398 -0.3355
 3248ntf    on515777   6.490   3.894   1.153  0.2246 -0.0882 -0.2398
 3248ntf    fn415778   6.812   3.965   0.981 -0.2851  0.2286  0.7434
 3248ntf    fn415779   6.751   3.777   1.050 -0.3730 -0.0843 -0.7595
 3248ntf    fn415780   6.653   3.859   0.880 -0.1687  0.0071 -0.6083
 3249ntf    cn115781   6.561   6.944   0.496  0.0958  0.3630 -0.2857
 3249ntf    sn215782   6.554   6.788   0.403 -0.2913  0.2228 -0.0210
 3249ntf    nn315783   6.400   6.762   0.420 -0.2454  0.2014  0.3570
 3249ntf    sn215784   6.333   6.621   0.427 -0.0817  0.1114  0.0993
 3249ntf    cn115785   6.340   6.584   0.605  0.0028 -0.0362  0.0657
 3249ntf    fn415786   6.484   7.036   0.440 -0.1057  0.2758 -0.1510
 3249ntf    fn415787   6.513   6.934   0.619  0.4871 -1.0748 -0.2367
 3249ntf    fn415788   6.684   6.993   0.501  0.0246  0.5617 -0.4625
 3249ntf    on515789   6.595   6.830   0.271  0.3989  0.2889  0.2129
 3249ntf    on515790   6.643   6.698   0.471  0.2972  0.4286 -0.5132
 3249ntf    on515791   6.406   6.519   0.355  0.1004 -0.3800  0.9687
 3249ntf    on515792   6.190   6.622   0.404 -0.0994  0.3688  0.2227
 3249ntf    fn415793   6.308   6.457   0.620  0.0089 -0.0606 -0.1246
 3249ntf    fn415794   6.460   6.610   0.654 -0.0182 -0.0319  0.1153
 3249ntf    fn415795   6.259   6.655   0.682 -0.0939 -0.0599 -0.0130
 3250ntf    cn115796   5.655   0.224   1.610  0.1410 -0.1225  0.0046
 3250ntf    sn215797   5.664   0.045   1.581  0.0706 -0.1054 -0.1262
 3250ntf    nn315798   5.783   0.007   1.677  0.1251  0.0666 -0.1249
 3250ntf    sn215799   5.934   0.017   1.636  0.1036 -0.1637 -0.2601
 3250ntf    cn115800   5.967  -0.136   1.543 -0.3062  0.0776 -0.8026
 3250ntf    fn415801   5.619   0.248   1.735 -0.2709  0.2591 -0.1827
 3250ntf    fn415802   5.769   0.290   1.601  0.0512 -0.0202 -0.4283
 3250ntf    fn415803   5.562   0.291   1.543  0.1128  0.4347  0.5809
 3250ntf    on515804   5.539  -0.004   1.633  0.2588 -0.3182  0.1314
 3250ntf    on515805   5.691   0.023   1.441  0.2324  0.2793 -0.1567
 3250ntf    on515806   6.023   0.010   1.750  0.4679  0.3458 -0.5106
 3250ntf    on515807   5.964   0.113   1.533 -0.1017  0.0106 -0.1568
 3250ntf    fn415808   6.093  -0.137   1.504 -0.0196 -0.4323  0.1035
 3250ntf    fn415809   5.958  -0.245   1.616 -0.4835  0.1457 -0.7215
 3250ntf    fn415810   5.887  -0.146   1.438 -1.0248  0.4226 -0.3037
 3251ntf    cn115811   1.324   6.738   6.007 -0.0025  0.3357  0.4333
 3251ntf    sn215812   1.504   6.730   5.983 -0.0479  0.1294  0.1646
 3251ntf    nn315813   1.543   6.864   6.054 -0.7608  0.3332  0.1800
 3251ntf    sn215814   1.635   6.898   6.176 -0.3403 -0.2365  0.0224
 3251ntf    cn115815   1.507   6.973   6.281 -0.4478  0.0362 -0.3019
 3251ntf    fn415816   1.261   6.637   5.949 -0.4362  0.6891  0.2782
 3251ntf    fn415817   1.283   6.725   6.133 -0.3242  0.4849  0.3450
 3251ntf    fn415818   1.267   6.849   5.963 -1.0147 -0.3855 -0.1239
 3251ntf    on515819   1.540   6.612   6.058  0.1504 -0.0070 -0.1422
 3251ntf    on515820   1.519   6.736   5.840 -0.4304  0.2689  0.1286
 3251ntf    on515821   1.724   7.010   6.162 -0.5941  0.0550  0.6936
 3251ntf    on515822   1.682   6.784   6.252 -0.7519 -0.5128 -0.1314
 3251ntf    fn415823   1.557   7.041   6.382 -0.3331  0.0334 -0.3567
 3251ntf    fn415824   1.440   7.072   6.226  0.6335  1.0256  0.1357
 3251ntf    fn415825   1.420   6.880   6.318 -0.1743 -0.1651 -0.1624
 3252ntf    cn115826   1.380   7.078   5.716 -0.1378  0.3198 -0.1303
 3252ntf    sn215827   1.284   7.196   5.617  0.0190  0.4553 -0.1215
 3252ntf    nn315828   1.197   7.260   5.731 -0.2181 -0.0753 -0.0009
 3252ntf    sn215829   1.244   7.372   5.829 -0.0999  0.0187 -0.1646
 3252ntf    cn115830   1.190   7.519   5.736  0.1487  0.0915 -0.1934
 3252ntf    fn415831   1.443   6.988   5.642 -0.1634  0.8461 -0.7932
 3252ntf    fn415832   1.476   7.128   5.792  0.1555 -0.4448  0.0208
 3252ntf    fn415833   1.300   7.008   5.795  0.2296  0.0099 -0.0295
 3252ntf    on515834   1.389   7.271   5.554  0.1715  0.3356 -0.0122
 3252ntf    on515835   1.206   7.108   5.533  0.1140  0.0698  0.1927
 3252ntf    on515836   1.385   7.402   5.837 -0.1033  0.0491 -0.2241
 3252ntf    on515837   1.161   7.373   5.947  0.0676  0.6018 -0.0454
 3252ntf    fn415838   1.165   7.503   5.607  0.1464  0.3565 -0.2265
 3252ntf    fn415839   1.075   7.564   5.783  0.4800  0.2861  0.4437
 3252ntf    fn415840   1.269   7.625   5.735 -0.0613  0.2490 -0.0884
 3253ntf    cn115841   7.203   0.969   1.211 -0.1198 -0.2273 -0.0154
 3253ntf    sn215842   7.096   0.847   1.128 -0.0483 -0.4023  0.1493
 3253ntf    nn315843   7.174   0.713   1.152  0.9172  0.2026  0.4683
 3253ntf    sn215844   7.270   0.643   1.048 -0.0724 -0.0485 -0.2962
 3253ntf    cn115845   7.152   0.550   0.946  0.1764  0.0642 -0.6892
 3253ntf    fn415846   7.218   0.946   1.340 -0.1058 -0.4508 -0.0568
 3253ntf    fn415847   7.323   0.973   1.155 -0.1157 -0.2787 -0.0103
 3253ntf    fn415848   7.159   1.093   1.195 -0.0402 -0.1425  0.4216
 3253ntf    on515849   6.972   0.852   1.201  0.0417  0.6076  0.2562
 3253ntf    on515850   7.084   0.892   0.991 -0.2710  0.9970  0.6057
 3253ntf    on515851   7.353   0.542   1.109 -0.4123 -0.0718  0.1308
 3253ntf    on515852   7.335   0.735   0.958  0.2974  0.0516  0.0663
 3253ntf    fn415853   7.056   0.501   1.024  0.2061  0.4154 -0.4265
 3253ntf    fn415854   7.090   0.618   0.851 -0.1800  0.2966 -0.3007
 3253ntf    fn415855   7.210   0.449   0.884 -0.3228 -0.2818 -0.6036
 3254ntf    cn115856   6.165   0.015   6.910 -0.1027  0.3911  0.0720
 3254ntf    sn215857   6.100  -0.151   6.871  0.2682  0.3545 -0.4001
 3254ntf    nn315858   6.122  -0.233   7.003  0.0848 -0.0757 -0.6357
 3254ntf    sn215859   6.214  -0.359   7.024 -0.1622 -0.1950 -0.2662
 3254ntf    cn115860   6.209  -0.377   7.205 -0.1427 -0.0137 -0.2475
 3254ntf    fn415861   6.161   0.089   6.800 -0.2424 -0.3494 -0.4311
 3254ntf    fn415862   6.084   0.085   6.987 -0.4865  0.4274 -0.3618
 3254ntf    fn415863   6.287   0.025   6.960 -0.0033 -0.3448 -0.0102
 3254ntf    on515864   5.962  -0.125   6.841  0.2336  0.3043 -0.2869
 3254ntf    on515865   6.187  -0.187   6.762  0.5192 -0.3889  0.0407
 3254ntf    on515866   6.355  -0.350   6.999 -0.2364 -0.9285 -1.0025
 3254ntf    on515867   6.145  -0.483   6.998 -0.8489  0.1232 -0.0049
 3254ntf    fn415868   6.293  -0.464   7.258  0.2354  0.3715 -0.2135
 3254ntf    fn415869   6.246  -0.265   7.265 -0.1866 -0.1290 -0.0077
 3254ntf    fn415870   6.090  -0.407   7.255 -0.0370  0.5937  0.3839
 3255ntf    cn115871   6.622   5.092   2.501 -0.0323 -0.0485 -0.2438
 3255ntf    sn215872   6.471   5.041   2.413 -0.0212  0.0871 -0.3426
 3255ntf    nn315873   6.534   4.959   2.295 -0.2849 -0.4944 -0.0864
 3255ntf    sn215874   6.501   4.961   2.142 -0.0887  0.2210 -0.1263
 3255ntf    cn115875   6.621   5.078   2.073  0.3779 -0.0410  0.2376
 3255ntf    fn415876   6.708   4.994   2.523 -0.1474  0.0988  0.9435
 3255ntf    fn415877   6.687   5.180   2.427 -0.0153  0.0628 -0.0973
 3255ntf    fn415878   6.590   5.156   2.613 -0.0179  0.3519 -0.4657
 3255ntf    on515879   6.427   4.953   2.519  0.1432  0.1278 -0.2389
 3255ntf    on515880   6.399   5.161   2.381  0.5081  0.5812  0.2870
 3255ntf    on515881   6.366   5.000   2.109 -0.0639  0.2004 -0.2513
 3255ntf    on515882   6.546   4.834   2.089 -0.8996 -0.2554  0.2988
 3255ntf    fn415883   6.744   5.063   2.119  0.3975 -0.2563  0.1184
 3255ntf    fn415884   6.628   5.075   1.941 -0.4697  0.5946  0.1698
 3255ntf    fn415885   6.597   5.202   2.113  0.2948 -0.1303  0.4631
 3256ntf    cn115886   0.959   0.967   0.857 -0.4215  0.4485 -0.0770
 3256ntf    sn215887   0.965   0.997   1.036  0.3519 -0.1204 -0.0018
 3256ntf    nn315888   0.811   0.982   1.064  0.4822 -0.4075  0.5841
 3256ntf    sn215889   0.736   0.851   1.109  0.0506 -0.4051 -0.0996
 3256ntf    cn115890   0.761   0.865   1.289 -0.2340  0.0074 -0.0895
 3256ntf    fn415891   0.879   1.049   0.791 -0.4061  0.0902 -0.5427
 3256ntf    fn415892   1.078   0.955   0.800  0.0859  0.6911  0.9017
 3256ntf    fn415893   0.909   0.846   0.848 -0.1962  0.3406  0.1115
 3256ntf    on515894   1.051   0.896   1.092  1.0188  0.4245 -0.0304
 3256ntf    on515895   1.008   1.134   1.050 -0.1374  0.0559 -0.2050
 3256ntf    on515896   0.791   0.722   1.077  0.0865 -0.3753 -0.1572
 3256ntf    on515897   0.592   0.857   1.100  0.0768  1.0164  0.1346
 3256ntf    fn415898   0.881   0.906   1.327 -0.1815 -0.0803 -0.1593
 3256ntf    fn415899   0.674   0.952   1.338  0.2418  0.4913 -0.0825
 3256ntf    fn415900   0.738   0.749   1.347 -0.7271  0.2561  0.2144
 3257ntf    cn115901   5.832   2.864   3.100  0.1794  0.0271 -0.2155
 3257ntf    sn215902   5.930   2.995   3.020 -0.1368  0.4491  0.0824
 3257ntf    nn315903   6.066   2.919   3.003 -0.0941  0.6541 -0.5339
 3257ntf    sn215904   6.147   2.888   2.873  0.0491 -0.1755 -0.2494
 3257ntf    cn115905   6.243   2.742   2.925 -0.2556 -0.2779  0.0261
 3257ntf    fn415906   5.903   2.814   3.200 -0.4693 -0.3992  0.0392
 3257ntf    fn415907   5.719   2.904   3.155  0.3938  0.2671  0.0517
 3257ntf    fn415908   5.804   2.774   3.007 -0.8841 -0.2447  0.3462
 3257ntf    on515909   5.863   3.011   2.893  0.0391  0.0188 -0.0668
 3257ntf    on515910   5.930   3.111   3.105  0.1839  0.7132 -0.2800
 3257ntf    on515911   6.243   2.992   2.845 -0.5447  0.4290 -0.0649
 3257ntf    on515912   6.075   2.836   2.759 -0.3240 -0.2175  0.0071
 3257ntf    fn415913   6.331   2.693   2.840  0.4981  0.0679  0.5992
 3257ntf    fn415914   6.314   2.781   3.030  0.4998 -0.3011 -0.4684
 3257ntf    fn415915   6.176   2.634   2.964  0.1712 -0.4432  0.3111
 3258ntf    cn115916   1.847   5.192   6.832  0.2016 -0.3205 -0.1389
 3258ntf    sn215917   2.004   5.143   6.909  0.0933 -0.1967  0.1634
 3258ntf    nn315918   2.033   5.015   6.822 -0.0662 -0.1658  0.0652
 3258ntf    sn215919   1.985   4.867   6.844 -0.3959 -0.0391  0.2139
 3258ntf    cn115920   1.946   4.821   6.673 -0.3652  0.2681  0.1238
 3258ntf    fn415921   1.802   5.308   6.879  0.2512 -0.1614 -0.4861
 3258ntf    fn415922   1.849   5.186   6.700 -0.2604  0.4208 -0.1861
 3258ntf    fn415923   1.757   5.097   6.853 -0.2174  0.1756  0.3497
 3258ntf    on515924   2.094   5.249   6.872 -0.6182  0.2777 -0.2158
 3258ntf    on515925   1.982   5.120   7.050 -0.0142 -0.3173  0.1275
 3258ntf    on515926   1.853   4.865   6.902 -0.5190 -0.3862 -0.0797
 3258ntf    on515927   2.087   4.775   6.889 -0.2770  0.3496  0.7661
 3258ntf    fn415928   1.896   4.700   6.663  0.3925 -0.0826  0.4887
 3258ntf    fn415929   1.863   4.898   6.605 -0.1538 -0.0225 -0.4701
 3258ntf    fn415930   2.052   4.813   6.593 -0.2768  0.0037  0.2670
 3259ntf    cn115931   2.071   2.499   3.527  0.1808  0.4889  0.1764
 3259ntf    sn215932   1.891   2.512   3.502  0.1727  0.0405 -0.0166
 3259ntf    nn315933   1.864   2.625   3.608 -0.3148  0.3411 -0.4544
 3259ntf    sn215934   1.756   2.738   3.614 -0.7191 -0.0662  0.0209
 3259ntf    cn115935   1.870   2.879   3.600 -0.0706 -0.6090 -0.2105
 3259ntf    fn415936   2.137   2.610   3.500  0.3148  0.2672 -0.4378
 3259ntf    fn415937   2.090   2.492   3.658  0.2831 -0.8937  0.0997
 3259ntf    fn415938   2.134   2.398   3.469 -0.5924  0.5126 -0.7290
 3259ntf    on515939   1.882   2.550   3.363  1.1399  0.1939 -0.0456
 3259ntf    on515940   1.845   2.384   3.549  0.0193 -0.0302 -0.3523
 3259ntf    on515941   1.695   2.742   3.745  0.0266  0.4599  0.3611
 3259ntf    on515942   1.671   2.752   3.498 -0.1558  0.0512 -0.3840
 3259ntf    fn415943   1.801   2.992   3.593  0.2746 -0.3714  0.2285
 3259ntf    fn415944   1.961   2.886   3.696 -0.3930 -1.0514  0.1288
 3259ntf    fn415945   1.945   2.876   3.491 -0.0411  0.2888 -0.2247
 3260ntf    cn115946   4.279   5.761   6.598  0.0623 -0.2970 -0.1608
 3260ntf    sn215947   4.140   5.707   6.701  0.0788 -0.1355 -0.0543
 3260ntf    nn315948   4.168   5.821   6.806  0.3108 -0.9058  0.7330
 3260ntf    sn215949   4.080   5.919   6.891 -0.1001 -0.2793 -0.3809
 3260ntf    cn115950   4.112   6.082   6.819  0.5180 -0.1138  0.2571
 3260ntf    fn415951   4.257   5.883   6.552  0.1005 -0.4231 -0.5247
 3260ntf    fn415952   4.395   5.763   6.662  0.0910  0.7286 -0.2248
 3260ntf    fn415953   4.285   5.686   6.488  0.2309 -0.1097 -0.2801
 3260ntf    on515954   4.021   5.719   6.620  0.2399 -0.9656 -0.4221
 3260ntf    on515955   4.169   5.576   6.753  0.6404  0.2613  0.6516
 3260ntf    on515956   4.127   5.944   7.025  0.1495 -0.0219 -0.5149
 3260ntf    on515957   3.939   5.899   6.875 -0.2880  0.5281  0.2008
 3260ntf    fn415958   4.068   6.082   6.695  0.0509  0.7693  0.4105
 3260ntf    fn415959   4.045   6.178   6.882 -0.1729 -0.3969 -0.0479
 3260ntf    fn415960   4.241   6.110   6.812  0.3554  0.4872 -0.4879
 3261ntf    cn115961   4.749   3.280   6.087 -0.7797  0.1360  0.2226
 3261ntf    sn215962   4.623   3.156   6.042 -0.4390 -0.2012  0.1996
 3261ntf    nn315963   4.554   3.231   5.923  0.1086 -0.5829 -0.3675
 3261ntf    sn215964   4.422   3.313   5.900  0.3928 -0.0422 -0.0948
 3261ntf    cn115965   4.466   3.489   5.913  0.3227 -0.0189 -0.1703
 3261ntf    fn415966   4.740   3.402   6.036 -0.5188  0.0729  0.0234
 3261ntf    fn415967   4.742   3.301   6.217  0.1104 -0.0339  0.3012
 3261ntf    fn415968   4.869   3.229   6.068 -0.5735  0.6440  0.1577
 3261ntf    on515969   4.699   3.039   6.003  0.3065  0.3735 -0.1001
 3261ntf    on515970   4.553   3.138   6.167 -0.8858  0.6310  0.0747
 3261ntf    on515971   4.327   3.293   6.006  0.2543 -0.3124 -0.2655
 3261ntf    on515972   4.376   3.291   5.765 -0.0020 -0.4645  0.1069
 3261ntf    fn415973   4.471   3.538   6.036 -0.1409 -0.2394 -0.0624
 3261ntf    fn415974   4.581   3.511   5.851  0.0335  0.4247 -0.5542
 3261ntf    fn415975   4.381   3.570   5.853  0.0481  0.1414  0.4253
 3262ntf    cn115976   3.261   4.685   2.634 -0.1965 -0.0534 -0.2337
 3262ntf    sn215977   3.287   4.842   2.545  0.5037  0.1075  0.2458
 3262ntf    nn315978   3.138   4.863   2.500  0.5870  0.0466 -0.0589
 3262ntf    sn215979   3.082   4.857   2.354  0.2858  0.0429  0.0569
 3262ntf    cn115980   3.026   4.684   2.358  0.0228  0.1221 -0.1506
 3262ntf    fn415981   3.162   4.698   2.721 -0.2356  0.4767 -0.3550
 3262ntf    fn415982   3.227   4.586   2.554 -0.4752 -0.0313 -0.1429
 3262ntf    fn415983   3.376   4.645   2.687 -0.2547 -0.2548 -0.2594
 3262ntf    on515984   3.336   4.933   2.646  0.0872  0.4539  0.1369
 3262ntf    on515985   3.385   4.802   2.447  0.1952 -0.6866  0.2526
 3262ntf    on515986   3.173   4.855   2.242 -0.1795  0.0533 -0.3229
 3262ntf    on515987   2.957   4.927   2.338  0.1157 -0.4140 -0.6775
 3262ntf    fn415988   3.123   4.594   2.362  0.0912  0.2219  0.4904
 3262ntf    fn415989   2.945   4.664   2.460  0.5499 -0.4716  0.1530
 3262ntf    fn415990   2.951   4.659   2.252 -0.5873 -0.2499  0.3671
 3263ntf    cn115991   5.770   2.860   4.449  0.0349 -0.0774 -0.0321
 3263ntf    sn215992   5.939   2.794   4.462 -0.0421 -0.3286 -0.2843
 3263ntf    nn315993   6.017   2.844   4.335  0.1465 -0.0367 -0.0561
 3263ntf    sn215994   6.031   2.762   4.201  0.0530  0.1059 -0.1541
 3263ntf    cn115995   6.187   2.681   4.245  0.1137  0.5350  0.4416
 3263ntf    fn415996   5.721   2.832   4.329  0.0255 -0.4221  0.0501
 3263ntf    fn415997   5.681   2.808   4.532 -0.5017  0.7115 -0.1020
 3263ntf    fn415998   5.753   2.990   4.459  0.5004 -0.0074 -0.1178
 3263ntf    on515999   5.994   2.856   4.580 -0.0961 -0.3659 -0.2401
 3263ntf    on516000   5.929   2.651   4.473 -1.4521 -0.2302 -0.1274
 3263ntf    on516001   6.058   2.842   4.084  0.1933  0.2460 -0.0255
 3263ntf    on516002   5.934   2.658   4.180  0.3667 -0.2056 -0.0619
 3263ntf    fn416003   6.174   2.606   4.353 -0.6869 -0.2669 -0.1989
 3263ntf    fn416004   6.224   2.596   4.150 -0.0926  0.6527  0.2550
 3263ntf    fn416005   6.294   2.755   4.268  0.1557  0.6231 -0.0266
 3264ntf    cn116006   4.158   5.415   0.404 -0.3701 -0.2667  0.0959
 3264ntf    sn216007   4.286   5.294   0.449  0.0517  0.1460  0.0112
 3264ntf    nn316008   4.419   5.372   0.417  0.3192 -0.1842  0.3159
 3264ntf    sn216009   4.498   5.373   0.281  0.3162 -0.0278  0.3159
 3264ntf    cn116010   4.605   5.517   0.312  0.3287  0.0718 -0.1912
 3264ntf    fn416011   4.042   5.359   0.436 -0.2013 -0.5251  0.2553
 3264ntf    fn416012   4.173   5.525   0.477  0.2630 -0.1441 -0.2160
 3264ntf    fn416013   4.150   5.449   0.276 -0.2885 -0.2528  0.0946
 3264ntf    on516014   4.261   5.284   0.590  1.1014  0.4477  0.2288
 3264ntf    on516015   4.243   5.179   0.373 -0.2824 -0.0254  0.4583
 3264ntf    on516016   4.411   5.402   0.170  0.1202 -0.5040  0.3444
 3264ntf    on516017   4.583   5.257   0.277 -0.2166 -0.4323  0.5282
 3264ntf    fn416018   4.535   5.629   0.315  0.5696  0.2147  0.0654
 3264ntf    fn416019   4.665   5.519   0.430 -0.1674  0.0673  0.0614
 3264ntf    fn416020   4.704   5.521   0.224  0.0641  0.0500 -0.4959
 3265ntf    cn116021   5.091   6.824   4.033 -0.3893  0.3287 -0.1792
 3265ntf    sn216022   4.963   6.741   4.133 -0.0767  0.2135  0.1262
 3265ntf    nn316023   4.955   6.612   4.045  0.3550  0.2675  0.0028
 3265ntf    sn216024   4.857   6.490   4.062  0.4221  0.1950 -0.1198
 3265ntf    cn116025   4.971   6.374   4.142 -0.2074 -0.3391  0.0175
 3265ntf    fn416026   5.069   6.838   3.904  0.4362  0.2431 -0.3315
 3265ntf    fn416027   5.111   6.945   4.081 -0.2186 -0.0526  0.7333
 3265ntf    fn416028   5.208   6.763   4.040 -0.3682  0.3948  0.0707
 3265ntf    on516029   5.030   6.724   4.260  0.5088  0.3973 -0.1509
 3265ntf    on516030   4.848   6.827   4.129 -0.4544 -0.2493  0.8428
 3265ntf    on516031   4.830   6.424   3.937 -0.3464  0.0304  0.1245
 3265ntf    on516032   4.741   6.512   4.145 -0.1788  0.5072 -1.0304
 3265ntf    fn416033   5.079   6.352   4.069  0.2526  0.2445  0.5091
 3265ntf    fn416034   5.014   6.429   4.255 -0.3113 -0.0225 -0.0958
 3265ntf    fn416035   4.916   6.257   4.168  0.4854 -0.6710  0.0313
 3266ntf    cn116036   0.140   0.292   6.530  0.2610 -0.0090  0.0439
 3266ntf    sn216037   0.224   0.133   6.499  0.1637 -0.0571  0.0259
 3266ntf    nn316038   0.098   0.041   6.479  0.4152 -0.4669  0.3213
 3266ntf    sn216039   0.034  -0.009   6.345  0.2376  0.1667  0.1663
 3266ntf    cn116040   0.107  -0.175   6.344 -0.3260 -0.0853  0.1847
 3266ntf    fn416041   0.234   0.372   6.576  0.4948 -0.3947  0.2479
 3266ntf    fn416042   0.083   0.345   6.424  0.0236  0.1565  0.2519
 3266ntf    fn416043   0.041   0.276   6.617  0.0917 -0.1761 -0.1769
 3266ntf    on516044   0.308   0.164   6.386 -0.1679  0.0893 -0.1842
 3266ntf    on516045   0.297   0.112   6.621  0.3863 -0.3781 -0.1626
 3266ntf    on516046   0.076   0.054   6.222  0.2107 -0.4725 -0.1709
 3266ntf    on516047  -0.106  -0.043   6.363  0.2358  0.1137  0.0514
 3266ntf    fn416048   0.077  -0.254   6.242 -0.3315  0.2754 -0.0945
 3266ntf    fn416049   0.237  -0.172   6.367 -0.2562 -0.7667 -0.0914
 3266ntf    fn416050   0.068  -0.252   6.444 -0.3608 -0.9800 -0.5027
 3267ntf    cn116051   5.563   5.189   3.001 -0.2438  0.3604  0.2423
 3267ntf    sn216052   5.448   5.319   2.948 -0.3997  0.1623  0.0963
 3267ntf    nn316053   5.327   5.276   3.039 -0.3312 -0.0065  0.1062
 3267ntf    sn216054   5.173   5.304   3.034 -0.3357 -0.0506 -0.0152
 3267ntf    cn116055   5.099   5.141   3.001  0.0829 -0.2572  0.0585
 3267ntf    fn416056   5.689   5.203   2.961  0.0663 -0.5829  0.8655
 3267ntf    fn416057   5.554   5.160   3.129  0.3751 -0.1565  0.1774
 3267ntf    fn416058   5.545   5.074   2.938  0.5220  0.3056  0.1040
 3267ntf    on516059   5.508   5.445   2.985 -0.7053  0.2312  0.3694
 3267ntf    on516060   5.423   5.286   2.810  0.8477  0.4755 -0.2107
 3267ntf    on516061   5.135   5.374   2.914  0.6019  0.0651 -0.2500
 3267ntf    on516062   5.123   5.349   3.161  0.0619  0.5267 -0.0604
 3267ntf    fn416063   4.973   5.149   2.958  0.4182 -0.3430 -0.9817
 3267ntf    fn416064   5.164   5.081   2.902  0.0598  0.2893 -0.2971
 3267ntf    fn416065   5.106   5.054   3.100  0.4637 -0.3442 -0.0426
 3268ntf    cn116066   2.784   1.346   6.657 -0.4386 -0.1172 -0.4274
 3268ntf    sn216067   2.842   1.421   6.502  0.2546  0.3918  0.0705
 3268ntf    nn316068   2.971   1.492   6.555  0.6820 -0.0512 -0.3697
 3268ntf    sn216069   2.985   1.634   6.621 -0.2663 -0.1179 -0.0121
 3268ntf    cn116070   3.135   1.580   6.708 -0.1600 -0.0400 -0.1473
 3268ntf    fn416071   2.754   1.434   6.751 -0.5314 -0.4386 -0.1555
 3268ntf    fn416072   2.667   1.287   6.640 -0.3295 -0.3586 -0.3395
 3268ntf    fn416073   2.870   1.254   6.696 -0.2500  0.3271  0.2381
 3268ntf    on516074   2.880   1.311   6.418  1.3086  0.3406  0.6060
 3268ntf    on516075   2.727   1.504   6.474  0.3230  0.4578 -0.0176
 3268ntf    on516076   2.891   1.670   6.725 -1.0511 -0.6845 -0.5131
 3268ntf    on516077   3.020   1.734   6.523  0.0553 -0.3177 -0.1045
 3268ntf    fn416078   3.110   1.517   6.821  0.6032  0.6156  0.3959
 3268ntf    fn416079   3.212   1.515   6.621  0.2681  0.1930  0.0572
 3268ntf    fn416080   3.204   1.687   6.742  0.0410 -0.4916  0.9048
 3269ntf    cn116081   5.847   6.152   2.442 -0.1714 -0.0491  0.4318
 3269ntf    sn216082   5.843   5.998   2.345  0.1572 -0.0132  0.3589
 3269ntf    nn316083   5.689   5.970   2.344  0.0103  0.7781  0.1574
 3269ntf    sn216084   5.587   5.995   2.227  0.3311  0.0415 -0.2864
 3269ntf    cn116085   5.494   6.125   2.313  0.7239 -0.1168  0.3795
 3269ntf    fn416086   5.784   6.135   2.557 -0.6053  0.1134  0.2190
 3269ntf    fn416087   5.969   6.194   2.471 -0.4227  0.3091  0.9638
 3269ntf    fn416088   5.787   6.259   2.393  0.2567  0.4071  0.9035
 3269ntf    on516089   5.909   6.020   2.219 -0.0342  0.1023  0.2783
 3269ntf    on516090   5.904   5.900   2.432  0.6170  0.1236  0.1912
 3269ntf    on516091   5.490   5.888   2.216  0.3180 -0.0921  1.0335
 3269ntf    on516092   5.630   6.056   2.104 -0.0050  0.5855 -0.1392
 3269ntf    fn416093   5.420   6.090   2.417  0.2910 -0.0712  0.0883
 3269ntf    fn416094   5.578   6.224   2.338  0.8145  0.0573 -0.5864
 3269ntf    fn416095   5.411   6.184   2.229  0.4521 -0.2795  0.5302
 3270ntf    cn116096   5.956   0.614   4.045  0.1206 -0.3022 -0.9035
 3270ntf    sn216097   6.116   0.531   4.066  0.3145  0.3358  0.2059
 3270ntf    nn316098   6.187   0.607   3.948  0.0706 -0.0087 -0.1622
 3270ntf    sn216099   6.320   0.565   3.875  0.1291 -0.0446 -0.0352
 3270ntf    cn116100   6.419   0.700   3.946  0.1182  0.0168 -0.1381
 3270ntf    fn416101   5.975   0.745   4.039 -0.4206 -0.1721 -0.0676
 3270ntf    fn416102   5.895   0.577   3.933 -0.6525 -0.0416 -0.5773
 3270ntf    fn416103   5.866   0.585   4.137  0.2320  0.5652 -0.5085
 3270ntf    on516104   6.164   0.553   4.200  0.5991 -0.5049  0.2480
 3270ntf    on516105   6.086   0.396   4.026 -0.1191  0.5252 -0.1141
 3270ntf    on516106   6.330   0.579   3.732  0.0746 -1.6311 -0.2130
 3270ntf    on516107   6.383   0.449   3.934 -0.4211  0.0231  0.7149
 3270ntf    fn416108   6.411   0.706   4.077  0.1984 -0.2287 -0.1220
 3270ntf    fn416109   6.546   0.698   3.911  0.0152  0.4101 -0.5531
 3270ntf    fn416110   6.373   0.814   3.897 -0.0637 -0.0756 -0.1846
 3271ntf    cn116111   2.538   4.727   5.408  0.2447 -0.0348 -0.0966
 3271ntf    sn216112   2.585   4.563   5.343  0.0063 -0.2877  0.3739
 3271ntf    nn316113   2.635   4.503   5.480  1.1441 -0.0529  0.0673
 3271ntf    sn216114   2.644   4.353   5.525  0.5130 -0.2244 -0.3597
 3271ntf    cn116115   2.497   4.354   5.631  0.6688  0.2323 -0.1479
 3271ntf    fn416116   2.645   4.795   5.447  0.1010  0.2333 -0.1750
 3271ntf    fn416117   2.467   4.800   5.324 -0.6436 -0.4376  0.3003
 3271ntf    fn416118   2.461   4.716   5.514 -0.1760 -0.4806 -0.4428
 3271ntf    on516119   2.460   4.512   5.291 -0.0203  0.1157  0.0441
 3271ntf    on516120   2.683   4.602   5.245 -0.0499 -0.6609  0.1683
 3271ntf    on516121   2.756   4.331   5.614 -0.3637  0.4964  0.9445
 3271ntf    on516122   2.610   4.247   5.432  0.3640 -0.2738 -0.2486
 3271ntf    fn416123   2.509   4.434   5.737 -0.6354 -0.2963  0.4168
 3271ntf    fn416124   2.385   4.389   5.570  0.3760  0.1474  0.3288
 3271ntf    fn416125   2.468   4.233   5.676  0.0740  0.5024  0.2022
 3272ntf    cn116126   5.894   5.287   6.841  0.1105 -0.0124 -0.5420
 3272ntf    sn216127   5.725   5.311   6.777  0.0058  0.1295 -0.2123
 3272ntf    nn316128   5.641   5.268   6.903 -0.1888  0.1699 -0.3289
 3272ntf    sn216129   5.559   5.137   6.925 -0.0273  0.1489  0.1647
 3272ntf    cn116130   5.416   5.160   6.815  0.1760  0.2304 -0.0821
 3272ntf    fn416131   5.937   5.394   6.906 -0.7998 -0.0019  0.0540
 3272ntf    fn416132   5.907   5.179   6.915 -0.1412 -0.1062 -0.6349
 3272ntf    fn416133   5.981   5.273   6.742  0.3328 -0.5833 -0.2672
 3272ntf    on516134   5.725   5.454   6.759  0.4469  0.2111  0.3941
 3272ntf    on516135   5.716   5.231   6.657 -0.6485 -0.1126 -0.0070
 3272ntf    on516136   5.498   5.134   7.056 -1.2393 -0.4643 -0.3868
 3272ntf    on516137   5.623   5.017   6.878 -0.2172  0.0842  0.0678
 3272ntf    fn416138   5.451   5.195   6.692  0.2710 -0.3828 -0.2366
 3272ntf    fn416139   5.352   5.044   6.811  0.6145 -0.0247  0.2367
 3272ntf    fn416140   5.321   5.241   6.858  0.3889  0.2037  0.4390
 3273ntf    cn116141   4.883   5.486   4.914 -0.3269 -0.3033 -0.2738
 3273ntf    sn216142   4.875   5.571   5.075  0.0813 -0.0543 -0.3841
 3273ntf    nn316143   4.894   5.714   5.014  0.2834 -0.1634 -0.5792
 3273ntf    sn216144   5.016   5.807   4.981  0.2779  0.1765  0.3480
 3273ntf    cn116145   4.956   5.946   5.082 -0.2088  0.1419  0.1096
 3273ntf    fn416146   4.854   5.358   4.929  0.2212 -0.4087 -0.1030
 3273ntf    fn416147   4.794   5.538   4.832 -0.2079 -0.5330 -0.5489
 3273ntf    fn416148   5.005   5.490   4.865 -0.1297  0.2904  0.2514
 3273ntf    on516149   4.744   5.546   5.129  0.3784  0.7414  0.7435
 3273ntf    on516150   4.984   5.516   5.153 -0.1187 -0.3413 -0.3024
 3273ntf    on516151   5.006   5.860   4.848  0.1906 -1.2287 -0.2162
 3273ntf    on516152   5.148   5.778   5.032  0.3404 -0.3766 -0.1189
 3273ntf    fn416153   4.834   5.926   5.128 -0.0917 -0.0666  0.3348
 3273ntf    fn416154   5.027   5.972   5.191  0.3630 -0.0322 -0.2152
 3273ntf    fn416155   4.973   6.059   5.015  0.3385  0.1595  0.2675
 3274ntf    cn116156   3.773   1.637   6.080 -0.2345 -0.0450 -0.1679
 3274ntf    sn216157   3.797   1.579   6.250 -0.3654 -0.1338 -0.1799
 3274ntf    nn316158   3.655   1.606   6.312 -0.4868 -0.5121 -0.2877
 3274ntf    sn216159   3.541   1.503   6.341 -0.2828 -0.5206  0.5278
 3274ntf    cn116160   3.552   1.481   6.521  0.0265 -0.4585  0.5152
 3274ntf    fn416161   3.659   1.587   6.034 -0.2990 -0.1722  0.1307
 3274ntf    fn416162   3.771   1.769   6.071 -0.1545 -0.0121  0.2539
 3274ntf    fn416163   3.875   1.599   6.005  0.0367  0.5376 -0.0989
 3274ntf    on516164   3.846   1.443   6.245  0.0059 -0.0012 -0.1615
 3274ntf    on516165   3.890   1.682   6.289 -0.5448  0.2876 -0.8488
 3274ntf    on516166   3.567   1.369   6.292 -0.2543 -0.4219  0.2710
 3274ntf    on516167   3.412   1.567   6.332  0.2728  0.5027 -0.3695
 3274ntf    fn416168   3.482   1.380   6.569 -0.7253 -0.3227 -0.2643
 3274ntf    fn416169   3.682   1.465   6.540  0.1210 -0.2188  0.0891
 3274ntf    fn416170   3.512   1.587   6.589  0.4345  0.3410 -0.4640
 3275ntf    cn116171   5.555   5.491   0.637 -0.3817 -0.3917  0.0187
 3275ntf    sn216172   5.473   5.375   0.751 -0.2985 -0.1695  0.3086
 3275ntf    nn316173   5.336   5.357   0.676 -0.1081  0.6276 -0.2457
 3275ntf    sn216174   5.310   5.299   0.532 -0.0175  0.1717 -0.0791
 3275ntf    cn116175   5.158   5.207   0.573  0.1676  0.0425  0.3281
 3275ntf    fn416176   5.670   5.537   0.684 -0.5176  0.0303 -0.0539
 3275ntf    fn416177   5.557   5.443   0.514 -0.2891  0.0228 -0.1432
 3275ntf    fn416178   5.477   5.599   0.631  0.4033  0.1922  0.1837
 3275ntf    on516179   5.566   5.265   0.756  0.6187  0.5896  0.0873
 3275ntf    on516180   5.455   5.454   0.870  0.0931 -0.7187  0.7367
 3275ntf    on516181   5.402   5.200   0.482 -0.5603 -0.6483  0.5127
 3275ntf    on516182   5.269   5.401   0.440  0.2774  0.4526  0.0992
 3275ntf    fn416183   5.182   5.130   0.677  0.0756 -0.2171  0.1569
 3275ntf    fn416184   5.054   5.285   0.594  0.1001 -0.1731  0.7962
 3275ntf    fn416185   5.136   5.129   0.469 -0.2411  0.2590  0.2512
 3276ntf    cn116186   6.904   3.547   0.005 -0.0447  0.1033  0.2090
 3276ntf    sn216187   7.004   3.577   0.154  0.4062 -0.0881 -0.0547
 3276ntf    nn316188   6.928   3.693   0.226  0.2170 -0.2367 -0.0142
 3276ntf    sn216189   6.799   3.677   0.315  0.0482  0.0809 -0.2010
 3276ntf    cn116190   6.876   3.652   0.478 -0.0848 -0.3895 -0.2117
 3276ntf    fn416191   6.796   3.474   0.025 -0.0940  0.2720  0.5556
 3276ntf    fn416192   6.866   3.661  -0.051 -0.2163 -0.0571 -0.0013
 3276ntf    fn416193   6.958   3.480  -0.095  0.1171 -0.1893  0.4926
 3276ntf    on516194   7.020   3.456   0.232 -0.4647 -0.7299 -0.8400
 3276ntf    on516195   7.124   3.625   0.090 -0.0659 -0.3564 -1.1733
 3276ntf    on516196   6.726   3.554   0.306  0.7799 -0.4023  0.3551
 3276ntf    on516197   6.724   3.800   0.324  0.1395  0.1424 -0.2766
 3276ntf    fn416198   6.949   3.757   0.510 -0.0408 -0.3084 -0.5754
 3276ntf    fn416199   6.792   3.639   0.580  0.0414 -0.2707 -0.0944
 3276ntf    fn416200   6.965   3.555   0.474  0.4210  0.0716 -0.1481
 3277ntf    cn116201   4.442   6.298   5.188 -0.1999  0.1652 -0.3466
 3277ntf    sn216202   4.592   6.339   5.283  0.0850 -0.3061 -0.5904
 3277ntf    nn316203   4.528   6.356   5.425  0.1297 -0.3884 -0.5607
 3277ntf    sn216204   4.513   6.256   5.545  0.1285  0.1576 -0.1015
 3277ntf    cn116205   4.335   6.223   5.525  0.1236 -0.0436  0.2726
 3277ntf    fn416206   4.457   6.321   5.058  0.3201  0.6978 -0.2005
 3277ntf    fn416207   4.412   6.170   5.202 -0.2821  0.2465  0.2695
 3277ntf    fn416208   4.337   6.372   5.220  0.0108  0.3328 -0.0290
 3277ntf    on516209   4.687   6.231   5.271  0.4733 -0.1148  0.6980
 3277ntf    on516210   4.624   6.467   5.223 -0.8311  0.4592  0.5260
 3277ntf    on516211   4.530   6.328   5.669  0.1921  0.0100 -0.0234
 3277ntf    on516212   4.567   6.123   5.533 -0.0394  0.1167 -0.4265
 3277ntf    fn416213   4.267   6.326   5.478 -0.1704 -0.1713  0.4120
 3277ntf    fn416214   4.309   6.134   5.431  0.6318 -0.1703  0.2464
 3277ntf    fn416215   4.278   6.189   5.639 -1.0027  0.1950 -0.2097
 3278ntf    cn116216   2.129   5.274   3.420  0.3466  0.0129  0.0316
 3278ntf    sn216217   2.140   5.129   3.530  0.1063  0.0319  0.0811
 3278ntf    nn316218   2.256   5.045   3.467  0.0661 -0.6644  0.9219
 3278ntf    sn216219   2.244   4.895   3.424  0.1627 -0.4127 -0.0039
 3278ntf    cn116220   2.286   4.802   3.574  0.3225 -0.1030  0.1437
 3278ntf    fn416221   2.180   5.246   3.301  0.4733 -0.6272  0.2314
 3278ntf    fn416222   2.007   5.322   3.402  0.1130 -0.6495 -0.1635
 3278ntf    fn416223   2.198   5.377   3.466 -0.1989  0.2988  0.2228
 3278ntf    on516224   2.175   5.185   3.658 -0.2106  0.2116  0.0926
 3278ntf    on516225   2.006   5.077   3.520 -0.0621  0.4622  0.0476
 3278ntf    on516226   2.355   4.867   3.337  0.3994  0.1373  0.1223
 3278ntf    on516227   2.113   4.845   3.389 -0.0247 -0.0318  0.1514
 3278ntf    fn416228   2.215   4.834   3.681  0.3525  0.8106 -0.1097
 3278ntf    fn416229   2.268   4.671   3.561 -0.4446  0.0430 -0.2622
 3278ntf    fn416230   2.414   4.807   3.607  0.3362  0.2666  0.0286
 3279ntf    cn116231   1.464   5.346   6.903 -0.0526 -0.0708  0.1745
 3279ntf    sn216232   1.287   5.385   6.890  0.0181  0.1915  0.0061
 3279ntf    nn316233   1.281   5.437   7.038  0.7793 -0.0871  0.1364
 3279ntf    sn216234   1.221   5.372   7.167  0.0606 -0.0760 -0.1859
 3279ntf    cn116235   1.285   5.478   7.301  0.2448 -0.3121 -0.0854
 3279ntf    fn416236   1.504   5.261   6.810  0.4011  0.0282  0.2793
 3279ntf    fn416237   1.533   5.457   6.884 -0.1164 -0.0136  0.2691
 3279ntf    fn416238   1.490   5.302   7.025 -0.6465 -1.3554 -0.1440
 3279ntf    on516239   1.284   5.486   6.787  0.1641  0.6527  0.4506
 3279ntf    on516240   1.222   5.260   6.861  0.0586  0.0919  0.3426
 3279ntf    on516241   1.286   5.247   7.200  0.3274 -0.0170 -0.4804
 3279ntf    on516242   1.079   5.383   7.191  0.1776  0.2629  0.3781
 3279ntf    fn416243   1.223   5.594   7.308  0.2018 -0.3709  0.5586
 3279ntf    fn416244   1.275   5.419   7.419  0.4296 -0.0039  0.0840
 3279ntf    fn416245   1.413   5.505   7.279  0.1996  0.1883  0.2652
 3280ntf    cn116246   3.374   3.345   0.670  0.2036 -0.1620  0.0231
 3280ntf    sn216247   3.359   3.243   0.520 -0.1939 -0.0496 -0.0153
 3280ntf    nn316248   3.216   3.279   0.467 -0.2108  0.0780  0.1174
 3280ntf    sn216249   3.087   3.209   0.523 -0.4420  0.2382 -0.2112
 3280ntf    cn116250   2.977   3.354   0.531 -0.2957  0.3312  0.1543
 3280ntf    fn416251   3.287   3.301   0.760  0.0674  0.3731  0.1573
 3280ntf    fn416252   3.497   3.345   0.719 -0.1040 -0.2598  0.8043
 3280ntf    fn416253   3.344   3.473   0.654 -0.1398 -0.1747  0.5430
 3280ntf    on516254   3.454   3.299   0.426  0.1288  0.2651  0.4952
 3280ntf    on516255   3.378   3.108   0.568 -0.1427  0.1356  0.4887
 3280ntf    on516256   3.103   3.166   0.660 -0.3648  0.6647 -0.0829
 3280ntf    on516257   3.030   3.117   0.429 -0.5975 -0.0438  0.1564
 3280ntf    fn416258   3.035   3.460   0.476  0.1601  0.0346  0.0594
 3280ntf    fn416259   2.871   3.342   0.454  0.0726 -0.3369 -0.2581
 3280ntf    fn416260   2.937   3.390   0.652 -0.0379  0.5514  0.1756
 3281ntf    cn116261   6.166   1.717   6.090 -0.1831  0.3187 -0.6008
 3281ntf    sn216262   6.282   1.824   6.001  0.2867  0.1388 -0.2103
 3281ntf    nn316263   6.332   1.710   5.905 -0.0886 -0.0925 -0.1337
 3281ntf    sn216264   6.380   1.708   5.756 -0.1038  0.1092 -0.1420
 3281ntf    cn116265   6.221   1.651   5.688 -0.1242  0.3614 -0.3050
 3281ntf    fn416266   6.233   1.643   6.177  0.4458  1.1424 -0.3663
 3281ntf    fn416267   6.085   1.790   6.166  0.3258  0.1059  0.1532
 3281ntf    fn416268   6.096   1.631   6.018  0.0499 -0.0838 -0.3485
 3281ntf    on516269   6.193   1.921   5.943 -0.8261 -0.6879  0.0952
 3281ntf    on516270   6.374   1.863   6.105 -0.2629  0.2509  0.2334
 3281ntf    on516271   6.466   1.594   5.732 -0.0579  0.0326  0.3806
 3281ntf    on516272   6.413   1.831   5.688  0.2890  0.0465 -0.0701
 3281ntf    fn416273   6.198   1.528   5.730 -0.0236  0.3723 -0.2169
 3281ntf    fn416274   6.115   1.713   5.736 -0.6242 -0.9439  0.3200
 3281ntf    fn416275   6.204   1.664   5.557 -0.8779  0.1644 -0.2294
 3282ntf    cn116276   2.987   2.199   1.980 -0.2233  0.6963  0.2478
 3282ntf    sn216277   2.956   2.377   1.973 -0.0579  0.7212  0.1413
 3282ntf    nn316278   3.029   2.426   1.843  0.1430  0.3491  0.1130
 3282ntf    sn216279   3.177   2.417   1.792  0.0630  0.2551 -0.1071
 3282ntf    cn116280   3.243   2.584   1.822  0.2826  0.1491  0.0083
 3282ntf    fn416281   3.005   2.150   1.859 -0.3185  0.1547  0.4481
 3282ntf    fn416282   3.088   2.151   2.051 -0.3638  0.0542  0.0259
 3282ntf    fn416283   2.878   2.136   2.021 -0.2407  0.2661 -0.4412
 3282ntf    on516284   2.813   2.389   1.957 -0.1568 -0.5995 -0.0732
 3282ntf    on516285   3.005   2.420   2.101  0.0879  0.0750  0.3046
 3282ntf    on516286   3.198   2.406   1.650 -0.2610  0.7160 -0.1938
 3282ntf    on516287   3.259   2.334   1.878 -0.0734  0.3725  0.1379
 3282ntf    fn416288   3.192   2.642   1.929  0.9715  0.4389  0.1866
 3282ntf    fn416289   3.375   2.579   1.832  0.2819 -0.7706 -0.3734
 3282ntf    fn416290   3.211   2.663   1.720  0.3607  0.5469  0.2916
 3283ntf    cn116291   7.095   1.903   4.795  0.0462  0.1969  0.1612
 3283ntf    sn216292   7.120   2.021   4.932  0.0966  0.4157 -0.0351
 3283ntf    nn316293   7.235   1.942   5.004  0.0366 -0.0935 -0.4847
 3283ntf    sn216294   7.369   1.994   5.068 -0.0758 -0.0489 -0.2818
 3283ntf    cn116295   7.475   1.974   4.921  0.0204 -0.0086 -0.2182
 3283ntf    fn416296   7.044   1.787   4.833 -0.0847  0.2625  0.1854
 3283ntf    fn416297   7.009   1.951   4.707 -0.4996 -0.2282  0.4639
 3283ntf    fn416298   7.208   1.874   4.733 -0.2912  0.3632 -0.5402
 3283ntf    on516299   7.168   2.142   4.869  0.1055  0.2125 -0.4260
 3283ntf    on516300   6.996   2.032   5.005  0.4694 -0.1011  0.6895
 3283ntf    on516301   7.431   1.903   5.161  0.1061  0.5770  0.2140
 3283ntf    on516302   7.369   2.134   5.100  0.2756  0.0659 -0.7700
 3283ntf    fn416303   7.603   1.994   4.947 -0.0274  0.0119  0.0054
 3283ntf    fn416304   7.470   1.848   4.881 -0.0126 -0.0663 -0.0342
 3283ntf    fn416305   7.444   2.043   4.813 -0.1501  0.5341  0.1708
 3284ntf    cn116306   4.539   6.471   1.111 -0.1906 -0.0530  0.2524
 3284ntf    sn216307   4.361   6.435   1.117 -0.1858 -0.1643 -0.2358
 3284ntf    nn316308   4.359   6.395   1.269 -0.2737 -0.1450 -0.2318
 3284ntf    sn216309   4.390   6.256   1.335  0.2014  0.0185 -0.1040
 3284ntf    cn116310   4.447   6.305   1.500  0.2091  0.2273 -0.1685
 3284ntf    fn416311   4.574   6.539   1.220  0.0531 -0.0793  0.1912
 3284ntf    fn416312   4.605   6.356   1.111  0.0458  0.0790 -0.1545
 3284ntf    fn416313   4.583   6.544   1.010 -0.4346 -0.0387  0.1582
 3284ntf    on516314   4.305   6.565   1.090 -0.7221 -0.4477 -0.4930
 3284ntf    on516315   4.350   6.329   1.020 -0.7760 -0.4288  0.1179
 3284ntf    on516316   4.502   6.177   1.290  0.0219 -0.5253  0.3854
 3284ntf    on516317   4.270   6.184   1.369  0.0043  0.2853 -0.2325
 3284ntf    fn416318   4.351   6.351   1.579  0.0281 -0.5493  0.0754
 3284ntf    fn416319   4.510   6.207   1.563  0.1252  0.1078 -0.2700
 3284ntf    fn416320   4.528   6.408   1.489  0.3326  0.0996 -0.4499
 3285ntf    cn116321   5.377   6.407   2.711  0.0571 -0.3195  0.0928
 3285ntf    sn216322   5.284   6.398   2.868  0.0178  0.2085  0.1008
 3285ntf    nn316323   5.148   6.459   2.819 -0.1726 -0.5183 -0.2993
 3285ntf    sn216324   5.013   6.454   2.899  0.2587 -0.2663  0.4591
 3285ntf    cn116325   4.912   6.337   2.804  0.1574  0.1112  0.0942
 3285ntf    fn416326   5.295   6.374   2.612 -0.3143  0.7238  0.0442
 3285ntf    fn416327   5.422   6.528   2.686 -0.0479 -0.2538  0.2173
 3285ntf    fn416328   5.481   6.326   2.710  0.3929  0.1076  0.1931
 3285ntf    on516329   5.277   6.256   2.892  0.1003  0.2559  0.4049
 3285ntf    on516330   5.369   6.478   2.953  0.1743 -0.6023  0.7209
 3285ntf    on516331   4.937   6.577   2.896  0.3193 -0.2305  0.4086
 3285ntf    on516332   5.030   6.399   3.031  0.1416 -0.3975  0.4199
 3285ntf    fn416333   4.981   6.225   2.787  0.2287  0.2163 -0.3192
 3285ntf    fn416334   4.795   6.300   2.855  0.3362  0.2054  0.5828
 3285ntf    fn416335   4.887   6.372   2.679  0.5639  0.1363  0.0194
 3286ntf    cn116336   0.785   6.247   0.430 -0.2778  0.6208 -0.6147
 3286ntf    sn216337   0.649   6.143   0.370 -0.0340 -0.0078 -0.0860
 3286ntf    nn316338   0.531   6.229   0.427 -0.8270 -0.5151 -0.9222
 3286ntf    sn216339   0.452   6.218   0.562  0.2748  0.1538 -0.2056
 3286ntf    cn116340   0.312   6.331   0.535 -0.0303 -0.2330 -0.2556
 3286ntf    fn416341   0.760   6.372   0.394  0.4915  0.9532 -0.0311
 3286ntf    fn416342   0.813   6.245   0.560  0.3178 -0.6381 -0.7530
 3286ntf    fn416343   0.894   6.205   0.369 -0.5551 -0.6182 -0.2896
 3286ntf    on516344   0.664   6.146   0.227 -0.6679  0.2247 -0.1505
 3286ntf    on516345   0.670   6.016   0.435  0.0444  0.3066  0.5084
 3286ntf    on516346   0.529   6.272   0.672  0.3318 -0.0887 -0.1248
 3286ntf    on516347   0.387   6.093   0.594  0.0863  0.2452 -0.2286
 3286ntf    fn416348   0.351   6.456   0.515  0.1861 -0.2655 -0.0541
 3286ntf    fn416349   0.240   6.287   0.434 -0.0913 -0.2601 -0.2002
 3286ntf    fn416350   0.234   6.331   0.642  0.4596 -0.1142  0.1095
 3287ntf    cn116351   7.128   0.681   6.418 -0.1167 -0.4776 -0.0030
 3287ntf    sn216352   7.039   0.775   6.291 -0.0053 -0.0389  0.2372
 3287ntf    nn316353   7.032   0.910   6.369  0.3371 -0.0662  0.3148
 3287ntf    sn216354   6.917   0.981   6.448  0.0488 -0.2191  0.0317
 3287ntf    cn116355   6.864   1.107   6.329 -0.2317  0.2299  0.6268
 3287ntf    fn416356   7.164   0.563   6.369  0.0386 -0.7150  0.6674
 3287ntf    fn416357   7.241   0.735   6.463 -0.3481 -0.0342  0.0529
 3287ntf    fn416358   7.055   0.660   6.526 -0.1366  0.3392  0.1503
 3287ntf    on516359   7.135   0.780   6.183 -0.0433  0.4937  0.2273
 3287ntf    on516360   6.922   0.696   6.261  0.6646 -0.8008 -0.4375
 3287ntf    on516361   6.970   1.057   6.559 -0.0396 -0.4213  0.2146
 3287ntf    on516362   6.802   0.896   6.470 -0.0662 -0.1862 -0.4325
 3287ntf    fn416363   6.801   1.203   6.395 -0.2132  0.3281  0.5004
 3287ntf    fn416364   6.966   1.160   6.262 -0.4477  0.0909  0.1848
 3287ntf    fn416365   6.795   1.061   6.227  0.5229  0.4409  0.0085
 3288ntf    cn116366   3.369   3.934   4.172 -0.1038 -0.0723  0.2162
 3288ntf    sn216367   3.223   3.884   4.267 -0.0322 -0.2104  0.2530
 3288ntf    nn316368   3.185   4.015   4.344  0.2345 -0.3731  0.6651
 3288ntf    sn216369   3.046   4.087   4.363  0.2080 -0.2821  0.1437
 3288ntf    cn116370   3.034   4.215   4.235 -0.4583 -0.4776  0.0086
 3288ntf    fn416371   3.346   4.030   4.084 -0.4321 -0.5254 -0.1960
 3288ntf    fn416372   3.465   3.983   4.248 -0.1677 -0.3728  0.4917
 3288ntf    fn416373   3.422   3.834   4.103  0.0401  0.0178  0.1943
 3288ntf    on516374   3.139   3.829   4.163 -0.1895 -0.3198  0.4367
 3288ntf    on516375   3.281   3.783   4.352  0.6231  0.0766  0.1512
 3288ntf    on516376   3.042   4.166   4.484  0.4909  0.1181 -0.1075
 3288ntf    on516377   2.934   4.005   4.324 -0.0254  0.3727 -0.5726
 3288ntf    fn416378   2.939   4.305   4.248 -0.3859 -0.2776 -0.7807
 3288ntf    fn416379   3.153   4.272   4.221 -0.7295  0.0829 -0.0306
 3288ntf    fn416380   3.027   4.156   4.116 -0.1146 -1.0871  0.2851
 3289ntf    cn116381   0.834   2.134   6.237 -0.4222 -0.3452  0.0909
 3289ntf    sn216382   0.773   1.964   6.231 -0.2351 -0.4030 -0.2382
 3289ntf    nn316383   0.830   1.914   6.094  0.1598  0.0452 -0.2397
 3289ntf    sn216384   0.773   1.805   5.996  0.2662 -0.0756 -0.1687
 3289ntf    cn116385   0.691   1.907   5.869  0.0749 -0.0879 -0.0560
 3289ntf    fn416386   0.963   2.137   6.205 -0.4200 -0.4270  0.0937
 3289ntf    fn416387   0.782   2.221   6.152  0.1245  0.3706  0.4704
 3289ntf    fn416388   0.810   2.182   6.358 -0.0005 -0.2428  0.1370
 3289ntf    on516389   0.837   1.905   6.346 -0.2610 -0.3296 -0.1864
 3289ntf    on516390   0.631   1.989   6.231 -0.2414 -0.4376 -0.6280
 3289ntf    on516391   0.661   1.729   6.046  0.1434 -0.1211 -0.5057
 3289ntf    on516392   0.879   1.737   5.926  0.4411 -0.0261  0.0486
 3289ntf    fn416393   0.776   1.990   5.811  0.2694 -0.0519  0.2778
 3289ntf    fn416394   0.640   1.832   5.773 -0.0216 -0.0635 -0.0243
 3289ntf    fn416395   0.594   1.984   5.916  0.2797  0.2863 -0.2378
 3290ntf    cn116396   4.885   3.443   2.922  0.0225  0.1679  0.0139
 3290ntf    sn216397   5.020   3.326   2.955  0.0514  0.1907 -0.0225
 3290ntf    nn316398   5.017   3.244   2.821  0.1491 -0.1527  0.1824
 3290ntf    sn216399   5.137   3.186   2.739  0.3624 -0.0134  0.3968
 3290ntf    cn116400   5.179   3.321   2.624  0.2231 -0.4345 -0.1515
 3290ntf    fn416401   4.889   3.498   2.802 -0.2653 -0.1044 -0.1215
 3290ntf    fn416402   4.768   3.382   2.927  0.2458 -0.2320  0.4935
 3290ntf    fn416403   4.884   3.548   3.002  0.1069  0.2917 -0.1472
 3290ntf    on516404   5.141   3.403   2.973 -0.0623  0.3830 -0.0821
 3290ntf    on516405   4.974   3.245   3.065  0.8396 -0.4747 -0.1740
 3290ntf    on516406   5.086   3.084   2.651 -0.1863  0.4438  0.1820
 3290ntf    on516407   5.259   3.159   2.812  0.3795  0.4415  0.5388
 3290ntf    fn416408   5.294   3.304   2.560  0.0600 -0.0670 -0.5430
 3290ntf    fn416409   5.090   3.320   2.527  0.6498  0.0248 -0.5530
 3290ntf    fn416410   5.180   3.441   2.679  0.0557 -0.1994 -0.6573
 3291ntf    cn116411   0.924   3.520   2.441  0.2805 -0.3296 -0.3406
 3291ntf    sn216412   1.066   3.570   2.542  0.0341  0.4221 -0.3580
 3291ntf    nn316413   1.032   3.512   2.684  0.8127  1.0390  0.0916
 3291ntf    sn216414   0.976   3.579   2.815  0.2386  0.5229  0.1143
 3291ntf    cn116415   0.905   3.434   2.898  0.3541  0.3140 -0.1486
 3291ntf    fn416416   0.812   3.558   2.500  0.4031 -0.3807 -0.0737
 3291ntf    fn416417   0.928   3.565   2.316  0.8031  0.0897 -0.1764
 3291ntf    fn416418   0.906   3.389   2.447  0.4698 -0.3520 -0.2450
 3291ntf    on516419   1.181   3.508   2.481  0.1326  0.6017 -0.3542
 3291ntf    on516420   1.059   3.714   2.549 -0.1322  0.4131 -0.3308
 3291ntf    on516421   0.855   3.657   2.803 -0.0597  0.1170  0.4386
 3291ntf    on516422   1.081   3.626   2.902  0.7307 -0.7807  0.2463
 3291ntf    fn416423   0.808   3.376   2.829  0.5330 -0.3455  0.1400
 3291ntf    fn416424   0.997   3.341   2.914  0.3769  0.4389  0.4680
 3291ntf    fn416425   0.848   3.459   3.015  0.8068  0.3934  0.0563
 3292ntf    cn116426   0.559   6.379   1.653 -0.1755  0.3913  0.1318
 3292ntf    sn216427   0.499   6.540   1.595 -0.2746  0.3807  0.2042
 3292ntf    nn316428   0.351   6.503   1.556  0.0775 -0.5955 -0.2200
 3292ntf    sn216429   0.271   6.550   1.430 -0.5526  0.0455  0.4143
 3292ntf    cn116430   0.101   6.556   1.495 -0.6314 -0.1000  0.2216
 3292ntf    fn416431   0.546   6.297   1.550 -0.4039  0.6716 -0.0660
 3292ntf    fn416432   0.687   6.386   1.683 -0.0256 -0.3399 -0.3128
 3292ntf    fn416433   0.485   6.321   1.746 -0.3677 -0.5231 -0.5716
 3292ntf    on516434   0.526   6.622   1.710  0.2149  0.4342  0.0524
 3292ntf    on516435   0.592   6.552   1.485 -0.0245 -0.1342  0.3588
 3292ntf    on516436   0.254   6.449   1.329 -0.7664 -0.2206  0.7145
 3292ntf    on516437   0.304   6.678   1.372  0.3774 -0.6495 -0.6309
 3292ntf    fn416438   0.040   6.440   1.512 -0.5411 -0.1893 -0.0556
 3292ntf    fn416439   0.089   6.624   1.608 -0.0067  0.1966  0.1159
 3292ntf    fn416440   0.026   6.618   1.405  0.2977  0.5877 -0.0977
 3293ntf    cn116441   1.477   5.441   5.136 -0.3186 -0.5037  0.2701
 3293ntf    sn216442   1.376   5.591   5.121  0.3134 -0.0733  0.2761
 3293ntf    nn316443   1.298   5.575   5.257  0.1984 -0.2889  0.1847
 3293ntf    sn216444   1.308   5.677   5.375 -0.0807 -0.0649  0.0151
 3293ntf    cn116445   1.391   5.575   5.501  0.3541  0.0541 -0.1732
 3293ntf    fn416446   1.406   5.334   5.170  0.0616 -0.8494 -0.0143
 3293ntf    fn416447   1.545   5.413   5.026  0.3330  0.2932  0.4653
 3293ntf    fn416448   1.573   5.459   5.225  0.0572  0.0466 -0.2413
 3293ntf    on516449   1.463   5.703   5.098  0.5148 -0.3121 -0.1389
 3293ntf    on516450   1.288   5.564   5.010 -0.1238  0.3668  0.5090
 3293ntf    on516451   1.186   5.697   5.449 -0.1024  0.1518 -0.0782
 3293ntf    on516452   1.388   5.797   5.368 -0.1497 -0.0393 -0.3637
 3293ntf    fn416453   1.397   5.639   5.617  0.0868 -0.1138 -0.0664
 3293ntf    fn416454   1.335   5.457   5.521 -0.2172  0.3493  0.0099
 3293ntf    fn416455   1.515   5.538   5.473  0.2975 -0.1615 -0.1426
 3294ntf    cn116456   5.961   5.425   3.180 -0.0088 -0.1952  0.2506
 3294ntf    sn216457   6.042   5.412   3.342  0.4151 -0.1383  0.0453
 3294ntf    nn316458   6.198   5.410   3.329  0.4409 -0.2807  0.3521
 3294ntf    sn216459   6.289   5.307   3.253 -0.1448 -0.3869 -0.2178
 3294ntf    cn116460   6.320   5.174   3.373 -0.4611 -0.1812  0.0942
 3294ntf    fn416461   5.960   5.553   3.146  0.0896 -0.3389 -0.2979
 3294ntf    fn416462   6.024   5.348   3.093  0.2362  0.1118  0.1560
 3294ntf    fn416463   5.833   5.393   3.181  0.0236 -0.3275 -0.0345
 3294ntf    on516464   5.990   5.513   3.431  0.9289  0.0963  0.0775
 3294ntf    on516465   5.992   5.283   3.385  0.1510 -0.0200  0.0950
 3294ntf    on516466   6.424   5.358   3.249 -0.0846 -0.5236  0.0821
 3294ntf    on516467   6.234   5.237   3.140 -0.0711 -0.1037 -0.4308
 3294ntf    fn416468   6.411   5.088   3.328 -0.3486 -0.1066  0.1779
 3294ntf    fn416469   6.356   5.226   3.489  0.0609  0.1583 -0.2098
 3294ntf    fn416470   6.211   5.102   3.388 -0.4752 -0.0788  0.4908
 3295ntf    cn116471   3.983   6.806   6.855  0.2169 -0.2393  0.1000
 3295ntf    sn216472   3.823   6.722   6.835 -0.0498  0.2876 -0.0080
 3295ntf    nn316473   3.851   6.598   6.743  0.2970  0.2237  0.1816
 3295ntf    sn216474   3.761   6.474   6.706  0.5469  0.0716  0.0775
 3295ntf    cn116475   3.791   6.382   6.860  0.1264 -0.4342 -0.1426
 3295ntf    fn416476   4.072   6.735   6.922  0.2987 -0.2170  0.0157
 3295ntf    fn416477   4.037   6.848   6.741  0.1370  0.8019  0.4426
 3295ntf    fn416478   3.972   6.912   6.933  0.1633  0.0671 -0.3179
 3295ntf    on516479   3.796   6.692   6.974 -0.1977  0.9860  0.1168
 3295ntf    on516480   3.741   6.821   6.771  0.1488  0.4948  0.0564
 3295ntf    on516481   3.813   6.386   6.605 -0.8059 -0.2661 -0.3391
 3295ntf    on516482   3.619   6.495   6.695  0.6426  0.8310  0.2102
 3295ntf    fn416483   3.725   6.431   6.963 -0.0124 -0.2452 -0.3222
 3295ntf    fn416484   3.755   6.256   6.840 -0.0648 -0.4184  0.1036
 3295ntf    fn416485   3.922   6.388   6.881  0.0368  0.4045  0.1764
 3296ntf    cn116486   3.396   0.592   1.419  0.5475 -0.1322 -0.3581
 3296ntf    sn216487   3.404   0.773   1.415 -0.2466 -0.0820  0.1281
 3296ntf    nn316488   3.410   0.798   1.570  0.4479 -0.2636  0.1359
 3296ntf    sn216489   3.393   0.940   1.634 -0.0637 -0.1138 -0.3211
 3296ntf    cn116490   3.560   0.951   1.705 -0.1326  0.1274 -0.1941
 3296ntf    fn416491   3.507   0.534   1.462  0.4745 -0.3026 -0.3986
 3296ntf    fn416492   3.301   0.559   1.505  0.6092  0.0407 -0.2232
 3296ntf    fn416493   3.372   0.553   1.295 -0.1621 -0.4545 -0.1246
 3296ntf    on516494   3.525   0.796   1.340 -0.1457  0.1742  0.3679
 3296ntf    on516495   3.275   0.804   1.359  0.0294  0.8289 -0.0258
 3296ntf    on516496   3.308   0.941   1.751 -0.0056 -0.2923 -0.2756
 3296ntf    on516497   3.385   1.059   1.554 -0.3595 -0.2975 -0.5661
 3296ntf    fn416498   3.656   0.944   1.614  0.1223  0.2291  0.0650
 3296ntf    fn416499   3.577   1.062   1.774  0.5825  0.0987 -0.3168
 3296ntf    fn416500   3.579   0.849   1.787  0.2127 -0.1009 -0.5536
 3297ntf    cn116501   5.589   6.002   3.651  0.3846  0.3168 -0.3457
 3297ntf    sn216502   5.732   6.022   3.540  0.3936  0.0953 -0.3759
 3297ntf    nn316503   5.705   6.167   3.488 -0.0417  0.1316 -0.0586
 3297ntf    sn216504   5.804   6.279   3.438 -0.0896 -0.0400 -0.5458
 3297ntf    cn116505   5.825   6.368   3.595 -0.8356 -0.4158 -0.2267
 3297ntf    fn416506   5.593   6.068   3.765  0.4981  0.0121 -0.1722
 3297ntf    fn416507   5.479   6.032   3.584  0.2794 -0.2114 -0.4164
 3297ntf    fn416508   5.576   5.874   3.681 -0.2951  0.3468 -0.5037
 3297ntf    on516509   5.841   5.999   3.633 -0.0477 -0.1289  0.0934
 3297ntf    on516510   5.708   5.922   3.440  0.0517  0.2456 -0.4434
 3297ntf    on516511   5.729   6.375   3.360 -0.1643  0.3752  0.0234
 3297ntf    on516512   5.938   6.239   3.404  0.1969  0.1124  0.3656
 3297ntf    fn416513   5.717   6.434   3.634 -0.2688  0.1507  0.4176
 3297ntf    fn416514   5.838   6.286   3.698  0.2336 -0.1013 -0.1027
 3297ntf    fn416515   5.924   6.455   3.599 -0.5642 -0.7581  0.5751
 3298ntf    cn116516   1.257   0.915   0.084  0.1878  0.5188 -0.1130
 3298ntf    sn216517   1.417   0.997   0.112  0.3571  0.2536 -0.2929
 3298ntf    nn316518   1.457   1.034  -0.035 -0.2290 -0.1465 -0.5556
 3298ntf    sn216519   1.602   1.044  -0.096  0.0188  0.3549  0.1048
 3298ntf    cn116520   1.638   1.222  -0.104  0.7641  0.2016 -0.0294
 3298ntf    fn416521   1.283   0.798   0.028 -0.6055  0.0694  0.4469
 3298ntf    fn416522   1.203   0.895   0.203  0.3650  0.4239 -0.0471
 3298ntf    fn416523   1.176   0.981   0.004 -0.2973  0.2941  0.1907
 3298ntf    on516524   1.387   1.109   0.198 -0.3454 -0.3637  0.2744
 3298ntf    on516525   1.495   0.891   0.169  0.6407  0.5219 -0.1798
 3298ntf    on516526   1.602   1.002  -0.234  0.2624  0.5865  0.0342
 3298ntf    on516527   1.712   1.003  -0.012 -0.0972  0.0678  0.1188
 3298ntf    fn416528   1.643   1.282   0.014  0.1950  0.0463  0.0808
 3298ntf    fn416529   1.745   1.244  -0.178  0.7410 -0.0773 -0.1467
 3298ntf    fn416530   1.536   1.277  -0.168  0.4827 -0.1042  0.1472
 3299ntf    cn116531   1.897   3.801   0.566  0.4648 -0.0473 -0.0202
 3299ntf    sn216532   1.877   3.780   0.746  0.0645 -0.2879 -0.0927
 3299ntf    nn316533   1.737   3.709   0.755 -0.3480  0.4770 -0.3631
 3299ntf    sn216534   1.707   3.555   0.749  0.1758  0.3679 -0.2395
 3299ntf    cn116535   1.716   3.516   0.927  0.3021  0.3330 -0.2537
 3299ntf    fn416536   2.024   3.807   0.528  0.3516  0.2841 -0.3381
 3299ntf    fn416537   1.846   3.697   0.503  0.3061  0.0701 -0.0837
 3299ntf    fn416538   1.834   3.910   0.528 -0.0943 -0.4014 -0.1280
 3299ntf    on516539   1.996   3.706   0.777  0.5317  0.1866 -0.7466
 3299ntf    on516540   1.878   3.913   0.803  0.6741 -0.3713  0.0855
 3299ntf    on516541   1.815   3.486   0.684  0.2047  0.0599  0.1322
 3299ntf    on516542   1.571   3.517   0.720  0.4422 -0.6460 -0.1867
 3299ntf    fn416543   1.841   3.488   0.959  0.2248  0.2494 -0.0259
 3299ntf    fn416544   1.669   3.610   1.007 -0.1938  0.1547 -0.3266
 3299ntf    fn416545   1.651   3.406   0.961  0.4711  0.1069 -0.6596
 3300ntf    cn116546   5.921   1.960   0.624  0.1059  0.0200 -0.0229
 3300ntf    sn216547   6.019   1.828   0.701  0.1046  0.0398  0.0141
 3300ntf    nn316548   6.121   1.800   0.585  0.1594  0.2418  0.0135
 3300ntf    sn216549   6.137   1.660   0.515  0.2463  0.2183  0.0799
 3300ntf    cn116550   6.246   1.575   0.633 -0.1317 -0.6222 -0.1737
 3300ntf    fn416551   5.830   2.016   0.703 -0.1529  0.1641 -0.4215
 3300ntf    fn416552   6.003   2.053   0.579 -0.1089  0.1702 -0.1037
 3300ntf    fn416553   5.855   1.903   0.525  0.7314 -0.7840  0.0163
 3300ntf    on516554   6.088   1.898   0.806  0.5111  0.4896 -0.5447
 3300ntf    on516555   5.920   1.728   0.731  0.4131 -0.1829  0.2920
 3300ntf    on516556   6.219   1.668   0.396  0.4824 -0.2723  0.2099
 3300ntf    on516557   6.019   1.580   0.495  0.4185 -0.0821  0.2516
 3300ntf    fn416558   6.358   1.637   0.663 -0.0907 -0.5830 -0.4056
 3300ntf    fn416559   6.187   1.552   0.749 -0.4212  0.1551 -0.1623
 3300ntf    fn416560   6.280   1.457   0.582  1.0092 -0.2511 -0.2992
 3301ntf    cn116561   4.974   1.511   5.701  0.2116 -0.2404 -0.2034
 3301ntf    sn216562   5.115   1.416   5.767  0.4365  0.1434 -0.1300
 3301ntf    nn316563   5.247   1.460   5.694  0.2756  0.2895 -0.3367
 3301ntf    sn216564   5.348   1.569   5.746  0.0632  0.3066  0.0438
 3301ntf    cn116565   5.460   1.577   5.603 -0.0539 -0.2003 -0.0790
 3301ntf    fn416566   4.967   1.499   5.569 -0.1951  0.0291 -0.2049
 3301ntf    fn416567   4.864   1.458   5.750 -0.0018 -0.0922 -0.5169
 3301ntf    fn416568   4.980   1.638   5.735 -0.0899 -0.2723 -0.0256
 3301ntf    on516569   5.115   1.431   5.910  0.4526  0.2793 -0.1442
 3301ntf    on516570   5.074   1.286   5.721 -0.2277  0.2241  0.2185
 3301ntf    on516571   5.433   1.523   5.854 -0.4305 -0.5438  0.0800
 3301ntf    on516572   5.283   1.697   5.757 -0.4780  0.0483 -0.1225
 3301ntf    fn416573   5.512   1.459   5.577 -0.4479 -0.3894 -0.0147
 3301ntf    fn416574   5.405   1.605   5.486  0.0066 -0.5503 -0.1924
 3301ntf    fn416575   5.560   1.662   5.624 -0.1464 -0.0723 -0.1591
 3302ntf    cn116576   6.550   2.186   1.049  0.4298  0.0212  0.0042
 3302ntf    sn216577   6.605   2.032   0.969 -0.1529 -0.2868  0.1954
 3302ntf    nn316578   6.513   1.938   1.055 -0.3693  0.3139  0.6295
 3302ntf    sn216579   6.444   1.799   1.030  0.3092 -0.0129  0.5354
 3302ntf    cn116580   6.557   1.696   1.128 -0.1291 -0.4075  0.6328
 3302ntf    fn416581   6.571   2.192   1.179 -0.3912 -0.2228  0.1546
 3302ntf    fn416582   6.614   2.289   0.995  0.4401 -0.1019 -0.2227
 3302ntf    fn416583   6.423   2.216   1.029  0.4408  0.2034  0.2111
 3302ntf    on516584   6.571   2.039   0.829  0.4870 -0.2789  0.0365
 3302ntf    on516585   6.743   2.023   1.008 -0.1018 -0.1590  0.0470
 3302ntf    on516586   6.464   1.747   0.897  0.1980  0.5222  0.3049
 3302ntf    on516587   6.313   1.790   1.090  0.1749 -1.0342  0.1173
 3302ntf    fn416588   6.584   1.733   1.252  0.4762 -0.2257  0.4550
 3302ntf    fn416589   6.500   1.577   1.130 -0.4324 -0.2737  0.0952
 3302ntf    fn416590   6.671   1.681   1.062 -0.1477 -0.0968  0.5289
 3303ntf    cn116591   5.873   3.311   2.266  0.2880 -0.2382  0.0044
 3303ntf    sn216592   5.833   3.240   2.103 -0.0417  0.4250 -0.2103
 3303ntf    nn316593   5.952   3.317   2.036  0.1795 -0.1287 -0.4659
 3303ntf    sn216594   6.095   3.272   1.990  0.3539  0.0066 -0.0707
 3303ntf    cn116595   6.174   3.414   2.070  0.1637  0.1610 -0.1575
 3303ntf    fn416596   5.999   3.291   2.301  0.3977 -0.0211 -0.2628
 3303ntf    fn416597   5.861   3.442   2.275 -0.0507 -0.3159  0.6998
 3303ntf    fn416598   5.796   3.256   2.358 -0.4885  0.1941 -0.3740
 3303ntf    on516599   5.844   3.098   2.128 -0.3128  0.3686 -0.4172
 3303ntf    on516600   5.703   3.293   2.074 -0.0660  0.0971 -0.7213
 3303ntf    on516601   6.143   3.289   1.855 -0.5223  0.6110 -0.3140
 3303ntf    on516602   6.150   3.164   2.068 -0.0448  0.2288  0.5226
 3303ntf    fn416603   6.171   3.523   1.994  0.4533  0.2436 -0.0536
 3303ntf    fn416604   6.125   3.446   2.188 -0.3497 -0.1045 -0.2950
 3303ntf    fn416605   6.302   3.400   2.101  0.2070 -0.6264 -0.6579
 3304ntf    cn116606   0.556   0.575   0.575  0.4022  0.0690  0.4479
 3304ntf    sn216607   0.610   0.435   0.473 -0.0412  0.0969  0.1744
 3304ntf    nn316608   0.470   0.407   0.407 -0.0264  0.0076  0.1819
 3304ntf    sn216609   0.438   0.297   0.300 -0.0371  0.0688  0.1224
 3304ntf    cn116610   0.319   0.197   0.394 -0.1004 -0.0491 -0.0821
 3304ntf    fn416611   0.505   0.674   0.504 -0.3847 -0.2657  0.5424
 3304ntf    fn416612   0.459   0.534   0.654 -0.0009  0.2090  0.0253
 3304ntf    fn416613   0.654   0.621   0.652  0.5719 -0.4714  0.5600
 3304ntf    on516614   0.715   0.484   0.386 -0.1827  0.4112  0.1797
 3304ntf    on516615   0.657   0.326   0.555  0.8034 -0.0757 -0.5183
 3304ntf    on516616   0.541   0.199   0.273 -0.2099  0.0841 -0.6115
 3304ntf    on516617   0.367   0.350   0.186  0.4122 -0.1621 -0.2678
 3304ntf    fn416618   0.277   0.087   0.333  0.0828  0.0152 -0.3249
 3304ntf    fn416619   0.351   0.162   0.518  0.2430  0.5026 -0.0121
 3304ntf    fn416620   0.213   0.275   0.405  0.1279  0.2184  0.2601
 3305ntf    cn116621   6.782   6.017   1.122 -0.2314 -0.2328  0.1310
 3305ntf    sn216622   6.646   6.130   1.164  0.2902  0.4794 -0.0880
 3305ntf    nn316623   6.671   6.221   1.039  0.5130  0.3120 -0.1652
 3305ntf    sn216624   6.597   6.224   0.900  0.2799  0.2160 -0.0436
 3305ntf    cn116625   6.554   6.400   0.880 -0.1668  0.1148  0.0018
 3305ntf    fn416626   6.898   6.076   1.099 -0.2739 -0.1190  0.2046
 3305ntf    fn416627   6.790   5.934   1.225  0.4827 -0.1668  0.1279
 3305ntf    fn416628   6.759   5.939   1.017 -0.1028  0.2376 -0.2461
 3305ntf    on516629   6.532   6.042   1.168  0.4852  0.2062 -0.5077
 3305ntf    on516630   6.691   6.187   1.289  0.4909  0.2367 -0.0498
 3305ntf    on516631   6.473   6.151   0.902  0.1072  0.5198  0.4826
 3305ntf    on516632   6.685   6.204   0.787 -0.4049 -0.1255 -0.5246
 3305ntf    fn416633   6.661   6.478   0.877 -0.1988  0.1551 -0.1081
 3305ntf    fn416634   6.474   6.429   0.779 -0.5056  0.5497  0.3949
 3305ntf    fn416635   6.493   6.442   0.989 -0.0621  0.2519  0.0087
 3306ntf    cn116636   1.399   5.630   4.159  0.0914 -0.6190 -0.0561
 3306ntf    sn216637   1.221   5.659   4.135  0.1678 -0.0707  0.0466
 3306ntf    nn316638   1.186   5.557   4.021 -0.2457  0.1817 -0.0570
 3306ntf    sn216639   1.194   5.593   3.869  0.0235  0.3179 -0.0125
 3306ntf    cn116640   1.141   5.434   3.798 -0.0849  0.4006 -0.1195
 3306ntf    fn416641   1.478   5.711   4.091 -0.6504 -0.4146 -0.6878
 3306ntf    fn416642   1.431   5.642   4.287  0.0806 -0.0596 -0.1062
 3306ntf    fn416643   1.445   5.508   4.138  0.5868 -0.4077 -0.1971
 3306ntf    on516644   1.176   5.628   4.269 -0.3090  0.1052 -0.0695
 3306ntf    on516645   1.215   5.800   4.102  0.1437 -0.1347 -0.2240
 3306ntf    on516646   1.332   5.611   3.831  0.2301 -0.1049  0.5366
 3306ntf    on516647   1.092   5.678   3.813 -0.2351 -0.1225 -0.2201
 3306ntf    fn416648   1.021   5.402   3.845 -0.3135  0.5999 -0.5585
 3306ntf    fn416649   1.134   5.433   3.666 -0.1447  0.4210 -0.1162
 3306ntf    fn416650   1.224   5.336   3.828  0.0807  0.6674  0.2950
 3307ntf    cn116651   0.739   4.537   5.844  0.2573 -0.1258 -0.0150
 3307ntf    sn216652   0.603   4.533   5.723  0.1047 -0.1269  0.1546
 3307ntf    nn316653   0.673   4.628   5.619  0.0040 -0.0531  0.1532
 3307ntf    sn216654   0.742   4.613   5.479 -0.3480 -0.1427 -0.0107
 3307ntf    cn116655   0.919   4.620   5.522 -0.3962 -0.0163  0.1672
 3307ntf    fn416656   0.799   4.655   5.852 -0.0020  0.0326 -0.3783
 3307ntf    fn416657   0.690   4.503   5.963  0.2693  0.1678  0.0760
 3307ntf    fn416658   0.831   4.447   5.817  0.0539 -0.2928 -0.1542
 3307ntf    on516659   0.594   4.398   5.675  0.4088 -0.0430 -0.1428
 3307ntf    on516660   0.488   4.588   5.789 -0.1518  0.2662 -0.6057
 3307ntf    on516661   0.714   4.725   5.393  0.7735  0.1597  0.0001
 3307ntf    on516662   0.742   4.479   5.424 -0.4190  0.0951 -0.5977
 3307ntf    fn416663   0.956   4.537   5.617  0.1186 -0.3299 -0.2996
 3307ntf    fn416664   1.002   4.598   5.421 -0.3772 -0.0323  0.1863
 3307ntf    fn416665   0.951   4.740   5.567 -0.1694 -0.0326  0.0491
 3308ntf    cn116666   4.247   4.605   3.264 -0.1868  0.0743  0.2847
 3308ntf    sn216667   4.145   4.505   3.377 -0.1385 -0.0822  0.1896
 3308ntf    nn316668   4.088   4.625   3.460 -0.1960  0.1722 -0.2151
 3308ntf    sn216669   3.958   4.711   3.437 -0.3416  0.0510  0.1475
 3308ntf    cn116670   4.004   4.870   3.513 -0.4088  0.0276  0.2382
 3308ntf    fn416671   4.252   4.543   3.147 -0.0585 -0.1873  0.4263
 3308ntf    fn416672   4.202   4.726   3.235  0.6781  0.2941 -0.1875
 3308ntf    fn416673   4.372   4.607   3.306 -0.1079 -0.2239  0.0675
 3308ntf    on516674   4.053   4.430   3.295  0.4301  0.0849 -0.6154
 3308ntf    on516675   4.248   4.437   3.451  0.0521 -0.4670 -0.4225
 3308ntf    on516676   3.846   4.681   3.522  0.2192 -0.4537  0.7210
 3308ntf    on516677   3.937   4.763   3.304  0.5967  0.7401  0.2586
 3308ntf    fn416678   3.961   4.882   3.638 -0.3636  0.5273  0.2083
 3308ntf    fn416679   4.135   4.879   3.527 -0.4290 -0.2887  0.6659
 3308ntf    fn416680   3.970   4.986   3.458  0.5056  0.5001  0.6512
 3309ntf    cn116681   1.441   6.442   2.607  0.2508 -0.1046 -0.0362
 3309ntf    sn216682   1.520   6.296   2.534  0.1865 -0.2394  0.1650
 3309ntf    nn316683   1.423   6.190   2.597 -0.5154  0.0682 -0.3943
 3309ntf    sn216684   1.458   6.040   2.628 -0.1898  0.2471  0.1137
 3309ntf    cn116685   1.538   5.999   2.469  0.2364 -0.2253  0.4474
 3309ntf    fn416686   1.322   6.458   2.551  0.1271 -0.5662  0.0933
 3309ntf    fn416687   1.424   6.436   2.738  0.1446  0.3040 -0.0288
 3309ntf    fn416688   1.509   6.553   2.580 -0.1093  0.0806 -0.1917
 3309ntf    on516689   1.511   6.321   2.393 -0.5478  0.1535  0.2771
 3309ntf    on516690   1.653   6.294   2.589  0.1446 -0.3616  0.2636
 3309ntf    on516691   1.342   5.954   2.621 -0.2199  0.2906  0.0769
 3309ntf    on516692   1.555   6.002   2.727 -0.3998 -0.6290 -0.0109
 3309ntf    fn416693   1.464   6.036   2.366  0.6819  0.0953  0.2381
 3309ntf    fn416694   1.658   6.052   2.447 -0.2425  0.6356 -0.1324
 3309ntf    fn416695   1.553   5.870   2.446  0.5032 -0.1007 -0.0919
 3310ntf    cn116696   5.313   4.407   5.507  0.0554  0.1710  0.4115
 3310ntf    sn216697   5.221   4.298   5.619 -0.0508 -0.3637 -0.1945
 3310ntf    nn316698   5.206   4.397   5.739 -0.3302 -0.3934 -0.2024
 3310ntf    sn216699   5.217   4.361   5.892 -0.0770 -0.1917 -0.1716
 3310ntf    cn116700   5.038   4.359   5.921  0.0008  0.0050  0.3202
 3310ntf    fn416701   5.431   4.438   5.558  0.2230  0.3015 -0.0532
 3310ntf    fn416702   5.339   4.339   5.397 -0.3228  0.7488 -0.0405
 3310ntf    fn416703   5.248   4.511   5.458 -0.0188 -0.1770 -0.2379
 3310ntf    on516704   5.101   4.266   5.545 -0.1553  0.0393 -0.1999
 3310ntf    on516705   5.312   4.186   5.631  0.3114 -0.0989 -0.4730
 3310ntf    on516706   5.271   4.470   5.970  0.1166 -0.1473 -0.3649
 3310ntf    on516707   5.257   4.231   5.938 -0.8389 -0.0593  0.8959
 3310ntf    fn416708   4.990   4.237   5.931 -0.3362  0.1319  0.2619
 3310ntf    fn416709   5.006   4.423   6.033 -0.6866  0.5687 -0.1934
 3310ntf    fn416710   4.968   4.421   5.827 -0.0271 -0.2974  0.1402
 3311ntf    cn116711   7.088   2.855   0.711 -0.0951 -0.3957  0.5085
 3311ntf    sn216712   7.082   2.765   0.553 -0.1080  0.6020 -0.0698
 3311ntf    nn316713   7.227   2.791   0.498 -0.1168  0.1332 -0.3232
 3311ntf    sn216714   7.261   2.895   0.385  0.4446 -0.0485 -0.3226
 3311ntf    cn116715   7.440   2.919   0.402  0.3154  0.3253  0.6029
 3311ntf    fn416716   7.183   2.806   0.789  0.1045 -0.3178  0.3157
 3311ntf    fn416717   7.116   2.984   0.699  0.6079 -0.5079  0.9237
 3311ntf    fn416718   6.977   2.842   0.783 -0.0087  0.3561  0.7885
 3311ntf    on516719   7.055   2.626   0.582  0.1362  0.4169 -0.7137
 3311ntf    on516720   6.981   2.839   0.482 -0.3799  0.1841 -0.1241
 3311ntf    on516721   7.208   3.024   0.424  0.0044 -0.4500  0.4417
 3311ntf    on516722   7.237   2.842   0.254 -0.1476 -0.1017 -0.1967
 3311ntf    fn416723   7.475   3.029   0.339 -0.4281  0.4203  0.3511
 3311ntf    fn416724   7.489   2.923   0.525  0.0526  0.4336  0.7034
 3311ntf    fn416725   7.505   2.821   0.341 -0.0406  0.5215 -0.0995
 3312ntf    cn116726   0.617   5.288   4.249  0.0194 -0.2138 -0.2238
 3312ntf    sn216727   0.528   5.334   4.097  0.0293  0.0985 -0.1375
 3312ntf    nn316728   0.644   5.353   3.993 -0.1855 -0.1047 -0.4177
 3312ntf    sn216729   0.626   5.423   3.854  0.4247  0.1420 -0.3732
 3312ntf    cn116730   0.725   5.576   3.871  0.3374  0.2116 -0.4942
 3312ntf    fn416731   0.538   5.265   4.353 -0.5036 -0.1826 -0.6103
 3312ntf    fn416732   0.687   5.181   4.219  0.3386 -0.1248  0.1872
 3312ntf    fn416733   0.708   5.376   4.286 -0.2346  0.0606 -0.2438
 3312ntf    on516734   0.454   5.211   4.076  0.1037  0.0803 -0.2888
 3312ntf    on516735   0.460   5.454   4.138 -0.5237 -0.3417  0.2547
 3312ntf    on516736   0.492   5.470   3.832  0.1089 -0.7334 -0.3178
 3312ntf    on516737   0.690   5.342   3.754  0.1570 -0.5770  0.0292
 3312ntf    fn416738   0.856   5.559   3.871  0.2852 -0.2306  0.2267
 3312ntf    fn416739   0.694   5.657   3.771  0.1236  0.1662 -0.4661
 3312ntf    fn416740   0.694   5.632   3.986  0.0525 -1.1168  0.1041
 3313ntf    cn116741   6.621   6.411   3.636  0.2875  0.0436  0.6472
 3313ntf    sn216742   6.494   6.383   3.762 -0.3192 -0.3879 -0.0462
 3313ntf    nn316743   6.390   6.484   3.701 -0.0145 -0.2241 -0.2917
 3313ntf    sn216744   6.250   6.461   3.634 -0.0680  0.0351 -0.2702
 3313ntf    cn116745   6.176   6.623   3.671 -0.3374 -0.0569 -0.4106
 3313ntf    fn416746   6.701   6.514   3.661  0.1733  0.2640  0.1259
 3313ntf    fn416747   6.690   6.302   3.607  0.1453  0.1447 -0.1151
 3313ntf    fn416748   6.568   6.430   3.516  0.2168 -0.5405  0.5839
 3313ntf    on516749   6.450   6.246   3.760 -0.0229 -0.4901  0.4047
 3313ntf    on516750   6.558   6.429   3.883  0.1241 -0.6189 -0.1920
 3313ntf    on516751   6.168   6.365   3.701  0.0323  0.5499  0.6042
 3313ntf    on516752   6.262   6.456   3.490  0.4525 -0.3221 -0.2174
 3313ntf    fn416753   6.046   6.630   3.645 -0.4793 -0.3582  0.2148
 3313ntf    fn416754   6.190   6.658   3.797  0.1751 -0.6968 -0.2853
 3313ntf    fn416755   6.224   6.728   3.606 -0.1608 -0.0221 -0.2208
 3314ntf    cn116756   0.101   4.064   1.711  0.0380  0.2332 -0.4104
 3314ntf    sn216757   0.223   3.984   1.820  0.0377  0.2591 -0.3915
 3314ntf    nn316758   0.326   3.938   1.711  0.1111  0.1093 -0.2587
 3314ntf    sn216759   0.394   3.799   1.686  0.0998  0.0558  0.0094
 3314ntf    cn116760   0.558   3.860   1.638  0.0203 -0.1152 -0.4814
 3314ntf    fn416761   0.011   3.982   1.660 -0.1793  0.0110  0.3278
 3314ntf    fn416762   0.039   4.156   1.783  0.4683 -0.0367  0.3168
 3314ntf    fn416763   0.168   4.121   1.612  0.7019  0.1531 -0.0154
 3314ntf    on516764   0.278   4.085   1.908 -0.3809  0.3610 -0.2451
 3314ntf    on516765   0.160   3.872   1.885 -0.2909  0.6573 -0.0173
 3314ntf    on516766   0.351   3.729   1.568  0.0854 -0.3788  0.2676
 3314ntf    on516767   0.420   3.715   1.801  0.1024  0.1573  0.0834
 3314ntf    fn416768   0.631   3.761   1.590 -0.2087 -0.4930 -0.0518
 3314ntf    fn416769   0.554   3.956   1.547 -0.5510  0.2552 -0.0740
 3314ntf    fn416770   0.629   3.900   1.742 -0.2952  0.3196 -0.4272
 3315ntf    cn116771   0.311   2.434   7.204  0.0250  0.0234 -0.3089
 3315ntf    sn216772   0.487   2.436   7.160  0.0696 -0.0087 -0.1323
 3315ntf    nn316773   0.540   2.488   7.298 -0.2621  0.2200 -0.0899
 3315ntf    sn216774   0.582   2.636   7.331 -0.3783  0.2146  0.0833
 3315ntf    cn116775   0.759   2.626   7.290 -0.3520  0.0359  0.2375
 3315ntf    fn416776   0.278   2.346   7.297 -0.2706  0.3324 -0.1168
 3315ntf    fn416777   0.268   2.548   7.256 -0.0048  0.3391 -1.0148
 3315ntf    fn416778   0.223   2.415   7.107  0.2408 -0.3052 -0.4435
 3315ntf    on516779   0.503   2.293   7.151  0.5416  0.0393 -0.0907
 3315ntf    on516780   0.495   2.517   7.041  0.3203  0.3294  0.1135
 3315ntf    on516781   0.581   2.668   7.472 -0.3749  0.1805  0.0912
 3315ntf    on516782   0.529   2.736   7.243 -0.7896  0.6122  0.7726
 3315ntf    fn416783   0.778   2.553   7.182 -0.3055  0.2671  0.0894
 3315ntf    fn416784   0.822   2.742   7.278  0.1660 -0.2700 -0.0356
 3315ntf    fn416785   0.836   2.575   7.385  0.2518 -0.1565 -0.3530
 3316ntf    cn116786   4.262   2.488   6.461 -0.2255 -0.1258  0.2497
 3316ntf    sn216787   4.326   2.565   6.309  0.0133 -0.3558  0.2317
 3316ntf    nn316788   4.333   2.432   6.226  0.3033 -0.1600 -0.0616
 3316ntf    sn216789   4.239   2.383   6.110  0.0866  0.1814 -0.0315
 3316ntf    cn116790   4.338   2.239   6.061  0.2350  0.3954 -0.3619
 3316ntf    fn416791   4.350   2.418   6.532  0.5630  0.6719  0.0856
 3316ntf    fn416792   4.220   2.584   6.541 -0.7234 -0.2758  0.1685
 3316ntf    fn416793   4.159   2.412   6.428 -0.5297  0.3153  0.1886
 3316ntf    on516794   4.225   2.661   6.272  0.4304  0.2444  0.6357
 3316ntf    on516795   4.452   2.617   6.357 -0.0721  0.2488 -0.1864
 3316ntf    on516796   4.249   2.469   5.995 -0.9938  0.6032  0.1789
 3316ntf    on516797   4.104   2.337   6.132  0.0056  0.6359  0.4478
 3316ntf    fn416798   4.377   2.166   6.163 -0.1009  0.3130 -0.2932
 3316ntf    fn416799   4.266   2.162   5.981 -0.2054  0.7429 -0.3032
 3316ntf    fn416800   4.453   2.263   5.999  0.4456 -0.7014 -0.4137
 3317ntf    cn116801   3.841   1.332   7.173 -0.1649  0.4052  0.2145
 3317ntf    sn216802   3.762   1.258   7.026  0.0672  0.4235  0.0799
 3317ntf    nn316803   3.612   1.254   7.073  0.0242 -0.0977 -0.1033
 3317ntf    sn216804   3.481   1.285   6.993  0.1803  0.0632 -0.2969
 3317ntf    cn116805   3.458   1.465   7.007 -0.0737  0.0108 -0.0188
 3317ntf    fn416806   3.828   1.261   7.284  0.0456  0.6426  0.3893
 3317ntf    fn416807   3.969   1.355   7.149 -0.1756 -0.0293 -0.2868
 3317ntf    fn416808   3.790   1.450   7.202  0.4644  0.7616 -0.1164
 3317ntf    on516809   3.807   1.347   6.922 -0.7560  0.4268 -0.2801
 3317ntf    on516810   3.816   1.125   7.016 -0.3960  0.2803 -0.5308
 3317ntf    on516811   3.355   1.240   7.047  0.1184 -0.3350 -0.7692
 3317ntf    on516812   3.491   1.257   6.852 -0.1397  0.0170 -0.3120
 3317ntf    fn416813   3.372   1.518   6.921 -0.4687  0.1291  0.4433
 3317ntf    fn416814   3.418   1.491   7.130  0.2009  0.0498  0.0633
 3317ntf    fn416815   3.575   1.523   6.988  0.0640 -0.4032 -0.4511
 3318ntf    cn116816   3.295   4.280   2.869  0.3732  0.4506 -0.4679
 3318ntf    sn216817   3.144   4.364   2.924  0.1774 -0.0138 -0.2910
 3318ntf    nn316818   3.101   4.270   3.042  0.2298  0.2098 -0.0934
 3318ntf    sn216819   3.048   4.311   3.184 -0.1900  0.3637 -0.2936
 3318ntf    cn116820   3.200   4.358   3.273 -0.0785 -0.2424 -0.1607
 3318ntf    fn416821   3.379   4.264   2.970  0.3733  0.4936 -0.4610
 3318ntf    fn416822   3.281   4.164   2.806  0.7382  0.2154 -0.1275
 3318ntf    fn416823   3.354   4.355   2.777  0.6005  0.5632 -0.2312
 3318ntf    on516824   3.202   4.490   2.962 -0.2780  0.0709  0.1342
 3318ntf    on516825   3.056   4.355   2.810  0.3388  0.4129 -0.4506
 3318ntf    on516826   2.991   4.197   3.251  0.3675  0.5811  0.5681
 3318ntf    on516827   2.971   4.432   3.197 -0.0959  0.3517  0.4302
 3318ntf    fn416828   3.281   4.254   3.262 -0.3595 -0.4280 -0.5361
 3318ntf    fn416829   3.250   4.464   3.213  0.1304 -0.0721  0.3178
 3318ntf    fn416830   3.182   4.374   3.403  0.6561  0.1434 -0.1043
 3319ntf    cn116831   0.021   1.970   2.468 -0.0390  0.4021 -0.2179
 3319ntf    sn216832  -0.018   1.999   2.293 -0.3238  0.3156 -0.1698
 3319ntf    nn316833   0.131   2.031   2.255 -0.4097 -0.0974 -0.8717
 3319ntf    sn216834   0.205   2.164   2.215 -0.0445 -0.1318 -0.3244
 3319ntf    cn116835   0.276   2.224   2.371 -0.1536  0.4065 -0.4808
 3319ntf    fn416836   0.059   2.081   2.530  0.3106  0.4317 -0.4791
 3319ntf    fn416837  -0.079   1.924   2.541 -0.0145 -0.1489 -0.5254
 3319ntf    fn416838   0.118   1.879   2.472 -0.8031 -0.4023  0.4136
 3319ntf    on516839  -0.074   1.879   2.237 -0.0401  0.1381 -0.0754
 3319ntf    on516840  -0.103   2.116   2.295 -0.7011  0.0364  0.0969
 3319ntf    on516841   0.123   2.277   2.180  0.1045  0.0525 -0.0859
 3319ntf    on516842   0.314   2.136   2.126  0.1917 -0.1066 -0.0428
 3319ntf    fn416843   0.375   2.308   2.347  0.8421 -0.6533 -0.1318
 3319ntf    fn416844   0.180   2.275   2.448 -0.2613 -0.6605  0.1144
 3319ntf    fn416845   0.326   2.129   2.448 -0.2228  0.3826 -0.4657
 3320ntf    cn116846   5.780   4.946   2.035  0.2985 -0.0541  0.1330
 3320ntf    sn216847   5.765   4.874   2.201  0.0085  0.2526  0.2399
 3320ntf    nn316848   5.770   5.003   2.289 -0.2507  0.6424 -0.3093
 3320ntf    sn216849   5.901   5.066   2.349  0.0265  0.1269 -0.3727
 3320ntf    cn116850   5.858   5.231   2.289 -0.2044  0.0820 -0.3318
 3320ntf    fn416851   5.746   4.863   1.937 -0.0908 -0.2569  0.4382
 3320ntf    fn416852   5.724   5.065   2.026  0.3555 -0.0299  0.0979
 3320ntf    fn416853   5.908   4.972   2.010  0.2638  0.2207  0.2443
 3320ntf    on516854   5.640   4.801   2.208  0.3749 -0.4347 -0.2682
 3320ntf    on516855   5.877   4.785   2.217  0.1434  0.4258  0.2625
 3320ntf    on516856   6.020   5.028   2.277 -0.1371 -0.3725 -0.3890
 3320ntf    on516857   5.897   5.085   2.492  0.1215 -0.3435 -0.3052
 3320ntf    fn416858   5.739   5.269   2.334 -0.2865 -0.4854 -0.0672
 3320ntf    fn416859   5.947   5.317   2.336 -0.2316  0.3488 -0.7520
 3320ntf    fn416860   5.847   5.244   2.157  0.6637  0.1992 -0.3998
 3321ntf    cn116861   1.513   3.768   6.285  0.3582  0.1255 -0.0103
 3321ntf    sn216862   1.418   3.730   6.436  0.3805  0.0291 -0.0208
 3321ntf    nn316863   1.300   3.833   6.429 -0.0868 -0.4703  0.4570
 3321ntf    sn216864   1.295   3.976   6.493  0.0271 -0.1863 -0.1531
 3321ntf    cn116865   1.255   3.925   6.663 -0.3230  0.1660 -0.1295
 3321ntf    fn416866   1.592   3.873   6.294  0.4124  0.0829  0.0159
 3321ntf    fn416867   1.588   3.665   6.249  0.0670 -0.1008  0.0225
 3321ntf    fn416868   1.433   3.796   6.183  0.6158 -0.6016 -0.4224
 3321ntf    on516869   1.371   3.595   6.419  0.6675  0.0060 -0.6617
 3321ntf    on516870   1.512   3.751   6.543 -0.1362  0.2075  0.4027
 3321ntf    on516871   1.179   4.055   6.458 -0.1700 -0.0499  0.7753
 3321ntf    on516872   1.422   4.043   6.501 -0.0060 -0.1282 -0.1098
 3321ntf    fn416873   1.146   3.850   6.671 -0.0207 -0.2944 -0.3177
 3321ntf    fn416874   1.351   3.855   6.720 -0.0588  0.2897 -0.4253
 3321ntf    fn416875   1.233   4.024   6.749 -0.4264  0.1552 -0.1429
 3322ntf    cn116876   6.465   4.580   3.822 -0.0357  0.1145 -0.4877
 3322ntf    sn216877   6.432   4.616   3.647 -0.2228  0.4302 -0.3889
 3322ntf    nn316878   6.278   4.585   3.646 -0.1054 -0.2122  0.3207
 3322ntf    sn216879   6.165   4.679   3.701 -0.2026  0.2424 -0.6347
 3322ntf    cn116880   6.113   4.752   3.543 -0.1048  0.3985 -0.5950
 3322ntf    fn416881   6.444   4.457   3.865 -0.1919  0.1768 -0.3814
 3322ntf    fn416882   6.593   4.594   3.852 -0.3678  0.1548  1.0323
 3322ntf    fn416883   6.404   4.657   3.911  0.4312 -0.1475  0.0653
 3322ntf    on516884   6.470   4.755   3.637 -0.0367  0.3777 -0.4103
 3322ntf    on516885   6.515   4.525   3.572 -0.1475  0.4468 -0.3260
 3322ntf    on516886   6.188   4.785   3.796 -0.1512 -0.3188 -0.0167
 3322ntf    on516887   6.058   4.591   3.741  0.3723  0.0395  0.5014
 3322ntf    fn416888   6.014   4.838   3.560 -0.5242 -0.1764 -0.1041
 3322ntf    fn416889   6.217   4.814   3.488  0.6219  0.1417  0.4591
 3322ntf    fn416890   6.071   4.659   3.459 -0.0647 -0.0791 -0.0931
 3323ntf    cn116891   1.745   1.877   1.755 -0.0344 -0.1552  0.2852
 3323ntf    sn216892   1.756   1.797   1.593 -0.2418  0.2034  0.0938
 3323ntf    nn316893   1.772   1.921   1.498 -0.1984 -0.0378 -0.2174
 3323ntf    sn216894   1.850   1.927   1.362  0.2613  0.0938  0.0492
 3323ntf    cn116895   1.767   1.802   1.259  0.3850  0.5004 -0.5519
 3323ntf    fn416896   1.664   1.981   1.756  0.0313 -0.1030  0.0730
 3323ntf    fn416897   1.701   1.790   1.845  0.1379 -0.3065  0.2239
 3323ntf    fn416898   1.863   1.919   1.798  0.3349 -0.4000 -0.4752
 3323ntf    on516899   1.879   1.723   1.605 -0.5290 -0.3274 -0.1723
 3323ntf    on516900   1.633   1.724   1.574 -0.1526  0.0530  0.0931
 3323ntf    on516901   1.985   1.875   1.369  0.3171  0.2339  0.0090
 3323ntf    on516902   1.826   2.049   1.290  0.1655 -0.2058 -0.4317
 3323ntf    fn416903   1.837   1.760   1.155  0.4797 -0.4693 -0.1097
 3323ntf    fn416904   1.749   1.683   1.316 -0.1184  0.8964  0.1370
 3323ntf    fn416905   1.651   1.847   1.215  0.0052  0.4107  0.3198
 3324ntf    cn116906   1.707   0.173   3.398 -0.3512  0.0538  0.0300
 3324ntf    sn216907   1.588   0.287   3.475 -0.2670  0.0498  0.1659
 3324ntf    nn316908   1.469   0.185   3.466  0.5145 -0.8341 -0.3290
 3324ntf    sn216909   1.397   0.102   3.579  0.1230  0.2958  0.2659
 3324ntf    cn116910   1.245   0.034   3.505  0.3848 -0.2553  0.2314
 3324ntf    fn416911   1.683   0.050   3.441  0.0465  0.0069  0.1193
 3324ntf    fn416912   1.690   0.159   3.268  0.2420 -0.0193 -0.0421
 3324ntf    fn416913   1.835   0.199   3.418 -0.1791 -0.3976 -0.4738
 3324ntf    on516914   1.640   0.324   3.605  0.5589  0.3697 -0.2485
 3324ntf    on516915   1.568   0.403   3.393  0.4986 -0.1368 -0.2901
 3324ntf    on516916   1.346   0.187   3.684  0.2582  0.2703  0.3517
 3324ntf    on516917   1.462  -0.022   3.612 -0.4816 -0.1976 -0.3737
 3324ntf    fn416918   1.206   0.107   3.402  0.4261 -0.4832  0.0530
 3324ntf    fn416919   1.272  -0.086   3.457 -0.7156 -0.1966 -0.5762
 3324ntf    fn416920   1.149   0.036   3.596 -0.3082 -0.4273 -0.4836
 3325ntf    cn116921   6.421   4.231   2.344 -0.1234 -0.2574  0.0379
 3325ntf    sn216922   6.567   4.124   2.363  0.2412  0.2268 -0.0106
 3325ntf    nn316923   6.686   4.218   2.323  0.1495  0.3490  0.0009
 3325ntf    sn216924   6.783   4.212   2.199  0.1862 -0.2647  0.0574
 3325ntf    cn116925   6.913   4.110   2.275  0.2400 -0.0171  0.3028
 3325ntf    fn416926   6.315   4.161   2.379 -0.0143 -0.1874  0.5208
 3325ntf    fn416927   6.415   4.336   2.425 -0.2223  0.2242 -0.5851
 3325ntf    fn416928   6.404   4.272   2.219 -0.4655  0.3281  0.2705
 3325ntf    on516929   6.576   4.106   2.506 -0.2133  0.2330  0.0201
 3325ntf    on516930   6.548   4.012   2.274  0.2299  0.2187  0.0021
 3325ntf    on516931   6.847   4.341   2.186 -0.2409  0.0246  0.7334
 3325ntf    on516932   6.739   4.141   2.082  0.1545  0.0155 -0.1008
 3325ntf    fn416933   6.942   4.150   2.398 -0.0175  0.0171  0.3529
 3325ntf    fn416934   6.869   3.985   2.277  0.2498 -0.0209  0.2586
 3325ntf    fn416935   7.029   4.112   2.211 -0.2575 -0.1141 -0.6210
 3326ntf    cn116936   6.181   6.409   2.161  0.3531  0.0956  0.2560
 3326ntf    sn216937   6.046   6.522   2.112  0.2336 -0.2997 -0.3393
 3326ntf    nn316938   6.130   6.653   2.131  0.0970 -0.2480 -0.0827
 3326ntf    sn216939   6.215   6.716   2.015 -0.1912  0.3215  0.0153
 3326ntf    cn116940   6.117   6.868   1.992 -0.4415  0.1709  0.0872
 3326ntf    fn416941   6.217   6.408   2.288 -0.1818  0.1625  0.4135
 3326ntf    fn416942   6.152   6.284   2.130  0.0926  0.1936  0.0988
 3326ntf    fn416943   6.284   6.446   2.087 -0.5316 -0.2498 -1.2045
 3326ntf    on516944   6.004   6.478   1.981 -0.5457  0.1062 -0.2267
 3326ntf    on516945   5.945   6.512   2.215 -0.2519 -0.3489 -0.8169
 3326ntf    on516946   6.197   6.669   1.880  0.3947  0.0089  0.0427
 3326ntf    on516947   6.343   6.766   2.061 -0.2414  0.0533  0.4527
 3326ntf    fn416948   6.160   6.932   1.884 -0.4317 -0.0915 -0.0679
 3326ntf    fn416949   5.989   6.841   1.972 -0.2503 -0.8209  0.1628
 3326ntf    fn416950   6.128   6.948   2.097  0.1167 -0.3233  0.4138
 3327ntf    cn116951   6.204   3.174   0.924 -0.1572 -0.0186  0.6123
 3327ntf    sn216952   6.360   3.145   1.014  0.2172 -0.3267 -0.1315
 3327ntf    nn316953   6.459   3.209   0.911  0.2928 -0.2514 -0.0119
 3327ntf    sn216954   6.535   3.137   0.794  0.1190 -0.0926 -0.2230
 3327ntf    cn116955   6.694   3.126   0.881  0.1319  0.3215 -0.1903
 3327ntf    fn416956   6.183   3.096   0.819  0.0873  0.1928  0.4062
 3327ntf    fn416957   6.105   3.153   1.009 -0.7343  0.2294  0.0084
 3327ntf    fn416958   6.193   3.301   0.891  0.2692  0.0181  0.6038
 3327ntf    on516959   6.341   3.223   1.134 -0.0458 -0.3311 -0.1695
 3327ntf    on516960   6.357   3.003   1.038 -0.6854 -0.3447 -0.3077
 3327ntf    on516961   6.554   3.231   0.686 -0.7552  0.6398  0.2532
 3327ntf    on516962   6.503   2.999   0.765  0.4394 -0.2963  0.3829
 3327ntf    fn416963   6.790   3.122   0.790 -0.1354  0.1079 -0.4655
 3327ntf    fn416964   6.721   3.229   0.959  0.4405 -0.0668  0.2253
 3327ntf    fn416965   6.694   3.023   0.964  0.1569  0.4761  0.0023
 3328ntf    cn116966   4.197   3.800   6.575  0.2627 -0.3028 -0.1309
 3328ntf    sn216967   4.139   3.953   6.496  0.1803 -0.2252  0.0813
 3328ntf    nn316968   4.030   3.881   6.408 -0.0700 -0.0583  0.2524
 3328ntf    sn216969   3.894   3.929   6.347  0.1490  0.0949 -0.1186
 3328ntf    cn116970   3.930   3.913   6.170  0.3664  0.3966 -0.1020
 3328ntf    fn416971   4.233   3.706   6.489  0.1949 -0.3001 -0.1626
 3328ntf    fn416972   4.302   3.814   6.655  0.4969 -0.1628 -0.4572
 3328ntf    fn416973   4.100   3.738   6.639  0.4187 -0.2142  0.1899
 3328ntf    on516974   4.069   4.023   6.602 -0.7011 -0.7071 -0.1675
 3328ntf    on516975   4.242   4.022   6.423 -0.1204  0.0692 -0.0729
 3328ntf    on516976   3.853   4.064   6.378 -0.8664 -0.0943 -0.5880
 3328ntf    on516977   3.797   3.824   6.367  0.3548 -0.0262  0.2571
 3328ntf    fn416978   3.940   3.788   6.129 -0.1601  0.4473 -0.4030
 3328ntf    fn416979   3.841   3.973   6.091 -0.1900 -0.4038 -0.0947
 3328ntf    fn416980   4.052   3.959   6.145  0.5178  0.0216 -0.0537
 3329ntf    cn116981   1.416   3.754   1.089 -0.2886 -0.1323  0.1379
 3329ntf    sn216982   1.337   3.911   1.045 -0.1199  0.0921  0.6193
 3329ntf    nn316983   1.381   4.010   1.158  0.4728 -0.2584  0.6997
 3329ntf    sn216984   1.281   4.089   1.250 -0.0941 -0.3156  0.1387
 3329ntf    cn116985   1.397   4.157   1.372 -0.5692  0.4638  0.1657
 3329ntf    fn416986   1.402   3.657   1.001  0.9960 -0.3460  0.1458
 3329ntf    fn416987   1.547   3.777   1.090 -0.4311  0.7196  0.0239
 3329ntf    fn416988   1.383   3.699   1.205  0.1968  0.4865  0.5767
 3329ntf    on516989   1.398   3.946   0.919 -0.5646  0.6167  0.5450
 3329ntf    on516990   1.197   3.877   1.034  0.0143 -0.3190  0.1455
 3329ntf    on516991   1.193   4.004   1.327 -0.2444 -0.4803 -0.2134
 3329ntf    on516992   1.226   4.206   1.186  0.1557 -0.4442 -0.3145
 3329ntf    fn416993   1.341   4.218   1.475 -0.4460  0.3723  0.2878
 3329ntf    fn416994   1.472   4.058   1.420 -0.5275  0.1838 -0.4670
 3329ntf    fn416995   1.491   4.235   1.320 -0.4181  0.0302 -0.2137
 3330ntf    cn116996   1.304   6.634   2.311 -0.1475  0.5520  0.1478
 3330ntf    sn216997   1.274   6.639   2.132  0.0833 -0.0138  0.0891
 3330ntf    nn316998   1.406   6.711   2.088 -0.0168  0.0722 -0.0710
 3330ntf    sn216999   1.450   6.757   1.944  0.2241 -0.0895 -0.0488
 3330ntf    cn117000   1.511   6.925   1.976  0.1512 -0.0102 -0.3260
 3330ntf    fn417001   1.349   6.752   2.351 -0.2149  0.4311  0.5859
 3330ntf    fn417002   1.195   6.602   2.378 -0.4054  0.3030 -0.3853
 3330ntf    fn417003   1.395   6.544   2.347 -0.8072 -0.2537 -0.1679
 3330ntf    on517004   1.252   6.502   2.096 -0.4214  0.0111  0.2910
 3330ntf    on517005   1.164   6.731   2.111  0.0231 -0.0076  0.4287
 3330ntf    on517006   1.340   6.790   1.857  0.0560  0.2240  0.2816
 3330ntf    on517007   1.559   6.689   1.877  0.2644 -0.3321  0.2582
 3330ntf    fn417008   1.594   6.975   1.885  0.2933  0.5098  0.0804
 3330ntf    fn417009   1.416   7.016   1.992  0.0135 -0.1493 -0.3559
 3330ntf    fn417010   1.581   6.940   2.087 -0.4491 -0.1420  0.0743
 3331ntf    cn117011   3.198   4.407   1.632  0.3857  0.4584  0.4095
 3331ntf    sn217012   3.236   4.386   1.456  0.0170 -0.1513  0.3968
 3331ntf    nn317013   3.108   4.314   1.402  0.2951 -0.5492  0.2637
 3331ntf    sn217014   3.069   4.162   1.406 -0.2674 -0.4149 -0.0143
 3331ntf    cn117015   3.107   4.123   1.233 -0.4328 -0.4529 -0.0428
 3331ntf    fn417016   3.185   4.290   1.693 -0.3098  0.0137 -0.5588
 3331ntf    fn417017   3.290   4.476   1.698  0.6775  0.0499  0.4310
 3331ntf    fn417018   3.081   4.468   1.649  0.2703  0.2559  0.3484
 3331ntf    on517019   3.250   4.523   1.411  0.8378 -0.5865 -0.6981
 3331ntf    on517020   3.356   4.307   1.460  0.0560 -0.0822  0.6125
 3331ntf    on517021   2.926   4.142   1.402 -0.4850  0.9111  0.4354
 3331ntf    on517022   3.141   4.070   1.490 -0.3993 -0.6198 -0.1237
 3331ntf    fn417023   3.108   3.992   1.216 -0.9709 -0.3379 -1.0248
 3331ntf    fn417024   3.022   4.175   1.145 -0.5417 -0.4211  0.0814
 3331ntf    fn417025   3.229   4.167   1.206 -0.6649  0.1562 -0.1266
 3332ntf    cn117026   4.598   4.057   4.240  0.2467  0.0020  0.0383
 3332ntf    sn217027   4.604   4.051   4.422  0.0865 -0.0360  0.0423
 3332ntf    nn317028   4.471   4.125   4.462  0.0731 -0.0934  0.1027
 3332ntf    sn217029   4.368   4.070   4.567 -0.2017  0.1559 -0.0331
 3332ntf    cn117030   4.278   3.958   4.456 -0.1692  0.0339  0.0631
 3332ntf    fn417031   4.702   3.993   4.189  0.3008  0.1372 -0.0206
 3332ntf    fn417032   4.487   4.016   4.181  0.1793  0.5182 -0.1975
 3332ntf    fn417033   4.617   4.183   4.203 -0.1315  0.0923  0.1476
 3332ntf    on517034   4.605   3.909   4.445 -0.5159  0.0326  0.5147
 3332ntf    on517035   4.725   4.124   4.451  0.2208 -0.3938  0.3895
 3332ntf    on517036   4.273   4.165   4.617 -0.3566  0.1013 -0.2248
 3332ntf    on517037   4.426   3.987   4.671 -0.2192 -0.8963 -0.8426
 3332ntf    fn417038   4.247   4.011   4.339  0.0955 -0.1669 -0.0980
 3332ntf    fn417039   4.358   3.860   4.416 -0.2253  0.0004  0.0326
 3332ntf    fn417040   4.178   3.901   4.522 -0.1036 -0.1286  0.0224
 3333ntf    cn117041   5.087   5.855   2.574 -0.2049  0.2590  0.4207
 3333ntf    sn217042   4.944   5.772   2.498 -0.0113  0.2257  0.0927
 3333ntf    nn317043   4.827   5.864   2.548 -0.2837 -0.4864  0.7831
 3333ntf    sn217044   4.685   5.824   2.602 -0.5366 -0.1897  0.3466
 3333ntf    cn117045   4.671   5.954   2.729 -0.1651 -0.0033  0.1968
 3333ntf    fn417046   5.140   5.958   2.511  0.1334 -0.0991  0.1114
 3333ntf    fn417047   5.059   5.903   2.694 -0.0477  0.7859  0.2486
 3333ntf    fn417048   5.192   5.775   2.584  0.1125  0.5990 -0.1994
 3333ntf    on517049   4.967   5.793   2.357  0.5624 -0.2119  0.1169
 3333ntf    on517050   4.957   5.640   2.554  0.4894  0.5028  0.6440
 3333ntf    on517051   4.669   5.697   2.667 -0.0696 -0.4040  0.0477
 3333ntf    on517052   4.582   5.866   2.510  0.0579  0.3059 -0.1044
 3333ntf    fn417053   4.779   5.947   2.805 -0.2014 -0.3786  0.2134
 3333ntf    fn417054   4.657   6.076   2.679  0.3997 -0.1715 -0.3970
 3333ntf    fn417055   4.568   5.919   2.803 -0.1076 -1.0910 -0.2271
 3334ntf    cn117056   2.594   2.680   1.134 -0.4523  0.0082 -0.2196
 3334ntf    sn217057   2.532   2.600   0.983 -0.0051 -0.0953 -0.3489
 3334ntf    nn317058   2.566   2.708   0.873 -0.1378 -0.0088 -0.3055
 3334ntf    sn217059   2.624   2.693   0.728  0.0601 -0.3067 -0.1981
 3334ntf    cn117060   2.512   2.801   0.634 -0.3522 -0.5181  0.0500
 3334ntf    fn417061   2.726   2.686   1.145 -0.4966  0.4194  0.0708
 3334ntf    fn417062   2.558   2.807   1.138  0.2328  0.1823  0.8150
 3334ntf    fn417063   2.545   2.638   1.250  0.1426 -0.1959 -0.0352
 3334ntf    on517064   2.623   2.488   0.976 -0.6504 -0.6579  0.2767
 3334ntf    on517065   2.391   2.574   0.997 -0.0977  0.8333  0.6031
 3334ntf    on517066   2.622   2.567   0.659 -0.0360 -0.1487 -0.4860
 3334ntf    on517067   2.743   2.770   0.702 -0.2177  0.0346 -0.4780
 3334ntf    fn417068   2.389   2.755   0.652 -0.2502 -0.7714  0.1059
 3334ntf    fn417069   2.504   2.920   0.691 -0.2142 -0.4102 -0.1541
 3334ntf    fn417070   2.549   2.824   0.509  0.0197 -0.7178  0.1240
 3335ntf    cn117071   5.214   0.119   2.952 -0.3178 -0.2680  0.0229
 3335ntf    sn217072   5.307  -0.015   3.031 -0.1979 -0.0628  0.2302
 3335ntf    nn317073   5.443  -0.009   2.953 -0.1541  0.1920  0.3270
 3335ntf    sn217074   5.588   0.019   3.007  0.1765 -0.3591 -0.2669
 3335ntf    cn117075   5.629   0.174   2.920 -0.3959 -0.0511  0.0083
 3335ntf    fn417076   5.085   0.090   2.965 -0.2117 -0.5356  0.4806
 3335ntf    fn417077   5.225   0.242   2.998  0.6720 -0.2761 -0.1844
 3335ntf    fn417078   5.222   0.122   2.820 -0.3876  0.6300  0.0306
 3335ntf    on517079   5.303   0.032   3.167 -0.5070 -0.3452  0.3209
 3335ntf    on517080   5.245  -0.143   3.004  0.2856 -0.4100  0.7224
 3335ntf    on517081   5.682  -0.076   2.951 -0.1076 -0.6946 -0.1791
 3335ntf    on517082   5.603   0.059   3.144 -0.1530 -0.1147 -0.3002
 3335ntf    fn417083   5.755   0.213   2.929 -0.4462  0.1127  0.0153
 3335ntf    fn417084   5.596   0.157   2.793 -0.0345  0.1421 -0.1117
 3335ntf    fn417085   5.561   0.277   2.966  0.7912  0.3738  0.8634
 3336ntf    cn117086   0.776   0.307   6.028  0.3577 -0.3227  0.5032
 3336ntf    sn217087   0.611   0.337   6.098  0.2363 -0.1598  0.1491
 3336ntf    nn317088   0.646   0.422   6.225  0.1804  0.1813 -0.0617
 3336ntf    sn217089   0.566   0.530   6.306 -0.0561 -0.2901  0.3375
 3336ntf    cn117090   0.669   0.673   6.263 -0.2016 -0.3644 -0.2624
 3336ntf    fn417091   0.793   0.177   6.012 -0.7408 -0.4172  0.0286
 3336ntf    fn417092   0.783   0.360   5.907 -0.3000  0.2476  0.7027
 3336ntf    fn417093   0.875   0.359   6.099  0.4765  0.6965 -0.3902
 3336ntf    on517094   0.534   0.415   6.005 -0.0360 -0.4131  0.1606
 3336ntf    on517095   0.568   0.204   6.130 -0.1131  0.0090  0.3874
 3336ntf    on517096   0.585   0.501   6.446  0.1466  0.0483  0.3802
 3336ntf    on517097   0.429   0.540   6.261  0.1366  0.6404 -0.0646
 3336ntf    fn417098   0.661   0.779   6.341 -0.0818 -0.3005 -0.3367
 3336ntf    fn417099   0.799   0.652   6.255 -0.1032  0.1502 -0.0541
 3336ntf    fn417100   0.634   0.730   6.149 -0.4384  0.3941  0.1826
 3337ntf    cn117101   2.843   5.426   4.185  0.0196 -0.3259  0.3052
 3337ntf    sn217102   2.987   5.376   4.087  0.2232 -0.0355  0.4531
 3337ntf    nn317103   3.051   5.513   4.047 -0.3255  0.1345  0.1447
 3337ntf    sn217104   3.027   5.598   3.917  0.0482 -0.4470 -0.3102
 3337ntf    cn117105   3.148   5.533   3.798  0.5280 -0.1025 -0.0127
 3337ntf    fn417106   2.775   5.522   4.125 -0.2572 -0.2450  0.7413
 3337ntf    fn417107   2.750   5.335   4.210 -0.2788  0.0353  0.5239
 3337ntf    fn417108   2.886   5.479   4.299  0.2166  0.0625  0.0505
 3337ntf    on517109   3.067   5.312   4.189 -0.0479  0.2641  0.8555
 3337ntf    on517110   2.929   5.291   3.986  1.1338 -0.1329 -0.0013
 3337ntf    on517111   3.055   5.739   3.922 -0.1961 -0.4081 -0.0149
 3337ntf    on517112   2.902   5.571   3.849 -0.0217 -0.0321 -0.3464
 3337ntf    fn417113   3.162   5.625   3.704 -0.7400  0.4745  0.3396
 3337ntf    fn417114   3.259   5.508   3.865 -0.0062 -0.9102  0.5920
 3337ntf    fn417115   3.106   5.417   3.751  0.3853 -0.1763  0.2918
 3338ntf    cn117116   3.036   0.603   5.529 -0.0767 -0.1372  0.5133
 3338ntf    sn217117   2.860   0.563   5.550 -0.1987  0.1197  0.0122
 3338ntf    nn317118   2.850   0.449   5.442  0.0373 -0.0020  0.1184
 3338ntf    sn217119   2.874   0.296   5.465  0.2127 -0.0249 -0.2092
 3338ntf    cn117120   2.958   0.248   5.311 -0.0777 -0.7323 -0.1523
 3338ntf    fn417121   3.107   0.580   5.638 -0.1565 -0.3628  0.5174
 3338ntf    fn417122   3.088   0.545   5.422  0.1319  0.2611  0.3958
 3338ntf    fn417123   3.051   0.733   5.508  0.4447 -0.2559  0.1371
 3338ntf    on517124   2.836   0.518   5.685 -0.2938 -0.1451 -0.0921
 3338ntf    on517125   2.793   0.682   5.505  0.5097  0.7692  0.6396
 3338ntf    on517126   2.752   0.219   5.474  0.2774 -0.0931  0.0915
 3338ntf    on517127   2.975   0.271   5.565 -0.3843  0.1296  0.4495
 3338ntf    fn417128   3.034   0.351   5.280  0.2270 -0.7318  0.5856
 3338ntf    fn417129   3.032   0.139   5.326  0.9421 -0.0528 -0.1660
 3338ntf    fn417130   2.869   0.234   5.214 -0.2945 -0.4008 -0.0063
 3339ntf    cn117131   4.584   6.713   0.136 -0.4419  0.0272  0.3996
 3339ntf    sn217132   4.511   6.595   0.019 -0.1656  0.2106  0.0386
 3339ntf    nn317133   4.571   6.454   0.052 -0.4477 -0.0531 -0.5560
 3339ntf    sn217134   4.701   6.385  -0.003  0.0734  0.3758  0.1221
 3339ntf    cn117135   4.627   6.255  -0.107 -0.0223  0.3763  0.1891
 3339ntf    fn417136   4.565   6.838   0.099  0.1395 -0.2593 -0.9420
 3339ntf    fn417137   4.540   6.696   0.260  0.0897 -0.0420  0.5832
 3339ntf    fn417138   4.715   6.693   0.134 -0.5676 -0.8098 -0.1802
 3339ntf    on517139   4.371   6.590   0.055 -0.1087  0.0855  0.2483
 3339ntf    on517140   4.541   6.645  -0.113 -0.0133  0.3421  0.1243
 3339ntf    on517141   4.768   6.309   0.100 -0.0738  0.1733  0.0690
 3339ntf    on517142   4.787   6.467  -0.084 -0.4129  0.0181 -0.7713
 3339ntf    fn417143   4.701   6.210  -0.207  0.6688  0.4110  0.6820
 3339ntf    fn417144   4.594   6.150  -0.034 -0.0664  0.0399 -0.3092
 3339ntf    fn417145   4.514   6.294  -0.165  0.0443  0.1208 -0.1087
 3340ntf    cn117146   2.144   0.055   2.526 -0.2282  0.0700 -0.4002
 3340ntf    sn217147   2.286   0.112   2.624 -0.0423 -0.2759 -0.4660
 3340ntf    nn317148   2.310  -0.012   2.718  0.1605 -0.1160 -0.3071
 3340ntf    sn217149   2.230  -0.061   2.843  0.2063  0.0058 -0.2286
 3340ntf    cn117150   2.319   0.048   2.957 -0.0302 -0.1903  0.1432
 3340ntf    fn417151   2.129   0.136   2.422  0.2391 -0.1660 -0.6532
 3340ntf    fn417152   2.172  -0.062   2.470  0.4756 -0.1247  0.3327
 3340ntf    fn417153   2.023   0.054   2.579  0.1547  0.2452  0.4892
 3340ntf    on517154   2.392   0.133   2.529  0.2159 -0.4872 -0.2256
 3340ntf    on517155   2.238   0.226   2.697  0.0344  0.1557 -1.0789
 3340ntf    on517156   2.257  -0.200   2.870 -0.3968 -0.1524 -0.4159
 3340ntf    on517157   2.091  -0.023   2.844  0.1613 -0.1290 -0.7462
 3340ntf    fn417158   2.266   0.168   2.972 -0.3747 -0.3328  0.0725
 3340ntf    fn417159   2.336  -0.006   3.077  0.4952  0.3437  0.3150
 3340ntf    fn417160   2.446   0.059   2.923 -0.0442  0.4232  0.2867
 3341ntf    cn117161   4.778   4.761   4.125  0.0972  0.2495  0.2448
 3341ntf    sn217162   4.934   4.685   4.072 -0.1969  0.0630 -0.3602
 3341ntf    nn317163   4.917   4.711   3.918  0.0615 -0.5544 -0.4962
 3341ntf    sn217164   4.969   4.832   3.834 -0.1417  0.1155  0.3247
 3341ntf    cn117165   5.123   4.759   3.769 -0.4249 -0.1739 -0.0231
 3341ntf    fn417166   4.779   4.807   4.250 -0.1893  0.1307  0.2927
 3341ntf    fn417167   4.732   4.862   4.053 -0.1790  0.0108  0.0886
 3341ntf    fn417168   4.683   4.669   4.119  0.4044 -0.0521 -0.0007
 3341ntf    on517169   5.034   4.757   4.147  0.0665 -0.5192 -0.1480
 3341ntf    on517170   4.919   4.547   4.110 -0.2139  0.0518 -0.4072
 3341ntf    on517171   5.011   4.948   3.909 -0.0602 -0.0658  0.5584
 3341ntf    on517172   4.889   4.852   3.716  0.8988 -0.4068 -0.4842
 3341ntf    fn417173   5.190   4.701   3.867  0.6687  0.7265 -0.2311
 3341ntf    fn417174   5.103   4.669   3.674 -0.1927  0.0631 -0.2961
 3341ntf    fn417175   5.199   4.849   3.709 -0.1078 -0.5507 -0.1889
 3342ntf    cn117176   1.205   1.471   2.815  0.2165 -0.1387 -0.1203
 3342ntf    sn217177   1.311   1.349   2.898  0.0963 -0.2361 -0.1084
 3342ntf    nn317178   1.253   1.225   2.821 -0.0104 -0.3890  0.2180
 3342ntf    sn217179   1.138   1.127   2.865 -0.3926 -0.0107  0.0617
 3342ntf    cn117180   1.215   1.000   2.969 -0.1996 -0.1465 -0.2464
 3342ntf    fn417181   1.091   1.422   2.768  0.1895 -0.0130 -0.1861
 3342ntf    fn417182   1.183   1.579   2.888 -0.2423 -0.5344  0.3411
 3342ntf    fn417183   1.261   1.523   2.708  0.1651 -0.2472 -0.2001
 3342ntf    on517184   1.450   1.369   2.863  0.1332 -0.4992 -0.1208
 3342ntf    on517185   1.273   1.359   3.036 -0.0530  0.7151 -0.2132
 3342ntf    on517186   1.085   1.061   2.748  0.3329 -0.1296 -0.2027
 3342ntf    on517187   1.032   1.191   2.939  0.0086  0.2526  0.4076
 3342ntf    fn417188   1.307   0.921   2.916 -0.2259 -0.2938 -0.0742
 3342ntf    fn417189   1.266   1.055   3.077 -0.6299 -0.2710  0.0241
 3342ntf    fn417190   1.119   0.928   3.025  0.1938 -0.8102 -0.4040
 3343ntf    cn117191   6.227   2.487   1.423 -0.0146 -0.2539 -0.0152
 3343ntf    sn217192   6.276   2.420   1.585 -0.0014 -0.3630 -0.0645
 3343ntf    nn317193   6.432   2.431   1.569 -0.0027 -0.4775 -0.1605
 3343ntf    sn217194   6.538   2.407   1.682  0.0227  0.1015 -0.0611
 3343ntf    cn117195   6.564   2.228   1.661  0.1033  0.1607 -0.4755
 3343ntf    fn417196   6.096   2.505   1.417 -0.0545 -0.4587  0.2441
 3343ntf    fn417197   6.273   2.610   1.411  0.2776 -0.3706 -0.0962
 3343ntf    fn417198   6.259   2.409   1.321  0.3713 -0.7445  0.4741
 3343ntf    on517199   6.228   2.519   1.679 -0.4937 -0.0660 -0.6192
 3343ntf    on517200   6.215   2.290   1.594 -0.8856  0.0397 -0.1189
 3343ntf    on517201   6.493   2.419   1.819 -0.2095  0.1464 -0.1413
 3343ntf    on517202   6.667   2.465   1.653  0.3343 -0.4633  0.1867
 3343ntf    fn417203   6.462   2.148   1.688 -0.2935  0.8197  0.0138
 3343ntf    fn417204   6.611   2.205   1.540  0.0918  0.7424 -0.5930
 3343ntf    fn417205   6.666   2.193   1.736 -0.2521  0.5339  0.2000
 3344ntf    cn117206   2.645   0.783   0.570  0.4925 -0.1791 -0.3920
 3344ntf    sn217207   2.525   0.752   0.437 -0.0412 -0.4441  0.1443
 3344ntf    nn317208   2.423   0.661   0.513 -0.2814 -0.1673  0.1554
 3344ntf    sn217209   2.409   0.504   0.513 -0.1829 -0.1800  0.7066
 3344ntf    cn117210   2.368   0.464   0.685 -0.9093  0.8051  0.7698
 3344ntf    fn417211   2.754   0.844   0.528  0.3125  0.3061 -0.1596
 3344ntf    fn417212   2.590   0.855   0.666  0.6751 -0.0120 -0.4117
 3344ntf    fn417213   2.682   0.669   0.628  0.1025 -0.2001 -0.1787
 3344ntf    on517214   2.479   0.886   0.410  0.7711 -0.3276 -0.7059
 3344ntf    on517215   2.601   0.690   0.332  0.3643  0.0130  0.1603
 3344ntf    on517216   2.537   0.439   0.499 -0.0561  0.2651 -0.3303
 3344ntf    on517217   2.299   0.455   0.434 -0.2561 -0.1623  0.7976
 3344ntf    fn417218   2.413   0.557   0.768  0.1608  0.8728  0.1349
 3344ntf    fn417219   2.239   0.454   0.713 -0.9915 -0.2612  0.0388
 3344ntf    fn417220   2.413   0.352   0.737 -0.0541  0.6641 -0.2460
 3345ntf    cn117221   5.757   1.261   4.085 -0.4763 -0.3015  0.5318
 3345ntf    sn217222   5.927   1.196   4.084 -0.3943 -0.0839 -0.2377
 3345ntf    nn317223   5.961   1.168   3.933 -0.4242 -0.4626 -0.1733
 3345ntf    sn217224   6.101   1.149   3.866 -0.4097  0.0895 -0.2985
 3345ntf    cn117225   6.080   0.987   3.788  0.2549 -0.2614  0.2402
 3345ntf    fn417226   5.718   1.319   4.198 -0.7450  0.6771 -0.0486
 3345ntf    fn417227   5.738   1.356   3.995  0.2985 -0.4657  0.1880
 3345ntf    fn417228   5.666   1.167   4.066 -0.1306 -0.5557  0.1230
 3345ntf    on517229   6.005   1.303   4.140  0.2326 -0.9052  0.4778
 3345ntf    on517230   5.934   1.070   4.154  0.1507 -0.2952 -0.6695
 3345ntf    on517231   6.219   1.136   3.948 -0.4429  0.6940 -0.1448
 3345ntf    on517232   6.113   1.240   3.754 -0.3666 -0.2918 -0.6031
 3345ntf    fn417233   5.964   0.968   3.727 -0.3588 -0.5587  1.4782
 3345ntf    fn417234   6.171   0.956   3.696 -0.0240  0.6805 -0.3624
 3345ntf    fn417235   6.090   0.892   3.879  0.3535  0.0587  0.5648
 3346ntf    cn117236   5.900   4.506   7.084  0.1039 -0.1546 -0.3127
 3346ntf    sn217237   5.758   4.394   7.100 -0.1484  0.2182  0.0859
 3346ntf    nn317238   5.830   4.254   7.105 -0.6115 -0.0375 -0.4064
 3346ntf    sn217239   5.771   4.114   7.066 -0.0178 -0.3417 -0.2262
 3346ntf    cn117240   5.847   4.113   6.901 -0.1587 -0.2928 -0.2915
 3346ntf    fn417241   5.871   4.632   7.057 -0.3299 -0.0588  0.5866
 3346ntf    fn417242   5.978   4.514   7.190  0.4882 -0.4474 -0.5704
 3346ntf    fn417243   5.972   4.471   6.978  0.1029 -0.2783 -0.2721
 3346ntf    on517244   5.711   4.428   7.232 -0.3703 -0.2864  0.1416
 3346ntf    on517245   5.682   4.404   6.979 -0.2857  0.0775  0.1592
 3346ntf    on517246   5.630   4.109   7.033 -0.2507  0.3963  0.6155
 3346ntf    on517247   5.835   4.006   7.137 -0.0276  0.0995  0.4570
 3346ntf    fn417248   5.782   4.191   6.815  0.0297 -0.1943 -0.3445
 3346ntf    fn417249   5.975   4.146   6.889 -0.2251 -0.0958 -0.4637
 3346ntf    fn417250   5.835   3.995   6.843 -0.2508 -0.4910  0.1336
 3347ntf    cn117251   7.077   1.251   6.916  0.1190 -0.5727 -0.1142
 3347ntf    sn217252   7.181   1.240   7.065  0.2196 -0.2607 -0.1607
 3347ntf    nn317253   7.111   1.334   7.169  0.2241 -0.4120 -0.0197
 3347ntf    sn217254   6.988   1.306   7.262  0.0025 -0.2697 -0.2678
 3347ntf    cn117255   6.848   1.384   7.177 -0.1747 -0.5424 -0.2290
 3347ntf    fn417256   6.954   1.204   6.925  0.1142 -0.5423 -0.0315
 3347ntf    fn417257   7.071   1.377   6.876 -0.0420 -0.4729  0.2236
 3347ntf    fn417258   7.138   1.185   6.819 -0.1160 -0.1760 -0.5358
 3347ntf    on517259   7.176   1.099   7.095  0.0789 -0.3469 -0.5743
 3347ntf    on517260   7.302   1.298   7.013  0.3128 -0.0116  0.3282
 3347ntf    on517261   6.991   1.384   7.384  0.9155 -0.1881 -0.3366
 3347ntf    on517262   6.944   1.171   7.290 -0.3082 -0.1236 -0.0423
 3347ntf    fn417263   6.881   1.512   7.163 -0.5113 -0.4189  0.0943
 3347ntf    fn417264   6.844   1.343   7.051  0.3153  0.1677 -0.4884
 3347ntf    fn417265   6.727   1.368   7.226  0.0510 -0.0839  0.5022
 3348ntf    cn117266   6.129   2.228   3.849  0.0797 -0.4364  0.3728
 3348ntf    sn217267   6.132   2.047   3.863  0.0647 -0.4744 -0.1034
 3348ntf    nn317268   5.979   2.022   3.838  0.0326 -0.1833 -0.2087
 3348ntf    sn217269   5.895   1.925   3.748  0.0098 -0.1913 -0.1787
 3348ntf    cn117270   5.804   2.036   3.635  0.0136  0.0030  0.0085
 3348ntf    fn417271   6.086   2.262   3.728  0.1612 -0.1140  0.4330
 3348ntf    fn417272   6.052   2.297   3.932 -0.2191  0.4047 -0.5691
 3348ntf    fn417273   6.249   2.283   3.854 -0.2301  0.3010 -0.0280
 3348ntf    on517274   6.217   2.020   3.749  0.4304 -0.1102  0.0798
 3348ntf    on517275   6.171   2.020   3.999  0.0852  0.3556  0.0577
 3348ntf    on517276   5.793   1.851   3.819 -0.3828 -0.0538 -0.5917
 3348ntf    on517277   5.970   1.858   3.646 -0.4998 -0.7999 -0.1596
 3348ntf    fn417278   5.883   2.077   3.538  0.5234 -0.7462  0.0979
 3348ntf    fn417279   5.704   1.964   3.589 -0.2416 -0.1253  0.7494
 3348ntf    fn417280   5.751   2.140   3.696 -0.2562  0.0072 -0.2339
 3349ntf    cn117281   5.725   7.045   3.773 -0.3151  0.8836 -0.0942
 3349ntf    sn217282   5.886   7.129   3.769  0.0968  0.1228  0.2988
 3349ntf    nn317283   5.845   7.239   3.665  0.3172 -0.0097  0.0710
 3349ntf    sn217284   5.926   7.368   3.626 -0.1459  0.2756  0.0433
 3349ntf    cn117285   5.826   7.502   3.698 -0.0458  0.1999  0.3237
 3349ntf    fn417286   5.692   7.009   3.650 -0.3057  0.0067  0.1533
 3349ntf    fn417287   5.736   6.944   3.858 -0.1081  0.3672 -0.7247
 3349ntf    fn417288   5.623   7.122   3.808 -0.4716  0.6390 -0.0104
 3349ntf    on517289   5.896   7.176   3.905  0.4797 -0.4310  0.4664
 3349ntf    on517290   5.978   7.027   3.724 -0.4960 -0.3391  0.1277
 3349ntf    on517291   5.916   7.388   3.484  0.5915  0.0918 -0.0405
 3349ntf    on517292   6.059   7.381   3.681 -0.1848  0.3428  0.1213
 3349ntf    fn417293   5.832   7.506   3.830 -0.1252  0.2796  0.3246
 3349ntf    fn417294   5.878   7.616   3.656  1.0637 -0.0704  0.9096
 3349ntf    fn417295   5.697   7.496   3.670  0.1697 -0.2837 -0.6008
 3350ntf    cn117296   2.920   1.204   4.613 -0.1627 -0.0174 -0.1192
 3350ntf    sn217297   3.095   1.237   4.576 -0.0698 -0.2470  0.1103
 3350ntf    nn317298   3.136   1.269   4.724 -0.2830 -0.1585  0.1512
 3350ntf    sn217299   3.251   1.209   4.813 -0.1262  0.0337  0.0779
 3350ntf    cn117300   3.348   1.357   4.855  0.1282 -0.0446 -0.2317
 3350ntf    fn417301   2.870   1.297   4.692  0.3671 -0.1649  0.3946
 3350ntf    fn417302   2.840   1.190   4.508  0.2419 -0.4499 -0.3774
 3350ntf    fn417303   2.899   1.100   4.692 -0.1445  0.1938  0.1645
 3350ntf    on517304   3.131   1.106   4.528 -0.5396 -0.1237 -0.5985
 3350ntf    on517305   3.110   1.346   4.482 -0.5854 -0.0815  0.2139
 3350ntf    on517306   3.351   1.136   4.740 -0.3153  0.1302 -0.2842
 3350ntf    on517307   3.203   1.157   4.938 -0.0807 -0.0696  0.0524
 3350ntf    fn417308   3.420   1.335   4.964  0.2485  0.2331 -0.2556
 3350ntf    fn417309   3.431   1.383   4.755  0.1850  0.7393  0.0144
 3350ntf    fn417310   3.273   1.466   4.862 -0.2127 -0.3026  0.1664
 3351ntf    cn117311   1.061   2.660   5.279  0.2068  0.0509  0.0923
 3351ntf    sn217312   0.924   2.582   5.188  0.4345 -0.4784  0.1991
 3351ntf    nn317313   0.922   2.439   5.253 -0.7223 -0.4619  0.2348
 3351ntf    sn217314   0.980   2.303   5.200 -0.2563 -0.1369 -0.1055
 3351ntf    cn117315   0.831   2.258   5.105 -0.3769 -0.0235  0.0286
 3351ntf    fn417316   1.154   2.573   5.312  0.2514 -0.2128 -0.7096
 3351ntf    fn417317   1.121   2.758   5.214 -0.6570  0.4656 -0.0928
 3351ntf    fn417318   1.011   2.693   5.397 -0.4216 -0.2759 -0.0784
 3351ntf    on517319   0.808   2.652   5.240  0.2959 -0.9251  0.4993
 3351ntf    on517320   0.966   2.599   5.052 -0.1750 -0.1656  0.0447
 3351ntf    on517321   0.979   2.209   5.309  0.6974  0.0435  0.0671
 3351ntf    on517322   1.085   2.304   5.101 -0.0563 -0.1789  0.1058
 3351ntf    fn417323   0.842   2.137   5.053 -0.7588  0.0835 -0.3075
 3351ntf    fn417324   0.723   2.252   5.181 -0.4044 -0.0292 -0.0105
 3351ntf    fn417325   0.805   2.342   5.006 -0.3705  0.1727  0.1930
 3352ntf    cn117326   6.610   2.012   3.980 -0.2899  0.1499  0.0804
 3352ntf    sn217327   6.683   1.897   3.861  0.0330  0.2423  0.1877
 3352ntf    nn317328   6.784   1.997   3.794  0.0994  0.3077  0.3857
 3352ntf    sn217329   6.774   2.064   3.652 -0.1026  0.0079  0.2562
 3352ntf    cn117330   6.867   1.944   3.551 -0.3438  0.4361 -0.4797
 3352ntf    fn417331   6.509   2.079   3.927 -0.2638  0.4427  0.3940
 3352ntf    fn417332   6.573   1.962   4.097 -0.9401  0.3167 -0.0496
 3352ntf    fn417333   6.695   2.106   4.019  0.0498 -0.0886 -0.0897
 3352ntf    on517334   6.743   1.799   3.949 -0.8424 -0.5579 -0.0972
 3352ntf    on517335   6.568   1.854   3.786  0.0133  0.4117  0.1215
 3352ntf    on517336   6.850   2.187   3.658 -0.0513 -0.0353  0.5006
 3352ntf    on517337   6.640   2.082   3.602 -0.0571 -0.6576 -0.1076
 3352ntf    fn417338   6.867   1.971   3.422 -0.0861 -0.0739 -0.5887
 3352ntf    fn417339   6.995   1.944   3.584 -0.3189  0.1837 -0.5786
 3352ntf    fn417340   6.817   1.823   3.566 -0.5623  0.6045  0.2152
 3353ntf    cn117341   2.741   1.318   5.627  0.0938 -0.1377 -0.0330
 3353ntf    sn217342   2.851   1.174   5.611 -0.1762 -0.3014 -0.4340
 3353ntf    nn317343   2.882   1.155   5.764  0.4069 -0.5728 -0.5856
 3353ntf    sn217344   3.008   1.188   5.851 -0.1009 -0.1495 -0.0082
 3353ntf    cn117345   3.107   1.040   5.815  0.3635  0.2352 -0.3302
 3353ntf    fn417346   2.795   1.419   5.694 -0.8279  0.3386  0.0072
 3353ntf    fn417347   2.710   1.365   5.508  0.1509  0.1488  0.0645
 3353ntf    fn417348   2.627   1.293   5.691  0.1015  0.3818  0.1893
 3353ntf    on517349   2.762   1.070   5.565  0.4578 -1.0513  0.0077
 3353ntf    on517350   2.956   1.208   5.519 -0.0509 -0.1860 -0.2495
 3353ntf    on517351   2.977   1.182   5.992  0.2721  0.4407  0.1029
 3353ntf    on517352   3.079   1.307   5.809  0.6881 -0.4991  0.3066
 3353ntf    fn417353   3.041   0.933   5.856 -0.1827  0.4786 -0.5714
 3353ntf    fn417354   3.117   1.013   5.686  0.1280 -1.0020 -0.1022
 3353ntf    fn417355   3.228   1.041   5.869  0.0894 -0.0516  0.2999
 3354ntf    cn117356   1.691   2.131   2.058  0.1935  0.1424  0.0487
 3354ntf    sn217357   1.815   2.216   2.160  0.3369 -0.3735  0.3094
 3354ntf    nn317358   1.832   2.124   2.286  0.4107 -0.5007  0.2072
 3354ntf    sn217359   1.733   2.083   2.400 -0.3358  0.1385 -0.2029
 3354ntf    cn117360   1.823   2.168   2.534 -0.0436 -0.4969  0.0063
 3354ntf    fn417361   1.583   2.096   2.125 -0.2157  0.3736 -0.4829
 3354ntf    fn417362   1.655   2.211   1.959 -1.0287 -0.0516  0.3165
 3354ntf    fn417363   1.739   2.021   2.002  0.1777 -0.2848  0.8681
 3354ntf    on517364   1.930   2.218   2.072 -0.3033 -0.4000 -0.5367
 3354ntf    on517365   1.760   2.347   2.184  0.2631 -0.3324 -0.0721
 3354ntf    on517366   1.735   1.948   2.448 -0.3826  0.3704  0.4637
 3354ntf    on517367   1.606   2.152   2.394 -0.5547 -0.2624 -0.1880
 3354ntf    fn417368   1.759   2.171   2.650 -0.2566  0.6418 -0.1303
 3354ntf    fn417369   1.934   2.104   2.565 -0.1633 -0.5090  0.4127
 3354ntf    fn417370   1.856   2.293   2.504  0.2335 -0.6049 -0.1451
 3355ntf    cn117371   3.071   1.227   3.163 -0.5721 -0.3867 -0.3793
 3355ntf    sn217372   3.245   1.234   3.111 -0.3913 -0.0989  0.2544
 3355ntf    nn317373   3.318   1.138   3.210 -0.2314  0.3096  0.5363
 3355ntf    sn217374   3.469   1.134   3.254 -0.0000 -0.0122 -0.2690
 3355ntf    cn117375   3.508   0.961   3.215  0.3642 -0.0019  0.0447
 3355ntf    fn417376   3.007   1.117   3.126  0.0277 -0.8669  0.0108
 3355ntf    fn417377   3.048   1.249   3.291  1.0088  0.3496 -0.2059
 3355ntf    fn417378   2.993   1.314   3.099 -0.0890  0.4133  0.1085
 3355ntf    on517379   3.232   1.168   2.983  0.1552 -0.2995  0.3034
 3355ntf    on517380   3.269   1.377   3.112 -0.6509 -0.0491 -0.2533
 3355ntf    on517381   3.486   1.139   3.397  0.4851 -0.3332 -0.3128
 3355ntf    on517382   3.568   1.204   3.176  0.1966  0.1814  0.1526
 3355ntf    fn417383   3.633   0.925   3.241  0.1402 -0.4660  0.5006
 3355ntf    fn417384   3.436   0.867   3.275 -0.1013  0.1916 -0.2034
 3355ntf    fn417385   3.485   0.926   3.089  0.1489 -0.2295  0.1453
 3356ntf    cn117386   3.065   5.453   5.000 -0.1527  0.1901  0.0928
 3356ntf    sn217387   3.181   5.592   4.991 -0.3849  0.3506 -0.4138
 3356ntf    nn317388   3.120   5.664   4.865 -0.5982  0.1527 -0.4237
 3356ntf    sn217389   3.147   5.816   4.839 -0.5320  0.2145 -0.0074
 3356ntf    cn117390   3.081   5.902   4.984 -0.1456  0.2841  0.1290
 3356ntf    fn417391   3.078   5.383   4.889 -0.0617 -0.1113  0.2920
 3356ntf    fn417392   3.075   5.363   5.097 -0.1174 -0.1718 -0.2440
 3356ntf    fn417393   2.938   5.490   5.000 -0.0688  0.4727 -0.1798
 3356ntf    on517394   3.152   5.652   5.119 -0.0981  0.4113 -0.3776
 3356ntf    on517395   3.307   5.527   4.969 -0.6867 -0.0478 -0.9894
 3356ntf    on517396   3.071   5.861   4.725 -1.0994 -0.3945  0.1233
 3356ntf    on517397   3.285   5.857   4.844 -0.6104  0.4643  0.1657
 3356ntf    fn417398   3.153   5.888   5.094 -0.3733 -0.5676  0.1743
 3356ntf    fn417399   3.061   6.032   4.969 -1.0618  0.1156 -0.1944
 3356ntf    fn417400   2.964   5.853   5.024  0.4655 -0.3916  1.1332
 3357ntf    cn117401   3.111   4.144   0.624 -0.1127  0.2178  0.0123
 3357ntf    sn217402   3.019   4.135   0.467 -0.3997  0.1343  0.1835
 3357ntf    nn317403   3.119   4.048   0.382 -0.3281  0.4227 -0.0286
 3357ntf    sn217404   3.107   3.915   0.299  0.4668  0.0993  0.3638
 3357ntf    cn117405   3.108   3.995   0.136  0.1457 -0.2550  0.1860
 3357ntf    fn417406   3.129   4.028   0.684  0.6435  0.4161  0.1809
 3357ntf    fn417407   3.228   4.201   0.600  0.1622 -0.2575  0.2107
 3357ntf    fn417408   3.052   4.226   0.709 -0.6075 -0.0925 -0.0256
 3357ntf    on517409   2.899   4.067   0.508 -0.1397 -0.2543  0.3085
 3357ntf    on517410   3.013   4.273   0.427  0.5377  0.1824  0.1647
 3357ntf    on517411   2.975   3.857   0.296  0.3192  0.4397  0.1892
 3357ntf    on517412   3.226   3.833   0.300  0.2983 -0.1493  0.1647
 3357ntf    fn417413   3.171   4.111   0.146  0.2533 -0.2695 -0.3061
 3357ntf    fn417414   3.178   3.933   0.043 -0.0362 -0.1636 -0.0147
 3357ntf    fn417415   2.991   4.024   0.080  0.4248 -0.2758 -0.4145
 3358ntf    cn117416   0.434   3.313   5.049  0.1413 -0.0626  0.6424
 3358ntf    sn217417   0.555   3.398   4.943 -0.3942  0.1546  0.2032
 3358ntf    nn317418   0.460   3.453   4.830 -0.8159 -0.0751  0.4425
 3358ntf    sn217419   0.407   3.387   4.698  0.0328 -0.1846  0.1486
 3358ntf    cn117420   0.236   3.448   4.710  0.1116  0.1216 -0.3131
 3358ntf    fn417421   0.474   3.270   5.168  0.0770  0.0126  0.6910
 3358ntf    fn417422   0.328   3.389   5.066 -0.0349 -0.0250 -0.5220
 3358ntf    fn417423   0.386   3.208   4.984 -0.4161  0.1837  0.6525
 3358ntf    on517424   0.609   3.497   5.033  0.5913  0.0049 -0.2191
 3358ntf    on517425   0.649   3.297   4.905 -0.2837  0.4450 -0.3057
 3358ntf    on517426   0.390   3.244   4.688  0.4726 -0.2820  0.7304
 3358ntf    on517427   0.461   3.460   4.587  0.0204  0.0589  0.3026
 3358ntf    fn417428   0.166   3.383   4.800  0.7207 -0.4260 -0.2291
 3358ntf    fn417429   0.229   3.578   4.735 -0.2892  0.1964 -0.7917
 3358ntf    fn417430   0.174   3.424   4.595 -0.5282  0.4710 -0.0437
 3359ntf    cn117431   4.874   7.083   1.196  0.1386 -0.1340  0.1405
 3359ntf    sn217432   4.790   7.144   1.345 -0.0373  0.0266 -0.0248
 3359ntf    nn317433   4.662   7.054   1.361  0.2051 -0.2870  0.1542
 3359ntf    sn217434   4.550   7.032   1.253  0.4979  0.3672 -0.2898
 3359ntf    cn117435   4.555   6.852   1.234  0.3673  0.2935  0.3187
 3359ntf    fn417436   4.833   6.960   1.169 -0.0186 -0.0503 -0.0076
 3359ntf    fn417437   4.857   7.161   1.091  0.6206  0.1009  0.2364
 3359ntf    fn417438   5.005   7.074   1.212  0.1606  0.2167  0.1597
 3359ntf    on517439   4.891   7.116   1.444  0.9730  1.0403 -0.7402
 3359ntf    on517440   4.768   7.285   1.320 -0.2568  0.0888  0.5031
 3359ntf    on517441   4.581   7.087   1.123  0.3615  0.7169 -0.1769
 3359ntf    on517442   4.420   7.063   1.308  0.3804 -0.0078 -0.3561
 3359ntf    fn417443   4.672   6.801   1.196  0.3769  0.3274  0.3036
 3359ntf    fn417444   4.520   6.791   1.345 -0.1811 -0.0425 -0.0358
 3359ntf    fn417445   4.473   6.820   1.135  0.6348  0.3230  0.0821
 3360ntf    cn117446   5.510   0.116   0.505  0.1737 -0.1037 -0.1544
 3360ntf    sn217447   5.448   0.058   0.345 -0.0152  0.4050 -0.2670
 3360ntf    nn317448   5.295   0.066   0.382  0.0646  0.1379  0.1277
 3360ntf    sn217449   5.182  -0.041   0.403  0.1179  0.0868  0.1504
 3360ntf    cn117450   5.034   0.039   0.335  0.0247 -0.1755  0.0460
 3360ntf    fn417451   5.468   0.238   0.533 -0.2505 -0.2792 -0.0213
 3360ntf    fn417452   5.475   0.053   0.616  0.3136 -0.3713 -0.2611
 3360ntf    fn417453   5.643   0.115   0.510  0.1712  0.4316  0.0329
 3360ntf    on517454   5.484   0.160   0.249 -0.1901  0.3886 -0.3515
 3360ntf    on517455   5.503  -0.075   0.346  0.2279  0.5091  1.1794
 3360ntf    on517456   5.144  -0.046   0.542  0.1370  0.3083  0.1646
 3360ntf    on517457   5.190  -0.167   0.335  0.3863 -0.1853  0.6808
 3360ntf    fn417458   4.930  -0.044   0.338  0.2939 -0.5047  0.4282
 3360ntf    fn417459   4.996   0.153   0.391 -0.2211 -0.4026  0.3519
 3360ntf    fn417460   5.058   0.072   0.209 -0.2651  0.5674  0.1787
 3361ntf    cn117461   0.334   5.922   7.131  0.1198 -0.2144 -0.3101
 3361ntf    sn217462   0.469   5.872   7.242  0.3175  0.2041 -0.3608
 3361ntf    nn317463   0.499   5.736   7.170 -0.0571 -0.4331  0.6592
 3361ntf    sn217464   0.472   5.585   7.205 -0.0993 -0.6122 -0.1106
 3361ntf    cn117465   0.317   5.546   7.118 -0.2470 -0.2384 -0.0175
 3361ntf    fn417466   0.381   5.939   7.009  0.1827 -0.3424 -0.3041
 3361ntf    fn417467   0.240   5.829   7.135 -0.1306  0.0590  0.3799
 3361ntf    fn417468   0.271   6.034   7.163  0.2481 -0.1411 -0.3180
 3361ntf    on517469   0.568   5.975   7.226  0.3209  0.3863  0.7707
 3361ntf    on517470   0.404   5.850   7.369  0.7045  0.1798 -0.1632
 3361ntf    on517471   0.450   5.561   7.346 -0.1343  0.4537  0.0767
 3361ntf    on517472   0.562   5.497   7.135  0.1835 -0.1774 -0.2947
 3361ntf    fn417473   0.213   5.618   7.157 -0.0253  0.4416 -0.6569
 3361ntf    fn417474   0.325   5.582   6.991  0.2053  0.0039  0.0779
 3361ntf    fn417475   0.275   5.421   7.125 -0.4377 -0.2252 -0.8244
 3362ntf    cn117476   6.705   7.242   4.780  0.2311  0.0973 -0.4434
 3362ntf    sn217477   6.763   7.111   4.668  0.0803 -0.2017 -0.1717
 3362ntf    nn317478   6.867   7.044   4.764 -0.0681  0.0674  0.1785
 3362ntf    sn217479   7.010   6.998   4.717 -0.1697 -0.1148  0.0501
 3362ntf    cn117480   7.024   6.838   4.802  0.1505  0.0474  0.3054
 3362ntf    fn417481   6.599   7.307   4.734  0.4016  0.3224 -0.5236
 3362ntf    fn417482   6.667   7.183   4.891 -0.4428 -0.1655 -0.8111
 3362ntf    fn417483   6.791   7.338   4.810  0.5376 -0.4119  0.3054
 3362ntf    on517484   6.651   7.027   4.634 -0.3959  0.4862 -0.3301
 3362ntf    on517485   6.822   7.192   4.564  0.6810 -0.0739  0.2654
 3362ntf    on517486   7.121   7.075   4.765  0.0018 -0.2342 -0.1504
 3362ntf    on517487   7.015   6.962   4.577 -0.0666 -0.4681  0.1449
 3362ntf    fn417488   7.145   6.787   4.791  0.1196  0.0838 -0.2300
 3362ntf    fn417489   7.005   6.854   4.932  0.2812  0.2433  0.2997
 3362ntf    fn417490   6.939   6.750   4.752  0.4878 -0.1033 -0.0070
 3363ntf    cn117491   2.271   1.789   3.183 -0.7514 -0.1613  0.2594
 3363ntf    sn217492   2.449   1.775   3.150 -0.7023  0.4381  0.2541
 3363ntf    nn317493   2.455   1.719   3.003  0.4098  0.0893  0.4224
 3363ntf    sn217494   2.534   1.595   2.949  0.0714 -0.0506  0.2510
 3363ntf    cn117495   2.400   1.474   2.975 -0.1314  0.0975 -0.0929
 3363ntf    fn417496   2.254   1.820   3.310 -0.4172 -0.1583  0.3061
 3363ntf    fn417497   2.204   1.878   3.111 -0.0987  0.3300  0.2425
 3363ntf    fn417498   2.207   1.676   3.160  0.0433 -0.4801 -0.4524
 3363ntf    on517499   2.503   1.908   3.167  0.5581 -0.0612  0.2834
 3363ntf    on517500   2.488   1.671   3.241 -0.1413  0.4473  0.0300
 3363ntf    on517501   2.652   1.543   3.013 -0.3490 -0.7727  0.4610
 3363ntf    on517502   2.550   1.617   2.807 -0.4337  0.4429  0.2705
 3363ntf    fn417503   2.424   1.359   2.914 -0.9586 -0.1224 -0.0145
 3363ntf    fn417504   2.382   1.455   3.105  0.7793  0.1449  0.0458
 3363ntf    fn417505   2.288   1.521   2.924 -0.1190 -0.4835 -0.6637
 3364ntf    cn117506   2.825   0.305   3.421  0.1346 -0.2275 -0.1934
 3364ntf    sn217507   2.881   0.425   3.296 -0.3570  0.1298 -0.0782
 3364ntf    nn317508   2.755   0.509   3.258 -0.4241  0.0472 -0.0373
 3364ntf    sn217509   2.721   0.570   3.117 -0.1451  0.0653 -0.0958
 3364ntf    cn117510   2.641   0.718   3.185  0.2461  0.0489  0.4073
 3364ntf    fn417511   2.789   0.367   3.532  0.3509  0.1030 -0.3051
 3364ntf    fn417512   2.720   0.236   3.378  0.0181 -0.1119 -0.0977
 3364ntf    fn417513   2.910   0.211   3.457  0.0956 -0.3341 -0.3774
 3364ntf    on517514   2.970   0.513   3.367  0.0571 -0.2794 -0.0797
 3364ntf    on517515   2.935   0.338   3.194  0.7988  0.2830  0.3800
 3364ntf    on517516   2.622   0.501   3.038  0.3534 -0.2610 -0.4442
 3364ntf    on517517   2.837   0.622   3.048 -0.1984 -0.2847 -0.4564
 3364ntf    fn417518   2.642   0.817   3.099  0.1045  0.2144  0.5951
 3364ntf    fn417519   2.515   0.691   3.217  0.2348 -0.2481  0.1197
 3364ntf    fn417520   2.695   0.757   3.299 -0.2811 -0.3502  0.8008
 3365ntf    cn117521   1.839   4.733   6.310  0.0803  0.3133 -0.0837
 3365ntf    sn217522   1.857   4.855   6.176  0.2796  0.2831 -0.0846
 3365ntf    nn317523   2.014   4.846   6.167  0.2845 -0.1658  0.3883
 3365ntf    sn217524   2.116   4.874   6.051 -0.1389 -0.3067 -0.0220
 3365ntf    cn117525   2.172   4.713   5.987 -0.1311 -0.2385 -0.1872
 3365ntf    fn417526   1.863   4.610   6.267 -0.6081 -0.1711  0.8910
 3365ntf    fn417527   1.928   4.758   6.404 -0.0219  0.3540  0.0020
 3365ntf    fn417528   1.720   4.728   6.367  0.0239  0.3414 -0.1990
 3365ntf    on517529   1.794   4.793   6.063  0.1053  0.2203  0.0471
 3365ntf    on517530   1.799   4.975   6.230  0.3029 -0.1317  0.8888
 3365ntf    on517531   2.242   4.920   6.105 -0.1739 -0.3790  0.1214
 3365ntf    on517532   2.060   4.935   5.933 -0.2811 -0.4742 -0.0418
 3365ntf    fn417533   2.260   4.658   6.069 -0.2794  0.4569  0.4513
 3365ntf    fn417534   2.072   4.628   5.973 -0.1577 -0.2083 -0.1767
 3365ntf    fn417535   2.242   4.726   5.875 -0.1354 -0.3226 -0.2004
 3366ntf    cn117536   3.542   6.980   4.147  0.5377  0.1257 -0.1252
 3366ntf    sn217537   3.594   6.940   4.317  0.1016 -0.1620 -0.0611
 3366ntf    nn317538   3.460   6.890   4.382 -0.0748 -0.3373 -0.5511
 3366ntf    sn217539   3.427   6.752   4.449  0.3362 -0.2140 -0.0857
 3366ntf    cn117540   3.305   6.812   4.569  0.0559  0.1237 -0.5359
 3366ntf    fn417541   3.424   7.039   4.144  0.6963  0.4416 -0.1971
 3366ntf    fn417542   3.622   7.068   4.088  0.8856 -0.3101 -0.3095
 3366ntf    fn417543   3.532   6.876   4.067 -0.4524  0.1987 -0.1055
 3366ntf    on517544   3.698   6.844   4.288 -0.3504 -0.7881  0.3589
 3366ntf    on517545   3.640   7.069   4.360  0.3576 -0.1375 -0.4085
 3366ntf    on517546   3.535   6.691   4.522  0.2431 -0.0336  0.2040
 3366ntf    on517547   3.351   6.668   4.360 -0.2471  0.1462  0.0693
 3366ntf    fn417548   3.221   6.899   4.515 -0.5251 -0.5490 -0.7366
 3366ntf    fn417549   3.249   6.701   4.616  0.8041 -0.1211 -0.2122
 3366ntf    fn417550   3.367   6.880   4.663 -0.3957 -0.1767 -0.0128
 3367ntf    cn117551   4.829   2.785   4.924  0.0454 -0.8150 -0.5985
 3367ntf    sn217552   4.667   2.717   4.877 -0.5659 -0.0673  0.3958
 3367ntf    nn317553   4.681   2.564   4.909 -0.4856 -0.2040 -0.2924
 3367ntf    sn217554   4.650   2.499   5.048  0.2435  0.0802  0.0067
 3367ntf    cn117555   4.480   2.443   5.016  0.3710 -0.3290  0.0378
 3367ntf    fn417556   4.853   2.910   4.887  0.0503 -0.5687  0.2286
 3367ntf    fn417557   4.840   2.775   5.055 -0.0110  0.4337 -0.4865
 3367ntf    fn417558   4.929   2.716   4.871  0.4938 -0.4005 -0.3023
 3367ntf    on517559   4.572   2.797   4.949  0.1511  0.4574  0.7750
 3367ntf    on517560   4.668   2.735   4.734  0.5846 -0.0150  0.3979
 3367ntf    on517561   4.637   2.590   5.160 -0.1630 -0.4009  0.3564
 3367ntf    on517562   4.728   2.380   5.073 -0.0865 -0.0970  0.2048
 3367ntf    fn417563   4.398   2.536   4.970  0.3555 -0.0687  0.5818
 3367ntf    fn417564   4.474   2.358   4.915 -0.1480 -0.3365  0.0705
 3367ntf    fn417565   4.418   2.387   5.118 -0.0699  0.1536  0.0389
 3368ntf    cn117566   2.903   1.008   0.842  0.2983  0.1078 -0.3548
 3368ntf    sn217567   3.075   0.951   0.832  0.1754 -0.2334 -0.5246
 3368ntf    nn317568   3.123   1.020   0.699 -0.5153  0.1552 -0.5786
 3368ntf    sn217569   3.228   1.137   0.688 -0.3581  0.1307  0.5165
 3368ntf    cn117570   3.132   1.291   0.684  0.0716  0.3833 -0.1877
 3368ntf    fn417571   2.835   0.978   0.952  0.7254  0.0982 -0.0921
 3368ntf    fn417572   2.897   1.140   0.835  0.2098  0.1325  0.1095
 3368ntf    fn417573   2.830   0.953   0.747  0.1798 -0.0679 -0.1654
 3368ntf    on517574   3.127   1.010   0.952 -0.7709 -0.6240  0.0883
 3368ntf    on517575   3.056   0.809   0.819  0.1311 -0.2394 -0.3920
 3368ntf    on517576   3.294   1.129   0.560  0.4222  0.2406  0.9060
 3368ntf    on517577   3.311   1.154   0.804 -0.1221  0.1603  0.3434
 3368ntf    fn417578   3.212   1.396   0.670  0.0684  0.3938 -0.1241
 3368ntf    fn417579   3.047   1.298   0.583 -0.0767  0.2866 -0.0692
 3368ntf    fn417580   3.057   1.304   0.792  0.0703 -0.5425 -0.0762
 3369ntf    cn117581   1.026   5.478   2.556 -0.6252 -0.5123  0.2208
 3369ntf    sn217582   0.921   5.604   2.635 -0.1359 -0.0147  0.0894
 3369ntf    nn317583   0.930   5.572   2.789 -0.2055  0.3002  0.1599
 3369ntf    sn217584   1.038   5.611   2.896  0.0672 -0.0842  0.0301
 3369ntf    cn117585   1.042   5.458   2.994  0.2344  0.0010  0.1570
 3369ntf    fn417586   1.021   5.480   2.424  0.8860 -0.2376  0.1469
 3369ntf    fn417587   1.150   5.494   2.602 -0.8573 -0.4818  0.8424
 3369ntf    fn417588   0.986   5.356   2.588 -0.2328 -0.5381  0.6273
 3369ntf    on517589   0.976   5.730   2.592  0.3422 -0.4809 -0.6838
 3369ntf    on517590   0.790   5.570   2.585 -0.0958  0.4974 -0.3615
 3369ntf    on517591   1.001   5.712   2.991  0.1463 -0.6412  0.6569
 3369ntf    on517592   1.170   5.624   2.841 -0.0585 -0.0443 -0.2657
 3369ntf    fn417593   1.155   5.390   2.999  0.2851  0.0020 -0.7423
 3369ntf    fn417594   1.009   5.486   3.118  0.2308  0.1271  0.1275
 3369ntf    fn417595   0.953   5.370   2.950  0.0745  0.2387  0.0039
 3370ntf    cn117596   2.988   2.128   4.884 -0.2429  0.0492 -0.0843
 3370ntf    sn217597   3.004   2.015   4.742 -0.2902 -0.2194  0.1251
 3370ntf    nn317598   2.856   1.963   4.729 -0.2885 -0.1802 -0.0571
 3370ntf    sn217599   2.778   1.926   4.598 -0.4085  0.6037 -0.2086
 3370ntf    cn117600   2.734   1.754   4.635 -0.0930  0.4776 -0.4089
 3370ntf    fn417601   3.106   2.183   4.910 -0.1263  0.0785 -0.6407
 3370ntf    fn417602   2.900   2.225   4.865  0.4070  0.5319 -0.6867
 3370ntf    fn417603   2.945   2.074   4.996 -0.4828 -0.2404 -0.3128
 3370ntf    on517604   3.047   2.106   4.639 -0.1998 -0.4828 -0.0706
 3370ntf    on517605   3.104   1.920   4.784  0.2780  0.0908 -0.5083
 3370ntf    on517606   2.855   1.899   4.479  0.0279 -0.1895  0.2530
 3370ntf    on517607   2.658   2.003   4.577 -0.4955  0.3423 -0.6868
 3370ntf    fn417608   2.682   1.741   4.756 -0.2027 -0.3112 -0.5380
 3370ntf    fn417609   2.646   1.696   4.555 -0.4489  0.1784  0.1861
 3370ntf    fn417610   2.841   1.677   4.640 -0.3811  0.0494 -0.7893
 3371ntf    cn117611   6.255   4.817   0.458  0.4045 -0.0765 -0.3317
 3371ntf    sn217612   6.167   4.674   0.528  0.1186  0.2618  0.0046
 3371ntf    nn317613   6.028   4.743   0.549  0.0379  0.1064 -0.0247
 3371ntf    sn217614   5.972   4.840   0.659  0.5201 -0.2069  0.5004
 3371ntf    cn117615   5.934   4.716   0.786 -0.1565 -0.0117  0.4902
 3371ntf    fn417616   6.382   4.794   0.430  0.4184  0.1670 -0.4747
 3371ntf    fn417617   6.199   4.857   0.345  0.0468  0.1942 -0.0620
 3371ntf    fn417618   6.257   4.925   0.534 -0.7169 -0.5437  0.3916
 3371ntf    on517619   6.167   4.573   0.426  1.1364  0.0424  0.2113
 3371ntf    on517620   6.236   4.641   0.650 -0.1520 -0.2751  0.0140
 3371ntf    on517621   5.841   4.892   0.628  0.7673 -0.3638 -0.8742
 3371ntf    on517622   6.068   4.933   0.715  0.9450 -0.6488  0.5114
 3371ntf    fn417623   6.017   4.613   0.792  0.3673  0.3323 -0.6650
 3371ntf    fn417624   5.936   4.754   0.913 -0.5305 -0.4126  0.6211
 3371ntf    fn417625   5.814   4.667   0.762 -0.2614  0.4898 -0.0429
 3372ntf    cn117626   3.134   2.496   6.759 -0.0429  0.2751  0.1130
 3372ntf    sn217627   3.302   2.439   6.801 -0.1528 -0.2529 -0.1530
 3372ntf    nn317628   3.275   2.285   6.807  0.7923 -0.4101  0.1714
 3372ntf    sn217629   3.275   2.193   6.680  0.2053  0.0115 -0.1408
 3372ntf    cn117630   3.446   2.132   6.674  0.1553 -0.1355 -0.0820
 3372ntf    fn417631   3.036   2.434   6.822  0.0743  0.3149  0.3332
 3372ntf    fn417632   3.118   2.624   6.790  0.6116  0.3747  0.0535
 3372ntf    fn417633   3.114   2.478   6.629 -0.4058  0.5147  0.1320
 3372ntf    on517634   3.383   2.503   6.700 -0.0298  0.2144  0.2386
 3372ntf    on517635   3.311   2.490   6.936 -0.7327 -0.2641 -0.1057
 3372ntf    on517636   3.244   2.254   6.553  0.3943 -0.1961 -0.2871
 3372ntf    on517637   3.200   2.075   6.714  0.6048 -0.2775 -0.2509
 3372ntf    fn417638   3.455   2.028   6.593 -0.3800 -0.3247  0.0967
 3372ntf    fn417639   3.533   2.224   6.637 -0.4338  0.3996 -0.1495
 3372ntf    fn417640   3.493   2.090   6.791 -0.6668 -0.1954  0.2314
 3373ntf    cn117641   1.009   4.136   5.454 -0.0923 -0.4101  0.4400
 3373ntf    sn217642   1.095   4.063   5.312  0.4872  0.2415  0.4512
 3373ntf    nn317643   1.005   3.941   5.268  1.0300 -0.1808  0.4922
 3373ntf    sn217644   0.989   3.799   5.332  0.1805 -0.1272  0.3986
 3373ntf    cn117645   1.131   3.709   5.263 -0.1874 -0.5952  0.2468
 3373ntf    fn417646   1.074   4.245   5.490 -0.7666  0.0056  0.4090
 3373ntf    fn417647   0.885   4.173   5.426  0.0220 -0.2982  0.0836
 3373ntf    fn417648   1.003   4.060   5.563 -0.2522 -0.1861  0.5884
 3373ntf    on517649   1.089   4.166   5.211  0.9208  0.1377  0.3168
 3373ntf    on517650   1.227   4.024   5.358  0.6128 -0.1512 -0.2150
 3373ntf    on517651   0.877   3.721   5.285  0.6655 -1.0169  0.6910
 3373ntf    on517652   1.017   3.793   5.473  0.3855 -0.0731  0.3612
 3373ntf    fn417653   1.124   3.697   5.132 -0.0128  0.3140  0.1529
 3373ntf    fn417654   1.243   3.768   5.301 -0.4007  0.3827 -0.6133
 3373ntf    fn417655   1.139   3.584   5.308  0.3503 -0.5597  0.2566
 3374ntf    cn117656   0.261   2.109   2.763 -0.0004 -0.1432 -0.0140
 3374ntf    sn217657   0.210   2.085   2.936 -0.1101 -0.1404 -0.0458
 3374ntf    nn317658   0.083   2.177   2.947 -0.2129 -0.3143  0.2206
 3374ntf    sn217659  -0.070   2.142   2.953 -0.2132 -0.3248  0.1598
 3374ntf    cn117660  -0.079   2.043   3.105 -0.2227 -0.5723 -0.0007
 3374ntf    fn417661   0.388   2.079   2.742  0.1675  0.5463  0.0187
 3374ntf    fn417662   0.186   2.039   2.678  0.5404 -0.6177 -0.1070
 3374ntf    fn417663   0.243   2.231   2.716 -0.2565 -0.0312  0.3692
 3374ntf    on517664   0.184   1.943   2.941  0.2278 -0.1932  0.2256
 3374ntf    on517665   0.320   2.149   3.003  0.2222  0.2373 -0.9305
 3374ntf    on517666  -0.113   2.049   2.851 -0.7717  0.0223  0.0761
 3374ntf    on517667  -0.158   2.252   2.982  0.3213  0.0675  0.3013
 3374ntf    fn417668  -0.204   2.012   3.136 -0.1639 -0.9920 -0.1870
 3374ntf    fn417669  -0.013   1.929   3.091  0.3767 -0.2708  0.3563
 3374ntf    fn417670  -0.044   2.114   3.211 -0.8415 -0.2743  0.0097
 3375ntf    cn117671   3.905   0.070   2.706 -0.2464  0.1109  0.1399
 3375ntf    sn217672   3.894  -0.096   2.633 -0.0620  0.0960  0.1461
 3375ntf    nn317673   4.049  -0.110   2.613 -0.0890  0.2294 -0.1469
 3375ntf    sn217674   4.115  -0.161   2.479  0.1689  0.0576  0.0443
 3375ntf    cn117675   4.166  -0.330   2.522  0.0893  0.0237  0.0090
 3375ntf    fn417676   3.786   0.125   2.727 -0.1304  0.6001 -0.4405
 3375ntf    fn417677   3.971   0.076   2.820  0.4489  0.4519 -0.2709
 3375ntf    fn417678   3.976   0.144   2.621 -0.1377 -0.2391 -0.0761
 3375ntf    on517679   3.857  -0.180   2.745  0.7924  0.0650  0.4117
 3375ntf    on517680   3.804  -0.091   2.521  0.1908  1.0834 -0.0192
 3375ntf    on517681   4.237  -0.092   2.448 -0.0998  0.6235  0.2321
 3375ntf    on517682   4.030  -0.179   2.364  0.4601 -0.1007 -0.1467
 3375ntf    fn417683   4.133  -0.362   2.646  0.4597  0.3688  0.1977
 3375ntf    fn417684   4.117  -0.425   2.444  0.1870 -0.0644  0.0556
 3375ntf    fn417685   4.297  -0.346   2.529  0.0445 -0.1913  0.3999
 3376ntf    cn117686   6.719   0.119   2.375  0.0600 -0.2958  0.3497
 3376ntf    sn217687   6.561   0.029   2.384  0.0576 -0.3298 -0.0474
 3376ntf    nn317688   6.465   0.142   2.435 -0.0317 -0.5939  0.3749
 3376ntf    sn217689   6.430   0.206   2.574 -0.2324  0.0590  0.0280
 3376ntf    cn117690   6.349   0.356   2.509  0.4678  0.2537 -0.4081
 3376ntf    fn417691   6.709   0.238   2.318  0.3410 -0.3944  0.0923
 3376ntf    fn417692   6.777   0.136   2.493  0.4139 -0.5882  0.2168
 3376ntf    fn417693   6.804   0.051   2.300  0.2628  0.4175 -0.0742
 3376ntf    on517694   6.539  -0.012   2.247 -0.3040  0.0679 -0.1114
 3376ntf    on517695   6.583  -0.077   2.479 -0.4317 -0.4203 -0.0316
 3376ntf    on517696   6.545   0.262   2.640 -0.3336  0.0198  0.2359
 3376ntf    on517697   6.322   0.149   2.650  0.0156  0.1983  0.4882
 3376ntf    fn417698   6.306   0.441   2.601  0.4558 -0.2421  0.0544
 3376ntf    fn417699   6.437   0.426   2.438  0.6089 -0.0150 -0.5002
 3376ntf    fn417700   6.248   0.320   2.432 -0.5109  0.8733  0.5554
 3377ntf    cn117701   0.962   5.769   0.432  0.1101  0.4036 -0.2547
 3377ntf    sn217702   1.004   5.824   0.600  0.2804 -0.3885 -0.0375
 3377ntf    nn317703   1.053   5.686   0.659  0.3845 -0.5936 -0.5997
 3377ntf    sn217704   0.970   5.581   0.740  0.3853 -0.1030  0.0463
 3377ntf    cn117705   1.007   5.623   0.913  0.1340  0.5280 -0.0505
 3377ntf    fn417706   0.869   5.676   0.443  0.2376  0.2977 -0.0674
 3377ntf    fn417707   0.914   5.872   0.364 -0.1476  0.1098 -0.5216
 3377ntf    fn417708   1.059   5.715   0.359 -0.2952 -0.3406 -0.2471
 3377ntf    on517709   1.121   5.905   0.579  0.1450 -0.1148  0.2606
 3377ntf    on517710   0.880   5.875   0.654  0.3180 -0.1013 -0.2220
 3377ntf    on517711   1.033   5.452   0.730  0.3693 -0.1400  0.4196
 3377ntf    on517712   0.826   5.590   0.728  0.4080  0.5568  0.1957
 3377ntf    fn417713   0.974   5.747   0.946 -0.4748  0.4553 -0.3648
 3377ntf    fn417714   0.936   5.548   0.996  0.0028  0.5016 -0.1864
 3377ntf    fn417715   1.136   5.612   0.940  0.2217  0.6376 -0.4140
 3378ntf    cn117716   1.852   2.428   5.174 -0.1801 -0.3552  0.1729
 3378ntf    sn217717   1.898   2.349   5.332 -0.0437 -0.2018  0.2111
 3378ntf    nn317718   1.863   2.473   5.421 -0.1122  0.1496 -0.3006
 3378ntf    sn217719   1.948   2.592   5.478  0.0267 -0.0431 -0.1038
 3378ntf    cn117720   1.872   2.603   5.643 -0.3591  0.0718 -0.2856
 3378ntf    fn417721   1.879   2.357   5.066  0.1558  0.0845 -0.0341
 3378ntf    fn417722   1.724   2.456   5.188 -0.2446 -0.5086 -0.1091
 3378ntf    fn417723   1.905   2.548   5.157  0.7156 -0.6560  0.7406
 3378ntf    on517724   1.806   2.237   5.336  0.0940 -0.3473 -0.4598
 3378ntf    on517725   2.040   2.325   5.329 -0.0238 -0.0297 -0.3725
 3378ntf    on517726   1.907   2.724   5.437  0.5238  0.2308  0.2761
 3378ntf    on517727   2.088   2.569   5.505  0.0069  0.0663  0.0876
 3378ntf    fn417728   1.920   2.704   5.713  0.6849 -0.8768  0.4080
 3378ntf    fn417729   1.741   2.614   5.649 -0.3709 -0.4020  0.4563
 3378ntf    fn417730   1.910   2.497   5.712  0.0325  0.4676  0.1096
 3379ntf    cn117731   3.209   2.454   5.662  0.0097  0.2665  0.1637
 3379ntf    sn217732   3.074   2.404   5.552  0.1805 -0.0407  0.0899
 3379ntf    nn317733   3.012   2.280   5.625 -0.2761 -0.2907 -0.7111
 3379ntf    sn217734   2.875   2.280   5.702  0.0868  0.0744 -0.0565
 3379ntf    cn117735   2.882   2.110   5.768  0.6395  0.3155  0.5149
 3379ntf    fn417736   3.290   2.351   5.681  0.5224  0.6229 -0.0784
 3379ntf    fn417737   3.273   2.561   5.618  0.3812 -0.0078  0.0301
 3379ntf    fn417738   3.163   2.487   5.782  0.1406  0.2474  0.2195
 3379ntf    on517739   2.980   2.513   5.544  0.3276  0.0650 -0.2313
 3379ntf    on517740   3.148   2.377   5.431 -0.2905 -0.0153 -0.2074
 3379ntf    on517741   2.767   2.275   5.606  0.0275  0.2061  0.0035
 3379ntf    on517742   2.864   2.368   5.815  0.3350  0.4880 -0.3510
 3379ntf    fn417743   2.892   2.013   5.679  0.5112  0.4342  0.3695
 3379ntf    fn417744   2.988   2.089   5.844  0.5222 -0.4134  0.4757
 3379ntf    fn417745   2.775   2.083   5.841  0.7061 -0.6603  0.2651
 3380ntf    cn117746   1.898   6.145   0.105 -0.1276 -0.1171 -0.1430
 3380ntf    sn217747   1.729   6.091   0.143 -0.1380  0.0584  0.0605
 3380ntf    nn317748   1.701   6.023   0.005  0.0241 -0.1855  0.1483
 3380ntf    sn217749   1.611   5.902  -0.041 -0.2346  0.1373 -0.2069
 3380ntf    cn117750   1.465   5.984  -0.111 -0.5650 -0.0738  0.2288
 3380ntf    fn417751   1.955   6.218   0.200 -0.5279  0.4578 -0.3379
 3380ntf    fn417752   1.981   6.047   0.073 -0.0046 -0.1431  0.2504
 3380ntf    fn417753   1.902   6.220  -0.004 -0.4270 -0.3875 -0.3433
 3380ntf    on517754   1.750   6.002   0.254 -0.2510  0.1657  0.1686
 3380ntf    on517755   1.650   6.211   0.162 -0.0050  0.2541 -0.6076
 3380ntf    on517756   1.556   5.832   0.073 -0.1387 -0.8095 -0.7353
 3380ntf    on517757   1.654   5.821  -0.151 -0.2278  0.1753 -0.2318
 3380ntf    fn417758   1.426   5.921  -0.221  0.0771 -0.1706  0.0541
 3380ntf    fn417759   1.364   6.000  -0.027 -0.4894 -0.5741  0.4217
 3380ntf    fn417760   1.496   6.108  -0.143 -0.1439 -0.2509 -0.0741
 3381ntf    cn117761   6.955   4.313   5.922 -0.3125  0.0917 -0.4725
 3381ntf    sn217762   6.937   4.137   5.879 -0.3136  0.0419 -0.2705
 3381ntf    nn317763   6.897   4.151   5.728 -0.0135  0.1182 -0.3437
 3381ntf    sn217764   6.751   4.160   5.673 -0.1474 -0.2774 -0.0536
 3381ntf    cn117765   6.726   4.015   5.566 -0.1437 -0.0310 -0.3894
 3381ntf    fn417766   7.055   4.379   5.867  0.2658 -0.4029 -0.0284
 3381ntf    fn417767   6.839   4.370   5.892 -0.2122  0.0320 -0.9698
 3381ntf    fn417768   6.961   4.329   6.053 -0.3736 -0.1704 -0.4367
 3381ntf    on517769   7.073   4.092   5.895 -0.0284  0.8190 -0.4385
 3381ntf    on517770   6.839   4.082   5.970  0.2144 -0.6234 -0.0921
 3381ntf    on517771   6.751   4.265   5.574 -0.3784 -0.3792 -0.1634
 3381ntf    on517772   6.643   4.167   5.768  0.1644  0.3759  0.2599
 3381ntf    fn417773   6.700   3.903   5.632 -0.3994  0.0873 -0.2881
 3381ntf    fn417774   6.634   4.027   5.472  0.1733  0.3821 -0.6474
 3381ntf    fn417775   6.836   3.984   5.499 -0.1026 -0.3129 -0.1926
 3382ntf    cn117776   3.418   2.928   6.397  0.2736  0.1141 -0.3583
 3382ntf    sn217777   3.536   2.900   6.261  0.2545 -0.0281 -0.3451
 3382ntf    nn317778   3.437   2.870   6.142  0.2497 -0.0183 -0.3438
 3382ntf    sn217779   3.365   2.736   6.102  0.0048 -0.0573  0.2095
 3382ntf    cn117780   3.485   2.681   5.976 -0.4259  0.2499 -0.3407
 3382ntf    fn417781   3.495   2.956   6.500 -0.0286  0.2981 -0.1799
 3382ntf    fn417782   3.334   3.029   6.380  0.4817  0.4004  0.2815
 3382ntf    fn417783   3.339   2.826   6.425  0.0186  0.3320 -0.2752
 3382ntf    on517784   3.604   3.026   6.246  0.2506  0.0096 -0.0522
 3382ntf    on517785   3.621   2.791   6.301  0.2420  0.2796  0.5373
 3382ntf    on517786   3.249   2.767   6.021  0.1968  0.0315 -0.0344
 3382ntf    on517787   3.352   2.635   6.204 -0.0868  0.0734  0.3275
 3382ntf    fn417788   3.471   2.564   5.917 -0.0325  0.2688 -0.4718
 3382ntf    fn417789   3.523   2.772   5.887 -0.2016 -0.2189 -0.7234
 3382ntf    fn417790   3.597   2.654   6.040 -0.5227  0.0183 -0.2665
 3383ntf    cn117791   1.376   1.367   5.107 -0.1736 -0.0135  0.0157
 3383ntf    sn217792   1.469   1.267   5.228  0.0994 -0.2096 -0.3528
 3383ntf    nn317793   1.487   1.367   5.348 -0.0429 -0.0208 -0.4860
 3383ntf    sn217794   1.618   1.432   5.405 -0.2492 -0.1165  0.1121
 3383ntf    cn117795   1.557   1.532   5.543 -0.0030  0.0193  0.1241
 3383ntf    fn417796   1.439   1.475   5.066  0.5377 -0.4586 -0.0800
 3383ntf    fn417797   1.347   1.298   4.998  0.1497 -0.2628  0.0832
 3383ntf    fn417798   1.259   1.401   5.158 -0.1754 -0.5370  0.3697
 3383ntf    on517799   1.372   1.162   5.250 -0.4395  0.2581 -0.4525
 3383ntf    on517800   1.592   1.236   5.160  0.1721  0.3463 -0.4775
 3383ntf    on517801   1.663   1.542   5.323  0.1754  0.0953  0.6201
 3383ntf    on517802   1.720   1.347   5.462  0.4520  0.3303 -0.4573
 3383ntf    fn417803   1.538   1.460   5.652  0.4141 -0.1379  0.0937
 3383ntf    fn417804   1.650   1.618   5.581  0.1902  0.0887 -0.5016
 3383ntf    fn417805   1.449   1.602   5.511  0.0763  0.0814 -0.0096
 3384ntf    cn117806   6.204   0.612   5.830  0.3309  0.0033  0.2424
 3384ntf    sn217807   6.101   0.654   5.685  0.0947  0.0453  0.4215
 3384ntf    nn317808   6.074   0.807   5.710 -0.3386  0.0892 -0.3010
 3384ntf    sn217809   5.939   0.886   5.718 -0.2220  0.2352  0.2474
 3384ntf    cn117810   5.898   0.868   5.895 -0.6643  0.3252  0.1573
 3384ntf    fn417811   6.319   0.678   5.830  0.5717 -0.4142 -0.0193
 3384ntf    fn417812   6.146   0.632   5.947 -0.3473  0.3344 -0.1376
 3384ntf    fn417813   6.237   0.484   5.826 -0.7376 -0.2753 -0.1255
 3384ntf    on517814   6.186   0.619   5.574 -0.3589  0.0118  0.0811
 3384ntf    on517815   5.985   0.570   5.699 -0.1081  0.2640  0.0717
 3384ntf    on517816   5.818   0.823   5.670 -0.2587  0.6338 -0.1872
 3384ntf    on517817   5.951   1.027   5.694  0.0684  0.1620 -0.0424
 3384ntf    fn417818   6.000   0.880   5.979 -0.5039  0.2108 -0.0189
 3384ntf    fn417819   5.807   0.947   5.947 -0.8958  0.3860 -0.3322
 3384ntf    fn417820   5.848   0.749   5.926  0.5466 -0.2374  0.0196
 3385ntf    cn117821   5.907   3.694   6.022  0.2684  0.1814 -0.1041
 3385ntf    sn217822   6.074   3.710   5.952  0.1477  0.5246 -0.3152
 3385ntf    nn317823   6.069   3.629   5.818  0.7617 -0.2395  0.1111
 3385ntf    sn217824   6.092   3.477   5.784  0.0696 -0.3660  0.1957
 3385ntf    cn117825   6.242   3.486   5.682 -0.0834 -0.1069 -0.0074
 3385ntf    fn417826   5.814   3.674   5.930 -0.0123 -0.2146  0.2589
 3385ntf    fn417827   5.892   3.588   6.101  0.2722 -0.2951 -0.7376
 3385ntf    fn417828   5.872   3.808   6.080 -0.1380 -0.2581  0.5312
 3385ntf    on517829   6.084   3.853   5.939  0.4591  0.5907  0.5978
 3385ntf    on517830   6.165   3.661   6.052 -0.2811  0.2810 -0.0421
 3385ntf    on517831   5.987   3.433   5.696  0.2843  0.0434 -0.2736
 3385ntf    on517832   6.124   3.408   5.906  0.2996  0.3418  0.5440
 3385ntf    fn417833   6.294   3.367   5.657 -0.1449  0.1139 -1.2145
 3385ntf    fn417834   6.224   3.538   5.562  0.1849  0.6004  0.2538
 3385ntf    fn417835   6.335   3.561   5.740  0.1773 -0.0745 -0.4665
 3386ntf    cn117836   0.137   3.043   2.520  0.1681  0.3036 -0.3944
 3386ntf    sn217837   0.270   3.035   2.644  0.1548  0.0699 -0.3940
 3386ntf    nn317838   0.244   3.165   2.728  0.1380 -0.2728  0.1415
 3386ntf    sn217839   0.284   3.184   2.878  0.1881  0.2007  0.0713
 3386ntf    cn117840   0.366   3.346   2.870 -0.0503  0.3060 -0.2615
 3386ntf    fn417841   0.152   2.960   2.418  0.3674 -0.3228  0.1288
 3386ntf    fn417842   0.013   3.029   2.564  0.3806  0.4566  0.2662
 3386ntf    fn417843   0.131   3.164   2.467 -0.0523  0.3670 -0.2287
 3386ntf    on517844   0.244   2.908   2.708 -0.0288  0.0664 -0.4762
 3386ntf    on517845   0.392   3.049   2.568 -0.0779  0.6466 -0.6680
 3386ntf    on517846   0.393   3.100   2.920  0.1697  0.2223  0.1628
 3386ntf    on517847   0.166   3.207   2.957 -0.1236  0.5248 -0.4845
 3386ntf    fn417848   0.463   3.350   2.779  0.3117  0.1168  0.1084
 3386ntf    fn417849   0.282   3.445   2.849 -0.0442  0.3961  0.1283
 3386ntf    fn417850   0.425   3.372   2.986  0.1610 -0.1570 -0.2626
 3387ntf    cn117851   6.717   6.444   6.742  0.1031 -0.3711 -0.3158
 3387ntf    sn217852   6.817   6.451   6.590  0.2369 -0.2238 -0.2231
 3387ntf    nn317853   6.896   6.585   6.606 -0.0926  0.0237 -0.6423
 3387ntf    sn217854   6.829   6.726   6.589  0.2013  0.2531  0.0560
 3387ntf    cn117855   6.937   6.796   6.460  0.1432 -0.1428 -0.2084
 3387ntf    fn417856   6.798   6.424   6.846 -0.6663 -0.3221  0.2982
 3387ntf    fn417857   6.663   6.564   6.756  0.2169 -0.3665  0.1279
 3387ntf    fn417858   6.625   6.349   6.751 -0.0498 -0.2137 -0.2119
 3387ntf    on517859   6.904   6.337   6.608  0.4415  0.0680  0.6894
 3387ntf    on517860   6.717   6.443   6.486  0.1121 -0.7183 -0.0694
 3387ntf    on517861   6.851   6.811   6.704  0.0500  0.3065  0.0450
 3387ntf    on517862   6.696   6.736   6.534  0.1659 -0.6604 -0.0437
 3387ntf    fn417863   7.057   6.744   6.478  0.1822  0.1727  0.4891
 3387ntf    fn417864   6.882   6.779   6.341 -0.5785  0.5292  0.0198
 3387ntf    fn417865   6.951   6.925   6.481  0.3177 -0.1790 -0.1029
 3388ntf    cn117866   1.439   3.328   0.033  0.1271  0.1209 -0.0514
 3388ntf    sn217867   1.559   3.226  -0.056  0.0637  0.0160 -0.0179
 3388ntf    nn317868   1.633   3.147   0.058 -0.2955 -0.2675  0.0184
 3388ntf    sn217869   1.731   3.201   0.168 -0.1298  0.0120 -0.2641
 3388ntf    cn117870   1.640   3.139   0.314  0.2951 -0.2466 -0.1087
 3388ntf    fn417871   1.493   3.409   0.122 -0.3102  0.1675  0.1770
 3388ntf    fn417872   1.360   3.401  -0.044 -0.4494 -0.3909  0.0460
 3388ntf    fn417873   1.354   3.254   0.102 -0.0632  0.1825 -0.2176
 3388ntf    on517874   1.470   3.141  -0.132 -0.3190  0.0639  0.3765
 3388ntf    on517875   1.643   3.317  -0.130 -0.0012  0.0110 -0.0980
 3388ntf    on517876   1.723   3.343   0.190  0.2028  0.0077 -0.1125
 3388ntf    on517877   1.860   3.138   0.178 -0.0192  0.3007  0.1914
 3388ntf    fn417878   1.695   3.186   0.425 -0.0219 -0.0526 -0.0346
 3388ntf    fn417879   1.519   3.192   0.315  0.1933 -0.4664 -0.4192
 3388ntf    fn417880   1.631   3.007   0.322 -0.2948 -0.2132 -0.1723
 3389ntf    cn117881   6.384   2.585   6.691  0.1607 -0.0702 -0.3208
 3389ntf    sn217882   6.494   2.528   6.824 -0.1210 -0.0393 -0.0749
 3389ntf    nn317883   6.625   2.602   6.779  0.0916 -0.2485  0.1968
 3389ntf    sn217884   6.670   2.749   6.810  0.0255 -0.0692 -0.5337
 3389ntf    cn117885   6.710   2.808   6.642  0.1600  0.2346 -0.3949
 3389ntf    fn417886   6.356   2.715   6.696  0.0896 -0.1125  0.4110
 3389ntf    fn417887   6.432   2.559   6.570 -0.7150 -0.8492 -0.5097
 3389ntf    fn417888   6.266   2.525   6.694 -0.1710  0.5787 -0.0672
 3389ntf    on517889   6.429   2.563   6.947 -0.3727 -0.7732  0.0067
 3389ntf    on517890   6.497   2.385   6.803 -0.2357 -0.1000  0.3249
 3389ntf    on517891   6.797   2.761   6.877 -0.2409  0.3968 -0.1102
 3389ntf    on517892   6.572   2.841   6.859  0.0569 -0.3558  0.0708
 3389ntf    fn417893   6.764   2.929   6.649  0.1610  0.1965  0.4068
 3389ntf    fn417894   6.800   2.731   6.584 -0.0028 -0.4512  0.2426
 3389ntf    fn417895   6.598   2.814   6.573  0.0381  0.3311 -0.1905
 3390ntf    cn117896   4.392   6.074   4.174 -0.3737  0.2978 -0.2493
 3390ntf    sn217897   4.388   5.899   4.221 -0.1741  0.2840 -0.2865
 3390ntf    nn317898   4.461   5.897   4.360 -0.1554 -0.5837 -0.2997
 3390ntf    sn217899   4.573   5.803   4.419 -0.1181 -0.2619  0.1509
 3390ntf    cn117900   4.498   5.639   4.393 -0.3173 -0.1112 -0.2462
 3390ntf    fn417901   4.388   6.091   4.043  0.0970  0.4988 -0.2369
 3390ntf    fn417902   4.292   6.144   4.226 -0.1536  0.3113  0.1543
 3390ntf    fn417903   4.503   6.128   4.221 -0.1996  0.1575 -0.4966
 3390ntf    on517904   4.248   5.867   4.236 -0.1761  0.6309  0.4792
 3390ntf    on517905   4.460   5.826   4.119 -0.4382 -0.4431  0.0331
 3390ntf    on517906   4.567   5.810   4.563 -0.4929  0.2168  0.1171
 3390ntf    on517907   4.697   5.818   4.348 -0.0901 -0.4291  0.1633
 3390ntf    fn417908   4.567   5.540   4.447 -0.3712 -0.1902 -0.3231
 3390ntf    fn417909   4.376   5.629   4.443 -0.2264 -0.1134 -0.0248
 3390ntf    fn417910   4.484   5.599   4.268 -0.4945  0.2057 -0.3293
 3391ntf    cn117911   0.896   6.833   5.750 -0.0342 -0.3347  0.2095
 3391ntf    sn217912   0.740   6.740   5.744 -0.4103  0.2798  0.3380
 3391ntf    nn317913   0.655   6.798   5.625 -0.3424 -0.1065  0.1016
 3391ntf    sn217914   0.670   6.786   5.469  0.4147 -0.1006  0.1672
 3391ntf    cn117915   0.534   6.670   5.435  0.5637 -0.1593 -0.2333
 3391ntf    fn417916   0.947   6.838   5.628 -0.6252  0.2627 -0.0222
 3391ntf    fn417917   0.882   6.959   5.789  0.4924 -0.2382  0.0999
 3391ntf    fn417918   0.981   6.787   5.840  0.1385  0.0392  0.2423
 3391ntf    on517919   0.776   6.601   5.727 -0.1528  0.4948 -0.9656
 3391ntf    on517920   0.672   6.769   5.868 -0.7431 -0.3498  0.3068
 3391ntf    on517921   0.781   6.710   5.417  0.2006 -0.1765 -0.1777
 3391ntf    on517922   0.637   6.911   5.405 -0.0316 -0.2291  0.1428
 3391ntf    fn417923   0.422   6.703   5.497  0.4587 -0.8174 -0.0646
 3391ntf    fn417924   0.508   6.667   5.305 -0.5526  0.0683 -0.0320
 3391ntf    fn417925   0.548   6.549   5.485 -0.1642 -0.0096  0.3588
 3392ntf    cn117926   4.671   4.964   3.360  0.1472 -0.1407 -0.2218
 3392ntf    sn217927   4.503   4.950   3.292  0.0322 -0.1020  0.0526
 3392ntf    nn317928   4.455   5.098   3.311  0.1133 -0.1255  0.4545
 3392ntf    sn217929   4.428   5.176   3.445  0.1848  0.2793  0.2342
 3392ntf    cn117930   4.254   5.225   3.422 -0.0370 -0.7011 -0.2080
 3392ntf    fn417931   4.739   4.852   3.343 -0.3640 -0.5753  0.5015
 3392ntf    fn417932   4.742   5.070   3.325 -0.0859  0.1598  0.1963
 3392ntf    fn417933   4.666   4.970   3.493 -0.3162  0.2656 -0.2555
 3392ntf    on517934   4.534   4.917   3.155 -0.2780 -0.1818  0.0009
 3392ntf    on517935   4.440   4.861   3.387 -0.2789  0.2011  0.1353
 3392ntf    on517936   4.501   5.300   3.442  0.5813  0.0438  0.0769
 3392ntf    on517937   4.421   5.096   3.564 -0.4701  0.5296  0.3695
 3392ntf    fn417938   4.221   5.327   3.498 -0.6917 -0.3283 -0.9743
 3392ntf    fn417939   4.227   5.268   3.300 -0.9285  0.4195  0.3669
 3392ntf    fn417940   4.171   5.123   3.437 -0.0788 -0.5365  0.7410
 3393ntf    cn117941   1.637   3.501   2.734  0.0705 -0.2440  0.3170
 3393ntf    sn217942   1.623   3.646   2.843 -0.0558  0.0559 -0.0952
 3393ntf    nn317943   1.756   3.719   2.800  0.3656 -0.6630 -0.0201
 3393ntf    sn217944   1.905   3.689   2.838  0.5225  0.1206 -0.0159
 3393ntf    cn117945   1.943   3.825   2.952  0.4752  0.0896  0.0370
 3393ntf    fn417946   1.640   3.532   2.605  0.4432 -0.1273  0.3512
 3393ntf    fn417947   1.741   3.421   2.746  0.2550 -0.0637 -0.0533
 3393ntf    fn417948   1.529   3.429   2.758 -0.3710  0.4888  0.5551
 3393ntf    on517949   1.505   3.710   2.791 -0.5273 -0.4016  0.4019
 3393ntf    on517950   1.618   3.601   2.979  0.0777 -0.0963 -0.1403
 3393ntf    on517951   1.993   3.722   2.728 -0.0520 -0.1727 -0.5682
 3393ntf    on517952   1.930   3.569   2.914 -0.9144  0.4452  0.9923
 3393ntf    fn417953   1.949   3.945   2.896  0.2193 -0.1183 -0.4326
 3393ntf    fn417954   1.855   3.836   3.050  0.3663 -0.5738  0.0129
 3393ntf    fn417955   2.061   3.820   3.013  0.5671  0.3232 -0.1172
 3394ntf    cn117956   6.863   2.925   4.045  0.4749 -0.3035 -0.2101
 3394ntf    sn217957   6.851   2.918   3.863 -0.1665  0.2657 -0.1949
 3394ntf    nn317958   7.003   2.938   3.827 -0.0238  0.0582  0.2827
 3394ntf    sn217959   7.064   3.067   3.763 -0.2918 -0.0062 -0.1029
 3394ntf    cn117960   7.053   3.018   3.588 -0.0390 -0.4817  0.0149
 3394ntf    fn417961   6.971   2.863   4.088  0.5799 -0.3477 -0.5292
 3394ntf    fn417962   6.854   3.049   4.090 -0.6744 -0.6309  0.5101
 3394ntf    fn417963   6.767   2.853   4.099  0.0986  0.0206 -0.4380
 3394ntf    on517964   6.814   2.780   3.848 -0.0872  0.2353 -0.1128
 3394ntf    on517965   6.756   3.020   3.827 -0.3320  0.0923 -0.2480
 3394ntf    on517966   7.204   3.093   3.783 -0.3011  0.2068 -0.3056
 3394ntf    on517967   6.981   3.185   3.770 -0.3548 -0.0745  0.3306
 3394ntf    fn417968   7.131   2.913   3.566  0.1186 -0.2912 -0.3245
 3394ntf    fn417969   6.930   2.987   3.548  0.0573 -0.4468 -0.3036
 3394ntf    fn417970   7.089   3.113   3.504 -0.4931 -0.8383 -0.5913
 3395ntf    cn117971   6.125   3.555   5.217  0.2459 -0.1303 -0.0720
 3395ntf    sn217972   5.988   3.449   5.163  0.1799 -0.1418  0.1181
 3395ntf    nn317973   6.040   3.405   5.021  0.1078 -0.2225  0.1165
 3395ntf    sn217974   5.965   3.368   4.888 -0.1263 -0.1062  0.2152
 3395ntf    cn117975   6.045   3.490   4.780 -0.0129 -0.3064  0.0741
 3395ntf    fn417976   6.238   3.490   5.242  0.1564 -0.0709  0.4977
 3395ntf    fn417977   6.161   3.653   5.135  0.3957 -0.3161 -0.2300
 3395ntf    fn417978   6.100   3.620   5.329  0.2088  0.0437 -0.1797
 3395ntf    on517979   5.978   3.340   5.257 -0.7345  0.0917  0.3036
 3395ntf    on517980   5.881   3.546   5.163 -0.0047 -0.3385 -0.8029
 3395ntf    on517981   5.823   3.391   4.878 -0.1077 -0.2293 -0.3667
 3395ntf    on517982   6.011   3.240   4.841 -0.2179 -0.0592 -0.0029
 3395ntf    fn417983   6.171   3.457   4.754 -0.1345 -0.9332  0.2522
 3395ntf    fn417984   5.991   3.489   4.659 -0.1030  0.0443  0.1117
 3395ntf    fn417985   6.034   3.610   4.834 -0.1407 -0.2445 -0.0879
 3396ntf    cn117986   2.695   1.021   7.035 -0.0649 -0.1395  0.2168
 3396ntf    sn217987   2.777   1.026   7.197  0.1779  0.4226  0.0782
 3396ntf    nn317988   2.676   1.084   7.303  0.0340  0.0904  0.1231
 3396ntf    sn217989   2.705   1.156   7.439  0.2108  0.0402  0.1133
 3396ntf    cn117990   2.817   1.040   7.523  0.1975  0.0382  0.1283
 3396ntf    fn417991   2.657   1.136   6.983  0.1613  0.1149  0.6102
 3396ntf    fn417992   2.762   0.951   6.945  0.3335  0.4660  0.0394
 3396ntf    fn417993   2.588   0.943   7.030  0.3608 -0.7026 -0.2745
 3396ntf    on517994   2.789   0.885   7.225  1.1482  0.4342 -0.2439
 3396ntf    on517995   2.895   1.103   7.166 -0.1555  0.6773 -0.5657
 3396ntf    on517996   2.588   1.161   7.524 -0.4299 -0.1945 -0.7442
 3396ntf    on517997   2.785   1.275   7.426 -0.4090  0.4178 -0.3149
 3396ntf    fn417998   2.925   1.022   7.449  0.2194  0.1616  0.1291
 3396ntf    fn417999   2.859   1.078   7.643 -0.3284  0.1768  0.2710
 3396ntf    fn418000   2.762   0.922   7.548  0.3877 -0.0170  0.2858
 3397ntf    cn118001   7.130   4.600   4.752 -0.1092  0.4386  0.0303
 3397ntf    sn218002   7.049   4.463   4.841  0.2785  0.0972 -0.1348
 3397ntf    nn318003   6.948   4.408   4.734  0.0015 -0.0639  0.2094
 3397ntf    sn218004   6.796   4.445   4.716 -0.0065 -0.0853  0.2302
 3397ntf    cn118005   6.709   4.287   4.729  0.1282 -0.2152 -0.4111
 3397ntf    fn418006   7.168   4.559   4.632  0.5481 -0.7575  0.6283
 3397ntf    fn418007   7.055   4.702   4.716  0.0018  0.4906 -0.0542
 3397ntf    fn418008   7.244   4.643   4.804 -0.3520  0.9212  0.1687
 3397ntf    on518009   7.157   4.374   4.872  0.6593  0.7049  0.3069
 3397ntf    on518010   6.994   4.526   4.958 -0.3708 -0.0726 -0.3410
 3397ntf    on518011   6.758   4.490   4.584  0.2302 -0.8620 -0.1082
 3397ntf    on518012   6.737   4.524   4.821 -0.0588  0.0572  0.0949
 3397ntf    fn418013   6.718   4.217   4.617 -0.0257 -0.6048 -0.1828
 3397ntf    fn418014   6.732   4.203   4.828 -0.2286 -0.3272 -0.4197
 3397ntf    fn418015   6.580   4.315   4.736  0.2702  0.3266  0.0859
 3398ntf    cn118016   4.313   0.379   1.825 -0.2745  0.1806  0.2006
 3398ntf    sn218017   4.473   0.307   1.779 -0.3309  0.1792  0.0064
 3398ntf    nn318018   4.566   0.373   1.887 -0.0909  0.0990 -0.1485
 3398ntf    sn218019   4.699   0.456   1.889  0.1288 -0.2581  0.0995
 3398ntf    cn118020   4.793   0.337   1.989 -0.0169 -0.0986  0.4302
 3398ntf    fn418021   4.213   0.351   1.742  0.6973  0.1659 -1.0030
 3398ntf    fn418022   4.280   0.339   1.946 -0.0007 -0.4087  0.0838
 3398ntf    fn418023   4.319   0.511   1.832  0.8752  0.1307  0.3853
 3398ntf    on518024   4.453   0.164   1.784  0.0958  0.1250  0.2201
 3398ntf    on518025   4.489   0.364   1.647 -0.4040  0.4940  0.1334
 3398ntf    on518026   4.690   0.580   1.962 -0.5152 -0.2598  0.0287
 3398ntf    on518027   4.759   0.461   1.759  0.0835 -0.0068  0.0880
 3398ntf    fn418028   4.729   0.222   1.998  0.7055 -0.4955  0.6392
 3398ntf    fn418029   4.912   0.309   1.937 -0.2018  0.6517 -0.4098
 3398ntf    fn418030   4.823   0.379   2.111 -0.2349  0.0554  0.4300
 3399ntf    cn118031   5.941   2.498   0.451  0.4457 -0.5906  0.5835
 3399ntf    sn218032   5.876   2.546   0.614 -0.5868 -0.2056  0.0678
 3399ntf    nn318033   5.976   2.666   0.632 -0.5650 -0.2229  0.0651
 3399ntf    sn218034   5.947   2.818   0.601  0.1658 -0.0878  0.0300
 3399ntf    cn118035   5.853   2.878   0.745 -0.3219  0.1046 -0.3667
 3399ntf    fn418036   6.068   2.461   0.465  0.5915 -0.2341  0.2264
 3399ntf    fn418037   5.868   2.394   0.414 -0.2702  0.2073 -0.3064
 3399ntf    fn418038   5.923   2.593   0.362  0.1083 -0.7484  0.4814
 3399ntf    on518039   5.737   2.581   0.601 -0.6003 -0.4621 -0.4879
 3399ntf    on518040   5.907   2.438   0.705 -0.3318  0.2505  0.5267
 3399ntf    on518041   5.866   2.849   0.486  0.1991  0.6563  0.2071
 3399ntf    on518042   6.061   2.906   0.599 -0.0885  0.2555  0.4671
 3399ntf    fn418043   5.898   2.848   0.866 -0.0665 -0.1033 -0.5135
 3399ntf    fn418044   5.851   3.010   0.748 -0.5182  0.0911  0.2047
 3399ntf    fn418045   5.728   2.837   0.737 -0.1303 -0.5517 -0.0498
 3400ntf    cn118046   7.109   5.466   2.158  0.1811  0.0974  0.2097
 3400ntf    sn218047   6.977   5.520   2.046  0.3775 -0.0579 -0.0990
 3400ntf    nn318048   6.890   5.608   2.143  0.0762 -0.2954 -0.1522
 3400ntf    sn218049   6.781   5.574   2.251 -0.1764  0.1584 -0.2562
 3400ntf    cn118050   6.829   5.686   2.386  0.4321 -0.3876 -0.0128
 3400ntf    fn418051   7.188   5.562   2.203  0.4821 -0.0344 -0.0315
 3400ntf    fn418052   7.061   5.404   2.265 -0.0931  0.2106  0.1527
 3400ntf    fn418053   7.191   5.378   2.104  0.1535  0.0985  0.1660
 3400ntf    on518054   7.043   5.609   1.954  0.0166  0.3554  0.0321
 3400ntf    on518055   6.915   5.399   1.998  0.2382  0.1763 -0.5117
 3400ntf    on518056   6.793   5.448   2.321 -0.3163 -0.2024 -0.8708
 3400ntf    on518057   6.645   5.609   2.219 -0.2155  0.0836 -0.1725
 3400ntf    fn418058   6.952   5.662   2.428  0.2391 -0.6662  0.3958
 3400ntf    fn418059   6.832   5.813   2.349 -0.4325 -0.0452  1.0823
 3400ntf    fn418060   6.751   5.671   2.491  0.2437 -0.1621 -0.1200
 3401ntf    cn118061   4.061   1.614   5.478 -0.1892  0.2231 -0.1648
 3401ntf    sn218062   4.241   1.606   5.455 -0.1755 -0.3465  0.1118
 3401ntf    nn318063   4.266   1.452   5.439  0.0158 -0.3332  0.2681
 3401ntf    sn218064   4.243   1.335   5.541  0.1445 -0.4319  0.1842
 3401ntf    cn118065   4.093   1.244   5.496  0.1240 -0.1453 -0.3411
 3401ntf    fn418066   4.012   1.527   5.565  0.2240  0.6520  0.4996
 3401ntf    fn418067   4.037   1.734   5.528 -0.0815  0.3006 -0.2973
 3401ntf    fn418068   3.999   1.598   5.362 -0.2324 -0.4510 -0.0533
 3401ntf    on518069   4.263   1.677   5.332 -0.6848 -0.2883  0.0526
 3401ntf    on518070   4.293   1.669   5.574 -0.3419 -0.8734  0.4637
 3401ntf    on518071   4.222   1.371   5.679  0.1198  0.0976  0.0450
 3401ntf    on518072   4.354   1.246   5.519  0.3381 -0.0809 -0.2656
 3401ntf    fn418073   4.116   1.146   5.410 -0.0099 -0.0497 -0.4854
 3401ntf    fn418074   4.056   1.181   5.607 -0.2829  0.2490 -0.2494
 3401ntf    fn418075   3.986   1.315   5.465  0.5743  0.6871 -0.0068
 3402ntf    cn118076   4.391   5.256   4.358  0.1901 -0.3730  0.6531
 3402ntf    sn218077   4.367   5.137   4.223  0.0313  0.0579  0.3028
 3402ntf    nn318078   4.277   5.222   4.126  0.1030 -0.1978  0.0084
 3402ntf    sn218079   4.121   5.228   4.135  0.1148  0.3484 -0.0922
 3402ntf    cn118080   4.077   5.306   3.976 -0.1491  0.0121 -0.1848
 3402ntf    fn418081   4.443   5.366   4.307 -0.1411 -0.6580 -0.3097
 3402ntf    fn418082   4.279   5.291   4.420 -0.2931 -0.4611 -0.1514
 3402ntf    fn418083   4.481   5.214   4.446  0.6644 -0.0477  0.3213
 3402ntf    on518084   4.497   5.125   4.161 -0.0781 -1.0825  0.2801
 3402ntf    on518085   4.306   5.025   4.289  0.0658  0.1017  0.4078
 3402ntf    on518086   4.070   5.321   4.233 -0.1258  0.0976  0.0225
 3402ntf    on518087   4.053   5.102   4.119  0.2497  0.2579  0.0442
 3402ntf    fn418088   4.061   5.437   3.982 -0.4725 -0.0611  0.6412
 3402ntf    fn418089   4.169   5.280   3.884  0.5133 -0.0668  0.4871
 3402ntf    fn418090   3.960   5.260   3.935  0.2204 -0.4926 -0.6939
 3403ntf    cn118091   1.283   7.025   7.072  0.3884 -0.1630 -0.2078
 3403ntf    sn218092   1.295   6.963   6.901 -0.2923 -0.3239 -0.2003
 3403ntf    nn318093   1.145   6.964   6.858 -0.3818 -0.1565  0.1093
 3403ntf    sn218094   1.090   6.986   6.712  0.2740 -0.1601 -0.1380
 3403ntf    cn118095   1.117   7.166   6.706 -0.4548 -0.0211  0.5553
 3403ntf    fn418096   1.406   7.026   7.122  0.3327  0.0344 -0.0746
 3403ntf    fn418097   1.234   7.147   7.080  0.4787 -0.1246 -0.2369
 3403ntf    fn418098   1.213   6.959   7.163  0.2086  0.3149  0.0031
 3403ntf    on518099   1.379   7.064   6.841  0.0614 -0.2267  0.4425
 3403ntf    on518100   1.350   6.832   6.926  0.1193 -0.0926  0.1233
 3403ntf    on518101   0.948   6.965   6.705  0.2594 -0.1256  0.0600
 3403ntf    on518102   1.159   6.928   6.599  0.0549 -0.3983 -0.1494
 3403ntf    fn418103   1.242   7.209   6.696 -0.4235 -0.2484 -0.1060
 3403ntf    fn418104   1.065   7.220   6.597 -0.6364 -0.0907  0.6065
 3403ntf    fn418105   1.059   7.219   6.812 -0.0500  0.5441  0.5002
 3404ntf    cn118106   5.585   5.439   2.052 -0.1371 -0.4737 -0.2385
 3404ntf    sn218107   5.521   5.513   1.899  0.1871 -0.0139 -0.1551
 3404ntf    nn318108   5.575   5.418   1.786  0.8939 -0.3869  0.4910
 3404ntf    sn218109   5.549   5.266   1.755 -0.2557 -0.0592 -0.2234
 3404ntf    cn118110   5.539   5.291   1.575 -0.3161 -0.1251 -0.2291
 3404ntf    fn418111   5.543   5.503   2.160  0.3182 -0.9117  0.2077
 3404ntf    fn418112   5.554   5.314   2.082 -0.2964 -0.5156 -0.5679
 3404ntf    fn418113   5.716   5.453   2.051 -0.2044  0.1872 -0.1363
 3404ntf    on518114   5.377   5.503   1.909  0.1916  0.1533  0.0624
 3404ntf    on518115   5.583   5.642   1.895  0.6139 -0.2018  0.3440
 3404ntf    on518116   5.420   5.218   1.795 -0.1293 -0.2307 -0.0185
 3404ntf    on518117   5.666   5.184   1.778  0.2773  0.6433 -0.3847
 3404ntf    fn418118   5.644   5.369   1.554 -0.3404 -0.0267  0.0138
 3404ntf    fn418119   5.540   5.182   1.501 -0.1570 -0.2354 -0.0655
 3404ntf    fn418120   5.433   5.361   1.538 -0.3919 -0.2771 -0.3020
 3405ntf    cn118121   1.668   1.126   6.261  0.1760 -0.4055 -0.1351
 3405ntf    sn218122   1.655   1.235   6.116 -0.2500  0.1413  0.3105
 3405ntf    nn318123   1.498   1.233   6.111 -0.2302 -0.1229 -0.2602
 3405ntf    sn218124   1.409   1.350   6.168  0.2700  0.2688 -0.2780
 3405ntf    cn118125   1.406   1.473   6.034 -0.5572  0.3195 -0.2146
 3405ntf    fn418126   1.633   1.180   6.376  0.1121 -0.3455 -0.1827
 3405ntf    fn418127   1.601   1.012   6.250 -0.4384 -0.1058  0.4040
 3405ntf    fn418128   1.796   1.095   6.273  0.1783 -0.3042  0.1034
 3405ntf    on518129   1.717   1.358   6.157 -0.3247  0.4903 -0.6071
 3405ntf    on518130   1.714   1.155   6.012 -0.3608  0.0162  0.3433
 3405ntf    on518131   1.447   1.427   6.284 -0.4822  0.1165  0.0699
 3405ntf    on518132   1.274   1.301   6.160  0.2135  0.4173 -0.2370
 3405ntf    fn418133   1.509   1.555   6.025  0.2400 -0.5879  0.4481
 3405ntf    fn418134   1.374   1.428   5.914 -0.0767 -0.0593 -0.2067
 3405ntf    fn418135   1.310   1.559   6.064 -0.7131  0.0937 -0.0654
 3406ntf    cn118136   2.294   0.560   1.905  0.3606  0.3179 -0.4911
 3406ntf    sn218137   2.463   0.492   1.903  0.2671  0.0554  0.2323
 3406ntf    nn318138   2.448   0.366   1.996  0.1657  0.1865  0.3950
 3406ntf    sn218139   2.421   0.215   1.964 -0.1179  0.2846  0.1603
 3406ntf    cn118140   2.358   0.141   2.118  0.0028  0.0081  0.0778
 3406ntf    fn418141   2.206   0.486   1.840 -0.2747 -0.1544  0.8676
 3406ntf    fn418142   2.251   0.571   2.030 -0.8815 -0.4159 -0.8312
 3406ntf    fn418143   2.286   0.686   1.865  0.3684  0.5895  0.3514
 3406ntf    on518144   2.474   0.476   1.760 -0.3063  0.9888  0.0728
 3406ntf    on518145   2.555   0.590   1.955  0.2423  0.0488  0.2884
 3406ntf    on518146   2.540   0.139   1.934  0.1211  0.5168  0.5100
 3406ntf    on518147   2.314   0.196   1.869  0.2751  0.1881 -0.2693
 3406ntf    fn418148   2.458   0.082   2.180  0.0805  0.2552  0.1885
 3406ntf    fn418149   2.298   0.227   2.199  0.0447  0.2059 -0.0991
 3406ntf    fn418150   2.267   0.047   2.100 -0.3025  0.2986  0.0839
 3407ntf    cn118151   7.234   5.854   4.632  0.0518 -0.1510 -0.4133
 3407ntf    sn218152   7.055   5.840   4.602 -0.0666 -0.0080  0.2193
 3407ntf    nn318153   7.053   5.689   4.561  0.1659  0.0151  0.1191
 3407ntf    sn218154   6.977   5.558   4.602 -0.0788  0.0790 -0.1236
 3407ntf    cn118155   7.100   5.430   4.562  0.0220  0.0363  0.3130
 3407ntf    fn418156   7.280   5.741   4.685 -0.6727 -0.1706  0.1880
 3407ntf    fn418157   7.306   5.883   4.525  0.0142  0.4436 -0.2787
 3407ntf    fn418158   7.262   5.954   4.714  0.0122  0.0056 -0.5909
 3407ntf    on518159   7.005   5.878   4.731  0.6461  0.1991  0.4405
 3407ntf    on518160   7.023   5.931   4.495 -0.1033 -0.0922  0.1585
 3407ntf    on518161   6.866   5.526   4.515  0.3171  0.3734 -0.7381
 3407ntf    on518162   6.952   5.547   4.744 -0.7879 -0.0238 -0.2520
 3407ntf    fn418163   7.051   5.311   4.590  0.0067 -0.0274  0.0233
 3407ntf    fn418164   7.120   5.431   4.431  0.3037  0.1367  0.3555
 3407ntf    fn418165   7.218   5.447   4.620  0.2643 -0.0517 -0.1517
 3408ntf    cn118166   4.476   6.107   3.244  0.0404  0.0015 -0.2058
 3408ntf    sn218167   4.350   5.977   3.256 -0.1268  0.1986  0.2065
 3408ntf    nn318168   4.360   5.977   3.412  0.1417 -0.3039  0.1913
 3408ntf    sn218169   4.398   5.859   3.509 -0.1280 -0.2749  0.3336
 3408ntf    cn118170   4.576   5.884   3.535 -0.1831  0.2492  0.2215
 3408ntf    fn418171   4.446   6.215   3.315 -0.3237  0.1107 -0.5261
 3408ntf    fn418172   4.592   6.061   3.288 -0.1237  0.1654  0.4160
 3408ntf    fn418173   4.502   6.155   3.124 -0.1344  0.4732 -0.0578
 3408ntf    on518174   4.231   6.038   3.201  0.0915  0.5281  0.1014
 3408ntf    on518175   4.413   5.871   3.180  0.3434  0.7513 -0.1794
 3408ntf    on518176   4.389   5.730   3.445 -0.2063 -0.0292 -0.1553
 3408ntf    on518177   4.343   5.873   3.641 -0.2944  0.5604  0.1836
 3408ntf    fn418178   4.585   5.986   3.619  0.0138  0.6039 -0.2268
 3408ntf    fn418179   4.631   5.775   3.585 -0.4886 -0.1175 -0.2337
 3408ntf    fn418180   4.647   5.909   3.427 -0.1977 -0.1430  0.1181
 3409ntf    cn118181   4.415   3.703   0.114  0.0804 -0.1813 -0.5803
 3409ntf    sn218182   4.371   3.559   0.012 -0.2022 -0.2652 -0.3422
 3409ntf    nn318183   4.261   3.629  -0.074 -0.0385 -0.3623 -0.6305
 3409ntf    sn218184   4.146   3.560  -0.156 -0.3849 -0.0939 -0.3747
 3409ntf    cn118185   4.221   3.573  -0.322  0.1200 -0.7053 -0.1980
 3409ntf    fn418186   4.448   3.807   0.040 -0.1076  0.4569  0.2191
 3409ntf    fn418187   4.325   3.747   0.200  0.5163  0.0803 -0.2515
 3409ntf    fn418188   4.521   3.674   0.188 -0.4576 -0.5955  0.0500
 3409ntf    on518189   4.491   3.528  -0.063  0.0060 -0.2867 -0.0048
 3409ntf    on518190   4.316   3.464   0.106 -0.6882  0.9050  0.5762
 3409ntf    on518191   4.029   3.644  -0.159 -0.3933 -0.0840  0.2350
 3409ntf    on518192   4.135   3.421  -0.119  0.7471 -0.0069  0.3581
 3409ntf    fn418193   4.350   3.543  -0.311  0.1939 -0.3540 -0.0971
 3409ntf    fn418194   4.174   3.489  -0.412  0.3515 -0.3795 -0.6258
 3409ntf    fn418195   4.221   3.692  -0.380 -0.1782 -0.4229  0.3714
 3410ntf    cn118196   6.704   1.445   1.571 -0.2688  0.5822 -0.3056
 3410ntf    sn218197   6.664   1.473   1.747  0.3147 -0.0723 -0.0645
 3410ntf    nn318198   6.583   1.607   1.739  0.4018 -0.0298 -0.2454
 3410ntf    sn218199   6.645   1.750   1.747 -0.0355  0.1673 -0.3131
 3410ntf    cn118200   6.642   1.774   1.928 -0.2328 -0.0040 -0.2935
 3410ntf    fn418201   6.770   1.549   1.523 -0.1092  0.7623  0.2921
 3410ntf    fn418202   6.782   1.339   1.558 -0.3252  0.5249 -0.1836
 3410ntf    fn418203   6.601   1.421   1.491 -0.0423 -0.7249 -0.2340
 3410ntf    on518204   6.585   1.355   1.773  0.2352 -0.1626 -0.6923
 3410ntf    on518205   6.792   1.478   1.812  0.0750  1.3758  0.3150
 3410ntf    on518206   6.556   1.844   1.684 -0.1190  0.3780  0.1141
 3410ntf    on518207   6.787   1.760   1.719  0.1070 -0.0848  0.3010
 3410ntf    fn418208   6.695   1.677   2.001 -0.3840  0.6359  0.6797
 3410ntf    fn418209   6.703   1.886   1.965 -0.3414  0.1680 -0.6260
 3410ntf    fn418210   6.521   1.808   1.967  0.2624  0.4420  0.9013
 3411ntf    cn118211   4.908   5.644   0.021  0.1425  0.3072  0.2018
 3411ntf    sn218212   4.934   5.803  -0.063  0.0354  0.1799 -0.0741
 3411ntf    nn318213   5.061   5.851   0.016 -0.0125 -0.1838  0.2256
 3411ntf    sn218214   5.213   5.867  -0.021 -0.0909 -0.3902 -0.1869
 3411ntf    cn118215   5.238   6.017   0.077  0.1285 -0.5251 -0.0357
 3411ntf    fn418216   4.971   5.632   0.136 -0.1098 -0.2973  0.2804
 3411ntf    fn418217   4.779   5.622   0.041  0.2974 -0.5264  0.2844
 3411ntf    fn418218   4.949   5.542  -0.052  0.1673  0.4564  0.0040
 3411ntf    on518219   4.952   5.786  -0.205 -0.0739  0.5645 -0.1345
 3411ntf    on518220   4.811   5.869  -0.027 -0.0592 -0.2713  0.4436
 3411ntf    on518221   5.261   5.902  -0.153  0.1577  0.5630  0.1519
 3411ntf    on518222   5.299   5.768   0.038  0.4702  0.1587 -0.0759
 3411ntf    fn418223   5.198   5.986   0.200  0.4181  0.2385  0.2625
 3411ntf    fn418224   5.365   6.051   0.094  0.0972 -0.3437 -0.1613
 3411ntf    fn418225   5.174   6.128   0.042  0.1764 -0.6204 -0.4271
 3412ntf    cn118226   0.933   1.621   1.769 -0.0316 -0.2332 -0.1231
 3412ntf    sn218227   0.999   1.459   1.820 -0.2597 -0.2611  0.0832
 3412ntf    nn318228   1.134   1.508   1.882 -0.3469  0.3277 -0.1814
 3412ntf    sn218229   1.271   1.432   1.887 -0.4346  0.1783 -0.0477
 3412ntf    cn118230   1.372   1.540   1.781 -0.3002  0.1444  0.0443
 3412ntf    fn418231   1.026   1.704   1.726 -0.2727  0.1437  0.0802
 3412ntf    fn418232   0.841   1.597   1.677  0.5194 -0.3421 -0.6547
 3412ntf    fn418233   0.868   1.678   1.868 -0.5633 -0.1305 -0.5239
 3412ntf    on518234   0.907   1.413   1.921 -0.1808  0.1243  0.3291
 3412ntf    on518235   1.002   1.386   1.695 -0.1662  0.0412 -0.0919
 3412ntf    on518236   1.253   1.305   1.820  0.1642  0.1724 -0.2089
 3412ntf    on518237   1.337   1.436   2.016 -0.7811  0.0686  0.1345
 3412ntf    fn418238   1.491   1.489   1.757 -0.0519  0.7853 -0.1095
 3412ntf    fn418239   1.314   1.554   1.663 -0.2797  0.0473  0.0233
 3412ntf    fn418240   1.386   1.662   1.830  0.1569  0.0432  0.1640
 3413ntf    cn118241   2.289   6.392   2.057 -0.3758  0.0585  0.1079
 3413ntf    sn218242   2.217   6.504   1.933 -0.2228 -0.0215 -0.0537
 3413ntf    nn318243   2.068   6.453   1.939 -0.3050  0.1405 -0.6254
 3413ntf    sn218244   2.005   6.342   1.848 -0.1121 -0.1307 -0.4309
 3413ntf    cn118245   1.919   6.449   1.729 -0.0275  0.3972 -0.0190
 3413ntf    fn418246   2.223   6.278   2.046 -0.4412  0.0622  0.4715
 3413ntf    fn418247   2.417   6.364   2.041 -0.5053 -0.0603 -0.8101
 3413ntf    fn418248   2.257   6.431   2.179  0.8263  0.1339  0.4054
 3413ntf    on518249   2.237   6.636   1.986 -0.4949  0.3096 -0.7635
 3413ntf    on518250   2.279   6.480   1.805 -0.1599 -0.4058  0.0485
 3413ntf    on518251   1.900   6.270   1.916  0.2841 -0.4652 -0.1685
 3413ntf    on518252   2.093   6.270   1.759 -0.0926 -0.9473  0.2386
 3413ntf    fn418253   2.001   6.525   1.658  0.3624  0.1222  0.1390
 3413ntf    fn418254   1.855   6.372   1.643  0.1350  0.1207  0.1054
 3413ntf    fn418255   1.833   6.530   1.789 -0.7843 -0.2857 -0.1746
 3414ntf    cn118256   3.972   3.876   4.857  0.3091 -0.2296 -0.0783
 3414ntf    sn218257   4.043   3.720   4.796  0.4208 -0.1268 -0.2142
 3414ntf    nn318258   3.948   3.623   4.875  0.2772  0.0400 -0.1817
 3414ntf    sn218259   3.988   3.528   4.993 -0.0255  0.0389 -0.0808
 3414ntf    cn118260   3.844   3.539   5.104 -0.1575 -0.1455 -0.2331
 3414ntf    fn418261   3.985   3.892   4.987  0.0043  0.2509 -0.1067
 3414ntf    fn418262   4.017   3.985   4.797  0.0347  0.0440  0.2131
 3414ntf    fn418263   3.840   3.876   4.848  0.2423 -0.9674  0.8649
 3414ntf    on518264   4.021   3.710   4.654 -0.2150 -0.2580 -0.1087
 3414ntf    on518265   4.181   3.723   4.837  0.4700 -0.5668 -0.3395
 3414ntf    on518266   4.101   3.561   5.077 -0.0019  0.4372 -0.2673
 3414ntf    on518267   3.991   3.393   4.942  0.5208 -0.1233  0.3631
 3414ntf    fn418268   3.725   3.527   5.047 -0.3365  0.0361  0.0990
 3414ntf    fn418269   3.847   3.445   5.197 -0.2232  0.1259  0.0439
 3414ntf    fn418270   3.832   3.656   5.165 -0.4303 -0.0604 -0.4486
 3415ntf    cn118271   5.848   0.819   7.116 -0.0756  0.0979  0.3917
 3415ntf    sn218272   5.817   0.643   7.150  0.0041  0.0154  0.0421
 3415ntf    nn318273   5.900   0.632   7.283 -0.1451 -0.1773  0.1198
 3415ntf    sn218274   5.927   0.511   7.380  0.2478 -0.0774  0.1355
 3415ntf    cn118275   6.083   0.558   7.461  0.0689 -0.1368  0.5163
 3415ntf    fn418276   5.976   0.852   7.122 -0.0487  0.0168  0.2669
 3415ntf    fn418277   5.806   0.866   7.000  0.3554 -0.2144  0.1065
 3415ntf    fn418278   5.785   0.899   7.200 -0.7324  0.1855 -0.1722
 3415ntf    on518279   5.673   0.633   7.157  0.0260 -0.3743 -0.0024
 3415ntf    on518280   5.884   0.581   7.038 -0.2431  0.0144 -0.1052
 3415ntf    on518281   5.958   0.391   7.308 -0.2744 -0.2113  0.1297
 3415ntf    on518282   5.825   0.502   7.481 -0.2147  0.5834 -0.2568
 3415ntf    fn418283   6.064   0.668   7.533 -0.6798 -0.2255  0.4638
 3415ntf    fn418284   6.131   0.461   7.537 -0.0458 -0.9148 -0.3856
 3415ntf    fn418285   6.179   0.577   7.372 -0.4643 -0.1472 -0.0664
 3416ntf    cn118286   4.230   2.002   4.778  0.1332  0.0811  0.3718
 3416ntf    sn218287   4.233   2.059   4.605  0.0568 -0.4624  0.1899
 3416ntf    nn318288   4.382   2.023   4.570 -0.2585 -1.3007 -0.3256
 3416ntf    sn218289   4.451   1.992   4.433 -0.3191 -0.4841 -0.5471
 3416ntf    cn118290   4.396   1.821   4.401 -0.4685 -0.6504  0.5440
 3416ntf    fn418291   4.270   1.876   4.788  0.0508 -0.0093 -0.3780
 3416ntf    fn418292   4.308   2.081   4.849  0.0891  0.2563  0.2272
 3416ntf    fn418293   4.112   2.003   4.839  0.0125 -0.7785  0.1731
 3416ntf    on518294   4.139   1.969   4.542 -0.3491 -0.0701  0.2287
 3416ntf    on518295   4.201   2.199   4.608 -0.6171 -0.6099  0.1229
 3416ntf    on518296   4.594   1.976   4.434 -0.3304 -0.5802 -0.0130
 3416ntf    on518297   4.397   2.062   4.320 -0.3381  0.3646 -0.0170
 3416ntf    fn418298   4.445   1.744   4.496 -0.0973 -0.4708  0.5026
 3416ntf    fn418299   4.265   1.811   4.390 -0.4531 -0.1779 -0.1593
 3416ntf    fn418300   4.449   1.779   4.287 -0.0919  0.1844  0.3998
 3417ntf    cn118301   5.137   7.055   5.039 -0.1410 -0.0902  0.1103
 3417ntf    sn218302   5.216   6.967   4.901 -0.0194  0.1761  0.0104
 3417ntf    nn318303   5.100   6.975   4.795 -0.2053  0.4472  0.2336
 3417ntf    sn218304   5.079   7.085   4.686  0.0652  0.3397  0.0713
 3417ntf    cn118305   5.172   7.012   4.548  0.0013  0.0128  0.2004
 3417ntf    fn418306   5.044   6.984   5.101 -0.2158 -0.0831  0.0069
 3417ntf    fn418307   5.230   7.088   5.127  0.1616 -0.3445 -0.1116
 3417ntf    fn418308   5.076   7.163   4.993 -0.2301 -0.1233  0.1513
 3417ntf    on518309   5.337   7.040   4.869 -0.1652  0.0724 -0.8090
 3417ntf    on518310   5.242   6.832   4.945 -0.1181  0.2637  0.3374
 3417ntf    on518311   5.147   7.210   4.713  0.1727  0.3655 -0.3130
 3417ntf    on518312   4.943   7.074   4.641  0.1269 -0.4279  0.0596
 3417ntf    fn418313   5.303   7.008   4.565  0.0051  0.3862  0.2676
 3417ntf    fn418314   5.135   6.890   4.510 -0.2876  0.3054 -0.4820
 3417ntf    fn418315   5.164   7.083   4.436 -0.6813  0.0135  0.2464
 3418ntf    cn118316   6.793   4.950   2.863  0.0512  0.1327  0.2039
 3418ntf    sn218317   6.628   4.882   2.895  0.1081  0.0975  0.4263
 3418ntf    nn318318   6.679   4.776   2.999  0.9306 -0.3778 -0.4465
 3418ntf    sn218319   6.611   4.640   3.038  0.5536 -0.1178 -0.1923
 3418ntf    cn118320   6.639   4.646   3.217 -0.1836  0.0460 -0.0770
 3418ntf    fn418321   6.781   5.061   2.792  0.2085  0.1312  0.1737
 3418ntf    fn418322   6.869   4.973   2.969 -0.2223 -0.2245  0.4813
 3418ntf    fn418323   6.872   4.871   2.792 -0.4211 -0.2795  0.1335
 3418ntf    on518324   6.561   4.997   2.951  0.1913  0.2558  0.2023
 3418ntf    on518325   6.576   4.833   2.770  0.0998  0.2352  0.3759
 3418ntf    on518326   6.685   4.526   2.989 -0.2741 -0.3652 -0.8983
 3418ntf    on518327   6.468   4.621   3.027  0.5828 -0.3448 -0.1927
 3418ntf    fn418328   6.558   4.562   3.280 -0.1295  0.1670  0.1583
 3418ntf    fn418329   6.764   4.614   3.250 -0.1893 -0.0278 -0.1269
 3418ntf    fn418330   6.618   4.764   3.274  0.1175  0.0189  0.0977
 3419ntf    cn118331   7.075   1.910   0.206 -0.0115 -0.1127  0.0457
 3419ntf    sn218332   7.005   2.064   0.140  0.1437 -0.1103 -0.1139
 3419ntf    nn318333   7.061   2.069  -0.007  0.1020 -0.2350 -0.1348
 3419ntf    sn218334   7.175   2.157  -0.068 -0.3421  0.1895 -0.3592
 3419ntf    cn118335   7.075   2.304  -0.105 -0.0698  0.4002 -0.2616
 3419ntf    fn418336   7.205   1.896   0.185  0.0509  0.2012  0.2093
 3419ntf    fn418337   7.060   1.905   0.338  0.2029 -0.2914  0.0646
 3419ntf    fn418338   7.013   1.802   0.162 -0.0681 -0.1449  0.2040
 3419ntf    on518339   6.863   2.040   0.145  0.1208  0.0583  0.0712
 3419ntf    on518340   7.051   2.167   0.229  0.7004  0.0262 -0.5548
 3419ntf    on518341   7.230   2.105  -0.191  0.5440 -0.0354  0.1220
 3419ntf    on518342   7.275   2.198   0.028 -0.1186 -0.0002 -0.5084
 3419ntf    fn418343   6.960   2.265  -0.157  0.2284 -0.1394 -0.5191
 3419ntf    fn418344   7.041   2.369   0.005  0.2398 -0.1496  0.1614
 3419ntf    fn418345   7.140   2.393  -0.179  0.0369  0.1334 -0.4896
 3420ntf    cn118346   5.052   3.324   5.620  0.2757  0.1897 -0.4632
 3420ntf    sn218347   5.166   3.247   5.501  0.3334  0.0029 -0.2888
 3420ntf    nn318348   5.153   3.101   5.556 -0.4108  0.0608 -0.3005
 3420ntf    sn218349   5.137   2.979   5.458  0.1293  0.0469 -0.3717
 3420ntf    cn118350   5.170   2.843   5.573  0.5458  0.3699 -0.1042
 3420ntf    fn418351   5.089   3.310   5.746  0.0794 -0.3973 -0.4680
 3420ntf    fn418352   5.032   3.453   5.600  0.0161  0.1750 -0.3082
 3420ntf    fn418353   4.932   3.268   5.611  0.1153  0.4825 -0.1781
 3420ntf    on518354   5.103   3.279   5.375  1.0309  1.0552 -0.3823
 3420ntf    on518355   5.293   3.303   5.541  0.4765 -0.5424  0.0263
 3420ntf    on518356   5.247   2.975   5.365 -0.3837  0.4089 -1.0015
 3420ntf    on518357   5.007   2.959   5.400  0.0608 -0.1492 -0.1508
 3420ntf    fn418358   5.185   2.887   5.697  0.3787  0.0990  0.0128
 3420ntf    fn418359   5.066   2.761   5.571  0.3158  0.6681 -0.4633
 3420ntf    fn418360   5.281   2.778   5.542  0.4703  0.0523  0.2723
 3421ntf    cn118361   2.147   6.869   0.776 -0.2603 -0.3664  0.1334
 3421ntf    sn218362   2.000   6.831   0.676 -0.1015 -0.1164 -0.1994
 3421ntf    nn318363   1.939   6.711   0.756 -0.0203 -0.0825 -0.0866
 3421ntf    sn218364   1.864   6.738   0.892 -0.0992 -0.5192 -0.0425
 3421ntf    cn118365   1.885   6.576   0.972  0.2317 -0.3862  0.1406
 3421ntf    fn418366   2.173   6.777   0.866  0.7640 -0.1793  0.0424
 3421ntf    fn418367   2.252   6.886   0.697 -0.3767 -0.2702 -0.0016
 3421ntf    fn418368   2.116   6.980   0.841  0.3534 -0.4851  0.6344
 3421ntf    on518369   1.924   6.954   0.677 -0.0314 -0.0741  0.2738
 3421ntf    on518370   2.049   6.783   0.550  0.2419  0.1136 -0.1543
 3421ntf    on518371   1.721   6.748   0.870  0.1586  1.0371 -1.1093
 3421ntf    on518372   1.929   6.836   0.974 -0.2784 -0.2899 -0.1739
 3421ntf    fn418373   2.002   6.518   0.951  0.4102 -0.1460  0.4588
 3421ntf    fn418374   1.884   6.574   1.104  0.2351 -0.5489  0.1388
 3421ntf    fn418375   1.793   6.494   0.924 -0.2058 -0.1404  0.5446
 3422ntf    cn118376   5.132   1.706   0.675 -0.1444 -0.2477  0.1351
 3422ntf    sn218377   5.171   1.857   0.768  0.1063 -0.1581 -0.1144
 3422ntf    nn318378   5.023   1.906   0.788  0.1101 -0.0551 -0.3330
 3422ntf    sn218379   4.976   2.048   0.837  0.4489  0.0045 -0.1755
 3422ntf    cn118380   4.899   2.001   0.995 -0.0422 -0.1610 -0.4613
 3422ntf    fn418381   5.054   1.627   0.747 -0.9348  0.2044 -0.2145
 3422ntf    fn418382   5.063   1.730   0.564 -0.5127 -0.2376  0.3637
 3422ntf    fn418383   5.241   1.639   0.641 -0.3072 -0.4434 -0.0077
 3422ntf    on518384   5.231   1.805   0.889  0.0269 -0.2587 -0.1186
 3422ntf    on518385   5.252   1.931   0.674 -0.1467  0.3100  0.0319
 3422ntf    on518386   4.863   2.100   0.765 -0.2269 -0.0357  0.8402
 3422ntf    on518387   5.080   2.138   0.880  0.1383 -0.1196  0.8694
 3422ntf    fn418388   4.987   1.993   1.094 -0.2347  0.0437 -0.2728
 3422ntf    fn418389   4.808   2.088   1.036  0.7793  0.3862  0.2457
 3422ntf    fn418390   4.837   1.884   0.987 -0.1981 -0.1129  0.0199
 3423ntf    cn118391   1.280   4.890   5.314  0.0888  0.0067  0.5398
 3423ntf    sn218392   1.407   4.789   5.233  0.0678  0.2835  0.1544
 3423ntf    nn318393   1.339   4.649   5.212  0.4019  0.1145  0.1944
 3423ntf    sn218394   1.418   4.514   5.227  0.1045 -0.0487  0.2952
 3423ntf    cn118395   1.371   4.443   5.388 -0.2487 -0.6766 -0.0798
 3423ntf    fn418396   1.160   4.887   5.257  0.1209 -0.3074  0.4906
 3423ntf    fn418397   1.258   4.852   5.439 -0.4069 -0.3025  0.3640
 3423ntf    fn418398   1.313   5.018   5.314  0.0443  0.0184  0.3105
 3423ntf    on518399   1.436   4.859   5.111 -0.1003  0.2439  0.0915
 3423ntf    on518400   1.508   4.779   5.336 -0.1499 -0.4198  0.3120
 3423ntf    on518401   1.562   4.511   5.233  0.1095  0.6879  0.7020
 3423ntf    on518402   1.359   4.430   5.126 -0.5421  0.0970  0.5430
 3423ntf    fn418403   1.240   4.450   5.409 -0.2123 -0.0030 -0.0390
 3423ntf    fn418404   1.399   4.314   5.391  0.3683 -0.5426  0.0350
 3423ntf    fn418405   1.440   4.491   5.490  0.1190 -0.6724 -0.3291
 3424ntf    cn118406   2.264   3.480   1.687 -0.5559 -0.3843  0.1881
 3424ntf    sn218407   2.341   3.316   1.706 -0.4797 -0.3493  0.1767
 3424ntf    nn318408   2.241   3.256   1.810 -0.1714 -0.8398  0.1943
 3424ntf    sn218409   2.270   3.208   1.957 -0.1023  0.0198  0.4698
 3424ntf    cn118410   2.131   3.092   1.977 -0.1879 -0.0938 -0.6818
 3424ntf    fn418411   2.288   3.548   1.797 -0.7806  0.4015 -0.2458
 3424ntf    fn418412   2.316   3.549   1.587 -0.0404 -0.0791  0.6683
 3424ntf    fn418413   2.133   3.487   1.665 -0.4863 -0.2087 -0.1831
 3424ntf    on518414   2.336   3.263   1.572  0.2370 -0.2359  0.1001
 3424ntf    on518415   2.471   3.339   1.766 -0.0976  0.4893 -0.9181
 3424ntf    on518416   2.245   3.318   2.046  0.7839 -0.0130  0.7689
 3424ntf    on518417   2.387   3.127   1.983  0.1982  0.2782 -0.0659
 3424ntf    fn418418   2.012   3.142   1.949 -0.1744  0.3557  0.0197
 3424ntf    fn418419   2.147   2.990   1.895  0.3870 -0.2182 -0.4262
 3424ntf    fn418420   2.127   3.036   2.097 -0.3995 -0.0805 -0.6830
 3425ntf    cn118421   1.255   2.340   4.270  0.0245 -0.0891 -0.1119
 3425ntf    sn218422   1.385   2.399   4.157 -0.1494  0.2052 -0.1584
 3425ntf    nn318423   1.508   2.331   4.228 -0.2258  0.1287 -0.0987
 3425ntf    sn218424   1.617   2.399   4.319 -0.2391 -0.1187  0.1048
 3425ntf    cn118425   1.674   2.248   4.402 -0.4854 -0.1713  0.1792
 3425ntf    fn418426   1.242   2.208   4.268 -0.0745 -0.0679 -1.2236
 3425ntf    fn418427   1.279   2.379   4.394 -0.6740 -0.5312  0.1671
 3425ntf    fn418428   1.138   2.393   4.241  0.0724  0.2515  0.3010
 3425ntf    on518429   1.350   2.336   4.032  0.0840 -0.4957  0.1227
 3425ntf    on518430   1.381   2.543   4.163  0.1265  0.2154 -0.2101
 3425ntf    on518431   1.556   2.484   4.418 -0.1588  0.0746 -0.0098
 3425ntf    on518432   1.732   2.443   4.244 -0.1911 -0.3537  0.0390
 3425ntf    fn418433   1.773   2.284   4.482  0.0250 -0.7724 -0.1833
 3425ntf    fn418434   1.586   2.178   4.472  0.0924 -0.5247  0.5583
 3425ntf    fn418435   1.723   2.158   4.319 -0.5180 -0.2048  0.1957
 3426ntf    cn118436   2.760   1.797   0.833 -0.1474 -0.7671  0.0182
 3426ntf    sn218437   2.683   1.953   0.886  0.3556 -0.4380 -0.2081
 3426ntf    nn318438   2.531   1.934   0.849  0.1588  0.1597  0.2842
 3426ntf    sn218439   2.429   1.853   0.936  0.1678 -0.2201 -0.0543
 3426ntf    cn118440   2.291   1.972   0.945  0.0575 -0.3221 -0.4076
 3426ntf    fn418441   2.737   1.697   0.916  0.2171 -0.8206  0.0554
 3426ntf    fn418442   2.723   1.763   0.711 -0.3484 -0.0666 -0.1202
 3426ntf    fn418443   2.890   1.818   0.816 -0.2048 -0.8252 -0.5152
 3426ntf    on518444   2.731   1.966   1.021  0.2962 -0.3307 -0.1969
 3426ntf    on518445   2.735   2.052   0.794  1.0908 -0.3710  0.2728
 3426ntf    on518446   2.453   1.827   1.076 -0.3090 -0.6765 -0.0529
 3426ntf    on518447   2.366   1.751   0.856 -0.1653  0.0347 -0.1196
 3426ntf    fn418448   2.198   1.945   1.035 -0.1068  0.8133 -0.2284
 3426ntf    fn418449   2.324   2.090   0.994 -0.1962 -0.1831 -0.5668
 3426ntf    fn418450   2.224   1.995   0.833 -0.2434 -0.3996 -0.2450
 3427ntf    cn118451   5.320   4.103   5.060 -0.2505 -0.5993 -0.0616
 3427ntf    sn218452   5.372   3.979   5.183  0.3884 -0.1327  0.1451
 3427ntf    nn318453   5.427   3.860   5.097  0.3113 -0.0800  0.0229
 3427ntf    sn218454   5.327   3.746   5.056  0.0555  0.1255  0.0760
 3427ntf    cn118455   5.331   3.639   5.203 -0.1896 -0.0585 -0.0505
 3427ntf    fn418456   5.253   4.200   5.120  0.2549 -0.2727 -0.0213
 3427ntf    fn418457   5.418   4.166   4.998  0.0935 -0.4563  0.6101
 3427ntf    fn418458   5.245   4.040   4.971 -0.2007 -0.4885 -0.1827
 3427ntf    on518459   5.477   4.044   5.257  0.0668 -0.4225  0.8760
 3427ntf    on518460   5.256   3.956   5.266  0.3190 -0.1979  0.0309
 3427ntf    on518461   5.385   3.651   4.965  1.0994  0.3075  0.5347
 3427ntf    on518462   5.191   3.784   5.025  0.0763 -0.2175 -0.4442
 3427ntf    fn418463   5.437   3.560   5.199 -0.3153 -0.2409  0.2481
 3427ntf    fn418464   5.337   3.709   5.315  0.1469  0.1009 -0.1652
 3427ntf    fn418465   5.222   3.564   5.199 -0.1871 -0.0596 -0.0962
 3428ntf    cn118466   2.902   5.501   7.236 -0.1766 -0.5512 -0.3998
 3428ntf    sn218467   3.009   5.379   7.153  0.4148 -0.1827 -0.1810
 3428ntf    nn318468   3.115   5.466   7.077  0.5685 -0.2216 -0.0108
 3428ntf    sn218469   3.200   5.416   6.955  0.1948 -0.3671 -0.2136
 3428ntf    cn118470   3.109   5.488   6.815  0.2663 -0.2030 -0.1749
 3428ntf    fn418471   2.939   5.517   7.361 -0.2344  0.4489 -0.5021
 3428ntf    fn418472   2.916   5.620   7.181  0.0430 -0.7306 -0.7368
 3428ntf    fn418473   2.776   5.458   7.234  0.0543 -1.2584 -0.1342
 3428ntf    on518474   3.074   5.321   7.268  0.0498 -1.0412 -0.4023
 3428ntf    on518475   2.923   5.290   7.079 -0.0512  0.0832  0.0353
 3428ntf    on518476   3.212   5.272   6.945 -0.2738 -0.4081 -0.1857
 3428ntf    on518477   3.326   5.487   6.955 -0.1092  0.1792  0.3492
 3428ntf    fn418478   3.068   5.611   6.840  0.4762 -0.2120  0.2304
 3428ntf    fn418479   3.185   5.482   6.707  0.2912 -0.1860 -0.1589
 3428ntf    fn418480   3.002   5.414   6.797  0.1666 -0.0397 -0.2505
 3429ntf    cn118481   5.727   2.139   1.980 -0.2196 -0.1318  0.0553
 3429ntf    sn218482   5.900   2.100   1.943 -0.1523  0.0495  0.1760
 3429ntf    nn318483   5.961   2.126   2.086 -0.0466 -0.3644  0.2057
 3429ntf    sn218484   6.090   2.073   2.158  0.0887 -0.1729  0.1044
 3429ntf    cn118485   6.218   2.178   2.083  0.0990 -0.3365 -0.1077
 3429ntf    fn418486   5.683   2.090   2.095  0.0913 -0.1764  0.1544
 3429ntf    fn418487   5.719   2.271   1.989  0.5009 -0.1077  0.4173
 3429ntf    fn418488   5.653   2.109   1.875 -0.1123  0.6845 -0.2615
 3429ntf    on518489   5.885   1.961   1.909  0.0749  0.2854 -0.9385
 3429ntf    on518490   5.935   2.192   1.837  0.3133  0.1633  0.4246
 3429ntf    on518491   6.126   1.942   2.110  0.3263 -0.0911  0.0573
 3429ntf    on518492   6.094   2.102   2.300 -0.0073  0.7041 -0.0622
 3429ntf    fn418493   6.262   2.143   1.963  0.0960  0.1094 -0.2421
 3429ntf    fn418494   6.188   2.307   2.078  0.6166 -0.2199 -0.2810
 3429ntf    fn418495   6.326   2.173   2.158  0.3096  0.4525 -0.3473
 3430ntf    cn118496   0.667   0.429   4.956 -0.0011 -0.2181  0.0172
 3430ntf    sn218497   0.540   0.497   4.845  0.0152 -0.2480 -0.0202
 3430ntf    nn318498   0.473   0.363   4.799  0.1861 -0.3074 -0.0994
 3430ntf    sn218499   0.400   0.338   4.662 -0.0435  0.3331 -0.0992
 3430ntf    cn118500   0.544   0.263   4.581  0.0296 -0.3219  0.6245
 3430ntf    fn418501   0.615   0.359   5.056 -0.3016  0.4427  0.3250
 3430ntf    fn418502   0.741   0.344   4.887 -0.7901 -0.1365 -0.9544
 3430ntf    fn418503   0.750   0.520   5.003 -0.0248 -0.0799 -0.2051
 3430ntf    on518504   0.459   0.582   4.928 -0.3102 -0.4832 -0.0952
 3430ntf    on518505   0.630   0.563   4.752 -0.6117  0.5528 -0.0711
 3430ntf    on518506   0.369   0.451   4.578  0.8105  0.2732 -0.5036
 3430ntf    on518507   0.302   0.233   4.675  0.0231  0.3347  0.4588
 3430ntf    fn418508   0.642   0.349   4.560 -0.0316 -0.4536 -0.2608
 3430ntf    fn418509   0.596   0.165   4.653  0.1157 -0.8268 -0.1081
 3430ntf    fn418510   0.514   0.212   4.462  0.2796 -0.0067  0.4264
 3431ntf    cn118511   2.309   6.101   6.949  0.1757  0.0851  0.0965
 3431ntf    sn218512   2.211   6.236   6.877 -0.0010 -0.2283 -0.2628
 3431ntf    nn318513   2.251   6.356   6.971  0.1485 -0.1580 -0.4166
 3431ntf    sn218514   2.246   6.510   6.939 -0.1862 -0.0589  0.1072
 3431ntf    cn118515   2.134   6.557   7.074  0.2097  0.1817  0.3570
 3431ntf    fn418516   2.438   6.120   6.927  0.1644  0.0536  0.0005
 3431ntf    fn418517   2.287   6.098   7.079 -0.0569  0.5258  0.0700
 3431ntf    fn418518   2.280   5.977   6.912 -0.1773  0.1057  0.2927
 3431ntf    on518519   2.260   6.246   6.742 -0.1585  0.4886 -0.2743
 3431ntf    on518520   2.077   6.184   6.884  0.0166 -0.2621 -0.1787
 3431ntf    on518521   2.181   6.556   6.819  0.0791 -0.0709 -0.0418
 3431ntf    on518522   2.363   6.579   6.987  0.2683 -0.3445 -0.5771
 3431ntf    fn418523   2.174   6.529   7.196  0.1320  0.1527  0.3759
 3431ntf    fn418524   2.113   6.687   7.085  0.6761  0.2838  0.0754
 3431ntf    fn418525   2.013   6.511   7.045  0.4313  0.2693 -0.7539
 3432ntf    cn118526   7.131   5.471   0.180 -0.2487  0.4638 -0.4663
 3432ntf    sn218527   7.263   5.528   0.291  0.0070 -0.2562 -0.3942
 3432ntf    nn318528   7.201   5.556   0.433  0.5368 -1.1348  0.0211
 3432ntf    sn218529   7.249   5.539   0.581  0.1996 -0.3310  0.2300
 3432ntf    cn118530   7.164   5.671   0.672 -0.0841 -0.0410 -0.4462
 3432ntf    fn418531   7.066   5.361   0.213  0.4718  0.1880  0.0737
 3432ntf    fn418532   7.035   5.560   0.165 -0.6605  0.0597 -0.2410
 3432ntf    fn418533   7.177   5.435   0.061 -0.4879  0.3314 -0.5191
 3432ntf    on518534   7.358   5.419   0.291  0.3280  0.0186  0.0954
 3432ntf    on518535   7.308   5.646   0.221 -0.1087  0.0717  0.0730
 3432ntf    on518536   7.391   5.563   0.593  0.0915  0.3215  0.1989
 3432ntf    on518537   7.197   5.413   0.629 -0.0285 -0.4642 -0.3553
 3432ntf    fn418538   7.167   5.647   0.802 -0.0658  0.5428 -0.3340
 3432ntf    fn418539   7.209   5.794   0.650 -0.0995  0.2402  0.9951
 3432ntf    fn418540   7.035   5.662   0.645 -0.1652 -0.3179  0.0127
 3433ntf    cn118541   3.405   3.790   3.708  0.4408 -0.0258 -0.1792
 3433ntf    sn218542   3.408   3.858   3.539 -0.1045  0.1364 -0.1256
 3433ntf    nn318543   3.337   3.741   3.463  0.1736 -0.2878  0.2578
 3433ntf    sn218544   3.410   3.608   3.423 -0.0419 -0.3822  0.1723
 3433ntf    cn118545   3.485   3.670   3.269 -0.0502  0.2649  0.4242
 3433ntf    fn418546   3.522   3.767   3.765  0.1584 -0.1745  0.3459
 3433ntf    fn418547   3.336   3.866   3.791  0.2062  0.0548 -0.4473
 3433ntf    fn418548   3.337   3.677   3.690  0.3943 -0.0613  0.2252
 3433ntf    on518549   3.319   3.970   3.554 -0.6232 -0.2776 -0.0937
 3433ntf    on518550   3.550   3.875   3.518 -0.0547  0.0121  0.1037
 3433ntf    on518551   3.316   3.508   3.379 -0.7296  0.3438 -0.0288
 3433ntf    on518552   3.524   3.563   3.500  0.5036  0.2341 -0.2584
 3433ntf    fn418553   3.414   3.632   3.164 -0.4153 -0.0291  0.7772
 3433ntf    fn418554   3.486   3.802   3.266 -0.5281  0.2556 -0.3601
 3433ntf    fn418555   3.609   3.624   3.257 -0.1975  0.0364 -0.2938
 3434ntf    cn118556   0.790   2.829   6.945  0.0484 -0.0875  0.1192
 3434ntf    sn218557   0.647   2.897   6.855 -0.0556 -0.2173  0.1865
 3434ntf    nn318558   0.705   2.961   6.724  0.2571  0.6246  0.7329
 3434ntf    sn218559   0.698   3.101   6.653 -0.0268  0.1817 -0.1282
 3434ntf    cn118560   0.877   3.108   6.624 -0.0357  0.6134 -0.0927
 3434ntf    fn418561   0.763   2.734   7.033  0.5387 -0.2103  0.1380
 3434ntf    fn418562   0.871   2.770   6.859 -0.4286 -0.6927  0.0791
 3434ntf    fn418563   0.855   2.923   7.012 -0.0115 -0.1642  0.2837
 3434ntf    on518564   0.570   2.779   6.823 -0.0963 -0.0958 -0.1755
 3434ntf    on518565   0.589   2.984   6.954  0.1095 -0.0714  0.1546
 3434ntf    on518566   0.667   3.212   6.741 -0.2240 -0.2561  0.3580
 3434ntf    on518567   0.642   3.098   6.520 -0.0447  0.2682 -0.1229
 3434ntf    fn418568   0.952   3.154   6.722  0.4398 -0.0578 -0.1374
 3434ntf    fn418569   0.933   2.992   6.594 -0.0420  0.5397  0.1820
 3434ntf    fn418570   0.901   3.185   6.518  0.2628 -0.1588 -0.5975
 3435ntf    cn118571   3.715   0.519   3.688  0.5734 -0.1120 -0.0259
 3435ntf    sn218572   3.660   0.386   3.578  0.1331  0.0005  0.0582
 3435ntf    nn318573   3.548   0.316   3.663  0.2710 -0.1260  0.1355
 3435ntf    sn218574   3.577   0.207   3.771  0.0320 -0.1782  0.1477
 3435ntf    cn118575   3.554   0.052   3.679 -0.1005  0.0239 -0.1574
 3435ntf    fn418576   3.762   0.466   3.800  0.0113 -0.1690  0.1855
 3435ntf    fn418577   3.812   0.589   3.632 -0.0752  0.1171 -0.8816
 3435ntf    fn418578   3.620   0.603   3.725  0.4119 -0.3129  0.0176
 3435ntf    on518579   3.614   0.458   3.461  0.2541 -0.1167 -0.0612
 3435ntf    on518580   3.771   0.296   3.558 -0.5780 -0.8806 -0.0074
 3435ntf    on518581   3.461   0.206   3.857 -0.1884 -0.0088 -0.1465
 3435ntf    on518582   3.710   0.197   3.827  0.3351 -0.1555 -0.5609
 3435ntf    fn418583   3.571  -0.059   3.748 -0.1011  0.2869  0.2674
 3435ntf    fn418584   3.426   0.058   3.644 -0.2959 -0.0095  0.5398
 3435ntf    fn418585   3.620   0.046   3.564  0.1299 -0.3970 -0.0036
 3436ntf    cn118586   2.720   6.212   4.938  0.1460  0.1385 -0.6443
 3436ntf    sn218587   2.590   6.338   4.929 -0.0123 -0.0175 -0.5319
 3436ntf    nn318588   2.492   6.291   5.043  0.3027  0.0655 -0.2266
 3436ntf    sn218589   2.336   6.303   5.049  0.3086 -0.0000  0.0638
 3436ntf    cn118590   2.326   6.462   5.137 -0.4043 -0.0334  0.0486
 3436ntf    fn418591   2.740   6.169   4.814 -0.7875 -0.4481 -0.6029
 3436ntf    fn418592   2.838   6.239   4.993 -0.1690 -0.0339  0.1236
 3436ntf    fn418593   2.675   6.101   4.996 -0.0616  0.4830 -0.1440
 3436ntf    on518594   2.639   6.465   4.974  0.0664 -0.4726  0.7052
 3436ntf    on518595   2.535   6.342   4.796  0.2854 -0.5207 -0.6741
 3436ntf    on518596   2.275   6.209   5.140 -0.2266  0.5646  0.2988
 3436ntf    on518597   2.274   6.321   4.920  1.4572  0.0260 -0.4985
 3436ntf    fn418598   2.202   6.483   5.176 -0.4922 -0.7570  0.1762
 3436ntf    fn418599   2.404   6.459   5.244  0.1560 -0.0598 -0.3535
 3436ntf    fn418600   2.369   6.561   5.060  0.1679 -0.0184  0.3828
 3437ntf    cn118601   2.722   6.340   6.895 -0.0439 -0.7458 -0.3917
 3437ntf    sn218602   2.830   6.224   6.807  0.4252 -0.1771 -0.5700
 3437ntf    nn318603   2.797   6.089   6.880 -0.4756  0.4992  0.2968
 3437ntf    sn218604   2.859   6.016   7.004  0.3282  0.2085 -0.2707
 3437ntf    cn118605   2.978   5.906   6.921  0.1335 -0.0345 -0.2296
 3437ntf    fn418606   2.592   6.325   6.871 -0.2765 -0.0832  0.4074
 3437ntf    fn418607   2.727   6.326   7.027 -0.5155 -0.0953 -0.2978
 3437ntf    fn418608   2.747   6.465   6.861  0.1695 -0.7363 -0.2004
 3437ntf    on518609   2.778   6.227   6.672  0.1623  0.1362 -0.4613
 3437ntf    on518610   2.958   6.288   6.821  0.2278 -0.0062  0.5009
 3437ntf    on518611   2.770   5.923   7.067 -0.2924  0.4005 -0.8513
 3437ntf    on518612   2.946   6.096   7.087  0.5378 -0.5559  0.2638
 3437ntf    fn418613   2.923   5.832   6.827  0.0084 -0.7041  0.3619
 3437ntf    fn418614   3.082   5.970   6.869  0.1460  0.2440  0.1273
 3437ntf    fn418615   3.033   5.823   7.009 -0.4624 -0.3053 -0.1085
 3438ntf    cn118616   1.481   0.860   4.270  0.1840 -0.0554 -0.4299
 3438ntf    sn218617   1.442   0.691   4.327 -0.5903  0.1935 -0.2124
 3438ntf    nn318618   1.371   0.631   4.200 -0.2677  0.3836 -0.4833
 3438ntf    sn218619   1.415   0.525   4.093  0.3573  0.2112 -0.0605
 3438ntf    cn118620   1.363   0.370   4.173  0.4073  0.3853  0.3133
 3438ntf    fn418621   1.367   0.926   4.254  0.2046  0.0531 -0.1384
 3438ntf    fn418622   1.552   0.933   4.354 -0.0890  1.0791 -1.1779
 3438ntf    fn418623   1.555   0.855   4.161  0.3192 -0.2440 -0.3310
 3438ntf    on518624   1.575   0.639   4.345 -0.3859  0.5447 -0.6668
 3438ntf    on518625   1.361   0.703   4.446  0.2667  0.2738  0.3728
 3438ntf    on518626   1.557   0.499   4.078  0.2410 -0.4732 -0.0417
 3438ntf    on518627   1.334   0.530   3.974 -0.2538 -0.4434  0.3214
 3438ntf    fn418628   1.378   0.260   4.100 -0.1899  0.5185 -0.0153
 3438ntf    fn418629   1.431   0.345   4.284  0.0550 -0.2627  0.3930
 3438ntf    fn418630   1.235   0.367   4.207  0.3655  0.9411  0.2074
 3439ntf    cn118631   1.677   1.111   3.295  0.0888  0.4130 -0.2002
 3439ntf    sn218632   1.758   1.118   3.458  0.1874  0.1308 -0.2360
 3439ntf    nn318633   1.663   1.228   3.517 -0.2182 -0.2387 -0.2040
 3439ntf    sn218634   1.569   1.220   3.643  0.0578 -0.1343  0.0084
 3439ntf    cn118635   1.587   1.385   3.716  0.2112  0.0533 -0.4444
 3439ntf    fn418636   1.739   1.025   3.216 -0.4486 -0.3529  0.1963
 3439ntf    fn418637   1.551   1.070   3.303  0.1440  0.2221 -0.3148
 3439ntf    fn418638   1.669   1.226   3.232 -0.1881  0.2506 -0.4660
 3439ntf    on518639   1.742   0.983   3.505  0.0829  0.3255  0.2870
 3439ntf    on518640   1.889   1.171   3.427  0.4998  0.2783  1.2950
 3439ntf    on518641   1.615   1.133   3.748 -0.4428 -0.0398  0.3037
 3439ntf    on518642   1.430   1.200   3.611 -0.0262 -0.3159  0.4795
 3439ntf    fn418643   1.522   1.388   3.832  0.5879  0.3812 -0.2368
 3439ntf    fn418644   1.714   1.403   3.749 -0.0786  0.0609  0.7259
 3439ntf    fn418645   1.545   1.478   3.633 -0.0080  0.4597  0.1131
 3440ntf    cn118646   4.451   2.611   2.697  0.4189  0.1426 -0.1913
 3440ntf    sn218647   4.548   2.498   2.593  0.0905 -0.3463  0.0268
 3440ntf    nn318648   4.626   2.418   2.703  0.2734  0.0072  0.1563
 3440ntf    sn218649   4.773   2.454   2.746  0.1762 -0.0963  0.5820
 3440ntf    cn118650   4.751   2.421   2.924  0.0846  0.0284  0.5940
 3440ntf    fn418651   4.366   2.542   2.772  0.9436 -0.0203  0.2551
 3440ntf    fn418652   4.525   2.685   2.777 -0.3961  0.5801  0.1697
 3440ntf    fn418653   4.376   2.693   2.625  0.2632 -0.1267 -0.3386
 3440ntf    on518654   4.442   2.414   2.543 -0.4051 -0.1876  0.8009
 3440ntf    on518655   4.623   2.578   2.499  0.5266 -0.4519  0.2834
 3440ntf    on518656   4.803   2.595   2.749 -0.0977 -0.0387  0.6481
 3440ntf    on518657   4.876   2.365   2.698  0.1575  0.1174  0.1391
 3440ntf    fn418658   4.771   2.296   2.960 -0.0404 -0.1503  0.0591
 3440ntf    fn418659   4.841   2.480   3.000  0.3227  0.6448 -0.1484
 3440ntf    fn418660   4.633   2.457   2.972  0.1126  0.4076  0.3873
 3441ntf    cn118661   4.067   4.808   5.187  0.1194  0.4023  0.5632
 3441ntf    sn218662   4.169   4.949   5.136  0.2158  0.1297 -0.0144
 3441ntf    nn318663   4.276   4.874   5.049  0.1702 -0.4073  0.3857
 3441ntf    sn218664   4.248   4.803   4.911 -0.2973  0.1832  0.1739
 3441ntf    cn118665   4.318   4.926   4.796 -0.4171 -0.2247 -0.3346
 3441ntf    fn418666   3.945   4.843   5.225  0.0540  0.3307  0.4251
 3441ntf    fn418667   4.043   4.720   5.091  0.0028  0.3588  0.6323
 3441ntf    fn418668   4.127   4.735   5.279 -0.4153 -0.2157  0.4321
 3441ntf    on518669   4.083   5.030   5.055  0.2021 -0.7811 -0.9276
 3441ntf    on518670   4.236   4.997   5.255 -0.3125  0.5505  0.1139
 3441ntf    on518671   4.111   4.789   4.869 -0.2964  0.5024  0.0545
 3441ntf    on518672   4.336   4.690   4.895 -0.5634 -0.0102  0.0636
 3441ntf    fn418673   4.450   4.934   4.802 -0.4630  0.1133  0.2627
 3441ntf    fn418674   4.282   4.906   4.670 -0.1477 -0.4437 -0.3795
 3441ntf    fn418675   4.267   5.044   4.828  0.1442 -0.0704 -0.0012
 3442ntf    cn118676   6.468   5.318   0.484 -0.0380 -0.0763  0.1329
 3442ntf    sn218677   6.442   5.250   0.317 -0.0978  0.3066 -0.0163
 3442ntf    nn318678   6.514   5.111   0.328  0.3655  0.5564  0.1471
 3442ntf    sn218679   6.575   5.012   0.222  0.0041  0.3467  0.1309
 3442ntf    cn118680   6.746   5.074   0.213 -0.0474  0.4311 -0.3141
 3442ntf    fn418681   6.422   5.442   0.492 -0.0736 -0.1190  0.6158
 3442ntf    fn418682   6.407   5.256   0.583 -0.5199  0.4392  0.1625
 3442ntf    fn418683   6.597   5.320   0.513 -0.0722  0.4379  0.2606
 3442ntf    on518684   6.299   5.234   0.302 -0.1821  0.6756  0.3778
 3442ntf    on518685   6.510   5.338   0.226  0.1838 -0.0694 -0.1715
 3442ntf    on518686   6.517   5.026   0.091  0.3893  0.3668 -0.0383
 3442ntf    on518687   6.572   4.884   0.288  0.9773  0.1297 -0.2260
 3442ntf    fn418688   6.835   4.997   0.153  0.1154  0.2620  0.1353
 3442ntf    fn418689   6.757   5.184   0.142  0.7719  0.0232 -0.8352
 3442ntf    fn418690   6.799   5.096   0.333 -0.0009 -0.3435 -0.1856
 3443ntf    cn118691   2.760   2.046   3.487  0.3205  0.0993  0.0074
 3443ntf    sn218692   2.919   2.080   3.406  0.2474  0.3159 -0.0442
 3443ntf    nn318693   3.007   2.138   3.522  0.2640  0.2224 -0.0105
 3443ntf    sn218694   3.125   2.073   3.602 -0.0439 -0.0367  0.2358
 3443ntf    cn118695   3.037   1.985   3.734 -0.2771 -0.1224  0.0233
 3443ntf    fn418696   2.716   2.144   3.564  0.4588 -0.0299  0.2528
 3443ntf    fn418697   2.662   2.002   3.410  0.3326 -0.1852  0.1530
 3443ntf    fn418698   2.769   1.945   3.573  0.0081 -0.2661 -0.3905
 3443ntf    on518699   2.962   1.950   3.361  0.6494  0.5741 -0.4230
 3443ntf    on518700   2.885   2.179   3.306 -0.0642  0.3457  0.0902
 3443ntf    on518701   3.209   2.164   3.677  0.2943 -0.1704  0.0231
 3443ntf    on518702   3.193   1.965   3.536 -0.2525  0.3415 -0.6030
 3443ntf    fn418703   2.906   1.976   3.722 -0.2737  0.2796 -0.2924
 3443ntf    fn418704   3.090   1.864   3.745  0.0406  0.0518  0.4860
 3443ntf    fn418705   3.042   2.037   3.856 -0.7714 -0.5936  0.2546
 3444ntf    cn118706   1.588   6.410   1.450  0.3645 -0.0501 -0.1491
 3444ntf    sn218707   1.518   6.250   1.398  0.3358 -0.0203 -0.2040
 3444ntf    nn318708   1.631   6.156   1.455  0.7259  0.3668 -0.3266
 3444ntf    sn218709   1.624   6.019   1.531 -0.6377  0.3999 -0.3671
 3444ntf    cn118710   1.726   6.057   1.676  0.0708  0.1325 -0.7940
 3444ntf    fn418711   1.504   6.507   1.414  0.2629 -0.2916 -0.5681
 3444ntf    fn418712   1.605   6.424   1.580 -0.1352 -0.1133 -0.0738
 3444ntf    fn418713   1.703   6.434   1.390  0.1378  0.1020 -0.5301
 3444ntf    on518714   1.388   6.241   1.460  0.4084  0.0598 -0.0388
 3444ntf    on518715   1.532   6.253   1.255 -0.7138  0.2707 -0.3073
 3444ntf    on518716   1.703   5.917   1.468 -0.3949 -0.0238  0.6042
 3444ntf    on518717   1.497   5.982   1.590  0.1785 -0.5944  0.7994
 3444ntf    fn418718   1.709   5.958   1.762  0.1317  0.6715 -0.1531
 3444ntf    fn418719   1.855   6.057   1.646  0.3101 -0.1059  0.1873
 3444ntf    fn418720   1.710   6.175   1.734  0.3703 -0.4668  0.5584
 3445ntf    cn118721   4.655   0.019   3.026 -0.1545 -0.3239 -0.4959
 3445ntf    sn218722   4.522   0.143   3.021  0.2196  0.0876 -0.2993
 3445ntf    nn318723   4.600   0.273   3.063  0.6959 -0.3564  0.2098
 3445ntf    sn218724   4.557   0.366   3.182 -0.1282  0.0588 -0.3989
 3445ntf    cn118725   4.428   0.458   3.094 -0.2831  0.0259 -0.2063
 3445ntf    fn418726   4.615  -0.106   3.043 -0.3623 -0.1384  0.4507
 3445ntf    fn418727   4.733   0.029   2.920 -0.0160  0.1408 -0.3553
 3445ntf    fn418728   4.734   0.041   3.131 -0.2881 -0.2543 -0.4095
 3445ntf    on518729   4.489   0.124   2.882 -0.0561  0.0731 -0.2309
 3445ntf    on518730   4.432   0.089   3.119 -0.4321  0.1714 -0.8453
 3445ntf    on518731   4.657   0.467   3.206  0.4386 -0.5880  0.0312
 3445ntf    on518732   4.500   0.302   3.298  0.5284 -0.3613 -0.3039
 3445ntf    fn418733   4.474   0.522   2.987  0.1971  0.0113 -0.0105
 3445ntf    fn418734   4.332   0.381   3.043  0.2712 -0.3463 -0.7016
 3445ntf    fn418735   4.362   0.548   3.165  0.4529  0.0871  0.4131
 3446ntf    cn118736   0.768   0.791   6.844  0.1764 -0.2091 -0.0709
 3446ntf    sn218737   0.870   0.646   6.884  0.1276 -0.3674 -0.5051
 3446ntf    nn318738   0.902   0.679   7.034 -0.5164 -0.1500 -0.4117
 3446ntf    sn218739   0.838   0.602   7.155 -0.0636 -0.0105 -0.0814
 3446ntf    cn118740   0.852   0.734   7.279 -0.5716 -0.1583  0.1351
 3446ntf    fn418741   0.653   0.799   6.909  0.3583 -0.6706  0.3127
 3446ntf    fn418742   0.836   0.896   6.885 -0.5998  0.1531  0.3126
 3446ntf    fn418743   0.751   0.797   6.712  0.0610 -0.3088 -0.0613
 3446ntf    on518744   0.789   0.528   6.862 -0.0054 -0.3384 -0.1806
 3446ntf    on518745   0.978   0.665   6.791 -0.0081  0.0713 -0.5754
 3446ntf    on518746   0.916   0.493   7.209  0.2222  0.0589 -0.3504
 3446ntf    on518747   0.697   0.580   7.138 -0.0549 -0.0407 -0.1135
 3446ntf    fn418748   0.811   0.700   7.400 -0.1642 -0.2117  0.2577
 3446ntf    fn418749   0.978   0.774   7.285 -0.5023 -0.3825  0.1728
 3446ntf    fn418750   0.779   0.838   7.241 -1.0512 -0.5975 -0.1533
 3447ntf    cn118751   2.886   7.191   3.162  0.1712 -0.2466 -0.1671
 3447ntf    sn218752   3.049   7.130   3.109  0.2861 -0.0375 -0.0529
 3447ntf    nn318753   3.053   6.993   3.186  0.0513  0.1328  0.2695
 3447ntf    sn218754   3.129   6.860   3.154 -0.0048  0.2001 -0.1468
 3447ntf    cn118755   3.273   6.898   3.257 -0.0537  0.2916 -0.1126
 3447ntf    fn418756   2.791   7.136   3.088 -0.3570 -0.3318  0.5575
 3447ntf    fn418757   2.854   7.160   3.287 -0.5831  0.1961 -0.2390
 3447ntf    fn418758   2.868   7.322   3.149 -0.1085 -0.2224  0.4037
 3447ntf    on518759   3.043   7.119   2.966  0.0373  0.4243 -0.0809
 3447ntf    on518760   3.144   7.226   3.159  0.1507  0.0364  0.0652
 3447ntf    on518761   3.185   6.840   3.022  0.6542  0.4255  0.0985
 3447ntf    on518762   3.058   6.747   3.209  0.3357 -0.2653 -0.6507
 3447ntf    fn418763   3.341   7.004   3.217 -0.0818  0.3768  0.0622
 3447ntf    fn418764   3.238   6.914   3.384  0.3238 -0.0749  0.0408
 3447ntf    fn418765   3.359   6.797   3.256 -0.1619  0.1967  0.0371
 3448ntf    cn118766   1.866   1.887   0.757 -0.0054 -0.0391 -0.5534
 3448ntf    sn218767   1.807   2.049   0.703 -0.1619  0.0188 -0.2115
 3448ntf    nn318768   1.693   2.013   0.601 -0.2337  0.2925 -0.2300
 3448ntf    sn218769   1.689   2.062   0.452 -0.0165  0.0239 -0.3240
 3448ntf    cn118770   1.578   2.203   0.478  0.3607  0.2776 -0.0790
 3448ntf    fn418771   1.925   1.893   0.875  0.3471 -0.0691 -0.7257
 3448ntf    fn418772   1.778   1.789   0.759 -0.1919  0.1326 -0.3267
 3448ntf    fn418773   1.961   1.847   0.673 -0.3583  0.4161 -1.1762
 3448ntf    on518774   1.751   2.101   0.825 -0.0903  0.1868 -0.2501
 3448ntf    on518775   1.924   2.118   0.653 -0.0952 -0.0070 -0.0908
 3448ntf    on518776   1.610   1.975   0.368 -0.1535 -0.1612 -0.0043
 3448ntf    on518777   1.801   2.134   0.397  0.1829 -0.0466 -0.0130
 3448ntf    fn418778   1.614   2.279   0.580 -0.2283  0.2280  0.1680
 3448ntf    fn418779   1.557   2.280   0.372  0.0073  0.0088 -0.2053
 3448ntf    fn418780   1.461   2.150   0.507  0.6619 -0.3132  0.0697
 3449ntf    cn118781   0.889   5.117   0.235  0.2345  0.1323 -0.0755
 3449ntf    sn218782   0.963   4.962   0.292 -0.3011 -0.0829  0.0406
 3449ntf    nn318783   0.995   4.890   0.156  0.1020  0.4325 -0.1420
 3449ntf    sn218784   0.897   4.797   0.076  0.3598 -0.0373  0.0796
 3449ntf    cn118785   0.937   4.634   0.146  0.0029 -0.3400 -0.4060
 3449ntf    fn418786   0.776   5.095   0.170 -0.1435  0.2214  0.5478
 3449ntf    fn418787   0.858   5.197   0.336 -0.2913  0.0581 -0.1777
 3449ntf    fn418788   0.966   5.181   0.148  0.8403 -0.5731 -0.0607
 3449ntf    on518789   1.088   5.006   0.350 -0.2402 -0.0741 -0.0955
 3449ntf    on518790   0.860   4.909   0.378 -0.0041 -0.0803  0.3999
 3449ntf    on518791   0.931   4.783  -0.063 -0.3520  0.3185 -0.1386
 3449ntf    on518792   0.758   4.825   0.106  0.2362 -0.4479 -0.1068
 3449ntf    fn418793   0.881   4.528   0.091  0.3130 -0.4056 -0.5976
 3449ntf    fn418794   1.067   4.609   0.156  0.0039 -0.2207 -0.0803
 3449ntf    fn418795   0.907   4.626   0.275  0.3303 -0.2186 -0.3198
 3450ntf    cn118796   0.991   3.823   2.036 -0.1546 -0.0583  0.1354
 3450ntf    sn218797   1.107   3.767   1.909  0.1171  0.1443  0.2936
 3450ntf    nn318798   1.178   3.653   1.991 -0.2818 -0.1844  0.1813
 3450ntf    sn218799   1.141   3.500   1.993  0.3372 -0.3431 -0.3629
 3450ntf    cn118800   1.257   3.423   1.875  0.1964 -0.0019 -0.7282
 3450ntf    fn418801   0.997   3.749   2.146  0.3338  0.5948  0.5576
 3450ntf    fn418802   1.035   3.944   2.065 -0.4108  0.1672 -0.4143
 3450ntf    fn418803   0.866   3.831   1.992  0.1731 -0.2794 -0.8505
 3450ntf    on518804   1.018   3.730   1.801  0.7304  0.1549 -0.2252
 3450ntf    on518805   1.205   3.872   1.894  0.3934 -0.1823 -0.2559
 3450ntf    on518806   1.007   3.469   1.950  0.2933  0.1262 -0.5702
 3450ntf    on518807   1.187   3.456   2.122  1.0389 -0.6074 -0.6970
 3450ntf    fn418808   1.283   3.297   1.907 -0.5728  0.0057 -0.0581
 3450ntf    fn418809   1.212   3.427   1.751  0.2198  0.1464 -0.7318
 3450ntf    fn418810   1.370   3.491   1.884  0.2680 -0.1919 -0.1207
 3451ntf    cn118811   5.795   5.674   5.929  0.3889  0.1582  0.1508
 3451ntf    sn218812   5.760   5.496   5.923  0.0826  0.2142  0.2908
 3451ntf    nn318813   5.806   5.461   5.778 -0.4401  0.1344  0.1410
 3451ntf    sn218814   5.727   5.386   5.664  0.1769 -0.2148 -0.0624
 3451ntf    cn118815   5.867   5.304   5.582  0.1193 -0.0923 -0.2818
 3451ntf    fn418816   5.923   5.687   5.898  0.3405  0.0409 -0.0952
 3451ntf    fn418817   5.727   5.752   5.847  0.8881  0.2116 -0.2196
 3451ntf    fn418818   5.775   5.723   6.050 -0.1301 -0.9867  0.5368
 3451ntf    on518819   5.841   5.445   6.031 -0.5853 -0.5666  0.4366
 3451ntf    on518820   5.620   5.496   5.959  0.0282  0.0048  0.0758
 3451ntf    on518821   5.667   5.473   5.567 -0.4416 -0.4323  0.1235
 3451ntf    on518822   5.647   5.274   5.707 -1.0066  0.7923  0.4371
 3451ntf    fn418823   5.920   5.389   5.494  0.4505 -0.6149 -0.5894
 3451ntf    fn418824   5.967   5.282   5.664  0.2994 -0.3734 -0.5739
 3451ntf    fn418825   5.849   5.194   5.511  0.6731  0.1087 -0.7498
 3452ntf    cn118826   3.810   1.293   2.492  0.3323  0.1016 -0.0830
 3452ntf    sn218827   3.913   1.148   2.452  0.0756 -0.0611 -0.1601
 3452ntf    nn318828   3.892   1.058   2.579 -0.4672  0.4243  0.1007
 3452ntf    sn218829   3.799   0.933   2.597 -0.2097  0.1536 -0.4192
 3452ntf    cn118830   3.914   0.818   2.677 -0.1569  0.2610 -0.3409
 3452ntf    fn418831   3.816   1.397   2.411 -0.3236 -0.0814 -0.3746
 3452ntf    fn418832   3.681   1.262   2.487  0.2703  0.2855  0.3309
 3452ntf    fn418833   3.828   1.343   2.613  0.2774  0.4686 -0.2251
 3452ntf    on518834   3.856   1.112   2.325  0.3690  0.7276 -0.5242
 3452ntf    on518835   4.049   1.196   2.446 -0.1143  0.5011 -0.0046
 3452ntf    on518836   3.765   0.858   2.479 -0.2250 -0.0633 -0.2767
 3452ntf    on518837   3.692   0.952   2.692 -0.0102  0.6424 -0.2883
 3452ntf    fn418838   3.860   0.698   2.694  0.2715  0.1765  0.4840
 3452ntf    fn418839   4.022   0.799   2.603  0.2762 -0.7364  0.5093
 3452ntf    fn418840   3.952   0.860   2.797  0.2074 -0.2830 -0.2594
 3453ntf    cn118841   0.121   2.952   4.632 -0.3990  0.1388  0.2830
 3453ntf    sn218842   0.199   2.795   4.584 -0.1215  0.3854 -0.0771
 3453ntf    nn318843   0.100   2.750   4.471 -0.3247 -0.1488  0.3099
 3453ntf    sn218844   0.132   2.732   4.318 -0.4112 -0.1563  0.2925
 3453ntf    cn118845  -0.026   2.787   4.247 -0.1530  0.1702 -0.0350
 3453ntf    fn418846   0.137   3.050   4.544 -0.4305 -0.1273 -0.0197
 3453ntf    fn418847  -0.009   2.941   4.654 -0.3859 -0.8323 -0.0834
 3453ntf    fn418848   0.171   2.999   4.745  0.1848 -0.1256  0.1392
 3453ntf    on518849   0.333   2.832   4.546  0.1340  0.2783  0.7119
 3453ntf    on518850   0.181   2.711   4.700  0.8143  0.5164  0.1715
 3453ntf    on518851   0.140   2.595   4.274  0.0164  0.0781 -0.3622
 3453ntf    on518852   0.229   2.822   4.262  0.5045 -0.6008  1.1393
 3453ntf    fn418853  -0.131   2.717   4.289 -0.2949  0.2194 -0.3069
 3453ntf    fn418854  -0.054   2.914   4.266 -0.0046  0.2654 -0.4500
 3453ntf    fn418855  -0.022   2.766   4.116 -0.1448  0.5922 -0.1035
 3454ntf    cn118856   4.486   3.380   1.534  0.5035 -0.3629 -0.0081
 3454ntf    sn218857   4.648   3.381   1.617  0.4509  0.0351  0.0919
 3454ntf    nn318858   4.604   3.319   1.754  0.2784  0.0006  0.0213
 3454ntf    sn218859   4.664   3.366   1.891  0.0401  0.3227  0.0174
 3454ntf    cn118860   4.534   3.471   1.961  0.0981  0.1485  0.3853
 3454ntf    fn418861   4.402   3.460   1.599  0.3639 -0.9378  0.5372
 3454ntf    fn418862   4.477   3.418   1.408  0.5678 -0.0421  0.0838
 3454ntf    fn418863   4.431   3.260   1.546  0.1664 -0.1384  0.8203
 3454ntf    on518864   4.713   3.284   1.532 -0.7664 -0.4899 -0.2643
 3454ntf    on518865   4.692   3.518   1.611  0.5866 -0.0339 -0.5281
 3454ntf    on518866   4.782   3.448   1.877 -0.2786  0.6578 -0.7413
 3454ntf    on518867   4.668   3.258   1.986 -0.3229 -0.4070 -0.7792
 3454ntf    fn418868   4.560   3.600   1.950 -0.0229  0.1605  0.2386
 3454ntf    fn418869   4.412   3.443   1.916  0.1531 -0.2587  0.4819
 3454ntf    fn418870   4.517   3.452   2.091 -0.7254 -0.3640  0.2106
 3455ntf    cn118871   0.043   6.917   3.362  0.0655 -0.1013  0.1136
 3455ntf    sn218872   0.085   6.743   3.394  0.0841 -0.0957  0.1201
 3455ntf    nn318873  -0.057   6.677   3.402  0.0009 -0.0016 -0.5265
 3455ntf    sn218874  -0.155   6.680   3.525  0.1092  0.1822 -0.4455
 3455ntf    cn118875  -0.123   6.518   3.601 -0.2834  0.3880  0.1643
 3455ntf    fn418876  -0.056   6.968   3.434 -0.4139 -0.1690 -0.4834
 3455ntf    fn418877   0.144   7.002   3.371  0.4997 -0.5152 -0.7313
 3455ntf    fn418878  -0.002   6.933   3.238  0.1431  0.2677  0.1309
 3455ntf    on518879   0.159   6.707   3.276 -0.4131 -0.0606 -0.2052
 3455ntf    on518880   0.164   6.731   3.514  0.5574  0.1054 -0.1667
 3455ntf    on518881  -0.292   6.672   3.481 -0.1928  0.5814  0.4002
 3455ntf    on518882  -0.125   6.781   3.623 -0.5368 -0.4210  0.3886
 3455ntf    fn418883  -0.141   6.511   3.731 -0.1094  0.7422  0.2081
 3455ntf    fn418884  -0.192   6.419   3.545 -0.0985  0.5029 -0.2766
 3455ntf    fn418885   0.005   6.482   3.596 -0.2217  0.5832  0.3338
 3456ntf    cn118886   3.792   0.428   2.448  0.4682 -0.2619 -0.0166
 3456ntf    sn218887   3.814   0.500   2.283  0.0062 -0.1971 -0.0526
 3456ntf    nn318888   3.803   0.371   2.195 -0.1514 -0.3065  0.1265
 3456ntf    sn218889   3.917   0.298   2.115  0.2200  0.3868  0.0112
 3456ntf    cn118890   3.933   0.403   1.968  0.6624 -0.0720 -0.2732
 3456ntf    fn418891   3.868   0.324   2.476  0.5182 -0.1628  0.2200
 3456ntf    fn418892   3.806   0.516   2.546  0.4068  0.5014 -0.6800
 3456ntf    fn418893   3.673   0.373   2.465  0.3892 -0.2157 -0.4211
 3456ntf    on518894   3.695   0.580   2.265 -0.1044 -0.1501  0.8409
 3456ntf    on518895   3.943   0.565   2.286  0.0083 -0.2003 -0.0664
 3456ntf    on518896   3.881   0.169   2.061  0.1625  0.3520  0.1319
 3456ntf    on518897   4.046   0.293   2.180 -0.0460 -0.0058  0.5190
 3456ntf    fn418898   3.897   0.524   2.006  0.7149 -0.1170 -0.0809
 3456ntf    fn418899   4.059   0.412   1.930  0.6984 -0.3424 -0.2203
 3456ntf    fn418900   3.868   0.366   1.859 -0.1470 -0.8531  0.4549
 3457ntf    cn118901   3.711   6.349   0.763  0.5963 -0.1916 -0.0166
 3457ntf    sn218902   3.825   6.468   0.686  0.1012  0.1679 -0.1964
 3457ntf    nn318903   3.814   6.583   0.792 -0.3636  0.1075 -0.1743
 3457ntf    sn218904   3.793   6.737   0.775  0.1762  0.2424  0.3504
 3457ntf    cn118905   3.625   6.757   0.841  0.1779  0.2344  0.3572
 3457ntf    fn418906   3.739   6.323   0.890 -0.6518 -0.4636  0.2195
 3457ntf    fn418907   3.589   6.400   0.763  0.5338 -0.3395 -0.0155
 3457ntf    fn418908   3.701   6.238   0.691  0.1996  0.0530 -0.3429
 3457ntf    on518909   3.949   6.394   0.687 -0.1625 -0.3007 -1.0900
 3457ntf    on518910   3.768   6.488   0.555 -0.5531 -0.4037 -0.0053
 3457ntf    on518911   3.784   6.792   0.642 -0.2214  0.1247  0.3288
 3457ntf    on518912   3.871   6.822   0.862 -0.4154  0.3855  0.7463
 3457ntf    fn418913   3.626   6.695   0.958  0.4365 -0.3087  0.0679
 3457ntf    fn418914   3.572   6.876   0.863  0.1777  0.3113 -0.0669
 3457ntf    fn418915   3.535   6.699   0.764 -0.1000  0.6069  0.4019
 3458ntf    cn118916   1.659   2.864   1.099  0.0175 -0.0962 -0.0152
 3458ntf    sn218917   1.736   3.020   1.150  0.0646  0.0320 -0.4726
 3458ntf    nn318918   1.771   2.976   1.297 -0.4472  0.8471 -0.1012
 3458ntf    sn218919   1.832   3.062   1.413  0.6200 -0.4217  0.2944
 3458ntf    cn118920   2.004   3.011   1.444  0.8196  0.0174 -0.0744
 3458ntf    fn418921   1.633   2.869   0.969 -0.5846 -0.7981  0.0701
 3458ntf    fn418922   1.740   2.760   1.116  0.1948  0.0017 -0.2568
 3458ntf    fn418923   1.544   2.843   1.160  0.2070 -0.7105  0.1438
 3458ntf    on518924   1.849   3.029   1.061  0.1092  0.1555 -0.4041
 3458ntf    on518925   1.625   3.111   1.138  0.2347  0.2774 -0.1919
 3458ntf    on518926   1.767   3.025   1.536 -1.0711  0.2096 -0.3875
 3458ntf    on518927   1.843   3.201   1.377 -0.1395 -0.2409  0.7432
 3458ntf    fn418928   2.065   3.093   1.528 -0.2520 -0.0441  0.8006
 3458ntf    fn418929   2.016   2.890   1.497 -0.3622 -0.0919 -0.0183
 3458ntf    fn418930   2.070   3.003   1.330  1.1660 -0.6871  0.1667
 3459ntf    cn118931   2.861   6.876   1.969 -0.0526  0.1409  0.2563
 3459ntf    sn218932   3.030   6.812   1.988  0.0077  0.2275  0.0120
 3459ntf    nn318933   3.125   6.937   2.001 -0.3678  0.5565 -0.3681
 3459ntf    sn218934   3.281   6.945   1.989 -0.3238  0.0631 -0.1413
 3459ntf    cn118935   3.297   7.054   1.845  0.4880 -0.1644 -0.2321
 3459ntf    fn418936   2.849   6.958   1.866  0.2057 -0.3302 -0.1521
 3459ntf    fn418937   2.771   6.779   1.961 -0.1099  0.1637  0.5917
 3459ntf    fn418938   2.833   6.948   2.077 -0.1350  0.1005  0.2616
 3459ntf    on518939   3.031   6.727   2.104  1.0465 -0.1610 -0.2685
 3459ntf    on518940   3.042   6.745   1.861  0.2038  0.0689  0.1128
 3459ntf    on518941   3.356   6.828   1.947 -0.5724 -0.2238  0.2029
 3459ntf    on518942   3.338   7.022   2.097 -0.4191  0.7170 -0.5554
 3459ntf    fn418943   3.230   7.012   1.739  0.0886  0.1564 -0.1140
 3459ntf    fn418944   3.242   7.174   1.853  0.4857 -0.1981  0.3002
 3459ntf    fn418945   3.418   7.079   1.797  0.3132  0.7085 -0.2473
 3460ntf    cn118946   0.110   4.651   3.258  0.2892 -0.2990 -0.0355
 3460ntf    sn218947   0.164   4.593   3.422  0.2664  0.2003  0.1506
 3460ntf    nn318948   0.317   4.577   3.389  0.1250  0.3434 -0.5959
 3460ntf    sn218949   0.430   4.636   3.481 -0.1767  0.5859 -0.3776
 3460ntf    cn118950   0.457   4.803   3.414 -0.4862  0.6341 -0.3843
 3460ntf    fn418951  -0.007   4.711   3.262  0.1417 -0.6055  0.3364
 3460ntf    fn418952   0.199   4.729   3.199 -0.1481  0.0666 -0.2102
 3460ntf    fn418953   0.107   4.546   3.177  0.2539 -0.0728 -0.3286
 3460ntf    on518954   0.141   4.708   3.505 -0.1414  0.2311 -0.0056
 3460ntf    on518955   0.087   4.472   3.436 -0.1702  0.3636 -0.7532
 3460ntf    on518956   0.551   4.569   3.437 -0.3144 -0.0765  0.2320
 3460ntf    on518957   0.410   4.661   3.621 -0.0296 -0.3432 -0.1854
 3460ntf    fn418958   0.535   4.878   3.490 -0.3098  0.5482 -0.4779
 3460ntf    fn418959   0.518   4.792   3.296 -0.7076 -0.6736 -0.3946
 3460ntf    fn418960   0.353   4.881   3.392 -0.7633  0.2848 -0.3355
 3461ntf    cn118961   4.262   0.602   6.423  0.2206 -0.4881  0.1143
 3461ntf    sn218962   4.208   0.686   6.271  0.2568 -0.1903  0.2640
 3461ntf    nn318963   4.309   0.806   6.268 -0.0138  0.0373  0.1423
 3461ntf    sn218964   4.411   0.851   6.158 -0.1650  0.2377  0.0836
 3461ntf    cn118965   4.399   1.028   6.196 -0.1359  0.2794 -0.1021
 3461ntf    fn418966   4.382   0.550   6.404  0.4963  0.2308 -0.1406
 3461ntf    fn418967   4.267   0.685   6.526 -0.1637 -0.3299  0.0056
 3461ntf    fn418968   4.189   0.497   6.458 -0.2195 -0.3313 -0.3214
 3461ntf    on518969   4.225   0.592   6.163  0.4320 -0.2417  0.3355
 3461ntf    on518970   4.072   0.728   6.294  0.3539  0.0081  0.4758
 3461ntf    on518971   4.377   0.846   6.018 -0.2261  0.0732  0.1052
 3461ntf    on518972   4.547   0.814   6.187 -0.1489 -0.0166 -0.3123
 3461ntf    fn418973   4.426   1.095   6.085  0.1218 -0.1439 -0.2984
 3461ntf    fn418974   4.272   1.049   6.227 -0.2272 -0.0251 -0.2716
 3461ntf    fn418975   4.477   1.077   6.291 -0.3112  0.3466  0.0065
 3462ntf    cn118976   4.812   5.212   0.689 -0.0635 -0.2461  0.0638
 3462ntf    sn218977   4.766   5.047   0.747  0.1277 -0.1851  0.3883
 3462ntf    nn318978   4.904   4.972   0.750  0.4008  0.2980  0.0033
 3462ntf    sn218979   4.947   4.826   0.788 -0.1920  0.0259 -0.3557
 3462ntf    cn118980   4.981   4.852   0.965 -0.2874  0.2074 -0.3640
 3462ntf    fn418981   4.839   5.213   0.559  0.2692 -0.3294  0.1324
 3462ntf    fn418982   4.724   5.309   0.710 -0.5818 -0.6337 -0.2880
 3462ntf    fn418983   4.923   5.263   0.741 -0.0563  0.0843 -0.2678
 3462ntf    on518984   4.705   5.067   0.876  0.0816  0.5354  0.2582
 3462ntf    on518985   4.693   4.988   0.638  0.6284  0.0082 -0.0582
 3462ntf    on518986   5.077   4.790   0.735 -0.2960 -0.2667 -0.4113
 3462ntf    on518987   4.845   4.724   0.788 -0.5590  0.3876  0.3669
 3462ntf    fn418988   5.069   4.762   1.007 -0.7773 -0.1602 -0.1211
 3462ntf    fn418989   5.046   4.965   0.991 -0.3590  0.1719 -0.0319
 3462ntf    fn418990   4.869   4.847   1.035 -0.1497 -0.2672 -0.1723
 3463ntf    cn118991   5.820   1.315   1.313  0.0797  0.5243  0.1426
 3463ntf    sn218992   6.001   1.320   1.301  0.0595 -0.0385 -0.4092
 3463ntf    nn318993   6.019   1.409   1.173  0.1281  0.4071 -0.0893
 3463ntf    sn218994   6.022   1.366   1.022  0.0222 -0.0639  0.0409
 3463ntf    cn118995   6.201   1.362   0.993 -0.0779 -0.4242 -0.5484
 3463ntf    fn418996   5.777   1.231   1.406  0.6678 -0.0659 -0.1097
 3463ntf    fn418997   5.763   1.431   1.338 -0.7794  0.1206  0.1004
 3463ntf    fn418998   5.763   1.269   1.203  0.6533  0.2414 -0.0418
 3463ntf    on518999   6.035   1.390   1.422  0.1373  0.2281 -0.5841
 3463ntf    on519000   6.035   1.180   1.295 -0.7225 -0.2525  0.0989
 3463ntf    on519001   5.981   1.476   0.938 -0.1332 -0.3237 -0.2257
 3463ntf    on519002   5.977   1.238   0.975 -0.0619  0.0026 -0.0613
 3463ntf    fn419003   6.272   1.319   1.096 -0.2180 -0.2077 -0.3607
 3463ntf    fn419004   6.244   1.291   0.890  0.3734  0.0509 -0.6892
 3463ntf    fn419005   6.236   1.489   0.979 -0.5528 -0.1948  0.2341
 3464ntf    cn119006   1.257   2.370   0.126  0.0683 -0.3053 -0.1701
 3464ntf    sn219007   1.293   2.223   0.026 -0.1606 -0.3069 -0.2508
 3464ntf    nn319008   1.447   2.231  -0.005  0.0579 -1.3979  0.5019
 3464ntf    sn219009   1.527   2.209  -0.138 -0.1191 -0.3070  0.2103
 3464ntf    cn119010   1.516   2.354  -0.248 -0.0135 -0.3580  0.1311
 3464ntf    fn419011   1.132   2.361   0.169  0.0879  0.4484  0.0608
 3464ntf    fn419012   1.326   2.381   0.238 -0.0752 -0.7735 -0.0305
 3464ntf    fn419013   1.264   2.486   0.064 -0.0219  0.0997  0.5701
 3464ntf    on519014   1.262   2.110   0.111  0.0054  0.1515  0.4211
 3464ntf    on519015   1.213   2.252  -0.091 -0.2762 -0.4388 -0.2048
 3464ntf    on519016   1.490   2.095  -0.218 -0.2363 -0.1026 -0.0296
 3464ntf    on519017   1.667   2.190  -0.108  0.0443  0.7636  0.1817
 3464ntf    fn419018   1.396   2.410  -0.244 -0.1472 -0.6745  0.8937
 3464ntf    fn419019   1.593   2.458  -0.219  0.0413 -0.2786 -0.3046
 3464ntf    fn419020   1.540   2.330  -0.375  0.3077 -0.3163  0.1829
 3465ntf    cn119021   2.977   4.327   6.251  0.1564  0.3704 -0.3539
 3465ntf    sn219022   3.000   4.312   6.071  0.1842 -0.0631 -0.3166
 3465ntf    nn319023   3.141   4.380   6.057  0.3028 -0.2683 -0.1343
 3465ntf    sn219024   3.168   4.504   5.965 -0.6236  0.0341 -0.0135
 3465ntf    cn119025   3.181   4.415   5.807  0.0932  0.1189 -0.0045
 3465ntf    fn419026   2.964   4.455   6.281  0.4800  0.2363  0.3924
 3465ntf    fn419027   2.861   4.275   6.287  0.2887  0.2175 -0.1392
 3465ntf    fn419028   3.082   4.272   6.311 -0.1037  0.1787 -0.0660
 3465ntf    on519029   3.000   4.168   6.067  0.0257 -0.0833  0.3006
 3465ntf    on519030   2.881   4.374   6.019 -0.2647 -0.1824  0.5406
 3465ntf    on519031   3.297   4.569   5.970 -0.7745  0.3143  0.2738
 3465ntf    on519032   3.052   4.590   5.962  0.0296  0.9478  0.5338
 3465ntf    fn419033   3.257   4.307   5.815 -0.1089 -0.0382 -0.2022
 3465ntf    fn419034   3.062   4.372   5.770  0.3414 -0.4040 -0.2145
 3465ntf    fn419035   3.227   4.484   5.703 -0.6553  1.0930  0.2982
 3466ntf    cn119036   1.834   4.170   3.289 -0.3596 -0.2248  0.4324
 3466ntf    sn219037   1.850   4.176   3.470 -0.3258 -0.0926  0.4246
 3466ntf    nn319038   1.707   4.139   3.522 -0.9174  0.4918 -0.7614
 3466ntf    sn219039   1.622   4.179   3.648  0.0072 -0.1554  0.0823
 3466ntf    cn119040   1.636   4.024   3.742 -0.0580 -0.1175  0.1542
 3466ntf    fn419041   1.758   4.273   3.255  0.2754  0.1586  0.1542
 3466ntf    fn419042   1.951   4.190   3.231 -0.7404 -0.3011 -0.3670
 3466ntf    fn419043   1.777   4.060   3.243 -0.3279  0.2603 -0.7853
 3466ntf    on519044   1.964   4.092   3.496 -0.1066 -0.0190 -0.2831
 3466ntf    on519045   1.874   4.316   3.495  0.1616 -0.0526 -0.2285
 3466ntf    on519046   1.479   4.190   3.630  0.0719 -0.2221 -0.5158
 3466ntf    on519047   1.685   4.272   3.738  0.3470  0.2840 -0.5937
 3466ntf    fn419048   1.569   3.920   3.695 -0.3871  0.1076  0.1209
 3466ntf    fn419049   1.757   3.973   3.742 -0.0067  0.0030  0.6701
 3466ntf    fn419050   1.601   4.044   3.868  0.1860 -0.6373  0.3063
 3467ntf    cn119051   5.478   0.960   1.595  0.0232 -0.0967  0.1168
 3467ntf    sn219052   5.370   1.104   1.622  0.0888 -0.0892  0.3385
 3467ntf    nn319053   5.338   1.144   1.474  0.3339 -0.7130  0.1143
 3467ntf    sn219054   5.222   1.087   1.386  0.0403  0.0786 -0.0170
 3467ntf    cn119055   5.118   1.235   1.364  0.1953  0.1770 -0.0902
 3467ntf    fn419056   5.600   1.002   1.566 -0.0170 -0.1405 -0.1148
 3467ntf    fn419057   5.502   0.895   1.708 -0.3540 -0.6519 -0.1167
 3467ntf    fn419058   5.424   0.877   1.507 -0.5895 -0.1979  0.5848
 3467ntf    on519059   5.263   1.054   1.704 -0.2960 -0.1132 -0.1790
 3467ntf    on519060   5.455   1.209   1.672 -0.1706  0.4022 -0.2466
 3467ntf    on519061   5.116   1.006   1.443 -0.0968 -0.1242 -0.5488
 3467ntf    on519062   5.275   1.049   1.257 -0.7130  0.0372 -0.3205
 3467ntf    fn419063   5.180   1.332   1.299 -0.2935  0.3967 -0.2266
 3467ntf    fn419064   5.012   1.217   1.287  0.2556 -0.3732 -0.0511
 3467ntf    fn419065   5.085   1.291   1.479 -0.3835  0.6833 -0.4957
 3468ntf    cn119066   5.358   2.080   5.621 -0.2151  0.1772  0.4975
 3468ntf    sn219067   5.338   2.244   5.546 -0.2387 -0.0885 -0.0841
 3468ntf    nn319068   5.324   2.341   5.669  0.4722 -0.0097 -0.0609
 3468ntf    sn219069   5.437   2.407   5.755  0.4010  0.2136 -0.1371
 3468ntf    cn119070   5.429   2.575   5.687  0.1092  0.2295 -0.0638
 3468ntf    fn419071   5.400   1.994   5.530  0.7279  1.1129  0.0285
 3468ntf    fn419072   5.454   2.079   5.712  0.4319 -0.7340 -0.1790
 3468ntf    fn419073   5.255   2.010   5.667 -0.3304 -0.0217 -0.0525
 3468ntf    on519074   5.443   2.261   5.450  0.0789  0.7719  0.4075
 3468ntf    on519075   5.210   2.246   5.480  0.0373  0.5135 -0.6066
 3468ntf    on519076   5.571   2.364   5.721  0.4218 -0.0133  0.2200
 3468ntf    on519077   5.395   2.429   5.891  0.1213 -0.5713 -0.0919
 3468ntf    fn419078   5.306   2.623   5.678 -0.0910 -0.2493  0.1016
 3468ntf    fn419079   5.492   2.661   5.765  0.4421  0.3238 -0.4347
 3468ntf    fn419080   5.485   2.582   5.567  0.8775  0.4444  0.3029
 3469ntf    cn119081   4.072   1.436   3.831 -0.1123  0.1357 -0.0842
 3469ntf    sn219082   3.967   1.507   3.961 -0.2446 -0.2906  0.0449
 3469ntf    nn319083   3.881   1.604   3.872  0.7577  0.6839  0.1113
 3469ntf    sn219084   3.779   1.717   3.910 -0.1516 -0.0956  0.0379
 3469ntf    cn119085   3.635   1.637   3.834  0.0483 -0.1258 -0.3102
 3469ntf    fn419086   4.153   1.519   3.768  0.2520 -0.0258  0.1657
 3469ntf    fn419087   4.160   1.350   3.881  0.1553  0.3328 -0.2126
 3469ntf    fn419088   4.001   1.369   3.741 -0.0235  0.0466 -0.0892
 3469ntf    on519089   3.892   1.395   4.011  0.0910 -0.5569 -0.0391
 3469ntf    on519090   4.051   1.574   4.057 -0.7590 -0.8876  0.9226
 3469ntf    on519091   3.794   1.840   3.837  0.2382  0.0219  0.3094
 3469ntf    on519092   3.744   1.721   4.050 -0.1371  0.6234  0.0279
 3469ntf    fn419093   3.647   1.606   3.706  0.0810  0.1794 -0.3820
 3469ntf    fn419094   3.611   1.525   3.901  0.7752 -0.3074 -0.3360
 3469ntf    fn419095   3.524   1.708   3.837 -0.0713 -0.3407  0.7490
 3470ntf    cn119096   2.809   5.071   4.533  0.1418 -0.2452 -0.1559
 3470ntf    sn219097   2.827   4.894   4.497 -0.3466 -0.3088 -0.0974
 3470ntf    nn319098   2.976   4.862   4.536 -0.0456  1.2072  0.0697
 3470ntf    sn219099   3.012   4.810   4.680 -0.2169  0.0683 -0.2897
 3470ntf    cn119100   3.016   4.630   4.655 -0.1268 -0.0030  0.2290
 3470ntf    fn419101   2.907   5.151   4.494  0.3178 -0.3674  0.0371
 3470ntf    fn419102   2.700   5.109   4.468  0.1471 -0.8308 -0.5160
 3470ntf    fn419103   2.781   5.097   4.659 -0.1880  0.1188 -0.3016
 3470ntf    on519104   2.717   4.823   4.556  0.0292 -0.5088  0.3714
 3470ntf    on519105   2.817   4.904   4.353 -0.2246 -0.4678 -0.1180
 3470ntf    on519106   2.913   4.843   4.780 -0.0606 -0.2734 -0.0195
 3470ntf    on519107   3.149   4.841   4.712 -0.5383  0.5479  0.6374
 3470ntf    fn419108   3.073   4.559   4.751  0.4473 -0.1426 -0.2128
 3470ntf    fn419109   2.896   4.577   4.633 -0.1200 -0.2342  0.7295
 3470ntf    fn419110   3.083   4.600   4.545 -0.0329  0.3593  0.1863
 3471ntf    cn119111   0.314   1.687   5.865 -0.2694 -0.3191 -0.2621
 3471ntf    sn219112   0.259   1.518   5.903  0.0673 -0.3173  0.2470
 3471ntf    nn319113   0.228   1.462   5.759 -0.9350 -0.3848  0.4860
 3471ntf    sn219114   0.286   1.332   5.692 -0.0733  0.2590 -0.0326
 3471ntf    cn119115   0.287   1.387   5.518  0.3292  0.1476 -0.0657
 3471ntf    fn419116   0.427   1.688   5.796 -0.2422 -0.6758 -0.2273
 3471ntf    fn419117   0.219   1.753   5.800 -0.6140 -0.2678  0.2884
 3471ntf    fn419118   0.340   1.754   5.976 -0.2745 -0.2700 -0.2906
 3471ntf    on519119   0.371   1.456   5.970  0.8892  0.6172 -0.2282
 3471ntf    on519120   0.138   1.528   5.980  0.0935 -0.1316  0.2638
 3471ntf    on519121   0.191   1.224   5.695 -0.0293  0.2225  0.0381
 3471ntf    on519122   0.424   1.304   5.724  0.0475  0.1251 -0.6575
 3471ntf    fn419123   0.362   1.318   5.434  0.2216 -0.0140 -0.0305
 3471ntf    fn419124   0.162   1.384   5.475  0.3908 -0.4022 -0.2126
 3471ntf    fn419125   0.324   1.513   5.508 -0.3353  0.2609 -1.2497
 3472ntf    cn119126   1.639   4.684   2.603 -0.0600  0.2195 -0.0095
 3472ntf    sn219127   1.620   4.549   2.482 -0.0538  0.2676 -0.0642
 3472ntf    nn319128   1.600   4.423   2.574  0.2972  0.0927 -0.2245
 3472ntf    sn219129   1.674   4.285   2.576  0.3277  0.1113 -0.0588
 3472ntf    cn119130   1.793   4.309   2.711  0.2863 -0.2389  0.0393
 3472ntf    fn419131   1.671   4.800   2.548 -0.3305  0.4862  0.3909
 3472ntf    fn419132   1.525   4.702   2.668  0.0670 -0.1066  0.3096
 3472ntf    fn419133   1.733   4.670   2.694 -0.2539 -0.1184  0.1394
 3472ntf    on519134   1.498   4.578   2.411 -0.0023 -0.8406 -0.6197
 3472ntf    on519135   1.746   4.545   2.413 -0.2083  0.0044 -0.3297
 3472ntf    on519136   1.767   4.257   2.469  0.2385 -0.0911 -0.0834
 3472ntf    on519137   1.591   4.181   2.631 -0.3663  0.9219  0.4513
 3472ntf    fn419138   1.835   4.191   2.754 -0.2817 -0.4116  0.1202
 3472ntf    fn419139   1.900   4.377   2.672  0.1152  0.1814  0.3013
 3472ntf    fn419140   1.743   4.367   2.819 -0.7950 -0.7750 -0.1603
 3473ntf    cn119141   4.497   3.605   3.074 -0.3596  0.3467 -0.5062
 3473ntf    sn219142   4.381   3.698   2.970 -0.8472 -0.1102 -0.3720
 3473ntf    nn319143   4.245   3.650   3.033 -0.5166  0.0217  0.4607
 3473ntf    sn219144   4.144   3.541   2.981 -0.0852 -0.2464  0.1721
 3473ntf    cn119145   4.013   3.604   3.091  0.0757 -0.0455  0.2491
 3473ntf    fn419146   4.622   3.644   3.053 -0.2610 -0.0294 -0.6282
 3473ntf    fn419147   4.466   3.626   3.201  0.2830  0.2846 -0.3339
 3473ntf    fn419148   4.490   3.474   3.057 -0.1522  0.2371  0.2000
 3473ntf    on519149   4.412   3.831   3.015 -0.0389 -0.2246 -0.5898
 3473ntf    on519150   4.409   3.656   2.835 -0.1916 -0.0219 -0.2649
 3473ntf    on519151   4.161   3.403   3.017  0.4682  0.0088  0.8996
 3473ntf    on519152   4.078   3.570   2.856  0.1808 -0.3823  0.0008
 3473ntf    fn419153   3.965   3.717   3.042  0.8270  0.3987  0.5246
 3473ntf    fn419154   3.916   3.516   3.112  0.2294 -0.1888  0.3660
 3473ntf    fn419155   4.060   3.651   3.206 -0.7817  0.4153  0.4189
 3474ntf    cn119156   4.832   5.695   6.538 -0.0758 -0.0467 -0.0542
 3474ntf    sn219157   4.762   5.628   6.383  0.0941  0.1828 -0.2308
 3474ntf    nn319158   4.846   5.701   6.272 -0.0001  0.0981 -0.3579
 3474ntf    sn219159   4.981   5.666   6.200  0.1326 -0.1794  0.0220
 3474ntf    cn119160   4.909   5.592   6.051  0.2477 -0.2208 -0.0138
 3474ntf    fn419161   4.744   5.681   6.636 -0.4403  0.3497 -0.3178
 3474ntf    fn419162   4.947   5.643   6.577 -0.0056  0.3832  0.3175
 3474ntf    fn419163   4.851   5.824   6.515  0.3715 -0.0904  0.0740
 3474ntf    on519164   4.774   5.485   6.399 -0.2729  0.1965  0.2035
 3474ntf    on519165   4.627   5.678   6.374  0.2125  0.5151 -0.2034
 3474ntf    on519166   5.060   5.568   6.270  0.4622  0.0710 -0.0006
 3474ntf    on519167   5.048   5.785   6.155 -0.0311 -0.0121  0.2163
 3474ntf    fn419168   4.787   5.641   6.036  0.2264 -0.2204  0.1632
 3474ntf    fn419169   4.977   5.599   5.937 -0.3638 -0.2203 -0.3837
 3474ntf    fn419170   4.884   5.463   6.070 -0.5288 -0.1062 -0.1946
 3475ntf    cn119171   1.667   4.176   0.014  0.1405 -0.1241 -0.3010
 3475ntf    sn219172   1.506   4.122   0.080  0.0414  0.5238 -0.0010
 3475ntf    nn319173   1.428   4.119  -0.056  0.1360  0.6651 -0.0592
 3475ntf    sn219174   1.282   4.167  -0.090 -0.0988  0.0703  0.0885
 3475ntf    cn119175   1.228   4.007  -0.157  0.3132 -0.0796  0.1060
 3475ntf    fn419176   1.708   4.118  -0.097  0.4614 -0.0210 -0.2375
 3475ntf    fn419177   1.662   4.306  -0.013  0.0589 -0.1157 -0.2462
 3475ntf    fn419178   1.766   4.160   0.099 -0.5057 -0.7836  0.3426
 3475ntf    on519179   1.536   3.994   0.139 -0.1942  0.1623 -0.6678
 3475ntf    on519180   1.460   4.222   0.173 -0.6190  0.1223  0.1024
 3475ntf    on519181   1.279   4.256  -0.204  0.3480 -0.3258 -0.2381
 3475ntf    on519182   1.185   4.185   0.015 -0.4686  0.2383 -0.2772
 3475ntf    fn419183   1.097   4.001  -0.176  0.3040  0.7263 -0.1322
 3475ntf    fn419184   1.291   3.980  -0.269 -0.4580  0.7055 -0.5297
 3475ntf    fn419185   1.265   3.906  -0.080 -0.0744 -0.2855  0.0264
 3476ntf    cn119186   6.044   0.597   1.143 -0.0955  0.2904  0.2029
 3476ntf    sn219187   6.193   0.500   1.183 -0.0760  0.3203  0.2042
 3476ntf    nn319188   6.307   0.601   1.144  0.4305 -0.3539 -0.0628
 3476ntf    sn219189   6.354   0.718   1.238 -0.2744 -0.0807 -0.0508
 3476ntf    cn119190   6.393   0.850   1.119 -0.1651 -0.0662  0.0011
 3476ntf    fn419191   6.040   0.634   1.017 -1.0050 -0.6282 -0.0554
 3476ntf    fn419192   5.934   0.526   1.161  0.0330 -0.0704 -0.4181
 3476ntf    fn419193   6.039   0.714   1.205 -0.0784  0.1304  0.5082
 3476ntf    on519194   6.182   0.462   1.322 -0.0032  0.0617  0.1389
 3476ntf    on519195   6.180   0.394   1.087  0.4165 -0.1624  0.6640
 3476ntf    on519196   6.484   0.692   1.294 -0.0436  0.0187 -0.5315
 3476ntf    on519197   6.258   0.780   1.327 -0.3029 -0.2398  0.0288
 3476ntf    fn419198   6.459   0.954   1.165 -0.0472  0.2807 -0.9236
 3476ntf    fn419199   6.482   0.805   1.032  0.0920  0.1402  0.1575
 3476ntf    fn419200   6.285   0.895   1.057 -0.6191 -0.6769  0.3407
 3477ntf    cn119201   3.214   4.111   4.779 -0.0180 -0.0057  0.0049
 3477ntf    sn219202   3.279   4.063   4.942 -0.0197 -0.0026  0.0063
 3477ntf    nn319203   3.266   3.907   4.947  0.0108 -0.0123 -0.1944
 3477ntf    sn219204   3.208   3.836   5.075  0.0782  0.2813 -0.0015
 3477ntf    cn119205   3.340   3.840   5.200 -0.1333  0.0181  0.2303
 3477ntf    fn419206   3.101   4.049   4.753  0.4010 -0.6014 -0.4290
 3477ntf    fn419207   3.192   4.241   4.777  0.2111  0.0402  0.3031
 3477ntf    fn419208   3.299   4.087   4.681 -0.1199  0.1696 -0.1257
 3477ntf    on519209   3.418   4.094   4.918 -0.1758 -0.2486 -1.2978
 3477ntf    on519210   3.206   4.137   5.042  0.0428 -0.1787  0.1835
 3477ntf    on519211   3.180   3.697   5.050 -0.4937  0.3589  0.1923
 3477ntf    on519212   3.095   3.903   5.135 -0.2129 -0.2950  0.0930
 3477ntf    fn419213   3.310   3.785   5.317 -0.2189  0.0057  0.2023
 3477ntf    fn419214   3.448   3.772   5.165  0.0208  0.4041 -0.0496
 3477ntf    fn419215   3.383   3.962   5.228 -0.3685  0.1411  0.0491
 3478ntf    cn119216   3.546   3.229   5.298  0.1168 -0.3842 -0.0045
 3478ntf    sn219217   3.545   3.049   5.270  0.3774 -0.3704 -0.1044
 3478ntf    nn319218   3.665   3.017   5.366 -0.1655 -0.4183  0.5596
 3478ntf    sn219219   3.703   2.870   5.407  0.2289 -0.4162  0.1954
 3478ntf    cn119220   3.592   2.846   5.548  0.1867  0.2463  0.2783
 3478ntf    fn419221   3.666   3.282   5.286  0.0841 -0.4335 -0.6077
 3478ntf    fn419222   3.475   3.302   5.213 -0.4271 -0.1618  0.6304
 3478ntf    fn419223   3.505   3.258   5.420  0.1169  0.4623 -0.2007
 3478ntf    on519224   3.421   2.995   5.319  0.3787 -0.2727  0.0058
 3478ntf    on519225   3.567   3.030   5.129  0.0414 -0.3428 -0.1632
 3478ntf    on519226   3.833   2.864   5.469  0.2519 -0.4276  0.1470
 3478ntf    on519227   3.657   2.761   5.325 -0.5750 -0.0310  0.1253
 3478ntf    fn419228   3.463   2.841   5.517  0.3897 -0.3240 -0.5040
 3478ntf    fn419229   3.624   2.738   5.617  0.1110  0.3529  0.4825
 3478ntf    fn419230   3.607   2.940   5.640  0.8430  0.5852 -0.1713
 3479ntf    cn119231   2.894   6.655   4.344 -0.0468 -0.0080  0.5277
 3479ntf    sn219232   2.791   6.701   4.201  0.2513  0.0565  0.3321
 3479ntf    nn319233   2.654   6.688   4.278  0.3548 -0.9887  0.3554
 3479ntf    sn219234   2.529   6.611   4.224  0.0266 -0.1285 -0.1279
 3479ntf    cn119235   2.580   6.442   4.268 -0.0679 -0.2455 -0.4645
 3479ntf    fn419236   3.018   6.700   4.340 -0.1602  0.2669 -0.2976
 3479ntf    fn419237   2.835   6.696   4.455 -0.3612  0.2223  0.2812
 3479ntf    fn419238   2.912   6.524   4.347 -0.0792 -0.0513 -0.6089
 3479ntf    on519239   2.824   6.840   4.181  0.1588  0.0003 -0.2403
 3479ntf    on519240   2.827   6.597   4.107  0.1380  0.2947  0.0232
 3479ntf    on519241   2.512   6.606   4.080  0.4971 -0.7498 -0.1657
 3479ntf    on519242   2.400   6.628   4.287 -0.0868 -0.5074 -0.2523
 3479ntf    fn419243   2.638   6.435   4.386  0.5294  0.0397 -0.7352
 3479ntf    fn419244   2.478   6.360   4.290  0.2297 -0.4454  0.1939
 3479ntf    fn419245   2.661   6.374   4.188  0.0581 -0.1841 -0.3884
 3480ntf    cn119246   4.462   3.632   1.035  0.0400 -0.0607 -0.4368
 3480ntf    sn219247   4.562   3.513   0.942  0.4019  0.0280 -0.1622
 3480ntf    nn319248   4.480   3.379   0.950 -0.1388  0.3391 -0.4439
 3480ntf    sn219249   4.519   3.236   1.001 -0.5434  0.4023  0.0494
 3480ntf    cn119250   4.358   3.182   1.066 -0.3376 -0.4378 -0.1208
 3480ntf    fn419251   4.508   3.753   1.012 -0.3994  0.2185  0.1190
 3480ntf    fn419252   4.332   3.635   1.010  0.0627 -0.3944 -0.6025
 3480ntf    fn419253   4.476   3.601   1.163 -0.1639  0.1071 -0.3730
 3480ntf    on519254   4.557   3.562   0.806  0.3901  0.7602  0.0982
 3480ntf    on519255   4.687   3.500   1.013  0.2133  0.1278  0.1863
 3480ntf    on519256   4.607   3.220   1.114 -0.9275  0.0258  0.3004
 3480ntf    on519257   4.538   3.140   0.895 -0.0351 -0.2534  0.7236
 3480ntf    fn419258   4.265   3.176   0.972 -0.2336 -0.3400 -0.2298
 3480ntf    fn419259   4.353   3.067   1.131 -0.2387 -0.4023 -0.0513
 3480ntf    fn419260   4.313   3.272   1.153  0.3075  0.0199 -0.2559
 3481ntf    cn119261   6.073   6.063   4.975  0.3524 -0.0901  0.1457
 3481ntf    sn219262   6.204   5.937   4.982  0.2460 -0.2099 -0.0277
 3481ntf    nn319263   6.324   6.035   5.010  0.0163 -0.1661  0.8317
 3481ntf    sn219264   6.453   6.067   4.927 -0.1363 -0.1520  0.5996
 3481ntf    cn119265   6.474   6.237   4.985  0.0852  0.0080  0.0649
 3481ntf    fn419266   6.106   6.167   4.899 -0.7529 -0.3527 -0.7241
 3481ntf    fn419267   5.954   6.028   4.930  0.3416  0.2959 -0.1399
 3481ntf    fn419268   6.050   6.128   5.088 -0.4395 -0.2157  0.0644
 3481ntf    on519269   6.167   5.864   5.100 -0.6378 -0.4390 -0.4390
 3481ntf    on519270   6.214   5.868   4.856  0.5562 -0.1238 -0.0521
 3481ntf    on519271   6.447   6.078   4.783  0.0924  0.3489  0.6286
 3481ntf    on519272   6.570   6.000   4.977  0.3303  0.7129  0.6861
 3481ntf    fn419273   6.482   6.251   5.117  0.1956  0.0479  0.0539
 3481ntf    fn419274   6.586   6.287   4.936  0.2349 -0.3889  0.0048
 3481ntf    fn419275   6.378   6.312   4.933 -0.5231 -0.9549 -0.2206
 3482ntf    cn119276   6.737   3.216   6.953 -0.2570  0.0274  0.3611
 3482ntf    sn219277   6.610   3.317   6.871  0.2222  0.0643 -0.3406
 3482ntf    nn319278   6.493   3.286   6.971  0.3659  0.5459 -0.0253
 3482ntf    sn219279   6.402   3.393   7.041 -0.5269 -0.1211 -0.1441
 3482ntf    cn119280   6.490   3.443   7.193  0.1185 -0.0749 -0.5275
 3482ntf    fn419281   6.852   3.200   6.890 -0.8173 -1.1020 -0.4119
 3482ntf    fn419282   6.778   3.281   7.060  0.2900  0.1195  0.0968
 3482ntf    fn419283   6.700   3.093   6.985 -0.6362 -0.0885 -0.4880
 3482ntf    on519284   6.668   3.448   6.875  0.2743  0.0324 -0.0574
 3482ntf    on519285   6.600   3.250   6.743  0.8024 -0.0844 -0.3107
 3482ntf    on519286   6.285   3.322   7.085  0.0474 -0.5623  0.7146
 3482ntf    on519287   6.385   3.522   6.978 -0.3789 -0.2672 -0.4834
 3482ntf    fn419288   6.407   3.473   7.292  0.7273  0.1841 -0.0907
 3482ntf    fn419289   6.570   3.347   7.237 -0.4076 -0.3686 -0.1897
 3482ntf    fn419290   6.572   3.545   7.177 -0.1213  0.2557  0.3042
 3483ntf    cn119291   0.357   4.855   2.490  0.0164 -0.0328  0.1414
 3483ntf    sn219292   0.214   4.833   2.381  0.0614  0.1869  0.0379
 3483ntf    nn319293   0.278   4.741   2.272 -0.0951  0.0843  0.0317
 3483ntf    sn219294   0.335   4.780   2.131  0.1108 -0.1534  0.0468
 3483ntf    cn119295   0.373   4.615   2.066  0.3273  0.0502 -0.3508
 3483ntf    fn419296   0.428   4.744   2.506 -0.6080 -0.4129  0.3108
 3483ntf    fn419297   0.440   4.940   2.432 -0.0343  0.2781  0.5223
 3483ntf    fn419298   0.325   4.910   2.606  0.0489  0.2527  0.0158
 3483ntf    on519299   0.113   4.766   2.460 -0.2843  0.0357 -0.5273
 3483ntf    on519300   0.190   4.971   2.345  0.8866  0.3813  0.2132
 3483ntf    on519301   0.468   4.835   2.138  0.3152 -0.6424 -0.0050
 3483ntf    on519302   0.252   4.854   2.039  0.3644 -0.0446 -0.0973
 3483ntf    fn419303   0.264   4.541   2.050 -0.3314  0.9222  0.0555
 3483ntf    fn419304   0.436   4.625   1.950  0.3924  0.4764 -0.2782
 3483ntf    fn419305   0.453   4.546   2.145  0.5369 -0.1452 -0.7280
 3484ntf    cn119306   4.888   0.974   4.883 -0.3931 -0.4993 -0.0264
 3484ntf    sn219307   5.036   0.949   4.986 -0.0868  0.0424 -0.3284
 3484ntf    nn319308   5.059   1.102   5.014 -0.3395  0.0995 -0.4248
 3484ntf    sn219309   5.156   1.211   4.957 -0.1032  0.1915  0.1472
 3484ntf    cn119310   5.227   1.258   5.118  0.2434  0.1234  0.0143
 3484ntf    fn419311   4.787   1.031   4.946  0.7114  0.6091  0.7804
 3484ntf    fn419312   4.917   1.067   4.793 -0.5113 -0.5169 -0.0820
 3484ntf    fn419313   4.835   0.871   4.820 -0.1510 -0.4867 -0.2529
 3484ntf    on519314   4.983   0.870   5.095 -0.3276  0.8860  0.1811
 3484ntf    on519315   5.130   0.890   4.895  0.1496 -0.0077 -0.0518
 3484ntf    on519316   5.077   1.326   4.921  0.0469  0.1854 -0.2009
 3484ntf    on519317   5.267   1.154   4.886 -0.5034  0.3844 -0.6422
 3484ntf    fn419318   5.310   1.361   5.121  0.2211  0.1515 -0.2746
 3484ntf    fn419319   5.133   1.277   5.209  0.3524  0.6371  0.0200
 3484ntf    fn419320   5.298   1.152   5.154 -0.1688 -0.3399 -0.5152
 3485ntf    cn119321   0.711   2.172   4.152 -0.1999  0.0975 -0.0582
 3485ntf    sn219322   0.531   2.173   4.125 -0.1870  0.1799 -0.1435
 3485ntf    nn319323   0.548   2.171   3.969  0.0641  0.6809 -0.1232
 3485ntf    sn219324   0.438   2.187   3.859  0.4867 -0.2136 -0.6916
 3485ntf    cn119325   0.398   2.013   3.826  0.1713 -0.3250  0.2589
 3485ntf    fn419326   0.775   2.069   4.101  0.3898  0.2058  0.4530
 3485ntf    fn419327   0.765   2.279   4.096  0.3054  0.0525  0.3326
 3485ntf    fn419328   0.741   2.177   4.281  0.3800  0.2971 -0.2003
 3485ntf    on519329   0.484   2.053   4.190  0.1453  0.0807 -0.0821
 3485ntf    on519330   0.492   2.304   4.169  0.0745  0.2133 -0.0118
 3485ntf    on519331   0.489   2.234   3.732  0.0787 -0.2397 -0.8660
 3485ntf    on519332   0.322   2.257   3.908  0.6753  0.3018 -0.9712
 3485ntf    fn419333   0.327   1.959   3.924 -0.2200 -0.7064 -0.2315
 3485ntf    fn419334   0.329   1.985   3.717  0.4663  0.0545 -0.0265
 3485ntf    fn419335   0.501   1.931   3.814  0.3405 -0.1898  0.7656
 3486ntf    cn119336   5.531   0.242   5.216 -0.8106  0.1754 -0.2799
 3486ntf    sn219337   5.433   0.089   5.220 -0.0387 -0.3144  0.0502
 3486ntf    nn319338   5.313   0.138   5.307  0.3019  0.1551  0.2593
 3486ntf    sn219339   5.293   0.133   5.463 -0.2342  0.2806  0.1963
 3486ntf    cn119340   5.184   0.278   5.476 -0.2162  0.3536 -0.4485
 3486ntf    fn419341   5.457   0.352   5.216 -0.6634  0.2738 -0.1016
 3486ntf    fn419342   5.610   0.252   5.321 -0.3199  0.6865 -0.6892
 3486ntf    fn419343   5.617   0.238   5.116 -0.1709 -0.2701  0.2807
 3486ntf    on519344   5.398   0.075   5.080  0.1426  0.7929 -0.1152
 3486ntf    on519345   5.526  -0.008   5.273  0.0785 -0.0741  0.2837
 3486ntf    on519346   5.402   0.183   5.543  0.5756 -0.4166 -0.4585
 3486ntf    on519347   5.209   0.032   5.522 -0.1292 -0.0025 -0.1378
 3486ntf    fn419348   5.078   0.277   5.397 -0.2621 -0.0507 -0.3793
 3486ntf    fn419349   5.141   0.310   5.597 -0.7755 -0.8122 -0.3274
 3486ntf    fn419350   5.249   0.386   5.432  0.3664 -0.0736 -0.6485
 3487ntf    cn119351   3.589   3.891   2.109  0.0568  1.0271  0.3732
 3487ntf    sn219352   3.449   3.972   2.026 -0.2308  0.0323 -0.1272
 3487ntf    nn319353   3.521   4.099   1.971  0.2217 -0.1584  0.0182
 3487ntf    sn219354   3.546   4.158   1.827  0.0655 -0.2798 -0.0588
 3487ntf    cn119355   3.548   4.337   1.860  0.5308 -0.3583  0.3462
 3487ntf    fn419356   3.643   3.801   2.028 -0.3559  0.1346  1.0664
 3487ntf    fn419357   3.680   3.977   2.153  0.7871  0.4829 -0.0426
 3487ntf    fn419358   3.552   3.818   2.213  0.5297 -0.0066 -0.1725
 3487ntf    on519359   3.384   3.877   1.939 -0.0515 -0.5673  0.3828
 3487ntf    on519360   3.370   4.005   2.142 -0.4146  0.1088 -0.2737
 3487ntf    on519361   3.429   4.133   1.746 -0.5014  0.5001  0.5040
 3487ntf    on519362   3.675   4.126   1.772 -0.2202  0.0187 -0.9165
 3487ntf    fn419363   3.605   4.410   1.766 -0.3019 -0.5423 -0.3122
 3487ntf    fn419364   3.428   4.389   1.878  0.4759 -0.3237 -0.1183
 3487ntf    fn419365   3.621   4.357   1.969  0.3120  0.3213  0.3706
 3488ntf    cn119366   4.128   6.255   5.887 -0.2131  0.0619  0.0401
 3488ntf    sn219367   4.031   6.284   6.038  0.1019  0.2469  0.2093
 3488ntf    nn319368   3.909   6.361   5.975  0.0471  0.0623  0.0880
 3488ntf    sn219369   3.765   6.397   6.025 -0.0293  0.2460 -0.2647
 3488ntf    cn119370   3.787   6.576   6.050 -0.5137  0.2050  0.4807
 3488ntf    fn419371   4.240   6.194   5.920  0.0123  0.3839 -0.1194
 3488ntf    fn419372   4.063   6.191   5.791  0.1478 -0.5410  0.2004
 3488ntf    fn419373   4.162   6.371   5.833 -0.6019  0.0364 -0.2642
 3488ntf    on519374   4.027   6.145   6.078  0.2197  0.1434 -0.1320
 3488ntf    on519375   4.118   6.368   6.117  0.2511  0.5181 -0.2401
 3488ntf    on519376   3.744   6.336   6.154  0.8551  0.1700 -0.1523
 3488ntf    on519377   3.663   6.393   5.924  0.1803  0.1209 -0.4719
 3488ntf    fn419378   3.702   6.624   6.140 -0.8102  0.3610  0.1218
 3488ntf    fn419379   3.907   6.612   6.091 -0.1752  0.0801 -0.3959
 3488ntf    fn419380   3.769   6.646   5.939  0.1393 -0.3384  0.0262
 3489ntf    cn119381   5.612   3.579   0.505  0.4509 -0.7861 -0.3322
 3489ntf    sn219382   5.608   3.659   0.341  0.2810  0.3076  0.1944
 3489ntf    nn319383   5.625   3.523   0.264 -0.1568  0.7686 -0.7340
 3489ntf    sn219384   5.738   3.451   0.183 -0.0433 -0.1627  0.2295
 3489ntf    cn119385   5.728   3.545   0.028  0.0725 -0.3510  0.1059
 3489ntf    fn419386   5.512   3.497   0.533  0.0131 -0.2739 -0.3840
 3489ntf    fn419387   5.725   3.516   0.532  0.4178 -0.3986  0.7204
 3489ntf    fn419388   5.621   3.668   0.603  0.1931 -0.5598 -0.5101
 3489ntf    on519389   5.471   3.700   0.325  0.3972  0.8082  0.4719
 3489ntf    on519390   5.718   3.752   0.335  0.5182 -0.0049 -0.4374
 3489ntf    on519391   5.721   3.310   0.158  0.1366 -0.1199 -0.1397
 3489ntf    on519392   5.872   3.485   0.224  0.1052 -0.0656 -0.3233
 3489ntf    fn419393   5.822   3.517  -0.060  0.0065  0.4415 -0.2267
 3489ntf    fn419394   5.613   3.529  -0.035  0.1704  0.1221 -0.1974
 3489ntf    fn419395   5.743   3.675   0.048 -0.1441 -0.2193 -0.5592
 3490ntf    cn119396   5.650   1.954   1.526 -0.3088  0.1713  0.3584
 3490ntf    sn219397   5.757   1.972   1.379 -0.1947  0.0364  0.4241
 3490ntf    nn319398   5.667   2.073   1.300 -0.3534 -0.9021 -0.6058
 3490ntf    sn219399   5.672   2.123   1.151 -0.0990  0.2318 -0.2223
 3490ntf    cn119400   5.736   2.294   1.150 -0.0270  0.2052 -0.1585
 3490ntf    fn419401   5.528   1.932   1.481 -0.0576  0.5958 -0.5724
 3490ntf    fn419402   5.681   1.851   1.603  0.1604  0.2985  0.3444
 3490ntf    fn419403   5.647   2.060   1.605 -0.4080  0.2359  0.2679
 3490ntf    on519404   5.881   2.029   1.427 -0.1734  0.2871  0.0723
 3490ntf    on519405   5.757   1.839   1.325  0.2935  0.2154 -0.0160
 3490ntf    on519406   5.538   2.129   1.100  0.0789  0.4056 -0.6777
 3490ntf    on519407   5.768   2.056   1.068  0.0569  0.2816 -0.0840
 3490ntf    fn419408   5.865   2.296   1.180 -0.0024  0.0419 -0.2492
 3490ntf    fn419409   5.719   2.362   1.038  0.6124  0.5672 -0.0412
 3490ntf    fn419410   5.677   2.355   1.251 -0.3462 -0.4109  0.0337
 3491ntf    cn119411   2.315   3.493   6.485  0.1025  0.0097  0.5975
 3491ntf    sn219412   2.470   3.588   6.482  0.0665  0.0588  0.2523
 3491ntf    nn319413   2.448   3.664   6.618  0.1415 -0.1513  0.3826
 3491ntf    sn219414   2.551   3.686   6.735  0.3230  0.4004  0.1233
 3491ntf    cn119415   2.532   3.525   6.818  0.5300  0.0961 -0.4153
 3491ntf    fn419416   2.295   3.419   6.593 -0.6589 -0.1809  0.3331
 3491ntf    fn419417   2.211   3.575   6.484  0.1967  0.1368 -0.4647
 3491ntf    fn419418   2.293   3.420   6.377  0.4027  0.0745  0.4916
 3491ntf    on519419   2.569   3.483   6.478  0.3770  0.3554  0.1204
 3491ntf    on519420   2.465   3.673   6.366  0.5117  0.2054  0.3377
 3491ntf    on519421   2.519   3.772   6.846 -0.1368  0.3755  0.0117
 3491ntf    on519422   2.688   3.685   6.690  0.1989  0.5995 -0.2666
 3491ntf    fn419423   2.542   3.423   6.734 -0.4315 -0.5051  0.1860
 3491ntf    fn419424   2.617   3.528   6.918 -0.3791 -0.1188  0.3795
 3491ntf    fn419425   2.407   3.521   6.861  0.4653  0.3930 -0.5686
 3492ntf    cn119426   1.453   5.910   4.455  0.0582  0.1862  0.0196
 3492ntf    sn219427   1.562   6.034   4.530 -0.3715  0.2352  0.5626
 3492ntf    nn319428   1.700   5.960   4.543 -0.5812 -0.1558  0.5696
 3492ntf    sn219429   1.780   5.890   4.659 -0.1256 -0.3011  0.1718
 3492ntf    cn119430   1.746   5.718   4.609 -0.0671 -0.1355 -0.4470
 3492ntf    fn419431   1.483   5.879   4.329  0.1003  0.0230  0.0682
 3492ntf    fn419432   1.435   5.797   4.521  0.3956  0.0794 -0.0650
 3492ntf    fn419433   1.330   5.956   4.442 -0.1874 -0.5570 -0.3365
 3492ntf    on519434   1.563   6.137   4.429 -0.3066 -0.5917 -0.2958
 3492ntf    on519435   1.500   6.075   4.654 -0.0778  0.4373  0.6442
 3492ntf    on519436   1.713   5.892   4.786 -0.0303 -0.0499  0.2181
 3492ntf    on519437   1.921   5.911   4.641 -0.0936  0.3450  1.1148
 3492ntf    fn419438   1.792   5.630   4.697 -0.0845  0.2784 -0.0180
 3492ntf    fn419439   1.617   5.691   4.601 -0.0637 -0.1575 -0.4286
 3492ntf    fn419440   1.804   5.687   4.494  0.4733 -0.4358 -0.1030
 3493ntf    cn119441   1.084   3.064   3.648 -0.1464  0.4798  0.5118
 3493ntf    sn219442   0.951   3.092   3.527  0.1120  0.0003  0.1136
 3493ntf    nn319443   0.913   3.235   3.581  0.0073 -0.0672  0.2177
 3493ntf    sn219444   0.775   3.286   3.637  0.0821  0.4905 -0.0966
 3493ntf    cn119445   0.727   3.359   3.478 -0.2255  0.1612 -0.1552
 3493ntf    fn419446   1.184   3.150   3.648  0.2825 -0.0144 -0.2441
 3493ntf    fn419447   1.038   3.060   3.772 -0.3894  0.4044  0.4200
 3493ntf    fn419448   1.143   2.946   3.639  0.5210  0.8630 -0.1739
 3493ntf    on519449   1.031   3.079   3.408  0.2591  0.3687  0.1701
 3493ntf    on519450   0.856   2.988   3.559  0.1600  0.2372  1.0544
 3493ntf    on519451   0.803   3.399   3.722 -0.3090  0.5810 -0.0908
 3493ntf    on519452   0.661   3.203   3.666  0.3595  0.2079  0.2091
 3493ntf    fn419453   0.699   3.272   3.382 -0.0201 -0.0207 -0.0516
 3493ntf    fn419454   0.614   3.428   3.487 -0.3264 -0.0605  0.3558
 3493ntf    fn419455   0.819   3.438   3.426  0.3248 -0.2480  0.1772
 3494ntf    cn119456   0.293   5.117   2.892  0.0362  0.2447 -0.2137
 3494ntf    sn219457   0.406   5.256   2.864  0.1911  0.1245 -0.1891
 3494ntf    nn319458   0.442   5.295   3.011 -0.0260  0.1534 -0.1427
 3494ntf    sn219459   0.546   5.226   3.107  0.0375  0.1164 -0.2376
 3494ntf    cn119460   0.686   5.339   3.084  0.1723 -0.0027 -0.0101
 3494ntf    fn419461   0.363   5.019   2.947 -0.2751 -0.0434 -0.3275
 3494ntf    fn419462   0.192   5.139   2.974 -0.0024  0.0072 -0.1952
 3494ntf    fn419463   0.234   5.071   2.783  0.0185  0.6193 -0.3639
 3494ntf    on519464   0.518   5.200   2.792  0.3338 -0.0040  0.1319
 3494ntf    on519465   0.318   5.351   2.800  0.6411  0.6310 -0.0664
 3494ntf    on519466   0.611   5.104   3.067 -0.1763 -0.1816  0.3046
 3494ntf    on519467   0.532   5.246   3.249  0.4279  0.4504 -0.2461
 3494ntf    fn419468   0.793   5.302   3.152  0.2150  0.1967  0.0331
 3494ntf    fn419469   0.725   5.353   2.958  0.0347  0.7085  0.0229
 3494ntf    fn419470   0.663   5.465   3.117  0.3307  0.0797 -0.2137
 3495ntf    cn119471   0.851   2.836   0.731  0.4571  0.0453 -0.5092
 3495ntf    sn219472   1.024   2.820   0.783  0.2956 -0.0477  0.0062
 3495ntf    nn319473   1.008   2.816   0.939 -0.2082  0.0381 -0.0439
 3495ntf    sn219474   1.015   2.938   1.038  0.2541  0.1867 -0.2551
 3495ntf    cn119475   0.886   2.883   1.155  0.3623 -0.2306 -0.3287
 3495ntf    fn419476   0.783   2.726   0.759 -0.0306  0.4659 -0.0218
 3495ntf    fn419477   0.786   2.937   0.787 -0.2745 -0.4626 -0.4376
 3495ntf    fn419478   0.840   2.842   0.599  0.1884  0.1059 -0.4849
 3495ntf    on519479   1.066   2.691   0.732  1.0358 -0.0290  0.5403
 3495ntf    on519480   1.102   2.930   0.731  0.2790  0.0647  0.2208
 3495ntf    on519481   0.957   3.055   0.978  0.1699  0.1056 -0.3306
 3495ntf    on519482   1.129   2.949   1.125 -0.0533  0.4908  0.1132
 3495ntf    fn419483   0.802   2.797   1.102  0.4043 -0.1921 -0.4574
 3495ntf    fn419484   0.937   2.826   1.263  0.3520  0.2006 -0.0913
 3495ntf    fn419485   0.812   2.985   1.196 -0.0331 -0.5373 -0.2859
 3496ntf    cn119486   3.212   5.567   6.362  0.2519  0.2010 -0.0339
 3496ntf    sn219487   3.393   5.586   6.348  0.2826  0.2190  0.3736
 3496ntf    nn319488   3.405   5.537   6.199  0.9026 -0.1127  0.5293
 3496ntf    sn219489   3.524   5.540   6.097  0.3045 -0.0707 -0.1784
 3496ntf    cn119490   3.545   5.360   6.082  0.4178 -0.0891  0.1815
 3496ntf    fn419491   3.140   5.651   6.291  0.5655  0.4843 -0.0185
 3496ntf    fn419492   3.174   5.442   6.340  0.7797 -0.0761  0.5796
 3496ntf    fn419493   3.171   5.592   6.485 -0.0670 -0.4780  0.0068
 3496ntf    on519494   3.407   5.728   6.367  0.1784  0.2075  0.5450
 3496ntf    on519495   3.452   5.497   6.444 -0.4260  0.1098  0.7136
 3496ntf    on519496   3.652   5.576   6.153  0.0428  0.6300 -0.0158
 3496ntf    on519497   3.496   5.588   5.965 -0.0599  0.3085  0.0364
 3496ntf    fn419498   3.581   5.307   6.198 -0.0619 -0.1439  0.3084
 3496ntf    fn419499   3.434   5.299   6.045  0.1163  0.0173  0.8876
 3496ntf    fn419500   3.630   5.330   5.985 -0.4701 -0.7310 -0.4056
 3497ntf    cn119501   4.378   4.380   2.389  0.0614 -0.2020 -0.0517
 3497ntf    sn219502   4.400   4.558   2.359  0.0143 -0.2153 -0.1635
 3497ntf    nn319503   4.513   4.583   2.465 -0.1393  0.2624 -0.1119
 3497ntf    sn219504   4.604   4.710   2.480  0.0166  0.1455 -0.0642
 3497ntf    cn119505   4.510   4.796   2.611 -0.1595 -0.0540 -0.0588
 3497ntf    fn419506   4.471   4.315   2.321  0.0909 -0.1076 -0.1016
 3497ntf    fn419507   4.402   4.349   2.515 -0.1765  0.1859  0.0911
 3497ntf    fn419508   4.264   4.328   2.345 -0.1164  0.0163  0.1500
 3497ntf    on519509   4.447   4.562   2.223  0.0078 -0.4693 -0.1735
 3497ntf    on519510   4.271   4.615   2.391 -0.0601 -0.0382 -0.7508
 3497ntf    on519511   4.599   4.811   2.377  0.0588 -0.1136 -0.3186
 3497ntf    on519512   4.730   4.689   2.547 -0.0816 -0.0671  0.0540
 3497ntf    fn419513   4.385   4.821   2.575 -0.0629  0.6397  0.0799
 3497ntf    fn419514   4.512   4.729   2.725 -0.6904 -0.4126 -0.2577
 3497ntf    fn419515   4.572   4.911   2.632  0.0329 -0.2886  0.6853
 3498ntf    cn119516   0.790   2.854   4.503  0.1171  0.1255 -0.0811
 3498ntf    sn219517   0.865   2.759   4.368 -0.0745 -0.0267 -0.0795
 3498ntf    nn319518   0.905   2.865   4.259  0.1186  0.4346  0.4391
 3498ntf    sn219519   1.034   2.953   4.246  0.3442  0.0360 -0.0501
 3498ntf    cn119520   0.961   3.103   4.173  0.2518  0.0478  0.0655
 3498ntf    fn419521   0.685   2.920   4.458  0.0209 -0.0320 -0.0844
 3498ntf    fn419522   0.746   2.771   4.596  0.4575 -0.1366 -0.1504
 3498ntf    fn419523   0.876   2.941   4.554  0.5282 -0.0953 -0.3894
 3498ntf    on519524   0.982   2.692   4.420 -0.4146  0.1441  0.9211
 3498ntf    on519525   0.757   2.673   4.325  0.0391 -0.0787 -0.2607
 3498ntf    on519526   1.123   2.904   4.143 -0.2076  0.3411 -0.6787
 3498ntf    on519527   1.091   3.006   4.368 -0.1723  0.0830  0.1709
 3498ntf    fn419528   0.914   3.079   4.051  0.2924 -0.0980  0.0781
 3498ntf    fn419529   0.861   3.151   4.244 -0.6799 -0.2750 -0.9807
 3498ntf    fn419530   1.042   3.206   4.160 -0.3899  0.5327 -0.1451
 3499ntf    cn119531   5.929   6.527   2.813 -0.0138 -0.4374 -0.0251
 3499ntf    sn219532   6.057   6.594   2.924 -0.3192  0.1861 -0.0490
 3499ntf    nn319533   6.190   6.561   2.847 -0.2406 -0.2216  0.2622
 3499ntf    sn219534   6.269   6.427   2.864  0.0735 -0.1046 -0.2507
 3499ntf    cn119535   6.303   6.376   2.693  0.1380 -0.2830 -0.1846
 3499ntf    fn419536   5.960   6.561   2.689 -0.6024  0.0642 -0.0351
 3499ntf    fn419537   5.911   6.396   2.814 -0.1896 -0.4110  0.2816
 3499ntf    fn419538   5.813   6.585   2.836  0.1211 -0.2949  0.3083
 3499ntf    on519539   6.020   6.734   2.928  0.0447  0.2680  0.5153
 3499ntf    on519540   6.031   6.531   3.051  0.0737 -0.0606 -0.0893
 3499ntf    on519541   6.206   6.314   2.928 -0.0237 -0.2348 -0.5765
 3499ntf    on519542   6.401   6.448   2.917 -0.4785  0.0061  1.1347
 3499ntf    fn419543   6.352   6.252   2.698 -0.4045 -0.5191 -0.6510
 3499ntf    fn419544   6.193   6.359   2.622 -0.0518 -0.7378  0.2112
 3499ntf    fn419545   6.391   6.440   2.619  0.1524  0.0527  0.1208
 3500ntf    cn119546   0.336   5.525   4.700 -0.0738 -0.1072  0.0187
 3500ntf    sn219547   0.470   5.641   4.657 -0.0867 -0.0124  0.2343
 3500ntf    nn319548   0.417   5.767   4.734 -0.1327  0.2945 -0.2969
 3500ntf    sn219549   0.439   5.797   4.887 -0.0847 -0.3925 -0.1636
 3500ntf    cn119550   0.266   5.800   4.943 -0.1221 -0.1608 -0.2913
 3500ntf    fn419551   0.217   5.562   4.655  0.0426  0.1245 -0.1030
 3500ntf    fn419552   0.362   5.405   4.650  0.2673  0.3305 -0.8744
 3500ntf    fn419553   0.329   5.516   4.832  0.3671  0.0015  0.0537
 3500ntf    on519554   0.584   5.565   4.702 -0.5767 -0.5058  0.6715
 3500ntf    on519555   0.458   5.654   4.514  0.0447 -0.1062  0.2138
 3500ntf    on519556   0.490   5.932   4.890 -0.4089 -0.2728 -0.0647
 3500ntf    on519557   0.504   5.703   4.975  0.0739 -0.3343 -0.2174
 3500ntf    fn419558   0.263   5.847   5.067  0.6157 -0.1070 -0.2882
 3500ntf    fn419559   0.187   5.877   4.869 -0.2877  0.0979  0.1515
 3500ntf    fn419560   0.220   5.677   4.937 -0.6302  0.0280 -0.3323
 3501ntf    cn119561   4.539   4.882   6.767  0.3283  0.1295 -0.4109
 3501ntf    sn219562   4.505   5.049   6.832  0.0146 -0.0925  0.0010
 3501ntf    nn319563   4.383   5.081   6.739 -0.5261  0.6461  0.9579
 3501ntf    sn219564   4.389   5.141   6.594  0.0226 -0.3176  0.5760
 3501ntf    cn119565   4.392   5.319   6.630  0.3034 -0.1663 -0.1780
 3501ntf    fn419566   4.621   4.877   6.663  0.0905  0.4882 -0.6206
 3501ntf    fn419567   4.595   4.790   6.843 -0.1280 -0.1199 -0.3763
 3501ntf    fn419568   4.441   4.823   6.701 -0.0830  0.2630  0.0760
 3501ntf    on519569   4.465   5.036   6.969  0.4694 -0.9251  0.0647
 3501ntf    on519570   4.630   5.119   6.816 -0.0193 -0.1714 -0.6620
 3501ntf    on519571   4.262   5.122   6.527 -0.0581 -0.2807  0.7176
 3501ntf    on519572   4.512   5.112   6.525 -0.5659 -0.3312 -0.5056
 3501ntf    fn419573   4.513   5.371   6.621  0.0181  0.4662 -0.4048
 3501ntf    fn419574   4.308   5.385   6.551 -0.2960 -0.0788  0.5246
 3501ntf    fn419575   4.349   5.337   6.754  0.1240 -0.5226 -0.1856
 3502ntf    cn119576   5.935   0.704   4.655  0.4088 -0.7799 -0.2013
 3502ntf    sn219577   5.924   0.538   4.729  0.4362 -0.5424  0.3435
 3502ntf    nn319578   5.927   0.576   4.881  0.2834 -0.0232  0.2213
 3502ntf    sn219579   6.049   0.616   4.972  0.2258 -0.4017  0.4720
 3502ntf    cn119580   6.050   0.465   5.072  0.4814 -0.6972  0.0303
 3502ntf    fn419581   6.049   0.765   4.685 -0.1068  0.0863  0.0301
 3502ntf    fn419582   5.934   0.694   4.523 -0.2915 -0.5194 -0.2188
 3502ntf    fn419583   5.838   0.783   4.698  0.4551 -0.6527 -0.3289
 3502ntf    on519584   5.788   0.499   4.701  0.4044  0.0072 -0.3028
 3502ntf    on519585   6.037   0.471   4.669 -0.3747 -1.1013 -0.5909
 3502ntf    on519586   6.026   0.728   5.060 -0.2222  0.1931 -0.3795
 3502ntf    on519587   6.177   0.608   4.906  0.0745  0.0145  0.1181
 3502ntf    fn419588   6.154   0.456   5.153  0.1072 -0.3753  0.5582
 3502ntf    fn419589   5.944   0.467   5.153  0.3222  0.2899 -0.1891
 3502ntf    fn419590   6.042   0.361   4.991 -0.5288 -0.3338 -0.3501
 3503ntf    cn119591   2.369   1.427   4.911  0.1398  0.3545 -0.1786
 3503ntf    sn219592   2.273   1.373   4.766  0.1415  0.0633 -0.0719
 3503ntf    nn319593   2.295   1.219   4.788 -0.1958  0.0317  0.0533
 3503ntf    sn219594   2.197   1.120   4.860 -0.1610  0.0797  0.1671
 3503ntf    cn119595   2.319   1.020   4.951  0.0487  0.0186 -0.1785
 3503ntf    fn419596   2.419   1.548   4.894  0.1075  0.3399 -0.3891
 3503ntf    fn419597   2.297   1.430   5.022 -0.3599  0.0015 -0.4893
 3503ntf    fn419598   2.470   1.347   4.940 -0.0038  0.0072 -0.6139
 3503ntf    on519599   2.137   1.417   4.787 -0.1104 -1.0079  0.6319
 3503ntf    on519600   2.344   1.420   4.650  0.0438  0.2040 -0.0745
 3503ntf    on519601   2.135   1.019   4.778 -0.7770  0.7729 -0.2324
 3503ntf    on519602   2.117   1.175   4.967 -0.5248  0.6866 -0.4089
 3503ntf    fn419603   2.412   0.975   4.868  0.2423 -0.2578  0.1854
 3503ntf    fn419604   2.376   1.106   5.034 -0.3341  0.3860 -0.2892
 3503ntf    fn419605   2.278   0.923   5.031  0.0369  0.0149 -0.1887
 3504ntf    cn119606   1.420   4.922   6.412  0.3819 -0.1958  0.0968
 3504ntf    sn219607   1.312   5.018   6.302  0.3335 -0.2068  0.1352
 3504ntf    nn319608   1.198   4.913   6.329  0.0128  0.1675  0.2547
 3504ntf    sn219609   1.083   4.916   6.435  0.0566 -0.2719  0.3173
 3504ntf    cn119610   0.965   5.025   6.351  0.5762  0.0185 -0.0376
 3504ntf    fn419611   1.533   4.986   6.437  0.3299 -0.1003  0.0848
 3504ntf    fn419612   1.368   4.888   6.529  0.8563  0.3158  0.4620
 3504ntf    fn419613   1.450   4.805   6.358  0.4337 -0.1296 -0.0164
 3504ntf    on519614   1.298   5.149   6.360  0.3802 -0.2549  0.2542
 3504ntf    on519615   1.386   5.000   6.180  0.1631  0.4485 -0.0655
 3504ntf    on519616   1.103   4.990   6.557  0.3309  0.0607  0.0707
 3504ntf    on519617   1.019   4.787   6.448 -0.1984 -0.3039 -1.1036
 3504ntf    fn419618   0.924   4.985   6.232 -0.0798  0.9456 -0.1358
 3504ntf    fn419619   0.851   5.046   6.415  0.6025  0.4256 -0.1171
 3504ntf    fn419620   1.019   5.142   6.318  0.0526  0.1490 -0.4396
 3505ntf    cn119621   2.412   5.405   6.091  0.0010 -0.1866 -0.0844
 3505ntf    sn219622   2.457   5.358   5.921 -0.0176  0.0621 -0.1596
 3505ntf    nn319623   2.322   5.289   5.882 -0.3336  0.4828  0.1941
 3505ntf    sn219624   2.226   5.331   5.765  0.0186 -0.2985 -0.3811
 3505ntf    cn119625   2.283   5.210   5.642 -0.2963 -0.6539 -0.1744
 3505ntf    fn419626   2.517   5.452   6.156  0.3357  0.0520 -0.7891
 3505ntf    fn419627   2.318   5.498   6.097 -0.2529 -0.4104 -0.5105
 3505ntf    fn419628   2.365   5.308   6.167 -0.4184  0.1034  0.0331
 3505ntf    on519629   2.495   5.481   5.856 -0.2602  0.0677 -0.2913
 3505ntf    on519630   2.558   5.254   5.929  0.0216  0.0952 -0.2310
 3505ntf    on519631   2.245   5.462   5.706  0.0246 -0.2047 -0.1710
 3505ntf    on519632   2.094   5.281   5.794 -0.1338  0.4945  0.3327
 3505ntf    fn419633   2.413   5.208   5.622 -0.3549 -0.0558 -0.6403
 3505ntf    fn419634   2.250   5.093   5.695 -0.3367 -0.5972 -0.0734
 3505ntf    fn419635   2.226   5.210   5.523 -0.5085  0.2117 -0.0733
 3506ntf    cn119636   6.442   4.787   1.481 -0.3570 -0.0039 -0.0810
 3506ntf    sn219637   6.551   4.771   1.337  0.0142  0.0381  0.1929
 3506ntf    nn319638   6.691   4.793   1.403  0.0040 -0.0560  0.2467
 3506ntf    sn219639   6.776   4.925   1.388 -0.2656  0.0490 -0.3751
 3506ntf    cn119640   6.677   5.043   1.484  0.3680 -0.0054  0.3529
 3506ntf    fn419641   6.495   4.735   1.590  0.0253  0.1292 -0.2030
 3506ntf    fn419642   6.439   4.915   1.513 -0.5363 -0.0828  0.2213
 3506ntf    fn419643   6.319   4.742   1.463 -0.2430 -0.1884 -0.4056
 3506ntf    on519644   6.528   4.639   1.285 -0.4530  0.2756 -0.2187
 3506ntf    on519645   6.511   4.874   1.244 -0.2306 -0.3766 -0.1641
 3506ntf    on519646   6.789   4.981   1.256  0.2411  0.2762 -0.2316
 3506ntf    on519647   6.903   4.922   1.456 -0.3668  0.4254 -0.1681
 3506ntf    fn419648   6.670   5.013   1.613 -0.2353 -0.2514  0.2625
 3506ntf    fn419649   6.735   5.162   1.473 -0.0096  0.1545  0.0656
 3506ntf    fn419650   6.555   5.059   1.436  0.2819 -0.2775  0.4790
 3507ntf    cn119651   1.269   0.644   3.073  0.0027 -0.0075  0.3729
 3507ntf    sn219652   1.172   0.572   2.937  0.1833  0.0852  0.1940
 3507ntf    nn319653   1.220   0.423   2.940  0.3183  0.1306  0.3873
 3507ntf    sn219654   1.156   0.302   3.018  0.4030 -0.1689 -0.0012
 3507ntf    cn119655   1.311   0.216   3.057  0.3116 -0.4358 -0.2203
 3507ntf    fn419656   1.225   0.758   3.123  0.0673 -0.0277  0.4773
 3507ntf    fn419657   1.269   0.560   3.175  0.1227 -0.0019  0.3786
 3507ntf    fn419658   1.395   0.654   3.033 -0.0102  0.2184  0.3880
 3507ntf    on519659   1.038   0.598   2.983  0.1902  0.5132 -0.0197
 3507ntf    on519660   1.214   0.636   2.815  0.4991 -0.1348  0.1861
 3507ntf    on519661   1.080   0.207   2.940  0.3245 -0.2857  0.2180
 3507ntf    on519662   1.103   0.344   3.145  0.7921  0.2462  0.0253
 3507ntf    fn419663   1.277   0.127   3.149 -0.3948  0.0219 -0.0325
 3507ntf    fn419664   1.377   0.155   2.960 -0.1565 -0.1915 -0.6971
 3507ntf    fn419665   1.399   0.299   3.111  0.3455 -0.2137 -0.6095
 3508ntf    cn119666   7.034   3.706   2.825  0.2176  0.6012 -0.0660
 3508ntf    sn219667   6.920   3.795   2.936  0.1108 -0.2008  0.4755
 3508ntf    nn319668   7.006   3.923   2.965 -0.2834  0.1739 -0.0105
 3508ntf    sn219669   6.991   4.056   2.883  0.2200  0.0896 -0.2451
 3508ntf    cn119670   7.124   4.164   2.944  0.4385 -0.2689 -0.0850
 3508ntf    fn419671   7.158   3.689   2.866  0.2355 -0.2038 -0.4342
 3508ntf    fn419672   6.983   3.584   2.816  0.5998  0.4839 -0.6750
 3508ntf    fn419673   7.041   3.740   2.698 -0.2124 -0.3259 -0.3504
 3508ntf    on519674   6.798   3.803   2.860  0.4622  0.0770 -0.0614
 3508ntf    on519675   6.907   3.711   3.053 -0.1617  0.0304  0.6103
 3508ntf    on519676   6.879   4.139   2.922  0.4094  0.0717  0.3527
 3508ntf    on519677   7.015   4.050   2.741 -0.2318 -0.4705 -0.3010
 3508ntf    fn419678   7.246   4.115   2.937  0.4904 -0.1461 -0.0372
 3508ntf    fn419679   7.119   4.283   2.886 -0.1040 -0.0151  0.4597
 3508ntf    fn419680   7.108   4.194   3.072 -0.4339  0.1157 -0.2726
 3509ntf    cn119681   0.394   3.411   6.175 -0.1369  0.2519  0.0044
 3509ntf    sn219682   0.376   3.485   6.010 -0.1390  0.1041 -0.0628
 3509ntf    nn319683   0.522   3.540   6.002  0.0852 -0.4389  0.2297
 3509ntf    sn219684   0.637   3.490   5.907  0.1151 -0.1475  0.1086
 3509ntf    cn119685   0.775   3.588   5.974  0.1345 -0.1039  0.0039
 3509ntf    fn419686   0.401   3.505   6.268 -0.3845  0.1345  0.1421
 3509ntf    fn419687   0.290   3.337   6.208  0.5813 -0.5029  0.6179
 3509ntf    fn419688   0.500   3.332   6.182 -0.1027  0.2203 -0.7552
 3509ntf    on519689   0.343   3.379   5.917  0.0406  0.3167 -0.3714
 3509ntf    on519690   0.285   3.595   6.030  0.4263  0.5212  0.2485
 3509ntf    on519691   0.628   3.548   5.776  0.3116 -0.0060  0.1565
 3509ntf    on519692   0.686   3.355   5.922  0.2410 -0.1594 -0.3915
 3509ntf    fn419693   0.757   3.719   5.971 -0.3369 -0.1540  0.3845
 3509ntf    fn419694   0.797   3.568   6.103 -0.2799  0.0487  0.1006
 3509ntf    fn419695   0.885   3.556   5.909  0.1265 -0.1439  0.0105
 3510ntf    cn119696   6.096   1.790   5.107 -0.0547 -0.7156  0.5606
 3510ntf    sn219697   6.269   1.845   5.108 -0.2563 -0.0330 -0.3528
 3510ntf    nn319698   6.335   1.754   5.217 -0.6936 -0.0224 -0.0770
 3510ntf    sn219699   6.409   1.615   5.204 -0.1327  0.2785 -0.1407
 3510ntf    cn119700   6.578   1.661   5.156 -0.0763  0.1288 -0.0821
 3510ntf    fn419701   6.031   1.855   5.012  0.2767 -0.3168  0.6047
 3510ntf    fn419702   6.078   1.667   5.061 -0.2142 -0.4503 -0.0991
 3510ntf    fn419703   6.030   1.809   5.220 -0.8802 -0.4589  0.0425
 3510ntf    on519704   6.313   1.820   4.973  0.3970  0.1141 -0.1734
 3510ntf    on519705   6.254   1.983   5.144  0.2371  0.0515 -0.4562
 3510ntf    on519706   6.360   1.542   5.090 -0.0480  0.2737 -0.1740
 3510ntf    on519707   6.424   1.553   5.333  0.3377 -0.2656 -0.4553
 3510ntf    fn419708   6.595   1.743   5.054  0.2408  0.1669 -0.0006
 3510ntf    fn419709   6.641   1.722   5.255 -0.4320  0.7055 -0.2109
 3510ntf    fn419710   6.650   1.555   5.122  0.2589 -0.0163  1.0178
 3511ntf    cn119711   1.546   0.981   2.093 -0.1376 -0.1052 -0.2374
 3511ntf    sn219712   1.543   0.972   1.911  0.0050  0.3011 -0.2621
 3511ntf    nn319713   1.689   0.918   1.894 -0.1640 -0.1822 -0.2044
 3511ntf    sn219714   1.744   0.798   1.810  0.5219 -0.0052 -0.0188
 3511ntf    cn119715   1.856   0.892   1.702  0.1846  0.4679  0.0435
 3511ntf    fn419716   1.462   1.068   2.147  0.3255  0.2228 -0.0396
 3511ntf    fn419717   1.523   0.866   2.154  0.2685 -0.3324 -0.5076
 3511ntf    fn419718   1.661   1.032   2.136 -0.0823 -0.4932  0.0822
 3511ntf    on519719   1.440   0.871   1.898  0.1897  0.1077 -0.2241
 3511ntf    on519720   1.527   1.107   1.862  0.7244  0.4334 -0.1339
 3511ntf    on519721   1.647   0.740   1.720  0.2989  0.0079  0.2114
 3511ntf    on519722   1.831   0.705   1.878  0.1933 -0.2520  0.0676
 3511ntf    fn419723   1.876   0.821   1.593  0.2767 -0.2293  0.5105
 3511ntf    fn419724   1.819   1.016   1.673  0.1575  0.3787 -0.3098
 3511ntf    fn419725   1.974   0.903   1.761  0.3376  0.0065 -0.1787
 3512ntf    cn119726   4.371   6.941   4.897 -0.0700 -0.1950  0.0534
 3512ntf    sn219727   4.511   6.968   5.011 -0.1427 -0.2976  0.1678
 3512ntf    nn319728   4.445   7.072   5.109 -0.2918  0.3303 -0.5857
 3512ntf    sn219729   4.436   7.228   5.093  0.0305  0.4048 -0.0885
 3512ntf    cn119730   4.505   7.285   5.251 -0.4335 -0.0230  0.2703
 3512ntf    fn419731   4.311   7.059   4.895 -0.6543 -0.4938  0.0445
 3512ntf    fn419732   4.407   6.909   4.774  0.2462  0.2908  0.0133
 3512ntf    fn419733   4.282   6.857   4.946 -0.1286 -0.0289  0.2326
 3512ntf    on519734   4.520   6.837   5.069 -0.7095 -0.3224  0.2093
 3512ntf    on519735   4.620   7.011   4.928 -0.3812  0.2137  0.1129
 3512ntf    on519736   4.301   7.278   5.097  0.0752  0.5632 -0.5036
 3512ntf    on519737   4.524   7.294   5.000 -0.1483  0.0847 -0.4889
 3512ntf    fn419738   4.514   7.415   5.274 -0.6153  0.1180 -0.4386
 3512ntf    fn419739   4.446   7.225   5.353 -0.4941  0.2382  0.3900
 3512ntf    fn419740   4.634   7.255   5.252 -0.2181  0.8361 -0.3295
 3513ntf    cn119741   1.142   0.473   4.996  0.0013  0.1493 -0.1740
 3513ntf    sn219742   1.324   0.466   5.006 -0.0116  0.0364 -0.0244
 3513ntf    nn319743   1.344   0.592   5.098  0.2561  0.2361 -0.3566
 3513ntf    sn219744   1.442   0.606   5.220  0.0037 -0.0871 -0.1155
 3513ntf    cn119745   1.349   0.529   5.356 -0.3967  0.5524 -0.0240
 3513ntf    fn419746   1.100   0.380   4.913 -0.6074 -0.4231  0.7526
 3513ntf    fn419747   1.097   0.457   5.119  0.1549  0.0874 -0.1255
 3513ntf    fn419748   1.086   0.584   4.950 -0.0066  0.2168 -0.0028
 3513ntf    on519749   1.339   0.338   5.072  1.5891  0.2439  0.0316
 3513ntf    on519750   1.367   0.490   4.871 -0.5693  0.7544 -0.0809
 3513ntf    on519751   1.455   0.741   5.266  0.1966 -0.0567 -0.2591
 3513ntf    on519752   1.560   0.527   5.199  0.0208 -0.1355  0.1614
 3513ntf    fn419753   1.390   0.562   5.477  0.3353  0.1944 -0.1674
 3513ntf    fn419754   1.221   0.561   5.353 -0.5937 -0.2106  0.0207
 3513ntf    fn419755   1.348   0.397   5.346 -0.7214  0.5517 -0.0108
 3514ntf    cn119756   0.186   4.684   5.567 -0.3341  0.2558  0.3143
 3514ntf    sn219757   0.168   4.805   5.433 -0.1460  0.4269  0.4447
 3514ntf    nn319758   0.048   4.743   5.353  0.2646  0.6475 -0.3473
 3514ntf    sn219759   0.050   4.666   5.216  0.0097 -0.0331  0.0292
 3514ntf    cn119760  -0.065   4.782   5.137 -0.3107 -0.2935  0.1104
 3514ntf    fn419761   0.258   4.579   5.532 -0.1588  0.3961  0.2522
 3514ntf    fn419762   0.243   4.736   5.675 -0.5982  0.1893  0.4887
 3514ntf    fn419763   0.072   4.632   5.610 -0.4328 -0.5130 -0.8377
 3514ntf    on519764   0.132   4.931   5.495  0.5922  0.3161  1.1123
 3514ntf    on519765   0.299   4.791   5.375 -0.7799 -0.0717 -0.8942
 3514ntf    on519766  -0.016   4.538   5.214 -0.4179  0.1898 -0.3338
 3514ntf    on519767   0.173   4.672   5.142 -0.2578  0.1524 -0.4045
 3514ntf    fn419768  -0.041   4.909   5.165 -0.7099 -0.2117  0.0975
 3514ntf    fn419769  -0.070   4.769   5.005 -0.0433  0.1396  0.0561
 3514ntf    fn419770  -0.189   4.764   5.180 -0.4853 -0.1136 -0.3039
 3515ntf    cn119771   4.898   1.983   3.668  0.1383 -0.1088  0.0769
 3515ntf    sn219772   5.010   1.899   3.785  0.2877  0.0098  0.0193
 3515ntf    nn319773   5.155   1.948   3.751  0.1519  0.2207 -0.2700
 3515ntf    sn219774   5.260   1.896   3.646  0.3452 -0.0640  0.0590
 3515ntf    cn119775   5.396   1.837   3.751  0.2655  0.1823  0.3023
 3515ntf    fn419776   4.777   1.930   3.671  0.2166 -0.2593  0.7514
 3515ntf    fn419777   4.885   2.112   3.695 -0.4654 -0.0563 -0.4318
 3515ntf    fn419778   4.940   1.978   3.543  0.3593 -0.1144  0.1491
 3515ntf    on519779   4.958   1.962   3.904  0.1218  0.5666 -0.3425
 3515ntf    on519780   4.987   1.758   3.768 -0.0163  0.0300  0.2347
 3515ntf    on519781   5.317   2.005   3.572 -0.3360  0.3839  0.1794
 3515ntf    on519782   5.220   1.785   3.563 -0.2307 -0.0351  0.2901
 3515ntf    fn419783   5.504   1.781   3.700  0.0250  0.1235 -0.1471
 3515ntf    fn419784   5.442   1.938   3.822  0.5492  0.2702 -0.0054
 3515ntf    fn419785   5.346   1.744   3.832 -0.1340  0.1951  0.0748
 3516ntf    cn119786   4.082   6.160   5.096 -0.0564  0.0211  0.2727
 3516ntf    sn219787   3.904   6.171   5.135 -0.0808 -0.1401  0.2029
 3516ntf    nn319788   3.857   6.238   5.001 -0.0024 -0.2302  0.1297
 3516ntf    sn219789   3.720   6.221   4.927 -0.0936 -0.1076  0.2664
 3516ntf    cn119790   3.785   6.126   4.786 -0.1756 -0.1256  0.2404
 3516ntf    fn419791   4.159   6.173   5.202  0.0639  0.0396  0.1834
 3516ntf    fn419792   4.108   6.051   5.027 -0.3747 -0.0831  0.3147
 3516ntf    fn419793   4.129   6.252   5.013 -0.0984 -0.2724 -0.0779
 3516ntf    on519794   3.871   6.031   5.148  0.5155 -0.3252 -0.2162
 3516ntf    on519795   3.904   6.248   5.256  0.0269 -0.3158  0.3168
 3516ntf    on519796   3.673   6.342   4.865  0.5748  0.0719  0.1007
 3516ntf    on519797   3.621   6.135   4.987 -0.1811 -0.4551 -0.3629
 3516ntf    fn419798   3.838   6.210   4.699  0.1302  0.0924  0.6335
 3516ntf    fn419799   3.890   6.048   4.811 -0.2903 -0.3814 -0.0719
 3516ntf    fn419800   3.701   6.043   4.727 -0.3077  0.2256 -0.0649
 3517ntf    cn119801   5.018   0.463   0.692  0.3725 -0.3799  0.0635
 3517ntf    sn219802   5.074   0.528   0.852 -0.2529  0.0956  0.0917
 3517ntf    nn319803   5.093   0.391   0.926 -0.5381 -0.2034 -0.3799
 3517ntf    sn219804   5.026   0.352   1.062 -0.2286  0.4688 -0.0264
 3517ntf    cn119805   4.865   0.288   1.007 -0.0349  0.0541 -0.1177
 3517ntf    fn419806   4.980   0.561   0.612  0.9020  0.2498  0.5779
 3517ntf    fn419807   5.113   0.404   0.621  0.6971  0.2127  0.0049
 3517ntf    fn419808   4.924   0.371   0.712  0.2825 -0.3682 -0.2883
 3517ntf    on519809   5.196   0.590   0.806 -0.2216  0.1430  0.2402
 3517ntf    on519810   4.967   0.614   0.897 -0.3603  0.2254 -0.4023
 3517ntf    on519811   4.987   0.453   1.157 -0.5893 -0.0206  0.3575
 3517ntf    on519812   5.089   0.241   1.130 -0.1934  0.5017 -0.0056
 3517ntf    fn419813   4.791   0.247   1.109 -0.0732  0.1906 -0.0903
 3517ntf    fn419814   4.792   0.389   0.963 -0.5615 -0.5194 -0.5714
 3517ntf    fn419815   4.858   0.191   0.918 -0.4481 -0.3187  0.3135
 3518ntf    cn119816   4.522   2.487   6.880 -0.1366  0.2059 -0.4152
 3518ntf    sn219817   4.555   2.397   7.035  0.0027  0.3427 -0.3657
 3518ntf    nn319818   4.684   2.468   7.089 -0.1568  0.3145  0.0577
 3518ntf    sn219819   4.828   2.415   7.124 -0.3018  0.0182  0.2055
 3518ntf    cn119820   4.911   2.463   6.970  0.1436 -0.1241  0.4015
 3518ntf    fn419821   4.429   2.426   6.808 -0.5463  0.7174 -0.3252
 3518ntf    fn419822   4.481   2.608   6.915 -0.4011  0.0942 -0.3338
 3518ntf    fn419823   4.627   2.505   6.802  0.1587  0.2602 -0.0085
 3518ntf    on519824   4.450   2.433   7.127  0.1622  0.2080 -0.1322
 3518ntf    on519825   4.572   2.259   6.997 -0.0908  0.1582  0.2599
 3518ntf    on519826   4.842   2.272   7.125 -0.5592 -0.0255 -0.8176
 3518ntf    on519827   4.899   2.499   7.217 -0.3399  0.1013  0.1597
 3518ntf    fn419828   4.899   2.369   6.877 -0.0342  0.1192  0.1799
 3518ntf    fn419829   4.856   2.573   6.922 -0.0175 -0.2862  0.2150
 3518ntf    fn419830   5.041   2.472   6.996  0.2053  0.1556  0.0104
 3519ntf    cn119831   4.069   1.485   1.514  0.3304 -0.4431 -0.2730
 3519ntf    sn219832   3.936   1.373   1.461  0.1512 -0.4431  0.1724
 3519ntf    nn319833   3.807   1.457   1.493  0.0086 -0.9325  0.8934
 3519ntf    sn219834   3.664   1.463   1.428  0.4068  0.0441  0.0860
 3519ntf    cn119835   3.563   1.418   1.572  0.2888  0.1368  0.0315
 3519ntf    fn419836   4.069   1.602   1.453 -0.2497 -0.2600  0.0685
 3519ntf    fn419837   4.048   1.512   1.642  0.2507 -0.6368 -0.2455
 3519ntf    fn419838   4.193   1.438   1.506  0.5627  0.1139  0.0040
 3519ntf    on519839   3.967   1.337   1.325 -0.1704  0.1349 -0.0567
 3519ntf    on519840   3.946   1.266   1.557  0.1216 -0.3584  0.2703
 3519ntf    on519841   3.641   1.363   1.327  0.4170  0.0664  0.0614
 3519ntf    on519842   3.609   1.593   1.398  0.2381 -0.0438  0.0128
 3519ntf    fn419843   3.554   1.520   1.657  0.1130 -0.0042  0.1835
 3519ntf    fn419844   3.439   1.380   1.543  0.5276 -0.4585 -0.2107
 3519ntf    fn419845   3.611   1.317   1.642 -0.5880 -0.4212 -0.1518
 3520ntf    cn119846   6.905   0.319   0.270 -0.7165 -0.3913  0.1436
 3520ntf    sn219847   6.875   0.492   0.319  0.1512 -0.1653 -0.0965
 3520ntf    nn319848   6.724   0.495   0.276  0.1202 -0.2111  0.0065
 3520ntf    sn219849   6.594   0.463   0.359  0.1716 -0.2994  0.0517
 3520ntf    cn119850   6.475   0.431   0.226  0.0406  0.0234  0.0889
 3520ntf    fn419851   6.950   0.304   0.147 -0.3905  0.1974  0.1854
 3520ntf    fn419852   7.001   0.267   0.345 -0.5551  0.1203  0.2996
 3520ntf    fn419853   6.805   0.233   0.285 -0.8861 -0.1366  0.4944
 3520ntf    on519854   6.911   0.495   0.459  0.3571  0.5022 -0.1616
 3520ntf    on519855   6.960   0.571   0.234  0.2295  0.6093  0.6954
 3520ntf    on519856   6.530   0.579   0.417  0.1591 -0.2139 -0.1303
 3520ntf    on519857   6.604   0.336   0.425  0.2875 -0.3705 -0.1017
 3520ntf    fn419858   6.481   0.504   0.116  0.1706 -0.0974  0.0155
 3520ntf    fn419859   6.486   0.306   0.182 -0.3857  0.2128 -0.5766
 3520ntf    fn419860   6.350   0.424   0.269  0.0845 -0.2782  0.1724
 3521ntf    cn119861   6.978   4.853   4.136  0.1825  0.1566  0.2225
 3521ntf    sn219862   7.152   4.819   4.094  0.1958  0.3138  0.1478
 3521ntf    nn319863   7.226   4.909   4.199  0.8607 -0.1236  0.0566
 3521ntf    sn219864   7.273   4.879   4.346  0.3202 -0.1788  0.2203
 3521ntf    cn119865   7.175   4.998   4.443 -0.0261 -0.0910 -0.2345
 3521ntf    fn419866   6.892   4.789   4.059  1.1665 -0.3847 -0.4549
 3521ntf    fn419867   6.942   4.830   4.261 -0.0467 -0.0217  0.1230
 3521ntf    fn419868   6.940   4.977   4.107  0.2956 -0.0100 -0.6618
 3521ntf    on519869   7.173   4.678   4.116  0.2846  0.3378  0.2172
 3521ntf    on519870   7.160   4.869   3.959  0.4985  0.5115  0.2402
 3521ntf    on519871   7.412   4.917   4.350  0.2587  0.1482 -0.5421
 3521ntf    on519872   7.232   4.753   4.402 -0.2150  0.1027  0.4657
 3521ntf    fn419873   7.187   4.986   4.574  0.6644 -0.5740 -0.3338
 3521ntf    fn419874   7.195   5.124   4.408 -0.5341  0.0266 -0.1021
 3521ntf    fn419875   7.047   4.975   4.423 -0.0235 -0.2666 -0.0558
 3522ntf    cn119876   6.722   2.421   2.687  0.0241  0.1673 -0.4178
 3522ntf    sn219877   6.837   2.553   2.639  0.3594 -0.0222 -0.1439
 3522ntf    nn319878   6.772   2.669   2.722  0.1454  0.0196 -0.3699
 3522ntf    sn219879   6.825   2.732   2.855 -0.1077  0.2383 -0.3700
 3522ntf    cn119880   6.661   2.773   2.922  0.2069  0.0581  0.5252
 3522ntf    fn419881   6.751   2.315   2.613  0.2510 -0.2276  0.2216
 3522ntf    fn419882   6.731   2.374   2.810 -0.0104  0.0498 -0.4601
 3522ntf    fn419883   6.600   2.469   2.669 -0.2441 -0.3876 -0.1149
 3522ntf    on519884   6.970   2.507   2.672  0.5071  0.4908 -0.0207
 3522ntf    on519885   6.806   2.564   2.499  0.2987 -0.9832 -0.2125
 3522ntf    on519886   6.884   2.864   2.847 -0.7950  0.5682 -0.0642
 3522ntf    on519887   6.885   2.639   2.948 -0.2874  0.3534 -0.1377
 3522ntf    fn419888   6.572   2.675   2.925  0.1592  0.0665 -0.5203
 3522ntf    fn419889   6.666   2.819   3.046 -0.3235  0.5029  0.3838
 3522ntf    fn419890   6.619   2.871   2.845 -0.0671 -0.1529  0.4073
 3523ntf    cn119891   1.395   2.869   5.331 -0.0074  0.0773 -0.1067
 3523ntf    sn219892   1.358   3.017   5.429 -0.1658 -0.2094  0.2680
 3523ntf    nn319893   1.401   3.130   5.329  0.4866 -0.3915  0.3398
 3523ntf    sn219894   1.498   3.251   5.356 -0.1181  0.1837 -0.0522
 3523ntf    cn119895   1.427   3.374   5.243 -0.2947  0.2893  0.1726
 3523ntf    fn419896   1.523   2.846   5.305 -0.1061 -0.6673  0.0263
 3523ntf    fn419897   1.351   2.765   5.400  0.1163  0.2183  0.1869
 3523ntf    fn419898   1.329   2.864   5.217  0.7410 -0.3101 -0.5366
 3523ntf    on519899   1.215   3.005   5.448 -0.2459  0.2945  0.0006
 3523ntf    on519900   1.440   3.010   5.548  0.5854 -0.1764 -0.2460
 3523ntf    on519901   1.621   3.212   5.292  0.1628 -0.2538  0.7466
 3523ntf    on519902   1.492   3.320   5.483 -0.2811 -0.0012  0.0414
 3523ntf    fn419903   1.521   3.464   5.218  0.4932 -0.6256 -0.2082
 3523ntf    fn419904   1.393   3.318   5.127  0.3537  0.0921  0.0738
 3523ntf    fn419905   1.318   3.433   5.289 -0.0061  0.9109  0.0750
 3524ntf    cn119906   0.739   6.999   7.040 -0.3119  0.1797  0.5471
 3524ntf    sn219907   0.657   7.066   7.188 -0.2222  0.1412  0.6142
 3524ntf    nn319908   0.519   6.994   7.167 -0.0498 -0.1803  0.5824
 3524ntf    sn219909   0.373   7.052   7.164 -0.1185 -0.3592  0.4066
 3524ntf    cn119910   0.347   7.129   7.327  0.3961 -0.2912  0.4613
 3524ntf    fn419911   0.673   7.027   6.929  0.0911 -0.0981  0.2316
 3524ntf    fn419912   0.868   7.028   7.031 -0.2196 -0.1808  0.6744
 3524ntf    fn419913   0.750   6.868   7.044 -0.1939  0.1831  0.3208
 3524ntf    on519914   0.744   7.015   7.291  0.2287 -0.0294  0.1537
 3524ntf    on519915   0.661   7.206   7.156  0.1162 -0.0923 -0.3879
 3524ntf    on519916   0.276   6.946   7.167 -0.0961 -0.4026 -0.2509
 3524ntf    on519917   0.352   7.160   7.071  0.2497 -0.4129  0.2576
 3524ntf    fn419918   0.229   7.190   7.328  0.5014 -0.0952  0.7136
 3524ntf    fn419919   0.354   7.036   7.420 -0.0227 -0.1654  0.6258
 3524ntf    fn419920   0.433   7.222   7.363  0.2762 -0.1108  0.2856
 3525ntf    cn119921   7.194   4.505   0.422 -0.3220  0.0258 -0.5646
 3525ntf    sn219922   7.164   4.357   0.524 -0.3121  0.3959 -0.0253
 3525ntf    nn319923   7.127   4.266   0.402  0.3906  0.4427 -0.2744
 3525ntf    sn219924   7.206   4.153   0.327 -0.1454 -0.1908  0.1091
 3525ntf    cn119925   7.148   4.006   0.417 -0.0457 -0.2042  0.1512
 3525ntf    fn419926   7.281   4.594   0.465 -0.3191 -0.4786  0.4973
 3525ntf    fn419927   7.228   4.462   0.301  0.2706 -0.4933 -0.2210
 3525ntf    fn419928   7.080   4.568   0.397 -0.4769  0.0243  0.1136
 3525ntf    on519929   7.283   4.314   0.592 -0.3896 -0.2313 -0.2847
 3525ntf    on519930   7.056   4.376   0.619  0.3394 -0.3638  0.8816
 3525ntf    on519931   7.350   4.151   0.340 -0.2088 -0.6404  0.7885
 3525ntf    on519932   7.143   4.135   0.198 -0.2876 -0.3075  0.1957
 3525ntf    fn419933   7.017   4.002   0.400  0.0085 -0.8255 -0.1566
 3525ntf    fn419934   7.193   3.896   0.360 -0.2229 -0.2059  0.0107
 3525ntf    fn419935   7.170   3.992   0.546  0.2190  0.2081  0.1552
 3526ntf    cn119936   0.495   5.842   6.104 -0.1859  0.3638 -0.0934
 3526ntf    sn219937   0.359   5.862   6.223 -0.0872 -0.2926  0.1305
 3526ntf    nn319938   0.421   5.790   6.348  0.3371 -0.4849 -0.1871
 3526ntf    sn219939   0.506   5.849   6.466  0.0964 -0.4451 -0.0336
 3526ntf    cn119940   0.367   5.867   6.582  0.2708  0.4984  0.0368
 3526ntf    fn419941   0.469   5.884   5.981  1.0362  0.1141 -0.4477
 3526ntf    fn419942   0.599   5.911   6.147 -0.4800  0.6348  0.1931
 3526ntf    fn419943   0.542   5.720   6.090 -0.0280  0.4618 -0.4278
 3526ntf    on519944   0.337   6.004   6.214  0.2731 -0.2479 -0.0555
 3526ntf    on519945   0.254   5.785   6.160 -0.5015  0.4532 -0.1014
 3526ntf    on519946   0.556   5.984   6.455 -0.0615 -0.2984  0.9196
 3526ntf    on519947   0.598   5.760   6.532  0.1419 -0.1217  0.3458
 3526ntf    fn419948   0.386   5.956   6.679 -0.2039  0.0481  0.5493
 3526ntf    fn419949   0.260   5.914   6.520 -0.1434 -0.0152  0.3586
 3526ntf    fn419950   0.328   5.757   6.643 -0.0964  0.5725 -0.0605
 3527ntf    cn119951   6.717   0.566   3.363 -0.4521 -0.0868 -0.1350
 3527ntf    sn219952   6.609   0.519   3.225 -0.1016  0.1449 -0.4894
 3527ntf    nn319953   6.691   0.394   3.178  0.2176  0.2499 -0.2140
 3527ntf    sn219954   6.650   0.243   3.162  0.1511  0.2609 -0.1464
 3527ntf    cn119955   6.601   0.249   2.987  0.1385  0.0934 -0.1487
 3527ntf    fn419956   6.685   0.675   3.431  0.5353  0.1394 -0.0191
 3527ntf    fn419957   6.723   0.476   3.460  0.1346 -0.5775 -0.6169
 3527ntf    fn419958   6.841   0.586   3.320 -0.1548 -0.4095  0.5488
 3527ntf    on519959   6.482   0.490   3.287 -0.1394  0.8049 -0.2496
 3527ntf    on519960   6.611   0.632   3.136  0.0482  0.5392  0.0098
 3527ntf    on519961   6.530   0.201   3.229  0.0655 -0.2028 -0.5879
 3527ntf    on519962   6.761   0.151   3.151 -0.2791 -0.2815  0.0084
 3527ntf    fn419963   6.530   0.357   2.961 -0.2107 -0.1976 -0.4020
 3527ntf    fn419964   6.710   0.262   2.914 -0.0231  0.2453 -0.3637
 3527ntf    fn419965   6.535   0.140   2.953 -0.0479  0.1094  0.1574
 3528ntf    cn119966   5.460   4.768   1.570  0.4875 -0.0954 -0.0292
 3528ntf    sn219967   5.576   4.784   1.431  0.1315 -0.2786 -0.3517
 3528ntf    nn319968   5.688   4.678   1.459  0.2013 -0.0606  0.2021
 3528ntf    sn219969   5.812   4.628   1.376  0.1195 -0.1461  0.1306
 3528ntf    cn119970   5.936   4.754   1.421 -0.0009  0.0281 -0.0266
 3528ntf    fn419971   5.349   4.832   1.538  0.6442  0.2054  0.0353
 3528ntf    fn419972   5.421   4.644   1.598 -0.8128  0.4435  0.6056
 3528ntf    fn419973   5.503   4.826   1.680  0.2523  0.2375 -0.1117
 3528ntf    on519974   5.493   4.741   1.321 -0.9966  0.4554  0.1932
 3528ntf    on519975   5.619   4.921   1.424 -0.3184 -0.1025  0.2455
 3528ntf    on519976   5.815   4.643   1.233 -0.3904  0.0259  0.1372
 3528ntf    on519977   5.864   4.506   1.435 -0.2921 -0.6467 -0.5288
 3528ntf    fn419978   6.049   4.724   1.359  0.0591  0.4016 -0.0974
 3528ntf    fn419979   5.901   4.875   1.382 -0.5266 -0.1366 -0.0722
 3528ntf    fn419980   5.963   4.768   1.550 -0.2976  0.1022  0.0300
 3529ntf    cn119981   2.556   0.051   6.258 -0.3725 -0.2913 -0.2090
 3529ntf    sn219982   2.519  -0.077   6.134  0.0774 -0.3639 -0.2701
 3529ntf    nn319983   2.487  -0.200   6.226 -0.2549 -0.1351 -0.0787
 3529ntf    sn219984   2.358  -0.263   6.290 -0.3435  0.0588 -0.0680
 3529ntf    cn119985   2.371  -0.436   6.235 -0.4545 -0.0189  0.1493
 3529ntf    fn419986   2.560   0.172   6.203 -0.0268  0.0565  0.5697
 3529ntf    fn419987   2.485   0.053   6.370 -0.2700  0.7132 -0.1510
 3529ntf    fn419988   2.679   0.037   6.303 -0.1806  0.9098 -0.3119
 3529ntf    on519989   2.410  -0.008   6.070 -0.0115 -0.0186  0.2454
 3529ntf    on519990   2.635  -0.096   6.050  0.4369  0.1307  0.1094
 3529ntf    on519991   2.232  -0.210   6.244 -0.5069  0.1027  0.4251
 3529ntf    on519992   2.372  -0.286   6.432 -0.7968 -0.0874 -0.0435
 3529ntf    fn419993   2.282  -0.515   6.293 -0.6836  0.5543  0.5929
 3529ntf    fn419994   2.357  -0.449   6.104 -0.1992  0.5147  0.0691
 3529ntf    fn419995   2.492  -0.479   6.266  0.0049  0.2989 -1.1443
 3530ntf    cn119996   6.906   0.436   1.559  0.0411  0.2041  0.0640
 3530ntf    sn219997   6.869   0.569   1.677 -0.1357 -0.0664  0.3167
 3530ntf    nn319998   6.779   0.481   1.770 -0.3536 -0.3265 -0.1408
 3530ntf    sn219999   6.784   0.456   1.925  0.1165  0.2076 -0.0685
 3530ntf    cn120000   6.780   0.275   1.917  0.2690  0.1966  0.0995
 3530ntf    fn420001   6.837   0.323   1.573 -0.1002  0.3130  0.2552
 3530ntf    fn420002   6.891   0.467   1.432  0.0890  0.0720  0.0255
 3530ntf    fn420003   7.034   0.405   1.570  0.1005  0.4742  0.1455
 3530ntf    on520004   7.000   0.602   1.729  0.3733 -0.0800 -0.9257
 3530ntf    on520005   6.796   0.667   1.601  0.4689 -0.0607 -0.2637
 3530ntf    on520006   6.659   0.491   1.989 -0.0686 -0.1289 -0.2428
 3530ntf    on520007   6.906   0.488   1.994 -0.0454 -0.1604  0.3962
 3530ntf    fn420008   6.750   0.215   2.032  0.1099  0.1692  0.0442
 3530ntf    fn420009   6.711   0.216   1.820  0.1912  0.0838  0.2226
 3530ntf    fn420010   6.900   0.230   1.886 -0.2324 -0.4037 -1.0230
 3531ntf    cn120011   6.331   6.906   6.034  0.2066 -0.1780 -0.2088
 3531ntf    sn220012   6.437   7.047   6.080 -0.0789  0.0531 -0.2539
 3531ntf    nn320013   6.559   7.001   5.992 -0.2281 -0.2148 -0.3211
 3531ntf    sn220014   6.713   7.003   6.020 -0.2796 -0.1936 -0.0374
 3531ntf    cn120015   6.715   6.856   6.128 -0.3014  0.4354  0.8249
 3531ntf    fn420016   6.208   6.913   6.082  0.1556  0.4638 -0.4249
 3531ntf    fn420017   6.316   6.879   5.905  0.1254 -0.1827 -0.1983
 3531ntf    fn420018   6.383   6.794   6.079  0.3152  0.2008  0.6247
 3531ntf    on520019   6.363   7.164   6.039  0.2931  0.2443 -0.3816
 3531ntf    on520020   6.451   7.026   6.222 -0.1775 -0.1336 -0.2712
 3531ntf    on520021   6.770   7.110   6.099 -0.0451 -0.1609 -0.2515
 3531ntf    on520022   6.785   6.956   5.904  0.2203 -0.8370  0.5247
 3531ntf    fn420023   6.828   6.788   6.134 -0.1975  0.4771 -0.4631
 3531ntf    fn420024   6.680   6.881   6.254 -0.0469  0.5136  0.8815
 3531ntf    fn420025   6.629   6.768   6.079  0.3624  0.3416 -0.1796
 3532ntf    cn120026   6.403   1.464   2.214 -0.1961  0.2853  0.0818
 3532ntf    sn220027   6.247   1.385   2.164  0.0281 -0.1502  0.0702
 3532ntf    nn320028   6.214   1.289   2.284  0.0176 -0.1084  0.1008
 3532ntf    sn220029   6.146   1.149   2.297 -0.1775 -0.0050  0.2073
 3532ntf    cn120030   6.052   1.167   2.452 -0.2149  0.2779  0.1504
 3532ntf    fn420031   6.447   1.551   2.125  0.4898 -0.0584  0.0824
 3532ntf    fn420032   6.381   1.524   2.330  0.2602  0.0035  0.3168
 3532ntf    fn420033   6.505   1.386   2.245 -0.8712 -0.4962  0.3536
 3532ntf    on520034   6.158   1.498   2.167 -0.1247 -0.2786  0.4287
 3532ntf    on520035   6.280   1.329   2.035  0.9944  0.0221  0.2344
 3532ntf    on520036   6.244   1.046   2.325 -0.3020 -0.0670  0.4218
 3532ntf    on520037   6.044   1.115   2.200 -0.2354 -0.2691  0.3594
 3532ntf    fn420038   5.951   1.082   2.456 -0.2621  0.3229 -0.0578
 3532ntf    fn420039   6.126   1.161   2.561 -0.0559 -0.0546  0.0263
 3532ntf    fn420040   5.986   1.282   2.452 -0.7562 -0.0273 -0.4013
 3533ntf    cn120041   3.187   3.067   4.069 -0.0933 -0.0609 -0.2998
 3533ntf    sn220042   3.300   2.924   4.082  0.0863  0.1223  0.1995
 3533ntf    nn320043   3.197   2.816   4.130  0.7472 -0.6082 -0.0140
 3533ntf    sn220044   3.111   2.730   4.031  0.2259  0.0796 -0.1644
 3533ntf    cn120045   3.234   2.629   3.943 -0.3403 -0.4941 -0.3109
 3533ntf    fn420046   3.246   3.177   4.027 -0.3250  0.1508 -0.0689
 3533ntf    fn420047   3.086   3.052   3.985 -0.2328 -0.4080 -0.0730
 3533ntf    fn420048   3.136   3.096   4.188 -0.2640 -0.4522 -0.2759
 3533ntf    on520049   3.359   2.909   3.951  0.4908 -0.4398  0.4436
 3533ntf    on520050   3.392   2.968   4.184  0.4648 -0.0581 -0.0606
 3533ntf    on520051   3.041   2.793   3.921  0.3065 -0.2813 -0.4264
 3533ntf    on520052   3.030   2.635   4.104  0.4922  0.1385  0.2090
 3533ntf    fn420053   3.265   2.672   3.822  0.2732  0.3602  0.1380
 3533ntf    fn420054   3.348   2.624   4.009 -0.1430  0.2744 -0.5848
 3533ntf    fn420055   3.206   2.501   3.925 -0.1758 -0.5182 -0.3966
 3534ntf    cn120056   5.274   2.829   1.118  0.0455  0.2863 -0.3806
 3534ntf    sn220057   5.223   2.689   1.012  0.1355 -0.1422  0.1394
 3534ntf    nn320058   5.067   2.698   1.002  0.1271 -0.2029  0.2197
 3534ntf    sn220059   4.978   2.788   0.909  0.2361 -0.1819  0.1368
 3534ntf    cn120060   4.888   2.668   0.806 -0.0842  0.0822  0.1075
 3534ntf    fn420061   5.230   2.809   1.241 -0.5649  0.3829 -0.5761
 3534ntf    fn420062   5.406   2.835   1.126  0.0430 -0.1153  0.0201
 3534ntf    fn420063   5.233   2.946   1.073 -0.3695  0.1511 -0.3582
 3534ntf    on520064   5.294   2.718   0.890  0.5542 -0.4200  0.3142
 3534ntf    on520065   5.284   2.585   1.091  0.1696 -0.2950 -0.0893
 3534ntf    on520066   5.050   2.864   0.809  0.0301 -0.0486  0.0887
 3534ntf    on520067   4.885   2.867   0.985  0.3353  0.1240 -0.0587
 3534ntf    fn420068   4.848   2.564   0.878  0.1603  0.3060  0.5730
 3534ntf    fn420069   4.775   2.710   0.752 -0.1487 -0.0034  0.1740
 3534ntf    fn420070   4.973   2.621   0.715  0.0294  0.7183 -0.1223
 3535ntf    cn120071   2.800   1.147   1.485  0.3669  0.1086  0.0313
 3535ntf    sn220072   2.639   1.170   1.404  0.2343 -0.3570  0.1639
 3535ntf    nn320073   2.537   1.101   1.502  0.1978 -0.5130  0.0174
 3535ntf    sn220074   2.463   1.166   1.624  0.1541  0.1490 -0.3562
 3535ntf    cn120075   2.535   1.061   1.753 -0.3711  0.2469  0.0176
 3535ntf    fn420076   2.786   1.185   1.611 -0.1012 -0.4174  0.1408
 3535ntf    fn420077   2.828   1.018   1.475  0.0114  0.0650 -0.4005
 3535ntf    fn420078   2.904   1.214   1.436  0.1389  0.8899  0.5943
 3535ntf    on520079   2.617   1.311   1.390  0.8793 -0.3086 -0.4579
 3535ntf    on520080   2.652   1.089   1.285  0.5463  0.0985 -0.1128
 3535ntf    on520081   2.322   1.137   1.625  0.1396  0.2351  0.6183
 3535ntf    on520082   2.498   1.299   1.668 -0.2849 -0.0877  0.7347
 3535ntf    fn420083   2.535   0.933   1.719 -0.2641  0.1630  0.3242
 3535ntf    fn420084   2.665   1.079   1.769 -0.1235 -0.9650 -0.5572
 3535ntf    fn420085   2.472   1.070   1.870 -0.5318 -0.2801 -0.0268
 3536ntf    cn120086   5.354   0.201   4.078 -0.2484 -0.4073  0.0918
 3536ntf    sn220087   5.302   0.176   4.251  0.5233  0.2171  0.4247
 3536ntf    nn320088   5.341   0.312   4.318 -0.0593  0.4769  0.2491
 3536ntf    sn220089   5.326   0.346   4.470  0.1067  0.0438  0.3630
 3536ntf    cn120090   5.246   0.508   4.449  0.3981  0.1497  0.0621
 3536ntf    fn420091   5.485   0.220   4.075 -0.3133 -0.0146 -0.2425
 3536ntf    fn420092   5.336   0.094   4.002 -0.1923 -0.2422 -0.1539
 3536ntf    fn420093   5.300   0.301   4.011  0.0458  0.1288  0.6434
 3536ntf    on520094   5.160   0.168   4.223  0.6970  0.6402 -0.6333
 3536ntf    on520095   5.387   0.064   4.281  0.9514  0.4135 -0.0343
 3536ntf    on520096   5.453   0.377   4.531  0.1392 -0.1557  0.3972
 3536ntf    on520097   5.229   0.269   4.545 -0.3465 -0.1461 -0.4127
 3536ntf    fn420098   5.310   0.594   4.371 -0.5098  0.5251 -0.2842
 3536ntf    fn420099   5.129   0.488   4.390  0.1532 -0.2776  0.6793
 3536ntf    fn420100   5.215   0.564   4.565 -0.7379 -0.2297 -0.0430
 3537ntf    cn120101   2.750   3.549   6.006  0.1480 -0.1475 -0.0345
 3537ntf    sn220102   2.895   3.442   6.035  0.1602 -0.0965  0.0935
 3537ntf    nn320103   3.016   3.540   6.057 -0.3361  0.4695  0.3230
 3537ntf    sn220104   3.098   3.615   5.946 -0.1412 -0.3229 -0.0704
 3537ntf    cn120105   3.049   3.790   5.954 -0.5114 -0.4309  0.0479
 3537ntf    fn420106   2.739   3.647   6.094 -0.2340 -0.2171 -0.0048
 3537ntf    fn420107   2.764   3.610   5.890 -0.5720 -0.1253 -0.1134
 3537ntf    fn420108   2.637   3.480   6.013  0.0829 -0.0718 -0.3321
 3537ntf    on520109   2.855   3.383   6.160 -0.1647  0.3573  0.2083
 3537ntf    on520110   2.906   3.353   5.922 -0.2650  0.1524 -0.1478
 3537ntf    on520111   3.067   3.580   5.809 -0.3644  0.0110 -0.1087
 3537ntf    on520112   3.235   3.624   5.987 -0.2349  0.5525  0.0715
 3537ntf    fn420113   3.110   3.842   6.059 -0.6236  0.3035 -0.2444
 3537ntf    fn420114   3.090   3.843   5.840 -0.0734  0.1079  0.4509
 3537ntf    fn420115   2.917   3.803   5.957 -0.5349 -0.7956  0.7296
 3538ntf    cn120116   0.620   4.348   7.125 -0.2491 -0.2177  0.2008
 3538ntf    sn220117   0.524   4.437   6.999  0.3845  0.3006  0.0791
 3538ntf    nn320118   0.428   4.325   6.945  0.0825  0.6276 -0.0611
 3538ntf    sn220119   0.272   4.318   6.927  0.0911  0.0557  0.0673
 3538ntf    cn120120   0.259   4.216   6.777  0.1276  0.1051  0.0303
 3538ntf    fn420121   0.699   4.256   7.071  0.1986 -0.1039  0.6496
 3538ntf    fn420122   0.696   4.427   7.199 -0.2851  0.2625 -0.2783
 3538ntf    fn420123   0.544   4.285   7.213 -0.2226  0.1843  0.5124
 3538ntf    on520124   0.463   4.546   7.071 -0.5565 -0.2088  0.0729
 3538ntf    on520125   0.624   4.464   6.898 -0.1903  0.8946 -0.3361
 3538ntf    on520126   0.204   4.442   6.899 -0.2648 -0.1119  0.1946
 3538ntf    on520127   0.215   4.237   7.032  0.6267 -0.3657  0.0425
 3538ntf    fn420128   0.321   4.272   6.674 -0.0225 -0.0602 -0.1512
 3538ntf    fn420129   0.308   4.095   6.797 -0.1724 -0.0320 -0.0648
 3538ntf    fn420130   0.131   4.206   6.744  0.2510  0.4020 -0.5526
 3539ntf    cn120131   4.117   7.137   3.998 -0.1734  0.1447 -0.4149
 3539ntf    sn220132   4.100   7.206   4.166 -0.0669 -0.2234 -0.2507
 3539ntf    nn320133   4.126   7.071   4.242 -0.1662 -0.0899  0.0207
 3539ntf    sn220134   4.189   7.051   4.384 -0.2289 -0.1443  0.0405
 3539ntf    cn120135   4.358   7.002   4.339 -0.2458  0.1228 -0.3171
 3539ntf    fn420136   4.027   7.041   3.982 -0.5206  0.3190  0.4197
 3539ntf    fn420137   4.105   7.229   3.904 -0.1820  0.3706 -0.1951
 3539ntf    fn420138   4.234   7.080   3.973  0.0296  0.2260  0.3214
 3539ntf    on520139   4.198   7.310   4.181 -0.2363 -0.0802 -0.1409
 3539ntf    on520140   3.961   7.240   4.186  0.0669  0.3671 -0.3014
 3539ntf    on520141   4.140   6.926   4.438 -0.9409  0.0457 -0.1645
 3539ntf    on520142   4.212   7.162   4.473  0.2227 -0.0860 -0.1468
 3539ntf    fn420143   4.371   6.882   4.284  0.8467  0.0219  0.1162
 3539ntf    fn420144   4.407   7.086   4.249  0.6613  0.0606  0.1039
 3539ntf    fn420145   4.440   7.008   4.443 -0.1821  0.3798 -0.3824
 3540ntf    cn120146   4.545   2.777   0.989 -0.5444  0.5012  0.1129
 3540ntf    sn220147   4.373   2.718   0.992 -0.3871  0.0354  0.0289
 3540ntf    nn320148   4.399   2.578   0.926 -0.1287  0.2594 -0.3524
 3540ntf    sn220149   4.374   2.515   0.785 -0.6961  0.4381 -0.3349
 3540ntf    cn120150   4.535   2.439   0.747 -0.7669  0.1504 -0.0618
 3540ntf    fn420151   4.574   2.876   1.072  0.6024  0.2553  0.0115
 3540ntf    fn420152   4.631   2.679   1.012 -0.3306  0.6555 -0.0222
 3540ntf    fn420153   4.585   2.829   0.874  0.7731 -0.5664  0.0770
 3540ntf    on520154   4.326   2.714   1.128 -0.1827 -0.8310  0.0813
 3540ntf    on520155   4.304   2.812   0.906 -0.4820  0.4745  0.5843
 3540ntf    on520156   4.357   2.603   0.672  0.4204  0.5990 -0.3948
 3540ntf    on520157   4.283   2.405   0.805  0.1405 -0.1284  0.4435
 3540ntf    fn420158   4.634   2.510   0.799  0.2740 -0.6213 -0.9355
 3540ntf    fn420159   4.540   2.317   0.799  0.3089  0.2947  0.1895
 3540ntf    fn420160   4.557   2.426   0.617  0.6845 -0.3866  0.2240
 3541ntf    cn120161   0.792   5.784   1.984  0.0190  0.0845 -0.4807
 3541ntf    sn220162   0.709   5.770   2.146  0.2362  0.1194 -0.3665
 3541ntf    nn320163   0.562   5.811   2.110  0.1471 -0.2702 -0.4500
 3541ntf    sn220164   0.428   5.730   2.115  0.0765 -0.1209  0.1626
 3541ntf    cn120165   0.385   5.749   2.291  0.4096  0.3718  0.1922
 3541ntf    fn420166   0.917   5.745   2.004 -0.1583 -0.1045  0.2979
 3541ntf    fn420167   0.733   5.713   1.890 -0.1586 -0.6873  0.1969
 3541ntf    fn420168   0.812   5.907   1.940  0.1353  0.2582  0.0465
 3541ntf    on520169   0.725   5.633   2.186 -0.5305  0.4241  1.0290
 3541ntf    on520170   0.774   5.876   2.221 -0.5022  0.1926  0.1766
 3541ntf    on520171   0.431   5.588   2.090 -0.3026 -0.1610  0.3308
 3541ntf    on520172   0.319   5.795   2.046  0.5243  0.2534 -0.2009
 3541ntf    fn420173   0.408   5.876   2.323  0.3283  0.3985  0.1484
 3541ntf    fn420174   0.255   5.732   2.312  0.4120 -0.6304 -0.5284
 3541ntf    fn420175   0.454   5.673   2.374  0.5041  0.0097 -0.2126
 3542ntf    cn120176   5.979   4.907   5.783 -0.0042  0.2721  0.2756
 3542ntf    sn220177   5.917   4.919   5.954 -0.2747  0.0536  0.1923
 3542ntf    nn320178   5.893   4.766   5.982 -0.0312 -0.0515 -0.1662
 3542ntf    sn220179   5.992   4.665   6.051  0.0073 -0.0265 -0.1849
 3542ntf    cn120180   5.949   4.503   5.981  0.1669 -0.0211 -0.2948
 3542ntf    fn420181   6.101   4.858   5.787 -0.1679 -0.2101 -0.4296
 3542ntf    fn420182   5.921   4.815   5.708  0.4092 -0.0913  0.3978
 3542ntf    fn420183   5.978   5.022   5.718 -0.4405 -0.1116 -0.4073
 3542ntf    on520184   6.026   4.975   6.029 -0.0200 -0.2628  0.0627
 3542ntf    on520185   5.800   5.001   5.933 -0.2681 -0.1419 -0.6562
 3542ntf    on520186   5.958   4.656   6.191  0.0465  0.1587 -0.1621
 3542ntf    on520187   6.130   4.677   6.009  0.0551 -0.3981 -0.1315
 3542ntf    fn420188   5.821   4.476   5.995  0.2629 -0.3094  0.0356
 3542ntf    fn420189   5.982   4.496   5.853 -0.0901  0.0280 -0.3643
 3542ntf    fn420190   6.018   4.407   6.040 -0.3515 -0.1159  0.1661
 3543ntf    cn120191   4.513   0.788   1.622 -0.3917 -0.0570 -0.3649
 3543ntf    sn220192   4.676   0.868   1.629 -0.5011  0.1503 -0.1706
 3543ntf    nn320193   4.674   0.948   1.494 -0.0761  0.3023 -0.0884
 3543ntf    sn220194   4.599   1.086   1.484 -0.2044  0.2549  0.2048
 3543ntf    cn120195   4.723   1.195   1.562  0.4207 -0.1865 -0.1685
 3543ntf    fn420196   4.490   0.683   1.700 -0.5368 -0.0187 -0.3543
 3543ntf    fn420197   4.410   0.871   1.636 -0.2159  0.1379 -0.2191
 3543ntf    fn420198   4.498   0.741   1.499 -0.0573 -0.5114 -0.2313
 3543ntf    on520199   4.680   0.951   1.747  0.0011 -0.1803  0.0466
 3543ntf    on520200   4.763   0.753   1.626  0.5663  0.9466 -0.1829
 3543ntf    on520201   4.471   1.100   1.549 -0.0210 -0.7802  0.8150
 3543ntf    on520202   4.600   1.140   1.350 -0.4283  0.3974  0.2588
 3543ntf    fn420203   4.674   1.316   1.585  0.8760 -0.0483  0.0896
 3543ntf    fn420204   4.761   1.162   1.684 -0.0601  0.4819  0.1660
 3543ntf    fn420205   4.826   1.223   1.484  0.0839  0.8783 -0.2393
 3544ntf    cn120206   0.420   1.530   4.982  0.4783  0.4439 -0.2206
 3544ntf    sn220207   0.549   1.418   4.917  0.0738 -0.1712  0.0305
 3544ntf    nn320208   0.651   1.519   4.853 -0.2998  0.3483  0.2453
 3544ntf    sn220209   0.800   1.549   4.892 -0.1382 -0.0934 -0.0311
 3544ntf    cn120210   0.867   1.415   4.788 -0.2059 -0.4464  0.3755
 3544ntf    fn420211   0.327   1.472   5.055  0.7231 -0.4095 -0.5666
 3544ntf    fn420212   0.467   1.623   5.064 -0.2317  0.5491  0.0745
 3544ntf    fn420213   0.361   1.590   4.880  0.1773 -0.5969 -0.6727
 3544ntf    on520214   0.598   1.341   5.028  0.0762 -0.1730  0.0282
 3544ntf    on520215   0.480   1.349   4.810  0.2936 -0.2048 -0.0885
 3544ntf    on520216   0.847   1.525   5.027 -0.1375 -0.3310 -0.0718
 3544ntf    on520217   0.840   1.669   4.823 -0.3250 -0.3634 -0.6165
 3544ntf    fn420218   0.805   1.416   4.671 -0.0090 -0.1993  0.2716
 3544ntf    fn420219   0.996   1.433   4.765 -0.3926  0.1687 -0.2351
 3544ntf    fn420220   0.857   1.291   4.831 -0.6587 -0.8799 -0.9287
 3545ntf    cn120221   7.212   1.601   4.503  0.0404  0.1744 -0.2836
 3545ntf    sn220222   7.174   1.442   4.423 -0.2269 -0.0771  0.3422
 3545ntf    nn320223   7.078   1.372   4.526 -0.0723 -0.4382  0.2407
 3545ntf    sn220224   6.953   1.280   4.505 -0.1464 -0.2578 -0.1086
 3545ntf    cn120225   6.923   1.238   4.679  0.3902  0.1299  0.0802
 3545ntf    fn420226   7.115   1.659   4.570  0.4778  0.5518  0.0314
 3545ntf    fn420227   7.304   1.583   4.597 -0.5860 -0.2759  0.2509
 3545ntf    fn420228   7.269   1.694   4.428  0.2226 -0.2562 -0.6847
 3545ntf    on520229   7.119   1.484   4.297  0.1283  0.2176  0.2843
 3545ntf    on520230   7.309   1.393   4.420  0.0663  0.6800  0.7404
 3545ntf    on520231   6.990   1.149   4.456  0.3848 -0.2869  0.3531
 3545ntf    on520232   6.829   1.338   4.460 -0.0093  0.4666  0.4353
 3545ntf    fn420233   6.986   1.129   4.718  0.5969  0.2078 -0.0385
 3545ntf    fn420234   6.943   1.346   4.753 -0.4630  0.4138 -0.0856
 3545ntf    fn420235   6.795   1.203   4.684  0.2610  0.4349 -0.8762
 3546ntf    cn120236   4.249   0.300   1.031  0.5537  0.0204  0.1103
 3546ntf    sn220237   4.183   0.451   0.954 -0.2347 -0.2941  0.1569
 3546ntf    nn320238   4.031   0.414   0.952 -0.1348 -0.7081  0.0290
 3546ntf    sn220239   3.928   0.420   0.833 -0.2065 -0.3602  0.1074
 3546ntf    cn120240   3.943   0.249   0.772  0.2336 -0.3091  0.0714
 3546ntf    fn420241   4.227   0.302   1.161  0.5133  0.1202  0.1020
 3546ntf    fn420242   4.194   0.190   0.983  0.2160  0.1248  0.2571
 3546ntf    fn420243   4.380   0.285   1.025  0.5651  0.0450  0.3008
 3546ntf    on520244   4.219   0.560   1.041  0.6692 -0.8440  0.4925
 3546ntf    on520245   4.250   0.445   0.826  0.4896 -0.2547  0.5311
 3546ntf    on520246   3.954   0.513   0.726 -0.3636  0.2319  0.5783
 3546ntf    on520247   3.795   0.420   0.888 -0.1390  0.1711  0.2790
 3546ntf    fn420248   3.859   0.233   0.671  0.0255  0.6443  0.0787
 3546ntf    fn420249   4.061   0.230   0.715  0.0853  0.5506 -0.5455
 3546ntf    fn420250   3.934   0.152   0.860 -0.4378 -0.1258  0.2095
 3547ntf    cn120251   6.242   4.005   6.483  0.4873 -0.2204  0.1465
 3547ntf    sn220252   6.225   3.852   6.579 -0.1644 -0.0404  0.3179
 3547ntf    nn320253   6.074   3.811   6.559 -0.2588  0.0469  0.8412
 3547ntf    sn220254   6.008   3.671   6.537  0.1607 -0.0087 -0.1008
 3547ntf    cn120255   5.969   3.638   6.712  0.1637 -0.1944 -0.1354
 3547ntf    fn420256   6.176   3.990   6.369  0.3377 -0.0923  0.2163
 3547ntf    fn420257   6.170   4.104   6.532 -0.1696 -0.1322 -0.9584
 3547ntf    fn420258   6.364   4.046   6.451  0.2963  0.3334  0.1218
 3547ntf    on520259   6.321   3.759   6.525  0.0751  0.5582 -0.2990
 3547ntf    on520260   6.241   3.906   6.712 -0.2945  0.3204  0.1871
 3547ntf    on520261   6.095   3.557   6.521 -0.2013 -0.3245  0.1458
 3547ntf    on520262   5.882   3.673   6.468  0.1527  0.3577 -0.0753
 3547ntf    fn420263   5.919   3.517   6.731 -0.1005 -0.1127 -0.3084
 3547ntf    fn420264   6.076   3.633   6.789  0.2652  0.0816 -0.2597
 3547ntf    fn420265   5.881   3.724   6.759  0.6657  0.2575 -0.0251
 3548ntf    cn120266   5.129   0.835   6.078  0.5147 -0.1686 -0.2602
 3548ntf    sn220267   5.090   0.766   5.915 -0.1887 -0.2790 -0.0461
 3548ntf    nn320268   5.168   0.630   5.912  0.3277  0.0101  0.2200
 3548ntf    sn220269   5.307   0.610   5.842  0.1100 -0.2681 -0.1351
 3548ntf    cn120270   5.380   0.520   5.982  0.0683  0.1677  0.1681
 3548ntf    fn420271   5.256   0.869   6.095  0.4098  0.1556 -0.1073
 3548ntf    fn420272   5.065   0.951   6.089  0.3241 -0.2379 -0.6480
 3548ntf    fn420273   5.090   0.771   6.187  0.2935  0.0585 -0.2049
 3548ntf    on520274   4.946   0.752   5.924 -0.2348  0.2098 -0.0082
 3548ntf    on520275   5.137   0.869   5.825 -0.1533  0.1535  0.4642
 3548ntf    on520276   5.398   0.720   5.824 -0.1354  0.0116  0.3060
 3548ntf    on520277   5.303   0.510   5.738 -0.6948 -0.3314 -0.0496
 3548ntf    fn420278   5.340   0.560   6.102  0.6394 -0.0273  0.4240
 3548ntf    fn420279   5.348   0.392   5.966  0.5872  0.0974 -0.3120
 3548ntf    fn420280   5.512   0.522   5.975  0.0334  0.8297 -0.3530
 3549ntf    cn120281   2.212   6.321   5.722  0.2691 -0.4637 -0.3007
 3549ntf    sn220282   2.307   6.450   5.636 -0.3119  0.2583  0.1274
 3549ntf    nn320283   2.221   6.575   5.678  0.0508  0.6007 -0.1421
 3549ntf    sn220284   2.230   6.666   5.805 -0.0555  0.0285  0.2746
 3549ntf    cn120285   2.059   6.642   5.863 -0.1603  0.2879  0.0736
 3549ntf    fn420286   2.105   6.295   5.648 -0.2383 -0.5474  0.4484
 3549ntf    fn420287   2.281   6.209   5.725  0.6580 -0.2222 -0.1820
 3549ntf    fn420288   2.181   6.354   5.846  0.6782 -0.1658 -0.2754
 3549ntf    on520289   2.433   6.440   5.705 -0.1728 -0.4382 -0.2251
 3549ntf    on520290   2.311   6.412   5.497 -0.0224  0.4613  0.0781
 3549ntf    on520291   2.232   6.807   5.774 -0.3323 -0.0222  0.0225
 3549ntf    on520292   2.313   6.617   5.913  0.3242  0.4392  0.1695
 3549ntf    fn420293   1.970   6.674   5.771 -0.2274 -0.9300 -0.3086
 3549ntf    fn420294   2.027   6.519   5.902 -0.2422  0.3364  0.1585
 3549ntf    fn420295   2.033   6.714   5.971 -0.7011  0.5459 -0.2251
 3550ntf    cn120296   0.265   4.910   6.436  0.1292 -0.0143  0.2928
 3550ntf    sn220297   0.345   4.830   6.578  0.1472 -0.0040  0.2878
 3550ntf    nn320298   0.335   4.682   6.528  0.6236  0.1587 -0.3029
 3550ntf    sn220299   0.452   4.583   6.493  0.4447 -0.1125 -0.1364
 3550ntf    cn120300   0.496   4.628   6.323  0.4277  0.0418 -0.0992
 3550ntf    fn420301   0.141   4.872   6.413  0.0086  0.4508  0.1578
 3550ntf    fn420302   0.261   5.042   6.448 -0.5064  0.0693 -0.7077
 3550ntf    fn420303   0.334   4.889   6.326 -0.3985 -0.1030 -0.0237
 3550ntf    on520304   0.475   4.889   6.595  0.2499 -0.2234  0.2659
 3550ntf    on520305   0.250   4.856   6.684 -0.6019  0.5338 -0.5089
 3550ntf    on520306   0.393   4.451   6.487  0.6866 -0.2101 -0.3682
 3550ntf    on520307   0.574   4.601   6.567  0.3700 -0.0399 -0.0309
 3550ntf    fn420308   0.578   4.538   6.271 -0.1486 -0.4746 -0.1273
 3550ntf    fn420309   0.392   4.628   6.241  0.8293  0.3955 -0.6163
 3550ntf    fn420310   0.557   4.746   6.317  0.2402  0.1137 -0.6182
 3551ntf    cn120311   6.175   3.703   3.306  0.1615  0.3138  0.4841
 3551ntf    sn220312   6.064   3.837   3.251  0.0204  0.0585  0.1446
 3551ntf    nn320313   5.949   3.822   3.357  0.2488 -0.6818  0.2972
 3551ntf    sn220314   5.934   3.896   3.495 -0.0400 -0.2082  0.0154
 3551ntf    cn120315   5.764   3.848   3.536 -0.1869  0.5069  0.2605
 3551ntf    fn420316   6.285   3.686   3.234 -0.4422 -0.3241 -0.3077
 3551ntf    fn420317   6.215   3.739   3.427  0.9483  0.3907  0.2074
 3551ntf    fn420318   6.121   3.583   3.301  0.2347  0.3024 -0.1226
 3551ntf    on520319   6.137   3.960   3.269  0.1971 -0.1416  0.8565
 3551ntf    on520320   6.030   3.794   3.118  0.5914 -0.3626  0.1277
 3551ntf    on520321   5.924   4.040   3.488 -0.6322 -0.2590 -0.2354
 3551ntf    on520322   6.009   3.845   3.607 -0.0504 -0.4031 -0.0648
 3551ntf    fn420323   5.734   3.885   3.660 -0.7989  0.4918  0.1179
 3551ntf    fn420324   5.665   3.897   3.464 -0.1008  0.5165  0.1492
 3551ntf    fn420325   5.756   3.716   3.542 -0.0382  0.4971  0.2348
 3552ntf    cn120326   7.205   2.880   5.644  0.0498 -0.3325 -0.1470
 3552ntf    sn220327   7.351   2.778   5.681  0.2785 -0.0138 -0.1643
 3552ntf    nn320328   7.287   2.640   5.720  0.2117  0.2692  0.7467
 3552ntf    sn220329   7.155   2.625   5.803 -0.3115  0.3700 -0.0561
 3552ntf    cn120330   7.149   2.446   5.836 -0.3859  0.4791  0.5381
 3552ntf    fn420331   7.113   2.827   5.566  0.1208 -0.6688 -0.0031
 3552ntf    fn420332   7.147   2.901   5.761  0.9503  0.6023  0.1482
 3552ntf    fn420333   7.239   3.001   5.601  0.2759 -0.1160  0.6205
 3552ntf    on520334   7.425   2.758   5.559  0.7793 -0.3734  0.1963
 3552ntf    on520335   7.418   2.853   5.784  0.5997 -0.1411 -0.2807
 3552ntf    on520336   7.035   2.649   5.726 -0.1993  0.4280 -0.2125
 3552ntf    on520337   7.172   2.690   5.931  0.2698  0.3877 -0.1402
 3552ntf    fn420338   7.240   2.411   5.925  0.4251 -0.2283 -0.5348
 3552ntf    fn420339   7.034   2.401   5.883 -0.0972 -0.0864  0.7041
 3552ntf    fn420340   7.178   2.368   5.733  0.4039  0.3310  0.8664
 3553ntf    cn120341   3.914   4.589   0.927 -0.5263  0.1255  0.7016
 3553ntf    sn220342   3.967   4.693   0.788 -0.2168 -0.1969  0.5770
 3553ntf    nn320343   4.110   4.715   0.849 -0.0923  0.2278  0.1410
 3553ntf    sn220344   4.245   4.760   0.783 -0.2249  0.3789 -0.0303
 3553ntf    cn120345   4.227   4.941   0.777  0.1628  0.4109 -0.1940
 3553ntf    fn420346   3.990   4.482   0.938 -0.3096  0.1956 -0.1073
 3553ntf    fn420347   3.905   4.664   1.036 -1.0551  0.4957  0.4104
 3553ntf    fn420348   3.793   4.538   0.909 -0.1920 -0.3428 -0.2410
 3553ntf    on520349   3.969   4.612   0.669  0.0730  0.2221  0.2922
 3553ntf    on520350   3.877   4.807   0.786 -0.1967 -0.1874 -0.3947
 3553ntf    on520351   4.254   4.727   0.643 -0.3984 -0.0385  0.0537
 3553ntf    on520352   4.362   4.741   0.866 -0.5125 -0.1030  0.2700
 3553ntf    fn420353   4.180   4.994   0.888  0.1194 -0.5192  0.2451
 3553ntf    fn420354   4.342   5.002   0.750  0.2805  0.3710  0.2100
 3553ntf    fn420355   4.140   4.969   0.681 -0.3808 -0.1489  0.1270
 3554ntf    cn120356   3.658   7.191   6.620  0.0325  0.3564 -0.0787
 3554ntf    sn220357   3.660   7.356   6.545  0.0755  0.4068  0.0335
 3554ntf    nn320358   3.583   7.332   6.410  0.3119  0.1663 -0.0584
 3554ntf    sn220359   3.431   7.367   6.397  0.1992 -0.2564  0.1212
 3554ntf    cn120360   3.445   7.539   6.341 -0.0368 -0.2560  0.0619
 3554ntf    fn420361   3.714   7.179   6.739  0.1401 -0.5295 -0.2100
 3554ntf    fn420362   3.538   7.137   6.634 -0.0765  0.5888 -0.1123
 3554ntf    fn420363   3.720   7.106   6.540 -0.2868  0.1292 -0.0846
 3554ntf    on520364   3.589   7.436   6.642  0.1528  0.6126 -0.0773
 3554ntf    on520365   3.799   7.388   6.523  0.1597  0.1704  0.2165
 3554ntf    on520366   3.347   7.368   6.514 -0.5194 -0.2973 -0.3844
 3554ntf    on520367   3.377   7.302   6.279  0.7342 -0.0119 -0.2598
 3554ntf    fn420368   3.507   7.542   6.224 -0.8219  0.4759 -0.3531
 3554ntf    fn420369   3.327   7.598   6.326  0.1943  0.2837  0.3659
 3554ntf    fn420370   3.508   7.613   6.430 -0.7014  0.0123  0.3160
 3555ntf    cn120371   2.810   3.356   2.291  0.0017  0.3985  0.1425
 3555ntf    sn220372   2.984   3.312   2.264 -0.1271 -0.0918  0.0858
 3555ntf    nn320373   3.048   3.451   2.227 -0.0034 -0.1331  0.1426
 3555ntf    sn220374   3.067   3.518   2.086 -0.0104 -0.4189  0.0055
 3555ntf    cn120375   3.236   3.469   2.038 -0.0135  0.0564 -0.4965
 3555ntf    fn420376   2.747   3.398   2.183 -0.4431  0.3506  0.3771
 3555ntf    fn420377   2.734   3.254   2.328  0.2475  0.1102 -0.1447
 3555ntf    fn420378   2.784   3.448   2.383 -0.7174  0.4292 -0.0828
 3555ntf    on520379   3.045   3.260   2.384  0.6283 -0.2422 -0.3561
 3555ntf    on520380   2.980   3.219   2.154 -0.1150 -0.2189  0.1935
 3555ntf    on520381   3.077   3.662   2.090 -0.7411 -0.3580 -0.2068
 3555ntf    on520382   2.982   3.465   1.982 -0.0621  0.0979 -0.2169
 3555ntf    fn420383   3.248   3.471   1.906  0.3392 -0.1129 -0.4668
 3555ntf    fn420384   3.317   3.559   2.090 -0.1138 -0.3870  0.4457
 3555ntf    fn420385   3.263   3.350   2.089 -0.0743  0.2073 -0.1070
 3556ntf    cn120386   2.031   1.012   6.544 -0.4260 -0.1597 -0.1108
 3556ntf    sn220387   1.981   1.159   6.638 -0.4306  0.0722 -0.4718
 3556ntf    nn320388   2.121   1.231   6.647 -0.7301  0.6183 -0.0913
 3556ntf    sn220389   2.169   1.356   6.565  0.2141  0.0237 -0.4567
 3556ntf    cn120390   2.212   1.467   6.703  0.7908 -0.7228 -0.0268
 3556ntf    fn420391   2.110   0.934   6.615  0.0515 -0.0874 -0.5552
 3556ntf    fn420392   1.928   0.939   6.504 -1.0111  0.5468  0.0914
 3556ntf    fn420393   2.093   1.036   6.429  0.0722  0.0971  0.2043
 3556ntf    on520394   1.875   1.221   6.562 -0.5582  0.3443 -0.0774
 3556ntf    on520395   1.942   1.097   6.762 -0.5231 -0.1857 -0.6294
 3556ntf    on520396   2.076   1.437   6.491 -0.1302  0.0032 -0.0512
 3556ntf    on520397   2.295   1.339   6.496  0.0096 -0.0875 -0.8039
 3556ntf    fn420398   2.119   1.473   6.796  0.1788 -1.0847 -0.5993
 3556ntf    fn420399   2.320   1.436   6.773  0.6601 -0.7012  0.1850
 3556ntf    fn420400   2.222   1.592   6.663 -0.3716 -0.4252  0.5955
 3557ntf    cn120401   2.489   6.142   3.797  0.2016  0.0068 -0.0348
 3557ntf    sn220402   2.382   6.166   3.652  0.0807  0.3077  0.1036
 3557ntf    nn320403   2.242   6.105   3.683  0.1646 -0.1414 -0.3867
 3557ntf    sn220404   2.117   6.191   3.727  0.1967 -0.2924  0.0102
 3557ntf    cn120405   2.057   6.259   3.570  0.4089  0.0468  0.0754
 3557ntf    fn420406   2.614   6.177   3.771  0.2147 -0.1817 -0.2266
 3557ntf    fn420407   2.447   6.208   3.904 -0.6016 -0.0571 -0.3021
 3557ntf    fn420408   2.509   6.016   3.830 -0.3721 -0.1301 -0.2029
 3557ntf    on520409   2.375   6.306   3.618 -0.5251  0.3045  0.2113
 3557ntf    on520410   2.444   6.085   3.550  0.4074  0.3132  0.2957
 3557ntf    on520411   2.136   6.304   3.814 -0.1040 -0.3167  0.1069
 3557ntf    on520412   2.013   6.099   3.766  0.2370  0.0231  0.8600
 3557ntf    fn420413   2.142   6.343   3.513 -0.1670  0.3302 -0.3902
 3557ntf    fn420414   2.037   6.163   3.481 -0.1557 -0.2016  0.4662
 3557ntf    fn420415   1.943   6.326   3.578  0.2924 -0.1208 -0.1800
 3558ntf    cn120416   0.642   0.285   4.181 -0.0009  0.3328 -0.1367
 3558ntf    sn220417   0.533   0.179   4.082  0.3108 -0.2995  0.1905
 3558ntf    nn320418   0.626   0.053   4.063  0.4418 -0.1331 -0.3032
 3558ntf    sn220419   0.591  -0.098   4.085 -0.1181  0.1115  0.5674
 3558ntf    cn120420   0.634  -0.115   4.261  0.1368 -0.1290  0.4835
 3558ntf    fn420421   0.580   0.393   4.225 -0.7533 -0.0725 -0.1899
 3558ntf    fn420422   0.686   0.234   4.295  0.1176 -0.2882 -0.4551
 3558ntf    fn420423   0.748   0.326   4.113  0.4372  0.4681  0.6145
 3558ntf    on520424   0.421   0.164   4.171  0.4170 -0.2545  0.3320
 3558ntf    on520425   0.512   0.260   3.965 -0.5368  0.0610  0.5857
 3558ntf    on520426   0.684  -0.188   4.020 -0.1285 -0.1488  0.9078
 3558ntf    on520427   0.452  -0.135   4.076 -0.1777  0.6133 -0.8040
 3558ntf    fn420428   0.591  -0.013   4.334 -0.5357 -0.3133  0.3501
 3558ntf    fn420429   0.590  -0.228   4.313 -0.4613 -0.1180  0.0149
 3558ntf    fn420430   0.765  -0.120   4.277  0.2504 -0.5358 -0.4702
 3559ntf    cn120431   1.803   0.291   1.038 -0.1458  0.2059 -0.1656
 3559ntf    sn220432   1.651   0.280   1.137  0.0243  0.0822  0.0829
 3559ntf    nn320433   1.631   0.432   1.173 -0.2592  0.0282  0.1539
 3559ntf    sn220434   1.667   0.494   1.313  0.6018  0.1258 -0.1034
 3559ntf    cn120435   1.679   0.665   1.254 -0.0358  0.1581 -0.1505
 3559ntf    fn420436   1.784   0.343   0.918  0.3965  0.2481 -0.2371
 3559ntf    fn420437   1.905   0.353   1.096 -0.1436  0.0870 -0.0417
 3559ntf    fn420438   1.843   0.166   1.024 -0.0185  0.3210 -0.8535
 3559ntf    on520439   1.548   0.240   1.045 -0.3114  0.7839  0.1416
 3559ntf    on520440   1.687   0.183   1.238  1.0543  0.5894  0.2228
 3559ntf    on520441   1.799   0.457   1.358  0.4183 -0.5497 -0.0997
 3559ntf    on520442   1.558   0.502   1.407  0.7289  0.8479 -0.0117
 3559ntf    fn420443   1.621   0.750   1.337 -0.1048 -0.3201  0.2968
 3559ntf    fn420444   1.807   0.695   1.238 -0.0346  0.1954 -0.0704
 3559ntf    fn420445   1.626   0.687   1.135  0.1328  0.5338 -0.1576
 3560ntf    cn120446   3.642   2.629   1.593 -0.0388  0.1359  0.0783
 3560ntf    sn220447   3.763   2.506   1.649 -0.3615 -0.1021  0.2530
 3560ntf    nn320448   3.870   2.615   1.683  0.1711 -0.7199  0.5758
 3560ntf    sn220449   4.008   2.638   1.611  0.0880 -0.1852  0.5845
 3560ntf    cn120450   4.124   2.554   1.722  0.1878  0.2083  0.7802
 3560ntf    fn420451   3.688   2.702   1.493  0.0702  0.6545  0.5040
 3560ntf    fn420452   3.524   2.578   1.563 -0.1021  0.3835 -0.1066
 3560ntf    fn420453   3.620   2.713   1.692  0.6047  0.1231  0.2404
 3560ntf    on520454   3.716   2.438   1.767  0.6901 -0.5532  0.4216
 3560ntf    on520455   3.795   2.424   1.534 -0.3718 -0.1159  0.2600
 3560ntf    on520456   4.047   2.775   1.629  0.2807 -0.2565  0.7057
 3560ntf    on520457   4.018   2.582   1.478  0.1740  0.5956  0.2586
 3560ntf    fn420458   4.111   2.422   1.730  0.2326  0.0960 -0.7275
 3560ntf    fn420459   4.251   2.580   1.696 -0.0140 -0.1094 -0.6095
 3560ntf    fn420460   4.094   2.607   1.839 -0.1302  0.5433  0.5483
 3561ntf    cn120461   7.173   6.391   7.139  0.5766  0.1851 -0.2116
 3561ntf    sn220462   7.305   6.415   7.262  0.3032 -0.3554  0.1942
 3561ntf    nn320463   7.235   6.417   7.402  0.3402  0.0667  0.2071
 3561ntf    sn220464   7.168   6.542   7.470 -0.0628 -0.0768  0.0790
 3561ntf    cn120465   7.289   6.586   7.599 -0.0657 -0.0352  0.0673
 3561ntf    fn420466   7.063   6.459   7.167  0.5224 -0.3459  0.9377
 3561ntf    fn420467   7.214   6.406   7.014  0.1643 -0.0804 -0.3828
 3561ntf    fn420468   7.140   6.263   7.153  0.0055  0.3347 -0.1969
 3561ntf    on520469   7.383   6.296   7.236  0.8263 -0.0079  0.1632
 3561ntf    on520470   7.366   6.533   7.206 -0.1062 -0.1872  0.0993
 3561ntf    on520471   7.055   6.498   7.547 -0.2837 -0.6345 -0.5550
 3561ntf    on520472   7.163   6.665   7.395  0.6950 -0.3947 -0.5191
 3561ntf    fn420473   7.339   6.475   7.650  0.0815 -0.2400 -0.5104
 3561ntf    fn420474   7.391   6.658   7.556 -0.3511  0.5482  0.3609
 3561ntf    fn420475   7.231   6.660   7.692  0.4487  0.3047  0.1219
 3562ntf    cn120476   1.077   1.411   0.643 -0.4532 -0.4395  0.0987
 3562ntf    sn220477   1.011   1.580   0.641  0.2896 -0.1427  0.3173
 3562ntf    nn320478   0.857   1.557   0.661  0.1027  0.5084 -0.3235
 3562ntf    sn220479   0.731   1.539   0.569  0.0148  0.1959 -0.1439
 3562ntf    cn120480   0.618   1.456   0.684  0.1244 -0.1084 -0.2551
 3562ntf    fn420481   1.043   1.327   0.546  0.5446 -0.2601 -0.4156
 3562ntf    fn420482   1.209   1.411   0.635 -0.4512  0.2255  0.0802
 3562ntf    fn420483   1.052   1.358   0.762 -0.2497 -0.1555  0.2682
 3562ntf    on520484   1.075   1.635   0.758 -0.1213 -0.5487  0.7377
 3562ntf    on520485   1.044   1.634   0.512  0.0296  0.0469  0.3283
 3562ntf    on520486   0.749   1.451   0.456 -0.1207  0.2748 -0.2267
 3562ntf    on520487   0.668   1.664   0.536  0.2533  0.2946 -0.2236
 3562ntf    fn420488   0.666   1.342   0.733  0.1165  0.0507  0.1215
 3562ntf    fn420489   0.572   1.519   0.790 -0.5329 -0.0788 -0.5503
 3562ntf    fn420490   0.504   1.418   0.628 -0.0658 -0.0503  0.0895
 3563ntf    cn120491   5.989   5.256   1.484  0.0569  0.2912 -0.3443
 3563ntf    sn220492   6.126   5.203   1.377  0.2220  0.0303 -0.0048
 3563ntf    nn320493   6.218   5.330   1.388 -0.1166  0.2510  0.2813
 3563ntf    sn220494   6.317   5.391   1.282 -0.1962 -0.0342  0.0413
 3563ntf    cn120495   6.425   5.487   1.392  0.0138 -0.3801  0.1398
 3563ntf    fn420496   5.902   5.158   1.501 -0.3601  0.7639  0.2663
 3563ntf    fn420497   6.018   5.309   1.601  0.3391 -0.3931 -0.0969
 3563ntf    fn420498   5.924   5.359   1.432 -0.1320  0.2073 -0.2784
 3563ntf    on520499   6.173   5.089   1.451  0.2478 -0.1409 -0.2839
 3563ntf    on520500   6.068   5.173   1.249  0.0500  0.3523 -0.0023
 3563ntf    on520501   6.261   5.487   1.190  0.0310 -0.7688 -0.8760
 3563ntf    on520502   6.405   5.292   1.226  0.3540  0.3482  0.2314
 3563ntf    fn420503   6.360   5.575   1.466 -0.5950 -0.0033 -0.8273
 3563ntf    fn420504   6.488   5.413   1.482  0.3249  0.3091  0.4962
 3563ntf    fn420505   6.528   5.537   1.325 -0.2233 -0.9548 -0.6600
 3564ntf    cn120506   1.384   5.302   2.159 -0.0175 -0.0746  0.1974
 3564ntf    sn220507   1.468   5.150   2.103 -0.1089  0.1242 -0.4883
 3564ntf    nn320508   1.591   5.141   2.200 -0.2408 -0.5144 -0.3765
 3564ntf    sn220509   1.744   5.128   2.164 -0.1398  0.2299 -0.2319
 3564ntf    cn120510   1.749   4.964   2.242 -0.6231  0.1860 -0.2883
 3564ntf    fn420511   1.332   5.299   2.280  0.0722  0.3114  0.2473
 3564ntf    fn420512   1.464   5.407   2.151 -0.1015 -0.0604 -0.5361
 3564ntf    fn420513   1.283   5.332   2.079 -0.1264 -0.3971  0.2105
 3564ntf    on520514   1.367   5.054   2.141  0.1505  0.3192  0.7512
 3564ntf    on520515   1.492   5.173   1.963  0.1256  0.8641 -0.3333
 3564ntf    on520516   1.837   5.207   2.241  0.3218 -0.8426  0.3307
 3564ntf    on520517   1.777   5.099   2.027 -0.5332  0.1420 -0.3098
 3564ntf    fn420518   1.711   4.963   2.369  0.1074 -0.5078 -0.0678
 3564ntf    fn420519   1.675   4.873   2.180 -0.1354 -0.5387  0.1714
 3564ntf    fn420520   1.874   4.922   2.249 -0.5386  0.3649 -0.7201
 3565ntf    cn120521   0.590   7.009   0.549  0.0660  0.3401  0.3933
 3565ntf    sn220522   0.763   6.980   0.597  0.1144  0.0186  0.0325
 3565ntf    nn320523   0.800   7.114   0.671  0.8305 -0.4389  0.5133
 3565ntf    sn220524   0.785   7.134   0.826  0.1616  0.3415  0.3553
 3565ntf    cn120525   0.954   7.102   0.886 -0.0539 -0.8942  0.3167
 3565ntf    fn420526   0.532   7.069   0.651 -0.1180  0.1497  0.4002
 3565ntf    fn420527   0.574   7.077   0.436 -0.1704  0.0686  0.2619
 3565ntf    fn420528   0.521   6.897   0.534  0.2740  0.3443 -0.7053
 3565ntf    on520529   0.758   6.866   0.684 -0.0417 -0.0898 -0.1175
 3565ntf    on520530   0.832   6.965   0.471  0.3251 -0.6186  0.2194
 3565ntf    on520531   0.701   7.040   0.896  0.2930 -0.0372  0.0071
 3565ntf    on520532   0.754   7.273   0.849 -0.3687  0.2603  0.1365
 3565ntf    fn420533   1.001   6.997   0.820 -0.2125 -0.8351  0.1081
 3565ntf    fn420534   1.044   7.195   0.861 -0.1938 -0.7791  0.2386
 3565ntf    fn420535   0.969   7.067   1.013 -0.0048 -0.1969  0.5050
 3566ntf    cn120536   4.600   5.381   1.438  0.3572 -0.6024  0.1484
 3566ntf    sn220537   4.458   5.356   1.548 -0.0423 -0.1909 -0.2724
 3566ntf    nn320538   4.342   5.346   1.442  0.0184 -0.7884 -0.2821
 3566ntf    sn220539   4.241   5.456   1.394  0.3444 -0.2899  0.1724
 3566ntf    cn120540   4.115   5.346   1.325  0.3767  0.0337 -0.4075
 3566ntf    fn420541   4.716   5.398   1.500  0.2666  0.4289  0.0542
 3566ntf    fn420542   4.607   5.296   1.337 -0.3844  0.0460 -0.4610
 3566ntf    fn420543   4.586   5.496   1.374 -0.2145 -0.4274  0.5920
 3566ntf    on520544   4.485   5.228   1.608  0.0121  0.0874  0.3078
 3566ntf    on520545   4.450   5.471   1.634  0.0447 -0.4354  0.0614
 3566ntf    on520546   4.290   5.530   1.280 -0.5825 -0.3590 -0.2781
 3566ntf    on520547   4.187   5.539   1.499  0.3246  0.2164 -0.2338
 3566ntf    fn420548   4.146   5.278   1.216  0.6024  0.0616 -0.3598
 3566ntf    fn420549   4.098   5.259   1.423  0.0487  0.1396 -0.3691
 3566ntf    fn420550   3.993   5.396   1.308 -0.0160 -0.8854 -0.3428
 3567ntf    cn120551   6.949   3.211   2.257  0.3123  0.0612  0.2669
 3567ntf    sn220552   6.916   3.175   2.082  0.0679  0.2950  0.2633
 3567ntf    nn320553   6.790   3.083   2.102  0.7360 -0.7774 -0.3410
 3567ntf    sn220554   6.662   3.065   2.013  0.2065 -0.1106  0.2789
 3567ntf    cn120555   6.667   2.885   1.991  0.2833 -0.1043  0.2438
 3567ntf    fn420556   7.052   3.291   2.280  0.1175  0.2956  0.3294
 3567ntf    fn420557   6.848   3.277   2.312  0.2160  0.5164 -0.4360
 3567ntf    fn420558   6.968   3.100   2.325 -0.2562  0.1539  0.5858
 3567ntf    on520559   6.892   3.301   2.017 -0.1397 -0.3193 -0.8763
 3567ntf    on520560   7.023   3.094   2.030 -0.7086 -0.1220 -0.7233
 3567ntf    on520561   6.671   3.117   1.879  0.2119 -0.0289  0.3103
 3567ntf    on520562   6.537   3.086   2.081 -0.0310  0.2932 -0.2711
 3567ntf    fn420563   6.685   2.814   2.101 -0.1542 -0.1703  0.2752
 3567ntf    fn420564   6.550   2.849   1.941  0.0401  0.7623  0.1674
 3567ntf    fn420565   6.766   2.860   1.908 -0.3045  0.1624 -0.5509
 3568ntf    cn120566   0.339   3.753   3.640 -0.5420  0.0934  0.1139
 3568ntf    sn220567   0.223   3.884   3.591 -0.4412  0.2066  0.1768
 3568ntf    nn320568   0.120   3.789   3.520 -0.2137  0.0586  0.0413
 3568ntf    sn220569   0.071   3.796   3.371 -0.1231  0.0757  0.0125
 3568ntf    cn120570  -0.098   3.849   3.412 -0.2618 -0.3774  0.0274
 3568ntf    fn420571   0.297   3.685   3.746  0.1602 -0.3105  0.1340
 3568ntf    fn420572   0.365   3.668   3.543 -0.2334  0.3456 -0.0242
 3568ntf    fn420573   0.456   3.802   3.679 -0.2469 -0.2857 -0.2877
 3568ntf    on520574   0.182   3.948   3.713 -0.2644  0.3640  0.1540
 3568ntf    on520575   0.305   3.968   3.507 -0.5388  0.0971 -0.0286
 3568ntf    on520576   0.047   3.666   3.313 -0.6018  0.1012  0.1479
 3568ntf    on520577   0.120   3.905   3.290 -0.2771  0.1406  0.0063
 3568ntf    fn420578  -0.166   3.859   3.298 -0.3339 -0.1025  0.0941
 3568ntf    fn420579  -0.166   3.750   3.468  0.5208 -0.6843  0.4578
 3568ntf    fn420580  -0.112   3.956   3.488 -0.2224  0.1425 -0.6782
 3569ntf    cn120581   3.150   3.759   2.897  0.2072  0.3080  0.2670
 3569ntf    sn220582   2.982   3.735   2.963  0.1926 -0.0451  0.1017
 3569ntf    nn320583   2.975   3.579   2.947  0.1260  0.0458 -0.8018
 3569ntf    sn220584   2.846   3.492   2.927 -0.0521  0.1096  0.0532
 3569ntf    cn120585   2.856   3.444   2.752 -0.3671 -0.3271  0.1511
 3569ntf    fn420586   3.160   3.747   2.766  0.3380  0.7022  0.2395
 3569ntf    fn420587   3.215   3.873   2.917 -0.0934  0.5614 -0.1947
 3569ntf    fn420588   3.228   3.666   2.950 -0.0620 -0.3300 -0.4396
 3569ntf    on520589   3.000   3.775   3.100  0.2689 -0.3363  0.1771
 3569ntf    on520590   2.902   3.816   2.874 -0.1375 -0.2643  0.1961
 3569ntf    on520591   2.719   3.560   2.938 -0.3007 -0.3063 -0.1927
 3569ntf    on520592   2.859   3.367   2.998  0.4472  0.3507  0.3894
 3569ntf    fn420593   2.940   3.345   2.726  0.2039  0.2913 -0.3966
 3569ntf    fn420594   2.737   3.406   2.709 -0.2375 -0.1583 -0.3687
 3569ntf    fn420595   2.894   3.544   2.673 -0.3614 -0.2811  0.2117
 3570ntf    cn120596   2.215   4.236   0.519  0.0868  0.5535 -0.2107
 3570ntf    sn220597   2.321   4.181   0.656 -0.0563  0.0476 -0.3003
 3570ntf    nn320598   2.338   4.320   0.726  0.0996  0.2902 -0.8130
 3570ntf    sn220599   2.251   4.372   0.846  0.2504 -0.2331 -0.4757
 3570ntf    cn120600   2.319   4.289   0.992 -0.0976  0.2404 -0.0397
 3570ntf    fn420601   2.285   4.299   0.426  0.8366  0.2233  0.1146
 3570ntf    fn420602   2.160   4.134   0.455 -0.3230  0.3698  0.4311
 3570ntf    fn420603   2.119   4.320   0.553  0.1334  0.4251  0.2464
 3570ntf    on520604   2.246   4.087   0.735 -0.1236  0.4417  0.1049
 3570ntf    on520605   2.439   4.125   0.594  0.2934 -0.5452  0.8775
 3570ntf    on520606   2.119   4.314   0.848  0.3658 -0.4957 -0.3997
 3570ntf    on520607   2.274   4.511   0.879 -0.2699 -0.2973  0.1776
 3570ntf    fn420608   2.440   4.336   1.017 -0.0734  0.1070  0.0975
 3570ntf    fn420609   2.238   4.305   1.095  0.3734 -0.1742  0.4046
 3570ntf    fn420610   2.332   4.159   0.971  0.2718  0.3301 -0.3789
 3571ntf    cn120611   6.174   5.206   4.564 -0.2451 -0.2446  0.0552
 3571ntf    sn220612   6.302   5.316   4.496 -0.0994 -0.3148  0.2144
 3571ntf    nn320613   6.209   5.420   4.425 -0.1954 -0.2393  0.4486
 3571ntf    sn220614   6.144   5.424   4.282  0.0559  0.3378  0.3508
 3571ntf    cn120615   5.982   5.491   4.330 -0.0660  0.2871  0.0159
 3571ntf    fn420616   6.090   5.260   4.651 -0.3848 -0.0217 -0.2152
 3571ntf    fn420617   6.109   5.162   4.457 -0.0835  0.2951 -0.2677
 3571ntf    fn420618   6.227   5.106   4.632 -0.0484  0.0696  0.3637
 3571ntf    on520619   6.371   5.371   4.610 -0.3249  0.0083  0.1957
 3571ntf    on520620   6.383   5.238   4.405 -0.1361 -0.5615  0.3922
 3571ntf    on520621   6.112   5.297   4.221  0.2329  0.2072  0.5296
 3571ntf    on520622   6.200   5.527   4.198 -0.4948 -0.2934 -0.8163
 3571ntf    fn420623   5.905   5.390   4.366  0.4215 -0.1688 -0.2179
 3571ntf    fn420624   5.977   5.577   4.431  0.6864  0.0653  0.2487
 3571ntf    fn420625   5.922   5.554   4.230 -0.1093  0.2449  0.0151
 3572ntf    cn120626   7.027   3.586   1.105  0.0201 -0.0856  0.5034
 3572ntf    sn220627   7.126   3.540   1.251  0.7594 -0.0865  0.0034
 3572ntf    nn320628   7.010   3.556   1.355  0.0658 -0.0620 -0.7676
 3572ntf    sn220629   7.006   3.507   1.504 -0.2698  0.2462 -0.6751
 3572ntf    cn120630   7.079   3.642   1.601 -0.1587  0.0835 -0.5329
 3572ntf    fn420631   7.087   3.596   0.988  0.1902 -0.4953  0.5537
 3572ntf    fn420632   6.929   3.501   1.081 -0.3122  0.5274 -0.3422
 3572ntf    fn420633   6.951   3.692   1.127 -0.1676 -0.1918  0.3689
 3572ntf    on520634   7.170   3.409   1.211 -0.2512 -0.5037  0.2356
 3572ntf    on520635   7.232   3.637   1.266  0.3346  0.2810  0.6600
 3572ntf    on520636   7.092   3.393   1.520 -0.1441  0.4285  0.0102
 3572ntf    on520637   6.874   3.499   1.563  0.2947 -0.1097  0.5725
 3572ntf    fn420638   7.022   3.757   1.570 -0.2771  0.1376 -0.1348
 3572ntf    fn420639   7.065   3.634   1.733  0.3307  0.7539 -0.4359
 3572ntf    fn420640   7.208   3.658   1.574  0.0015 -0.2909 -0.0160
 3573ntf    cn120641   0.725   2.251   2.391  0.0226  0.4207 -0.0303
 3573ntf    sn220642   0.851   2.287   2.264  0.2141 -0.0388  0.0265
 3573ntf    nn320643   0.757   2.271   2.140  0.0258  0.4185  0.1060
 3573ntf    sn220644   0.758   2.149   2.041 -0.0192  0.3475  0.1922
 3573ntf    cn120645   0.888   2.212   1.930  0.1886  0.0325  0.2540
 3573ntf    fn420646   0.757   2.267   2.518 -0.3309  0.0751  0.1050
 3573ntf    fn420647   0.610   2.314   2.377 -0.1104  0.2518  0.3017
 3573ntf    fn420648   0.687   2.126   2.367  0.2136  0.2983  0.3031
 3573ntf    on520649   0.877   2.426   2.290  0.8167 -0.1792  0.1834
 3573ntf    on520650   0.951   2.184   2.276 -0.2743 -0.5432 -0.1531
 3573ntf    on520651   0.636   2.134   1.966  0.2086 -0.0326 -0.1129
 3573ntf    on520652   0.816   2.027   2.091  0.0495  0.5129  0.5154
 3573ntf    fn420653   0.869   2.340   1.899  0.1915 -0.0475 -0.0808
 3573ntf    fn420654   1.011   2.210   1.980  0.3648  0.4013 -0.1608
 3573ntf    fn420655   0.886   2.140   1.820  0.4812 -0.0051  0.2729
 3574ntf    cn120656   3.544   6.064   7.200 -0.2826 -0.2342  0.1132
 3574ntf    sn220657   3.466   5.899   7.191 -0.3073 -0.2102 -0.1209
 3574ntf    nn320658   3.326   5.934   7.254 -0.2564 -0.4360  0.1186
 3574ntf    sn220659   3.288   5.933   7.406  0.0102 -0.0235  0.1902
 3574ntf    cn120660   3.107   5.949   7.399  0.0505  0.1737 -0.4706
 3574ntf    fn420661   3.635   6.092   7.109 -0.3170 -0.1959  0.0907
 3574ntf    fn420662   3.458   6.163   7.184 -0.3727 -0.3237  0.0400
 3574ntf    fn420663   3.607   6.090   7.313  0.4151  0.5886 -0.4576
 3574ntf    on520664   3.461   5.884   7.048 -0.0919  0.5490 -0.2118
 3574ntf    on520665   3.559   5.818   7.265 -0.4733 -0.1507  0.1552
 3574ntf    on520666   3.341   6.044   7.482 -0.2242  0.0038  0.3147
 3574ntf    on520667   3.293   5.798   7.457  0.7681 -0.1295 -0.1620
 3574ntf    fn420668   3.069   5.989   7.520 -0.2703 -0.2199 -0.4410
 3574ntf    fn420669   3.072   6.039   7.308  0.0630  0.5797 -0.0794
 3574ntf    fn420670   3.044   5.837   7.368 -0.1672  0.2203 -0.2065
 3575ntf    cn120671   3.532   0.415   5.264 -0.2734 -0.3667  0.0207
 3575ntf    sn220672   3.586   0.526   5.131  0.0163 -0.3351  0.1659
 3575ntf    nn320673   3.608   0.660   5.211 -0.0494 -0.4941  0.4500
 3575ntf    sn220674   3.731   0.757   5.212 -0.0795 -0.4488  0.0012
 3575ntf    cn120675   3.677   0.885   5.329 -0.1189 -0.1359 -0.3558
 3575ntf    fn420676   3.461   0.310   5.224 -0.2915 -0.3719  0.0667
 3575ntf    fn420677   3.625   0.374   5.348  0.2661  0.6709 -0.0586
 3575ntf    fn420678   3.452   0.487   5.341  0.2356 -0.2494  0.4376
 3575ntf    on520679   3.704   0.451   5.095  0.2714  0.4324 -0.6597
 3575ntf    on520680   3.471   0.524   5.044 -0.2793  0.0742  0.5421
 3575ntf    on520681   3.750   0.840   5.095 -0.1137  0.1655  0.4238
 3575ntf    on520682   3.848   0.705   5.278  0.0097 -0.3621 -0.0884
 3575ntf    fn420683   3.632   0.836   5.443  0.4668 -0.5125 -0.2827
 3575ntf    fn420684   3.771   0.974   5.358 -0.0891 -0.3849  0.3239
 3575ntf    fn420685   3.574   0.951   5.278 -0.0790  0.1489 -0.0727
 3576ntf    cn120686   5.654   3.030   4.846 -0.4834 -0.2728  0.5654
 3576ntf    sn220687   5.698   2.888   4.950 -0.2521 -0.5324  0.1179
 3576ntf    nn320688   5.583   2.788   4.914 -0.6053 -0.2602  0.4833
 3576ntf    sn220689   5.577   2.635   4.947 -0.1556 -0.4185 -0.1594
 3576ntf    cn120690   5.515   2.574   4.787 -0.2674  0.1381 -0.3281
 3576ntf    fn420691   5.685   3.025   4.717 -0.2144 -0.4575  0.6369
 3576ntf    fn420692   5.523   3.044   4.838 -0.3646  0.4158 -0.3561
 3576ntf    fn420693   5.705   3.143   4.893  0.6595 -0.8545  0.7714
 3576ntf    on520694   5.835   2.870   4.909 -0.2480  0.4281 -0.3064
 3576ntf    on520695   5.683   2.945   5.082  0.4977 -0.0772  0.0125
 3576ntf    on520696   5.463   2.605   5.030 -0.5848  0.6717 -0.3476
 3576ntf    on520697   5.696   2.554   4.960 -0.0132 -0.1706  0.0646
 3576ntf    fn420698   5.525   2.442   4.783 -0.5144  0.0947  0.3976
 3576ntf    fn420699   5.388   2.607   4.772 -0.3691  0.1609  0.5211
 3576ntf    fn420700   5.586   2.635   4.693  0.0898 -0.1263 -0.2332
 3577ntf    cn120701   3.646   6.397   3.051  0.0587 -0.0484 -0.0799
 3577ntf    sn220702   3.631   6.265   2.927  0.0246 -0.1973  0.0825
 3577ntf    nn320703   3.475   6.257   2.927  0.0081  0.0688 -0.5545
 3577ntf    sn220704   3.368   6.343   2.850  0.0152  0.6691  0.0895
 3577ntf    cn120705   3.399   6.275   2.684  0.1066  0.3555  0.2339
 3577ntf    fn420706   3.757   6.386   3.121 -0.1096 -0.4069  0.1346
 3577ntf    fn420707   3.642   6.516   2.993 -0.2625 -0.1009 -0.1690
 3577ntf    fn420708   3.550   6.388   3.142  0.3779  0.4130  0.3113
 3577ntf    on520709   3.690   6.333   2.814 -0.5251  0.0495 -0.0602
 3577ntf    on520710   3.697   6.151   2.986 -0.2254 -0.0982  0.5554
 3577ntf    on520711   3.403   6.482   2.843  0.3699  0.5691 -0.1565
 3577ntf    on520712   3.232   6.296   2.867  0.2209  0.3179  0.7842
 3577ntf    fn420713   3.305   6.324   2.605  0.3249  0.7431  0.2156
 3577ntf    fn420714   3.513   6.300   2.621  0.1837 -0.1437  0.1664
 3577ntf    fn420715   3.402   6.143   2.671 -0.3495  0.3940 -0.2930
 3578ntf    cn120716   2.616   0.055   3.619 -0.2960  0.0701 -0.0411
 3578ntf    sn220717   2.522  -0.085   3.685  0.3175 -0.3303 -0.0065
 3578ntf    nn320718   2.391  -0.015   3.737  0.1230 -0.9155  0.3039
 3578ntf    sn220719   2.352   0.033   3.881  0.1159 -0.1318  0.0440
 3578ntf    cn120720   2.194   0.115   3.843  0.1545  0.0458  0.2653
 3578ntf    fn420721   2.728   0.018   3.560 -0.1504  0.5473 -0.0706
 3578ntf    fn420722   2.546   0.129   3.535 -0.5394  0.2003  0.2722
 3578ntf    fn420723   2.661   0.131   3.718  0.3932 -0.3399 -0.0303
 3578ntf    on520724   2.516  -0.172   3.570  0.1387 -0.0049 -0.2466
 3578ntf    on520725   2.594  -0.140   3.797 -0.3316  0.1882  0.6758
 3578ntf    on520726   2.439   0.133   3.937 -0.3702 -0.0606  0.6977
 3578ntf    on520727   2.311  -0.071   3.973  0.6573 -0.0976  0.3274
 3578ntf    fn420728   2.207   0.229   3.777  0.2061  0.1022  0.3730
 3578ntf    fn420729   2.127   0.041   3.756 -0.7562  0.6273  0.4586
 3578ntf    fn420730   2.105   0.134   3.939  0.4382 -0.0645  0.5512
 3579ntf    cn120731   1.227   1.522   4.353  0.0209  0.4087  0.1114
 3579ntf    sn220732   1.298   1.536   4.520 -0.1815 -0.0296  0.2354
 3579ntf    nn320733   1.418   1.632   4.486  0.2634 -0.5171  0.4066
 3579ntf    sn220734   1.573   1.619   4.504  0.3733  0.1937  0.0160
 3579ntf    cn120735   1.596   1.740   4.638 -0.1106  0.2455  0.0553
 3579ntf    fn420736   1.324   1.526   4.262  0.1177 -0.4115  0.1688
 3579ntf    fn420737   1.159   1.411   4.328  0.6300  0.1761 -0.5828
 3579ntf    fn420738   1.139   1.616   4.325  0.1556  0.4030 -0.3503
 3579ntf    on520739   1.186   1.595   4.589  0.1230 -0.1478  0.8338
 3579ntf    on520740   1.335   1.399   4.548 -0.1692  0.0106  0.4122
 3579ntf    on520741   1.638   1.675   4.389 -0.0400  0.3531 -0.1423
 3579ntf    on520742   1.622   1.494   4.556 -0.6451 -0.1715  0.1215
 3579ntf    fn420743   1.717   1.795   4.640  0.0285  0.0058 -0.8827
 3579ntf    fn420744   1.505   1.836   4.629 -0.4738 -0.1082 -0.0558
 3579ntf    fn420745   1.581   1.683   4.756  0.2856 -0.0469 -0.0335
 3580ntf    cn120746   2.119   3.325   0.394 -0.0381  0.1924 -0.1396
 3580ntf    sn220747   2.295   3.288   0.414 -0.0759  0.0308 -0.1033
 3580ntf    nn320748   2.353   3.394   0.313  0.0418  0.2636  0.2055
 3580ntf    sn220749   2.387   3.368   0.162  0.1942 -0.2762  0.3282
 3580ntf    cn120750   2.545   3.278   0.164  0.4803  0.2090 -0.2665
 3580ntf    fn420751   2.073   3.333   0.270  0.1316  0.0516 -0.2102
 3580ntf    fn420752   2.053   3.240   0.471  0.2750  0.2889  0.2394
 3580ntf    fn420753   2.104   3.450   0.436 -0.2497  0.0991  0.0640
 3580ntf    on520754   2.328   3.324   0.550 -0.2027 -0.0417 -0.0538
 3580ntf    on520755   2.302   3.149   0.379  1.3652  0.0806 -0.0862
 3580ntf    on520756   2.412   3.493   0.093  0.3928 -0.2874  0.3789
 3580ntf    on520757   2.298   3.275   0.098 -0.5731  0.4592  0.3078
 3580ntf    fn420758   2.587   3.252   0.041 -0.5930 -0.7910 -0.4305
 3580ntf    fn420759   2.640   3.361   0.207  0.2496  0.5112 -0.3357
 3580ntf    fn420760   2.545   3.162   0.227 -0.7724  0.2617 -0.1549
 3581ntf    cn120761   4.176   3.441   3.467 -0.1941 -0.2681  0.0415
 3581ntf    sn220762   4.221   3.411   3.640  0.2984 -0.4498 -0.1179
 3581ntf    nn320763   4.244   3.556   3.694  0.9690 -0.8605  0.7381
 3581ntf    sn220764   4.364   3.658   3.696  0.1555  0.1295  0.2790
 3581ntf    cn120765   4.445   3.621   3.855  0.0123  0.3059  0.3937
 3581ntf    fn420766   4.284   3.472   3.397  0.0824  0.0584  0.5983
 3581ntf    fn420767   4.113   3.335   3.420 -0.4000  0.1567 -0.6637
 3581ntf    fn420768   4.087   3.536   3.445  0.3681  0.3232  0.2808
 3581ntf    on520769   4.097   3.360   3.693 -0.2277  0.8566 -0.0716
 3581ntf    on520770   4.335   3.323   3.633  0.4907 -0.2038 -0.0969
 3581ntf    on520771   4.323   3.794   3.720  0.4908  0.4183 -0.7718
 3581ntf    on520772   4.463   3.637   3.594  0.2456 -0.4393  0.4810
 3581ntf    fn420773   4.498   3.502   3.873 -0.2969  0.1772  0.4669
 3581ntf    fn420774   4.550   3.701   3.858  0.1619  0.1432 -0.3829
 3581ntf    fn420775   4.361   3.646   3.954 -0.2661 -0.3230  0.3221
 3582ntf    cn120776   3.875   2.778   2.939  0.2876  0.0471  0.2324
 3582ntf    sn220777   3.697   2.743   2.925  0.3614 -0.1632 -0.2209
 3582ntf    nn320778   3.701   2.593   2.880 -0.0384 -0.2722  0.1052
 3582ntf    sn220779   3.713   2.527   2.738 -0.1515 -0.0824  0.0059
 3582ntf    cn120780   3.542   2.474   2.711 -0.1839 -0.1003  0.2462
 3582ntf    fn420781   3.908   2.903   2.964 -0.2453  0.2362 -0.0052
 3582ntf    fn420782   3.928   2.708   3.038  0.3544  0.0975  0.2322
 3582ntf    fn420783   3.937   2.736   2.829  0.0022  0.6254 -0.1553
 3582ntf    on520784   3.644   2.749   3.059 -0.6248  0.6107 -0.6325
 3582ntf    on520785   3.643   2.841   2.834  0.0793 -0.1525 -0.0405
 3582ntf    on520786   3.788   2.404   2.749  0.2598  0.1251 -0.4302
 3582ntf    on520787   3.739   2.612   2.625 -0.2089  0.1643  0.1766
 3582ntf    fn420788   3.545   2.382   2.616 -0.0256 -0.4251  0.5657
 3582ntf    fn420789   3.481   2.425   2.818 -0.4757  0.6575  0.4376
 3582ntf    fn420790   3.470   2.573   2.661 -0.2709 -0.0350  0.4999
 3583ntf    cn120791   2.300   0.558   4.016  0.0456  0.0166 -0.2067
 3583ntf    sn220792   2.201   0.710   4.016  0.4928  0.3110  0.2947
 3583ntf    nn320793   2.250   0.793   3.892  0.0687  0.3654  0.1625
 3583ntf    sn220794   2.157   0.839   3.774 -0.2213 -0.0881  0.2134
 3583ntf    cn120795   2.040   0.944   3.865  0.2109  0.0961  0.5596
 3583ntf    fn420796   2.280   0.493   3.902 -0.6081  0.0862 -0.1350
 3583ntf    fn420797   2.429   0.586   4.020 -0.1165  0.8264 -0.4893
 3583ntf    fn420798   2.269   0.471   4.110 -0.0644  0.2406 -0.0362
 3583ntf    on520799   2.067   0.657   4.018  0.7231 -0.2820  0.0820
 3583ntf    on520800   2.238   0.773   4.140  0.6355  0.0750  0.3729
 3583ntf    on520801   2.083   0.732   3.711  0.9324 -0.7657 -0.0166
 3583ntf    on520802   2.220   0.930   3.682 -0.8972  0.0407 -0.1316
 3583ntf    fn420803   1.974   0.876   3.958 -0.3610 -0.1502 -0.0162
 3583ntf    fn420804   2.104   1.041   3.928 -0.1718  0.2131  0.7729
 3583ntf    fn420805   1.952   1.010   3.790  0.0425 -0.4696  0.2543
 3584ntf    cn120806   4.503   4.273   5.770  0.5808 -0.0487 -0.0956
 3584ntf    sn220807   4.411   4.427   5.801 -0.2598 -0.5918  0.1531
 3584ntf    nn320808   4.515   4.513   5.721  0.0878 -0.6706  0.5150
 3584ntf    sn220809   4.569   4.655   5.762 -0.0447 -0.4927  0.0853
 3584ntf    cn120810   4.647   4.689   5.602 -0.0168  0.0661  0.2162
 3584ntf    fn420811   4.499   4.236   5.643 -0.8718  0.0392 -0.0939
 3584ntf    fn420812   4.629   4.280   5.810  0.6105 -0.2651 -0.1494
 3584ntf    fn420813   4.447   4.165   5.823  0.1598 -0.1235 -0.6817
 3584ntf    on520814   4.289   4.416   5.726 -0.1372  0.1548 -0.1641
 3584ntf    on520815   4.404   4.444   5.944 -0.4399  0.5392  0.0180
 3584ntf    on520816   4.685   4.660   5.848  0.2603  0.6319 -0.3732
 3584ntf    on520817   4.467   4.755   5.776 -0.2288 -0.6109 -0.4238
 3584ntf    fn420818   4.551   4.715   5.516 -0.1179  0.8112  0.5486
 3584ntf    fn420819   4.727   4.795   5.602  0.2274 -0.1148  0.3914
 3584ntf    fn420820   4.720   4.590   5.554  0.7979  0.7750 -0.0316
 3585ntf    cn120821   5.242   4.000   2.393  0.2624  0.0301 -0.0779
 3585ntf    sn220822   5.070   4.022   2.336  0.1642 -0.5497 -0.0155
 3585ntf    nn320823   5.071   4.176   2.305 -0.0812 -0.4364  0.5150
 3585ntf    sn220824   4.999   4.294   2.379 -0.2298 -0.1956 -0.0112
 3585ntf    cn120825   4.956   4.406   2.242 -0.0160 -0.1945 -0.0770
 3585ntf    fn420826   5.285   4.091   2.478  0.1622 -0.1787  0.1972
 3585ntf    fn420827   5.253   3.878   2.444  0.2791  0.3081  0.5855
 3585ntf    fn420828   5.331   4.002   2.295 -0.1701  0.8439 -0.4653
 3585ntf    on520829   5.046   3.939   2.221 -0.5757  0.0645 -0.3078
 3585ntf    on520830   4.992   3.972   2.447 -0.3837  0.6765  0.1703
 3585ntf    on520831   5.091   4.379   2.450 -0.0971 -0.0164 -0.3937
 3585ntf    on520832   4.869   4.260   2.432 -0.4181  0.5338  0.0028
 3585ntf    fn420833   4.843   4.468   2.272 -0.1516 -0.3202 -0.3217
 3585ntf    fn420834   5.052   4.494   2.220  0.0669 -0.1679  0.3794
 3585ntf    fn420835   4.934   4.337   2.131 -0.6429 -0.3444  0.1367
 3586ntf    cn120836   2.629   4.229   1.743  0.2308  0.8562 -0.2047
 3586ntf    sn220837   2.630   4.201   1.922 -0.1886 -0.3092 -0.3751
 3586ntf    nn320838   2.690   4.339   1.968 -0.3676 -0.5242  0.5300
 3586ntf    sn220839   2.611   4.448   2.049 -0.0459  0.0102  0.1336
 3586ntf    cn120840   2.699   4.594   1.986 -0.1788  0.1232  0.2084
 3586ntf    fn420841   2.735   4.297   1.703  0.6103  0.3553 -0.0493
 3586ntf    fn420842   2.630   4.122   1.666 -0.7570  0.4203  0.3715
 3586ntf    fn420843   2.521   4.292   1.699 -0.2589  0.3213  0.2133
 3586ntf    on520844   2.493   4.171   1.956 -0.0816 -0.3012  0.0762
 3586ntf    on520845   2.720   4.091   1.946  0.3758  0.2412  0.0754
 3586ntf    on520846   2.639   4.434   2.190  0.8102  0.4410  0.0110
 3586ntf    on520847   2.474   4.474   2.009 -0.0675  0.1250  0.2823
 3586ntf    fn420848   2.617   4.697   1.973  0.1061  0.2945 -0.2430
 3586ntf    fn420849   2.801   4.639   2.056  0.6163  0.1406 -0.9322
 3586ntf    fn420850   2.745   4.567   1.865  0.2728  0.8326  0.2212
 3587ntf    cn120851   2.805   3.059   3.985 -0.5125  0.0083 -0.0632
 3587ntf    sn220852   2.803   3.238   3.955  0.2270  0.0618  0.1943
 3587ntf    nn320853   2.727   3.272   4.088 -0.1411  0.3228 -0.0807
 3587ntf    sn220854   2.701   3.409   4.160 -0.2704  0.1610  0.1787
 3587ntf    cn120855   2.750   3.383   4.334  0.0975  0.0239  0.0558
 3587ntf    fn420856   2.688   2.999   4.001 -0.5024  0.0451  0.1514
 3587ntf    fn420857   2.876   2.998   3.891 -0.1838  0.3133 -0.0127
 3587ntf    fn420858   2.873   3.032   4.095  0.4083  0.1998 -0.5788
 3587ntf    on520859   2.940   3.281   3.940  0.3729 -0.3678  0.2890
 3587ntf    on520860   2.715   3.244   3.841 -0.0770  0.3091  0.4404
 3587ntf    on520861   2.560   3.434   4.173 -0.2405  0.0120  0.8563
 3587ntf    on520862   2.785   3.518   4.119 -0.1006 -0.0966 -0.1587
 3587ntf    fn420863   2.668   3.297   4.393  0.4748 -0.3814 -0.0069
 3587ntf    fn420864   2.873   3.335   4.332  0.0182 -0.1813  0.0274
 3587ntf    fn420865   2.758   3.491   4.409 -0.1177  0.1466 -0.0943
 3588ntf    cn120866   2.909   7.109   1.106 -0.0487  0.0694  0.1094
 3588ntf    sn220867   2.874   7.234   1.232 -0.0897  0.5796 -0.4030
 3588ntf    nn320868   2.795   7.343   1.150 -0.5250  0.3234 -0.3308
 3588ntf    sn220869   2.773   7.494   1.183 -0.2768  0.3236 -0.1609
 3588ntf    cn120870   2.863   7.575   1.048  0.1652  0.1734  0.0432
 3588ntf    fn420871   3.000   7.151   1.020 -0.0784  0.3140  0.2001
 3588ntf    fn420872   2.944   6.993   1.159 -0.0352  0.4665  0.9840
 3588ntf    fn420873   2.797   7.080   1.041 -0.1194 -0.0641  0.2886
 3588ntf    on520874   2.798   7.160   1.331 -0.2850  0.0845 -0.9165
 3588ntf    on520875   3.004   7.278   1.276 -0.0311 -0.5655  0.6226
 3588ntf    on520876   2.841   7.533   1.305 -0.3558  0.4989 -0.1726
 3588ntf    on520877   2.636   7.536   1.162 -0.2345  0.7553  0.4025
 3588ntf    fn420878   2.897   7.693   1.098  0.2021  0.2177 -0.0846
 3588ntf    fn420879   2.977   7.515   1.020 -0.0813 -0.2285 -0.0947
 3588ntf    fn420880   2.803   7.588   0.931  0.5728 -0.3153 -0.2221
 3589ntf    cn120881   2.411   1.593   5.485  0.0831 -0.5334  0.3739
 3589ntf    sn220882   2.233   1.559   5.474 -0.0695  0.3817 -0.1284
 3589ntf    nn320883   2.177   1.643   5.594 -0.2047 -0.1370  0.1741
 3589ntf    sn220884   2.113   1.786   5.590 -0.2410 -0.1567  0.0592
 3589ntf    cn120885   2.048   1.808   5.758  0.1625  0.3103  0.1572
 3589ntf    fn420886   2.450   1.704   5.424  0.2197 -0.6562  0.2357
 3589ntf    fn420887   2.445   1.612   5.611  0.0287 -0.3673  0.3642
 3589ntf    fn420888   2.486   1.498   5.433 -0.0264 -0.5171  0.1815
 3589ntf    on520889   2.201   1.605   5.341  0.1720  0.1729 -0.2608
 3589ntf    on520890   2.220   1.418   5.500 -0.2132  0.4596  0.2349
 3589ntf    on520891   1.994   1.804   5.510 -0.2559 -0.4079  0.0249
 3589ntf    on520892   2.217   1.886   5.589  0.2799 -0.6991 -0.1270
 3589ntf    fn420893   1.941   1.730   5.772  0.1808  0.2176 -0.2225
 3589ntf    fn420894   2.125   1.769   5.858  0.1407 -0.0986  0.0187
 3589ntf    fn420895   2.005   1.929   5.791 -0.3778  0.1925 -0.1065
 3590ntf    cn120896   0.320   0.229   3.435  0.1646  0.3139 -0.0877
 3590ntf    sn220897   0.277   0.053   3.448  0.6283  0.1991 -0.1115
 3590ntf    nn320898   0.412  -0.022   3.478  0.3979 -0.1429  0.0856
 3590ntf    sn220899   0.489  -0.041   3.613  0.0872  0.0584  0.2911
 3590ntf    cn120900   0.600   0.103   3.619  0.1135  0.0430  0.1680
 3590ntf    fn420901   0.214   0.308   3.432 -0.2508 -0.2459 -0.3240
 3590ntf    fn420902   0.398   0.263   3.536  0.5706  0.5120 -0.4642
 3590ntf    fn420903   0.386   0.253   3.323  0.9237  0.0643  0.3021
 3590ntf    on520904   0.183   0.043   3.557  0.7784 -0.7047 -0.0503
 3590ntf    on520905   0.237   0.020   3.314  0.9520  0.2456 -0.2216
 3590ntf    on520906   0.586  -0.146   3.594 -0.3587 -0.2714 -0.2018
 3590ntf    on520907   0.415  -0.029   3.737 -0.8388  0.0426 -0.2519
 3590ntf    fn420908   0.720   0.058   3.652 -0.0712 -0.5313  0.0808
 3590ntf    fn420909   0.606   0.166   3.503 -0.5068 -0.2455 -0.0258
 3590ntf    fn420910   0.572   0.200   3.705 -0.3177 -0.1871  0.2904
 3591ntf    cn120911   0.908   2.450   6.041 -0.1563 -0.0158  0.2018
 3591ntf    sn220912   0.827   2.575   6.145 -0.1139  0.2450 -0.0765
 3591ntf    nn320913   0.946   2.663   6.199  0.1613 -0.4619  0.4876
 3591ntf    sn220914   0.956   2.761   6.321 -0.1472 -0.1961  0.3012
 3591ntf    cn120915   1.032   2.909   6.247  0.0137 -0.3442  0.1678
 3591ntf    fn420916   0.817   2.390   5.966 -0.1502  0.3261 -0.0816
 3591ntf    fn420917   0.998   2.497   5.955 -0.7182 -0.1864 -0.4935
 3591ntf    fn420918   0.969   2.351   6.104 -0.0006 -0.2698 -0.3416
 3591ntf    on520919   0.741   2.642   6.051 -0.5114  0.0870  0.1759
 3591ntf    on520920   0.764   2.498   6.249  0.8270 -0.1816  0.1914
 3591ntf    on520921   1.057   2.722   6.416 -0.1411 -0.2092  0.2894
 3591ntf    on520922   0.835   2.805   6.385 -0.0630  0.2968  0.1304
 3591ntf    fn420923   1.135   2.868   6.175  0.1159 -0.0105  0.1192
 3591ntf    fn420924   0.959   2.965   6.152  0.4799  0.3975  0.2372
 3591ntf    fn420925   1.080   3.003   6.327 -0.0112  0.2028 -0.4498
 3592ntf    cn120926   3.576   0.612   6.127 -0.1839 -0.0926  0.4581
 3592ntf    sn220927   3.597   0.790   6.156 -0.2024 -0.0326  0.1085
 3592ntf    nn320928   3.534   0.837   6.020  0.3195 -0.0351 -0.1381
 3592ntf    sn220929   3.597   0.884   5.884  0.2810 -0.0870 -0.1737
 3592ntf    cn120930   3.491   0.787   5.772 -0.1536  0.3832 -0.1696
 3592ntf    fn420931   3.456   0.578   6.081  0.0738 -0.2421 -0.1119
 3592ntf    fn420932   3.653   0.574   6.026  0.1670  0.2604  0.5890
 3592ntf    fn420933   3.596   0.537   6.234  0.5344  0.3206  0.6167
 3592ntf    on520934   3.513   0.817   6.270 -0.2724  0.1790  0.0090
 3592ntf    on520935   3.740   0.814   6.156 -0.3457  0.8592  0.0296
 3592ntf    on520936   3.729   0.832   5.856  0.1496 -0.3682 -0.2790
 3592ntf    on520937   3.564   1.020   5.851  0.5317 -0.1285 -0.5998
 3592ntf    fn420938   3.483   0.663   5.816  0.0864  0.6086  0.5262
 3592ntf    fn420939   3.364   0.817   5.753 -0.2037 -0.2687 -0.9013
 3592ntf    fn420940   3.552   0.771   5.656  0.1029 -0.3656  0.0642
 3593ntf    cn120941   0.344   1.001   3.317 -0.0814 -0.3127  0.3875
 3593ntf    sn220942   0.523   1.014   3.287 -0.1804  0.6144  0.1723
 3593ntf    nn320943   0.526   1.080   3.145  0.0730 -0.5204 -0.3634
 3593ntf    sn220944   0.576   1.225   3.108 -0.3710 -0.2736 -0.0119
 3593ntf    cn120945   0.692   1.204   2.969 -0.2802 -0.4122  0.0844
 3593ntf    fn420946   0.272   1.105   3.280 -0.0943 -0.2691  0.5345
 3593ntf    fn420947   0.293   0.896   3.255 -0.5610  0.2682 -0.2052
 3593ntf    fn420948   0.324   0.982   3.447  0.6368  0.2784  0.5935
 3593ntf    on520949   0.557   1.091   3.404 -0.6194 -0.2809  0.9036
 3593ntf    on520950   0.576   0.880   3.280 -0.2651  0.5677  0.4234
 3593ntf    on520951   0.662   1.297   3.198  0.4070 -0.3415 -0.6870
 3593ntf    on520952   0.463   1.291   3.048 -0.1002  0.1017 -0.1125
 3593ntf    fn420953   0.786   1.114   2.992  0.0796  0.1191  0.7268
 3593ntf    fn420954   0.622   1.161   2.865 -0.2413 -0.1005 -0.0704
 3593ntf    fn420955   0.746   1.316   2.926  0.3607 -0.5355  0.5544
 3594ntf    cn120956   5.324   2.353   3.274 -0.0523 -0.4553  0.3159
 3594ntf    sn220957   5.500   2.308   3.274  0.0329 -0.1286  0.2061
 3594ntf    nn320958   5.559   2.424   3.187  0.1518  0.1575  0.6661
 3594ntf    sn220959   5.709   2.451   3.147 -0.0037 -0.0042 -0.0436
 3594ntf    cn120960   5.766   2.573   3.269  0.1635 -0.3492  0.2251
 3594ntf    fn420961   5.282   2.366   3.149 -0.6199  0.1513  0.5583
 3594ntf    fn420962   5.241   2.269   3.333 -0.2975 -0.7562 -0.4442
 3594ntf    fn420963   5.291   2.470   3.326  0.0779 -0.3796  0.2278
 3594ntf    on520964   5.532   2.312   3.414 -0.0572 -0.1083  0.2264
 3594ntf    on520965   5.504   2.176   3.214 -0.1163  0.0199 -0.1371
 3594ntf    on520966   5.722   2.525   3.024  0.1752 -0.0503 -0.0518
 3594ntf    on520967   5.796   2.337   3.157  0.1266  0.1740  0.9520
 3594ntf    fn420968   5.729   2.531   3.389 -0.6056 -0.3157  0.0088
 3594ntf    fn420969   5.897   2.587   3.270  0.1037  0.2991 -0.4179
 3594ntf    fn420970   5.705   2.690   3.258 -0.1209 -0.4972  0.1933
 3595ntf    cn120971   2.945   4.237   6.620 -0.1056 -0.4699  0.0295
 3595ntf    sn220972   2.891   4.079   6.692 -0.0788 -0.5412 -0.1071
 3595ntf    nn320973   3.014   4.059   6.788 -0.1706  0.4627  0.2247
 3595ntf    sn220974   3.001   4.048   6.944 -0.0379  0.0984  0.2118
 3595ntf    cn120975   3.044   4.222   6.975  0.5024  0.0746 -0.3924
 3595ntf    fn420976   2.956   4.326   6.718  0.0059  0.3184 -0.6877
 3595ntf    fn420977   3.066   4.225   6.568 -0.0865 -0.0459 -0.0243
 3595ntf    fn420978   2.857   4.293   6.538 -0.8154 -1.1687  0.3031
 3595ntf    on520979   2.766   4.128   6.744  0.0905 -0.2069 -0.0124
 3595ntf    on520980   2.885   3.981   6.586 -0.2831 -0.5579 -0.0803
 3595ntf    on520981   3.103   3.970   7.008 -0.3120 -0.3993  0.0468
 3595ntf    on520982   2.866   4.031   6.993 -0.2142 -0.1748 -0.3526
 3595ntf    fn420983   3.132   4.263   6.884 -0.2693  0.4068 -1.0021
 3595ntf    fn420984   2.948   4.313   6.969  0.1546 -0.2631  0.0808
 3595ntf    fn420985   3.105   4.228   7.092  0.1516 -0.1128 -0.1984
 3596ntf    cn120986   6.035   4.027   4.145  0.3992 -0.2424 -0.0024
 3596ntf    sn220987   6.186   3.944   4.204  0.2217 -0.2355  0.4690
 3596ntf    nn320988   6.126   3.808   4.252 -0.5367  0.0155  0.2529
 3596ntf    sn220989   6.062   3.772   4.390 -0.5491 -0.1425  0.2063
 3596ntf    cn120990   6.199   3.690   4.476 -0.0365 -0.0496 -0.5220
 3596ntf    fn420991   5.938   4.026   4.235 -0.0811  0.0367 -0.5108
 3596ntf    fn420992   6.049   4.149   4.096  0.5165 -0.2479  0.0169
 3596ntf    fn420993   5.983   3.959   4.044 -0.1432  0.3555 -0.1322
 3596ntf    on520994   6.267   3.931   4.085 -0.6576  0.5233 -0.2232
 3596ntf    on520995   6.239   4.027   4.310  0.0246  0.5635 -0.0487
 3596ntf    on520996   5.969   3.662   4.383  0.0330 -0.6334  0.1910
 3596ntf    on520997   6.031   3.884   4.476  0.2073  0.1808  0.0648
 3596ntf    fn420998   6.278   3.619   4.396  0.3752 -0.3022  0.1020
 3596ntf    fn420999   6.273   3.780   4.537 -0.6843  0.4330 -0.4429
 3596ntf    fn421000   6.143   3.606   4.562 -0.0922  0.1222 -0.3911
 3597ntf    cn121001   5.179   6.791   6.035 -0.1857  0.8222 -0.2680
 3597ntf    sn221002   5.154   6.765   5.856  0.3367  0.0066 -0.2288
 3597ntf    nn321003   4.997   6.765   5.855  0.3299  0.3423  0.2696
 3597ntf    sn221004   4.888   6.653   5.870  0.2259  0.4493  0.3085
 3597ntf    cn121005   4.857   6.595   5.701  0.4838 -0.1712  0.4745
 3597ntf    fn421006   5.150   6.688   6.112  0.7422  0.6593 -0.1244
 3597ntf    fn421007   5.299   6.839   6.061  0.3162 -0.2712 -0.5158
 3597ntf    fn421008   5.090   6.882   6.072 -0.3990  0.2259  0.7305
 3597ntf    on521009   5.215   6.885   5.804 -0.1477  0.0964 -0.5896
 3597ntf    on521010   5.209   6.639   5.814  0.3293 -0.1876  0.3321
 3597ntf    on521011   4.758   6.693   5.918 -0.1600 -0.5568  0.1046
 3597ntf    on521012   4.934   6.540   5.947  0.0330  0.2746  0.1670
 3597ntf    fn421013   4.793   6.678   5.621 -0.2488 -0.8228  0.3707
 3597ntf    fn421014   4.972   6.568   5.640  0.2020  0.1683 -0.2129
 3597ntf    fn421015   4.785   6.484   5.700  0.4346 -0.1368 -0.1776
 3598ntf    cn121016   3.128   5.301   2.623 -0.4220  0.3477  0.0315
 3598ntf    sn221017   3.169   5.355   2.454 -0.1607 -0.0885 -0.0474
 3598ntf    nn321018   3.180   5.510   2.469  0.8383 -0.1295 -0.3457
 3598ntf    sn221019   3.146   5.631   2.374  0.1752  0.1124  0.1950
 3598ntf    cn121020   3.065   5.747   2.488 -0.3329 -0.0735  0.0229
 3598ntf    fn421021   3.211   5.349   2.715  0.1832 -0.4098 -0.1021
 3598ntf    fn421022   3.005   5.333   2.659 -0.6286  0.3278 -0.6446
 3598ntf    fn421023   3.127   5.169   2.631  0.4774  0.3508  0.3977
 3598ntf    on521024   3.294   5.290   2.424  0.0692  0.2587  0.1550
 3598ntf    on521025   3.057   5.308   2.375 -0.4104 -0.4561  0.5139
 3598ntf    on521026   3.045   5.603   2.276  0.5347 -0.0752 -0.1218
 3598ntf    on521027   3.257   5.709   2.325  0.0292  0.2505  0.0846
 3598ntf    fn421028   3.142   5.802   2.581  0.1216 -0.1518 -0.3051
 3598ntf    fn421029   3.000   5.842   2.424  0.1248  0.2138 -0.0193
 3598ntf    fn421030   2.972   5.687   2.560 -0.2429 -0.5884 -0.2880
 3599ntf    cn121031   3.711   6.359   4.437 -0.2181  0.3823  0.3690
 3599ntf    sn221032   3.650   6.333   4.268  0.2211  0.3204  0.2170
 3599ntf    nn321033   3.583   6.192   4.288  0.2700  0.2465 -0.1234
 3599ntf    sn221034   3.586   6.071   4.188 -0.3453  0.3947 -0.3301
 3599ntf    cn121035   3.732   5.973   4.235 -0.4577  0.3451 -0.0782
 3599ntf    fn421036   3.802   6.455   4.448 -0.0261  0.2041  0.3348
 3599ntf    fn421037   3.614   6.399   4.517 -0.2394  0.0477  0.5115
 3599ntf    fn421038   3.757   6.249   4.494  0.0710  0.4344  0.2438
 3599ntf    on521039   3.557   6.437   4.233 -0.3560 -0.3749 -0.3691
 3599ntf    on521040   3.770   6.326   4.188  0.0524 -0.1784 -0.0037
 3599ntf    on521041   3.614   6.110   4.052 -0.1105  0.1079 -0.3661
 3599ntf    on521042   3.473   5.985   4.213 -0.1350  0.2657  0.1931
 3599ntf    fn421043   3.718   5.903   4.346  0.5225  0.6500  0.2431
 3599ntf    fn421044   3.759   5.880   4.144 -0.6030  0.1536  0.0752
 3599ntf    fn421045   3.839   6.049   4.242 -0.1073 -0.1401 -0.0953
 3600ntf    cn121046   5.614   2.124   0.219  0.3922  0.0171 -0.0576
 3600ntf    sn221047   5.507   2.265   0.260  0.2601 -0.0836 -0.0583
 3600ntf    nn321048   5.368   2.197   0.230  0.4499 -0.3527 -0.3435
 3600ntf    sn221049   5.227   2.261   0.204  0.5446  0.0450  0.0998
 3600ntf    cn121050   5.156   2.237   0.370 -0.0665  0.7032 -0.0603
 3600ntf    fn421051   5.603   2.031   0.313 -0.2219  0.1527  0.0081
 3600ntf    fn421052   5.572   2.067   0.108  0.1378 -0.6629  0.3793
 3600ntf    fn421053   5.743   2.147   0.202  0.2245  0.7610 -0.3698
 3600ntf    on521054   5.527   2.296   0.399 -0.5507  0.9064 -0.1542
 3600ntf    on521055   5.548   2.368   0.168  0.6793 -0.0251  0.1953
 3600ntf    on521056   5.149   2.173   0.120 -0.0403  0.0737  0.6008
 3600ntf    on521057   5.227   2.403   0.182  0.9544  0.0870  0.3718
 3600ntf    fn421058   5.149   2.107   0.396 -0.0245  0.4807 -1.0943
 3600ntf    fn421059   5.235   2.295   0.458  0.0871  0.4872 -0.0538
 3600ntf    fn421060   5.033   2.283   0.385 -0.4091 -0.1522 -0.1435
 3601ntf    cn121061   4.969   4.697   6.241 -0.0728 -0.2516 -0.1566
 3601ntf    sn221062   4.911   4.822   6.360  0.2804  0.0148 -0.2621
 3601ntf    nn321063   5.048   4.890   6.394  0.3317 -0.0480 -0.3413
 3601ntf    sn221064   5.154   4.866   6.508 -0.1837 -0.0877  0.1353
 3601ntf    cn121065   5.070   4.972   6.629  0.3614  0.4199  0.0749
 3601ntf    fn421066   4.880   4.605   6.208 -0.7099  0.4622 -0.4738
 3601ntf    fn421067   5.014   4.746   6.126  0.1531 -0.1407 -0.0211
 3601ntf    fn421068   5.073   4.633   6.291  0.3166 -0.0787 -0.7274
 3601ntf    on521069   4.828   4.908   6.280 -0.3057  0.1587  0.4909
 3601ntf    on521070   4.852   4.739   6.462  0.2520  0.6585  0.2499
 3601ntf    on521071   5.280   4.934   6.485  0.1639 -0.7539  0.0360
 3601ntf    on521072   5.152   4.732   6.560 -0.1573 -0.2441 -0.2630
 3601ntf    fn421073   4.951   4.929   6.669  0.5024 -0.2038 -0.1700
 3601ntf    fn421074   5.142   4.985   6.740  0.1016 -0.2722  0.3314
 3601ntf    fn421075   5.052   5.095   6.585  0.3846  0.4854  0.2478
 3602ntf    cn121076   6.277   6.106   1.994 -0.2857  0.2276  0.0459
 3602ntf    sn221077   6.417   6.034   1.903 -0.2792  0.3525 -0.0425
 3602ntf    nn321078   6.368   6.061   1.756  0.6074 -0.5658 -0.5240
 3602ntf    sn221079   6.258   5.982   1.676  0.0009 -0.1737 -0.0876
 3602ntf    cn121080   6.367   5.907   1.552 -0.0974 -0.2471 -0.1292
 3602ntf    fn421081   6.242   6.215   1.928 -0.4321  0.0298 -0.2016
 3602ntf    fn421082   6.176   6.021   1.990 -0.3828  0.3467 -0.0406
 3602ntf    fn421083   6.313   6.131   2.119 -0.0573  0.0200  0.0232
 3602ntf    on521084   6.531   6.114   1.940  0.1534 -0.2853  0.0190
 3602ntf    on521085   6.422   5.896   1.944  0.0126  0.4197  0.1521
 3602ntf    on521086   6.182   6.079   1.601  0.0612 -0.1290 -0.0916
 3602ntf    on521087   6.191   5.881   1.754  0.0549 -0.3562 -0.2783
 3602ntf    fn421088   6.314   5.854   1.443 -0.0787 -0.2425 -0.1402
 3602ntf    fn421089   6.460   5.991   1.509 -0.0376 -0.2699 -0.0426
 3602ntf    fn421090   6.437   5.812   1.609 -0.2215 -0.7449 -0.7891
 3603ntf    cn121091   7.226   6.355   5.355  0.1958 -0.4411  0.0603
 3603ntf    sn221092   7.115   6.311   5.492 -0.0772  0.0504 -0.0013
 3603ntf    nn321093   7.048   6.183   5.429 -0.3120  0.1504  0.0440
 3603ntf    sn221094   6.896   6.172   5.391 -0.2381  0.0018 -0.2092
 3603ntf    cn121095   6.900   6.220   5.216 -0.2314 -0.1635 -0.2553
 3603ntf    fn421096   7.263   6.482   5.358 -0.1565 -0.3406  0.2208
 3603ntf    fn421097   7.341   6.289   5.351  0.3842 -0.1053 -0.1692
 3603ntf    fn421098   7.173   6.339   5.235  0.6455 -0.7240 -0.1041
 3603ntf    on521099   7.200   6.274   5.602 -0.0334 -0.4389 -0.1961
 3603ntf    on521100   7.031   6.422   5.529 -0.6901 -0.4156  0.0323
 3603ntf    on521101   6.807   6.263   5.458 -0.2936 -0.1287 -0.1040
 3603ntf    on521102   6.859   6.032   5.385 -0.2220 -0.0157  0.0638
 3603ntf    fn421103   6.987   6.150   5.145  0.1436 -0.1240  0.1631
 3603ntf    fn421104   6.782   6.187   5.167 -0.1487 -0.1201 -0.4867
 3603ntf    fn421105   6.926   6.349   5.198 -0.3211 -0.0643  0.2946
 3604ntf    cn121106   3.451   5.137   1.356  0.1993  0.0074  0.1444
 3604ntf    sn221107   3.443   5.073   1.525 -0.1483  0.1337  0.1763
 3604ntf    nn321108   3.290   5.090   1.558 -0.1856  0.0851  0.0261
 3604ntf    sn221109   3.204   5.183   1.650 -0.2290  0.3863 -0.3137
 3604ntf    cn121110   3.075   5.063   1.694  0.2289 -0.0586 -0.1751
 3604ntf    fn421111   3.425   5.055   1.255  0.0864  0.5305 -0.2563
 3604ntf    fn421112   3.371   5.242   1.344  0.1798 -0.0359 -0.1101
 3604ntf    fn421113   3.577   5.175   1.339  0.0494  0.4838  0.0643
 3604ntf    on521114   3.492   4.939   1.504 -0.1064 -0.0564  1.3949
 3604ntf    on521115   3.535   5.164   1.589 -0.0492  0.1327  0.0355
 3604ntf    on521116   3.133   5.283   1.575 -0.1392  0.0658 -0.8278
 3604ntf    on521117   3.258   5.222   1.779  0.6484  0.4643 -0.6977
 3604ntf    fn421118   2.967   5.123   1.740  0.5323 -0.3060  0.8901
 3604ntf    fn421119   3.030   4.986   1.596  0.5646 -0.8563  0.2868
 3604ntf    fn421120   3.106   4.977   1.790 -0.2298 -0.0034  0.0222
 3605ntf    cn121121   2.955   5.326   0.663  0.2877  0.1678  0.1522
 3605ntf    sn221122   2.914   5.335   0.486 -0.1748 -0.0858  0.2453
 3605ntf    nn321123   2.770   5.394   0.507 -0.1759  0.1097 -0.3098
 3605ntf    sn221124   2.626   5.333   0.526 -0.0339 -0.1565 -0.0794
 3605ntf    cn121125   2.550   5.469   0.619  0.2957 -0.2280  0.2987
 3605ntf    fn421126   2.893   5.225   0.721  0.4560 -0.4307 -0.7047
 3605ntf    fn421127   3.081   5.306   0.695  0.1508  0.0871  0.6487
 3605ntf    fn421128   2.918   5.441   0.717 -0.0409  0.3832 -0.5212
 3605ntf    on521129   3.012   5.427   0.434 -0.4533  0.1926  0.2112
 3605ntf    on521130   2.918   5.199   0.438 -0.8188  0.0666 -0.2613
 3605ntf    on521131   2.617   5.215   0.608 -0.5569 -0.0820 -0.0254
 3605ntf    on521132   2.553   5.331   0.402 -0.6839  0.5270  0.2880
 3605ntf    fn421133   2.522   5.579   0.550  0.7104 -0.2237  0.1376
 3605ntf    fn421134   2.444   5.431   0.689  0.2593 -0.5123  0.0895
 3605ntf    fn421135   2.622   5.514   0.720 -0.2548  0.5104  0.3762
 3606ntf    cn121136   4.142   7.128   5.426  0.3317  0.0129 -0.0499
 3606ntf    sn221137   4.052   7.073   5.574  0.0338  0.4144 -0.0789
 3606ntf    nn321138   3.925   7.000   5.518 -0.2754  0.5679  0.4148
 3606ntf    sn221139   3.811   7.067   5.434 -0.0462  0.1352 -0.2476
 3606ntf    cn121140   3.665   6.998   5.518 -0.1353  0.3304 -0.2429
 3606ntf    fn421141   4.066   7.215   5.362 -0.1971 -0.3398  0.0926
 3606ntf    fn421142   4.256   7.186   5.460  0.2606  0.1462 -0.0398
 3606ntf    fn421143   4.158   7.036   5.332 -0.0109  0.2966 -0.3907
 3606ntf    on521144   4.140   6.978   5.638 -0.8302 -0.0625  0.4209
 3606ntf    on521145   4.034   7.189   5.658  0.3073  0.0760  0.4562
 3606ntf    on521146   3.806   7.019   5.298  0.0435 -0.0000 -0.2035
 3606ntf    on521147   3.798   7.210   5.437 -0.8119  0.0672 -0.1089
 3606ntf    fn421148   3.553   7.044   5.464 -0.3640  0.5185  0.3798
 3606ntf    fn421149   3.655   6.866   5.508  0.1868  0.2232  0.8163
 3606ntf    fn421150   3.673   7.027   5.647 -0.4740  0.0879 -0.1662
 3607ntf    cn121151   1.363   3.838   3.973  0.2342  0.0822 -0.0930
 3607ntf    sn221152   1.243   3.847   4.109  0.1758 -0.2265 -0.1221
 3607ntf    nn321153   1.221   4.001   4.135 -0.0786 -0.2721 -0.0641
 3607ntf    sn221154   1.231   4.095   4.260  0.0637 -0.2011 -0.1290
 3607ntf    cn121155   1.371   4.204   4.221 -0.3210  0.4154  0.1993
 3607ntf    fn421156   1.338   3.732   3.897 -0.0302 -0.3830  0.6302
 3607ntf    fn421157   1.364   3.952   3.906  0.3753 -0.0535 -0.3239
 3607ntf    fn421158   1.488   3.828   4.016 -0.0132 -0.0253  0.6167
 3607ntf    on521159   1.133   3.788   4.036 -0.3431 -0.0591  0.5162
 3607ntf    on521160   1.305   3.769   4.213  0.4374 -0.0101 -0.1142
 3607ntf    on521161   1.279   4.031   4.380  0.1936  0.3862  0.1348
 3607ntf    on521162   1.130   4.197   4.270 -0.0279 -0.3241  0.2313
 3607ntf    fn421163   1.373   4.298   4.314 -0.1641  0.1030  0.5126
 3607ntf    fn421164   1.481   4.131   4.234 -0.5794 -0.1835 -0.8357
 3607ntf    fn421165   1.368   4.259   4.101 -0.3027 -0.7566 -0.3461
 3608ntf    cn121166   2.754   5.858   1.159 -0.4609  0.5485  0.0953
 3608ntf    sn221167   2.738   5.900   1.335  0.0098 -0.1402  0.3064
 3608ntf    nn321168   2.669   5.770   1.388 -0.4541 -0.2303 -0.5037
 3608ntf    sn221169   2.532   5.747   1.461 -0.0917  0.1453  0.3105
 3608ntf    cn121170   2.468   5.603   1.370  0.3803  0.2208 -0.1404
 3608ntf    fn421171   2.644   5.848   1.087 -0.0918 -0.3553 -0.3597
 3608ntf    fn421172   2.835   5.940   1.094 -0.2604 -0.1245 -0.5135
 3608ntf    fn421173   2.815   5.743   1.137 -0.5042  0.6449 -0.5534
 3608ntf    on521174   2.874   5.919   1.382 -0.0256  0.4622  0.1766
 3608ntf    on521175   2.647   6.012   1.333  0.0571 -0.1048  0.0112
 3608ntf    on521176   2.419   5.837   1.456  0.3307  0.6290 -0.5345
 3608ntf    on521177   2.553   5.691   1.592  0.4635  0.7489  0.4855
 3608ntf    fn421178   2.340   5.575   1.387  0.2703  0.3091 -0.7718
 3608ntf    fn421179   2.487   5.614   1.239 -0.2084  0.0024 -0.2488
 3608ntf    fn421180   2.540   5.497   1.401  0.4011 -0.0057 -0.9341
 3609ntf    cn121181   5.803   2.766   6.111 -0.0294  0.0944  0.3498
 3609ntf    sn221182   5.877   2.817   5.953  0.1760 -0.2632  0.3303
 3609ntf    nn321183   6.026   2.789   5.997  0.2781  0.1504  0.2532
 3609ntf    sn221184   6.126   2.670   5.979 -0.0994 -0.1734  0.2685
 3609ntf    cn121185   6.181   2.721   5.813 -0.5307  0.0082  0.1798
 3609ntf    fn421186   5.672   2.752   6.100  0.0051  0.0363 -0.0257
 3609ntf    fn421187   5.851   2.649   6.149 -0.1578  0.0073  0.2480
 3609ntf    fn421188   5.813   2.855   6.208  0.2082  0.0424  0.3734
 3609ntf    on521189   5.838   2.721   5.852 -0.1171  0.7177 -0.5036
 3609ntf    on521190   5.845   2.956   5.932 -0.1221 -0.3430  0.2554
 3609ntf    on521191   6.083   2.536   5.948 -0.9064  0.1671 -0.0971
 3609ntf    on521192   6.247   2.686   6.056  0.1305 -0.2682 -0.0655
 3609ntf    fn421193   6.165   2.851   5.797  0.3372  0.0884 -0.1139
 3609ntf    fn421194   6.308   2.687   5.795 -0.4228  0.0458  0.8367
 3609ntf    fn421195   6.114   2.675   5.708  0.2951 -0.5693 -0.1036
 3610ntf    cn121196   3.641   3.094   1.513 -0.1302  0.0185  0.0088
 3610ntf    sn221197   3.491   3.078   1.412 -0.0607  0.0728 -0.1025
 3610ntf    nn321198   3.387   3.138   1.512  0.6761  0.1271  0.6444
 3610ntf    sn221199   3.238   3.097   1.539  0.6284  0.0232  0.2300
 3610ntf    cn121200   3.265   2.967   1.664 -0.4084 -0.4331 -0.0114
 3610ntf    fn421201   3.627   3.042   1.634 -0.8015 -0.5918 -0.3236
 3610ntf    fn421202   3.737   3.020   1.460 -0.1709  0.1032 -0.1843
 3610ntf    fn421203   3.679   3.221   1.514 -0.1873  0.0376 -0.2045
 3610ntf    on521204   3.532   3.166   1.305 -0.4047  0.2014 -0.1289
 3610ntf    on521205   3.470   2.939   1.378  0.4870 -0.0358 -0.0189
 3610ntf    on521206   3.171   3.030   1.430  0.8298 -0.1617  0.2201
 3610ntf    on521207   3.161   3.197   1.609  0.2100  0.0697 -0.2874
 3610ntf    fn421208   3.151   2.903   1.685 -0.3895 -0.3971  0.1999
 3610ntf    fn421209   3.352   2.880   1.616  0.1195  0.1668 -0.1555
 3610ntf    fn421210   3.316   3.005   1.780 -0.1642  0.0051 -0.2567
 3611ntf    cn121211   0.379   2.390   6.445 -0.3787  0.1912  0.2091
 3611ntf    sn221212   0.231   2.489   6.412 -0.3350  0.1873  0.0004
 3611ntf    nn321213   0.191   2.544   6.554  0.1209 -0.4775  0.3913
 3611ntf    sn221214   0.076   2.483   6.640 -0.3781 -0.1276 -0.0220
 3611ntf    cn121215   0.073   2.598   6.782 -0.4694 -0.1785  0.0174
 3611ntf    fn421216   0.440   2.338   6.340 -0.0624  0.6166  0.1821
 3611ntf    fn421217   0.480   2.447   6.509 -0.1128 -0.0810  0.0360
 3611ntf    fn421218   0.349   2.288   6.524  0.5305 -0.3024 -0.0632
 3611ntf    on521219   0.289   2.597   6.336  0.3442 -0.2965 -0.1700
 3611ntf    on521220   0.141   2.395   6.349 -0.2928  0.2500 -0.1545
 3611ntf    on521221   0.111   2.357   6.701 -0.1106 -0.1543 -0.2298
 3611ntf    on521222  -0.056   2.495   6.583 -0.0692  0.4723 -0.6235
 3611ntf    fn421223  -0.042   2.661   6.801 -0.1630  0.4575 -0.2124
 3611ntf    fn421224   0.100   2.540   6.897  0.2264  0.2495  0.0708
 3611ntf    fn421225   0.160   2.697   6.772 -0.4317 -0.1908  0.2263
 3612ntf    cn121226   5.042   0.117   6.822 -0.1842 -0.1105 -0.4189
 3612ntf    sn221227   5.136   0.227   6.931 -0.3546 -0.3514 -0.0295
 3612ntf    nn321228   5.049   0.357   6.926  0.1097 -0.0249  0.2149
 3612ntf    sn221229   5.093   0.501   6.971 -0.1202  0.1346 -0.0657
 3612ntf    cn121230   5.075   0.601   6.820 -0.0450  0.1735 -0.0488
 3612ntf    fn421231   4.935   0.057   6.871  0.1578 -0.1714  0.2588
 3612ntf    fn421232   5.017   0.176   6.705 -0.1136  0.2670 -0.2457
 3612ntf    fn421233   5.113   0.012   6.786  0.3338  0.1259 -0.0997
 3612ntf    on521234   5.137   0.164   7.061  0.1618  0.0626  0.1752
 3612ntf    on521235   5.258   0.234   6.855 -0.6093 -0.0270 -0.4095
 3612ntf    on521236   5.227   0.521   7.018 -0.1459  0.4217 -0.1134
 3612ntf    on521237   4.993   0.549   7.064  0.1739  0.0528  0.2936
 3612ntf    fn421238   5.134   0.541   6.719 -0.2531 -0.0626 -0.0320
 3612ntf    fn421239   4.951   0.614   6.777 -0.0551  0.0977 -0.0413
 3612ntf    fn421240   5.130   0.720   6.834  0.2570 -0.0397  0.6386
 3613ntf    cn121241   7.102   1.322   3.712  0.2184  0.0100  0.0263
 3613ntf    sn221242   7.263   1.256   3.766 -0.0354 -0.1517  0.5909
 3613ntf    nn321243   7.273   1.134   3.667  0.0966 -0.0249  0.4472
 3613ntf    sn221244   7.313   0.983   3.683  0.1560 -0.0278  0.2683
 3613ntf    cn121245   7.266   0.926   3.517 -0.0233 -0.3980  0.4438
 3613ntf    fn421246   7.005   1.238   3.742 -0.3482  0.4042 -0.6807
 3613ntf    fn421247   7.067   1.439   3.763  0.7704  0.0363  0.3587
 3613ntf    fn421248   7.096   1.332   3.580 -0.1170 -0.2671  0.0191
 3613ntf    on521249   7.360   1.359   3.737 -0.6164  0.2004 -0.1525
 3613ntf    on521250   7.242   1.211   3.901  0.2194 -0.7219  0.4440
 3613ntf    on521251   7.221   0.909   3.766  0.2452  0.1373  0.5122
 3613ntf    on521252   7.455   0.964   3.700  0.3722  0.9537 -0.3801
 3613ntf    fn421253   7.288   0.796   3.505  0.6948 -0.1885 -0.7428
 3613ntf    fn421254   7.140   0.953   3.489  0.1555 -0.1332 -0.1393
 3613ntf    fn421255   7.339   0.979   3.419 -0.3983 -0.0133  0.3707
 3614ntf    cn121256   0.666   0.773   4.077  0.2083  0.1757  0.1988
 3614ntf    sn221257   0.512   0.826   3.996  0.3857 -0.0056 -0.2620
 3614ntf    nn321258   0.454   0.907   4.117 -0.2809 -0.1670 -0.4690
 3614ntf    sn221259   0.472   1.053   4.171  0.1437 -0.4120  0.0654
 3614ntf    cn121260   0.452   1.036   4.351  0.1258  0.0175  0.1055
 3614ntf    fn421261   0.631   0.725   4.195  0.3961 -0.0055  0.1811
 3614ntf    fn421262   0.734   0.675   4.020 -0.1778  0.1970 -0.3126
 3614ntf    fn421263   0.748   0.875   4.095 -0.2485  0.5793  0.0252
 3614ntf    on521264   0.553   0.906   3.883 -0.2378  0.2523 -0.3126
 3614ntf    on521265   0.445   0.701   3.971  0.1709 -0.0296  0.4084
 3614ntf    on521266   0.365   1.141   4.131  0.4790 -0.0523 -0.0461
 3614ntf    on521267   0.606   1.102   4.151  0.1667 -0.7077 -0.5184
 3614ntf    fn421268   0.337   0.980   4.384  0.2546 -0.4295 -0.1908
 3614ntf    fn421269   0.553   0.968   4.403  0.5166  0.1561 -0.4688
 3614ntf    fn421270   0.452   1.151   4.416  0.0050 -0.0754  0.2706
 3615ntf    cn121271   3.282   5.392   3.123  0.1846 -0.0994  0.2552
 3615ntf    sn221272   3.266   5.433   3.299  0.1138  0.2141  0.1773
 3615ntf    nn321273   3.404   5.503   3.324  0.2024  0.0492  0.1552
 3615ntf    sn221274   3.544   5.446   3.365  0.0572 -0.3156  0.1469
 3615ntf    cn121275   3.519   5.418   3.543 -0.1297 -0.2969  0.1233
 3615ntf    fn421276   3.378   5.305   3.095  0.1106 -0.0938 -0.0246
 3615ntf    fn421277   3.166   5.343   3.083  0.2394 -0.1441  0.1520
 3615ntf    fn421278   3.300   5.497   3.044 -0.2967 -0.1843  0.0298
 3615ntf    on521279   3.160   5.530   3.309  0.0547  0.1206  0.4646
 3615ntf    on521280   3.251   5.307   3.368 -0.2019  0.3462  0.3558
 3615ntf    on521281   3.639   5.554   3.355 -0.0227 -0.2417  0.1839
 3615ntf    on521282   3.580   5.317   3.310  0.1736 -0.0662 -0.3728
 3615ntf    fn421283   3.478   5.531   3.599 -0.4331 -0.2492 -0.1859
 3615ntf    fn421284   3.419   5.336   3.573 -0.7589  0.4652  0.1599
 3615ntf    fn421285   3.633   5.384   3.600 -0.1922 -0.4091  0.1809
 3616ntf    cn121286   2.971   3.088   6.876  0.0063 -0.1224 -0.3804
 3616ntf    sn221287   2.818   3.143   6.794 -0.0112  0.0050 -0.2632
 3616ntf    nn321288   2.737   3.009   6.797 -0.7823  0.4708  0.4963
 3616ntf    sn221289   2.645   2.943   6.687 -0.5335  0.0500  0.5368
 3616ntf    cn121290   2.640   2.769   6.737  0.1908  0.0257  0.5329
 3616ntf    fn421291   3.017   2.975   6.826 -0.0049 -0.2540 -0.0943
 3616ntf    fn421292   3.071   3.171   6.852 -0.5939  0.7192 -0.0339
 3616ntf    fn421293   2.963   3.065   7.006  0.6098 -0.2375 -0.3647
 3616ntf    on521294   2.770   3.251   6.878 -0.2823 -1.0064  0.9038
 3616ntf    on521295   2.864   3.178   6.663 -0.0510 -0.1772 -0.3253
 3616ntf    on521296   2.708   2.937   6.558 -0.6198 -0.7193  0.5281
 3616ntf    on521297   2.505   2.980   6.692 -0.7059 -0.3886 -0.8826
 3616ntf    fn421298   2.611   2.760   6.866 -0.3275  0.0815  0.4214
 3616ntf    fn421299   2.548   2.698   6.674 -0.3798  1.2112  0.0175
 3616ntf    fn421300   2.759   2.715   6.717  0.2294  0.3097  0.0111
 3617ntf    cn121301   2.192   4.515   0.166 -0.1735 -0.3983 -0.3225
 3617ntf    sn221302   2.142   4.674   0.092  0.2516 -0.0360  0.1636
 3617ntf    nn321303   1.987   4.672   0.119  0.2418 -0.1213  0.1024
 3617ntf    sn221304   1.896   4.762   0.210  0.0366  0.0077 -0.2288
 3617ntf    cn121305   1.806   4.636   0.304 -0.2343  0.1450 -0.3046
 3617ntf    fn421306   2.311   4.467   0.132  0.4319  0.7032  0.2027
 3617ntf    fn421307   2.182   4.511   0.297  0.1096  0.7037 -0.2581
 3617ntf    fn421308   2.106   4.424   0.122 -0.3503 -0.4594  0.1504
 3617ntf    on521309   2.218   4.763   0.176 -0.1016  0.2913  0.1372
 3617ntf    on521310   2.186   4.647  -0.043 -0.4228 -0.8029  0.0863
 3617ntf    on521311   1.784   4.822   0.142  0.0877  0.0367 -0.2889
 3617ntf    on521312   1.961   4.855   0.300  0.7952  0.2308 -0.9854
 3617ntf    fn421313   1.716   4.691   0.383 -0.4369 -0.1703 -0.3142
 3617ntf    fn421314   1.735   4.561   0.221 -0.6875 -0.0410  0.2448
 3617ntf    fn421315   1.879   4.560   0.384  0.2450  0.0018 -0.8714
 3618ntf    cn121316   5.020   3.772   4.603  0.0058 -0.6672  0.0912
 3618ntf    sn221317   5.085   3.607   4.562  0.4678 -0.4381 -0.0944
 3618ntf    nn321318   5.051   3.522   4.689 -0.3331  0.1295  0.0771
 3618ntf    sn221319   5.138   3.405   4.747  0.0552  0.4004  0.0470
 3618ntf    cn121320   5.031   3.261   4.716 -0.5492  0.8990 -0.1997
 3618ntf    fn421321   5.027   3.808   4.730 -0.5708 -0.3154  0.0278
 3618ntf    fn421322   5.083   3.866   4.534 -0.4815 -0.3052  0.1358
 3618ntf    fn421323   4.894   3.776   4.564  0.1040  0.5481 -0.1333
 3618ntf    on521324   5.015   3.567   4.442  0.5269  0.2404 -0.3646
 3618ntf    on521325   5.228   3.630   4.556  0.3964  0.3025  0.7639
 3618ntf    on521326   5.148   3.394   4.890 -0.0905 -0.1146  0.0220
 3618ntf    on521327   5.255   3.361   4.674  0.0515  0.4784 -0.0069
 3618ntf    fn421328   4.910   3.284   4.764 -0.3393  0.2430  0.6724
 3618ntf    fn421329   5.026   3.234   4.586  0.0125 -0.7714  0.1069
 3618ntf    fn421330   5.079   3.150   4.769 -0.8422  0.6541 -0.4408
 3619ntf    cn121331   3.088   1.750   1.928  0.1127  0.2053 -0.5189
 3619ntf    sn221332   3.216   1.690   2.042 -0.3138 -0.0383 -0.1661
 3619ntf    nn321333   3.259   1.560   1.965  0.1860 -0.1067  0.2299
 3619ntf    sn221334   3.212   1.413   1.997 -0.0643 -0.1121 -0.1637
 3619ntf    cn121335   3.241   1.338   1.834 -0.2894 -0.3392 -0.0985
 3619ntf    fn421336   3.050   1.870   1.968  0.6120  0.4959 -0.9022
 3619ntf    fn421337   3.136   1.768   1.806  0.3357  0.4373 -0.3985
 3619ntf    fn421338   2.978   1.677   1.937  0.0786  0.3519  0.2959
 3619ntf    on521339   3.320   1.789   2.047  0.1095 -0.4944  0.1226
 3619ntf    on521340   3.149   1.666   2.167  0.0082  0.3207  0.0749
 3619ntf    on521341   3.070   1.396   2.015  0.0133 -0.3803  0.1949
 3619ntf    on521342   3.297   1.339   2.087  0.1708 -0.0550 -0.3365
 3619ntf    fn421343   3.217   1.207   1.836  0.3564 -0.4595 -0.0648
 3619ntf    fn421344   3.174   1.382   1.729  0.1891  0.0268 -0.2504
 3619ntf    fn421345   3.370   1.348   1.806 -0.2422 -0.2214  0.1633
 3620ntf    cn121346   4.552   0.090   6.709  0.2959 -0.0242  0.0206
 3620ntf    sn221347   4.428   0.149   6.591  0.0968 -0.5112 -0.0155
 3620ntf    nn321348   4.345   0.018   6.571 -0.1172 -0.3780 -0.0069
 3620ntf    sn221349   4.363  -0.096   6.465 -0.0116 -0.0507 -0.3403
 3620ntf    cn121350   4.307  -0.236   6.566 -0.0536  0.1030 -0.1515
 3620ntf    fn421351   4.643   0.018   6.646  0.6821  0.2443  0.2646
 3620ntf    fn421352   4.627   0.188   6.760  0.2665 -0.1074  0.2265
 3620ntf    fn421353   4.501   0.018   6.807 -0.7688  0.5163 -0.1289
 3620ntf    on521354   4.351   0.247   6.663  0.7518  0.3695 -0.4804
 3620ntf    on521355   4.509   0.199   6.482  0.2092  0.2302  0.3992
 3620ntf    on521356   4.500  -0.131   6.434  0.2063  0.6173 -0.1409
 3620ntf    on521357   4.261  -0.088   6.363 -0.3523  0.7754  0.0619
 3620ntf    fn421358   4.389  -0.258   6.668 -0.3580 -0.1612  0.0373
 3620ntf    fn421359   4.184  -0.225   6.614 -0.0835  0.2813 -0.2697
 3620ntf    fn421360   4.309  -0.345   6.492 -0.8889  0.0111 -0.0424
 3621ntf    cn121361   5.733   1.464   4.655  0.0253 -0.2883  0.0716
 3621ntf    sn221362   5.844   1.427   4.794 -0.2797 -0.0724  0.3725
 3621ntf    nn321363   5.760   1.325   4.879  0.1534 -0.1966  0.6553
 3621ntf    sn221364   5.748   1.169   4.859  0.1052 -0.1322  0.1665
 3621ntf    cn121365   5.838   1.126   5.011 -0.1023 -0.4043  0.2131
 3621ntf    fn421366   5.611   1.501   4.690  0.0139 -0.8089  0.5847
 3621ntf    fn421367   5.785   1.557   4.576  0.3338 -0.7346 -0.2619
 3621ntf    fn421368   5.720   1.354   4.582 -0.3135  0.1851 -0.5899
 3621ntf    on521369   5.970   1.380   4.741 -0.1073  0.3921  0.3670
 3621ntf    on521370   5.846   1.559   4.852  0.0560  0.0976 -0.0223
 3621ntf    on521371   5.833   1.105   4.762  0.4081  0.2616  0.1723
 3621ntf    on521372   5.611   1.126   4.875  0.1375 -0.6560 -0.8894
 3621ntf    fn421373   5.840   0.994   5.019 -0.2216 -0.4369 -0.2632
 3621ntf    fn421374   5.959   1.178   4.999 -0.0184 -0.7142 -0.3558
 3621ntf    fn421375   5.781   1.165   5.124 -0.6506 -0.3130 -0.0917
 3622ntf    cn121376   4.457   1.611   3.666 -0.2270  0.1839  0.0290
 3622ntf    sn221377   4.508   1.437   3.682 -0.3558  0.1198 -0.2406
 3622ntf    nn321378   4.568   1.413   3.539 -0.0630 -0.2956 -0.0491
 3622ntf    sn221379   4.717   1.437   3.496  0.1168 -0.4504  0.4743
 3622ntf    cn121380   4.788   1.272   3.525  0.2670 -0.4414  0.1684
 3622ntf    fn421381   4.382   1.628   3.558 -0.0430 -0.4905 -0.2097
 3622ntf    fn421382   4.393   1.658   3.772 -0.2218  0.1347  0.0546
 3622ntf    fn421383   4.558   1.694   3.645 -0.1768  0.0535 -0.2453
 3622ntf    on521384   4.604   1.450   3.790 -0.1910  0.4035 -0.4172
 3622ntf    on521385   4.386   1.364   3.703 -0.5368  0.4253 -0.2172
 3622ntf    on521386   4.798   1.522   3.579 -0.2064 -0.0699  0.4034
 3622ntf    on521387   4.734   1.454   3.354 -0.4449  0.5505  0.5194
 3622ntf    fn421388   4.920   1.270   3.516  0.2543 -0.7481  0.0361
 3622ntf    fn421389   4.767   1.234   3.650  0.1563  0.1414  0.3290
 3622ntf    fn421390   4.744   1.174   3.448  0.3582 -0.1527 -0.2509
 3623ntf    cn121391   2.806   0.364   6.537 -0.3089  0.0654  0.2877
 3623ntf    sn221392   2.916   0.410   6.674  0.1885  0.0094 -0.0921
 3623ntf    nn321393   2.835   0.527   6.741 -0.2664 -0.2812 -0.1316
 3623ntf    sn221394   2.758   0.528   6.877  0.0722 -0.1694  0.0597
 3623ntf    cn121395   2.587   0.523   6.818 -0.0105  0.1963  0.2630
 3623ntf    fn421396   2.844   0.278   6.444 -0.7316  0.1651  0.0215
 3623ntf    fn421397   2.696   0.314   6.591 -0.4480 -0.2902 -0.3245
 3623ntf    fn421398   2.773   0.470   6.464 -0.2061  0.2256  0.4715
 3623ntf    on521399   2.926   0.285   6.746  0.4979 -0.2973 -0.6591
 3623ntf    on521400   3.031   0.452   6.598  0.2055  0.8541  0.3835
 3623ntf    on521401   2.761   0.655   6.945  0.5710  0.0967 -0.4539
 3623ntf    on521402   2.776   0.410   6.958 -0.0291  0.0343  0.3808
 3623ntf    fn421403   2.554   0.609   6.723 -0.0068  0.1763  0.2436
 3623ntf    fn421404   2.549   0.401   6.781 -0.4500  0.5115 -0.3525
 3623ntf    fn421405   2.504   0.560   6.914  0.3612 -0.0908  0.6942
 3624ntf    cn121406   4.896   5.715   3.947 -0.5060 -0.0459  0.0975
 3624ntf    sn221407   5.071   5.666   3.939 -0.4539  0.1559 -0.0136
 3624ntf    nn321408   5.057   5.509   3.933 -0.2899  0.1372  0.0943
 3624ntf    sn221409   5.072   5.414   3.809  0.1362  0.1552  0.1291
 3624ntf    cn121410   4.905   5.343   3.828  0.2131  0.0931  0.5853
 3624ntf    fn421411   4.892   5.847   3.953 -0.3620 -0.0447  0.1666
 3624ntf    fn421412   4.814   5.678   3.850 -0.1180  0.4035 -0.4085
 3624ntf    fn421413   4.845   5.676   4.063  0.2540 -0.0203  0.4442
 3624ntf    on521414   5.117   5.736   3.822  0.3068  0.1200  0.2573
 3624ntf    on521415   5.122   5.708   4.067 -1.2435  0.0312  0.3501
 3624ntf    on521416   5.160   5.303   3.830  0.3719  0.3368  0.0997
 3624ntf    on521417   5.080   5.477   3.679  0.6936 -0.2737 -0.0465
 3624ntf    fn421418   4.903   5.250   3.921  0.6016 -0.9869 -0.4579
 3624ntf    fn421419   4.813   5.432   3.863 -0.2103 -0.0790 -0.0797
 3624ntf    fn421420   4.864   5.276   3.722 -0.2546  0.0552  0.7877
 3625ntf    cn121421   0.051   4.859   1.393  0.1337  0.2923 -0.0704
 3625ntf    sn221422   0.078   5.002   1.501 -0.3239  0.2482  0.1026
 3625ntf    nn321423   0.191   5.078   1.423 -0.7130  0.0366 -0.6680
 3625ntf    sn221424   0.175   5.202   1.329 -0.0111  0.3578 -0.3646
 3625ntf    cn121425   0.354   5.224   1.303  0.0796 -0.0079 -0.0481
 3625ntf    fn421426   0.134   4.763   1.432  0.0058  0.1375 -0.1731
 3625ntf    fn421427  -0.068   4.803   1.409  0.4673 -0.3832  0.1159
 3625ntf    fn421428   0.061   4.878   1.262 -0.0703  0.3272 -0.0811
 3625ntf    on521429  -0.051   5.066   1.502 -0.2879  0.3278 -0.2655
 3625ntf    on521430   0.127   4.944   1.624  0.3931  0.1837 -0.2112
 3625ntf    on521431   0.134   5.331   1.379  0.0379  0.3542 -0.3152
 3625ntf    on521432   0.141   5.168   1.193  0.3210 -0.2247 -0.3064
 3625ntf    fn421433   0.412   5.123   1.239  0.0618 -0.0927  0.0694
 3625ntf    fn421434   0.372   5.333   1.230 -0.0247 -0.0861 -0.1905
 3625ntf    fn421435   0.423   5.239   1.415 -0.3334  0.2694  0.1695
 3626ntf    cn121436   2.752   6.232   5.877  0.2803 -0.2237 -0.0024
 3626ntf    sn221437   2.664   6.093   5.800  0.2084 -0.1696 -0.0187
 3626ntf    nn321438   2.730   5.962   5.857 -0.0640 -0.4318 -0.3030
 3626ntf    sn221439   2.674   5.861   5.963 -0.2526  0.1915  0.2021
 3626ntf    cn121440   2.794   5.728   5.929 -0.4479  0.0429  0.0862
 3626ntf    fn421441   2.883   6.222   5.880  0.3122  0.2010  0.1792
 3626ntf    fn421442   2.719   6.345   5.817  0.1467 -0.3867 -0.2371
 3626ntf    fn421443   2.723   6.248   6.005  0.2203  0.1973 -0.0669
 3626ntf    on521444   2.531   6.126   5.846  0.2622  0.1511 -0.0918
 3626ntf    on521445   2.695   6.114   5.661 -0.6380  0.2949 -0.1476
 3626ntf    on521446   2.550   5.797   5.926  0.4635 -0.7817 -0.5966
 3626ntf    on521447   2.702   5.896   6.100  0.1858  0.5574  0.0177
 3626ntf    fn421448   2.915   5.757   5.975 -0.2303 -0.0234 -0.4463
 3626ntf    fn421449   2.759   5.619   5.996 -0.3309 -0.1869 -0.2255
 3626ntf    fn421450   2.812   5.693   5.803  0.4788  0.1503  0.1782
 3627ntf    cn121451   1.017   5.058   3.466  0.3736 -0.0714  0.1461
 3627ntf    sn221452   1.107   4.901   3.449  0.4260 -0.0372  0.1094
 3627ntf    nn321453   1.239   4.946   3.376  0.3052  0.0168 -0.0761
 3627ntf    sn221454   1.380   4.956   3.444  0.2939 -0.1416 -0.0295
 3627ntf    cn121455   1.478   4.911   3.297  0.4454 -0.3717  0.1419
 3627ntf    fn421456   0.892   5.035   3.501  0.3389 -0.1579 -0.0346
 3627ntf    fn421457   1.063   5.140   3.560  0.5304  0.5031 -0.4255
 3627ntf    fn421458   1.013   5.138   3.361 -0.1182 -0.1301  0.1184
 3627ntf    on521459   1.120   4.851   3.584  0.0131 -0.6516 -0.0760
 3627ntf    on521460   1.015   4.833   3.361  0.0956  0.6698 -0.1008
 3627ntf    on521461   1.421   4.858   3.542 -0.1579 -0.2371  0.0656
 3627ntf    on521462   1.422   5.093   3.459 -0.1154  0.0637 -0.6949
 3627ntf    fn421463   1.457   4.991   3.194 -0.3071 -0.3138  0.3377
 3627ntf    fn421464   1.608   4.929   3.316  0.3912 -0.0680  0.2432
 3627ntf    fn421465   1.455   4.789   3.253 -0.9620  0.0378 -0.2946
 3628ntf    cn121466   5.018   3.540   6.515 -0.2939  0.2054 -0.1125
 3628ntf    sn221467   5.102   3.410   6.610  0.1542  0.4113 -0.2265
 3628ntf    nn321468   5.028   3.284   6.554 -0.3637  0.4835  0.2941
 3628ntf    sn221469   4.991   3.154   6.635 -0.0475  0.1619 -0.0699
 3628ntf    cn121470   5.087   3.032   6.542  0.0749 -0.0279  0.3007
 3628ntf    fn421471   4.970   3.494   6.400 -0.0867  0.2195 -0.2047
 3628ntf    fn421472   4.908   3.587   6.571 -0.0975  0.1335  0.3401
 3628ntf    fn421473   5.099   3.642   6.492 -0.1676  0.0227 -0.5014
 3628ntf    on521474   5.237   3.427   6.561  0.3771 -0.4587  0.0683
 3628ntf    on521475   5.073   3.455   6.744  0.4470  0.4313 -0.1687
 3628ntf    on521476   4.857   3.110   6.606  0.1045 -0.4043  0.0759
 3628ntf    on521477   5.034   3.138   6.772  0.5349 -0.2058 -0.2935
 3628ntf    fn421478   5.054   3.020   6.414  0.0269  0.3055  0.2811
 3628ntf    fn421479   5.212   3.073   6.539  0.1581 -0.2348  0.8453
 3628ntf    fn421480   5.084   2.912   6.598  0.0058  0.0872  0.5449
 3629ntf    cn121481   5.862   4.848   5.402  0.4766 -0.1217 -0.1060
 3629ntf    sn221482   5.780   4.797   5.248  0.0493  0.0536  0.0624
 3629ntf    nn321483   5.755   4.644   5.272 -0.2964  0.0165 -0.5001
 3629ntf    sn221484   5.754   4.513   5.185 -0.0093 -0.1372 -0.2742
 3629ntf    cn121485   5.627   4.412   5.267  0.0646 -0.0425 -0.0420
 3629ntf    fn421486   5.972   4.778   5.423  0.2359 -0.1470  1.1680
 3629ntf    fn421487   5.898   4.976   5.399 -0.2174  0.0929  0.5792
 3629ntf    fn421488   5.782   4.826   5.505  0.3199  0.1229 -0.1746
 3629ntf    on521489   5.657   4.872   5.249  0.0868  0.1080  0.8864
 3629ntf    on521490   5.886   4.833   5.157 -0.3974  0.4376 -0.3124
 3629ntf    on521491   5.873   4.437   5.216 -0.4158 -0.8421 -0.4294
 3629ntf    on521492   5.702   4.524   5.051 -0.8284  0.4112  0.0783
 3629ntf    fn421493   5.560   4.334   5.184 -0.0754  0.3758 -0.3226
 3629ntf    fn421494   5.664   4.332   5.366 -0.7133 -0.0953  0.2074
 3629ntf    fn421495   5.531   4.490   5.315  0.1219 -0.0951  0.1640
 3630ntf    cn121496   0.804   4.154   2.282  0.2666 -0.6320 -0.0766
 3630ntf    sn221497   0.882   4.239   2.422  0.1080 -0.3478 -0.1607
 3630ntf    nn321498   0.772   4.341   2.468  0.4125  0.1238 -0.4633
 3630ntf    sn221499   0.744   4.492   2.434  0.1859  0.1257 -0.2707
 3630ntf    cn121500   0.562   4.489   2.434  0.1789  0.4701  0.2347
 3630ntf    fn421501   0.877   4.049   2.246  0.3650 -0.6101  0.0568
 3630ntf    fn421502   0.688   4.099   2.314  0.3260 -0.5470  0.2929
 3630ntf    fn421503   0.787   4.233   2.177  0.6888  0.0486  0.3579
 3630ntf    on521504   0.891   4.135   2.521  0.3049  0.1882  0.3988
 3630ntf    on521505   1.008   4.290   2.372 -0.0444  0.5521  0.3364
 3630ntf    on521506   0.782   4.541   2.304  0.2833  0.4949 -0.1051
 3630ntf    on521507   0.764   4.564   2.557 -0.6457  0.0982 -0.1083
 3630ntf    fn421508   0.503   4.581   2.359 -0.4029 -0.0146  0.0915
 3630ntf    fn421509   0.510   4.377   2.388  0.6908  0.2797  0.1132
 3630ntf    fn421510   0.520   4.498   2.560  0.5128  0.4621  0.3470
 3631ntf    cn121511   1.559   4.741   0.929  0.7450 -0.2792  0.5597
 3631ntf    sn221512   1.478   4.734   1.091 -0.0552  0.4014  0.1949
 3631ntf    nn321513   1.339   4.794   1.052 -0.0474  0.0736 -0.3433
 3631ntf    sn221514   1.286   4.939   1.085  0.1244  0.1320 -0.3237
 3631ntf    cn121515   1.107   4.908   1.092  0.2036 -0.2983 -0.1501
 3631ntf    fn421516   1.510   4.665   0.832  0.2196  0.6154  0.1093
 3631ntf    fn421517   1.567   4.860   0.872  0.6843 -0.6957 -0.3472
 3631ntf    fn421518   1.678   4.688   0.956  0.6313 -0.7155  0.2183
 3631ntf    on521519   1.478   4.591   1.107  0.1382  0.3726 -0.0530
 3631ntf    on521520   1.570   4.812   1.170 -0.0466 -0.3008  0.8914
 3631ntf    on521521   1.317   5.020   0.971  0.2300 -0.4338 -0.7036
 3631ntf    on521522   1.318   4.998   1.213 -0.2473  0.2531 -0.2859
 3631ntf    fn421523   1.082   4.821   1.188  0.3519  0.1215  0.2743
 3631ntf    fn421524   1.047   5.022   1.124  0.0189 -0.2807 -0.5557
 3631ntf    fn421525   1.056   4.859   0.981 -0.0818  0.0683 -0.1813
 3632ntf    cn121526   5.070   5.092   5.439 -0.2427 -0.2147  0.7004
 3632ntf    sn221527   4.969   5.175   5.565 -0.2781  0.4581  0.2343
 3632ntf    nn321528   4.844   5.219   5.480  0.0471 -0.1800 -0.5862
 3632ntf    sn221529   4.698   5.251   5.527  0.1484  0.0481 -0.4261
 3632ntf    cn121530   4.716   5.426   5.576 -0.1726  0.0260 -0.2261
 3632ntf    fn421531   5.184   5.048   5.490  0.1036  0.0298  0.1474
 3632ntf    fn421532   5.015   4.977   5.403 -0.1363 -0.1437  0.3031
 3632ntf    fn421533   5.097   5.158   5.327 -0.0874 -0.2896  0.6938
 3632ntf    on521534   4.946   5.080   5.670  0.0904 -0.2854 -0.3523
 3632ntf    on521535   5.048   5.286   5.613  0.1709  0.1144  0.2888
 3632ntf    on521536   4.653   5.188   5.649 -0.0497  0.4041 -0.3120
 3632ntf    on521537   4.606   5.248   5.417  0.0376  0.6119 -0.3539
 3632ntf    fn421538   4.753   5.490   5.467  0.5932  0.2091  0.1335
 3632ntf    fn421539   4.605   5.483   5.620  0.1166  0.1892  0.2973
 3632ntf    fn421540   4.817   5.445   5.660  0.1548 -0.0746 -0.5954
 3633ntf    cn121541   0.846   5.741   1.222  0.1379 -0.1910  0.2596
 3633ntf    sn221542   0.772   5.705   1.384 -0.2396 -0.0392  0.1219
 3633ntf    nn321543   0.844   5.824   1.455 -0.4905 -0.0556  0.4062
 3633ntf    sn221544   0.774   5.952   1.514  0.0667  0.3498  0.1972
 3633ntf    cn121545   0.929   6.041   1.546  0.1156  0.2550  0.2234
 3633ntf    fn421546   0.975   5.712   1.223  0.2497  0.2434 -0.5473
 3633ntf    fn421547   0.791   5.676   1.121  0.3281 -0.3929  0.2860
 3633ntf    fn421548   0.846   5.870   1.193  0.2430 -0.1733  0.3366
 3633ntf    on521549   0.629   5.712   1.364 -0.1996  0.4058 -0.0261
 3633ntf    on521550   0.823   5.575   1.419  0.1295  0.0505 -0.0798
 3633ntf    on521551   0.707   5.940   1.641 -0.6716  0.3179 -0.1907
 3633ntf    on521552   0.725   6.039   1.410 -0.0017 -0.1648 -0.2069
 3633ntf    fn421553   0.917   6.170   1.572  0.4792  0.2218  0.5636
 3633ntf    fn421554   0.991   5.994   1.653 -0.3945 -0.2450  0.3023
 3633ntf    fn421555   1.011   6.033   1.441 -0.1476  0.4955 -0.0025
 3634ntf    cn121556   1.329   7.234   2.639  0.1123 -0.1877  0.0595
 3634ntf    sn221557   1.463   7.118   2.599  0.0105 -0.2998  0.0445
 3634ntf    nn321558   1.497   7.163   2.453 -0.0202  0.0026  0.1282
 3634ntf    sn221559   1.623   7.242   2.402 -0.0316 -0.0241  0.0584
 3634ntf    cn121560   1.531   7.384   2.337 -0.1046 -0.0255  0.1572
 3634ntf    fn421561   1.235   7.223   2.547  0.2295 -0.0915 -0.0727
 3634ntf    fn421562   1.273   7.199   2.754 -0.2167  0.2144  0.0232
 3634ntf    fn421563   1.367   7.360   2.654 -0.0049 -0.2180  0.6533
 3634ntf    on521564   1.566   7.144   2.697  0.2267  0.1486 -0.2952
 3634ntf    on521565   1.403   6.987   2.602 -0.4035 -0.1286 -0.5228
 3634ntf    on521566   1.671   7.185   2.279 -0.3219  0.1543 -0.1376
 3634ntf    on521567   1.716   7.301   2.494  0.8680 -0.3210 -0.6468
 3634ntf    fn421568   1.436   7.342   2.256  0.3548 -0.1298 -0.3351
 3634ntf    fn421569   1.476   7.449   2.438  0.5155  0.0608  0.4428
 3634ntf    fn421570   1.614   7.469   2.277  0.0888 -0.5305 -0.3018
 3635ntf    cn121571   5.516   3.756   3.826  0.0710  0.1834  0.0830
 3635ntf    sn221572   5.433   3.628   3.927 -0.0898 -0.0820 -0.3824
 3635ntf    nn321573   5.326   3.587   3.820 -0.5441  0.2565 -0.0644
 3635ntf    sn221574   5.324   3.472   3.712  0.0566  0.1615  0.0214
 3635ntf    cn121575   5.246   3.348   3.820 -0.0714  0.1465 -0.0882
 3635ntf    fn421576   5.621   3.804   3.890 -0.0573  0.3112  0.1974
 3635ntf    fn421577   5.558   3.710   3.709 -1.1711  0.2912 -0.4177
 3635ntf    fn421578   5.438   3.860   3.802  0.0730  0.1252 -0.1770
 3635ntf    on521579   5.534   3.532   3.961 -0.2904 -0.1950 -0.1105
 3635ntf    on521580   5.366   3.693   4.036 -0.5336  0.1207 -0.7732
 3635ntf    on521581   5.447   3.422   3.656 -0.0124  0.3808 -0.3240
 3635ntf    on521582   5.217   3.506   3.622  0.0234 -0.2169 -0.0843
 3635ntf    fn421583   5.326   3.264   3.884 -0.3034  0.0385  0.0619
 3635ntf    fn421584   5.173   3.399   3.917  0.0794  0.5956 -0.2083
 3635ntf    fn421585   5.164   3.269   3.752 -0.8534  0.2738  0.7020
 3636ntf    cn121586   2.830   3.605   1.011  0.2300  0.1527 -0.1177
 3636ntf    sn221587   2.814   3.578   1.191 -0.1877  0.3664 -0.1219
 3636ntf    nn321588   2.779   3.425   1.195 -0.0575  0.3383 -0.0684
 3636ntf    sn221589   2.723   3.330   1.306 -0.0757  0.1965 -0.1992
 3636ntf    cn121590   2.800   3.176   1.248 -0.1927  0.0435  0.0522
 3636ntf    fn421591   2.822   3.728   0.963  0.8431  0.2172 -0.0607
 3636ntf    fn421592   2.954   3.571   0.980 -0.0265 -0.3489 -0.5942
 3636ntf    fn421593   2.752   3.527   0.938 -0.0388  0.2337  0.0780
 3636ntf    on521594   2.947   3.593   1.246 -0.4456 -0.1345  0.6381
 3636ntf    on521595   2.711   3.674   1.223 -0.0614  0.4046  0.1721
 3636ntf    on521596   2.581   3.308   1.290  0.0285 -0.4746 -0.2409
 3636ntf    on521597   2.769   3.355   1.440  0.5755 -0.0608 -0.3692
 3636ntf    fn421598   2.719   3.072   1.258 -0.3584  0.1261 -0.4162
 3636ntf    fn421599   2.836   3.172   1.121  0.4000 -0.0642  0.2182
 3636ntf    fn421600   2.905   3.155   1.326 -0.1427  0.0568 -0.0107
 3637ntf    cn121601   5.196   1.918   1.816  0.4976 -0.1103  0.0266
 3637ntf    sn221602   5.015   1.926   1.827  0.4887  0.0478 -0.2077
 3637ntf    nn321603   5.009   2.036   1.716 -0.2598 -0.3983 -0.6171
 3637ntf    sn221604   4.881   2.121   1.682 -0.0412  0.1376 -0.1265
 3637ntf    cn121605   4.815   2.029   1.540  0.0166 -0.1301  0.0197
 3637ntf    fn421606   5.247   2.034   1.854  0.2855 -0.2361  0.7029
 3637ntf    fn421607   5.244   1.837   1.908  0.1355 -0.3145  0.0360
 3637ntf    fn421608   5.246   1.889   1.697  0.4356  0.4320 -0.1321
 3637ntf    on521609   4.976   1.793   1.786  0.2439  0.0971 -0.1358
 3637ntf    on521610   4.987   1.970   1.961  0.5637 -0.2722 -0.0852
 3637ntf    on521611   4.916   2.251   1.632  0.4166  0.1707  0.2726
 3637ntf    on521612   4.773   2.112   1.777 -0.0344  0.0227 -0.1291
 3637ntf    fn421613   4.916   2.008   1.456  0.2764 -0.3185  0.3771
 3637ntf    fn421614   4.756   1.915   1.573 -0.2282  0.0649  0.2572
 3637ntf    fn421615   4.727   2.091   1.463 -0.2544 -0.4056  0.1080
 3638ntf    cn121616   6.075   5.635   6.767 -0.1856 -0.1601  0.4518
 3638ntf    sn221617   6.107   5.704   6.932  0.2326 -0.1920  0.3854
 3638ntf    nn321618   6.047   5.845   6.900 -0.2934 -0.5219 -0.0857
 3638ntf    sn221619   5.914   5.925   6.928  0.0817  0.1784 -0.2829
 3638ntf    cn121620   5.908   5.949   7.108 -0.7437 -0.5981 -0.2033
 3638ntf    fn421621   6.119   5.510   6.761  0.2615 -0.0049  0.4658
 3638ntf    fn421622   5.949   5.637   6.729  0.0634 -0.4400 -0.4137
 3638ntf    fn421623   6.141   5.701   6.674 -0.0681 -0.8521  0.0345
 3638ntf    on521624   6.034   5.613   7.017  0.1442 -0.7969 -0.3283
 3638ntf    on521625   6.251   5.707   6.939  0.1977  0.6957  0.8358
 3638ntf    on521626   5.792   5.856   6.898  0.0979 -0.0848  0.2281
 3638ntf    on521627   5.931   6.060   6.882 -0.1677 -0.0116 -0.9339
 3638ntf    fn421628   5.893   5.828   7.162  0.2373 -0.4855  0.3407
 3638ntf    fn421629   6.023   5.987   7.160 -0.8351  0.2053 -0.5754
 3638ntf    fn421630   5.817   6.036   7.149  0.0592 -0.1582  0.6845
 3639ntf    cn121631   6.271   6.468   5.817  0.3676 -0.1663 -0.2498
 3639ntf    sn221632   6.280   6.456   5.998 -0.3543 -0.3987 -0.2270
 3639ntf    nn321633   6.256   6.301   6.005 -0.4288 -0.3753  0.0292
 3639ntf    sn221634   6.319   6.197   6.104  0.1406 -0.0897 -0.0341
 3639ntf    cn121635   6.171   6.105   6.154  0.5457 -0.6320  0.1798
 3639ntf    fn421636   6.277   6.591   5.768  0.8125 -0.0601  0.0630
 3639ntf    fn421637   6.370   6.401   5.759  0.5002 -0.3199  0.1525
 3639ntf    fn421638   6.161   6.411   5.773  0.1741 -0.0273  0.0550
 3639ntf    on521639   6.407   6.504   6.047 -0.6023 -0.1229  0.1499
 3639ntf    on521640   6.163   6.529   6.041  0.5303  0.2441  1.1696
 3639ntf    on521641   6.376   6.256   6.223  0.2351 -0.0724 -0.0876
 3639ntf    on521642   6.396   6.094   6.039  0.0884 -0.1730  0.0351
 3639ntf    fn421643   6.114   6.046   6.050  0.1775  0.5027 -0.2806
 3639ntf    fn421644   6.188   6.010   6.244  0.0560 -0.5489  0.3643
 3639ntf    fn421645   6.070   6.171   6.208 -0.0344 -0.3422 -1.2184
 3640ntf    cn121646   4.087   1.076   5.159  0.3301  0.0975  0.4488
 3640ntf    sn221647   4.134   1.055   4.985 -0.1849 -0.2047  0.3456
 3640ntf    nn321648   4.288   1.067   5.010 -0.1398 -0.0285 -0.0139
 3640ntf    sn221649   4.400   0.969   5.059 -0.0949  0.1301  0.2024
 3640ntf    cn121650   4.489   0.922   4.907 -0.2298 -0.0826  0.1890
 3640ntf    fn421651   4.057   1.202   5.187 -0.4640  0.0750 -0.2709
 3640ntf    fn421652   3.985   0.999   5.192 -0.1834  0.4832 -0.2102
 3640ntf    fn421653   4.186   1.055   5.244  0.3391 -0.4815  0.2955
 3640ntf    on521654   4.086   0.921   4.960 -0.1034 -0.1728  0.0111
 3640ntf    on521655   4.077   1.162   4.908 -0.5987 -0.3110  0.5021
 3640ntf    on521656   4.364   0.840   5.112  0.0004 -0.0426 -0.1461
 3640ntf    on521657   4.505   1.035   5.133 -0.0310  0.1357  0.1074
 3640ntf    fn421658   4.405   0.898   4.808  0.1975  0.2447 -0.2544
 3640ntf    fn421659   4.571   1.019   4.872  0.0364 -0.3264  0.1346
 3640ntf    fn421660   4.561   0.814   4.934 -0.2735 -0.1230  0.1468
 3641ntf    cn121661   3.159   1.963   5.392  0.1872 -0.4271  0.2378
 3641ntf    sn221662   3.244   1.940   5.233  0.1490  0.2253  0.1195
 3641ntf    nn321663   3.389   1.973   5.283  0.3024 -0.3213  0.0420
 3641ntf    sn221664   3.507   1.871   5.299  0.2666 -0.3071  0.3990
 3641ntf    cn121665   3.563   1.867   5.126 -0.3106 -0.4775  0.2130
 3641ntf    fn421666   3.034   1.921   5.390 -0.1424  0.5254  0.3426
 3641ntf    fn421667   3.216   1.891   5.488  0.2171 -0.1601  0.4194
 3641ntf    fn421668   3.171   2.088   5.434  0.2256 -0.4155  0.1922
 3641ntf    on521669   3.223   1.799   5.207 -0.3359  0.2768  0.2248
 3641ntf    on521670   3.181   2.037   5.148 -0.7260 -0.6678 -0.2797
 3641ntf    on521671   3.484   1.731   5.329  0.6202 -0.5417 -0.3817
 3641ntf    on521672   3.605   1.943   5.375 -0.0023 -0.1078  0.5598
 3641ntf    fn421673   3.622   1.978   5.086 -0.2747 -0.4666  0.2964
 3641ntf    fn421674   3.640   1.766   5.089 -0.2917 -0.5167  0.3585
 3641ntf    fn421675   3.456   1.860   5.048 -0.4373 -0.6744  0.4023
 3642ntf    cn121676   5.060   1.358   0.441 -0.3493  0.0387 -0.0711
 3642ntf    sn221677   5.199   1.289   0.536 -0.1414  0.2577 -0.2142
 3642ntf    nn321678   5.130   1.241   0.669  0.0671 -0.0691 -0.2228
 3642ntf    sn221679   5.213   1.197   0.795  0.0285  0.2351 -0.0898
 3642ntf    cn121680   5.205   1.344   0.901  0.0822  0.0220  0.2123
 3642ntf    fn421681   5.088   1.477   0.392  0.0866 -0.1327 -0.2465
 3642ntf    fn421682   5.020   1.278   0.343 -0.0608 -0.0839 -0.0914
 3642ntf    fn421683   4.954   1.376   0.517 -0.4259 -0.2788 -0.0975
 3642ntf    on521684   5.242   1.174   0.460  0.1274  0.0949  0.1818
 3642ntf    on521685   5.296   1.395   0.545 -0.2313  0.3728 -0.5854
 3642ntf    on521686   5.354   1.170   0.785  0.0554  0.3219  0.0576
 3642ntf    on521687   5.130   1.100   0.863  0.5165  0.1035  0.3237
 3642ntf    fn421688   5.255   1.455   0.849 -0.3716  0.1526  0.0463
 3642ntf    fn421689   5.081   1.371   0.937  0.0585 -0.0396  0.1770
 3642ntf    fn421690   5.256   1.321   1.021  0.2073 -0.7324  0.0165
 3643ntf    cn121691   0.406   0.751   2.219 -0.1512  0.3556  0.2849
 3643ntf    sn221692   0.481   0.610   2.132  0.1004  0.5482  0.1906
 3643ntf    nn321693   0.547   0.540   2.256 -0.2433  0.1559  0.1524
 3643ntf    sn221694   0.565   0.387   2.284  0.1271  0.1851  0.0737
 3643ntf    cn121695   0.482   0.364   2.444  0.6899 -0.0557  0.3353
 3643ntf    fn421696   0.498   0.825   2.278  0.5056 -0.0760 -0.1806
 3643ntf    fn421697   0.336   0.819   2.129 -0.4345 -0.0178  0.2228
 3643ntf    fn421698   0.321   0.704   2.310 -0.0265 -0.0362  0.1986
 3643ntf    on521699   0.365   0.545   2.078 -0.0140  0.9646 -0.0730
 3643ntf    on521700   0.580   0.662   2.041  0.0366  0.0036 -0.1892
 3643ntf    on521701   0.700   0.354   2.322  0.1005 -0.6671 -0.5356
 3643ntf    on521702   0.488   0.297   2.201  0.0859  0.0729  0.2326
 3643ntf    fn421703   0.366   0.427   2.459  0.1320 -1.0027  0.1027
 3643ntf    fn421704   0.456   0.239   2.482 -0.2277  0.0420  0.0590
 3643ntf    fn421705   0.558   0.412   2.541  0.3766  0.4738  0.3186
 3644ntf    cn121706   6.029   1.762   6.961  0.1111 -0.2348  0.1408
 3644ntf    sn221707   6.102   1.752   6.795 -0.0389  0.1113  0.0513
 3644ntf    nn321708   6.224   1.849   6.819  0.5428 -0.4944 -0.3976
 3644ntf    sn221709   6.270   1.983   6.753  0.0105 -0.2365 -0.2514
 3644ntf    cn121710   6.443   1.950   6.710  0.1798  0.5243 -0.1700
 3644ntf    fn421711   5.906   1.712   6.963  0.0786 -0.2025 -0.6180
 3644ntf    fn421712   6.098   1.694   7.051 -0.2455 -0.8135 -0.0175
 3644ntf    fn421713   6.012   1.890   6.989 -0.0976 -0.1720 -0.2659
 3644ntf    on521714   6.137   1.614   6.769 -0.7100 -0.0443 -0.0305
 3644ntf    on521715   5.995   1.805   6.715  0.0497 -0.2056 -0.2802
 3644ntf    on521716   6.276   2.095   6.844  0.4086  0.1076 -0.6896
 3644ntf    on521717   6.222   2.017   6.621  0.2905 -0.0864 -0.3158
 3644ntf    fn421718   6.504   2.061   6.672  0.1334  0.5239 -0.2453
 3644ntf    fn421719   6.511   1.896   6.810 -0.1228  0.4519 -0.0028
 3644ntf    fn421720   6.436   1.871   6.605  0.3810  0.1563  0.0915
 3645ntf    cn121721   2.085   5.351   1.106 -0.2760 -0.4538  0.4127
 3645ntf    sn221722   2.086   5.175   1.149  0.2209 -0.4065  0.6094
 3645ntf    nn321723   2.067   5.103   1.011 -0.1582  0.2795  0.2992
 3645ntf    sn221724   1.962   5.131   0.898  0.2213 -0.0356 -0.1371
 3645ntf    cn121725   1.926   4.958   0.859  0.0451 -0.0096 -0.0933
 3645ntf    fn421726   1.965   5.384   1.063  0.1510 -0.4694 -0.8344
 3645ntf    fn421727   2.111   5.430   1.209  0.2438  0.0260 -0.0745
 3645ntf    fn421728   2.170   5.382   1.009 -0.0685 -0.7435  0.4990
 3645ntf    on521729   2.217   5.163   1.208  0.0708 -0.1917  0.9917
 3645ntf    on521730   1.981   5.160   1.248 -0.5705  0.1360 -0.1298
 3645ntf    on521731   2.015   5.186   0.776  0.0472 -0.0791 -0.2333
 3645ntf    on521732   1.835   5.182   0.946  0.2102 -0.2466  0.0606
 3645ntf    fn421733   2.034   4.895   0.816  0.5184  0.9322 -0.3010
 3645ntf    fn421734   1.866   4.890   0.955 -0.2385 -0.1919 -0.3968
 3645ntf    fn421735   1.841   4.940   0.759 -0.0963  0.0108  0.0235
 3646ntf    cn121736   5.513   2.840   6.544  0.5879 -0.0177 -0.2276
 3646ntf    sn221737   5.596   2.713   6.643  0.1792 -0.2442 -0.1745
 3646ntf    nn321738   5.595   2.776   6.787  0.0063  0.1274 -0.3373
 3646ntf    sn221739   5.698   2.878   6.846  0.0307 -0.2482  0.2788
 3646ntf    cn121740   5.761   2.774   6.982  0.0307 -0.5386  0.0566
 3646ntf    fn421741   5.382   2.846   6.561  0.6450 -0.3889  0.3746
 3646ntf    fn421742   5.568   2.957   6.573  0.0120  0.2799 -0.3277
 3646ntf    fn421743   5.532   2.818   6.415  0.1261  0.0604 -0.3101
 3646ntf    on521744   5.510   2.597   6.632 -0.2571  0.0460  0.1299
 3646ntf    on521745   5.725   2.706   6.580  0.3423 -0.1347  0.1429
 3646ntf    on521746   5.633   2.982   6.922  0.2856  0.0482  0.0947
 3646ntf    on521747   5.819   2.904   6.772 -0.0850  0.0283  0.1847
 3646ntf    fn421748   5.750   2.647   6.947 -0.1158 -0.5020 -0.0313
 3646ntf    fn421749   5.884   2.806   7.018 -0.2205  0.1158  0.3524
 3646ntf    fn421750   5.689   2.793   7.091 -0.4329  0.7199 -0.4430
 3647ntf    cn121751   0.415   1.343   2.255  0.1163 -0.1648  0.1916
 3647ntf    sn221752   0.468   1.373   2.426  0.6722 -0.4240  0.0658
 3647ntf    nn321753   0.368   1.284   2.509  0.6750  0.0282  0.5613
 3647ntf    sn221754   0.392   1.162   2.604 -0.2554 -0.2083  0.5033
 3647ntf    cn121755   0.365   1.021   2.492  0.1121 -0.0429  0.2037
 3647ntf    fn421756   0.308   1.267   2.243  0.1341 -0.1514 -0.0499
 3647ntf    fn421757   0.377   1.451   2.188  0.0945  0.2791  0.9076
 3647ntf    fn421758   0.505   1.274   2.188  0.2250  0.0412  0.1227
 3647ntf    on521759   0.605   1.327   2.424  0.6681 -0.5162  1.0293
 3647ntf    on521760   0.439   1.513   2.447  0.1372 -0.4356 -0.5929
 3647ntf    on521761   0.290   1.150   2.706 -0.4252 -0.2067  0.3346
 3647ntf    on521762   0.529   1.149   2.647 -0.0901  0.0053  0.0476
 3647ntf    fn421763   0.241   1.004   2.449  0.2038 -0.2286  0.0180
 3647ntf    fn421764   0.443   1.017   2.386 -0.1548  0.2958 -0.0104
 3647ntf    fn421765   0.392   0.912   2.561  0.6274  0.1377  0.2860
 3648ntf    cn121766   6.770   2.546   7.186  0.3384 -0.3032 -0.1563
 3648ntf    sn221767   6.704   2.605   7.344  0.2619 -0.1406 -0.2485
 3648ntf    nn321768   6.655   2.470   7.407  0.4612 -0.2245 -0.2728
 3648ntf    sn221769   6.665   2.420   7.555  0.0755 -0.0787 -0.1970
 3648ntf    cn121770   6.494   2.452   7.610  0.1060  0.2576 -0.2975
 3648ntf    fn421771   6.858   2.636   7.145  0.2233  0.2266  0.7323
 3648ntf    fn421772   6.834   2.430   7.198 -0.0338 -0.4384  0.5150
 3648ntf    fn421773   6.671   2.526   7.101  0.0768  0.0436  0.0684
 3648ntf    on521774   6.814   2.675   7.407 -0.1132  0.4226 -0.2138
 3648ntf    on521775   6.594   2.691   7.308  0.9787  1.0751  0.3723
 3648ntf    on521776   6.751   2.488   7.649 -0.1395 -0.3840  0.2235
 3648ntf    on521777   6.679   2.276   7.555  0.2562 -0.0614 -0.2725
 3648ntf    fn421778   6.408   2.376   7.545 -0.3535  0.4546  0.0777
 3648ntf    fn421779   6.473   2.423   7.737 -0.6172 -0.1028 -0.4947
 3648ntf    fn421780   6.458   2.577   7.587 -0.2656  0.2649  0.3064
 3649ntf    cn121781   5.670   1.225   2.595 -0.0798 -0.1217 -0.1864
 3649ntf    sn221782   5.521   1.187   2.691 -0.2790 -0.1357 -0.5000
 3649ntf    nn321783   5.420   1.281   2.616 -0.3528  0.4522  0.3222
 3649ntf    sn221784   5.330   1.251   2.491  0.1419 -0.0924  0.0951
 3649ntf    cn121785   5.204   1.151   2.575 -0.2636  0.5467  0.2508
 3649ntf    fn421786   5.657   1.168   2.476 -0.7714  0.9194 -0.6174
 3649ntf    fn421787   5.681   1.356   2.583 -0.1144 -0.0481  0.5418
 3649ntf    fn421788   5.786   1.184   2.646  0.0862 -0.1333 -0.5666
 3649ntf    on521789   5.498   1.047   2.669  0.0912 -0.3477  0.3969
 3649ntf    on521790   5.553   1.238   2.822 -0.1620 -0.1795 -0.5113
 3649ntf    on521791   5.389   1.159   2.397 -0.1136 -0.0847 -0.0741
 3649ntf    on521792   5.266   1.364   2.429  1.2086  0.8244  0.6119
 3649ntf    fn421793   5.253   1.037   2.622  0.1805  0.7374  0.2522
 3649ntf    fn421794   5.150   1.217   2.677  0.2284  0.3586  0.6381
 3649ntf    fn421795   5.108   1.110   2.494 -0.1302 -0.2889  0.5007
 3650ntf    cn121796   0.754   1.784   3.972 -0.2835  0.1818 -0.3031
 3650ntf    sn221797   0.692   1.647   3.870 -0.1544 -0.0360 -0.0934
 3650ntf    nn321798   0.754   1.696   3.734  0.4262 -0.6194 -0.0428
 3650ntf    sn221799   0.860   1.635   3.636  0.3613 -0.0560 -0.4688
 3650ntf    cn121800   0.919   1.787   3.554 -0.2321  0.2839 -0.2730
 3650ntf    fn421801   0.699   1.902   3.950 -0.3096  0.1908 -0.1917
 3650ntf    fn421802   0.736   1.761   4.102 -0.4362  0.1899 -0.3226
 3650ntf    fn421803   0.885   1.798   3.963 -0.2037 -0.6157 -0.4420
 3650ntf    on521804   0.747   1.524   3.920 -0.4238 -0.3700 -0.6118
 3650ntf    on521805   0.549   1.663   3.861 -0.2465 -0.5920  0.3719
 3650ntf    on521806   0.804   1.559   3.527  0.7033 -0.9979  0.0070
 3650ntf    on521807   0.977   1.585   3.703 -0.1597  0.0277  0.5243
 3650ntf    fn421808   0.811   1.848   3.507 -0.0725  0.3546 -0.5475
 3650ntf    fn421809   0.983   1.868   3.636  0.2889 -0.2757 -0.1139
 3650ntf    fn421810   0.999   1.764   3.452  0.2061  0.0931  0.1092
 3651ntf    cn121811   1.819   3.337   3.764 -0.2480  0.1818  0.1365
 3651ntf    sn221812   1.794   3.350   3.944 -0.0259  0.3113  0.1587
 3651ntf    nn321813   1.935   3.305   3.997 -0.0567  0.2712  0.2061
 3651ntf    sn221814   2.066   3.384   4.031  0.1012  0.2093 -0.2519
 3651ntf    cn121815   2.192   3.286   3.944  0.0389 -0.1045  0.0077
 3651ntf    fn421816   1.912   3.421   3.722 -0.0240  0.3305  0.9191
 3651ntf    fn421817   1.860   3.218   3.726  0.3056  0.3782  0.1104
 3651ntf    fn421818   1.715   3.367   3.688 -0.2632 -1.0628 -0.3542
 3651ntf    on521819   1.752   3.487   3.962  0.1016  0.4380 -0.4830
 3651ntf    on521820   1.697   3.244   3.959  0.0185  0.2791  0.2187
 3651ntf    on521821   2.102   3.372   4.170  0.0526 -0.7111 -0.3118
 3651ntf    on521822   2.062   3.518   3.977  0.2261  0.2508 -0.1579
 3651ntf    fn421823   2.179   3.159   3.978  0.0510 -0.0424  0.2461
 3651ntf    fn421824   2.174   3.290   3.813 -0.3455 -0.4182  0.0489
 3651ntf    fn421825   2.314   3.325   3.978  0.2958 -0.0417 -0.9525
 3652ntf    cn121826   2.727   4.535   3.883  0.1096  0.1654 -0.1250
 3652ntf    sn221827   2.659   4.575   3.719  0.0365 -0.2746 -0.2036
 3652ntf    nn321828   2.744   4.701   3.681  0.1993 -0.3094  0.0435
 3652ntf    sn221829   2.857   4.733   3.578 -0.2627 -0.0301 -0.3806
 3652ntf    cn121830   2.785   4.874   3.489 -0.0990  0.2938 -0.0010
 3652ntf    fn421831   2.732   4.637   3.967  0.3721  0.3915 -0.4145
 3652ntf    fn421832   2.665   4.436   3.945  0.1202  0.4801  0.3925
 3652ntf    fn421833   2.854   4.499   3.874  0.0105 -0.1649 -0.2160
 3652ntf    on521834   2.677   4.457   3.638  0.1053 -0.2230 -0.2630
 3652ntf    on521835   2.524   4.611   3.756  0.0466 -0.1118 -0.3233
 3652ntf    on521836   2.892   4.631   3.481 -0.5232 -0.9212  0.4471
 3652ntf    on521837   2.969   4.800   3.638 -0.2532 -0.9069  0.6031
 3652ntf    fn421838   2.701   4.822   3.401 -0.4273  0.0179  0.4693
 3652ntf    fn421839   2.716   4.964   3.558  0.2034  0.3036  0.2932
 3652ntf    fn421840   2.872   4.942   3.416  0.1336 -0.4657 -0.4394
 3653ntf    cn121841   1.470   7.075   4.919  0.2496 -0.0909  0.1354
 3653ntf    sn221842   1.303   7.040   4.982  0.1109  0.0928 -0.1296
 3653ntf    nn321843   1.209   7.076   4.861 -0.6901 -0.3154  0.3665
 3653ntf    sn221844   1.161   6.989   4.740 -0.4196 -0.0488  0.0665
 3653ntf    cn121845   1.003   6.931   4.807 -0.5154  0.1604  0.0226
 3653ntf    fn421846   1.479   7.057   4.788  0.7574  0.1444  0.1337
 3653ntf    fn421847   1.498   7.202   4.943  0.3853 -0.2052  0.6082
 3653ntf    fn421848   1.554   6.990   4.975  0.4340 -0.0514 -0.0804
 3653ntf    on521849   1.315   6.900   5.015  0.0421  0.2830  0.7058
 3653ntf    on521850   1.299   7.125   5.098  0.3538 -0.4040  0.2481
 3653ntf    on521851   1.229   6.865   4.709 -0.3865  0.1161 -0.5308
 3653ntf    on521852   1.131   7.069   4.624  0.1251  0.0583 -0.0022
 3653ntf    fn421853   1.010   6.938   4.939 -0.4617 -0.9000  0.0875
 3653ntf    fn421854   0.895   6.997   4.768 -0.0552  0.6246 -0.4658
 3653ntf    fn421855   0.978   6.804   4.777  0.7716  0.1138 -0.9223
 3654ntf    cn121856   6.771   0.380   4.702  0.3168 -0.0485  0.1328
 3654ntf    sn221857   6.718   0.554   4.691  0.1497 -0.1089 -0.0393
 3654ntf    nn321858   6.723   0.577   4.536 -0.0467 -0.0447 -0.0356
 3654ntf    sn221859   6.795   0.700   4.470 -0.2013  0.0255 -0.0758
 3654ntf    cn121860   6.969   0.648   4.481 -0.1884  0.0728 -0.0576
 3654ntf    fn421861   6.790   0.345   4.828 -0.7469  0.8284  0.5514
 3654ntf    fn421862   6.681   0.295   4.654 -0.1703  0.0741  0.8253
 3654ntf    fn421863   6.886   0.365   4.638  0.2415  0.2029 -0.0640
 3654ntf    on521864   6.580   0.562   4.733  0.0566 -0.4138 -0.2859
 3654ntf    on521865   6.813   0.635   4.763  0.0955  0.2213 -0.3409
 3654ntf    on521866   6.802   0.828   4.537  0.4711  0.2953 -0.6474
 3654ntf    on521867   6.773   0.703   4.328 -0.2010  0.4407 -0.0684
 3654ntf    fn421868   6.987   0.547   4.398 -0.7383  0.2569 -0.4031
 3654ntf    fn421869   7.055   0.742   4.447 -0.1031 -0.1394 -0.4318
 3654ntf    fn421870   7.000   0.610   4.604  0.3077 -0.2316 -0.2741
 3655ntf    cn121871   6.906   4.893   6.907  0.0101 -0.0418 -0.3454
 3655ntf    sn221872   6.791   4.755   6.936  0.3712 -0.2535  0.1079
 3655ntf    nn321873   6.711   4.751   6.801 -0.0110  0.1464  0.3173
 3655ntf    sn221874   6.591   4.837   6.747  0.3542  0.4525 -0.0160
 3655ntf    cn121875   6.686   4.934   6.626  0.3719  0.3775 -0.0624
 3655ntf    fn421876   6.991   4.905   7.008 -0.2838  0.2667 -0.1345
 3655ntf    fn421877   6.970   4.877   6.792 -0.2123 -0.1883 -0.4507
 3655ntf    fn421878   6.852   5.013   6.893 -0.2198 -0.0289  0.5469
 3655ntf    on521879   6.881   4.646   6.962  0.7679 -0.1271 -0.7008
 3655ntf    on521880   6.713   4.806   7.047 -0.2445  0.1141 -0.4803
 3655ntf    on521881   6.538   4.941   6.832 -0.5156 -0.0082  0.0128
 3655ntf    on521882   6.497   4.768   6.662 -0.4517  0.1537  1.0927
 3655ntf    fn421883   6.760   4.845   6.561  0.1435  0.0254  0.1557
 3655ntf    fn421884   6.622   5.005   6.535 -0.5579  0.2534  0.4782
 3655ntf    fn421885   6.771   5.015   6.687  0.4633 -0.1460  0.5215
 3656ntf    cn121886   2.014   5.024   5.025  0.0551  0.1784  0.0987
 3656ntf    sn221887   2.043   5.008   5.204  0.2113  0.5033  0.1059
 3656ntf    nn321888   1.974   5.137   5.258 -0.4095  0.2937 -0.1759
 3656ntf    sn221889   1.835   5.155   5.329 -0.2202  0.0297  0.2622
 3656ntf    cn121890   1.730   5.140   5.181 -0.0508  0.1161  0.1335
 3656ntf    fn421891   2.070   5.131   4.969 -1.0596  0.4169 -0.5936
 3656ntf    fn421892   2.059   4.922   4.954 -0.1330  0.0831  0.1194
 3656ntf    fn421893   1.888   5.043   4.991  0.1656 -0.2627 -0.5871
 3656ntf    on521894   1.980   4.882   5.237  0.3658  0.5716  0.6650
 3656ntf    on521895   2.186   5.025   5.211  0.1914  0.7661 -0.1205
 3656ntf    on521896   1.806   5.289   5.374  0.3366  0.4117 -0.5179
 3656ntf    on521897   1.808   5.048   5.422  0.1126  0.0610  0.3950
 3656ntf    fn421898   1.750   5.228   5.085  0.2422  0.2435  0.3069
 3656ntf    fn421899   1.731   5.023   5.120 -0.0207  0.2410 -0.1053
 3656ntf    fn421900   1.602   5.164   5.206 -0.2905 -0.5406 -0.4453
 3657ntf    cn121901   3.282   7.086   0.009 -0.3757 -0.2261  0.0760
 3657ntf    sn221902   3.325   6.931   0.094 -0.0719 -0.1240  0.1071
 3657ntf    nn321903   3.383   7.000   0.222  0.1520 -0.2581  0.0788
 3657ntf    sn221904   3.474   6.935   0.332  0.1273 -0.1567  0.1597
 3657ntf    cn121905   3.417   7.003   0.491  0.1470  0.4489 -0.0926
 3657ntf    fn421906   3.202   7.154   0.090 -0.3556 -0.2347  0.1027
 3657ntf    fn421907   3.386   7.158  -0.028 -0.3743 -0.4801 -0.4342
 3657ntf    fn421908   3.209   7.064  -0.099 -0.2903 -0.3062  0.0349
 3657ntf    on521909   3.200   6.860   0.101  0.0284 -0.3233 -0.1055
 3657ntf    on521910   3.427   6.878   0.006 -0.3948  0.0918 -0.4030
 3657ntf    on521911   3.605   6.993   0.318  0.4225 -0.7783  0.2929
 3657ntf    on521912   3.471   6.791   0.343  0.6722 -0.2016 -0.2422
 3657ntf    fn421913   3.479   6.938   0.588 -0.6430 -0.5696 -0.2564
 3657ntf    fn421914   3.433   7.133   0.508 -0.0721  0.5014 -0.2931
 3657ntf    fn421915   3.288   6.980   0.509  0.3202 -0.5633 -0.1138
 3658ntf    cn121916   2.482   0.485   5.231 -0.1636  0.0614  0.1262
 3658ntf    sn221917   2.321   0.416   5.281 -0.2466  0.3004  0.1905
 3658ntf    nn321918   2.256   0.447   5.142  0.3155  0.4128 -0.0495
 3658ntf    sn221919   2.169   0.568   5.092 -0.2736  0.0213  0.0158
 3658ntf    cn121920   2.237   0.583   4.924  0.2073  0.7992  0.2712
 3658ntf    fn421921   2.520   0.427   5.119 -0.1615  0.2132  0.0484
 3658ntf    fn421922   2.478   0.614   5.204 -0.1082  0.0156 -0.0990
 3658ntf    fn421923   2.582   0.468   5.316 -0.5794  0.3305  0.6836
 3658ntf    on521924   2.340   0.273   5.292 -0.4015  0.3078  0.5824
 3658ntf    on521925   2.275   0.494   5.393 -0.3749  0.0243  0.3324
 3658ntf    on521926   2.192   0.703   5.140  0.2914  0.0337 -0.2771
 3658ntf    on521927   2.030   0.534   5.075 -0.3804  0.5134 -0.1269
 3658ntf    fn421928   2.368   0.565   4.917  0.0626 -0.5158  0.5771
 3658ntf    fn421929   2.193   0.496   4.835  0.5056  0.4092  0.5015
 3658ntf    fn421930   2.210   0.698   4.865  0.0486  0.5083 -0.2255
 3659ntf    cn121931   2.681   4.742   6.496 -0.0895  0.4103  0.5662
 3659ntf    sn221932   2.561   4.863   6.435  0.0845 -0.0120 -0.6431
 3659ntf    nn321933   2.638   4.993   6.479  0.1058 -0.2163 -0.0657
 3659ntf    sn221934   2.705   5.101   6.387  0.2508 -0.1138  0.1616
 3659ntf    cn121935   2.635   5.253   6.460  0.2936  0.1482 -0.3420
 3659ntf    fn421936   2.803   4.791   6.510  0.1570 -0.2807  0.8934
 3659ntf    fn421937   2.643   4.686   6.611  0.0165 -0.2164  0.2996
 3659ntf    fn421938   2.689   4.640   6.412 -0.2280  0.5789  0.3484
 3659ntf    on521939   2.553   4.836   6.294 -0.2301 -0.8990 -0.4604
 3659ntf    on521940   2.446   4.844   6.520 -0.1629 -0.1529 -1.0068
 3659ntf    on521941   2.665   5.099   6.249  0.0299  0.5340  0.2110
 3659ntf    on521942   2.848   5.111   6.401  0.2688  0.0109 -0.1086
 3659ntf    fn421943   2.666   5.267   6.587  0.2725  0.7115 -0.3968
 3659ntf    fn421944   2.682   5.361   6.401 -0.3638  0.6382  0.0161
 3659ntf    fn421945   2.503   5.259   6.444  0.2509 -0.2250 -0.1387
 3660ntf    cn121946   2.131   3.840   4.878 -0.4473  0.4645  0.3797
 3660ntf    sn221947   2.275   3.745   4.821 -0.7762  0.0917  0.1640
 3660ntf    nn321948   2.325   3.686   4.958 -0.2732  0.3012  0.0720
 3660ntf    sn221949   2.444   3.718   5.056  0.0673 -0.1900 -0.1756
 3660ntf    cn121950   2.585   3.620   4.994  0.4633  0.1115  0.2437
 3660ntf    fn421951   2.075   3.900   4.774 -0.5025 -0.1023  0.0802
 3660ntf    fn421952   2.038   3.759   4.924 -0.2254 -0.2635 -0.4325
 3660ntf    fn421953   2.144   3.921   4.982 -0.3112  0.3806  0.4288
 3660ntf    on521954   2.224   3.650   4.726 -0.2089 -0.3100  0.2590
 3660ntf    on521955   2.356   3.854   4.772 -0.5352 -0.0421  0.2612
 3660ntf    on521956   2.424   3.652   5.183 -0.1532 -0.0380 -0.1309
 3660ntf    on521957   2.482   3.857   5.068  0.3729 -0.3350  0.5610
 3660ntf    fn421958   2.612   3.649   4.868  0.2755 -0.0727  0.1612
 3660ntf    fn421959   2.696   3.621   5.066  0.3835  0.1714  0.3692
 3660ntf    fn421960   2.548   3.493   4.988  0.0517  0.1981  0.8425
 3661ntf    cn121961   5.389   0.207   2.047  0.1180 -0.4206  0.3750
 3661ntf    sn221962   5.356   0.385   2.029  0.4128 -0.3777  0.2377
 3661ntf    nn321963   5.500   0.445   2.017  0.1843  0.1440  0.0548
 3661ntf    sn221964   5.544   0.593   2.042  0.0825  0.1910 -0.0482
 3661ntf    cn121965   5.615   0.562   2.206 -0.1198  0.5254  0.1057
 3661ntf    fn421966   5.458   0.159   1.944  0.3907 -0.3188  0.5096
 3661ntf    fn421967   5.466   0.186   2.152 -0.1739 -0.1068  0.6535
 3661ntf    fn421968   5.282   0.129   2.049 -0.0936 -0.2004 -1.0158
 3661ntf    on521969   5.283   0.387   1.905 -0.1067 -0.0678  0.5397
 3661ntf    on521970   5.294   0.425   2.154 -0.6067 -0.3271 -0.2742
 3661ntf    on521971   5.438   0.691   2.055  0.1458  0.3924 -0.9768
 3661ntf    on521972   5.654   0.622   1.953  0.2697  0.1250  0.1625
 3661ntf    fn421973   5.666   0.671   2.261 -0.1920  0.3752  0.4718
 3661ntf    fn421974   5.534   0.511   2.297 -0.0506  0.2795  0.0312
 3661ntf    fn421975   5.713   0.474   2.188 -0.0703  0.5278  0.3613
 3662ntf    cn121976   1.645   1.028   2.757 -0.2260  0.1660  0.2723
 3662ntf    sn221977   1.760   0.890   2.726 -0.3473  0.0963  0.1291
 3662ntf    nn321978   1.859   0.971   2.635  0.2880 -0.2406  0.5139
 3662ntf    sn221979   2.016   0.962   2.635  0.3026 -0.0174  0.1033
 3662ntf    cn121980   2.040   0.829   2.514  0.2818  0.0720  0.0004
 3662ntf    fn421981   1.712   1.134   2.799  0.2676  0.0586 -0.2334
 3662ntf    fn421982   1.578   1.057   2.647 -0.0204 -0.8075 -0.1191
 3662ntf    fn421983   1.552   0.992   2.844 -0.6859 -0.1998 -0.3641
 3662ntf    on521984   1.802   0.841   2.855  0.2260 -0.1295 -0.1404
 3662ntf    on521985   1.676   0.805   2.646 -0.4471  0.7919 -0.5163
 3662ntf    on521986   2.069   0.898   2.753 -0.5252 -0.9942 -0.0428
 3662ntf    on521987   2.078   1.079   2.577  0.0235  0.2531  0.3459
 3662ntf    fn421988   1.975   0.859   2.403 -0.1381  0.2669  0.2997
 3662ntf    fn421989   2.168   0.815   2.481  0.1618 -0.4739 -0.2408
 3662ntf    fn421990   2.004   0.710   2.560 -0.0646  0.1358 -0.1054
 3663ntf    cn121991   3.890   1.759   2.302 -0.4114 -0.0291  0.0653
 3663ntf    sn221992   4.052   1.841   2.312 -0.2808 -0.3039  0.2469
 3663ntf    nn321993   4.102   1.784   2.174 -0.1258  0.3610  0.0240
 3663ntf    sn221994   4.204   1.858   2.080  0.4737 -0.3968  0.0690
 3663ntf    cn121995   4.351   1.900   2.179  0.2982  0.7245 -0.1289
 3663ntf    fn421996   3.900   1.628   2.322 -0.3433  0.0081  0.2792
 3663ntf    fn421997   3.805   1.807   2.391 -0.1994 -0.2299  0.3823
 3663ntf    fn421998   3.839   1.775   2.181  0.0012  0.0115 -0.1052
 3663ntf    on521999   4.016   1.981   2.311 -0.6418 -0.3906  0.7156
 3663ntf    on522000   4.116   1.785   2.428 -0.2494  0.1356  0.4447
 3663ntf    on522001   4.168   1.985   2.023 -0.0250 -0.4129  0.3406
 3663ntf    on522002   4.255   1.771   1.978  0.3054 -0.3956 -0.0160
 3663ntf    fn422003   4.343   1.991   2.274  0.1073 -0.2356  0.8006
 3663ntf    fn422004   4.386   1.785   2.235  0.1136  0.6661 -0.1309
 3663ntf    fn422005   4.450   1.932   2.098  0.1171  0.3136 -0.5153
 3664ntf    cn122006   3.023   0.522   3.966 -0.0169 -0.2608  0.2340
 3664ntf    sn222007   3.063   0.672   4.061 -0.0836 -0.3068  0.3342
 3664ntf    nn322008   3.142   0.765   3.963  0.3827 -1.0415  0.0041
 3664ntf    sn222009   3.287   0.824   3.967 -0.0956  0.1772 -0.1175
 3664ntf    cn122010   3.310   0.838   3.788  0.2261  0.7004 -0.0377
 3664ntf    fn422011   2.997   0.411   4.033 -0.1625 -0.1297  0.3954
 3664ntf    fn422012   2.922   0.534   3.882  0.3832 -0.1881 -0.2440
 3664ntf    fn422013   3.126   0.487   3.891 -0.1644  0.0101 -0.0995
 3664ntf    on522014   2.936   0.731   4.096 -0.1362 -0.3136  0.1516
 3664ntf    on522015   3.145   0.618   4.167 -0.1621 -0.1654  0.4688
 3664ntf    on522016   3.389   0.734   4.014 -0.2348 -0.3005 -0.7267
 3664ntf    on522017   3.292   0.960   4.014 -0.7715  0.1344  0.0867
 3664ntf    fn422018   3.434   0.867   3.754  0.2643  0.2348 -0.3037
 3664ntf    fn422019   3.273   0.733   3.716  0.1279  0.1307  0.8338
 3664ntf    fn422020   3.235   0.935   3.737 -0.2014  0.5129  0.2316
 3665ntf    cn122021   0.140   6.496   2.269  0.0251  0.2916  0.2132
 3665ntf    sn222022  -0.002   6.382   2.266  0.0327  0.2849  0.0907
 3665ntf    nn322023  -0.004   6.319   2.410  0.2980  0.2045  0.0595
 3665ntf    sn222024  -0.041   6.178   2.470 -0.2506  0.3522  0.0753
 3665ntf    cn122025   0.119   6.118   2.533 -0.2587  0.5347  0.2696
 3665ntf    fn422026   0.240   6.446   2.341  0.1829 -0.0052 -0.2097
 3665ntf    fn422027   0.180   6.519   2.145 -0.0287 -0.0797  0.1255
 3665ntf    fn422028   0.098   6.613   2.314  0.1865  0.2572  0.4557
 3665ntf    on522029  -0.117   6.469   2.254 -0.2028 -0.0484 -0.0563
 3665ntf    on522030   0.033   6.290   2.162  0.4978  0.6296 -0.0620
 3665ntf    on522031  -0.082   6.075   2.379  0.1656  0.0088  0.2722
 3665ntf    on522032  -0.122   6.180   2.589 -0.5224  0.3150 -0.1088
 3665ntf    fn422033   0.202   6.073   2.441 -0.7430 -0.4574  0.3006
 3665ntf    fn422034   0.190   6.215   2.589  0.6924  0.0362 -0.0465
 3665ntf    fn422035   0.112   6.023   2.625 -0.2905  0.4267  0.1545
 3666ntf    cn122036   5.115   2.983   3.624  0.1382  0.3145  0.1409
 3666ntf    sn222037   5.087   2.811   3.676  0.2539  0.2125 -0.1348
 3666ntf    nn322038   5.000   2.755   3.557 -0.0686  0.0128  0.1937
 3666ntf    sn222039   4.845   2.741   3.536  0.0188 -0.2116 -0.3015
 3666ntf    cn122040   4.828   2.661   3.373 -0.2317 -0.4475 -0.1603
 3666ntf    fn422041   5.171   3.055   3.720  0.2766  0.3668  0.0213
 3666ntf    fn422042   5.205   2.996   3.528 -0.1103  0.0508 -0.1300
 3666ntf    fn422043   5.006   3.043   3.580  0.0545  0.1485  0.1199
 3666ntf    on522044   5.217   2.748   3.671 -0.0869 -0.4825 -0.5056
 3666ntf    on522045   5.018   2.816   3.802  0.1968 -0.6628 -0.1245
 3666ntf    on522046   4.786   2.870   3.515  0.1548 -0.2092 -0.6779
 3666ntf    on522047   4.789   2.637   3.619  0.0182 -0.2508 -0.3502
 3666ntf    fn422048   4.703   2.646   3.333 -0.3437  0.4219 -0.1482
 3666ntf    fn422049   4.876   2.737   3.276  0.2361 -0.4030  0.1021
 3666ntf    fn422050   4.887   2.544   3.357  0.1685 -0.3280  0.3787
 3667ntf    cn122051   1.029   5.041   4.985  0.1728  0.3022 -0.1732
 3667ntf    sn222052   0.907   5.020   4.852  0.1229  0.1022 -0.0957
 3667ntf    nn322053   0.952   4.893   4.771 -0.5965  0.0042 -0.3507
 3667ntf    sn222054   1.005   4.881   4.624 -0.0422 -0.4022 -0.1219
 3667ntf    cn122055   0.857   4.912   4.523 -0.0853  0.1548  0.1074
 3667ntf    fn422056   1.150   5.066   4.938  0.3309  0.0388  0.0973
 3667ntf    fn422057   0.990   5.138   5.066 -0.5124 -0.1413  0.0404
 3667ntf    fn422058   1.039   4.935   5.063 -0.3986  0.4404  0.0970
 3667ntf    on522059   0.796   4.977   4.933 -0.3545  0.0135 -0.7824
 3667ntf    on522060   0.900   5.149   4.789  0.0327  0.3807  0.4790
 3667ntf    on522061   1.034   4.750   4.573  0.5769 -0.2465 -0.1779
 3667ntf    on522062   1.095   4.989   4.593 -0.1841 -0.0632  0.6268
 3667ntf    fn422063   0.867   4.863   4.400 -0.4269  0.5780 -0.0934
 3667ntf    fn422064   0.755   4.847   4.577  0.6260 -0.6016  0.5521
 3667ntf    fn422065   0.829   5.040   4.501 -0.0509  0.1966  0.3109
 3668ntf    cn122066   6.540   1.449   2.552  0.5569 -0.0309 -0.2459
 3668ntf    sn222067   6.636   1.302   2.602  0.1296 -0.2968 -0.2008
 3668ntf    nn322068   6.582   1.277   2.747  0.2620 -0.0617 -0.1100
 3668ntf    sn222069   6.624   1.151   2.831 -0.3795 -0.1156  0.1398
 3668ntf    cn122070   6.744   1.229   2.942  0.1501 -0.4468 -0.1951
 3668ntf    fn422071   6.570   1.491   2.431  0.5420 -0.1139 -0.2786
 3668ntf    fn422072   6.409   1.432   2.562  0.5453  0.4448  0.4458
 3668ntf    fn422073   6.568   1.554   2.628  0.1905  0.1750 -0.3934
 3668ntf    on522074   6.588   1.198   2.515  0.1451  0.0121 -0.5817
 3668ntf    on522075   6.771   1.350   2.589  0.1623 -0.2453  0.3266
 3668ntf    on522076   6.688   1.039   2.765 -0.0734  0.5245 -0.6738
 3668ntf    on522077   6.523   1.109   2.925 -0.0560 -0.6615  0.2439
 3668ntf    fn422078   6.701   1.324   3.023  0.3709 -0.5945  0.0997
 3668ntf    fn422079   6.809   1.145   3.022  0.3068 -0.3141 -0.1815
 3668ntf    fn422080   6.832   1.299   2.872 -0.1319  0.0401 -0.0649
 3669ntf    cn122081   0.263   3.723   0.975  0.2530 -0.4314  0.0809
 3669ntf    sn222082   0.410   3.618   0.962  0.1393 -0.5868  0.0465
 3669ntf    nn322083   0.395   3.555   0.819  0.1594 -0.0267 -0.2037
 3669ntf    sn222084   0.476   3.578   0.686  0.1994 -0.0578 -0.1848
 3669ntf    cn122085   0.339   3.651   0.591  0.1208 -0.0139 -0.0381
 3669ntf    fn422086   0.258   3.784   1.093  0.4603  0.0056 -0.1330
 3669ntf    fn422087   0.263   3.816   0.881 -0.0390  0.3804  0.8734
 3669ntf    fn422088   0.149   3.656   0.963 -0.1111  0.1552  0.2166
 3669ntf    on522089   0.522   3.703   0.995  0.0010 -0.0871 -0.7550
 3669ntf    on522090   0.388   3.511   1.057 -0.1667  0.4346  1.1452
 3669ntf    on522091   0.500   3.455   0.614  0.5819  0.4026 -0.8502
 3669ntf    on522092   0.581   3.677   0.685 -0.1675  0.3351  0.0363
 3669ntf    fn422093   0.236   3.571   0.575 -0.1245  0.3416 -0.2365
 3669ntf    fn422094   0.294   3.767   0.639  0.1651  0.0175 -0.0724
 3669ntf    fn422095   0.371   3.679   0.466 -0.6398 -0.0550 -0.2429
 3670ntf    cn122096   0.523   7.230   1.567  0.1829 -0.1764  0.0993
 3670ntf    sn222097   0.448   7.065   1.565  0.0710 -0.1260  0.1605
 3670ntf    nn322098   0.299   7.109   1.539  0.3686  0.5912 -0.3468
 3670ntf    sn222099   0.204   7.172   1.646  0.3716  0.3067 -0.1737
 3670ntf    cn122100   0.128   7.018   1.705  0.1437  0.4300 -0.1385
 3670ntf    fn422101   0.527   7.269   1.693 -0.5661  0.0432  0.0619
 3670ntf    fn422102   0.643   7.209   1.516  0.0811 -0.1009 -0.1738
 3670ntf    fn422103   0.455   7.318   1.494 -0.1300  0.1485  0.7728
 3670ntf    on522104   0.506   6.989   1.457  0.0226  0.0312  0.0232
 3670ntf    on522105   0.477   7.008   1.694  0.2059 -0.1516  0.1191
 3670ntf    on522106   0.100   7.246   1.577  0.1407 -0.2185 -0.3908
 3670ntf    on522107   0.257   7.232   1.766 -0.2963 -0.2463  0.4087
 3670ntf    fn422108   0.046   6.951   1.626 -0.0182  0.0170  0.3746
 3670ntf    fn422109   0.223   6.930   1.732  0.1381  0.5047  0.1255
 3670ntf    fn422110   0.072   7.035   1.823 -0.1800  0.5112 -0.3027
 3671ntf    cn122111   3.724   6.697   3.280 -0.0643  0.0500 -0.1710
 3671ntf    sn222112   3.827   6.703   3.430 -0.3319 -0.2559  0.0274
 3671ntf    nn322113   3.852   6.858   3.441 -0.1095 -0.2540 -0.5061
 3671ntf    sn222114   3.754   6.957   3.512  0.1356 -0.3726 -0.0016
 3671ntf    cn122115   3.802   6.929   3.686  0.1404 -0.4790 -0.0196
 3671ntf    fn422116   3.798   6.705   3.171 -0.0325 -0.8813 -0.2286
 3671ntf    fn422117   3.669   6.578   3.260 -0.3376  0.1135  0.1816
 3671ntf    fn422118   3.623   6.781   3.272 -0.7328 -0.7236 -0.0472
 3671ntf    on522119   3.732   6.635   3.515 -0.4959 -0.4498 -0.3096
 3671ntf    on522120   3.945   6.634   3.387 -0.2934 -0.0440 -0.2090
 3671ntf    on522121   3.613   6.929   3.504  0.1856 -0.3822 -0.8991
 3671ntf    on522122   3.798   7.093   3.495  0.6243 -0.4439  0.6279
 3671ntf    fn422123   3.878   7.024   3.738 -0.3358 -0.0566 -0.0824
 3671ntf    fn422124   3.696   6.932   3.765 -0.0900  0.1348 -0.3401
 3671ntf    fn422125   3.868   6.817   3.708  0.2039 -0.3254  0.5921
 3672ntf    cn122126   4.292   7.242   0.090 -0.0094 -0.0137 -0.0973
 3672ntf    sn222127   4.414   7.253   0.224  0.1114 -0.0482 -0.2044
 3672ntf    nn322128   4.318   7.324   0.325  0.3487 -0.2718  0.1822
 3672ntf    sn222129   4.313   7.458   0.408 -0.0640  0.0860 -0.4128
 3672ntf    cn122130   4.205   7.550   0.294  0.6489  0.6443 -0.6439
 3672ntf    fn422131   4.174   7.213   0.144 -0.2920  0.7850 -0.2738
 3672ntf    fn422132   4.265   7.356   0.029 -0.4798 -0.1937 -0.2316
 3672ntf    fn422133   4.317   7.151  -0.002  0.3952  0.1100 -0.1102
 3672ntf    on522134   4.443   7.113   0.247 -0.0784  0.0254  0.4945
 3672ntf    on522135   4.519   7.338   0.175  0.3416  0.1033  0.5459
 3672ntf    on522136   4.436   7.533   0.408  0.2509 -0.4079  0.5822
 3672ntf    on522137   4.244   7.462   0.534  0.7165  0.7508  0.0030
 3672ntf    fn422138   4.077   7.516   0.300  0.9621 -0.4934 -0.0089
 3672ntf    fn422139   4.206   7.678   0.326 -0.0158  0.5546 -0.2460
 3672ntf    fn422140   4.249   7.536   0.170 -0.0624 -0.3669 -0.7939
 3673ntf    cn122141   1.671   4.793   4.240  0.2952  0.0286  0.1440
 3673ntf    sn222142   1.705   4.898   4.096 -0.3700  0.0516  0.0002
 3673ntf    nn322143   1.677   5.046   4.139  0.3017  0.2514 -0.2296
 3673ntf    sn222144   1.782   5.145   4.202  0.3332  0.0853 -0.0176
 3673ntf    cn122145   1.868   5.210   4.055 -0.2889  0.1627 -0.3542
 3673ntf    fn422146   1.736   4.822   4.352  1.0425  0.0307 -0.2790
 3673ntf    fn422147   1.540   4.790   4.259  0.2460  0.0736 -0.1963
 3673ntf    fn422148   1.699   4.666   4.216 -0.3709 -0.1885  0.4787
 3673ntf    on522149   1.845   4.872   4.069 -0.2032  0.5315  0.3872
 3673ntf    on522150   1.617   4.853   3.991  0.4547  0.8022 -1.0328
 3673ntf    on522151   1.889   5.091   4.281 -0.0688 -0.3788  0.2164
 3673ntf    on522152   1.712   5.260   4.253 -0.6137 -0.6955  0.4786
 3673ntf    fn422153   1.964   5.293   4.093  0.2757 -0.5935 -0.1172
 3673ntf    fn422154   1.939   5.117   3.995  0.1950  0.2621  0.0531
 3673ntf    fn422155   1.797   5.282   3.970  0.2175  0.8658 -0.1943
 3674ntf    cn122156   2.017   2.714   4.463  0.3283 -0.2102  0.3280
 3674ntf    sn222157   1.988   2.844   4.339 -0.0073 -0.3320  0.2764
 3674ntf    nn322158   2.092   2.820   4.223  0.0127 -0.5420  0.3364
 3674ntf    sn222159   2.248   2.814   4.231  0.0864  0.4253 -0.1127
 3674ntf    cn122160   2.272   2.800   4.052 -0.0796 -0.0235 -0.1031
 3674ntf    fn422161   2.117   2.738   4.546  0.3543 -0.1453  0.2783
 3674ntf    fn422162   1.908   2.710   4.539  0.0424 -0.8438 -0.1051
 3674ntf    fn422163   2.037   2.595   4.410  0.0834 -0.1170  0.0242
 3674ntf    on522164   1.854   2.822   4.290 -0.0274 -0.2057  0.2765
 3674ntf    on522165   2.013   2.963   4.416 -0.0284 -0.2278  0.1239
 3674ntf    on522166   2.298   2.684   4.272 -0.4687  0.1849 -0.1965
 3674ntf    on522167   2.325   2.934   4.253 -0.0173  0.5488 -0.4333
 3674ntf    fn422168   2.243   2.682   4.000  0.0275  0.1429 -0.5511
 3674ntf    fn422169   2.207   2.894   3.985 -0.7498  0.0681  0.6623
 3674ntf    fn422170   2.397   2.815   4.009  0.1056  0.3094  0.5362
 3675ntf    cn122171   3.720   3.625   1.177 -0.0702 -0.2604 -0.0332
 3675ntf    sn222172   3.606   3.643   1.037 -0.0372  0.0066 -0.0264
 3675ntf    nn322173   3.506   3.738   1.114 -0.1148  0.0340 -0.1603
 3675ntf    sn222174   3.365   3.723   1.181  0.0315  0.0305  0.1501
 3675ntf    cn122175   3.262   3.777   1.041 -0.2921 -0.1994  0.2987
 3675ntf    fn422176   3.801   3.521   1.165 -0.4319 -0.5416 -0.0464
 3675ntf    fn422177   3.804   3.727   1.186  0.1512 -0.4461  0.0231
 3675ntf    fn422178   3.666   3.615   1.298  0.2857  0.8397  0.2381
 3675ntf    on522179   3.685   3.716   0.942  0.6459 -0.6056  0.0668
 3675ntf    on522180   3.565   3.509   1.002  1.0384 -0.4257  0.3447
 3675ntf    on522181   3.330   3.820   1.282  0.1528 -0.2791  0.4916
 3675ntf    on522182   3.320   3.589   1.207  0.0205 -0.0205 -0.1279
 3675ntf    fn422183   3.293   3.700   0.938  0.1078  0.3133  0.0299
 3675ntf    fn422184   3.135   3.757   1.071 -0.5115  0.0327 -0.4625
 3675ntf    fn422185   3.273   3.905   1.007 -0.1402 -0.2801  0.0438
 3676ntf    cn122186   6.260   2.546   5.101 -0.0463  0.2629 -0.0094
 3676ntf    sn222187   6.349   2.695   5.155  0.5972 -0.0907 -0.0831
 3676ntf    nn322188   6.376   2.643   5.301  0.1179 -0.3023 -0.0682
 3676ntf    sn222189   6.509   2.648   5.383  0.0228 -0.0804  0.0725
 3676ntf    cn122190   6.567   2.818   5.351  0.2741 -0.2528 -0.4017
 3676ntf    fn422191   6.155   2.534   5.181 -0.0138  0.8954  0.1353
 3676ntf    fn422192   6.213   2.560   4.978 -0.1023 -0.1035 -0.0314
 3676ntf    fn422193   6.329   2.433   5.101 -0.2135  0.1600 -0.7144
 3676ntf    on522194   6.463   2.716   5.068  0.7098 -0.4314 -0.0185
 3676ntf    on522195   6.247   2.797   5.146  0.4091 -0.3235 -0.6869
 3676ntf    on522196   6.613   2.560   5.337 -0.4018  0.0112 -1.0806
 3676ntf    on522197   6.477   2.645   5.524 -0.4463 -0.1706 -0.0361
 3676ntf    fn422198   6.664   2.823   5.262  0.1202 -0.0365 -0.5558
 3676ntf    fn422199   6.474   2.900   5.305  0.5637  0.5122  0.3423
 3676ntf    fn422200   6.614   2.871   5.463  0.0740 -0.2674 -0.3111
 3677ntf    cn122201   6.270   3.797   2.118 -0.1778  0.0856 -0.1965
 3677ntf    sn222202   6.185   3.869   1.974 -0.2652 -0.1373 -0.2576
 3677ntf    nn322203   6.046   3.873   2.047 -0.1049  0.3749  0.0269
 3677ntf    sn222204   5.956   3.994   2.089 -0.0888  0.3087  0.2486
 3677ntf    cn122205   5.802   3.909   2.135 -0.1283  0.3786  0.2476
 3677ntf    fn422206   6.228   3.674   2.146  0.3150 -0.0983 -0.2547
 3677ntf    fn422207   6.396   3.774   2.087 -0.1287 -0.1517  0.1612
 3677ntf    fn422208   6.272   3.879   2.222 -0.2785  0.3089 -0.3698
 3677ntf    on522209   6.263   3.989   1.957  0.1927 -0.5842 -1.3860
 3677ntf    on522210   6.203   3.767   1.874 -0.3570  0.1565 -0.5737
 3677ntf    on522211   5.919   4.068   1.971 -0.4491 -0.1032  0.1010
 3677ntf    on522212   5.993   4.058   2.213 -0.3765  0.4347  0.2714
 3677ntf    fn422213   5.724   3.991   2.203  0.1155  0.3236  0.5924
 3677ntf    fn422214   5.749   3.877   2.017 -0.0833  0.2018  0.2746
 3677ntf    fn422215   5.807   3.801   2.212  0.0632  0.2401  0.0424
 3678ntf    cn122216   7.050   1.474   1.045  0.3652 -0.2690 -0.3680
 3678ntf    sn222217   6.991   1.563   0.898  0.3583 -0.0578 -0.2371
 3678ntf    nn322218   7.121   1.568   0.810  0.3838  0.0368 -0.1947
 3678ntf    sn222219   7.154   1.671   0.696  0.1027  0.1376 -0.1862
 3678ntf    cn122220   7.241   1.794   0.798 -0.6999  0.6374 -0.1006
 3678ntf    fn422221   6.948   1.437   1.120  0.8663 -0.1182  0.4066
 3678ntf    fn422222   7.110   1.357   1.029  0.0733 -0.4142 -0.3954
 3678ntf    fn422223   7.119   1.548   1.130 -0.5262  0.4393 -0.2480
 3678ntf    on522224   6.886   1.477   0.851  0.3039 -0.0365 -0.1547
 3678ntf    on522225   6.951   1.688   0.957 -0.0828 -0.4538  0.3132
 3678ntf    on522226   7.037   1.733   0.640  0.1324  0.4665  0.1118
 3678ntf    on522227   7.251   1.621   0.601 -0.0355  0.5466 -0.5421
 3678ntf    fn422228   7.158   1.874   0.863 -0.7215  0.2437  0.3633
 3678ntf    fn422229   7.307   1.741   0.899  0.1154  0.0679 -0.9138
 3678ntf    fn422230   7.319   1.870   0.722 -0.5234  0.0181 -0.5426
 3679ntf    cn122231   4.862   6.700   0.891 -0.2211  0.1921 -0.1036
 3679ntf    sn222232   5.027   6.638   0.845 -0.3341  0.0641 -0.3418
 3679ntf    nn322233   5.057   6.722   0.715  0.3874  0.2093 -0.0893
 3679ntf    sn222234   5.120   6.683   0.577  0.2188 -0.1086 -0.0781
 3679ntf    cn122235   4.996   6.758   0.468  0.3061 -0.3467 -0.3447
 3679ntf    fn422236   4.799   6.754   0.788 -0.1013  0.1637 -0.1918
 3679ntf    fn422237   4.783   6.603   0.935  0.0249 -0.0040 -0.0895
 3679ntf    fn422238   4.846   6.789   0.987  0.0515  0.7519 -0.5746
 3679ntf    on522239   5.113   6.674   0.955 -0.4412 -0.2128 -0.1682
 3679ntf    on522240   5.007   6.499   0.814 -0.3582 -0.0572  0.2079
 3679ntf    on522241   5.127   6.541   0.549 -0.4723 -0.1609 -0.0026
 3679ntf    on522242   5.235   6.765   0.547  0.2152 -0.0621  0.0347
 3679ntf    fn422243   4.877   6.699   0.464 -0.2436  0.6836  0.2973
 3679ntf    fn422244   4.976   6.884   0.504  0.5453 -0.3698 -0.1283
 3679ntf    fn422245   5.034   6.776   0.343  0.4554  0.1698 -0.2266
 3680ntf    cn122246   2.007   4.607   4.411  0.0131  0.0180  0.4176
 3680ntf    sn222247   2.040   4.440   4.476  0.3118 -0.0244  0.1567
 3680ntf    nn322248   2.162   4.410   4.380  0.1569 -1.2248  0.3237
 3680ntf    sn222249   2.315   4.437   4.403  0.0247  0.1023 -0.2854
 3680ntf    cn122250   2.361   4.261   4.414 -0.1366  0.0518 -0.4184
 3680ntf    fn422251   2.111   4.687   4.431  0.1972 -0.0538 -0.2349
 3680ntf    fn422252   1.987   4.606   4.280 -0.1282 -0.2830  0.4396
 3680ntf    fn422253   1.898   4.665   4.457  0.1196  0.2171  0.4189
 3680ntf    on522254   2.066   4.455   4.617 -0.1312 -0.1043  0.2472
 3680ntf    on522255   1.923   4.369   4.431  0.2551 -0.0505  0.3478
 3680ntf    on522256   2.354   4.496   4.528 -0.0252 -0.0915 -0.1777
 3680ntf    on522257   2.385   4.483   4.286  0.2548  0.8770  0.1503
 3680ntf    fn422258   2.332   4.182   4.312 -0.4058 -0.2271 -0.1259
 3680ntf    fn422259   2.485   4.226   4.443 -0.1424 -0.0418 -0.5079
 3680ntf    fn422260   2.299   4.202   4.514  0.8384 -0.3871 -0.0674
 3681ntf    cn122261   2.668   1.993   1.730  0.2310 -0.0519 -0.3946
 3681ntf    sn222262   2.540   1.884   1.660  0.0192 -0.0623  0.0062
 3681ntf    nn322263   2.418   1.982   1.648 -0.1733 -0.3030 -0.0049
 3681ntf    sn222264   2.325   2.022   1.768  0.1371 -0.1088  0.1738
 3681ntf    cn122265   2.223   1.871   1.769  0.3898 -0.2808  0.4298
 3681ntf    fn422266   2.793   1.950   1.720  0.0420 -0.7181  0.0331
 3681ntf    fn422267   2.674   2.106   1.662 -1.1164  0.0375 -0.3869
 3681ntf    fn422268   2.641   2.026   1.855  0.3670  0.7548 -0.5730
 3681ntf    on522269   2.586   1.848   1.528 -0.1651  0.3217 -0.1655
 3681ntf    on522270   2.522   1.778   1.755 -0.0796 -0.1420 -0.1017
 3681ntf    on522271   2.222   2.120   1.743  0.0234 -0.2347  0.1485
 3681ntf    on522272   2.384   2.042   1.898 -0.0116  0.4429  0.1571
 3681ntf    fn422273   2.275   1.770   1.835  0.5234 -0.4235  0.1094
 3681ntf    fn422274   2.106   1.888   1.828 -0.0069 -0.2528 -0.3433
 3681ntf    fn422275   2.206   1.824   1.646  0.0178  0.1055  0.3310
 3682ntf    cn122276   2.191   5.321   2.566 -0.3637 -0.0135  0.0573
 3682ntf    sn222277   2.325   5.354   2.447  0.1099 -0.3590  0.4927
 3682ntf    nn322278   2.449   5.360   2.544  0.0392 -0.3782  0.5843
 3682ntf    sn222279   2.488   5.457   2.661 -0.1818  0.1560  0.2189
 3682ntf    cn122280   2.601   5.576   2.583  0.1672 -0.2264  0.1429
 3682ntf    fn422281   2.093   5.410   2.573 -0.1654  0.1657  0.6826
 3682ntf    fn422282   2.127   5.210   2.535 -0.2396 -0.1239  0.1979
 3682ntf    fn422283   2.241   5.289   2.684 -0.0665 -0.4383 -0.1828
 3682ntf    on522284   2.335   5.240   2.360 -0.9258 -0.2856  0.2640
 3682ntf    on522285   2.295   5.482   2.388  0.1054 -0.3926  0.4227
 3682ntf    on522286   2.562   5.388   2.764 -0.2998 -0.4131 -0.0746
 3682ntf    on522287   2.373   5.526   2.715 -0.3175 -0.3210  0.5478
 3682ntf    fn422288   2.704   5.510   2.533  0.3582  0.1909 -0.0189
 3682ntf    fn422289   2.552   5.645   2.482 -0.2735 -0.1411  0.4126
 3682ntf    fn422290   2.647   5.664   2.671 -0.5312  0.3527 -0.0646
 3683ntf    cn122291   2.292   1.834   4.258  0.1560 -0.2330  0.1702
 3683ntf    sn222292   2.154   1.849   4.141 -0.0178 -0.2841  0.3684
 3683ntf    nn322293   2.168   1.707   4.074  0.3282  0.0166 -0.2095
 3683ntf    sn222294   2.065   1.622   3.991  0.0151  0.0341  0.1555
 3683ntf    cn122295   2.175   1.554   3.863 -0.1090  0.5354 -0.2182
 3683ntf    fn422296   2.306   1.938   4.339 -0.0987 -0.2973  0.2967
 3683ntf    fn422297   2.270   1.723   4.325  0.3541 -0.1478  0.3763
 3683ntf    fn422298   2.412   1.812   4.207 -0.0064 -0.4511 -0.1203
 3683ntf    on522299   2.038   1.865   4.225  0.3991  0.2798  0.8403
 3683ntf    on522300   2.187   1.962   4.057  0.4693  0.0760  1.0420
 3683ntf    on522301   1.974   1.697   3.908  0.3867 -0.6148 -0.8623
 3683ntf    on522302   2.018   1.502   4.057  0.0277  0.1759  0.4238
 3683ntf    fn422303   2.251   1.640   3.797  0.0596  0.6811  0.1657
 3683ntf    fn422304   2.263   1.473   3.919  0.1743  0.7563 -0.3396
 3683ntf    fn422305   2.115   1.480   3.771  0.8808 -0.2840 -0.2197
 3684ntf    cn122306   1.898   1.060   1.003 -0.1748  0.2935  0.2143
 3684ntf    sn222307   1.760   1.148   0.923 -0.2175  0.0740  0.0435
 3684ntf    nn322308   1.747   1.268   1.024 -0.3891  0.5437 -0.5316
 3684ntf    sn222309   1.834   1.398   1.033  0.0014  0.2440  0.0957
 3684ntf    cn122310   1.762   1.505   0.905  0.3163  0.1182 -0.1894
 3684ntf    fn422311   1.876   1.040   1.132  0.1123 -0.4443  0.1549
 3684ntf    fn422312   1.916   0.944   0.941 -0.5099  0.2357  0.2215
 3684ntf    fn422313   2.010   1.127   0.985 -0.1898  0.3169  0.2076
 3684ntf    on522314   1.815   1.181   0.794  0.0284  0.4310  0.2374
 3684ntf    on522315   1.646   1.060   0.931 -0.4878  0.4115 -0.0725
 3684ntf    on522316   1.973   1.376   1.001 -0.2444 -0.7003 -0.3603
 3684ntf    on522317   1.802   1.473   1.152  0.1828 -0.3510  0.5239
 3684ntf    fn422318   1.781   1.459   0.782  0.2927 -0.4216  0.0046
 3684ntf    fn422319   1.631   1.502   0.925  0.2752 -0.1662 -0.4959
 3684ntf    fn422320   1.814   1.626   0.912  0.4650  0.0407  0.0488
 3685ntf    cn122321   3.745   3.405   6.811 -0.0671  0.2801 -0.3535
 3685ntf    sn222322   3.618   3.361   6.688 -0.2546 -0.1477 -0.0130
 3685ntf    nn322323   3.498   3.352   6.788 -0.2538  0.5525  0.0613
 3685ntf    sn222324   3.447   3.238   6.884  0.6688 -0.0845 -0.1936
 3685ntf    cn122325   3.332   3.154   6.771  0.2682 -0.4461  0.4765
 3685ntf    fn422326   3.692   3.475   6.910 -0.1823 -0.0046 -0.2117
 3685ntf    fn422327   3.795   3.298   6.871 -0.7139  0.5415  0.6788
 3685ntf    fn422328   3.848   3.471   6.762 -0.0076  0.3986 -0.0656
 3685ntf    on522329   3.620   3.470   6.592 -0.3167 -0.0155  0.1352
 3685ntf    on522330   3.675   3.240   6.635  0.2194 -0.0600  0.2928
 3685ntf    on522331   3.374   3.288   6.997  0.5468 -0.5007 -0.0860
 3685ntf    on522332   3.542   3.136   6.919  0.2368 -0.3439  0.2290
 3685ntf    fn422333   3.398   3.106   6.667 -0.2545 -0.1747  0.0078
 3685ntf    fn422334   3.270   3.057   6.836 -0.5053  0.2327  0.7733
 3685ntf    fn422335   3.239   3.242   6.736  0.5649 -0.3746 -0.1560
 3686ntf    cn122336   4.196   1.288   6.967 -0.1271  0.4849  0.1439
 3686ntf    sn222337   4.287   1.244   6.816 -0.6230  0.0943 -0.0452
 3686ntf    nn322338   4.357   1.108   6.850 -0.4096  0.2417  0.1067
 3686ntf    sn222339   4.324   0.959   6.811 -0.5927  0.2856  0.0945
 3686ntf    cn122340   4.457   0.932   6.690 -0.5275 -0.0669  0.2437
 3686ntf    fn422341   4.106   1.195   6.995  0.2858 -0.0920 -0.3860
 3686ntf    fn422342   4.282   1.290   7.068 -0.1631 -0.7565  0.2188
 3686ntf    fn422343   4.133   1.403   6.958  0.0142  0.5749  0.2963
 3686ntf    on522344   4.190   1.241   6.709 -0.4678  0.2050 -0.1903
 3686ntf    on522345   4.383   1.350   6.795  0.0970 -0.4223  0.5780
 3686ntf    on522346   4.206   0.938   6.731 -0.3656 -0.1845 -0.1150
 3686ntf    on522347   4.357   0.855   6.905  0.3094  0.1581 -0.3485
 3686ntf    fn422348   4.574   0.981   6.729 -0.6016  0.4269 -0.1459
 3686ntf    fn422349   4.473   0.802   6.671  0.1128  0.0128  0.2149
 3686ntf    fn422350   4.428   0.992   6.576 -0.0610  0.0638  0.1921
 3687ntf    cn122351   1.304   6.132   6.722 -0.3373  0.6092 -0.0374
 3687ntf    sn222352   1.242   6.163   6.554 -0.2235 -0.1578 -0.2266
 3687ntf    nn322353   1.211   6.017   6.505 -0.1633 -0.0863 -0.4769
 3687ntf    sn222354   1.296   5.910   6.428  0.7048  0.1951  0.0713
 3687ntf    cn122355   1.270   5.949   6.253 -0.1898 -0.0032  0.1536
 3687ntf    fn422356   1.217   6.059   6.790  0.1505 -0.0248 -0.0838
 3687ntf    fn422357   1.419   6.067   6.728 -0.2454  0.7911  0.1861
 3687ntf    fn422358   1.330   6.245   6.784  0.1483  0.3170  0.2990
 3687ntf    on522359   1.125   6.244   6.575  0.0317  0.1498  0.0265
 3687ntf    on522360   1.348   6.223   6.476  0.0790  0.0225  0.3160
 3687ntf    on522361   1.231   5.781   6.433  0.5397  0.2881  0.3439
 3687ntf    on522362   1.438   5.911   6.449  0.6887 -0.5629  0.2570
 3687ntf    fn422363   1.322   5.862   6.168  0.0281  0.3370 -0.0669
 3687ntf    fn422364   1.146   5.977   6.214 -0.1038 -0.1324 -0.2193
 3687ntf    fn422365   1.333   6.062   6.227  0.1945 -0.2944 -0.1808
 3688ntf    cn122366   6.920   4.149   6.475 -0.0133 -0.2640  0.1823
 3688ntf    sn222367   6.898   4.316   6.407 -0.2624 -0.2755  0.2307
 3688ntf    nn322368   7.003   4.315   6.290 -0.3607  1.2631  0.1023
 3688ntf    sn222369   7.148   4.374   6.282  0.0998  0.1319 -0.0062
 3688ntf    cn122370   7.094   4.546   6.259  0.1341  0.1446  0.0102
 3688ntf    fn422371   6.897   4.056   6.384  0.0530  0.0842 -0.1941
 3688ntf    fn422372   7.034   4.121   6.536  0.0482 -0.1334  0.1302
 3688ntf    fn422373   6.825   4.132   6.565  0.0159  0.9965  0.4691
 3688ntf    on522374   6.764   4.318   6.353  0.1277  0.2903 -0.7658
 3688ntf    on522375   6.921   4.405   6.518  0.6105 -0.7628  0.4508
 3688ntf    on522376   7.222   4.346   6.161  0.3011  0.4220  0.0499
 3688ntf    on522377   7.212   4.369   6.412 -0.3909 -0.0322  0.2302
 3688ntf    fn422378   7.019   4.601   6.353  0.0515  0.3361 -0.1674
 3688ntf    fn422379   7.188   4.632   6.223  0.1038 -0.0093 -0.4433
 3688ntf    fn422380   7.017   4.552   6.152  0.1864  0.5948 -0.0026
 3689ntf    cn122381   3.937   2.373   7.034  0.1744 -0.1749  0.5026
 3689ntf    sn222382   3.917   2.537   7.108 -0.5643 -0.1724  0.3101
 3689ntf    nn322383   3.860   2.485   7.244  0.0553 -0.0687  0.6121
 3689ntf    sn222384   3.933   2.471   7.383  0.3577  0.1528  0.4758
 3689ntf    cn122385   3.807   2.389   7.485  0.2574 -0.1286  0.1243
 3689ntf    fn422386   4.051   2.313   7.065  0.4831  0.2131  0.1381
 3689ntf    fn422387   3.837   2.292   7.067  0.1521 -0.3701 -0.0306
 3689ntf    fn422388   3.923   2.388   6.903  1.2608  0.1357  0.4115
 3689ntf    on522389   4.049   2.596   7.116 -0.2824 -0.6794 -0.4839
 3689ntf    on522390   3.829   2.608   7.018  0.2616 -0.0037 -0.3818
 3689ntf    on522391   3.954   2.598   7.449  0.6340  0.1749  0.3491
 3689ntf    on522392   4.041   2.376   7.388  0.2498 -0.0082 -0.1450
 3689ntf    fn422393   3.755   2.281   7.429 -0.2102 -0.2614  0.8074
 3689ntf    fn422394   3.862   2.337   7.593  0.7508 -0.6543 -0.3701
 3689ntf    fn422395   3.705   2.460   7.528  0.4521  0.0092  0.3643
 3690ntf    cn122396   4.232   4.101   0.385 -0.0744 -0.1780  0.0622
 3690ntf    sn222397   4.137   4.076   0.538  0.5425  0.3648  0.5402
 3690ntf    nn322398   3.986   4.092   0.497  0.7056 -0.2170 -0.3206
 3690ntf    sn222399   3.912   4.229   0.473 -0.0026 -0.5040  0.1783
 3690ntf    cn122400   3.861   4.274   0.642  0.0026  0.3206 -0.0369
 3690ntf    fn422401   4.362   4.088   0.400 -0.0069  0.5497  0.1394
 3690ntf    fn422402   4.198   4.010   0.295 -0.5991 -0.5529  0.6269
 3690ntf    fn422403   4.209   4.220   0.332  0.0055 -0.1201  0.1582
 3690ntf    on522404   4.173   3.942   0.577  0.4492  0.0260 -0.5259
 3690ntf    on522405   4.194   4.175   0.627  0.2105  0.8279  0.2422
 3690ntf    on522406   3.785   4.226   0.405  0.5019  0.0502 -0.8093
 3690ntf    on522407   3.991   4.345   0.440 -0.6760 -0.0926 -0.0026
 3690ntf    fn422408   3.959   4.275   0.731  0.1042 -0.0180 -0.1449
 3690ntf    fn422409   3.797   4.390   0.638 -0.4934  0.0614  0.2640
 3690ntf    fn422410   3.776   4.186   0.693 -0.0724  0.2065 -0.3556
 3691ntf    cn122411   2.986   7.039   5.116 -0.4352  0.0032  0.3842
 3691ntf    sn222412   2.998   6.861   5.155  0.0773 -0.0056  0.1946
 3691ntf    nn322413   3.148   6.839   5.117 -0.2014 -0.8598 -0.4444
 3691ntf    sn222414   3.250   6.752   5.200 -0.3653 -0.3257  0.3304
 3691ntf    cn122415   3.350   6.882   5.276 -0.6805  0.2259 -0.1837
 3691ntf    fn422416   3.059   7.110   5.200  0.4061  0.2836 -0.5677
 3691ntf    fn422417   3.023   7.071   4.993 -0.1200  0.1167  0.5067
 3691ntf    fn422418   2.865   7.091   5.125 -0.3931  0.2075 -0.1931
 3691ntf    on522419   2.961   6.863   5.294 -0.5204 -0.1453  0.0403
 3691ntf    on522420   2.901   6.801   5.066  0.1794  0.0818  0.0256
 3691ntf    on522421   3.335   6.675   5.112  0.6004  0.5796  0.4624
 3691ntf    on522422   3.193   6.681   5.312 -0.5053 -0.0010  0.4654
 3691ntf    fn422423   3.453   6.850   5.353 -0.6816 -0.1315 -0.3304
 3691ntf    fn422424   3.400   6.966   5.187  0.2853  0.0663  0.1923
 3691ntf    fn422425   3.271   6.946   5.361  0.1690  0.9233  0.1081
 3692ntf    cn122426   5.698   4.383   3.018  0.1309  0.0718 -0.1287
 3692ntf    sn222427   5.713   4.375   2.837 -0.1597 -0.1645 -0.1443
 3692ntf    nn322428   5.801   4.249   2.808  0.1827 -0.0124  0.2197
 3692ntf    sn222429   5.743   4.105   2.782 -0.0227  0.0672  0.2391
 3692ntf    cn122430   5.679   4.111   2.612  0.0592 -0.1602  0.2011
 3692ntf    fn422431   5.645   4.494   3.067 -0.1424  0.1000 -0.4919
 3692ntf    fn422432   5.613   4.286   3.051  0.0827  0.0038 -0.4501
 3692ntf    fn422433   5.806   4.352   3.089  0.2519 -0.3352 -0.4871
 3692ntf    on522434   5.576   4.375   2.793 -0.3237  0.2851  0.3534
 3692ntf    on522435   5.784   4.498   2.812 -0.0167 -0.2833 -0.3220
 3692ntf    on522436   5.625   4.077   2.859 -0.6096  0.4139 -0.5188
 3692ntf    on522437   5.840   3.999   2.778  0.0571  0.1631 -0.4480
 3692ntf    fn422438   5.773   4.132   2.522 -0.0695 -0.2806  0.0381
 3692ntf    fn422439   5.622   3.993   2.593  0.2788 -0.3111  0.4701
 3692ntf    fn422440   5.578   4.193   2.591  0.1435 -0.1222 -0.0685
 3693ntf    cn122441   5.274   2.819   1.589 -0.1232  0.1945 -0.0242
 3693ntf    sn222442   5.252   2.998   1.609 -0.1185  0.2070 -0.1330
 3693ntf    nn322443   5.309   3.029   1.752 -0.1238  0.3704 -0.1656
 3693ntf    sn222444   5.460   3.045   1.789 -0.1721 -0.0805  0.2362
 3693ntf    cn122445   5.459   2.987   1.962 -0.2011 -0.0638  0.2415
 3693ntf    fn422446   5.400   2.783   1.609 -0.0709  0.2125 -0.3174
 3693ntf    fn422447   5.202   2.747   1.673  0.1893  0.3421  0.3790
 3693ntf    fn422448   5.245   2.771   1.469 -0.2751  0.9000 -0.2724
 3693ntf    on522449   5.329   3.067   1.508 -0.0052 -0.2007 -0.3283
 3693ntf    on522450   5.109   3.015   1.617 -0.1925 -0.3622 -0.2075
 3693ntf    on522451   5.499   3.184   1.790  0.1871 -0.1788  0.6705
 3693ntf    on522452   5.553   2.957   1.722  0.1540  0.3102  0.1643
 3693ntf    fn422453   5.373   2.889   1.979  0.1116 -0.3630  0.1080
 3693ntf    fn422454   5.576   2.937   1.998 -0.1452 -0.0476  0.0844
 3693ntf    fn422455   5.431   3.081   2.051 -0.6284 -0.1070  0.1560
 3694ntf    cn122456   5.636   6.827   1.583  0.0952 -0.0295  0.1955
 3694ntf    sn222457   5.686   6.673   1.501  0.2384  0.0706  0.0930
 3694ntf    nn322458   5.643   6.712   1.356  0.5984  1.1556  0.2724
 3694ntf    sn222459   5.724   6.697   1.222 -0.0365 -0.0958  0.0202
 3694ntf    cn122460   5.829   6.844   1.241 -0.0003 -0.1324  0.1051
 3694ntf    fn422461   5.698   6.933   1.533 -0.0554 -0.2685 -0.5050
 3694ntf    fn422462   5.510   6.863   1.570 -0.0193 -0.4614  0.0946
 3694ntf    fn422463   5.662   6.824   1.713  0.3915  0.2742  0.1447
 3694ntf    on522464   5.826   6.661   1.534  0.3481  0.2792 -0.3050
 3694ntf    on522465   5.601   6.576   1.566 -0.1006  0.1678 -0.2044
 3694ntf    on522466   5.641   6.722   1.107  0.0868 -0.4181 -0.1387
 3694ntf    on522467   5.812   6.582   1.216 -0.0564 -0.1158  0.1082
 3694ntf    fn422468   5.865   6.882   1.120  0.0742 -0.4692  0.0222
 3694ntf    fn422469   5.772   6.945   1.305 -0.3373  0.2184 -0.7403
 3694ntf    fn422470   5.941   6.814   1.305  0.0669 -0.1529 -0.0222
 3695ntf    cn122471   3.456   0.020   1.452  0.4109  0.4224  0.1616
 3695ntf    sn222472   3.385   0.148   1.559 -0.5152  0.0868 -0.0426
 3695ntf    nn322473   3.439   0.105   1.700 -0.0608  1.4356  0.2118
 3695ntf    sn222474   3.580   0.128   1.764  0.2742  0.0362  0.0078
 3695ntf    cn122475   3.530   0.263   1.875  0.1964  0.0420 -0.0345
 3695ntf    fn422476   3.389  -0.094   1.445  0.4619  0.4096 -0.1638
 3695ntf    fn422477   3.463   0.057   1.325 -0.3499 -0.2837 -0.0966
 3695ntf    fn422478   3.580  -0.010   1.485  0.4113 -0.0149 -0.2172
 3695ntf    on522479   3.438   0.273   1.510  0.0523 -0.0492  0.2196
 3695ntf    on522480   3.245   0.117   1.538 -0.5889  0.2345  0.2150
 3695ntf    on522481   3.687   0.178   1.681 -0.0503 -0.0486 -0.4587
 3695ntf    on522482   3.616   0.018   1.850 -0.4028  0.1436  0.4353
 3695ntf    fn422483   3.619   0.301   1.965  0.1652 -0.0419  0.0327
 3695ntf    fn422484   3.498   0.373   1.809  0.0821  0.0894  0.1003
 3695ntf    fn422485   3.423   0.224   1.943  0.1621  0.2505  0.0326
 3696ntf    cn122486   0.357   2.574   1.196  0.1819 -0.2584 -0.2284
 3696ntf    sn222487   0.217   2.516   1.295 -0.0885  0.1694 -0.3606
 3696ntf    nn322488   0.103   2.607   1.236  0.1531  0.5532 -0.2404
 3696ntf    sn222489   0.016   2.562   1.113  0.2049  0.0950 -0.1100
 3696ntf    cn122490  -0.134   2.653   1.160  0.1446 -0.0616  0.0015
 3696ntf    fn422491   0.342   2.546   1.067  0.3862 -0.2845 -0.2470
 3696ntf    fn422492   0.385   2.703   1.203 -0.1714 -0.1932 -0.0356
 3696ntf    fn422493   0.464   2.513   1.244  0.1218  0.0701  0.3261
 3696ntf    on522494   0.203   2.375   1.269 -0.5411  0.2092 -0.3513
 3696ntf    on522495   0.254   2.564   1.426 -0.2740  0.3602 -0.3765
 3696ntf    on522496  -0.030   2.425   1.119  0.7555 -0.0770  0.2655
 3696ntf    on522497   0.049   2.628   0.989 -0.6744  0.4934 -0.1365
 3696ntf    fn422498  -0.225   2.658   1.063 -0.0983 -0.7736  0.1890
 3696ntf    fn422499  -0.184   2.601   1.270 -0.4585 -0.7147 -0.5680
 3696ntf    fn422500  -0.112   2.780   1.189 -0.1936 -0.0372  0.1525
 3697ntf    cn122501   2.337   0.445   5.974 -0.2998  0.1932  0.2821
 3697ntf    sn222502   2.183   0.520   5.914 -0.1218  0.1926 -0.1743
 3697ntf    nn322503   2.162   0.626   6.027  0.5889  0.1507  0.0046
 3697ntf    sn222504   2.192   0.780   6.020  0.3238  0.2202  0.3636
 3697ntf    cn122505   2.238   0.817   6.192  0.5235  0.1032  0.3357
 3697ntf    fn422506   2.373   0.334   5.911  0.2211  0.4765  0.0715
 3697ntf    fn422507   2.440   0.526   5.954 -0.1315 -0.1155 -0.1241
 3697ntf    fn422508   2.347   0.412   6.102 -0.3437 -0.0438  0.2244
 3697ntf    on522509   2.202   0.570   5.780  0.1989 -0.1984 -0.2785
 3697ntf    on522510   2.102   0.401   5.925 -0.2078  0.2462 -0.2286
 3697ntf    on522511   2.070   0.857   6.012  0.3841  0.2842  0.0637
 3697ntf    on522512   2.301   0.814   5.932 -0.0129  0.2760 -0.0351
 3697ntf    fn422513   2.132   0.783   6.264  0.4288 -0.3575 -0.0132
 3697ntf    fn422514   2.341   0.744   6.233  0.4736 -0.3163 -0.2789
 3697ntf    fn422515   2.268   0.945   6.206  0.1313  0.2354  0.0066
 3698ntf    cn122516   6.231   0.102   5.080 -0.1865 -0.2108 -0.1413
 3698ntf    sn222517   6.214  -0.021   5.213 -0.0593 -0.2525 -0.1638
 3698ntf    nn322518   6.093  -0.111   5.167 -0.4381  0.0388  0.2615
 3698ntf    sn222519   6.070  -0.258   5.217  0.1443 -0.2124 -0.1982
 3698ntf    cn122520   5.927  -0.228   5.325  0.5558  0.0319  0.2820
 3698ntf    fn422521   6.132   0.189   5.084 -0.1675 -0.1686 -0.5753
 3698ntf    fn422522   6.340   0.177   5.093 -0.1450 -0.2547 -0.2334
 3698ntf    fn422523   6.228   0.049   4.959 -0.5194 -0.7534  0.1022
 3698ntf    on522524   6.341  -0.089   5.200  0.1924  0.1691  0.0815
 3698ntf    on522525   6.192   0.062   5.328  0.3750 -0.5748  0.1566
 3698ntf    on522526   6.164  -0.320   5.307 -0.4227  0.1474  0.6497
 3698ntf    on522527   6.019  -0.340   5.110  0.1242 -0.0267 -0.3323
 3698ntf    fn422528   5.818  -0.196   5.259  1.0173  0.0980 -0.4532
 3698ntf    fn422529   5.893  -0.320   5.414  0.3174 -0.0212  0.1347
 3698ntf    fn422530   5.963  -0.121   5.394  0.6268 -0.1499  0.5298
 3699ntf    cn122531   4.610   1.047   2.896 -0.2056 -0.0257  0.2197
 3699ntf    sn222532   4.583   1.222   2.935  0.2490  0.0326  0.2857
 3699ntf    nn322533   4.494   1.266   2.813  0.0634  0.0431  0.4254
 3699ntf    sn222534   4.537   1.328   2.676 -0.3389 -0.0546  0.2538
 3699ntf    cn122535   4.586   1.494   2.731 -0.0953 -0.0455  0.0109
 3699ntf    fn422536   4.498   0.977   2.892  0.0927 -0.4948 -0.1432
 3699ntf    fn422537   4.657   1.016   2.776 -0.0988 -0.0721  0.2730
 3699ntf    fn422538   4.697   0.989   2.978  0.2172  0.7065  0.2962
 3699ntf    on522539   4.510   1.229   3.059 -0.1547  0.0847  0.0463
 3699ntf    on522540   4.712   1.287   2.934  0.1018  0.3235 -0.0944
 3699ntf    on522541   4.420   1.355   2.596 -0.1608 -0.0186  0.0051
 3699ntf    on522542   4.660   1.283   2.617 -0.0591  0.1765  0.6594
 3699ntf    fn422543   4.519   1.586   2.664  0.0377  0.1899  0.1988
 3699ntf    fn422544   4.558   1.520   2.857 -0.9814 -0.2574 -0.1356
 3699ntf    fn422545   4.715   1.518   2.712 -0.0408 -0.1309  0.2727
 3700ntf    cn122546   7.084   5.017   6.340  0.0023  0.2096 -0.1907
 3700ntf    sn222547   7.072   5.194   6.381  0.3240  0.3126 -0.5294
 3700ntf    nn322548   7.159   5.195   6.512 -0.4666  0.8794  0.0013
 3700ntf    sn222549   7.280   5.288   6.549  0.0440  0.2266 -0.0061
 3700ntf    cn122550   7.199   5.392   6.674 -0.5443 -0.0498 -0.1528
 3700ntf    fn422551   7.087   4.945   6.451  0.2028  0.1989 -0.2025
 3700ntf    fn422552   6.989   4.970   6.261  0.0641 -0.5984  0.2083
 3700ntf    fn422553   7.198   4.990   6.277  0.2171 -0.0942  0.3195
 3700ntf    on522554   7.113   5.268   6.264  0.3780  0.5748 -0.3456
 3700ntf    on522555   6.934   5.207   6.420  0.3438  0.1232 -0.3911
 3700ntf    on522556   7.330   5.377   6.447 -0.1743 -0.1355 -0.4317
 3700ntf    on522557   7.377   5.214   6.625  0.2116  0.2880 -0.1573
 3700ntf    fn422558   7.080   5.439   6.641 -0.5501  0.4598  0.5593
 3700ntf    fn422559   7.188   5.326   6.789  0.8229 -0.4398 -0.2214
 3700ntf    fn422560   7.265   5.503   6.701 -0.2895 -0.3921  0.6761
 3701ntf    cn122561   4.763   1.078   0.343 -0.0410 -0.6154 -0.0762
 3701ntf    sn222562   4.783   1.047   0.165  0.0945  0.0327 -0.1769
 3701ntf    nn322563   4.637   1.065   0.111 -0.0409 -0.7114 -0.0638
 3701ntf    sn222564   4.574   1.175   0.017  0.3140 -0.1952  0.2996
 3701ntf    cn122565   4.612   1.106  -0.147  0.1348  0.1088  0.1307
 3701ntf    fn422566   4.686   0.993   0.408 -0.8136  0.2534  0.1622
 3701ntf    fn422567   4.886   1.084   0.394 -0.1592 -0.1426  0.1682
 3701ntf    fn422568   4.709   1.194   0.378 -0.0839 -0.4130 -0.7925
 3701ntf    on522569   4.867   1.161   0.137  0.0180  0.1194 -0.0551
 3701ntf    on522570   4.835   0.913   0.159 -0.0277 -0.1031  1.3804
 3701ntf    on522571   4.631   1.307   0.024 -0.9037  0.3600 -0.0638
 3701ntf    on522572   4.431   1.178   0.028  0.2883 -0.2434 -0.0196
 3701ntf    fn422573   4.598   1.199  -0.240 -0.4847 -0.1287 -0.0177
 3701ntf    fn422574   4.735   1.057  -0.145 -0.0731 -0.4478 -0.5371
 3701ntf    fn422575   4.531   1.005  -0.172  0.5496 -0.3615  0.6446
 3702ntf    cn122576   3.596   2.354   1.033  0.0953  0.2059  0.2251
 3702ntf    sn222577   3.557   2.429   0.873  0.0983 -0.0554  0.1004
 3702ntf    nn322578   3.526   2.303   0.785 -0.0494  0.1154 -0.0937
 3702ntf    sn222579   3.389   2.228   0.764  0.0036 -0.0446  0.1268
 3702ntf    cn122580   3.436   2.052   0.760 -0.0730 -0.0599 -0.1147
 3702ntf    fn422581   3.659   2.239   1.014 -0.1793  0.0420  0.2965
 3702ntf    fn422582   3.684   2.421   1.105  0.4001 -0.1535  0.1948
 3702ntf    fn422583   3.492   2.326   1.111  0.0031 -0.1121 -0.0087
 3702ntf    on522584   3.440   2.512   0.893  0.4913  0.4475  0.3461
 3702ntf    on522585   3.677   2.500   0.835 -0.6116  0.6473 -0.8899
 3702ntf    on522586   3.338   2.244   0.630  0.9157  0.6515 -0.1481
 3702ntf    on522587   3.296   2.250   0.872  0.2753  0.0153  0.3496
 3702ntf    fn422588   3.333   1.980   0.719  0.1912 -0.3376 -0.2885
 3702ntf    fn422589   3.524   2.024   0.666  0.3425  0.1304  0.2130
 3702ntf    fn422590   3.481   2.011   0.877 -0.5119 -0.6055 -0.1327
 3703ntf    cn122591   6.716   0.720   5.537 -0.5473  0.3904  0.0919
 3703ntf    sn222592   6.881   0.652   5.505 -0.6853  0.1215 -0.0561
 3703ntf    nn322593   6.883   0.669   5.349  0.3992 -0.4039 -0.1104
 3703ntf    sn222594   6.943   0.781   5.257  0.1450 -0.1236  0.0654
 3703ntf    cn122595   6.837   0.785   5.109  0.3277  0.3172 -0.0556
 3703ntf    fn422596   6.688   0.704   5.665  0.0044  0.2532  0.1983
 3703ntf    fn422597   6.703   0.851   5.519 -0.3019  0.3942 -0.0589
 3703ntf    fn422598   6.624   0.668   5.457 -0.4335 -0.3771  0.4526
 3703ntf    on522599   6.973   0.740   5.573 -0.6786 -0.0397  0.1446
 3703ntf    on522600   6.873   0.517   5.554  0.3578 -0.2442 -0.8567
 3703ntf    on522601   7.070   0.753   5.195  0.3603  0.3033  0.3056
 3703ntf    on522602   6.932   0.917   5.305 -0.1212 -0.1876  0.1878
 3703ntf    fn422603   6.708   0.779   5.135  0.3540  0.3510  0.0855
 3703ntf    fn422604   6.843   0.887   5.025 -0.1137  0.7192  0.3978
 3703ntf    fn422605   6.861   0.676   5.038  0.0523  0.4572 -0.3642
 3704ntf    cn122606   3.333   6.304   1.588 -0.1119 -0.3025 -0.3380
 3704ntf    sn222607   3.462   6.358   1.472  0.3807 -0.0050  0.3411
 3704ntf    nn322608   3.457   6.235   1.374  0.1384  0.5761 -0.3851
 3704ntf    sn222609   3.390   6.219   1.233 -0.2868 -0.1056 -0.1132
 3704ntf    cn122610   3.530   6.249   1.121 -0.2084  0.3465  0.1029
 3704ntf    fn422611   3.334   6.370   1.703  0.0910  0.3894 -0.7320
 3704ntf    fn422612   3.215   6.318   1.529 -0.0967  0.2085 -0.2516
 3704ntf    fn422613   3.351   6.177   1.621  0.3108 -0.3205 -0.6312
 3704ntf    on522614   3.413   6.483   1.419  0.5970 -0.0484  0.0332
 3704ntf    on522615   3.584   6.372   1.547  0.6273 -0.4928  0.0340
 3704ntf    on522616   3.302   6.329   1.201 -0.6423 -0.5060 -0.5139
 3704ntf    on522617   3.350   6.084   1.202 -0.5058 -0.0031 -0.2799
 3704ntf    fn422618   3.575   6.373   1.134  0.8498 -0.0296  0.1759
 3704ntf    fn422619   3.632   6.171   1.152 -0.2069  0.3250  0.0452
 3704ntf    fn422620   3.504   6.230   0.992  0.1302  0.2844  0.0411
 3705ntf    cn122621   1.733   3.681   4.780  0.1275 -0.0112 -0.2336
 3705ntf    sn222622   1.555   3.692   4.815  0.0913 -0.0281 -0.4105
 3705ntf    nn322623   1.537   3.541   4.854  0.2021 -0.0431 -0.4172
 3705ntf    sn222624   1.471   3.421   4.776 -0.4488  0.1596 -0.1817
 3705ntf    cn122625   1.295   3.422   4.823 -0.4372 -0.1178 -0.1280
 3705ntf    fn422626   1.769   3.591   4.690 -0.3052 -0.8238  0.3930
 3705ntf    fn422627   1.784   3.792   4.729 -0.5936 -0.2017 -1.4151
 3705ntf    fn422628   1.807   3.655   4.887  0.3346  0.1283 -0.3417
 3705ntf    on522629   1.559   3.782   4.927  0.1431  0.2056 -0.6010
 3705ntf    on522630   1.506   3.734   4.686 -0.8231  0.0756 -0.0353
 3705ntf    on522631   1.511   3.293   4.829 -0.0855 -0.0552 -0.9590
 3705ntf    on522632   1.476   3.435   4.633  0.6307  0.7240 -0.1013
 3705ntf    fn422633   1.237   3.539   4.802  0.0420  0.0910 -0.3210
 3705ntf    fn422634   1.226   3.334   4.753 -0.5535 -0.0882 -0.0513
 3705ntf    fn422635   1.266   3.390   4.948 -0.5981  0.0003 -0.1344
 3706ntf    cn122636   3.987   4.811   6.430  0.3103 -0.1738 -0.1065
 3706ntf    sn222637   3.806   4.792   6.429  0.2312  0.5155  0.4079
 3706ntf    nn322638   3.764   4.895   6.319 -0.1365 -0.3715 -0.2924
 3706ntf    sn222639   3.764   4.858   6.166  0.0325 -0.1914 -0.3376
 3706ntf    cn122640   3.811   5.023   6.108 -0.3569  0.0586  0.0544
 3706ntf    fn422641   4.044   4.714   6.500  0.2600  0.2082  0.4728
 3706ntf    fn422642   4.034   4.799   6.307 -0.3471  0.0317 -0.3794
 3706ntf    fn422643   4.022   4.930   6.476  0.0006 -0.2948  0.4604
 3706ntf    on522644   3.792   4.652   6.398 -0.1359  0.8066 -0.7915
 3706ntf    on522645   3.768   4.837   6.561 -0.3331 -0.0657  0.4499
 3706ntf    on522646   3.628   4.852   6.118 -0.0267  0.1889 -0.2192
 3706ntf    on522647   3.867   4.774   6.110 -0.0727 -0.5686  0.0241
 3706ntf    fn422648   3.785   5.038   5.980 -0.3477 -0.9231 -0.0703
 3706ntf    fn422649   3.744   5.118   6.171  0.1237  0.3434  0.1408
 3706ntf    fn422650   3.939   5.055   6.116 -0.3337 -0.1965  0.8871
 3707ntf    cn122651   1.035   1.959   3.110 -0.1994 -0.0614  0.1135
 3707ntf    sn222652   0.932   2.102   3.154  0.1526  0.2179  0.0337
 3707ntf    nn322653   1.048   2.207   3.154  0.0792  0.2992  0.0803
 3707ntf    sn222654   1.042   2.363   3.136  0.0823  0.2545 -0.3274
 3707ntf    cn122655   1.045   2.386   2.956 -0.2521 -0.1365 -0.3831
 3707ntf    fn422656   1.118   1.982   3.010 -0.0488 -0.0991  0.2288
 3707ntf    fn422657   1.110   1.920   3.211  0.5085  0.1634 -0.3217
 3707ntf    fn422658   0.960   1.854   3.082  0.3967 -0.5951  0.4890
 3707ntf    on522659   0.847   2.103   3.037 -0.1690 -0.4779  0.2601
 3707ntf    on522660   0.886   2.060   3.284 -0.0543 -0.2441 -0.1850
 3707ntf    on522661   1.164   2.421   3.190  0.1669 -0.5790  0.3951
 3707ntf    on522662   0.917   2.424   3.175 -0.1180 -0.0790 -0.4520
 3707ntf    fn422663   0.962   2.315   2.882 -0.4318 -0.5057  0.1623
 3707ntf    fn422664   1.016   2.512   2.931  0.1375 -0.0726 -0.5218
 3707ntf    fn422665   1.168   2.365   2.912 -0.3690 -0.1956 -0.6844
 3708ntf    cn122666   2.157   5.554   4.408  0.0611  0.1356 -0.1888
 3708ntf    sn222667   2.325   5.542   4.476 -0.1179  0.3208  0.2918
 3708ntf    nn322668   2.397   5.651   4.388 -0.3314 -0.1793 -0.5170
 3708ntf    sn222669   2.419   5.799   4.435  0.2147 -0.4197  0.0084
 3708ntf    cn122670   2.585   5.779   4.507  0.2850 -0.2359 -0.1011
 3708ntf    fn422671   2.102   5.674   4.415  0.0360  0.1120  0.0040
 3708ntf    fn422672   2.162   5.519   4.280  0.1022  0.6834 -0.3408
 3708ntf    fn422673   2.078   5.470   4.472  0.0213 -0.1774 -0.6428
 3708ntf    on522674   2.302   5.567   4.616 -0.1827  0.1581  0.3108
 3708ntf    on522675   2.356   5.403   4.449 -0.3975  0.2617  0.2800
 3708ntf    on522676   2.343   5.853   4.545  0.4439 -0.5293  0.2203
 3708ntf    on522677   2.443   5.887   4.323  0.0565  0.0764  0.3646
 3708ntf    fn422678   2.583   5.676   4.590 -0.3569  0.2369  0.4929
 3708ntf    fn422679   2.686   5.780   4.422  0.0321 -0.0811 -0.4013
 3708ntf    fn422680   2.598   5.886   4.584  0.5848 -0.3014 -0.0594
 3709ntf    cn122681   3.564   4.625   4.407 -0.0246 -0.1271  0.2660
 3709ntf    sn222682   3.736   4.603   4.353  0.0123  0.3587  0.1841
 3709ntf    nn322683   3.790   4.484   4.440 -0.5455 -0.2197 -0.2545
 3709ntf    sn222684   3.831   4.337   4.404 -0.1052 -0.1753  0.0583
 3709ntf    cn122685   3.993   4.390   4.338 -0.1201  0.0155  0.1754
 3709ntf    fn422686   3.560   4.659   4.534 -0.3057 -0.2533  0.2923
 3709ntf    fn422687   3.508   4.727   4.343  0.0259  0.1212  0.6165
 3709ntf    fn422688   3.482   4.521   4.395 -0.2672  0.0173  0.6606
 3709ntf    on522689   3.724   4.563   4.215  0.8075  0.2730  0.1314
 3709ntf    on522690   3.790   4.733   4.384  0.5459  0.2245 -0.1755
 3709ntf    on522691   3.760   4.276   4.294  0.4508  0.1619 -0.4952
 3709ntf    on522692   3.863   4.266   4.525  0.4281 -0.3256 -0.1655
 3709ntf    fn422693   4.045   4.289   4.271  0.4010  0.5575 -0.2395
 3709ntf    fn422694   3.997   4.496   4.260 -0.2322  0.0726  0.2474
 3709ntf    fn422695   4.074   4.424   4.437  0.3116 -0.0546 -0.1509
 3710ntf    cn122696   2.941   6.873   0.315  0.3489 -0.2386  0.3416
 3710ntf    sn222697   2.838   6.935   0.451 -0.1398  0.2834 -0.2588
 3710ntf    nn322698   2.833   6.803   0.536 -0.4791  0.3989 -0.0966
 3710ntf    sn222699   2.781   6.775   0.682 -0.0257  0.4431  0.0763
 3710ntf    cn122700   2.602   6.777   0.652 -0.0370  0.3661  0.1386
 3710ntf    fn422701   3.044   6.799   0.351  0.7297  0.1228  0.0167
 3710ntf    fn422702   2.870   6.812   0.222  0.0621  0.3682  0.1552
 3710ntf    fn422703   2.992   6.981   0.257  0.3993 -0.2108  0.4379
 3710ntf    on522704   2.922   7.035   0.513  0.4069 -0.3313  0.0052
 3710ntf    on522705   2.711   6.981   0.400 -0.5864 -0.5424  0.0944
 3710ntf    on522706   2.788   6.880   0.780  0.3590  0.5036 -0.0122
 3710ntf    on522707   2.799   6.638   0.722 -0.3322  0.2991 -0.2720
 3710ntf    fn422708   2.529   6.758   0.761 -0.6715  0.2198 -0.3057
 3710ntf    fn422709   2.559   6.890   0.598 -0.4547  0.2687  0.2630
 3710ntf    fn422710   2.569   6.684   0.564 -0.6451 -0.1412  0.8879
 3711ntf    cn122711   3.371   5.518   1.119  0.1516  0.6174  0.1919
 3711ntf    sn222712   3.416   5.386   1.003 -0.1695  0.4294  0.2811
 3711ntf    nn322713   3.554   5.345   1.064 -0.2231 -0.2439 -0.0286
 3711ntf    sn222714   3.695   5.322   0.999 -0.0057 -0.0218  0.3620
 3711ntf    cn122715   3.769   5.209   1.121 -0.2040 -0.1502  0.3638
 3711ntf    fn422716   3.248   5.565   1.130 -0.1489 -0.0888 -0.0871
 3711ntf    fn422717   3.409   5.480   1.240 -0.2535 -0.1694  0.0826
 3711ntf    fn422718   3.449   5.624   1.108  0.7497  0.2589  0.8630
 3711ntf    on522719   3.312   5.290   1.033  0.1777 -0.0868 -0.1561
 3711ntf    on522720   3.408   5.456   0.877 -0.1133 -0.6837 -0.3663
 3711ntf    on522721   3.780   5.439   1.005  0.4274 -0.2906 -0.4274
 3711ntf    on522722   3.696   5.242   0.880  0.8298 -0.2702  0.5278
 3711ntf    fn422723   3.763   5.273   1.237 -0.5466  0.3213  0.0875
 3711ntf    fn422724   3.713   5.090   1.131 -0.3160 -0.1717 -0.4552
 3711ntf    fn422725   3.897   5.199   1.089 -0.3628  0.3738 -0.4625
 3712ntf    cn122726   0.565   6.072   3.830  0.6893  0.4615 -0.3300
 3712ntf    sn222727   0.405   6.057   3.744  0.3360  0.4122  0.3285
 3712ntf    nn322728   0.361   6.207   3.757 -0.5334  0.2226 -0.3625
 3712ntf    sn222729   0.258   6.268   3.859 -0.3077 -0.1650  0.1021
 3712ntf    cn122730   0.097   6.254   3.775 -0.3207  0.0832  0.0845
 3712ntf    fn422731   0.620   5.953   3.811 -0.5466 -0.1063 -0.4506
 3712ntf    fn422732   0.639   6.163   3.769  0.4048  0.6491 -0.3963
 3712ntf    fn422733   0.564   6.104   3.958 -0.0176 -0.6609 -0.0400
 3712ntf    on522734   0.443   6.024   3.609 -0.5756  0.1090  0.1426
 3712ntf    on522735   0.328   5.959   3.817  0.0323  0.3344 -0.0946
 3712ntf    on522736   0.267   6.411   3.875 -0.7371 -0.1989  0.6617
 3712ntf    on522737   0.237   6.200   3.984 -0.1266 -0.2696  0.0766
 3712ntf    fn422738   0.097   6.292   3.649 -0.2028  0.2417  0.1309
 3712ntf    fn422739   0.047   6.132   3.769 -0.0898  0.0324 -1.0234
 3712ntf    fn422740   0.012   6.332   3.839  0.2633  0.4420  0.4425
 3713ntf    cn122741   1.095   6.368   3.880  0.2313  0.1164  0.6664
 3713ntf    sn222742   1.261   6.406   3.816  0.0039  0.1909  0.1129
 3713ntf    nn322743   1.341   6.462   3.939  0.8156  0.1935 -0.4089
 3713ntf    sn222744   1.457   6.400   4.024  0.2905  0.1245  0.2669
 3713ntf    cn122745   1.598   6.473   3.936  0.1657  0.0528  0.0055
 3713ntf    fn422746   1.038   6.474   3.936  0.1870  0.5971 -0.2579
 3713ntf    fn422747   1.011   6.317   3.792  0.2682  0.5827  0.3584
 3713ntf    fn422748   1.103   6.278   3.976  0.2250 -0.2211  0.3509
 3713ntf    on522749   1.310   6.277   3.775 -0.0610 -0.1096  0.9521
 3713ntf    on522750   1.245   6.499   3.708 -0.9385 -0.2298 -0.1199
 3713ntf    on522751   1.483   6.258   4.015 -0.3565  0.0180  0.0565
 3713ntf    on522752   1.477   6.450   4.158  0.1476  0.6792  0.0818
 3713ntf    fn422753   1.718   6.436   3.980  0.1782  0.3254  0.2022
 3713ntf    fn422754   1.600   6.434   3.810 -0.2852  0.3160 -0.0816
 3713ntf    fn422755   1.593   6.605   3.940 -0.0189  0.0328  0.6463
 3714ntf    cn122756   6.987   5.596   3.131 -0.0345  0.1320  0.4593
 3714ntf    sn222757   7.083   5.700   3.244  0.1065  0.4349  0.0654
 3714ntf    nn322758   7.003   5.834   3.235 -0.1060  0.2908 -0.1587
 3714ntf    sn222759   7.022   5.976   3.299  0.2642  0.1130  0.1261
 3714ntf    cn122760   6.877   5.981   3.409 -0.2291 -0.0309 -0.5087
 3714ntf    fn422761   6.994   5.647   3.009 -0.1664  0.0030  0.3967
 3714ntf    fn422762   7.043   5.478   3.111 -0.4157 -0.0343  0.3613
 3714ntf    fn422763   6.861   5.568   3.160 -0.2593  0.2518 -0.3658
 3714ntf    on522764   7.075   5.623   3.366  1.0413  0.2426  0.0194
 3714ntf    on522765   7.215   5.715   3.187  0.0359 -0.0474 -0.2295
 3714ntf    on522766   6.990   6.069   3.194 -0.1365  0.1057  0.2402
 3714ntf    on522767   7.143   6.001   3.373  0.0446  0.4270  0.3812
 3714ntf    fn422768   6.848   6.102   3.455 -0.1911 -0.1078 -0.2779
 3714ntf    fn422769   6.762   5.952   3.351 -0.4467  0.2834 -0.2403
 3714ntf    fn422770   6.894   5.895   3.508  0.4457  0.5224 -0.1363
 3715ntf    cn122771   3.037   1.650   0.411 -0.4501  0.1114  0.4576
 3715ntf    sn222772   3.145   1.787   0.462 -0.1051  0.0185 -0.0120
 3715ntf    nn322773   3.242   1.807   0.341  0.3158 -0.4837  0.2375
 3715ntf    sn222774   3.344   1.702   0.285  0.2973 -0.4382  0.1178
 3715ntf    cn122775   3.485   1.808   0.239  0.0146  0.1628  0.6147
 3715ntf    fn422776   2.929   1.650   0.488 -0.5205  0.0755  0.3594
 3715ntf    fn422777   2.988   1.669   0.290  0.6194  0.4097  0.0640
 3715ntf    fn422778   3.086   1.527   0.418  0.2229  0.3430 -0.0557
 3715ntf    on522779   3.048   1.892   0.483 -0.0411  0.1309 -0.2827
 3715ntf    on522780   3.206   1.735   0.582  0.0193  0.5433  0.1555
 3715ntf    on522781   3.300   1.647   0.160 -0.2543 -0.5301  0.3498
 3715ntf    on522782   3.399   1.612   0.384 -0.0058 -0.5895  0.1466
 3715ntf    fn422783   3.591   1.738   0.201  0.1172  0.4914  0.2964
 3715ntf    fn422784   3.461   1.897   0.144 -0.6528 -0.4981  0.1499
 3715ntf    fn422785   3.520   1.879   0.345  0.3446  0.0689  0.5696
 3716ntf    cn122786   3.745   4.000   5.475 -0.0917  0.0469 -0.3694
 3716ntf    sn222787   3.849   4.143   5.434 -0.1504  0.1381 -0.2031
 3716ntf    nn322788   3.745   4.250   5.386 -0.7376 -0.2855  0.1184
 3716ntf    sn222789   3.725   4.322   5.248 -0.1604  0.1066  0.2336
 3716ntf    cn122790   3.795   4.482   5.297  0.1742  0.0079  0.0819
 3716ntf    fn422791   3.817   3.892   5.498  0.3144  0.2409 -0.7287
 3716ntf    fn422792   3.670   4.023   5.582  0.1833 -0.2559 -0.1086
 3716ntf    fn422793   3.666   3.974   5.372 -0.3660  0.0160 -0.1544
 3716ntf    on522794   3.906   4.170   5.564  0.7832 -0.1903 -0.5291
 3716ntf    on522795   3.933   4.088   5.331 -0.5367 -0.3863 -0.2390
 3716ntf    on522796   3.589   4.366   5.230  0.1039  0.6693 -0.4309
 3716ntf    on522797   3.800   4.282   5.132 -0.3844  0.0036  0.1237
 3716ntf    fn422798   3.918   4.466   5.344  0.2256 -0.0692 -0.0803
 3716ntf    fn422799   3.807   4.562   5.192  0.0320 -0.2031 -0.0934
 3716ntf    fn422800   3.730   4.550   5.391 -0.3885 -0.2009 -0.1508
 3717ntf    cn122801   2.606   2.875   4.847  0.0660 -0.1888 -0.2542
 3717ntf    sn222802   2.729   2.899   4.979 -0.0655  0.4407 -0.2391
 3717ntf    nn322803   2.770   3.047   4.948 -0.3144  0.6613  0.4744
 3717ntf    sn222804   2.891   3.089   4.857 -0.4329 -0.5047 -0.2463
 3717ntf    cn122805   2.841   3.254   4.801  0.1776 -0.1983  0.0951
 3717ntf    fn422806   2.662   2.893   4.729  0.2272 -0.4490 -0.2155
 3717ntf    fn422807   2.556   2.753   4.850 -0.2352 -0.0623  0.0158
 3717ntf    fn422808   2.509   2.964   4.862  0.0517 -0.3030  0.3625
 3717ntf    on522809   2.656   2.889   5.103 -0.0779  0.2175 -0.2626
 3717ntf    on522810   2.825   2.797   4.944 -0.1972  0.3491 -0.3357
 3717ntf    on522811   2.918   3.022   4.732  0.6634  0.2902 -0.4552
 3717ntf    on522812   3.013   3.111   4.932 -0.4666  0.6184 -0.5114
 3717ntf    fn422813   2.805   3.331   4.903  0.4158  0.5117 -0.3537
 3717ntf    fn422814   2.939   3.319   4.741 -0.0484  0.0357 -0.0271
 3717ntf    fn422815   2.741   3.262   4.714  0.6270  0.4021 -0.3781
 3718ntf    cn122816   4.374   5.142   2.626  0.0140  0.2811  0.2619
 3718ntf    sn222817   4.201   5.166   2.574  0.1323 -0.2558 -0.3978
 3718ntf    nn322818   4.234   5.267   2.459  0.0382  0.0310 -0.1751
 3718ntf    sn222819   4.149   5.385   2.400 -0.1585  0.1042  0.2525
 3718ntf    cn122820   4.221   5.523   2.493 -0.1177  0.3899 -0.2000
 3718ntf    fn422821   4.390   5.042   2.710 -0.2941  0.2299  0.2610
 3718ntf    fn422822   4.451   5.114   2.522  0.0121  0.4740  0.2091
 3718ntf    fn422823   4.427   5.253   2.675  0.4471 -0.1143  0.6972
 3718ntf    on522824   4.156   5.033   2.539 -0.2788 -0.0997 -0.4605
 3718ntf    on522825   4.148   5.226   2.694  0.1257 -0.0936 -0.4821
 3718ntf    on522826   4.008   5.391   2.430 -0.2567 -0.5087 -0.0732
 3718ntf    on522827   4.178   5.431   2.267 -0.1949 -0.3691  0.0779
 3718ntf    fn422828   4.174   5.523   2.617  0.2334  0.6431 -0.0671
 3718ntf    fn422829   4.350   5.499   2.511 -0.2160  0.1790  0.2457
 3718ntf    fn422830   4.203   5.644   2.444  0.4761  0.5000 -0.1487
 3719ntf    cn122831   0.431   1.701   1.470  0.6460  0.0789 -0.0813
 3719ntf    sn222832   0.517   1.693   1.311  0.3223 -0.1612 -0.2442
 3719ntf    nn322833   0.470   1.549   1.267  1.1045 -0.3927 -0.3474
 3719ntf    sn222834   0.453   1.493   1.121 -0.1190  0.1741 -0.4380
 3719ntf    cn122835   0.318   1.374   1.145  0.1201 -0.0043  0.0331
 3719ntf    fn422836   0.300   1.687   1.463  0.6031  0.1625  0.4623
 3719ntf    fn422837   0.477   1.618   1.563  0.3491 -0.2455 -0.2203
 3719ntf    fn422838   0.436   1.821   1.526  0.0731 -0.1853  0.5570
 3719ntf    on522839   0.473   1.808   1.235  0.0143  0.3267  0.6675
 3719ntf    on522840   0.653   1.700   1.360  0.0470  0.9308  0.3905
 3719ntf    on522841   0.565   1.418   1.069  0.2325  0.7473 -0.5172
 3719ntf    on522842   0.391   1.595   1.040 -0.1945  0.1617 -0.3957
 3719ntf    fn422843   0.204   1.432   1.176 -0.0360 -0.3632  0.1400
 3719ntf    fn422844   0.308   1.312   1.029 -0.2267  0.2332 -0.0635
 3719ntf    fn422845   0.344   1.275   1.230 -0.4719  0.2180  0.4844
 3720ntf    cn122846   2.666   5.878   0.652 -0.5609  0.4800 -0.3861
 3720ntf    sn222847   2.547   5.994   0.577 -0.2044  0.7023 -0.6087
 3720ntf    nn322848   2.456   6.022   0.701  0.2854  0.4218 -0.1842
 3720ntf    sn222849   2.375   6.153   0.731 -0.1375  0.1695 -0.2129
 3720ntf    cn122850   2.469   6.223   0.870 -0.5170 -0.1725  0.2136
 3720ntf    fn422851   2.605   5.782   0.720  0.4445  0.4869  0.5513
 3720ntf    fn422852   2.744   5.836   0.554  0.1097 -0.3106  0.4697
 3720ntf    fn422853   2.741   5.942   0.740 -0.2246 -0.3916 -0.0255
 3720ntf    on522854   2.640   6.096   0.537 -0.0244  0.7082 -0.1749
 3720ntf    on522855   2.494   5.908   0.473  0.4251  0.6564 -0.9010
 3720ntf    on522856   2.248   6.117   0.786  0.1241  0.2226  0.4298
 3720ntf    on522857   2.374   6.259   0.633 -0.5142  0.5149  0.1642
 3720ntf    fn422858   2.596   6.251   0.846 -0.5302  0.0416  0.3915
 3720ntf    fn422859   2.409   6.334   0.910  0.6180  0.3714  0.4303
 3720ntf    fn422860   2.473   6.144   0.977  0.0236 -0.1840  0.1839
 3721ntf    cn122861   4.461   2.178   5.454  0.2365 -0.1569  0.4722
 3721ntf    sn222862   4.571   2.286   5.550  0.1372  0.1977  0.1905
 3721ntf    nn322863   4.702   2.262   5.468 -0.1027  0.2705 -0.2186
 3721ntf    sn222864   4.849   2.258   5.522 -0.1018  0.0048 -0.2388
 3721ntf    cn122865   4.917   2.414   5.460 -0.3541  0.1839 -0.0647
 3721ntf    fn422866   4.504   2.054   5.465  0.4514 -0.1043  0.2297
 3721ntf    fn422867   4.337   2.176   5.501 -0.0484 -0.4855 -0.2739
 3721ntf    fn422868   4.462   2.204   5.324  0.5159 -0.3876  0.4280
 3721ntf    on522869   4.520   2.418   5.523 -0.6343 -0.1242  0.0487
 3721ntf    on522870   4.555   2.233   5.683  0.0837  0.0358  0.1196
 3721ntf    on522871   4.923   2.164   5.441 -0.0067 -0.1034 -0.0304
 3721ntf    on522872   4.873   2.263   5.665 -0.3086 -0.4908 -0.1859
 3721ntf    fn422873   4.965   2.406   5.337 -0.1760  1.2754 -0.0836
 3721ntf    fn422874   4.829   2.513   5.460 -0.0165  0.4918 -0.3887
 3721ntf    fn422875   5.014   2.456   5.540 -0.2291  0.3707 -0.3091
 3722ntf    cn122876   1.670   0.207   0.509 -0.4668  0.0743  0.4167
 3722ntf    sn222877   1.591   0.228   0.347  0.1790  0.0120  0.0914
 3722ntf    nn322878   1.670   0.116   0.271 -0.0572 -0.0246 -0.1014
 3722ntf    sn222879   1.747   0.120   0.134 -0.0912 -0.2486 -0.1278
 3722ntf    cn122880   1.757  -0.057   0.093  0.0987 -0.2430 -0.1050
 3722ntf    fn422881   1.661   0.314   0.587 -0.1483 -0.0971  0.6881
 3722ntf    fn422882   1.632   0.106   0.585 -0.4029  0.0734  0.4476
 3722ntf    fn422883   1.798   0.178   0.497 -0.4611  0.0971  0.4221
 3722ntf    on522884   1.459   0.177   0.377 -0.0240  0.2544 -0.3792
 3722ntf    on522885   1.621   0.366   0.319  0.7209  0.0512  0.8562
 3722ntf    on522886   1.884   0.164   0.146 -0.1393 -0.2541  0.4853
 3722ntf    on522887   1.672   0.179   0.025 -0.2128 -1.1200 -0.5243
 3722ntf    fn422888   1.868  -0.081   0.026  0.1737 -0.0364 -0.0563
 3722ntf    fn422889   1.755  -0.134   0.200  0.4009  0.2755  0.2764
 3722ntf    fn422890   1.651  -0.104   0.028  0.3158 -0.1409 -0.5375
 3723ntf    cn122891   3.967   2.787   3.799  0.1077 -0.0473  0.3512
 3723ntf    sn222892   4.112   2.692   3.742  0.0737 -0.0067  0.1954
 3723ntf    nn322893   4.050   2.620   3.618  0.3271  0.2186 -0.0636
 3723ntf    sn222894   4.085   2.490   3.537 -0.2526  0.0145  0.0073
 3723ntf    cn122895   4.058   2.538   3.364  0.0096 -0.1230 -0.0732
 3723ntf    fn422896   3.857   2.715   3.783 -0.3106  0.6770 -0.0891
 3723ntf    fn422897   3.986   2.810   3.927  0.5938  0.1065  0.2559
 3723ntf    fn422898   3.946   2.902   3.737  0.3430 -0.1666  0.0441
 3723ntf    on522899   4.219   2.784   3.712 -0.0033  0.0710  0.1579
 3723ntf    on522900   4.145   2.598   3.846  0.4663 -0.1944 -0.0948
 3723ntf    on522901   3.981   2.391   3.545  0.0441 -0.3276 -0.2950
 3723ntf    on522902   4.224   2.450   3.539 -0.3947 -0.4976 -0.1274
 3723ntf    fn422903   4.075   2.447   3.269 -0.0987 -0.3930  0.1639
 3723ntf    fn422904   3.931   2.570   3.340 -0.0981 -0.2420  0.3381
 3723ntf    fn422905   4.115   2.646   3.313 -0.0255 -0.2351 -0.3551
 3724ntf    cn122906   4.591   4.134   7.190  0.3595  0.1996  0.3185
 3724ntf    sn222907   4.517   4.152   7.026  0.4356 -0.3699  0.2195
 3724ntf    nn322908   4.629   4.075   6.947  0.4346 -0.2589  0.1093
 3724ntf    sn222909   4.691   4.102   6.806  0.2334  0.0621  0.0829
 3724ntf    cn122910   4.829   4.206   6.860  0.4556 -0.0825 -0.2004
 3724ntf    fn422911   4.720   4.163   7.192  0.4659 -0.2493 -0.0240
 3724ntf    fn422912   4.525   4.205   7.279 -0.2294  0.0019  0.0448
 3724ntf    fn422913   4.589   4.009   7.235  0.2864  0.1105  0.0651
 3724ntf    on522914   4.390   4.082   7.031  0.4049 -0.3568 -0.3025
 3724ntf    on522915   4.519   4.295   7.014  0.0999 -0.4542 -1.0455
 3724ntf    on522916   4.615   4.183   6.713  0.2703 -0.3222 -0.2843
 3724ntf    on522917   4.763   3.986   6.758 -0.3885 -0.3477  0.1236
 3724ntf    fn422918   4.805   4.283   6.965 -0.1837 -0.2594 -0.2114
 3724ntf    fn422919   4.941   4.138   6.879  0.0610 -0.7097 -0.1019
 3724ntf    fn422920   4.857   4.297   6.768  0.0681  0.6199  0.3571
 3725ntf    cn122921   2.265   1.299   0.030  0.1734 -0.0412  0.2823
 3725ntf    sn222922   2.110   1.342   0.115  0.1289  0.0297  0.1645
 3725ntf    nn322923   2.064   1.485   0.070 -0.3909 -0.3537 -0.5389
 3725ntf    sn222924   2.149   1.605   0.014 -0.0384 -0.2027  0.3067
 3725ntf    cn122925   2.057   1.754   0.063  0.2046  0.0614 -0.0318
 3725ntf    fn422926   2.363   1.379   0.068  0.1126  0.3578 -0.3844
 3725ntf    fn422927   2.303   1.177   0.064 -0.0239 -0.0393  0.5115
 3725ntf    fn422928   2.260   1.307  -0.102  0.2611 -0.8099  0.2250
 3725ntf    on522929   2.009   1.256   0.060 -0.1307  0.6127 -0.2909
 3725ntf    on522930   2.143   1.328   0.255 -1.1021  0.0385  0.4644
 3725ntf    on522931   2.157   1.617  -0.130  0.4987  0.1495  0.3605
 3725ntf    on522932   2.273   1.634   0.082  0.1145 -0.0087 -0.0528
 3725ntf    fn422933   1.944   1.777  -0.002  0.4852  0.2493 -0.4564
 3725ntf    fn422934   2.025   1.752   0.192  0.0914  0.1923 -0.0580
 3725ntf    fn422935   2.127   1.866   0.058 -0.5979  0.5747  0.0802
 3726ntf    cn122936   1.548   3.184   6.495 -0.0050 -0.1821  0.1241
 3726ntf    sn222937   1.585   3.184   6.673  0.1351 -0.2644  0.0954
 3726ntf    nn322938   1.712   3.276   6.674  0.1522 -0.2892  0.2858
 3726ntf    sn222939   1.859   3.242   6.630  0.0600  0.1080 -0.3501
 3726ntf    cn122940   1.888   3.363   6.498 -0.2094  0.1785 -0.3436
 3726ntf    fn422941   1.531   3.304   6.441 -0.1698 -0.1899  0.1584
 3726ntf    fn422942   1.650   3.142   6.422  0.2890  0.2862  0.2579
 3726ntf    fn422943   1.442   3.112   6.466  0.0901 -0.2934  0.0529
 3726ntf    on522944   1.470   3.242   6.738  0.0640 -0.3220  0.0195
 3726ntf    on522945   1.619   3.046   6.697  0.1958 -0.2308  0.2066
 3726ntf    on522946   1.877   3.113   6.568 -0.2349 -0.0286 -0.1524
 3726ntf    on522947   1.947   3.286   6.736 -0.7332 -0.4483  0.5541
 3726ntf    fn422948   2.012   3.351   6.455 -0.0832 -0.0157  0.0698
 3726ntf    fn422949   1.808   3.347   6.393 -0.1121  0.0946 -0.4042
 3726ntf    fn422950   1.861   3.489   6.529 -0.2748  0.2202 -0.5662
 3727ntf    cn122951   5.039   4.100   0.874  0.0484 -0.0075 -0.1439
 3727ntf    sn222952   5.136   4.232   0.954 -0.1657  0.1139 -0.0833
 3727ntf    nn322953   5.038   4.236   1.077 -0.1356  0.6798 -0.0764
 3727ntf    sn222954   5.059   4.295   1.221  0.2243 -0.0917  0.1913
 3727ntf    cn122955   4.916   4.408   1.220  0.3355  0.0489 -0.0886
 3727ntf    fn422956   5.056   3.986   0.939 -0.0599  0.0705  0.0220
 3727ntf    fn422957   4.911   4.135   0.872  0.2369  0.6968 -0.3678
 3727ntf    fn422958   5.077   4.086   0.748  0.6923  0.1798  0.0274
 3727ntf    on522959   5.261   4.166   0.984 -0.4619 -0.7514 -0.7057
 3727ntf    on522960   5.131   4.345   0.865  0.4751  0.0233 -0.2377
 3727ntf    on522961   5.172   4.383   1.237 -0.4316  0.8489 -0.2201
 3727ntf    on522962   5.026   4.207   1.330 -0.3364 -0.0083  0.0904
 3727ntf    fn422963   4.900   4.476   1.332  0.6770  0.1233 -0.0817
 3727ntf    fn422964   4.926   4.494   1.121 -0.2546  0.3523  0.1136
 3727ntf    fn422965   4.801   4.345   1.205  0.3804  0.0055 -0.2463
 3728ntf    cn122966   5.064   6.189   1.721  0.1998 -0.3751  0.0824
 3728ntf    sn222967   4.886   6.221   1.743  0.2615  0.2361 -0.2837
 3728ntf    nn322968   4.847   6.181   1.889 -0.2298  0.5171 -0.3357
 3728ntf    sn222969   4.788   6.039   1.923  0.4679  0.1986 -0.4388
 3728ntf    cn122970   4.809   6.056   2.103 -0.1623 -0.1584 -0.3300
 3728ntf    fn422971   5.141   6.238   1.817 -0.3953  0.8084 -0.0270
 3728ntf    fn422972   5.080   6.058   1.721 -0.6468 -0.4869  0.3090
 3728ntf    fn422973   5.102   6.241   1.605  0.4202 -0.1609  0.2485
 3728ntf    on522974   4.864   6.363   1.731 -0.5966  0.1075 -0.2814
 3728ntf    on522975   4.820   6.151   1.636 -0.2621 -0.1846  0.3059
 3728ntf    on522976   4.867   5.926   1.879 -0.1741 -0.2551 -0.4350
 3728ntf    on522977   4.644   6.030   1.915  0.3805  0.7431  0.3617
 3728ntf    fn422978   4.934   6.049   2.145 -0.4210 -0.0187  0.4860
 3728ntf    fn422979   4.758   6.166   2.156  0.2878 -0.0135 -0.1964
 3728ntf    fn422980   4.751   5.953   2.163  0.4303 -0.0152  0.5037
 3729ntf    cn122981   0.286   6.119   5.537 -0.3616 -0.2623  0.0159
 3729ntf    sn222982   0.343   6.054   5.697 -0.1041  0.2280  0.1249
 3729ntf    nn322983   0.298   5.904   5.701  0.6839 -0.0166  0.0711
 3729ntf    sn222984   0.356   5.782   5.623  0.0552 -0.3328  0.0871
 3729ntf    cn122985   0.338   5.634   5.727  0.2488 -0.2238  0.2762
 3729ntf    fn422986   0.366   6.090   5.435  0.0511 -0.1859  0.3152
 3729ntf    fn422987   0.163   6.081   5.507 -0.5906  0.1520  0.4158
 3729ntf    fn422988   0.282   6.251   5.535 -0.2278 -0.2525  0.3036
 3729ntf    on522989   0.485   6.082   5.693  0.0197 -0.3327  0.5368
 3729ntf    on522990   0.269   6.137   5.789 -0.7305  0.0287 -0.1945
 3729ntf    on522991   0.497   5.791   5.591  0.1854 -0.2217  0.6774
 3729ntf    on522992   0.280   5.746   5.506  0.0153 -0.2178  0.0783
 3729ntf    fn422993   0.338   5.659   5.857 -0.6747  0.0565  0.2287
 3729ntf    fn422994   0.225   5.570   5.700  0.2466 -0.2094  0.2511
 3729ntf    fn422995   0.436   5.549   5.703  0.3185 -0.2530  0.6526
 3730ntf    cn122996   5.387   7.185   2.577 -0.4426  0.6032  0.5101
 3730ntf    sn222997   5.528   7.124   2.480 -0.6260  0.3196  0.4211
 3730ntf    nn322998   5.598   7.020   2.575  0.1152  0.3406 -0.0979
 3730ntf    sn222999   5.598   6.864   2.592 -0.1234  0.3252 -0.2381
 3730ntf    cn123000   5.726   6.818   2.471  0.0798 -0.1783  0.1660
 3730ntf    fn423001   5.323   7.097   2.652  0.1965 -0.1070  0.2243
 3730ntf    fn423002   5.423   7.281   2.662  0.5791  0.2145  0.5279
 3730ntf    fn423003   5.300   7.241   2.493  0.1322  0.1181 -0.4201
 3730ntf    on523004   5.468   7.057   2.368 -0.0623  0.1868  0.1972
 3730ntf    on523005   5.609   7.242   2.466  0.0932 -0.2490 -0.2719
 3730ntf    on523006   5.480   6.795   2.545 -0.5663  0.5060  0.5842
 3730ntf    on523007   5.642   6.839   2.727 -0.4253  0.1491 -0.1690
 3730ntf    fn423008   5.769   6.693   2.486 -0.1051 -0.2231  0.3387
 3730ntf    fn423009   5.678   6.826   2.348 -0.0811 -0.0540  0.2356
 3730ntf    fn423010   5.833   6.896   2.473  0.1255 -0.2449  0.3313
 3731ntf    cn123011   2.387   2.209   2.735 -0.0228 -0.2928 -0.4318
 3731ntf    sn223012   2.275   2.350   2.708 -0.1614 -0.3367 -0.0934
 3731ntf    nn323013   2.169   2.330   2.822  0.0589 -0.3061  0.1186
 3731ntf    sn223014   2.178   2.390   2.967  0.2188  0.0830 -0.0497
 3731ntf    cn123015   2.133   2.565   2.959  0.2387  0.0820 -0.1923
 3731ntf    fn423016   2.503   2.221   2.673 -0.0774 -0.1531 -0.5061
 3731ntf    fn423017   2.403   2.189   2.865  0.3411 -0.2937 -0.4764
 3731ntf    fn423018   2.339   2.093   2.694 -0.2051 -0.3196 -0.1496
 3731ntf    on523019   2.354   2.469   2.728 -0.9508  0.0713  0.6792
 3731ntf    on523020   2.231   2.322   2.574  0.3177 -0.5147 -0.2161
 3731ntf    on523021   2.315   2.389   3.014  0.0848  0.4687  0.3467
 3731ntf    on523022   2.075   2.330   3.049  0.1809 -0.0029 -0.1598
 3731ntf    fn423023   2.010   2.582   2.912  0.2133 -0.2096 -0.2301
 3731ntf    fn423024   2.135   2.617   3.081 -0.1189 -0.5612  0.0892
 3731ntf    fn423025   2.212   2.644   2.889  1.2455 -0.2862  0.5185
 3732ntf    cn123026   0.139   3.552   6.502 -0.2210  0.1632 -0.2313
 3732ntf    sn223027  -0.029   3.485   6.514 -0.1634  0.0581 -0.0240
 3732ntf    nn323028  -0.037   3.443   6.666 -0.2300 -0.1723 -0.0900
 3732ntf    sn223029  -0.085   3.530   6.787  0.1299 -0.1012  0.0029
 3732ntf    cn123030  -0.256   3.476   6.813  0.0106  0.1506 -0.2394
 3732ntf    fn423031   0.182   3.604   6.615 -0.6546  0.0687 -0.0237
 3732ntf    fn423032   0.230   3.460   6.474  0.0782  0.4776 -0.3044
 3732ntf    fn423033   0.147   3.655   6.419  0.2131  0.3022 -0.0207
 3732ntf    on523034  -0.121   3.586   6.469 -0.1221  0.1137  0.0167
 3732ntf    on523035  -0.025   3.371   6.425 -0.2649  0.2312 -0.2509
 3732ntf    on523036  -0.096   3.672   6.760  0.6385 -0.1441 -0.4383
 3732ntf    on523037  -0.033   3.488   6.914  0.2205 -0.1713 -0.0584
 3732ntf    fn423038  -0.255   3.364   6.884  0.4474  0.0292 -0.4311
 3732ntf    fn423039  -0.321   3.571   6.877 -0.3025 -0.2619  0.0640
 3732ntf    fn423040  -0.307   3.459   6.692  0.0449  0.1409 -0.2528
 3733ntf    cn123041   0.525   6.637   4.506 -0.2600  0.2562 -0.0679
 3733ntf    sn223042   0.598   6.643   4.339  0.1038  0.0670  0.0841
 3733ntf    nn323043   0.727   6.726   4.371 -0.3234  0.5691  0.5252
 3733ntf    sn223044   0.867   6.708   4.302 -0.3506  0.3250  0.5366
 3733ntf    cn123045   0.967   6.840   4.376  0.1591  0.1791  0.1196
 3733ntf    fn423046   0.519   6.758   4.557 -0.4574  0.0887  0.3108
 3733ntf    fn423047   0.403   6.585   4.501 -0.2473  0.2011  0.1932
 3733ntf    fn423048   0.586   6.562   4.596  0.3626  0.1156 -0.6039
 3733ntf    on523049   0.625   6.502   4.320  0.8068  0.1800  0.2055
 3733ntf    on523050   0.501   6.712   4.258 -0.0819 -0.3393 -0.0412
 3733ntf    on523051   0.845   6.730   4.161  0.0741  0.1764  0.4462
 3733ntf    on523052   0.941   6.590   4.340 -0.1007  0.2036 -0.3020
 3733ntf    fn423053   0.987   6.814   4.505  0.1974 -0.3646  0.0054
 3733ntf    fn423054   1.087   6.856   4.324 -0.1809 -0.1315 -0.7712
 3733ntf    fn423055   0.912   6.960   4.366  0.0674  0.1359  0.1000
 3734ntf    cn123056   5.415   6.015   4.021 -0.3263  0.0033  0.1089
 3734ntf    sn223057   5.509   5.894   4.120 -0.1716  0.0603  0.0321
 3734ntf    nn323058   5.450   5.934   4.260  0.0269  0.1021  0.1044
 3734ntf    sn223059   5.518   5.916   4.400 -0.1036  0.5381  0.2251
 3734ntf    cn123060   5.632   6.056   4.424  0.3062  0.2616 -0.1074
 3734ntf    fn423061   5.288   6.006   4.055 -0.1145 -0.6227  0.7638
 3734ntf    fn423062   5.468   6.132   4.053 -0.3191  0.1046 -0.2757
 3734ntf    fn423063   5.418   5.995   3.890 -0.3100  0.1410  0.0887
 3734ntf    on523064   5.463   5.765   4.076 -0.4394 -0.2932  1.3019
 3734ntf    on523065   5.645   5.932   4.089 -0.1452  0.2128  0.3292
 3734ntf    on523066   5.605   5.804   4.423 -0.0016  0.6428  0.3530
 3734ntf    on523067   5.423   5.934   4.507 -0.5091  0.5412 -0.1312
 3734ntf    fn423068   5.576   6.169   4.386 -0.0656  0.1932  0.2246
 3734ntf    fn423069   5.682   6.066   4.546  0.8885  0.0950 -0.3290
 3734ntf    fn423070   5.739   6.039   4.349  0.1750  0.2048 -0.2830
 3735ntf    cn123071   5.363   4.282   4.658  0.0006  0.2000  0.3701
 3735ntf    sn223072   5.352   4.353   4.491  0.1319 -0.0070  0.2732
 3735ntf    nn323073   5.307   4.499   4.525 -0.4593 -0.0414 -0.3417
 3735ntf    sn223074   5.402   4.615   4.571 -0.4531 -0.0904 -0.2294
 3735ntf    cn123075   5.432   4.687   4.407  0.0276  0.2355 -0.0022
 3735ntf    fn423076   5.455   4.341   4.732  0.1451  0.0573  0.3051
 3735ntf    fn423077   5.251   4.294   4.729 -0.1404 -0.5992  0.2861
 3735ntf    fn423078   5.392   4.153   4.659 -0.2222  0.1461 -0.1173
 3735ntf    on523079   5.486   4.346   4.438  0.0948  0.1293  0.1616
 3735ntf    on523080   5.260   4.265   4.424  0.0880 -0.0302  0.3645
 3735ntf    on523081   5.528   4.579   4.630 -0.9048  0.4005  1.0663
 3735ntf    on523082   5.332   4.730   4.623 -0.1541  0.1151 -0.2784
 3735ntf    fn423083   5.321   4.750   4.371 -0.0813  0.1456  0.1760
 3735ntf    fn423084   5.534   4.771   4.409  0.2720 -0.0361 -0.5949
 3735ntf    fn423085   5.459   4.601   4.310  0.2942 -0.1603  0.4225
 3736ntf    cn123086   4.252   0.513   4.070 -0.3696  0.1027  0.1728
 3736ntf    sn223087   4.372   0.558   4.199 -0.2131 -0.1983  0.1314
 3736ntf    nn323088   4.383   0.703   4.139  1.3417 -0.2742  0.1943
 3736ntf    sn223089   4.438   0.834   4.205  0.1093  0.3216  0.0502
 3736ntf    cn123090   4.607   0.851   4.142  0.1476 -0.1369  0.0291
 3736ntf    fn423091   4.169   0.614   4.046 -0.7070 -0.1134  0.4220
 3736ntf    fn423092   4.315   0.473   3.961  0.0858 -0.3489  0.5967
 3736ntf    fn423093   4.172   0.417   4.114 -0.1851 -0.1120  0.0352
 3736ntf    on523094   4.304   0.537   4.324 -0.1232 -0.3386  0.1573
 3736ntf    on523095   4.494   0.485   4.173 -0.5978 -0.9865  0.5101
 3736ntf    on523096   4.460   0.828   4.347  0.0478 -0.1981  0.0384
 3736ntf    on523097   4.371   0.949   4.148 -0.1600  0.2602  0.2364
 3736ntf    fn423098   4.688   0.756   4.188 -0.6776 -0.9283 -0.1328
 3736ntf    fn423099   4.615   0.851   4.010  0.3731  0.3612  0.0391
 3736ntf    fn423100   4.660   0.968   4.176 -0.0097 -0.0256 -0.1067
 3737ntf    cn123101   1.603   6.651   3.468 -0.4100 -0.0506 -0.0760
 3737ntf    sn223102   1.477   6.552   3.383 -0.0587 -0.4404 -0.1455
 3737ntf    nn323103   1.544   6.544   3.242 -0.0763 -0.8928 -0.1323
 3737ntf    sn223104   1.663   6.450   3.201  0.6374  0.0939 -0.3921
 3737ntf    cn123105   1.569   6.320   3.114  0.0360  0.1400  0.1818
 3737ntf    fn423106   1.672   6.729   3.386 -0.1954 -0.1716 -0.0110
 3737ntf    fn423107   1.554   6.738   3.554 -0.1654 -0.2298  0.2462
 3737ntf    fn423108   1.689   6.572   3.529  0.2089  0.3592 -0.4029
 3737ntf    on523109   1.484   6.427   3.455 -0.0496 -0.0903  0.4699
 3737ntf    on523110   1.354   6.627   3.380  0.3470  0.2419  0.1856
 3737ntf    on523111   1.726   6.368   3.301 -0.3800 -0.6027 -0.3028
 3737ntf    on523112   1.744   6.510   3.098 -0.0627  0.8782 -0.4999
 3737ntf    fn423113   1.526   6.353   2.993  0.2791 -0.2528 -0.0108
 3737ntf    fn423114   1.630   6.203   3.114  0.1279  0.1881  0.1250
 3737ntf    fn423115   1.451   6.308   3.173  0.0379  0.3405  0.2290
 3738ntf    cn123116   4.310   5.461   5.772 -0.4847 -0.1985  0.1967
 3738ntf    sn223117   4.151   5.478   5.687 -0.2509  0.0495 -0.1967
 3738ntf    nn323118   4.143   5.633   5.663  0.2251  0.0504 -0.3671
 3738ntf    sn223119   4.022   5.725   5.703  0.2995  0.1702 -0.4175
 3738ntf    cn123120   4.045   5.867   5.592  0.7234  0.3948 -0.0481
 3738ntf    fn423121   4.338   5.332   5.774  0.0259 -0.1006 -0.2169
 3738ntf    fn423122   4.406   5.523   5.704 -0.9249 -0.0657 -0.3059
 3738ntf    fn423123   4.301   5.508   5.895 -0.1133 -0.0265  0.1601
 3738ntf    on523124   4.164   5.405   5.563  0.3695 -0.1182 -0.0360
 3738ntf    on523125   4.059   5.426   5.785 -0.2103 -0.1746 -0.2768
 3738ntf    on523126   4.031   5.780   5.836  0.4449  0.1910 -0.4360
 3738ntf    on523127   3.893   5.683   5.653  0.3837 -0.5908 -0.0151
 3738ntf    fn423128   4.022   5.823   5.469 -0.9920 -0.0016  0.3734
 3738ntf    fn423129   3.957   5.965   5.604  0.3261  0.0437 -0.0573
 3738ntf    fn423130   4.168   5.910   5.609  0.7657  0.5824 -0.7680
 3739ntf    cn123131   6.708   3.324   5.694 -0.4891  0.4210  0.2837
 3739ntf    sn223132   6.864   3.316   5.787 -0.3472  0.3487  0.0406
 3739ntf    nn323133   6.970   3.300   5.672 -0.2120  0.0621  0.2047
 3739ntf    sn223134   7.071   3.407   5.617 -0.3017  0.0371 -0.0063
 3739ntf    cn123135   7.225   3.370   5.705 -0.3057  0.2043  0.0695
 3739ntf    fn423136   6.605   3.360   5.768 -0.2299 -0.0776  0.8931
 3739ntf    fn423137   6.719   3.411   5.596  0.6120 -0.2564 -0.2121
 3739ntf    fn423138   6.676   3.207   5.641  0.6728  0.2671 -0.1055
 3739ntf    on523139   6.860   3.437   5.865 -0.6749  0.2413  0.1941
 3739ntf    on523140   6.850   3.193   5.861  0.1139  0.0103 -0.4253
 3739ntf    on523141   7.047   3.548   5.635 -0.5663 -0.0401  0.2458
 3739ntf    on523142   7.103   3.362   5.484 -0.2992 -0.4756  0.1660
 3739ntf    fn423143   7.325   3.456   5.692 -0.4225  0.2503 -0.5502
 3739ntf    fn423144   7.212   3.362   5.837 -0.6283 -0.0114  0.0250
 3739ntf    fn423145   7.271   3.258   5.653 -0.3146  0.3643 -0.2837
 3740ntf    cn123146   0.639   3.665   0.264 -0.4532 -0.2036 -0.3666
 3740ntf    sn223147   0.675   3.838   0.223  0.1198 -0.1256  0.4400
 3740ntf    nn323148   0.781   3.808   0.111 -0.1974 -0.2820  0.1815
 3740ntf    sn223149   0.764   3.783  -0.043  0.3657  0.1820  0.0413
 3740ntf    cn123150   0.798   3.949  -0.110 -0.0271  0.1816 -0.1621
 3740ntf    fn423151   0.739   3.603   0.324  0.1936  0.8814 -0.2997
 3740ntf    fn423152   0.527   3.639   0.330 -0.2047 -0.3809 -0.0119
 3740ntf    fn423153   0.634   3.584   0.160 -0.1198 -0.5100 -0.1468
 3740ntf    on523154   0.549   3.891   0.176  0.3805  0.1776  0.0715
 3740ntf    on523155   0.736   3.886   0.345 -0.2216 -0.4462  0.7377
 3740ntf    on523156   0.626   3.763  -0.080  0.4917 -0.1454 -0.2574
 3740ntf    on523157   0.867   3.699  -0.100 -0.2690 -0.3287 -0.3642
 3740ntf    fn423158   0.699   4.032  -0.083  0.0943  0.2794 -0.0218
 3740ntf    fn423159   0.900   4.010  -0.051  0.1182  0.0080 -0.2326
 3740ntf    fn423160   0.816   3.947  -0.241 -0.3961 -0.6552 -0.2073
 3741ntf    cn123161   3.481   4.795   5.364  0.3882  0.6526 -0.1092
 3741ntf    sn223162   3.437   4.962   5.422 -0.0838  0.4408  0.1425
 3741ntf    nn323163   3.281   4.950   5.405 -0.1112  0.2543  0.4937
 3741ntf    sn223164   3.191   4.958   5.277  0.3029 -0.3608  0.1569
 3741ntf    cn123165   3.170   5.139   5.282 -0.2302 -0.4057 -0.3876
 3741ntf    fn423166   3.610   4.766   5.362  0.2884  0.1473  0.5670
 3741ntf    fn423167   3.421   4.705   5.439  0.3297  0.3798 -0.4827
 3741ntf    fn423168   3.434   4.775   5.242 -0.1073 -0.2020  0.2130
 3741ntf    on523169   3.466   4.965   5.564  0.9044 -0.5371 -0.0241
 3741ntf    on523170   3.506   5.048   5.330  0.3214 -0.7117 -0.6467
 3741ntf    on523171   3.061   4.899   5.297 -0.0809  0.1679 -0.7115
 3741ntf    on523172   3.256   4.935   5.150 -0.2194 -0.3050 -0.1274
 3741ntf    fn423173   3.082   5.166   5.186 -0.6729 -0.3686  0.0240
 3741ntf    fn423174   3.127   5.173   5.402 -0.0715  0.9499 -0.6931
 3741ntf    fn423175   3.279   5.204   5.245 -0.0802 -0.5736 -0.2407
 3742ntf    cn123176   0.120   3.556   3.955  0.2786  0.4726 -0.1173
 3742ntf    sn223177   0.082   3.486   4.118  0.1848  0.3363 -0.1982
 3742ntf    nn323178  -0.052   3.560   4.153  0.0257 -0.2659  0.5114
 3742ntf    sn223179  -0.057   3.699   4.226  0.5247 -0.1811  0.3898
 3742ntf    cn123180  -0.080   3.635   4.394  0.0515 -0.0632  0.3733
 3742ntf    fn423181   0.246   3.543   3.917  0.2109  0.1848 -0.2446
 3742ntf    fn423182   0.040   3.508   3.861 -0.0561  0.2005  0.3034
 3742ntf    fn423183   0.101   3.687   3.952  0.2987  0.4729 -0.2290
 3742ntf    on523184   0.058   3.345   4.097 -1.0213  0.4951  0.0468
 3742ntf    on523185   0.199   3.512   4.198 -0.3954  0.8233  0.5058
 3742ntf    on523186  -0.177   3.776   4.201  0.5435 -0.3385 -0.2028
 3742ntf    on523187   0.061   3.781   4.234  0.0977  0.5218 -0.2798
 3742ntf    fn423188   0.036   3.579   4.424 -0.1004 -0.7479 -0.3004
 3742ntf    fn423189  -0.101   3.732   4.482 -0.4685 -0.1749  0.3735
 3742ntf    fn423190  -0.174   3.543   4.404 -0.1629  0.1025 -0.0996
 3743ntf    cn123191   1.146   6.706   0.865 -0.1991 -0.1402  0.0804
 3743ntf    sn223192   1.127   6.530   0.823 -0.1467 -0.0925 -0.1493
 3743ntf    nn323193   1.213   6.524   0.691  0.2404 -0.1234  0.1026
 3743ntf    sn223194   1.341   6.444   0.650  0.0864 -0.2246 -0.1842
 3743ntf    cn123195   1.266   6.363   0.506 -0.1524 -0.4157  0.0479
 3743ntf    fn423196   1.082   6.744   0.974  0.0992  0.3227  0.0935
 3743ntf    fn423197   1.272   6.745   0.867 -0.3506  0.3381  0.3528
 3743ntf    fn423198   1.091   6.769   0.763 -0.1208  0.2620  0.2873
 3743ntf    on523199   1.177   6.458   0.937  0.3078  0.6239  0.1076
 3743ntf    on523200   0.987   6.514   0.790 -0.0907 -0.2455 -0.3163
 3743ntf    on523201   1.383   6.334   0.733 -0.9705 -0.1190  0.4999
 3743ntf    on523202   1.441   6.533   0.595  0.2471 -0.1293  0.2533
 3743ntf    fn423203   1.188   6.264   0.545  0.1644 -0.4843  0.5125
 3743ntf    fn423204   1.200   6.443   0.423 -0.3318 -0.4642  0.1440
 3743ntf    fn423205   1.362   6.308   0.433  0.3082 -0.2756  0.5442
 3744ntf    cn123206   3.642   2.729   4.696  0.1991 -0.2596  0.1937
 3744ntf    sn223207   3.802   2.643   4.701  0.2700 -0.1503 -0.1796
 3744ntf    nn323208   3.809   2.588   4.554  0.4674 -0.3264 -0.1045
 3744ntf    sn223209   3.877   2.657   4.431 -0.3472  0.0312 -0.3667
 3744ntf    cn123210   3.798   2.585   4.284 -0.4506 -0.0198 -0.2863
 3744ntf    fn423211   3.634   2.804   4.587 -0.4461  0.0335  0.4308
 3744ntf    fn423212   3.539   2.645   4.697 -0.3038  0.3393 -0.1248
 3744ntf    fn423213   3.625   2.804   4.803  0.2547 -0.2326  0.1834
 3744ntf    on523214   3.896   2.747   4.735 -0.1765  0.2369 -0.1118
 3744ntf    on523215   3.778   2.538   4.796  0.1079  0.1497  0.1153
 3744ntf    on523216   4.018   2.626   4.415 -0.1838  0.0904  0.8775
 3744ntf    on523217   3.841   2.796   4.434 -0.2915  0.0396 -0.0488
 3744ntf    fn423218   3.669   2.618   4.283 -0.3310  0.4605 -0.4225
 3744ntf    fn423219   3.847   2.626   4.168  0.2654 -0.0761 -0.0075
 3744ntf    fn423220   3.805   2.454   4.291 -0.3168  0.0257  0.4429
 3745ntf    cn123221   4.150   6.522   2.497  0.1238  0.2507 -0.4181
 3745ntf    sn223222   4.186   6.465   2.328 -0.0874 -0.3506 -0.2640
 3745ntf    nn323223   4.239   6.597   2.262  0.3164 -0.3707  0.0130
 3745ntf    sn223224   4.372   6.620   2.182  0.0690  0.0692 -0.2772
 3745ntf    cn123225   4.478   6.682   2.316  0.2154 -0.3035 -0.2188
 3745ntf    fn423226   4.247   6.600   2.543  0.1416 -0.1194  0.1948
 3745ntf    fn423227   4.040   6.595   2.497  0.1052  0.2564  0.7914
 3745ntf    fn423228   4.128   6.423   2.583 -0.2598  0.4925 -0.2336
 3745ntf    on523229   4.284   6.361   2.346  0.3875  0.1710  0.2328
 3745ntf    on523230   4.057   6.429   2.275 -0.1140  0.2515 -0.6131
 3745ntf    on523231   4.363   6.732   2.092 -0.3971  0.6722  0.5114
 3745ntf    on523232   4.439   6.496   2.148 -0.1421 -0.2232  0.3616
 3745ntf    fn423233   4.413   6.767   2.394  0.4071  0.0405 -0.4319
 3745ntf    fn423234   4.503   6.584   2.401  1.1136  0.6629  0.6519
 3745ntf    fn423235   4.590   6.739   2.276 -0.0548  0.7940  0.5547
 3746ntf    cn123236   5.844   4.351   0.792  0.3457  0.0411 -0.1948
 3746ntf    sn223237   5.829   4.182   0.860  0.0549  0.1341 -0.0223
 3746ntf    nn323238   5.976   4.173   0.915 -0.1215  0.1591  0.4525
 3746ntf    sn223239   6.039   4.168   1.059  0.7817 -0.1432  0.0511
 3746ntf    cn123240   6.078   3.990   1.063 -0.0747 -0.3314  0.1690
 3746ntf    fn423241   5.730   4.403   0.750  0.3230  0.4227  0.3198
 3746ntf    fn423242   5.885   4.432   0.888  0.0487 -0.1069  0.0613
 3746ntf    fn423243   5.930   4.359   0.692 -0.2497  0.0601 -0.7126
 3746ntf    on523244   5.721   4.192   0.955  0.2212 -0.5781  0.2429
 3746ntf    on523245   5.809   4.110   0.736 -0.2236 -0.4004  0.3320
 3746ntf    on523246   5.956   4.175   1.176  0.2058  0.2050 -0.3706
 3746ntf    on523247   6.168   4.232   1.066  0.7259 -0.0567  0.2868
 3746ntf    fn423248   6.137   3.944   1.172  0.4709 -0.5570 -0.2192
 3746ntf    fn423249   5.972   3.913   1.047 -0.2513  0.0097 -0.3495
 3746ntf    fn423250   6.165   3.960   0.967  0.0608  0.1631  0.1325
 3747ntf    cn123251   0.745   4.592   0.964  0.0395 -0.0321  0.0729
 3747ntf    sn223252   0.633   4.537   0.833 -0.0335  0.1207  0.0711
 3747ntf    nn323253   0.495   4.550   0.907 -0.1783 -0.1210 -0.1523
 3747ntf    sn223254   0.412   4.452   0.997  0.0041  0.1778  0.3424
 3747ntf    cn123255   0.384   4.564   1.138  0.3143  0.2911  0.3146
 3747ntf    fn423256   0.729   4.719   0.999 -0.7013 -0.3015  0.7361
 3747ntf    fn423257   0.737   4.523   1.077  1.3139 -0.2126  0.0730
 3747ntf    fn423258   0.875   4.586   0.936  0.0548  0.3852  0.0526
 3747ntf    on523259   0.642   4.632   0.725 -0.5772 -0.1944 -0.2574
 3747ntf    on523260   0.679   4.402   0.808 -0.1234  0.1139 -0.0625
 3747ntf    on523261   0.477   4.342   1.064 -0.3215  0.0314  0.4208
 3747ntf    on523262   0.279   4.434   0.943  0.1646  0.9551 -0.3333
 3747ntf    fn423263   0.290   4.652   1.108 -0.0807 -0.2571 -0.0642
 3747ntf    fn423264   0.350   4.495   1.246 -0.0318 -0.0021  0.0195
 3747ntf    fn423265   0.495   4.627   1.171  0.4712  0.0546  0.2385
 3748ntf    cn123266   4.012   4.468   1.371  0.2033 -0.1793  0.3554
 3748ntf    sn223267   3.977   4.519   1.542 -0.0248  0.2675  0.1760
 3748ntf    nn323268   4.129   4.524   1.579  0.2242  0.2676 -0.8283
 3748ntf    sn223269   4.237   4.639   1.583  0.0000  0.4559 -0.0142
 3748ntf    cn123270   4.245   4.638   1.764  0.0998  0.3173 -0.0193
 3748ntf    fn423271   3.903   4.413   1.322  0.3418  0.0864 -0.2566
 3748ntf    fn423272   4.053   4.564   1.289 -0.1288 -0.1180  0.2617
 3748ntf    fn423273   4.104   4.374   1.360 -0.0290 -0.4150  0.4377
 3748ntf    on523274   3.909   4.645   1.520  0.7695  0.6510 -0.1162
 3748ntf    on523275   3.905   4.409   1.602 -0.5086  0.3991 -0.1549
 3748ntf    on523276   4.192   4.770   1.543 -0.3389  0.1795 -0.5540
 3748ntf    on523277   4.366   4.601   1.531  0.0653  0.0614  0.4325
 3748ntf    fn423278   4.123   4.651   1.815  0.1268 -0.0290  0.1378
 3748ntf    fn423279   4.278   4.523   1.822  0.3930  0.2793 -0.2639
 3748ntf    fn423280   4.322   4.732   1.816  0.5561 -0.1478  0.1583
 3749ntf    cn123281   6.943   3.414   4.659  0.1391 -0.0718  0.3901
 3749ntf    sn223282   6.793   3.510   4.699  0.0004  0.0259 -0.3307
 3749ntf    nn323283   6.692   3.391   4.717 -0.3165  0.2826 -0.4182
 3749ntf    sn223284   6.629   3.295   4.610 -0.3021 -0.0636 -0.1140
 3749ntf    cn123285   6.460   3.362   4.607 -0.1730  0.2939  0.5133
 3749ntf    fn423286   6.978   3.341   4.763  0.1365 -0.2279  0.2804
 3749ntf    fn423287   6.933   3.322   4.564 -0.9021  0.2614  0.1621
 3749ntf    fn423288   7.048   3.488   4.626 -0.2532  0.0895 -0.5429
 3749ntf    on523289   6.823   3.566   4.829 -0.2975 -0.2866 -0.1247
 3749ntf    on523290   6.780   3.609   4.596  0.3345  0.6075  0.1766
 3749ntf    on523291   6.613   3.160   4.659  0.1596 -0.1800 -0.2782
 3749ntf    on523292   6.660   3.309   4.470 -0.6341  0.1386 -0.1688
 3749ntf    fn423293   6.375   3.275   4.555 -0.1691  0.3638  0.3890
 3749ntf    fn423294   6.405   3.372   4.727 -0.0110 -0.2195  0.6323
 3749ntf    fn423295   6.451   3.479   4.546 -0.3872  0.1943  0.3535
 3750ntf    cn123296   5.632   6.179   5.267  0.3971  0.5856  0.0105
 3750ntf    sn223297   5.523   6.229   5.403 -0.1766  0.4235 -0.3885
 3750ntf    nn323298   5.633   6.243   5.514  0.2488 -0.0340 -0.7489
 3750ntf    sn223299   5.687   6.368   5.591 -0.3561 -0.1858 -0.0575
 3750ntf    cn123300   5.733   6.289   5.748  0.0784  0.1610 -0.0078
 3750ntf    fn423301   5.587   6.217   5.149  0.1760 -0.3101 -0.2068
 3750ntf    fn423302   5.751   6.234   5.284  0.9284 -0.3760 -0.4849
 3750ntf    fn423303   5.646   6.047   5.261  0.0696  0.5467  0.0697
 3750ntf    on523304   5.465   6.352   5.352 -0.3523  0.6377  0.3170
 3750ntf    on523305   5.432   6.117   5.402  0.1865  0.1207  0.0619
 3750ntf    on523306   5.587   6.458   5.644 -0.1598 -0.2448  0.4199
 3750ntf    on523307   5.815   6.429   5.561 -0.2202 -0.1066  0.6580
 3750ntf    fn423308   5.624   6.281   5.823  0.3374 -0.3516  0.3151
 3750ntf    fn423309   5.782   6.167   5.740  0.5268  0.3156  0.3060
 3750ntf    fn423310   5.827   6.358   5.811  0.2181  0.0116 -0.0544
 3751ntf    cn123311   0.907   0.257   1.523 -0.1106 -0.1992  0.2428
 3751ntf    sn223312   1.023   0.153   1.429 -0.2166 -0.1197  0.0215
 3751ntf    nn323313   1.079   0.052   1.536  0.3057  0.1500  0.0076
 3751ntf    sn223314   1.190   0.079   1.643  0.1703  0.1480  0.1495
 3751ntf    cn123315   1.077   0.067   1.785  0.1242  0.4676  0.1409
 3751ntf    fn423316   0.860   0.357   1.449 -0.0182 -0.1381  0.2663
 3751ntf    fn423317   0.799   0.191   1.560 -0.2827 -0.0464  0.0186
 3751ntf    fn423318   0.956   0.311   1.633 -0.7722  0.6863  0.1151
 3751ntf    on523319   0.949   0.087   1.325  0.0481 -0.8224  0.2726
 3751ntf    on523320   1.114   0.250   1.374 -0.4380  0.1877  0.1927
 3751ntf    on523321   1.236   0.215   1.661  1.0075 -0.1157  0.0585
 3751ntf    on523322   1.284  -0.029   1.660  0.1038  0.0750  0.0496
 3751ntf    fn423323   1.033  -0.056   1.804  0.5866  0.2891  0.0725
 3751ntf    fn423324   1.143   0.102   1.894  0.1095 -0.1262  0.3460
 3751ntf    fn423325   0.974   0.148   1.764  0.0223  0.1473 -0.6446
 3752ntf    cn123326   1.944   2.376   6.093 -0.2614  0.2571 -0.3886
 3752ntf    sn223327   2.071   2.381   5.963 -0.1673 -0.0292 -0.3092
 3752ntf    nn323328   2.197   2.338   6.046 -0.6604 -0.1644  0.3763
 3752ntf    sn223329   2.280   2.207   6.021 -0.6112 -0.0504 -0.0748
 3752ntf    cn123330   2.193   2.085   6.125  0.0108 -0.7060 -0.3159
 3752ntf    fn423331   1.892   2.255   6.090 -0.4350  0.3333 -0.4899
 3752ntf    fn423332   1.999   2.388   6.213 -0.3321  0.0905 -0.3402
 3752ntf    fn423333   1.848   2.465   6.077 -0.3449  0.1655 -0.3944
 3752ntf    on523334   2.011   2.295   5.864 -0.4785  0.2628 -0.3784
 3752ntf    on523335   2.088   2.523   5.940  0.9013 -0.1777 -0.4740
 3752ntf    on523336   2.409   2.221   6.083 -0.1246 -0.1629 -1.0463
 3752ntf    on523337   2.268   2.154   5.888 -0.2221  0.0038 -0.1301
 3752ntf    fn423338   2.100   2.025   6.054  0.1475 -0.4612 -0.7077
 3752ntf    fn423339   2.279   1.996   6.172  0.1714 -0.5001 -0.2173
 3752ntf    fn423340   2.133   2.139   6.230 -0.1770 -0.5193 -0.5178
 3753ntf    cn123341   6.150   0.665   6.875 -0.6608  0.2667  0.1968
 3753ntf    sn223342   6.206   0.708   6.707 -0.2670 -0.0753  0.2383
 3753ntf    nn323343   6.234   0.854   6.755  0.0098 -0.1020  0.1585
 3753ntf    sn223344   6.306   0.970   6.677 -0.0465 -0.0881  0.1271
 3753ntf    cn123345   6.173   1.092   6.664  0.0783 -0.0410 -0.7658
 3753ntf    fn423346   6.123   0.535   6.871  0.0703  0.1358 -0.8882
 3753ntf    fn423347   6.246   0.684   6.964 -0.6733 -0.2434  0.3275
 3753ntf    fn423348   6.039   0.729   6.908 -0.3807  0.7228  0.2641
 3753ntf    on523349   6.318   0.618   6.692 -0.0711  0.1867  0.1325
 3753ntf    on523350   6.092   0.692   6.621 -0.2904 -0.4493  0.3364
 3753ntf    on523351   6.334   0.933   6.541  0.1105  0.4027  0.0240
 3753ntf    on523352   6.410   1.036   6.753 -0.2403  0.2599  0.0893
 3753ntf    fn423353   6.103   1.115   6.774  0.5872 -0.0933 -0.4265
 3753ntf    fn423354   6.203   1.211   6.615  0.1108  0.3847  0.2663
 3753ntf    fn423355   6.083   1.044   6.579  0.0371 -0.4143 -0.5140
 3754ntf    cn123356   0.819   6.813   2.781  0.5424  0.1063  0.2103
 3754ntf    sn223357   0.676   6.703   2.755  0.4307  0.1746  0.5332
 3754ntf    nn323358   0.611   6.699   2.898 -0.2220 -0.1326  0.2292
 3754ntf    sn223359   0.552   6.573   2.970 -0.0428 -0.1407  0.3622
 3754ntf    cn123360   0.429   6.516   2.849  0.0068  0.3563  0.0775
 3754ntf    fn423361   0.785   6.925   2.842 -0.4135  0.0520 -0.2025
 3754ntf    fn423362   0.898   6.760   2.873  0.2842  0.6530  0.7477
 3754ntf    fn423363   0.895   6.829   2.673  0.8094 -0.1690  0.3550
 3754ntf    on523364   0.586   6.767   2.662 -0.4408 -0.6093  0.8291
 3754ntf    on523365   0.735   6.577   2.718  0.2820  0.3172 -0.2089
 3754ntf    on523366   0.475   6.617   3.083  0.0830  0.5138  0.1974
 3754ntf    on523367   0.645   6.463   2.978  0.9303  0.6581  0.2876
 3754ntf    fn423368   0.353   6.422   2.902  0.1689  0.1013 -0.1423
 3754ntf    fn423369   0.333   6.604   2.823 -0.2214  0.0232 -0.2226
 3754ntf    fn423370   0.478   6.457   2.741  0.3639  0.0667  0.3983
 3755ntf    cn123371   6.837   2.842   4.623  0.0189 -0.0534  0.0196
 3755ntf    sn223372   6.762   2.679   4.649 -0.3259  0.1151  0.0922
 3755ntf    nn323373   6.656   2.679   4.534 -0.2006  0.3316 -0.0225
 3755ntf    sn223374   6.514   2.613   4.522  0.0832 -0.2536 -0.1806
 3755ntf    cn123375   6.421   2.763   4.566  0.3421 -0.1782  0.1121
 3755ntf    fn423376   6.961   2.851   4.669 -0.1150  0.2178  0.3338
 3755ntf    fn423377   6.831   2.884   4.497  0.5403 -0.4125 -0.1252
 3755ntf    fn423378   6.776   2.941   4.686 -0.1535  0.1092 -0.3992
 3755ntf    on523379   6.869   2.585   4.629 -0.0211  0.3999  0.3688
 3755ntf    on523380   6.713   2.684   4.785 -0.0986  0.1361  0.1744
 3755ntf    on523381   6.489   2.522   4.631 -0.0123 -0.1549 -0.1196
 3755ntf    on523382   6.463   2.572   4.394 -0.0706  0.4508 -0.3486
 3755ntf    fn423383   6.299   2.763   4.514 -0.0303  0.1967  0.9689
 3755ntf    fn423384   6.407   2.775   4.697  0.3535  0.2513  0.0746
 3755ntf    fn423385   6.476   2.876   4.527  0.7029 -0.4002 -0.0322
 3756ntf    cn123386   2.363   3.191   5.728 -0.0082 -0.2309 -0.1605
 3756ntf    sn223387   2.284   3.101   5.865 -0.2211  0.3086  0.0733
 3756ntf    nn323388   2.188   3.220   5.903 -0.3433  0.3459 -0.3455
 3756ntf    sn223389   2.179   3.288   6.044 -0.0938 -0.1544 -0.0864
 3756ntf    cn123390   2.330   3.388   6.052 -0.2244  0.0365 -0.0070
 3756ntf    fn423391   2.305   3.186   5.609  0.1491 -0.2267 -0.2380
 3756ntf    fn423392   2.362   3.322   5.744  0.0133 -0.2256 -0.2048
 3756ntf    fn423393   2.489   3.158   5.704  0.1788 -0.1897  0.7131
 3756ntf    on523394   2.228   2.989   5.794  0.7558 -0.4099  0.4249
 3756ntf    on523395   2.393   3.069   5.953 -0.5966  0.0855  0.4623
 3756ntf    on523396   2.186   3.202   6.160  0.2104 -0.6804 -0.4897
 3756ntf    on523397   2.073   3.386   6.045 -0.0565 -0.1169  0.1603
 3756ntf    fn423398   2.332   3.479   5.956  0.1037  0.1960  0.1496
 3756ntf    fn423399   2.342   3.454   6.166 -0.3139  0.3057 -0.1534
 3756ntf    fn423400   2.438   3.316   6.028 -0.5189 -0.5311  0.3404
 3757ntf    cn123401   6.764   7.016   0.926  0.1918  0.0594  0.1302
 3757ntf    sn223402   6.809   7.130   1.059 -0.1485  0.1124  0.2022
 3757ntf    nn323403   6.731   7.254   1.002 -0.1740  0.1587  0.3372
 3757ntf    sn223404   6.593   7.314   1.047 -0.4021 -0.1848  0.1034
 3757ntf    cn123405   6.654   7.433   1.171  0.0357  0.0712 -0.3539
 3757ntf    fn423406   6.819   6.897   0.945 -0.1683 -0.1071  0.1481
 3757ntf    fn423407   6.632   7.003   0.928  0.2674 -0.8565 -0.2779
 3757ntf    fn423408   6.797   7.051   0.803  0.0510  0.3384  0.1725
 3757ntf    on523409   6.756   7.062   1.174  0.2998 -0.0104  0.3404
 3757ntf    on523410   6.952   7.145   1.045 -0.1182 -0.3518  0.0008
 3757ntf    on523411   6.493   7.231   1.109  0.2472 -1.0729 -0.0242
 3757ntf    on523412   6.544   7.405   0.946  0.0588  0.0889  0.1219
 3757ntf    fn423413   6.565   7.529   1.193 -0.4249 -0.4833  0.2371
 3757ntf    fn423414   6.672   7.378   1.290 -0.3613  0.1439 -0.2596
 3757ntf    fn423415   6.766   7.491   1.130  0.3376  0.1479  0.5701
 3758ntf    cn123416   5.538   2.295   2.470  0.4603 -0.2013  0.0159
 3758ntf    sn223417   5.394   2.393   2.520  0.5777 -0.1142  0.1844
 3758ntf    nn323418   5.415   2.518   2.427  0.5211 -0.6120 -0.5117
 3758ntf    sn223419   5.343   2.567   2.297 -0.3243 -0.2793  0.0766
 3758ntf    cn123420   5.475   2.676   2.237 -0.4428 -0.3466 -0.3078
 3758ntf    fn423421   5.652   2.350   2.507  0.3784 -0.7797  1.1624
 3758ntf    fn423422   5.533   2.170   2.512 -0.3208 -0.1010  0.2231
 3758ntf    fn423423   5.551   2.297   2.338  0.1693 -0.2382 -0.0138
 3758ntf    on523424   5.277   2.312   2.491  0.6362 -0.0571 -0.2234
 3758ntf    on523425   5.414   2.416   2.660  0.0166  0.4951  0.1710
 3758ntf    on523426   5.231   2.654   2.326 -0.0362 -0.0264  0.4273
 3758ntf    on523427   5.337   2.477   2.185  0.7110 -0.3988  0.1140
 3758ntf    fn423428   5.468   2.694   2.106 -0.3037  0.1758 -0.2478
 3758ntf    fn423429   5.481   2.795   2.295 -0.0078 -0.4949 -0.0449
 3758ntf    fn423430   5.593   2.619   2.253 -0.1516  0.4324  0.3816
 3759ntf    cn123431   5.668   3.466   1.046 -0.1915 -0.2344  0.5342
 3759ntf    sn223432   5.721   3.380   1.197  0.0177 -0.3521  0.3944
 3759ntf    nn323433   5.867   3.434   1.216 -0.2303  0.5247 -0.1254
 3759ntf    sn223434   5.917   3.543   1.317 -0.2763  0.5079 -0.0850
 3759ntf    cn123435   6.054   3.609   1.218 -0.0317  0.0803 -0.0308
 3759ntf    fn423436   5.724   3.413   0.939  0.0762 -0.1147  0.6145
 3759ntf    fn423437   5.538   3.471   1.022 -0.1316 -0.1460  0.2310
 3759ntf    fn423438   5.723   3.586   1.039 -0.1210 -0.2963 -0.0441
 3759ntf    on523439   5.621   3.424   1.292 -0.4365 -0.5345  0.0037
 3759ntf    on523440   5.720   3.240   1.161 -0.2289 -0.1420 -0.4284
 3759ntf    on523441   5.986   3.494   1.434  0.6435  0.4024 -0.6665
 3759ntf    on523442   5.825   3.654   1.330 -0.6770  0.1895 -0.1624
 3759ntf    fn423443   6.013   3.623   1.093  0.2696  0.6217 -0.0699
 3759ntf    fn423444   6.103   3.718   1.274 -0.2501  0.2741 -0.2163
 3759ntf    fn423445   6.150   3.518   1.218 -0.2380 -0.1401 -0.3381
 3760ntf    cn123446   1.691   3.111   2.503  0.2797 -0.2313 -0.0045
 3760ntf    sn223447   1.818   2.987   2.538 -0.1987 -0.6374  0.2999
 3760ntf    nn323448   1.725   2.872   2.591 -0.0387 -0.5385  0.8035
 3760ntf    sn223449   1.692   2.739   2.514  0.2576 -0.2379  0.1533
 3760ntf    cn123450   1.815   2.631   2.592  0.3982 -0.2253 -0.0512
 3760ntf    fn423451   1.574   3.056   2.472 -0.0294  0.2776  0.2492
 3760ntf    fn423452   1.672   3.184   2.611 -0.9215 -0.0775 -0.3057
 3760ntf    fn423453   1.730   3.192   2.406  0.4978 -0.0558  0.2296
 3760ntf    on523454   1.893   2.968   2.417 -0.3847 -0.9170  0.2278
 3760ntf    on523455   1.896   3.033   2.651 -0.8547  0.1923  0.4198
 3760ntf    on523456   1.724   2.728   2.374 -0.3009 -0.0162  0.0021
 3760ntf    on523457   1.570   2.672   2.552  0.1769  0.0455  0.3993
 3760ntf    fn423458   1.816   2.506   2.550 -0.1530 -0.1888 -0.1824
 3760ntf    fn423459   1.940   2.673   2.583  0.5248 -0.4434  0.6751
 3760ntf    fn423460   1.790   2.622   2.722  0.1460 -0.5497 -0.1208
 3761ntf    cn123461   1.758   4.058   1.572 -0.1157  0.2488 -0.5759
 3761ntf    sn223462   1.881   4.174   1.639  0.1539 -0.4213  0.1155
 3761ntf    nn323463   1.952   4.092   1.752 -0.1129 -0.0264  0.5749
 3761ntf    sn223464   1.946   4.115   1.907 -0.0223  0.4287  0.5100
 3761ntf    cn123465   1.988   3.951   1.970 -0.1420  0.3418  0.3660
 3761ntf    fn423466   1.802   3.936   1.544 -0.8943 -0.2240  0.2081
 3761ntf    fn423467   1.662   4.036   1.661  0.5586  0.3412  0.1873
 3761ntf    fn423468   1.694   4.096   1.463 -0.5199  0.8257 -0.1381
 3761ntf    on523469   1.963   4.203   1.523  0.1801 -0.1830  0.1919
 3761ntf    on523470   1.798   4.279   1.693  0.7561 -0.1981  0.6109
 3761ntf    on523471   1.813   4.145   1.955 -0.1999  0.4565  0.0141
 3761ntf    on523472   2.057   4.169   1.980  0.5797 -0.5307  0.3169
 3761ntf    fn423473   2.100   3.898   1.923 -0.5109  0.0378 -0.1811
 3761ntf    fn423474   1.987   3.940   2.102 -0.0799 -0.4402  0.3060
 3761ntf    fn423475   1.891   3.865   1.943 -0.6651  0.6507  1.2057
 3762ntf    cn123476   4.994   4.388   3.552  0.6462 -0.0951 -0.3156
 3762ntf    sn223477   4.991   4.262   3.684 -0.1088  0.0400 -0.1996
 3762ntf    nn323478   5.077   4.155   3.607  0.6417  0.5167 -0.0304
 3762ntf    sn223479   5.232   4.131   3.623  0.5380 -0.1428 -0.0037
 3762ntf    cn123480   5.268   4.025   3.480 -0.1989 -0.2570 -0.1105
 3762ntf    fn423481   4.902   4.479   3.579  0.3140 -0.4959 -0.0725
 3762ntf    fn423482   5.110   4.451   3.538  0.4580  0.4490  0.5037
 3762ntf    fn423483   4.954   4.331   3.440  0.0565 -0.0892 -0.1079
 3762ntf    on523484   5.048   4.318   3.804  0.1939 -0.6101 -0.0357
 3762ntf    on523485   4.851   4.230   3.692  0.0266 -0.3459  0.7760
 3762ntf    on523486   5.272   4.051   3.736  0.2938  0.1816  0.3148
 3762ntf    on523487   5.300   4.253   3.587  0.1343  0.1584  0.2379
 3762ntf    fn423488   5.209   4.086   3.379 -0.6697 -0.3540  0.1051
 3762ntf    fn423489   5.396   4.022   3.446 -0.1137  0.6489  0.1041
 3762ntf    fn423490   5.232   3.898   3.475 -0.4038 -0.2074  0.0671
 3763ntf    cn123491   1.947   6.680   4.875  0.1027 -0.1130 -0.0867
 3763ntf    sn223492   1.910   6.797   4.741  0.0119  0.0842  0.1098
 3763ntf    nn323493   1.865   6.926   4.818 -0.1416  0.2215 -0.2102
 3763ntf    sn223494   1.946   7.055   4.858  0.3093 -0.1584  0.1043
 3763ntf    cn123495   1.902   7.058   5.035 -0.1438 -0.2747 -0.0043
 3763ntf    fn423496   1.955   6.552   4.842 -0.2430 -0.2355  0.2891
 3763ntf    fn423497   2.049   6.713   4.953 -0.0789  0.1860  0.0255
 3763ntf    fn423498   1.850   6.686   4.965  0.0717  0.0725 -0.1330
 3763ntf    on523499   2.029   6.806   4.660 -0.0507  0.3327  0.0437
 3763ntf    on523500   1.794   6.730   4.689  0.4393 -0.4973 -0.1007
 3763ntf    on523501   1.884   7.178   4.815  0.4620 -0.2577 -0.4094
 3763ntf    on523502   2.089   7.042   4.849  0.3602  0.6498 -0.2460
 3763ntf    fn423503   1.987   6.981   5.101 -0.0177 -0.2942 -0.1888
 3763ntf    fn423504   1.924   7.174   5.095 -0.4349 -0.2558  0.0662
 3763ntf    fn423505   1.778   7.018   5.057 -0.0974 -0.2345  0.3272
 3764ntf    cn123506   4.879   1.543   6.430  0.0699  0.4068 -0.2891
 3764ntf    sn223507   4.844   1.717   6.389 -0.3787  0.4007  0.0497
 3764ntf    nn323508   4.874   1.795   6.522  0.5492  0.5773 -0.2555
 3764ntf    sn223509   4.772   1.815   6.639  0.7257  0.0640 -0.0116
 3764ntf    cn123510   4.687   1.969   6.594 -0.2032 -0.5342 -0.3272
 3764ntf    fn423511   4.810   1.467   6.347  0.1505 -0.1035  0.1063
 3764ntf    fn423512   5.004   1.513   6.401 -0.0389 -0.1009 -0.2474
 3764ntf    fn423513   4.836   1.516   6.553  0.2783  0.0735 -0.2884
 3764ntf    on523514   4.949   1.748   6.294 -0.3240  0.4222  0.1169
 3764ntf    on523515   4.710   1.718   6.338 -0.2552  0.0366 -0.2919
 3764ntf    on523516   4.832   1.847   6.767 -0.0051 -0.2333  0.4144
 3764ntf    on523517   4.667   1.716   6.640  0.5922  0.2045 -0.0818
 3764ntf    fn423518   4.760   2.079   6.607 -0.0118 -0.6715 -0.2447
 3764ntf    fn423519   4.648   1.966   6.468  0.3734 -0.9727 -0.4990
 3764ntf    fn423520   4.579   1.988   6.669  0.0678  0.6799 -0.2140
 3765ntf    cn123521   5.391   1.947   4.298  0.3585 -0.4137 -0.0327
 3765ntf    sn223522   5.274   1.921   4.435  0.0111  0.0789 -0.2317
 3765ntf    nn323523   5.264   1.764   4.434  0.3786  0.0571 -0.5609
 3765ntf    sn223524   5.356   1.667   4.517  0.0251 -0.1642 -0.4286
 3765ntf    cn123525   5.318   1.518   4.421 -0.3302 -0.3117 -0.0628
 3765ntf    fn423526   5.508   1.886   4.293  0.4279 -0.2361 -0.6955
 3765ntf    fn423527   5.334   1.922   4.181 -0.2393  0.0683  0.1471
 3765ntf    fn423528   5.416   2.076   4.289 -0.0116 -0.3430 -0.0640
 3765ntf    on523529   5.341   1.971   4.553 -0.3864 -0.0077  0.0349
 3765ntf    on523530   5.154   1.986   4.391 -0.0699  0.1443  0.0782
 3765ntf    on523531   5.307   1.646   4.651  0.4289  0.0019 -0.2551
 3765ntf    on523532   5.499   1.674   4.498  0.1556 -0.3440  0.4452
 3765ntf    fn423533   5.195   1.469   4.427 -0.2096 -0.5021  1.0137
 3765ntf    fn423534   5.361   1.533   4.297  0.5398  0.1673  0.2830
 3765ntf    fn423535   5.381   1.416   4.478  0.2861 -0.0272 -0.2311
 3766ntf    cn123536   5.958   6.333   0.585  0.2360 -0.2907  0.0871
 3766ntf    sn223537   5.855   6.202   0.512  0.2089 -0.0824 -0.2526
 3766ntf    nn323538   5.831   6.105   0.633  0.0984  0.1210 -0.1102
 3766ntf    sn223539   5.733   6.118   0.756  0.3409 -0.0659  0.1051
 3766ntf    cn123540   5.810   6.000   0.871  0.1003 -0.3568 -0.0295
 3766ntf    fn423541   5.884   6.432   0.631  0.5903  0.0709 -0.1103
 3766ntf    fn423542   6.040   6.294   0.681 -0.5410  0.4807  1.0798
 3766ntf    fn423543   6.031   6.385   0.487 -0.0589  0.0791  0.0611
 3766ntf    on523544   5.738   6.270   0.461 -0.0462 -0.1022  0.2911
 3766ntf    on523545   5.931   6.138   0.408  0.1836  0.4084 -0.5801
 3766ntf    on523546   5.610   6.053   0.719  0.9035 -0.9006 -0.3381
 3766ntf    on523547   5.728   6.239   0.834 -0.1179  0.0694 -0.1313
 3766ntf    fn423548   5.736   5.998   0.981  0.4241 -0.3814  0.1869
 3766ntf    fn423549   5.825   5.878   0.823 -0.0336 -0.2155 -0.4292
 3766ntf    fn423550   5.926   6.038   0.921 -0.1256  0.2641  0.0349
 3767ntf    cn123551   0.798   1.350   6.992  0.0054  0.2486  0.0341
 3767ntf    sn223552   0.935   1.438   6.910 -0.0606  0.0630 -0.2765
 3767ntf    nn323553   0.850   1.564   6.870 -0.8230 -0.3325  0.0750
 3767ntf    sn223554   0.826   1.701   6.943  0.4760 -0.1509  0.1779
 3767ntf    cn123555   0.661   1.742   6.881  0.4146 -0.1329  0.3522
 3767ntf    fn423556   0.696   1.335   6.910  0.0224  0.1522  0.0311
 3767ntf    fn423557   0.826   1.228   7.032 -0.1497  0.1737 -0.0861
 3767ntf    fn423558   0.755   1.424   7.093  0.7936 -0.0640  0.6011
 3767ntf    on523559   1.040   1.455   7.007 -0.1435 -0.2285 -0.1338
 3767ntf    on523560   0.949   1.354   6.794 -0.2569 -0.4144  0.0407
 3767ntf    on523561   0.911   1.804   6.889 -0.0033  0.0230 -0.2476
 3767ntf    on523562   0.810   1.681   7.085  0.7181  1.2664  0.4237
 3767ntf    fn423563   0.577   1.642   6.905 -0.1167  0.1816 -0.1780
 3767ntf    fn423564   0.611   1.853   6.933  0.1511 -0.1262  0.0902
 3767ntf    fn423565   0.655   1.764   6.751 -0.7342  0.3009  0.4686
 3768ntf    cn123566   6.274   5.337   4.992 -0.0206 -0.4454 -0.2646
 3768ntf    sn223567   6.292   5.404   5.160  0.1614 -0.1908 -0.3850
 3768ntf    nn323568   6.362   5.284   5.233 -0.1296  0.2413  0.6220
 3768ntf    sn223569   6.514   5.250   5.254 -0.0546  0.3445  0.2607
 3768ntf    cn123570   6.565   5.360   5.389  0.2209  0.6346 -0.0776
 3768ntf    fn423571   6.229   5.425   4.904 -0.3680  0.0695  0.4153
 3768ntf    fn423572   6.390   5.300   4.941  0.3829 -0.1463  0.4334
 3768ntf    fn423573   6.208   5.223   4.996 -0.5167 -0.1717 -0.4858
 3768ntf    on523574   6.375   5.522   5.148 -0.7239  0.4684 -0.1333
 3768ntf    on523575   6.157   5.423   5.207  0.3226  0.3889 -0.1497
 3768ntf    on523576   6.602   5.278   5.144  0.0801 -0.5567  0.1318
 3768ntf    on523577   6.525   5.117   5.310  0.5673  0.4460  0.3770
 3768ntf    fn423578   6.672   5.319   5.455  0.2155 -0.0343 -0.4699
 3768ntf    fn423579   6.599   5.479   5.344  0.3571  0.7013  0.2030
 3768ntf    fn423580   6.465   5.371   5.475  0.2093  0.3737 -0.0574
 3769ntf    cn123581   3.128   2.620   2.911 -0.3194 -0.1395 -0.0081
 3769ntf    sn223582   3.094   2.705   3.069  0.2879 -0.0604  0.0842
 3769ntf    nn323583   3.000   2.821   3.022  0.0069 -0.1102  0.5249
 3769ntf    sn223584   2.843   2.830   3.015  0.0226 -0.1471  0.1070
 3769ntf    cn123585   2.819   2.899   2.849 -0.0038 -0.2320  0.0758
 3769ntf    fn423586   3.126   2.706   2.811  0.2214 -0.4105 -0.2571
 3769ntf    fn423587   3.246   2.562   2.901  0.1382  0.8194 -0.3216
 3769ntf    fn423588   3.033   2.528   2.905 -0.2083 -0.3277  0.9232
 3769ntf    on523589   3.030   2.606   3.152 -1.0236  0.3580 -0.4013
 3769ntf    on523590   3.227   2.742   3.112  0.1286  0.3984  0.1842
 3769ntf    on523591   2.785   2.944   3.082 -0.2156 -0.3338  0.2183
 3769ntf    on523592   2.771   2.706   2.999 -0.0176 -0.1356  0.1974
 3769ntf    fn423593   2.888   2.836   2.755  0.4068  0.0100  0.2103
 3769ntf    fn423594   2.697   2.888   2.799  0.1689 -0.2498 -0.3519
 3769ntf    fn423595   2.855   3.026   2.845  0.6019 -0.3853  0.5616
 3770ntf    cn123596   6.294   5.406   5.936 -0.2205  0.4157 -0.1358
 3770ntf    sn223597   6.413   5.490   6.043 -0.2710 -0.0527  0.2926
 3770ntf    nn323598   6.534   5.392   6.027 -0.1267  0.1075  0.3917
 3770ntf    sn223599   6.661   5.410   5.936 -0.3679 -0.0603  0.0167
 3770ntf    cn123600   6.723   5.245   5.891  0.2425  0.1050  0.2359
 3770ntf    fn423601   6.292   5.279   5.973 -0.3951  0.3824 -0.2561
 3770ntf    fn423602   6.169   5.448   5.950 -0.4074 -0.2309  0.1834
 3770ntf    fn423603   6.328   5.404   5.808 -0.1203 -0.4630 -0.1066
 3770ntf    on523604   6.428   5.622   5.987  0.4363 -0.3408 -0.2144
 3770ntf    on523605   6.348   5.486   6.172  0.3823  0.0193  0.6334
 3770ntf    on523606   6.767   5.467   6.017 -0.4215 -0.4637  0.3781
 3770ntf    on523607   6.635   5.466   5.806 -0.5375 -0.0785  0.0427
 3770ntf    fn423608   6.745   5.164   5.993 -0.2463  0.1840  0.4069
 3770ntf    fn423609   6.630   5.180   5.823 -0.0155  0.1109  0.5808
 3770ntf    fn423610   6.834   5.249   5.819  0.1040 -0.4465 -0.0090
 3771ntf    cn123611   3.982   1.334   0.876 -0.1782  0.0760 -0.3715
 3771ntf    sn223612   4.114   1.433   0.799  0.1840 -0.2334 -0.1508
 3771ntf    nn323613   4.208   1.460   0.922 -0.1842 -0.1658  0.1166
 3771ntf    sn223614   4.339   1.378   0.947  0.0346  0.1540  0.0296
 3771ntf    cn123615   4.346   1.409   1.126 -0.0998 -0.3113  0.1174
 3771ntf    fn423616   3.990   1.339   1.008  0.1922 -0.1688 -0.3861
 3771ntf    fn423617   3.864   1.388   0.848  0.1578  0.7365 -0.5393
 3771ntf    fn423618   3.987   1.207   0.841 -0.3042 -0.0152 -0.0590
 3771ntf    on523619   4.171   1.349   0.696 -0.1938 -0.3455 -0.2720
 3771ntf    on523620   4.051   1.553   0.749 -0.2331 -0.1134  0.6461
 3771ntf    on523621   4.461   1.431   0.890  0.4491 -0.0252  0.7416
 3771ntf    on523622   4.323   1.236   0.927 -0.1693  0.0950  0.5908
 3771ntf    fn423623   4.241   1.365   1.192 -0.1462 -0.1693  0.1387
 3771ntf    fn423624   4.449   1.351   1.187  0.2053 -0.2161 -0.3036
 3771ntf    fn423625   4.349   1.540   1.149  0.3396 -0.3127  0.0814
 3772ntf    cn123626   6.345   5.938   2.661  0.3013 -0.1032  0.1310
 3772ntf    sn223627   6.304   5.796   2.766 -0.0822 -0.0770  0.0169
 3772ntf    nn323628   6.438   5.715   2.761 -0.1318 -0.1727  0.2279
 3772ntf    sn223629   6.551   5.717   2.870  0.1899 -0.1669 -0.1022
 3772ntf    cn123630   6.472   5.610   2.995  0.0797  0.1251  0.0785
 3772ntf    fn423631   6.246   6.025   2.673  0.3210 -0.0953  0.2373
 3772ntf    fn423632   6.450   6.009   2.700  0.0417  0.1820  0.3221
 3772ntf    fn423633   6.363   5.909   2.533 -0.5015  0.1309 -0.0404
 3772ntf    on523634   6.267   5.854   2.893  0.1756 -0.2550  0.1730
 3772ntf    on523635   6.192   5.731   2.702 -0.3653  0.6809 -0.2669
 3772ntf    on523636   6.570   5.840   2.943 -0.0432 -0.4634  0.4650
 3772ntf    on523637   6.667   5.644   2.825  0.2850 -0.1602  0.1298
 3772ntf    fn423638   6.346   5.635   3.025 -0.0256 -0.5613  0.2195
 3772ntf    fn423639   6.472   5.487   2.948 -0.5134 -0.0558  0.5441
 3772ntf    fn423640   6.537   5.591   3.109  0.3555  0.1756 -0.0711
 3773ntf    cn123641   0.622   0.403   5.561 -0.0960  0.0894  0.2899
 3773ntf    sn223642   0.474   0.489   5.499 -0.0591 -0.0526  0.0043
 3773ntf    nn323643   0.422   0.381   5.397  0.2052 -0.2080  0.0333
 3773ntf    sn223644   0.311   0.272   5.417  0.2303 -0.2225  0.0959
 3773ntf    cn123645   0.160   0.359   5.365  0.1366 -0.3861  0.0962
 3773ntf    fn423646   0.710   0.491   5.605  0.0507  0.1905 -0.2072
 3773ntf    fn423647   0.598   0.316   5.658 -0.2194  0.0083  0.1879
 3773ntf    fn423648   0.677   0.336   5.461 -0.3330 -0.0025  0.2204
 3773ntf    on523649   0.389   0.535   5.606  0.4011 -0.0844  0.3877
 3773ntf    on523650   0.545   0.592   5.427  0.0843 -0.5931 -0.6407
 3773ntf    on523651   0.302   0.227   5.553  0.0308  0.7435  0.4117
 3773ntf    on523652   0.329   0.170   5.317  0.7891 -0.3782  0.3533
 3773ntf    fn423653   0.170   0.433   5.256  0.4171  0.0554  0.4205
 3773ntf    fn423654   0.059   0.277   5.341 -0.5247  0.3078  0.4759
 3773ntf    fn423655   0.114   0.438   5.461 -0.0108  0.0316 -0.3151
 3774ntf    cn123656   7.181   2.077   5.951 -0.2536 -0.0901 -0.1535
 3774ntf    sn223657   7.001   2.051   5.960 -0.2748  0.0156 -0.2510
 3774ntf    nn323658   7.016   1.897   5.932  0.9965  0.0057  0.4229
 3774ntf    sn223659   7.008   1.766   6.018  0.1825 -0.0764  0.2261
 3774ntf    cn123660   6.830   1.738   5.996  0.2691 -0.2336 -0.2919
 3774ntf    fn423661   7.216   2.131   5.835 -0.9868 -0.0353 -0.3536
 3774ntf    fn423662   7.210   2.162   6.048 -0.1180  0.2970 -0.5311
 3774ntf    fn423663   7.253   1.968   5.971 -0.0934  0.1086  0.3512
 3774ntf    on523664   6.968   2.093   6.094 -0.3856 -0.2405 -0.1965
 3774ntf    on523665   6.936   2.122   5.854  0.4743  0.2883 -0.5327
 3774ntf    on523666   7.022   1.784   6.161  0.3041  0.3754  0.1585
 3774ntf    on523667   7.064   1.648   5.956  0.2311  0.0008  0.1243
 3774ntf    fn423668   6.753   1.810   6.077  0.3176 -0.1386 -0.3311
 3774ntf    fn423669   6.802   1.776   5.873 -0.0407 -0.2001 -0.2136
 3774ntf    fn423670   6.790   1.613   6.011 -0.2754 -0.0230  0.0324
 3775ntf    cn123671   3.807   6.234   1.938  0.2257  0.1753 -0.4873
 3775ntf    sn223672   3.861   6.098   2.045 -0.0812  0.3941 -0.0541
 3775ntf    nn323673   3.778   6.128   2.175 -0.9234 -0.1892 -0.4441
 3775ntf    sn223674   3.731   6.039   2.296  0.1024 -0.4896 -0.2584
 3775ntf    cn123675   3.644   6.170   2.385 -0.1648 -0.6089 -0.3411
 3775ntf    fn423676   3.731   6.196   1.836 -0.5673 -0.8294  0.4552
 3775ntf    fn423677   3.751   6.331   2.008  0.4566 -0.4225  0.5367
 3775ntf    fn423678   3.914   6.290   1.884  0.2842  0.3370 -0.2062
 3775ntf    on523679   3.830   5.973   1.979 -0.1561  0.2486  0.2517
 3775ntf    on523680   4.003   6.116   2.051 -0.0704  0.3429 -0.1486
 3775ntf    on523681   3.836   5.996   2.384 -0.2158 -0.1238  0.3013
 3775ntf    on523682   3.633   5.944   2.248 -0.3186 -0.0481 -0.2737
 3775ntf    fn423683   3.728   6.269   2.409 -0.0410 -0.8315  0.1561
 3775ntf    fn423684   3.552   6.232   2.313 -0.0664  0.2611  0.2580
 3775ntf    fn423685   3.587   6.132   2.499  0.1564  0.2171  0.1085
 3776ntf    cn123686   5.315   6.750   6.464 -0.3024  0.2189 -0.2630
 3776ntf    sn223687   5.358   6.589   6.536 -0.3518  0.2670 -0.1248
 3776ntf    nn323688   5.351   6.506   6.403  0.0748  0.4134 -0.2391
 3776ntf    sn223689   5.463   6.457   6.303  0.0933 -0.1639  0.0590
 3776ntf    cn123690   5.365   6.335   6.210 -0.1159 -0.1109  0.2094
 3776ntf    fn423691   5.372   6.778   6.348  0.3400 -0.3072 -0.0837
 3776ntf    fn423692   5.187   6.771   6.440 -0.3235  0.2328 -0.1430
 3776ntf    fn423693   5.346   6.846   6.550  0.5747  0.4234 -0.7922
 3776ntf    on523694   5.484   6.601   6.605 -0.3751  0.1099 -0.0530
 3776ntf    on523695   5.248   6.554   6.622  0.1870 -0.1983  0.3897
 3776ntf    on523696   5.567   6.385   6.371 -0.2244 -0.5281  0.1640
 3776ntf    on523697   5.498   6.552   6.200  0.1821 -0.6691 -0.3769
 3776ntf    fn423698   5.355   6.223   6.279  0.0153  0.2539  0.8351
 3776ntf    fn423699   5.241   6.366   6.173  0.1201 -0.0389 -0.5258
 3776ntf    fn423700   5.433   6.302   6.102  0.1945  0.5624  0.1960
 3777ntf    cn123701   0.766   2.855   2.131 -0.1180  0.1806 -0.3002
 3777ntf    sn223702   0.808   2.945   1.979  0.3581  0.4044 -0.0349
 3777ntf    nn323703   0.744   2.858   1.866  0.5407  0.3093 -0.0658
 3777ntf    sn223704   0.638   2.895   1.756  0.1179  0.3463  0.3495
 3777ntf    cn123705   0.726   2.863   1.600 -0.1438  0.2529  0.2195
 3777ntf    fn423706   0.803   2.728   2.134 -0.2465  0.1467 -0.0633
 3777ntf    fn423707   0.802   2.920   2.241 -0.4418 -0.5475  0.2455
 3777ntf    fn423708   0.636   2.848   2.155  0.0064  0.0363  0.3552
 3777ntf    on523709   0.757   3.080   1.991 -0.2718  0.1420  0.2918
 3777ntf    on523710   0.950   2.921   1.984  0.2184 -0.3348  0.5633
 3777ntf    on523711   0.605   3.035   1.751  0.0534  0.3282  0.2675
 3777ntf    on523712   0.536   2.793   1.758  0.1558  0.3148  0.7144
 3777ntf    fn423713   0.821   2.953   1.581  0.3794 -0.1868  0.7151
 3777ntf    fn423714   0.785   2.744   1.593 -0.1464  0.2843 -0.3309
 3777ntf    fn423715   0.646   2.871   1.495  0.1491 -0.1750 -0.0426
 3778ntf    cn123716   2.807   0.472   4.780  0.1167 -0.0361 -0.5046
 3778ntf    sn223717   2.844   0.347   4.654 -0.1188 -0.1398 -0.4717
 3778ntf    nn323718   2.988   0.304   4.698 -0.0876  0.0468 -0.3915
 3778ntf    sn223719   3.117   0.284   4.610 -0.0670  0.0975 -0.3736
 3778ntf    cn123720   3.181   0.127   4.676  0.3680  0.5193  0.2117
 3778ntf    fn423721   2.678   0.500   4.784  0.0562 -0.3955  0.2279
 3778ntf    fn423722   2.851   0.454   4.903 -0.1487  0.7083 -0.2909
 3778ntf    fn423723   2.872   0.584   4.750  0.3741  0.1726  0.7489
 3778ntf    on523724   2.744   0.246   4.674  0.3031 -0.5256 -0.3056
 3778ntf    on523725   2.829   0.419   4.530  0.0944  0.2755 -0.2577
 3778ntf    on523726   3.220   0.379   4.645  0.3679 -0.3560 -0.4118
 3778ntf    on523727   3.097   0.252   4.471  0.1145 -0.1918 -0.3342
 3778ntf    fn423728   3.098   0.030   4.643  0.4347  0.5807 -0.1429
 3778ntf    fn423729   3.303   0.104   4.630  0.3543  0.4069  0.2329
 3778ntf    fn423730   3.199   0.134   4.807  0.1476 -0.6806  0.3115
 3779ntf    cn123731   2.471   2.366   6.918  0.0815 -0.4415 -0.2480
 3779ntf    sn223732   2.472   2.383   7.099 -0.1066 -0.2874 -0.2606
 3779ntf    nn323733   2.504   2.237   7.148  0.2131 -0.1120  0.0544
 3779ntf    sn223734   2.563   2.200   7.289  0.1519 -0.4290 -0.0024
 3779ntf    cn123735   2.488   2.037   7.318 -0.3335 -0.2127 -0.0340
 3779ntf    fn423736   2.444   2.479   6.854  0.2492 -0.3749 -0.2000
 3779ntf    fn423737   2.585   2.326   6.864  0.1749 -0.0412 -0.3530
 3779ntf    fn423738   2.384   2.281   6.867 -0.7710  0.2914 -0.0458
 3779ntf    on523739   2.576   2.481   7.108 -0.3191 -0.0953  0.0934
 3779ntf    on523740   2.338   2.421   7.136  0.0086 -0.5250  0.4092
 3779ntf    on523741   2.508   2.270   7.402 -0.4689 -0.2252 -0.4256
 3779ntf    on523742   2.703   2.167   7.290  0.3221  0.2578 -0.4200
 3779ntf    fn423743   2.533   1.967   7.421  0.2821  0.0668 -0.1081
 3779ntf    fn423744   2.358   2.055   7.334 -0.4392 -0.7633 -0.2370
 3779ntf    fn423745   2.494   1.948   7.220  0.3137  0.2837 -0.4550
 3780ntf    cn123746   0.014   0.188   2.868 -0.2192 -0.3082 -0.4625
 3780ntf    sn223747   0.094   0.025   2.860  0.2719 -0.0855 -0.1389
 3780ntf    nn323748  -0.027  -0.074   2.843  0.0220  0.0972  0.5652
 3780ntf    sn223749  -0.022  -0.230   2.822 -0.3430  0.1255  0.2721
 3780ntf    cn123750  -0.008  -0.243   2.641 -0.0897 -0.5911  0.3407
 3780ntf    fn423751   0.099   0.285   2.897  0.1804 -0.7968  0.0277
 3780ntf    fn423752  -0.037   0.216   2.749 -0.6900  0.7066 -0.0324
 3780ntf    fn423753  -0.092   0.188   2.947 -0.0129  0.1088 -0.1796
 3780ntf    on523754   0.181   0.030   2.745  0.1163  0.2786 -0.2407
 3780ntf    on523755   0.158   0.007   2.988  0.2016  0.1898 -0.0656
 3780ntf    on523756  -0.152  -0.287   2.845 -0.2212 -0.2964 -0.0831
 3780ntf    on523757   0.091  -0.290   2.888 -0.3681 -0.0846  0.1231
 3780ntf    fn423758   0.093  -0.173   2.593 -0.2203 -0.7622 -0.1844
 3780ntf    fn423759  -0.016  -0.366   2.594  0.1020 -0.4431 -0.0885
 3780ntf    fn423760  -0.112  -0.183   2.586  0.4993  0.0908 -0.0589
   7.25189   7.25189   7.25189
