Converted from moscito
16200
    1SOL     ow    1   2.571   6.324   6.251 -0.4011 -0.5969  0.4151
    1SOL     hw    2   2.629   6.389   6.210  0.0582 -2.1004 -1.4660
    1SOL     hw    3   2.584   6.338   6.345  2.4575 -0.3244  0.0944
    1SOL     vw    4   2.581   6.335   6.258  0.0366 -0.7591  0.1245
    2SOL     ow    5   4.889   2.869   4.206  0.0590  0.2121 -0.0871
    2SOL     hw    6   4.931   2.842   4.288 -1.3645 -0.2000  0.5417
    2SOL     hw    7   4.870   2.962   4.217  1.5648  0.6135 -0.7293
    2SOL     vw    8   4.892   2.878   4.219  0.0699  0.2108 -0.0892
    3SOL     ow    9   4.804   4.159   5.140 -0.5074 -0.0931  0.0509
    3SOL     hw   10   4.800   4.098   5.066 -0.9322 -0.2160  0.1729
    3SOL     hw   11   4.842   4.107   5.211 -1.0263 -0.2718  0.2041
    3SOL     vw   12   4.809   4.144   5.139 -0.6318 -0.1328  0.0873
    4SOL     ow   13   4.845   3.744   1.460  0.0238 -0.4225 -0.6021
    4SOL     hw   14   4.818   3.831   1.432  2.5210  0.3136 -1.0384
    4SOL     hw   15   4.867   3.754   1.553  0.9937 -0.3737 -0.8261
    4SOL     vw   16   4.845   3.757   1.468  0.4814 -0.3189 -0.6891
    5SOL     ow   17   5.468   6.495   1.385 -0.3573 -0.1243 -0.1808
    5SOL     hw   18   5.448   6.589   1.382  0.9378  0.1490 -1.4909
    5SOL     hw   19   5.523   6.480   1.307 -0.8254 -2.0363 -0.1785
    5SOL     vw   20   5.473   6.505   1.374 -0.2482 -0.3402 -0.3533
    6SOL     ow   21   1.834   4.717   3.685 -0.8174  0.5236 -0.8306
    6SOL     hw   22   1.766   4.708   3.751  0.5557 -0.8829  0.4788
    6SOL     hw   23   1.794   4.769   3.615 -2.4221  1.7806  0.9393
    6SOL     vw   24   1.820   4.723   3.684 -0.8480  0.5038 -0.4243
    7SOL     ow   25   4.641   3.825   0.596 -0.0282  0.0874 -0.2640
    7SOL     hw   26   4.663   3.774   0.518 -1.8624  1.7925 -2.0200
    7SOL     hw   27   4.658   3.916   0.571 -2.7345  0.8854  0.4709
    7SOL     vw   28   4.646   3.830   0.582 -0.6273  0.4177 -0.3987
    8SOL     ow   29   3.371   1.772   1.691 -0.6555 -0.2729 -0.4056
    8SOL     hw   30   3.282   1.789   1.662 -0.9443 -1.3057 -0.1676
    8SOL     hw   31   3.407   1.858   1.712 -0.9558  0.3582 -2.2909
    8SOL     vw   32   3.364   1.786   1.690 -0.7333 -0.3259 -0.6230
    9SOL     ow   33   1.200   3.341   3.100 -0.6187 -0.0137  0.4716
    9SOL     hw   34   1.239   3.360   3.014  0.2595 -0.8338  0.6831
    9SOL     hw   35   1.207   3.424   3.148  0.8683 -0.1271  0.4962
    9SOL     vw   36   1.206   3.355   3.095 -0.3067 -0.1367  0.5028
   10SOL     ow   37   2.750   3.095   4.560  0.0387  0.3148  0.1207
   10SOL     hw   38   2.674   3.037   4.569  0.4987 -0.0034  2.5966
   10SOL     hw   39   2.735   3.165   4.624  1.7719  0.2894  0.6062
   10SOL     vw   40   2.738   3.096   4.570  0.3281  0.2694  0.5114
   11SOL     ow   41   6.553   2.660   4.763 -0.0467  0.7782  0.2600
   11SOL     hw   42   6.518   2.695   4.844 -0.6442  0.8125 -0.0102
   11SOL     hw   43   6.576   2.737   4.711 -0.9701  0.7859 -0.1634
   11SOL     vw   44   6.552   2.675   4.767 -0.2472  0.7837  0.1686
   12SOL     ow   45   1.162   2.091   6.335  0.6862  0.2146 -0.3205
   12SOL     hw   46   1.167   2.174   6.383  1.9078  0.4501 -0.8199
   12SOL     hw   47   1.152   2.117   6.243  0.8799 -0.1837 -0.4579
   12SOL     vw   48   1.161   2.106   6.329  0.8730  0.1932 -0.4046
   13SOL     ow   49   0.750   6.855   0.070  0.2462  0.0118 -0.0248
   13SOL     hw   50   0.673   6.844   0.015  0.0014  1.6438 -0.0552
   13SOL     hw   51   0.745   6.782   0.133 -2.1880  0.9433  0.9883
   13SOL     vw   52   0.739   6.844   0.071 -0.1073  0.3501  0.1049
   14SOL     ow   53   3.130   6.009   0.984  0.1063 -0.6531 -0.0788
   14SOL     hw   54   3.051   5.966   1.017 -1.4071  1.6446 -0.4511
   14SOL     hw   55   3.105   6.101   0.977  2.0610 -0.2122 -2.5313
   14SOL     vw   56   3.116   6.015   0.987  0.1645 -0.2918 -0.4515
   15SOL     ow   57   0.046   3.149   5.467  0.3089  0.3911  0.0317
   15SOL     hw   58  -0.005   3.226   5.442  0.9459  0.9283  0.3595
   15SOL     hw   59   0.111   3.141   5.397  2.6657  2.4184  1.8023
   15SOL     vw   60   0.048   3.158   5.454  0.7039  0.7294  0.3085
   16SOL     ow   61   4.810   0.550   6.032  0.2433  0.0010 -0.3612
   16SOL     hw   62   4.889   0.589   5.995  0.3413  0.3906  0.2510
   16SOL     hw   63   4.744   0.559   5.964  1.6689 -3.9272 -2.6082
   16SOL     vw   64   4.811   0.556   6.018  0.4444 -0.4659 -0.5770
   17SOL     ow   65   2.857   6.142   6.256  0.4573 -0.5819 -0.0110
   17SOL     hw   66   2.945   6.108   6.238  0.6246 -1.0302  1.5450
   17SOL     hw   67   2.873   6.227   6.298  0.1787 -1.0271  1.0131
   17SOL     vw   68   2.871   6.149   6.259  0.4427 -0.6995  0.3295
   18SOL     ow   69   4.491   1.133   4.302  0.2785 -0.5512  0.4065
   18SOL     hw   70   4.396   1.121   4.303 -0.2011  2.2451  3.3216
   18SOL     hw   71   4.509   1.182   4.222 -1.4268  2.3547  1.6487
   18SOL     vw   72   4.481   1.138   4.291 -0.0098  0.2011  0.9549
   19SOL     ow   73   0.643   2.214   0.608 -0.6854 -0.0575 -0.4243
   19SOL     hw   74   0.629   2.154   0.534 -1.7122 -0.1932 -0.1419
   19SOL     hw   75   0.712   2.273   0.579 -0.4064 -0.7133 -1.1230
   19SOL     vw   76   0.650   2.214   0.594 -0.7840 -0.1620 -0.4792
   20SOL     ow   77   4.796   5.306   3.241 -0.4098 -0.1227 -0.0741
   20SOL     hw   78   4.798   5.214   3.266 -0.3657 -0.1875 -0.3094
   20SOL     hw   79   4.842   5.351   3.311 -0.0557 -0.3335 -0.1681
   20SOL     vw   80   4.802   5.300   3.253 -0.3569 -0.1593 -0.1177
   21SOL     ow   81   1.919   1.069   2.857  1.0515  0.0006  0.0053
   21SOL     hw   82   1.856   1.077   2.929 -0.9118  0.3513 -1.6732
   21SOL     hw   83   1.921   1.156   2.817 -1.5295 -1.2379 -3.1905
   21SOL     vw   84   1.911   1.082   2.861  0.4519 -0.1166 -0.6379
   22SOL     ow   85   5.139   0.577   5.426  0.2980  0.3341 -0.1663
   22SOL     hw   86   5.190   0.650   5.461  0.8089  0.8873 -1.9556
   22SOL     hw   87   5.152   0.506   5.489  2.6595  0.7119 -0.1514
   22SOL     vw   88   5.147   0.577   5.439  0.6771  0.4569 -0.4005
   23SOL     ow   89   1.362   1.402   0.226 -0.2028  0.0186 -0.0109
   23SOL     hw   90   1.444   1.399   0.276 -0.4593  0.8463  0.4760
   23SOL     hw   91   1.315   1.478   0.261 -0.9321 -0.1132 -0.6739
   23SOL     vw   92   1.367   1.412   0.237 -0.3328  0.1105 -0.0341
   24SOL     ow   93   2.812   6.275   1.914  0.0706 -0.0172 -0.1237
   24SOL     hw   94   2.827   6.339   1.984 -0.7551 -0.9927  0.9794
   24SOL     hw   95   2.870   6.202   1.936  1.8195  0.7308 -1.9684
   24SOL     vw   96   2.822   6.274   1.926  0.1923 -0.0470 -0.2215
   25SOL     ow   97   0.848   3.000   2.156  0.1743  0.4878 -0.2026
   25SOL     hw   98   0.877   2.933   2.094  1.2297  0.2122  0.5654
   25SOL     hw   99   0.927   3.048   2.179 -0.1893  0.5768  0.9277
   25SOL     vw  100   0.862   2.997   2.151  0.2656  0.4632  0.0479
   26SOL     ow  101   6.388   3.276   2.636 -0.3673 -0.1765  0.8298
   26SOL     hw  102   6.380   3.208   2.703  1.1173 -1.5917 -0.3678
   26SOL     hw  103   6.477   3.310   2.647 -0.2305 -0.1806 -0.1965
   26SOL     vw  104   6.399   3.271   2.646 -0.1535 -0.3637  0.5364
   27SOL     ow  105   4.457   0.851   6.357  0.0915  0.2064 -0.3782
   27SOL     hw  106   4.522   0.811   6.416  2.6764  1.5170 -2.1501
   27SOL     hw  107   4.414   0.776   6.315  0.3167 -0.7029  0.9363
   27SOL     vw  108   4.460   0.836   6.359  0.4623  0.2594 -0.4387
   28SOL     ow  109   6.488   5.271   5.091  0.2024 -0.9735  0.7065
   28SOL     hw  110   6.427   5.296   5.160  0.2971 -1.8469  1.1156
   28SOL     hw  111   6.443   5.295   5.010  1.3439  3.0244  1.0313
   28SOL     vw  112   6.474   5.278   5.089  0.3655 -0.5610  0.8032
   29SOL     ow  113   5.536   3.756   0.635  0.3413 -0.0349  0.2102
   29SOL     hw  114   5.472   3.706   0.685 -1.4227  0.4240 -1.4685
   29SOL     hw  115   5.554   3.702   0.558 -1.3428  1.6005 -1.4716
   29SOL     vw  116   5.530   3.742   0.631 -0.1137  0.2414 -0.2332
   30SOL     ow  117   4.166   4.967   6.358 -0.9738  0.6087 -0.1229
   30SOL     hw  118   4.118   5.003   6.432 -1.3235  3.3485 -1.5389
   30SOL     hw  119   4.102   4.912   6.312 -1.4086  0.6680  0.4082
   30SOL     vw  120   4.151   4.965   6.362 -1.0774  0.9780 -0.2396
   31SOL     ow  121   3.554   2.471   3.816  0.1439 -0.9771  0.7806
   31SOL     hw  122   3.495   2.544   3.838  0.6739  0.1708 -1.3794
   31SOL     hw  123   3.502   2.415   3.759  0.3996 -1.2257  0.7933
   31SOL     vw  124   3.539   2.473   3.812  0.2476 -0.8584  0.4973
   32SOL     ow  125   5.092   2.629   0.537 -0.0915  0.5992 -0.1346
   32SOL     hw  126   5.144   2.590   0.467 -1.1136  0.1707 -0.6660
   32SOL     hw  127   5.072   2.717   0.506 -2.2977 -0.2649 -1.3681
   32SOL     vw  128   5.096   2.636   0.524 -0.5174  0.4287 -0.3675
   33SOL     ow  129   4.465   3.618   0.799  0.2827  0.2512  0.2122
   33SOL     hw  130   4.519   3.581   0.868  0.8160  0.4066 -0.1119
   33SOL     hw  131   4.411   3.545   0.769  0.7028 -0.0452  0.1712
   33SOL     vw  132   4.465   3.603   0.804  0.4084  0.2326  0.1640
   34SOL     ow  133   5.232   0.813   4.044 -0.1885  0.2021  0.0062
   34SOL     hw  134   5.139   0.796   4.031 -0.0177 -2.9139  1.9204
   34SOL     hw  135   5.236   0.862   4.126 -0.1297 -0.2713  0.2900
   34SOL     vw  136   5.220   0.817   4.053 -0.1583 -0.2715  0.2964
   35SOL     ow  137   6.603   1.817   2.780 -0.1391  0.0659 -0.6157
   35SOL     hw  138   6.697   1.832   2.771  0.2382 -1.4684  0.3850
   35SOL     hw  139   6.577   1.776   2.697 -0.4655  2.5936 -1.8734
   35SOL     vw  140   6.612   1.814   2.768 -0.1321  0.1969 -0.6496
   36SOL     ow  141   3.783   0.396   0.741  0.5633 -0.0854 -0.0488
   36SOL     hw  142   3.821   0.454   0.675 -1.4878  1.5534  0.1118
   36SOL     hw  143   3.731   0.333   0.691 -0.6386  0.8846 -0.0362
   36SOL     vw  144   3.781   0.395   0.725  0.1342  0.2588 -0.0259
   37SOL     ow  145   3.427   1.929   3.011  0.2843 -0.4916 -0.1841
   37SOL     hw  146   3.426   2.016   3.052 -0.3440 -0.9765  0.8812
   37SOL     hw  147   3.513   1.923   2.970  0.8475  0.1418  0.8465
   37SOL     vw  148   3.438   1.940   3.011  0.2756 -0.4720  0.0924
   38SOL     ow  149   2.701   4.074   2.237 -0.0095 -0.2941  0.2390
   38SOL     hw  150   2.755   4.153   2.239 -0.0992 -0.2037 -0.5053
   38SOL     hw  151   2.699   4.044   2.328 -1.8400  1.8190  0.9998
   38SOL     vw  152   2.707   4.080   2.249 -0.2627 -0.0033  0.2412
   39SOL     ow  153   2.454   3.798   3.830 -0.2190 -0.0514 -0.0638
   39SOL     hw  154   2.450   3.794   3.734  1.6475 -1.1161 -0.1475
   39SOL     hw  155   2.363   3.800   3.858 -0.9708 -3.5543 -1.7672
   39SOL     vw  156   2.442   3.798   3.821 -0.0720 -0.6541 -0.2996
   40SOL     ow  157   1.069   2.677   4.666  0.4873  0.1510  0.4996
   40SOL     hw  158   0.975   2.662   4.659  0.3163  1.6609 -1.2173
   40SOL     hw  159   1.078   2.772   4.675  1.8623  0.2619 -1.3047
   40SOL     vw  160   1.058   2.687   4.666  0.6462  0.3648  0.0350
   41SOL     ow  161   5.499   0.768   0.746 -0.0971 -0.3616 -0.0582
   41SOL     hw  162   5.528   0.858   0.757  1.2860 -0.9286  1.2726
   41SOL     hw  163   5.421   0.774   0.691 -1.9366  1.9394  2.5496
   41SOL     vw  164   5.492   0.781   0.740 -0.1576 -0.1328  0.4615
   42SOL     ow  165   2.087   0.095   4.125  0.6850  0.3873  0.1567
   42SOL     hw  166   2.120   0.045   4.050 -0.6046  2.3098 -1.8246
   42SOL     hw  167   2.064   0.028   4.190  1.2153 -1.4252 -1.4223
   42SOL     vw  168   2.088   0.079   4.124  0.5848  0.4018 -0.3130
   43SOL     ow  169   0.950   0.124   2.514 -0.5835 -0.8049 -0.4084
   43SOL     hw  170   0.943   0.219   2.503  2.1496 -0.5714 -0.8618
   43SOL     hw  171   0.865   0.090   2.484 -1.1367  1.3936 -1.5486
   43SOL     vw  172   0.938   0.132   2.508 -0.2958 -0.4840 -0.6187
   44SOL     ow  173   3.298   4.927   0.808  0.6379  0.1818 -0.0386
   44SOL     hw  174   3.215   4.914   0.762 -0.5307  0.4923  1.9087
   44SOL     hw  175   3.290   5.011   0.852  1.2790 -0.5681  1.5950
   44SOL     vw  176   3.286   4.936   0.807  0.5682  0.1237  0.4338
   45SOL     ow  177   4.206   5.323   6.294 -0.2915  0.0715  0.3650
   45SOL     hw  178   4.200   5.366   6.209 -2.2591  1.3306  1.0865
   45SOL     hw  179   4.192   5.392   6.358 -1.2049 -1.2179  1.6435
   45SOL     vw  180   4.204   5.338   6.291 -0.6716  0.0677  0.6287
   46SOL     ow  181   3.814   4.135   4.721  0.6693 -0.4692  0.4870
   46SOL     hw  182   3.730   4.092   4.702  0.2996  0.1808  0.6360
   46SOL     hw  183   3.831   4.116   4.813  0.6725 -0.5764  0.4644
   46SOL     vw  184   3.805   4.127   4.730  0.6207 -0.3979  0.5035
   47SOL     ow  185   2.973   4.893   0.129 -0.5271  1.1181  0.5152
   47SOL     hw  186   3.011   4.853   0.208  0.7455  2.2269  0.5053
   47SOL     hw  187   3.038   4.876   0.061  0.7478  4.2306  0.7942
   47SOL     vw  188   2.986   4.885   0.131 -0.1911  1.6751  0.5507
   48SOL     ow  189   3.091   2.083   6.157 -0.2324 -0.1520  1.0171
   48SOL     hw  190   3.108   2.076   6.251  0.6041  0.6596  0.9320
   48SOL     hw  191   3.076   2.176   6.142 -1.1734 -0.3807  0.4683
   48SOL     vw  192   3.091   2.094   6.168 -0.2463 -0.0752  0.9336
   49SOL     ow  193   6.159   6.827   4.325 -0.3697 -0.2606  0.1307
   49SOL     hw  194   6.214   6.902   4.302  0.9591 -1.6988 -1.6973
   49SOL     hw  195   6.074   6.845   4.285  0.0266  0.1591 -0.5344
   49SOL     vw  196   6.155   6.839   4.317 -0.1419 -0.3948 -0.1981
   50SOL     ow  197   6.066   2.073   0.096 -0.0935 -0.3475  0.4889
   50SOL     hw  198   6.059   1.985   0.057  0.9008 -0.5946  0.8293
   50SOL     hw  199   6.065   2.057   0.190  1.1697 -0.1063  0.5598
   50SOL     vw  200   6.065   2.059   0.103  0.2043 -0.3482  0.5431
   51SOL     ow  201   2.641   5.654   5.205 -0.0057  0.1579 -0.3795
   51SOL     hw  202   2.562   5.680   5.157  0.8726  0.8044 -1.5404
   51SOL     hw  203   2.674   5.578   5.158  0.7235  0.6357 -0.6637
   51SOL     vw  204   2.635   5.647   5.193  0.2064  0.3061 -0.5703
   52SOL     ow  205   6.474   3.790   2.181 -0.1256 -0.2221 -0.5489
   52SOL     hw  206   6.401   3.830   2.228  0.9073  0.5300  0.4700
   52SOL     hw  207   6.435   3.715   2.135 -1.6083  0.4367 -0.4135
   52SOL     vw  208   6.459   3.785   2.181 -0.1850 -0.0360 -0.3966
   53SOL     ow  209   5.184   6.654   5.336 -0.5951 -0.2061 -0.0461
   53SOL     hw  210   5.217   6.741   5.355  0.0493 -0.2662 -0.8361
   53SOL     hw  211   5.091   6.667   5.317 -0.2165  0.5466 -1.5904
   53SOL     vw  212   5.176   6.667   5.336 -0.4599 -0.1147 -0.3541
   54SOL     ow  213   2.254   4.525   6.807  0.1574  0.0443 -0.2097
   54SOL     hw  214   2.336   4.479   6.823 -0.5450 -1.2201 -0.0751
   54SOL     hw  215   2.197   4.497   6.879 -0.7378  0.0273 -0.9053
   54SOL     vw  216   2.257   4.515   6.819 -0.0533 -0.1249 -0.2837
   55SOL     ow  217   1.781   4.168   2.302  0.1095 -0.4835 -0.4017
   55SOL     hw  218   1.812   4.079   2.287 -0.7561 -0.5545 -1.9142
   55SOL     hw  219   1.841   4.223   2.253  0.8689 -0.1684  0.8326
   55SOL     vw  220   1.793   4.164   2.294  0.0955 -0.4513 -0.4382
   56SOL     ow  221   0.996   3.844   3.381  0.0015 -0.2570 -0.0682
   56SOL     hw  222   0.988   3.761   3.332 -1.5820 -0.5185  0.5746
   56SOL     hw  223   1.089   3.851   3.401  0.4818 -0.8687 -1.8559
   56SOL     vw  224   1.007   3.834   3.377 -0.1441 -0.3722 -0.2192
   57SOL     ow  225   6.629   0.775   3.200 -0.2462  1.1660 -0.2810
   57SOL     hw  226   6.720   0.784   3.171  1.0029 -0.8874  2.5199
   57SOL     hw  227   6.578   0.817   3.131  2.6328  0.3252 -3.1933
   57SOL     vw  228   6.634   0.781   3.187  0.2983  0.7842 -0.2956
   58SOL     ow  229   4.329   0.818   0.414  0.0406  0.2917 -0.0345
   58SOL     hw  230   4.366   0.827   0.327  0.7056 -3.4483 -0.3225
   58SOL     hw  231   4.270   0.743   0.407 -0.5883  0.4575  2.5180
   58SOL     vw  232   4.326   0.809   0.402  0.0453 -0.1799  0.2643
   59SOL     ow  233   2.096   3.277   1.890 -0.0470 -0.1721  0.0925
   59SOL     hw  234   2.157   3.219   1.844 -0.5069 -2.5700  2.2268
   59SOL     hw  235   2.009   3.245   1.866 -0.3042 -0.5341  1.3904
   59SOL     vw  236   2.093   3.265   1.881 -0.1415 -0.5363  0.5453
   60SOL     ow  237   0.386   3.477   4.589  0.0537 -0.0232  0.5243
   60SOL     hw  238   0.396   3.505   4.498 -3.1209 -1.9428 -0.6104
   60SOL     hw  239   0.342   3.551   4.632 -0.6181  0.0067 -0.1837
   60SOL     vw  240   0.381   3.491   4.583 -0.4538 -0.2725  0.2811
   61SOL     ow  241   1.354   4.293   0.558 -0.1108  0.7333  0.4162
   61SOL     hw  242   1.276   4.308   0.504 -1.3350 -1.0518  1.5688
   61SOL     hw  243   1.340   4.348   0.635  0.5705  1.6172 -0.0770
   61SOL     vw  244   1.342   4.303   0.561 -0.1824  0.6144  0.5032
   62SOL     ow  245   0.555   4.194   2.497  0.4146  0.1640 -0.1456
   62SOL     hw  246   0.493   4.175   2.427  0.7232 -0.7951 -0.1696
   62SOL     hw  247   0.579   4.286   2.484  0.8620 -0.1358 -1.6192
   62SOL     vw  248   0.550   4.204   2.486  0.5144 -0.0021 -0.3431
   63SOL     ow  249   3.013   4.049   4.997 -0.1193  0.0195  0.1363
   63SOL     hw  250   3.026   4.112   5.068  1.9757 -1.1890  0.9159
   63SOL     hw  251   2.955   3.982   5.035 -0.4200  0.2618  0.1076
   63SOL     vw  252   3.007   4.048   5.012  0.1175 -0.1080  0.2353
   64SOL     ow  253   3.208   2.816   3.406  0.2458  0.3032 -0.6080
   64SOL     hw  254   3.193   2.907   3.381 -1.7769  0.0770 -0.4537
   64SOL     hw  255   3.295   2.815   3.444  0.0877  2.2959 -0.0885
   64SOL     vw  256   3.217   2.828   3.408 -0.0420  0.5362 -0.5192
   65SOL     ow  257   3.160   1.589   3.325  0.9217  0.4757 -0.0455
   65SOL     hw  258   3.133   1.521   3.386 -0.1605  0.3579 -0.6349
   65SOL     hw  259   3.141   1.671   3.370 -0.5014  0.3954 -0.4619
   65SOL     vw  260   3.154   1.591   3.339  0.5913  0.4496 -0.1782
   66SOL     ow  261   5.380   1.730   2.098  0.8219 -0.4503 -0.3463
   66SOL     hw  262   5.345   1.678   2.171 -0.1471 -0.6639 -0.9391
   66SOL     hw  263   5.333   1.697   2.021 -0.6409  2.0098 -0.6179
   66SOL     vw  264   5.369   1.718   2.097  0.5009 -0.1540 -0.4603
   67SOL     ow  265   3.978   5.178   0.896  0.0737  0.7479 -0.2453
   67SOL     hw  266   3.910   5.170   0.830  0.0945  1.4021 -0.3484
   67SOL     hw  267   3.935   5.220   0.970 -0.3740 -1.3781  0.8001
   67SOL     vw  268   3.963   5.182   0.897  0.0174  0.5541 -0.1209
   68SOL     ow  269   6.372   4.943   1.987  0.2799 -0.3816  0.5971
   68SOL     hw  270   6.396   4.866   2.038  0.8178 -0.2848  0.4978
   68SOL     hw  271   6.447   4.957   1.929 -1.7311 -2.7301 -2.9591
   68SOL     vw  272   6.385   4.935   1.986  0.0854 -0.6785  0.1149
   69SOL     ow  273   5.355   1.424   1.116 -0.0262 -0.6108 -0.0158
   69SOL     hw  274   5.273   1.411   1.069  1.1534  0.6206 -2.5981
   69SOL     hw  275   5.399   1.339   1.113 -0.0278 -0.5878 -1.1168
   69SOL     vw  276   5.350   1.411   1.110  0.1292 -0.4454 -0.5018
   70SOL     ow  277   4.334   6.369   2.975 -0.5721  0.3894 -0.5283
   70SOL     hw  278   4.345   6.340   2.884  4.3993 -1.8793  0.4197
   70SOL     hw  279   4.376   6.456   2.977  1.4814 -0.5407 -0.1539
   70SOL     vw  280   4.341   6.377   2.963  0.3548 -0.0327 -0.3537
   71SOL     ow  281   4.079   0.683   4.897 -0.0561  0.7005  0.0124
   71SOL     hw  282   4.070   0.606   4.840  0.0014 -0.6235  1.7091
   71SOL     hw  283   3.995   0.690   4.942  0.1795  1.1971  0.3875
   71SOL     vw  284   4.067   0.674   4.895 -0.0176  0.5913  0.2859
   72SOL     ow  285   1.189   2.205   4.264  0.4025 -0.6888 -0.3539
   72SOL     hw  286   1.215   2.118   4.293 -0.7901 -1.2275 -0.8161
   72SOL     hw  287   1.131   2.237   4.333 -1.1837 -1.3311 -1.3179
   72SOL     vw  288   1.185   2.198   4.277  0.0359 -0.8446 -0.5422
   73SOL     ow  289   1.352   2.658   4.858  0.5550 -0.0715 -0.5048
   73SOL     hw  290   1.333   2.643   4.951  1.4643  1.3439 -0.0573
   73SOL     hw  291   1.434   2.610   4.842  0.2662 -0.5247 -0.6615
   73SOL     vw  292   1.360   2.649   4.868  0.6368  0.0556 -0.4663
   74SOL     ow  293   3.381   3.213   0.368 -0.2288 -0.3046 -0.4636
   74SOL     hw  294   3.390   3.232   0.461 -1.5089 -0.6003 -0.2695
   74SOL     hw  295   3.323   3.282   0.335  1.4679  0.7551 -1.4005
   74SOL     vw  296   3.375   3.225   0.376 -0.1738 -0.2037 -0.5616
   75SOL     ow  297   4.994   3.107   0.452  0.6443  0.1259 -0.0805
   75SOL     hw  298   4.942   3.081   0.376  1.2150 -0.9763 -0.1107
   75SOL     hw  299   4.974   3.042   0.519  1.2282  0.2595  0.2350
   75SOL     vw  300   4.985   3.095   0.450  0.7966 -0.0019 -0.0429
   76SOL     ow  301   4.998   2.825   3.907 -0.4033 -0.4551  0.2665
   76SOL     hw  302   5.037   2.792   3.826  0.1670 -1.4774  0.9339
   76SOL     hw  303   5.001   2.920   3.897  0.4477 -0.5464 -0.5535
   76SOL     vw  304   5.004   2.833   3.895 -0.2158 -0.6021  0.2463
   77SOL     ow  305   4.780   1.207   4.369  0.8011 -0.4296  0.0560
   77SOL     hw  306   4.870   1.225   4.394  0.9580 -1.0407 -0.0612
   77SOL     hw  307   4.786   1.137   4.304  0.1386 -1.7259  1.3448
   77SOL     vw  308   4.793   1.200   4.364  0.7343 -0.6813  0.2105
   78SOL     ow  309   1.828   4.012   6.321  0.3057 -0.8892 -0.0150
   78SOL     hw  310   1.872   3.936   6.359  1.4193 -0.9166 -1.2543
   78SOL     hw  311   1.898   4.059   6.275 -1.0021 -1.1365 -2.4304
   78SOL     vw  312   1.843   4.008   6.320  0.2801 -0.9251 -0.4971
   79SOL     ow  313   6.016   1.388   1.222  0.8473 -0.3773  0.1592
   79SOL     hw  314   6.042   1.439   1.145 -1.9202  0.4667 -0.3305
   79SOL     hw  315   6.044   1.441   1.297 -0.3313  1.0310 -0.3408
   79SOL     vw  316   6.023   1.402   1.222  0.3266 -0.0801  0.0286
   80SOL     ow  317   5.001   0.131   3.089  0.1838  0.2557 -0.6256
   80SOL     hw  318   4.918   0.166   3.120 -0.5591 -1.8216 -0.1043
   80SOL     hw  319   4.979   0.046   3.050  1.9149  0.1586 -1.5137
   80SOL     vw  320   4.987   0.124   3.088  0.3140 -0.0312 -0.6740
   81SOL     ow  321   2.088   6.523   3.283 -0.2032 -0.7392  0.5553
   81SOL     hw  322   2.058   6.460   3.348 -0.5460 -1.9384 -0.7094
   81SOL     hw  323   2.178   6.543   3.307 -1.2230  1.2572  3.1768
   81SOL     vw  324   2.096   6.517   3.295 -0.3831 -0.6340  0.7343
   82SOL     ow  325   3.427   5.657   1.889  0.1250  0.1268 -0.2124
   82SOL     hw  326   3.428   5.716   1.814  0.6945 -2.3202 -2.2756
   82SOL     hw  327   3.496   5.690   1.946 -0.1600  1.9234 -0.8450
   82SOL     vw  328   3.436   5.669   1.887  0.1625  0.0412 -0.5681
   83SOL     ow  329   4.572   6.555   5.666 -0.2086  0.2500 -0.2249
   83SOL     hw  330   4.607   6.586   5.750 -0.6416  1.6222 -0.5141
   83SOL     hw  331   4.481   6.532   5.685 -0.8322  2.1808 -0.6111
   83SOL     vw  332   4.564   6.556   5.680 -0.3481  0.6857 -0.3140
   84SOL     ow  333   1.139   0.510   6.344 -0.7324 -0.3057 -0.4862
   84SOL     hw  334   1.093   0.535   6.263 -2.5665  2.9207  1.3521
   84SOL     hw  335   1.224   0.553   6.337 -1.1913  0.6423 -0.4104
   84SOL     vw  336   1.144   0.519   6.332 -1.0349  0.2451 -0.2337
   85SOL     ow  337   6.182   2.848   1.175  0.2148 -0.6395 -0.1903
   85SOL     hw  338   6.241   2.827   1.248  0.1283  0.5215  0.2445
   85SOL     hw  339   6.096   2.821   1.204  0.1247  0.1448  0.3056
   85SOL     vw  340   6.179   2.842   1.188  0.1915 -0.3829 -0.0675
   86SOL     ow  341   3.764   3.995   0.179 -0.3919  0.0959 -0.4960
   86SOL     hw  342   3.800   4.031   0.097  1.3946  0.5267  0.4324
   86SOL     hw  343   3.719   3.915   0.152  1.5485 -0.6548 -1.7489
   86SOL     vw  344   3.763   3.989   0.164  0.0999  0.0536 -0.5388
   87SOL     ow  345   5.145   1.121   4.921 -0.0597 -0.5650 -0.0464
   87SOL     hw  346   5.108   1.088   5.003 -0.7764  2.3681  0.9068
   87SOL     hw  347   5.151   1.215   4.933  3.9583 -0.3760 -1.7164
   87SOL     vw  348   5.141   1.129   4.933  0.3760 -0.1531 -0.1409
   88SOL     ow  349   4.132   2.521   1.122 -0.1851  0.0426 -0.2789
   88SOL     hw  350   4.194   2.474   1.177  0.0074  0.0878 -0.4576
   88SOL     hw  351   4.110   2.600   1.172 -1.4778 -0.8258  0.6005
   88SOL     vw  352   4.137   2.525   1.136 -0.3304 -0.0659 -0.1864
   89SOL     ow  353   3.698   5.200   4.468  0.6330  0.0931  0.1386
   89SOL     hw  354   3.628   5.205   4.533  1.8484 -1.4100  1.6339
   89SOL     hw  355   3.705   5.107   4.447  0.8419  0.4555 -1.5404
   89SOL     vw  356   3.689   5.189   4.474  0.8208 -0.0575  0.1147
   90SOL     ow  357   5.183   3.918   5.774 -0.0870  0.5648 -0.5008
   90SOL     hw  358   5.271   3.906   5.738 -0.7035  1.5625 -2.5443
   90SOL     hw  359   5.169   3.843   5.831  2.0205  0.3060 -0.2519
   90SOL     vw  360   5.193   3.907   5.777  0.1101  0.6623 -0.7377
   91SOL     ow  361   4.764   0.136   4.554 -0.3546 -0.3398  0.0197
   91SOL     hw  362   4.697   0.201   4.576  2.5303  2.1103  2.3620
   91SOL     hw  363   4.802   0.167   4.472  0.5006  0.5479  0.7365
   91SOL     vw  364   4.760   0.148   4.546  0.1390  0.1006  0.4232
   92SOL     ow  365   5.213   0.841   3.731 -0.4393 -0.6952  0.0370
   92SOL     hw  366   5.228   0.814   3.641  2.6128 -1.3139  0.6091
   92SOL     hw  367   5.125   0.880   3.731 -1.0065 -1.7591 -2.8943
   92SOL     vw  368   5.203   0.843   3.719 -0.1113 -0.9172 -0.2742
   93SOL     ow  369   6.335   1.221   2.293  0.4648  0.7310 -0.0404
   93SOL     hw  370   6.396   1.278   2.340 -0.8428  3.0925 -1.0110
   93SOL     hw  371   6.264   1.205   2.355  0.6525  0.4676  0.1074
   93SOL     vw  372   6.333   1.227   2.307  0.3173  1.0078 -0.1489
   94SOL     ow  373   2.620   0.840   5.251 -0.1441 -0.4984  0.6140
   94SOL     hw  374   2.664   0.911   5.299  0.1783 -0.1552 -0.1786
   94SOL     hw  375   2.620   0.869   5.160  0.7008 -1.8582  0.1460
   94SOL     vw  376   2.626   0.853   5.245  0.0100 -0.6325  0.4480
   95SOL     ow  377   1.001   5.810   3.758 -0.4347 -0.0072  0.6563
   95SOL     hw  378   1.009   5.809   3.663  1.5504  0.6100  0.7695
   95SOL     hw  379   1.079   5.857   3.788  1.6780 -4.3083  2.8080
   95SOL     vw  380   1.012   5.816   3.749  0.1060 -0.4933  0.9550
   96SOL     ow  381   4.193   1.796   1.119  0.8289 -0.0430  0.7453
   96SOL     hw  382   4.102   1.774   1.142  0.6854  0.2540  0.4742
   96SOL     hw  383   4.207   1.882   1.159  0.9355 -0.0157  0.6495
   96SOL     vw  384   4.183   1.805   1.127  0.8237 -0.0002  0.6969
   97SOL     ow  385   2.736   5.280   2.589  0.1118 -0.4130 -0.3526
   97SOL     hw  386   2.740   5.296   2.683  2.7004  2.0109 -0.7107
   97SOL     hw  387   2.644   5.259   2.571 -0.2728 -1.9075  2.7769
   97SOL     vw  388   2.724   5.279   2.599  0.4027 -0.2902  0.0130
   98SOL     ow  389   5.200   5.204   2.353  0.1995 -0.1905 -1.1955
   98SOL     hw  390   5.172   5.116   2.325 -0.1281 -0.3526 -0.3845
   98SOL     hw  391   5.212   5.252   2.271  1.2151 -1.2385 -1.6882
   98SOL     vw  392   5.198   5.199   2.339  0.2904 -0.3502 -1.1535
   99SOL     ow  393   1.628   4.986   6.593 -0.1796  0.1277  0.0118
   99SOL     hw  394   1.629   5.038   6.674 -2.2845  1.6086 -0.8382
   99SOL     hw  395   1.604   4.898   6.622 -0.6125  0.5671  1.0328
   99SOL     vw  396   1.625   4.981   6.608 -0.5146  0.3810  0.0343
  100SOL     ow  397   6.746   0.117   1.935 -0.6428  0.6293  0.5080
  100SOL     hw  398   6.713   0.207   1.938 -2.9055  0.1272 -3.1251
  100SOL     hw  399   6.824   0.121   1.879 -1.6946  0.2330 -1.0742
  100SOL     vw  400   6.752   0.129   1.928 -1.0803  0.5108 -0.1801
  101SOL     ow  401   2.026   2.038   2.543 -0.5849  0.3864 -0.2910
  101SOL     hw  402   1.999   1.983   2.617  3.2882  0.0557  1.0861
  101SOL     hw  403   1.951   2.095   2.527 -2.7337 -1.6265  1.8108
  101SOL     vw  404   2.013   2.038   2.550 -0.3573  0.0772  0.1680
  102SOL     ow  405   5.703   0.413   5.787  0.3323  0.8525 -0.4675
  102SOL     hw  406   5.645   0.456   5.724 -0.2038 -0.0366 -0.5975
  102SOL     hw  407   5.718   0.326   5.750  1.9061  1.1168 -0.5221
  102SOL     vw  408   5.698   0.407   5.774  0.4690  0.7701 -0.4919
  103SOL     ow  409   1.756   3.553   4.709 -0.1803  0.0429 -0.1413
  103SOL     hw  410   1.757   3.457   4.704 -0.8262  0.0776 -1.2862
  103SOL     hw  411   1.809   3.581   4.634  1.3217  0.5940  1.0751
  103SOL     vw  412   1.763   3.544   4.698 -0.0675  0.1202 -0.1318
  104SOL     ow  413   6.826   5.801   2.236  0.3245 -0.1829 -0.2382
  104SOL     hw  414   6.826   5.717   2.191  2.2472 -0.3956  0.0550
  104SOL     hw  415   6.890   5.854   2.188  1.8354 -0.1557  1.6617
  104SOL     vw  416   6.835   5.797   2.224  0.7772 -0.2077  0.0511
  105SOL     ow  417   0.165   1.120   3.142  0.6195  0.3548  0.3253
  105SOL     hw  418   0.221   1.045   3.124  0.2092  0.0847  0.1798
  105SOL     hw  419   0.106   1.090   3.210 -0.4826  0.0866 -0.7293
  105SOL     vw  420   0.165   1.107   3.149  0.4200  0.2838  0.1669
  106SOL     ow  421   4.243   5.045   1.058 -0.1379 -0.4205  0.6308
  106SOL     hw  422   4.338   5.036   1.053 -0.2321 -1.2507 -2.9416
  106SOL     hw  423   4.211   4.957   1.078 -0.1749 -0.5002  0.2338
  106SOL     vw  424   4.251   5.032   1.060 -0.1554 -0.5407  0.1071
  107SOL     ow  425   1.603   3.159   0.933 -0.4017  0.0555 -0.0202
  107SOL     hw  426   1.545   3.191   0.864 -0.3831 -0.5194 -0.3067
  107SOL     hw  427   1.678   3.121   0.886  1.3236  2.7499  0.3344
  107SOL     vw  428   1.606   3.158   0.918 -0.1717  0.3352 -0.0112
  108SOL     ow  429   2.441   5.040   4.495  0.0430  0.4025  0.1421
  108SOL     hw  430   2.516   5.067   4.547  0.3105 -0.2595  0.1042
  108SOL     hw  431   2.397   4.974   4.548 -0.2794  0.4859 -0.0181
  108SOL     vw  432   2.445   5.035   4.509  0.0358  0.3262  0.1159
  109SOL     ow  433   5.213   4.204   1.157 -0.6112 -0.4750  0.6639
  109SOL     hw  434   5.291   4.218   1.103  0.0098 -0.2319  1.5926
  109SOL     hw  435   5.227   4.260   1.234 -1.3662 -0.9677  1.1712
  109SOL     vw  436   5.225   4.213   1.160 -0.6287 -0.5078  0.8534
  110SOL     ow  437   6.212   1.021   0.217 -0.8801  0.6108 -0.3963
  110SOL     hw  438   6.174   0.934   0.225 -0.7616  0.5161 -0.8749
  110SOL     hw  439   6.302   1.012   0.249 -1.5219  1.0505  1.7045
  110SOL     vw  440   6.219   1.009   0.223 -0.9489  0.6564 -0.1822
  111SOL     ow  441   1.895   5.527   5.791 -0.1988  0.3775 -0.0521
  111SOL     hw  442   1.987   5.517   5.816  0.7430  1.4591 -2.6985
  111SOL     hw  443   1.859   5.589   5.854  1.5450  1.6813 -0.2663
  111SOL     vw  444   1.903   5.533   5.802  0.1556  0.6924 -0.4294
  112SOL     ow  445   4.057   2.259   2.816 -0.0609 -0.4259 -0.1199
  112SOL     hw  446   4.099   2.266   2.902  0.1369  0.6079 -0.2845
  112SOL     hw  447   4.095   2.331   2.765  1.6612 -2.4551 -1.8860
  112SOL     vw  448   4.068   2.270   2.820  0.1926 -0.5573 -0.3746
  113SOL     ow  449   0.311   5.055   2.080  0.0402 -0.1613 -0.4503
  113SOL     hw  450   0.255   5.025   2.008  0.5065  1.1927 -1.4167
  113SOL     hw  451   0.387   5.093   2.037 -0.4243  2.2014  0.6398
  113SOL     vw  452   0.313   5.056   2.065  0.0404  0.3293 -0.4339
  114SOL     ow  453   2.527   1.272   2.566 -0.0998  0.4346 -0.3669
  114SOL     hw  454   2.558   1.182   2.554  0.1478  0.3819  0.6582
  114SOL     hw  455   2.446   1.276   2.515 -0.6752 -0.6861  0.4289
  114SOL     vw  456   2.520   1.261   2.557 -0.1432  0.2798 -0.1266
  115SOL     ow  457   4.366   1.879   6.291  0.1364 -0.3349  0.6890
  115SOL     hw  458   4.390   1.972   6.292 -0.3075 -0.2187  1.4460
  115SOL     hw  459   4.292   1.873   6.351 -1.2838 -0.8075 -1.0270
  115SOL     vw  460   4.359   1.891   6.299 -0.1097 -0.3819  0.5624
  116SOL     ow  461   2.579   5.939   5.326  0.2400 -0.9404 -0.2713
  116SOL     hw  462   2.665   5.975   5.307 -0.6177  0.6859 -1.3177
  116SOL     hw  463   2.553   5.980   5.409  0.0190 -0.5128 -0.5440
  116SOL     vw  464   2.587   5.949   5.335  0.0976 -0.6697 -0.4454
  117SOL     ow  465   3.721   6.274   4.386 -0.0994 -0.1171  0.7576
  117SOL     hw  466   3.769   6.203   4.428  0.9097  0.8996  1.3980
  117SOL     hw  467   3.644   6.287   4.441 -0.0730 -0.4301  0.8695
  117SOL     vw  468   3.717   6.267   4.399  0.0372 -0.0243  0.8569
  118SOL     ow  469   0.043   3.080   5.764  0.1520 -0.2041  0.4764
  118SOL     hw  470   0.046   2.993   5.802  1.2800 -0.2171  0.3714
  118SOL     hw  471  -0.046   3.111   5.784 -0.7132 -1.8387 -0.5855
  118SOL     vw  472   0.032   3.073   5.772  0.1867 -0.4214  0.3223
  119SOL     ow  473   6.331   0.044   0.272  0.4959 -0.4428 -0.0698
  119SOL     hw  474   6.245   0.085   0.286  0.1070 -0.5505 -1.9126
  119SOL     hw  475   6.380   0.109   0.220  1.5731 -0.3556  1.0086
  119SOL     vw  476   6.326   0.058   0.267  0.5867 -0.4455 -0.1706
  120SOL     ow  477   1.519   4.994   6.285  0.0946 -0.1935  0.1844
  120SOL     hw  478   1.548   4.903   6.287  0.4620 -0.1380 -1.4195
  120SOL     hw  479   1.539   5.024   6.196  1.5299  1.9666  1.1642
  120SOL     vw  480   1.525   4.986   6.273  0.3325  0.0987  0.1018
  121SOL     ow  481   0.187   5.910   4.735  0.1548  0.0795 -0.6100
  121SOL     hw  482   0.191   5.825   4.691  0.5833 -0.7280  0.9209
  121SOL     hw  483   0.258   5.960   4.696  0.5194 -0.6138 -0.8626
  121SOL     vw  484   0.197   5.905   4.724  0.2594 -0.1183 -0.4416
  122SOL     ow  485   2.291   0.946   6.357  0.0663 -0.4483 -0.8695
  122SOL     hw  486   2.340   0.867   6.379  0.0300 -0.2987 -0.2314
  122SOL     hw  487   2.353   1.017   6.375  0.1630 -0.3321 -1.6145
  122SOL     vw  488   2.306   0.945   6.362  0.0744 -0.4133 -0.8836
  123SOL     ow  489   6.367   0.124   5.029 -0.8522 -0.0038  1.2408
  123SOL     hw  490   6.337   0.036   5.053  0.3633 -1.2058 -1.1618
  123SOL     hw  491   6.427   0.108   4.955 -0.2960  2.8386  0.9871
  123SOL     vw  492   6.371   0.110   5.022 -0.6185  0.2127  0.8903
  124SOL     ow  493   3.492   5.141   5.837 -0.2277  0.3318  0.0947
  124SOL     hw  494   3.485   5.048   5.857 -3.7381  0.2957 -0.7864
  124SOL     hw  495   3.446   5.152   5.754  1.8136  2.6155 -0.8574
  124SOL     vw  496   3.485   5.130   5.829 -0.4216  0.6285 -0.1471
  125SOL     ow  497   5.779   1.255   6.583 -0.1652  0.0715 -0.6081
  125SOL     hw  498   5.734   1.300   6.654  1.8961  0.2985  0.6475
  125SOL     hw  499   5.766   1.312   6.507 -2.2736 -0.0932 -0.4080
  125SOL     vw  500   5.772   1.269   6.582 -0.1712  0.0797 -0.4160
  126SOL     ow  501   3.530   2.953   0.289 -0.4021  0.0373  0.3139
  126SOL     hw  502   3.479   2.879   0.258  0.7500 -0.3312 -0.8177
  126SOL     hw  503   3.567   2.925   0.372  0.2196 -0.7702 -0.2218
  126SOL     vw  504   3.528   2.940   0.296 -0.1681 -0.1179  0.0939
  127SOL     ow  505   1.857   4.910   4.816  0.9084 -0.1541  0.3712
  127SOL     hw  506   1.917   4.927   4.889 -1.3270  1.3636  1.9656
  127SOL     hw  507   1.812   4.829   4.841 -0.1837  0.6103  0.9684
  127SOL     vw  508   1.859   4.901   4.829  0.4694  0.1469  0.6604
  128SOL     ow  509   3.262   5.602   3.165  0.3785  0.3057 -0.6935
  128SOL     hw  510   3.271   5.589   3.259  0.9036  3.0537 -0.2814
  128SOL     hw  511   3.219   5.687   3.156 -3.0329 -1.3707 -2.9521
  128SOL     vw  512   3.257   5.612   3.176 -0.0023  0.4468 -0.9370
  129SOL     ow  513   5.046   1.425   0.498  0.0069  0.8804 -0.0695
  129SOL     hw  514   4.986   1.379   0.556  0.1529  0.3734 -0.3173
  129SOL     hw  515   5.093   1.485   0.556 -0.8239  1.3770  0.1037
  129SOL     vw  516   5.045   1.427   0.513 -0.0834  0.8790 -0.0793
  130SOL     ow  517   5.555   2.974   0.156  0.4915  0.1781  0.2613
  130SOL     hw  518   5.604   2.967   0.074  1.0394 -0.4584  0.6272
  130SOL     hw  519   5.609   2.927   0.220 -1.0002 -1.3270  0.4889
  130SOL     vw  520   5.569   2.967   0.154  0.3667 -0.1043  0.3396
  131SOL     ow  521   2.358   0.479   2.831 -0.1676  0.2600  0.4095
  131SOL     hw  522   2.415   0.404   2.810 -0.8247  0.1684 -1.1955
  131SOL     hw  523   2.288   0.441   2.884  2.2215  0.7214  4.2986
  131SOL     vw  524   2.356   0.464   2.835  0.0608  0.3088  0.7107
  132SOL     ow  525   2.405   2.005   6.754  0.0621 -1.0751 -0.0452
  132SOL     hw  526   2.399   2.082   6.810  1.1424  0.9219 -2.4373
  132SOL     hw  527   2.315   1.975   6.745 -1.0557  2.2313 -1.8760
  132SOL     vw  528   2.392   2.012   6.760  0.0572 -0.3754 -0.6022
  133SOL     ow  529   3.423   1.688   3.167 -0.2913 -0.8380 -0.1548
  133SOL     hw  530   3.409   1.780   3.145  0.1083 -1.4811 -3.7107
  133SOL     hw  531   3.503   1.665   3.120 -1.2937 -3.3827 -0.7613
  133SOL     vw  532   3.432   1.697   3.158 -0.3709 -1.2586 -0.7041
  134SOL     ow  533   3.669   0.518   3.613  0.3168  0.2409 -0.1462
  134SOL     hw  534   3.710   0.514   3.526 -0.7569  0.0881 -0.6590
  134SOL     hw  535   3.742   0.514   3.674  0.9649 -2.4675 -0.9805
  134SOL     vw  536   3.684   0.517   3.610  0.2607 -0.1366 -0.3240
  135SOL     ow  537   3.343   1.086   3.962 -0.4521 -0.6432 -0.8817
  135SOL     hw  538   3.281   1.155   3.936 -0.2746 -0.4321 -0.7523
  135SOL     hw  539   3.288   1.018   4.001 -0.5005  0.0996  0.4063
  135SOL     vw  540   3.327   1.087   3.964 -0.4351 -0.5174 -0.6948
  136SOL     ow  541   2.822   3.787   0.578 -0.4474 -0.4118  0.4992
  136SOL     hw  542   2.907   3.742   0.571  0.3651  1.3310 -2.7095
  136SOL     hw  543   2.835   3.852   0.647  0.6570 -0.5398  0.4289
  136SOL     vw  544   2.835   3.790   0.587 -0.1944 -0.1988  0.0666
  137SOL     ow  545   2.912   4.721   6.089 -0.1133 -0.6244 -0.2185
  137SOL     hw  546   2.956   4.792   6.134  0.4533 -0.1575 -1.4629
  137SOL     hw  547   2.819   4.743   6.093 -0.1163 -0.8094  1.0486
  137SOL     vw  548   2.906   4.733   6.095 -0.0387 -0.5872 -0.2155
  138SOL     ow  549   3.386   3.294   5.814 -0.0091 -0.2708 -0.7487
  138SOL     hw  550   3.449   3.236   5.771 -0.6208 -0.2445 -1.7145
  138SOL     hw  551   3.396   3.276   5.908  0.1700 -1.5658 -1.0018
  138SOL     vw  552   3.395   3.284   5.821 -0.0662 -0.4382 -0.9096
  139SOL     ow  553   3.242   2.043   0.521 -0.4220 -0.1768  0.4675
  139SOL     hw  554   3.287   2.004   0.596  2.8615 -0.0941 -1.2556
  139SOL     hw  555   3.247   1.977   0.452  1.7104  1.6200 -1.2928
  139SOL     vw  556   3.249   2.029   0.522  0.2924  0.0712  0.0079
  140SOL     ow  557   4.701   6.036   2.021  0.1727  0.2843  0.1089
  140SOL     hw  558   4.623   6.041   2.077 -1.6227  0.5513 -2.2277
  140SOL     hw  559   4.728   5.944   2.027 -1.8518 -0.4435 -0.8418
  140SOL     vw  560   4.694   6.024   2.029 -0.3312  0.2236 -0.3248
  141SOL     ow  561   4.653   6.312   3.067  0.1364  0.2960 -0.0173
  141SOL     hw  562   4.743   6.301   3.036  0.0166 -1.7679  0.2062
  141SOL     hw  563   4.662   6.357   3.151  1.0755 -0.8310  0.5155
  141SOL     vw  564   4.666   6.316   3.074  0.2446 -0.1252  0.0825
  142SOL     ow  565   6.227   2.523   6.068 -0.0703  0.3365 -0.6931
  142SOL     hw  566   6.262   2.452   6.014  0.0256 -0.1739  0.0327
  142SOL     hw  567   6.303   2.572   6.097 -0.0015 -0.3335  0.2766
  142SOL     vw  568   6.241   2.520   6.065 -0.0489  0.1807 -0.4694
  143SOL     ow  569   4.135   2.825   0.162  0.9359  0.6429  0.3760
  143SOL     hw  570   4.180   2.852   0.083  0.8161  2.0211  0.7511
  143SOL     hw  571   4.053   2.874   0.161  0.5330  0.0036  0.9132
  143SOL     vw  572   4.130   2.835   0.152  0.8671  0.7403  0.4964
  144SOL     ow  573   6.068   0.293   3.974 -0.1167  0.4120 -0.0970
  144SOL     hw  574   6.066   0.388   3.976  0.6081  0.5370 -2.4090
  144SOL     hw  575   5.982   0.267   4.007  0.1883  1.7727  1.9151
  144SOL     vw  576   6.056   0.302   3.978  0.0193  0.6080 -0.1366
  145SOL     ow  577   3.787   3.819   5.651  0.4560  0.2462  0.2647
  145SOL     hw  578   3.705   3.864   5.672  0.0520 -0.9748  1.4219
  145SOL     hw  579   3.854   3.887   5.653 -0.2617  0.9393  1.1208
  145SOL     vw  580   3.785   3.834   5.654  0.3082  0.1765  0.5302
  146SOL     ow  581   3.330   6.760   1.385 -0.7098  0.4100  0.0220
  146SOL     hw  582   3.305   6.711   1.307  0.9254 -0.4738 -0.0029
  146SOL     hw  583   3.385   6.699   1.435 -0.5509  1.4380  1.1551
  146SOL     vw  584   3.334   6.745   1.381 -0.4730  0.4289  0.1682
  147SOL     ow  585   5.919   6.467   5.104 -0.5880 -0.0368 -0.5133
  147SOL     hw  586   6.000   6.467   5.155 -0.3828  2.2946 -0.7339
  147SOL     hw  587   5.948   6.481   5.013 -1.1050 -1.8086 -0.9870
  147SOL     vw  588   5.934   6.469   5.099 -0.6294  0.0367 -0.6049
  148SOL     ow  589   1.170   5.406   2.576 -0.0031 -0.1793 -0.5203
  148SOL     hw  590   1.193   5.498   2.563  3.2916 -0.8741 -0.5865
  148SOL     hw  591   1.076   5.407   2.596  0.3131  3.4101  1.7445
  148SOL     vw  592   1.161   5.419   2.577  0.4733  0.2027 -0.2304
  149SOL     ow  593   4.355   1.408   2.045 -0.2893  0.1063  0.0536
  149SOL     hw  594   4.277   1.352   2.036 -1.1952  1.5429 -1.7468
  149SOL     hw  595   4.384   1.423   1.955  1.4044  0.5658  0.6312
  149SOL     vw  596   4.349   1.402   2.032 -0.1855  0.3565 -0.1078
  150SOL     ow  597   4.010   4.306   6.342 -0.2701  0.2600 -0.0951
  150SOL     hw  598   3.949   4.357   6.289  0.4894 -1.0174 -2.3553
  150SOL     hw  599   3.976   4.217   6.340  2.4436 -0.9414 -3.0917
  150SOL     vw  600   3.998   4.301   6.335  0.1881 -0.0670 -0.7887
  151SOL     ow  601   2.264   0.251   6.030 -0.6526  0.0214  0.1415
  151SOL     hw  602   2.241   0.273   5.940 -0.7136  2.1317  0.6207
  151SOL     hw  603   2.358   0.269   6.036 -0.6539 -0.0854  0.5207
  151SOL     vw  604   2.274   0.256   6.019 -0.6608  0.2857  0.2546
  152SOL     ow  605   0.214   6.654   4.007 -0.1596  0.0893  0.2633
  152SOL     hw  606   0.209   6.686   3.917  0.0301 -1.0892 -0.1800
  152SOL     hw  607   0.282   6.708   4.048 -2.8494  3.3032  0.8861
  152SOL     vw  608   0.223   6.666   4.001 -0.4894  0.3579  0.2868
  153SOL     ow  609   5.160   4.665   3.516  0.0933  0.0050 -0.0796
  153SOL     hw  610   5.216   4.656   3.439  2.1320  0.5769  1.2425
  153SOL     hw  611   5.215   4.710   3.580 -0.9955 -1.7310  2.2289
  153SOL     vw  612   5.174   4.670   3.515  0.2186 -0.1485  0.3995
  154SOL     ow  613   3.315   4.487   0.056 -0.6216 -0.0170  0.2510
  154SOL     hw  614   3.290   4.525  -0.028 -1.6060 -3.0336 -0.9560
  154SOL     hw  615   3.234   4.486   0.107 -0.6911 -0.7527  0.1370
  154SOL     vw  616   3.301   4.492   0.052 -0.7607 -0.5119  0.0767
  155SOL     ow  617   4.460   2.954   6.231  0.0417 -0.4643  0.3345
  155SOL     hw  618   4.412   2.929   6.152 -1.1535 -3.5059  1.8586
  155SOL     hw  619   4.549   2.973   6.201 -1.0339  1.3082 -2.0262
  155SOL     vw  620   4.465   2.954   6.217 -0.2580 -0.6318  0.2241
  156SOL     ow  621   4.822   1.008   1.184 -0.5097  0.2669  0.7996
  156SOL     hw  622   4.869   1.090   1.167 -1.5278  1.6075  3.7837
  156SOL     hw  623   4.887   0.940   1.167  0.9107  1.7677 -0.1447
  156SOL     vw  624   4.837   1.010   1.180 -0.4566  0.6418  1.0688
  157SOL     ow  625   5.026   2.814   6.401 -0.5211  0.2289  0.4821
  157SOL     hw  626   4.990   2.726   6.407 -1.0251  0.4429  0.6150
  157SOL     hw  627   5.018   2.837   6.309  1.0857 -0.4703  0.1189
  157SOL     vw  628   5.020   2.805   6.390 -0.3755  0.1649  0.4516
  158SOL     ow  629   5.499   3.376   5.355  0.0927 -0.5080  0.1560
  158SOL     hw  630   5.484   3.367   5.260 -1.2945 -1.6893  0.4492
  158SOL     hw  631   5.582   3.329   5.370 -0.7068 -2.1295 -0.2200
  158SOL     vw  632   5.508   3.368   5.344 -0.1957 -0.8779  0.1452
  159SOL     ow  633   6.412   2.371   4.747  0.7939 -0.4404  0.1686
  159SOL     hw  634   6.407   2.288   4.795 -0.2075 -1.5939 -1.8118
  159SOL     hw  635   6.322   2.405   4.749  1.3632  1.0808  1.6990
  159SOL     vw  636   6.399   2.364   4.754  0.7367 -0.3918  0.1092
  160SOL     ow  637   3.300   2.368   1.996  0.3093  0.5181 -0.1162
  160SOL     hw  638   3.257   2.314   2.062  0.6923 -0.1769 -0.4281
  160SOL     hw  639   3.327   2.307   1.928 -0.1111  1.2290 -0.9472
  160SOL     vw  640   3.298   2.353   1.996  0.3045  0.5200 -0.2670
  161SOL     ow  641   3.207   0.592   5.159  0.4634 -0.2195 -0.2805
  161SOL     hw  642   3.203   0.506   5.201  0.0472 -0.2422 -0.3665
  161SOL     hw  643   3.299   0.602   5.134  0.2303 -1.2835 -1.6298
  161SOL     vw  644   3.219   0.582   5.161  0.3778 -0.3629 -0.4699
  162SOL     ow  645   5.540   0.497   4.660  0.0437 -0.2593  0.0971
  162SOL     hw  646   5.615   0.471   4.605  0.1746 -2.0804  1.0610
  162SOL     hw  647   5.559   0.459   4.745 -0.6265  1.7215  1.1895
  162SOL     vw  648   5.552   0.489   4.664 -0.0274 -0.2382  0.3681
  163SOL     ow  649   2.047   1.442   0.837 -0.1438  0.0934  0.7201
  163SOL     hw  650   2.060   1.371   0.901 -0.6290 -1.6192 -0.9954
  163SOL     hw  651   2.078   1.405   0.754 -1.4614  1.4994 -0.4458
  163SOL     vw  652   2.053   1.428   0.835 -0.3816  0.0529  0.3399
  164SOL     ow  653   0.474   5.848   2.065  0.3225  0.0061  0.8565
  164SOL     hw  654   0.477   5.885   2.153 -0.3474 -1.1059  1.3794
  164SOL     hw  655   0.393   5.883   2.027  0.0543 -0.3407  1.0931
  164SOL     vw  656   0.464   5.857   2.072  0.1987 -0.1862  0.9567
  165SOL     ow  657   2.439   3.199   6.225 -0.7822 -0.1130  0.6798
  165SOL     hw  658   2.422   3.276   6.279  0.1389  0.8264 -0.3025
  165SOL     hw  659   2.522   3.219   6.180 -1.7093 -0.6422 -1.3943
  165SOL     vw  660   2.448   3.212   6.226 -0.7831 -0.0589  0.2766
  166SOL     ow  661   2.008   1.722   3.624 -0.2206  0.2052  0.9685
  166SOL     hw  662   1.994   1.790   3.690 -1.7573 -0.1293  1.0144
  166SOL     hw  663   2.000   1.768   3.540  0.6975  0.4264  0.9820
  166SOL     vw  664   2.005   1.737   3.622 -0.3023  0.1903  0.9762
  167SOL     ow  665   0.357   5.437   3.169 -0.2669  0.4044  0.1552
  167SOL     hw  666   0.279   5.385   3.152  0.9877 -1.1304 -1.3331
  167SOL     hw  667   0.382   5.414   3.258 -0.1478 -1.0684 -0.2263
  167SOL     vw  668   0.350   5.427   3.178 -0.0857  0.0076 -0.0914
  168SOL     ow  669   1.278   3.532   1.987 -0.4844 -0.8590  0.2116
  168SOL     hw  670   1.260   3.486   2.068  3.2747  0.0793  1.8067
  168SOL     hw  671   1.266   3.624   2.008 -2.2727 -0.7098 -1.2261
  168SOL     vw  672   1.274   3.538   2.000 -0.2244 -0.7155  0.2325
  169SOL     ow  673   6.784   3.261   0.490  0.3532 -0.7912 -0.1708
  169SOL     hw  674   6.782   3.166   0.501  1.7400 -0.7626  0.6090
  169SOL     hw  675   6.844   3.275   0.418  0.4648 -0.4927 -0.0193
  169SOL     vw  676   6.792   3.250   0.482  0.5510 -0.7482 -0.0479
  170SOL     ow  677   6.340   3.000   0.336  0.2569 -0.2013 -0.1598
  170SOL     hw  678   6.341   2.986   0.431  0.3677  0.7298 -0.0091
  170SOL     hw  679   6.361   2.915   0.299 -0.6370 -0.7866  0.6268
  170SOL     vw  680   6.343   2.987   0.344  0.1540 -0.1557 -0.0361
  171SOL     ow  681   4.765   0.090   1.208  0.1908  0.6112 -0.1559
  171SOL     hw  682   4.770  -0.001   1.180  0.5005  1.0385 -1.5337
  171SOL     hw  683   4.720   0.087   1.293 -2.1570 -0.5862 -1.3810
  171SOL     vw  684   4.760   0.078   1.216 -0.0784  0.5096 -0.4994
  172SOL     ow  685   4.476   6.365   0.255 -0.4344 -0.0684  0.7850
  172SOL     hw  686   4.392   6.348   0.297 -0.0206  0.5880  1.9199
  172SOL     hw  687   4.514   6.438   0.305  1.7231 -1.6692  1.6462
  172SOL     vw  688   4.470   6.373   0.267 -0.0951 -0.1934  1.0484
  173SOL     ow  689   0.524   2.808   0.803  0.5890  0.1058 -0.2108
  173SOL     hw  690   0.505   2.715   0.788 -2.8986  0.5863  0.4766
  173SOL     hw  691   0.439   2.851   0.798  1.6749  2.8910  2.3880
  173SOL     vw  692   0.510   2.801   0.800  0.2722  0.5367  0.2228
  174SOL     ow  693   4.983   0.433   2.195 -0.3334 -0.4061  0.3431
  174SOL     hw  694   5.024   0.489   2.261 -1.0327 -1.2695  1.5439
  174SOL     hw  695   4.907   0.484   2.165 -2.0423 -1.3320  2.7505
  174SOL     vw  696   4.978   0.447   2.199 -0.6511 -0.6422  0.8192
  175SOL     ow  697   3.276   0.691   2.784  0.2665 -0.4900  0.1283
  175SOL     hw  698   3.310   0.766   2.735 -0.5140  0.5324  1.1126
  175SOL     hw  699   3.353   0.636   2.799  1.1919  0.9274  0.8026
  175SOL     vw  700   3.291   0.694   2.780  0.2856 -0.1681  0.3471
  176SOL     ow  701   2.564   3.825   2.109  0.4568 -0.5575  0.2961
  176SOL     hw  702   2.549   3.805   2.201  0.9794  1.7914  0.9531
  176SOL     hw  703   2.618   3.752   2.077  0.7410 -1.1314  1.9873
  176SOL     vw  704   2.570   3.813   2.117  0.5634 -0.3233  0.6059
  177SOL     ow  705   4.998   0.020   4.810 -0.1579 -0.0764  0.7321
  177SOL     hw  706   4.949   0.047   4.888  2.6176  1.3244  2.1369
  177SOL     hw  707   5.019  -0.072   4.825  0.8660  0.3405  1.9720
  177SOL     vw  708   4.994   0.011   4.822  0.3433  0.1634  1.0810
  178SOL     ow  709   3.442   6.242   5.037 -0.5868  0.2417  0.4788
  178SOL     hw  710   3.528   6.254   5.078  0.4395 -0.8599 -1.2059
  178SOL     hw  711   3.400   6.174   5.089  0.5464 -0.8973 -0.0341
  178SOL     vw  712   3.448   6.235   5.049 -0.3018 -0.0541  0.1891
  179SOL     ow  713   3.371   5.406   5.963  0.0602  0.2176 -0.3404
  179SOL     hw  714   3.365   5.435   6.054  1.6134  0.4211 -0.2658
  179SOL     hw  715   3.320   5.470   5.914 -0.2116  0.5132  0.3137
  179SOL     vw  716   3.364   5.418   5.969  0.2294  0.2832 -0.2441
  180SOL     ow  717   0.464   4.513   4.540  0.1090 -0.5375 -0.0056
  180SOL     hw  718   0.402   4.471   4.600  0.8818  1.0894  2.0533
  180SOL     hw  719   0.449   4.607   4.553  2.2658 -0.1147 -0.2091
  180SOL     vw  720   0.454   4.520   4.550  0.4955 -0.2673  0.2391
  181SOL     ow  721   1.718   0.265   5.693  0.0557  0.3710  0.1338
  181SOL     hw  722   1.732   0.324   5.767 -0.3389  1.1470 -0.3922
  181SOL     hw  723   1.693   0.182   5.733 -0.4047  0.8528  0.8752
  181SOL     vw  724   1.716   0.262   5.708 -0.0572  0.5369  0.1624
  182SOL     ow  725   4.801   1.823   4.371 -0.0307 -0.4619  0.0474
  182SOL     hw  726   4.879   1.790   4.415 -1.0795 -1.6421  1.0726
  182SOL     hw  727   4.742   1.850   4.441 -1.6358 -2.1385 -0.5910
  182SOL     vw  728   4.804   1.822   4.386 -0.3810 -0.8388  0.0982
  183SOL     ow  729   4.386   1.151   0.457 -0.3012 -0.1784  0.0878
  183SOL     hw  730   4.450   1.197   0.402  1.5337 -0.2036  2.0786
  183SOL     hw  731   4.308   1.207   0.455 -0.3192 -0.1559 -2.4198
  183SOL     vw  732   4.384   1.165   0.449 -0.0613 -0.1788  0.0196
  184SOL     ow  733   5.321   2.185   3.419  0.5753  0.0856  0.6404
  184SOL     hw  734   5.249   2.219   3.473  1.8719  1.4632  1.5850
  184SOL     hw  735   5.299   2.213   3.330  0.5299  1.6154  1.0956
  184SOL     vw  736   5.309   2.193   3.415  0.7405  0.4692  0.8250
  185SOL     ow  737   3.260   3.371   5.541  0.9143  0.1791  0.4836
  185SOL     hw  738   3.296   3.447   5.495  1.0605  0.2072  0.6421
  185SOL     hw  739   3.211   3.324   5.474  1.1039  0.2339  0.3052
  185SOL     vw  740   3.258   3.375   5.526  0.9586  0.1900  0.4811
  186SOL     ow  741   1.833   1.657   0.914 -0.8715  0.0676 -0.4953
  186SOL     hw  742   1.781   1.676   0.992 -0.9123  1.7095 -0.8991
  186SOL     hw  743   1.773   1.674   0.841 -0.4856 -0.3678 -0.9195
  186SOL     vw  744   1.818   1.661   0.915 -0.8261  0.2267 -0.6045
  187SOL     ow  745   6.479   2.481   2.632  0.1331 -0.2977  0.7031
  187SOL     hw  746   6.574   2.484   2.626  0.1912  0.7489  1.8052
  187SOL     hw  747   6.450   2.479   2.540  1.1708  2.0863  0.2504
  187SOL     vw  748   6.488   2.481   2.619  0.2778  0.1547  0.7888
  188SOL     ow  749   3.997   1.569   4.813  0.2448 -0.2095 -0.2630
  188SOL     hw  750   4.065   1.502   4.826  0.3762 -0.4212 -1.8134
  188SOL     hw  751   3.922   1.521   4.778  0.1126  0.3591 -0.7767
  188SOL     vw  752   3.996   1.554   4.810  0.2447 -0.1624 -0.5352
  189SOL     ow  753   1.454   4.375   4.153  0.9188 -0.0022 -0.0338
  189SOL     hw  754   1.447   4.410   4.064  2.3197  1.0229  0.2236
  189SOL     hw  755   1.364   4.360   4.180  0.4306  0.5312 -1.2914
  189SOL     vw  756   1.441   4.377   4.145  1.0391  0.2038 -0.1657
  190SOL     ow  757   6.827   4.136   0.493  0.2622  0.0524 -0.0239
  190SOL     hw  758   6.908   4.176   0.463  0.0076  0.4490 -0.1889
  190SOL     hw  759   6.855   4.069   0.555  0.6338  1.8064  1.8224
  190SOL     vw  760   6.841   4.133   0.497  0.2775  0.3362  0.1979
  191SOL     ow  761   1.983   6.222   5.023  0.2660 -0.4693 -0.5233
  191SOL     hw  762   1.919   6.285   5.056  2.0481  0.2820  1.7571
  191SOL     hw  763   1.960   6.140   5.066 -0.1784 -0.6344 -1.0631
  191SOL     vw  764   1.971   6.220   5.033  0.4424 -0.3920 -0.2935
  192SOL     ow  765   5.640   1.782   3.512  0.7183  0.4861 -0.4932
  192SOL     hw  766   5.596   1.704   3.544  0.0577  0.6327 -1.0195
  192SOL     hw  767   5.660   1.833   3.591 -0.1356  0.4597 -0.2566
  192SOL     vw  768   5.637   1.779   3.527  0.5186  0.5019 -0.5314
  193SOL     ow  769   2.621   6.513   0.456  0.2362  0.1692 -0.4527
  193SOL     hw  770   2.685   6.456   0.412 -0.3987 -0.7954 -0.1657
  193SOL     hw  771   2.604   6.583   0.393  1.8087  0.6419 -0.4052
  193SOL     vw  772   2.627   6.515   0.442  0.3599  0.1044 -0.4086
  194SOL     ow  773   4.324   3.504   1.914 -0.5812  0.4035  0.1598
  194SOL     hw  774   4.275   3.423   1.898  0.2630  0.1893 -1.7143
  194SOL     hw  775   4.382   3.484   1.987  1.7902 -1.8355 -2.1051
  194SOL     vw  776   4.325   3.491   1.921 -0.1569  0.0798 -0.3863
  195SOL     ow  777   6.374   3.931   0.123 -0.2842 -0.1328 -0.2299
  195SOL     hw  778   6.294   3.882   0.138  0.8953 -1.3496  2.7679
  195SOL     hw  779   6.422   3.878   0.059 -1.0036 -0.4192 -0.5435
  195SOL     vw  780   6.370   3.917   0.116 -0.2234 -0.3312  0.1242
  196SOL     ow  781   1.920   6.138   4.115 -1.1627  0.2138 -0.6756
  196SOL     hw  782   1.847   6.190   4.082 -1.3080 -0.7303 -1.8946
  196SOL     hw  783   1.981   6.132   4.041 -1.5562 -2.0658 -0.8888
  196SOL     vw  784   1.919   6.144   4.101 -1.2338 -0.2112 -0.8647
  197SOL     ow  785   6.356   2.331   4.440  0.0050  0.3425  0.0260
  197SOL     hw  786   6.414   2.347   4.515  0.8111 -0.1221 -0.4789
  197SOL     hw  787   6.274   2.373   4.464  0.6701  1.3595  0.6024
  197SOL     vw  788   6.353   2.339   4.453  0.1993  0.4154  0.0353
  198SOL     ow  789   0.620   0.422   1.473 -0.6009  0.2333  0.2450
  198SOL     hw  790   0.582   0.410   1.386 -2.4180  0.9210  0.9146
  198SOL     hw  791   0.701   0.370   1.471 -0.4082  0.5252 -1.9565
  198SOL     vw  792   0.626   0.414   1.461 -0.8152  0.3625  0.0429
  199SOL     ow  793   2.847   6.109   2.940  0.6687 -0.4472 -0.4043
  199SOL     hw  794   2.887   6.095   3.026  1.0834 -0.2792 -0.5664
  199SOL     hw  795   2.855   6.025   2.896  1.3196 -0.2766 -0.6266
  199SOL     vw  796   2.853   6.096   2.946  0.8094 -0.4027 -0.4549
  200SOL     ow  797   5.856   4.256   4.723 -0.4923  0.2532 -0.8158
  200SOL     hw  798   5.911   4.184   4.691 -0.2405  0.5826 -1.1323
  200SOL     hw  799   5.874   4.261   4.817 -1.2716 -0.7543 -0.5966
  200SOL     vw  800   5.866   4.247   4.731 -0.5622  0.1636 -0.8285
  201SOL     ow  801   0.946   3.948   3.657 -0.0905  0.0321 -0.6409
  201SOL     hw  802   0.997   4.023   3.689 -0.7770  0.5209 -0.6912
  201SOL     hw  803   0.928   3.897   3.735 -0.5895  0.5096 -0.4428
  201SOL     vw  804   0.951   3.951   3.671 -0.2469  0.1596 -0.6214
  202SOL     ow  805   3.600   5.919   6.347 -0.5552 -0.1184  0.3182
  202SOL     hw  806   3.557   5.870   6.417 -1.4278  1.3177  0.8528
  202SOL     hw  807   3.528   5.962   6.300  0.2093  1.9536  0.9148
  202SOL     vw  808   3.585   5.918   6.350 -0.5695  0.3448  0.4673
  203SOL     ow  809   1.390   4.426   3.034 -0.3462 -0.0602  0.1261
  203SOL     hw  810   1.469   4.453   2.987  1.3290 -0.0746  2.6963
  203SOL     hw  811   1.385   4.332   3.021  1.9991 -0.6313  2.3997
  203SOL     vw  812   1.400   4.417   3.026  0.1843 -0.1376  0.7653
  204SOL     ow  813   0.864   5.070   1.044 -0.0961 -0.6865 -0.4604
  204SOL     hw  814   0.903   5.085   1.131  0.1574  2.0454 -0.9533
  204SOL     hw  815   0.774   5.101   1.052  0.0833  0.0851 -1.2845
  204SOL     vw  816   0.858   5.076   1.057 -0.0390 -0.2244 -0.6342
  205SOL     ow  817   5.913   2.414   3.587 -0.0532 -0.0349 -0.3089
  205SOL     hw  818   5.942   2.355   3.657  1.5430  1.2483  0.1455
  205SOL     hw  819   5.818   2.418   3.598  0.2124  0.9476  2.5145
  205SOL     vw  820   5.904   2.407   3.598  0.1924  0.2640  0.1235
  206SOL     ow  821   1.166   4.476   3.258  0.6724 -0.6367  0.3360
  206SOL     hw  822   1.114   4.507   3.332  0.0382 -1.6611  0.3345
  206SOL     hw  823   1.107   4.484   3.183  0.4462 -1.8869  0.3504
  206SOL     vw  824   1.151   4.481   3.258  0.5589 -0.9370  0.3377
  207SOL     ow  825   1.454   4.496   5.423  1.0718  0.1588  0.7034
  207SOL     hw  826   1.363   4.474   5.442  0.6329  0.9516 -0.3490
  207SOL     hw  827   1.458   4.591   5.429  1.4304  0.2685 -0.7784
  207SOL     vw  828   1.442   4.506   5.426  1.0611  0.2778  0.3691
  208SOL     ow  829   2.136   1.784   2.350 -0.3620 -0.1577  0.6454
  208SOL     hw  830   2.199   1.769   2.279 -0.9006  0.7327 -0.0350
  208SOL     hw  831   2.146   1.707   2.407  0.4850 -0.6089 -0.0818
  208SOL     vw  832   2.146   1.772   2.348 -0.3214 -0.0997  0.4597
  209SOL     ow  833   2.253   4.107   2.745 -0.0429 -0.2287  0.3176
  209SOL     hw  834   2.220   4.041   2.683 -1.3921  0.9098 -0.2127
  209SOL     hw  835   2.235   4.070   2.831  2.0057 -1.9135  0.1155
  209SOL     vw  836   2.246   4.093   2.748  0.0495 -0.3009  0.2210
  210SOL     ow  837   3.305   3.488   3.488 -0.0232 -0.0586 -0.8046
  210SOL     hw  838   3.286   3.568   3.439 -0.2233  1.4628  1.5671
  210SOL     hw  839   3.343   3.428   3.424 -1.0126  1.4751 -2.9355
  210SOL     vw  840   3.307   3.491   3.473 -0.1801  0.3444 -0.7730
  211SOL     ow  841   2.759   4.449   1.886  0.0614 -0.5266 -0.5334
  211SOL     hw  842   2.835   4.449   1.944  0.4668 -0.3305 -1.0553
  211SOL     hw  843   2.683   4.449   1.945  0.4596  0.5823  0.0075
  211SOL     vw  844   2.759   4.449   1.902  0.1674 -0.3548 -0.5309
  212SOL     ow  845   4.200   0.055   1.304  0.1984  0.3606 -0.7157
  212SOL     hw  846   4.191   0.126   1.367 -0.5717 -0.3378 -0.0040
  212SOL     hw  847   4.284   0.071   1.261 -0.9051  2.8889 -2.1232
  212SOL     vw  848   4.210   0.066   1.306 -0.0484  0.6020 -0.8075
  213SOL     ow  849   0.062   1.315   2.574 -0.4993  0.1941  0.5465
  213SOL     hw  850  -0.025   1.316   2.614 -0.8124  0.6171 -0.1437
  213SOL     hw  851   0.058   1.381   2.505  0.0192 -0.5860 -0.2401
  213SOL     vw  852   0.050   1.324   2.570 -0.4722  0.1469  0.3518
  214SOL     ow  853   1.878   5.061   2.739  0.0189  0.4357 -0.5712
  214SOL     hw  854   1.826   5.013   2.804  1.7606 -1.3942 -0.4668
  214SOL     hw  855   1.870   5.010   2.659  3.5596 -1.3620  0.0510
  214SOL     vw  856   1.870   5.048   2.737  0.7159 -0.0429 -0.4753
  215SOL     ow  857   2.482   4.875   5.659 -0.4300  0.0579 -1.0373
  215SOL     hw  858   2.441   4.799   5.618 -0.6190 -0.3910 -0.0475
  215SOL     hw  859   2.408   4.927   5.692 -0.2533 -1.3951  1.8948
  215SOL     vw  860   2.466   4.872   5.658 -0.4315 -0.1931 -0.5200
  216SOL     ow  861   3.292   2.641   2.162 -0.0360 -0.1017  0.2457
  216SOL     hw  862   3.201   2.670   2.169  0.1453  0.2912  1.2541
  216SOL     hw  863   3.340   2.698   2.223  0.8303 -0.5278 -0.0166
  216SOL     vw  864   3.286   2.652   2.171  0.1022 -0.1060  0.3443
  217SOL     ow  865   2.382   2.566   2.489 -0.5346 -0.3565 -0.0786
  217SOL     hw  866   2.390   2.649   2.536  0.1043  0.3859 -1.4575
  217SOL     hw  867   2.310   2.521   2.533  0.2341  0.1594  1.8124
  217SOL     vw  868   2.373   2.571   2.501 -0.3488 -0.1904 -0.0111
  218SOL     ow  869   0.684   1.871   6.361  0.2125  0.5854 -0.6620
  218SOL     hw  870   0.709   1.787   6.399 -4.0175 -2.1220 -3.0838
  218SOL     hw  871   0.640   1.917   6.432  0.2802 -0.3648  0.0199
  218SOL     vw  872   0.682   1.866   6.375 -0.3366  0.1028 -0.8914
  219SOL     ow  873   0.856   2.878   3.731 -0.1147 -0.1012  0.0539
  219SOL     hw  874   0.831   2.908   3.644 -1.0380 -0.9375  0.0179
  219SOL     hw  875   0.945   2.843   3.719 -0.7700 -1.5536 -0.9003
  219SOL     vw  876   0.865   2.877   3.718 -0.3230 -0.4032 -0.0768
  220SOL     ow  877   6.833   3.349   3.645 -0.1827  0.0633 -0.2833
  220SOL     hw  878   6.738   3.361   3.653 -0.1600  1.0951 -1.4225
  220SOL     hw  879   6.856   3.391   3.563  1.2836 -0.1459 -0.0013
  220SOL     vw  880   6.823   3.356   3.635  0.0141  0.1719 -0.3964
  221SOL     ow  881   1.370   1.554   4.305 -0.4896 -0.5570  0.0132
  221SOL     hw  882   1.290   1.606   4.295 -0.1900 -0.0705  0.1302
  221SOL     hw  883   1.396   1.532   4.216  0.4332  1.1066 -0.1592
  221SOL     vw  884   1.363   1.558   4.292 -0.3283 -0.2733  0.0060
  222SOL     ow  885   5.085   4.914   5.794  0.3197  0.3735 -0.2846
  222SOL     hw  886   5.097   4.849   5.863 -1.1641 -0.0359 -0.3670
  222SOL     hw  887   5.061   4.994   5.841  0.7945  0.4978 -0.2526
  222SOL     vw  888   5.083   4.916   5.809  0.1862  0.3357 -0.2913
  223SOL     ow  889   0.841   0.538   2.445 -1.1772  0.5943 -0.0576
  223SOL     hw  890   0.841   0.555   2.351  0.5167  1.7263  0.1155
  223SOL     hw  891   0.920   0.487   2.460 -3.1888 -2.7234  0.3164
  223SOL     vw  892   0.851   0.534   2.434 -1.2191  0.3059  0.0147
  224SOL     ow  893   1.122   1.415   1.240 -0.6538  0.1130 -0.4937
  224SOL     hw  894   1.207   1.400   1.282 -0.6182  0.2246 -0.5257
  224SOL     hw  895   1.085   1.327   1.230 -0.1422 -0.0264 -1.3201
  224SOL     vw  896   1.128   1.401   1.244 -0.5816  0.1093 -0.6070
  225SOL     ow  897   5.557   6.686   0.347  0.1992  0.4706 -0.5996
  225SOL     hw  898   5.577   6.595   0.370 -1.7084  0.1209 -0.1580
  225SOL     hw  899   5.579   6.736   0.425  0.5587  0.2762 -0.5757
  225SOL     vw  900   5.562   6.680   0.360 -0.0052  0.3991 -0.5382
  226SOL     ow  901   6.200   0.935   4.748 -0.4014  0.1680  0.9734
  226SOL     hw  902   6.293   0.917   4.754 -0.2725  0.9612  1.5196
  226SOL     hw  903   6.160   0.850   4.727  0.6723  0.3271 -2.1601
  226SOL     vw  904   6.207   0.921   4.746 -0.2429  0.2937  0.6318
  227SOL     ow  905   6.371   5.490   6.520 -1.0725 -0.3312 -0.2293
  227SOL     hw  906   6.379   5.566   6.578 -1.8830  1.9628 -2.9141
  227SOL     hw  907   6.461   5.462   6.505 -0.8169 -0.6006  1.5835
  227SOL     vw  908   6.384   5.496   6.526 -1.1456 -0.0639 -0.3438
  228SOL     ow  909   2.522   5.468   3.245 -0.9857  0.1745  0.3430
  228SOL     hw  910   2.478   5.392   3.208  0.6065 -1.3965  1.5105
  228SOL     hw  911   2.530   5.447   3.338  0.2110  1.4104  0.5416
  228SOL     vw  912   2.517   5.455   3.253 -0.6176  0.1302  0.5232
  229SOL     ow  913   6.744   3.547   0.666 -0.0930 -0.4786  0.3062
  229SOL     hw  914   6.695   3.593   0.597 -1.3208 -1.9067  0.1688
  229SOL     hw  915   6.699   3.571   0.747 -0.8262 -1.5097  0.2190
  229SOL     vw  916   6.731   3.556   0.668 -0.3517 -0.8029  0.2766
  230SOL     ow  917   5.385   1.069   1.641 -0.2759  0.5308 -0.0579
  230SOL     hw  918   5.425   1.018   1.711  4.4686  1.6659 -1.5153
  230SOL     hw  919   5.380   1.158   1.676 -2.1199  0.3429  0.2323
  230SOL     vw  920   5.390   1.074   1.655  0.1070  0.6557 -0.2119
  231SOL     ow  921   5.313   3.025   5.005  0.3871 -0.6674  0.4933
  231SOL     hw  922   5.246   3.091   5.021  1.3457  0.2829  0.7091
  231SOL     hw  923   5.275   2.944   5.038 -0.9565 -0.3063 -0.1038
  231SOL     vw  924   5.299   3.023   5.011  0.3364 -0.4944  0.4430
  232SOL     ow  925   3.832   5.939   0.329  0.5395  0.4843  0.5993
  232SOL     hw  926   3.863   5.975   0.246 -1.1688 -1.8275 -1.1752
  232SOL     hw  927   3.743   5.909   0.311  0.1457 -0.2132  3.2624
  232SOL     vw  928   3.825   5.940   0.316  0.2621  0.0873  0.7165
  233SOL     ow  929   6.067   4.524   1.550 -0.2779 -0.3529 -0.1342
  233SOL     hw  930   6.145   4.471   1.569 -0.5787 -0.9910 -0.6534
  233SOL     hw  931   6.028   4.482   1.474 -1.5998 -0.5413  0.6196
  233SOL     vw  932   6.072   4.512   1.543 -0.4921 -0.4621 -0.1033
  234SOL     ow  933   1.388   1.060   0.103 -0.0582  0.0177  0.3871
  234SOL     hw  934   1.481   1.066   0.126 -0.3119  0.4938  1.3521
  234SOL     hw  935   1.374   0.968   0.085  0.4319 -0.1962  1.0375
  234SOL     vw  936   1.398   1.049   0.104 -0.0271  0.0523  0.6002
  235SOL     ow  937   1.191   5.111   5.685 -0.0397  0.1447  0.1071
  235SOL     hw  938   1.260   5.077   5.629  0.0025  0.7764 -0.2348
  235SOL     hw  939   1.156   5.187   5.638 -0.4469  0.2940  0.6298
  235SOL     vw  940   1.195   5.116   5.671 -0.0879  0.2480  0.1309
  236SOL     ow  941   5.945   4.415   3.011 -0.3354  0.5527 -0.6109
  236SOL     hw  942   5.864   4.463   3.033 -0.7908 -0.1854 -0.6397
  236SOL     hw  943   5.939   4.335   3.063  0.5648  0.6552 -0.3399
  236SOL     vw  944   5.933   4.411   3.021 -0.2768  0.4690 -0.5790
  237SOL     ow  945   1.551   4.248   2.097  0.1379 -0.5651  0.7247
  237SOL     hw  946   1.513   4.164   2.072  0.9366 -0.8239  0.3479
  237SOL     hw  947   1.480   4.311   2.087 -0.1126 -0.9890 -0.2583
  237SOL     vw  948   1.537   4.246   2.093  0.2103 -0.6552  0.5453
  238SOL     ow  949   5.025   5.417   1.677  0.8046  0.2049  0.5976
  238SOL     hw  950   4.938   5.409   1.636  0.2782 -0.6402  1.8400
  238SOL     hw  951   5.015   5.488   1.740  1.8632  2.1241 -1.2626
  238SOL     vw  952   5.012   5.425   1.680  0.8750  0.3467  0.5161
  239SOL     ow  953   2.983   5.342   6.400  0.7611  0.4754  0.0029
  239SOL     hw  954   3.014   5.265   6.353  2.2450  0.3252  1.1289
  239SOL     hw  955   3.059   5.370   6.452  0.6771  3.4359 -1.2793
  239SOL     vw  956   2.997   5.336   6.401  0.9458  0.8461 -0.0179
  240SOL     ow  957   2.243   3.830   1.102 -0.3391  0.0420 -0.5648
  240SOL     hw  958   2.320   3.802   1.052  0.2166  1.7520 -0.7502
  240SOL     hw  959   2.173   3.835   1.038  0.2859  1.8780 -1.1855
  240SOL     vw  960   2.244   3.827   1.087 -0.1833  0.5099 -0.6711
  241SOL     ow  961   2.628   2.409   5.612 -0.3127 -0.0856  0.1758
  241SOL     hw  962   2.673   2.471   5.554 -0.7284  0.2226  0.1830
  241SOL     hw  963   2.621   2.329   5.559  0.6038 -0.2679  0.3184
  241SOL     vw  964   2.633   2.407   5.597 -0.2465 -0.0689  0.1955
  242SOL     ow  965   2.217   1.247   4.612 -0.0771 -0.4544 -0.3211
  242SOL     hw  966   2.259   1.271   4.695 -0.4555 -0.8980  0.0003
  242SOL     hw  967   2.133   1.209   4.637  0.3720 -1.8269 -0.8380
  242SOL     vw  968   2.212   1.245   4.626 -0.0678 -0.6940 -0.3467
  243SOL     ow  969   4.598   1.813   3.399 -0.1158  0.6268 -0.4626
  243SOL     hw  970   4.677   1.777   3.439 -0.2147  0.1891 -0.6514
  243SOL     hw  971   4.630   1.875   3.334  0.0430  3.0917  1.8016
  243SOL     vw  972   4.612   1.816   3.396 -0.1080  0.8942 -0.1887
  244SOL     ow  973   5.627   3.128   3.402 -0.1274  0.7384 -0.2454
  244SOL     hw  974   5.701   3.126   3.341  0.5161  2.8029  0.3942
  244SOL     hw  975   5.660   3.172   3.479 -2.0714  1.9425 -0.0230
  244SOL     vw  976   5.641   3.133   3.404 -0.2990  1.1697 -0.1317
  245SOL     ow  977   3.137   0.902   5.141 -0.2241 -0.1010  0.3729
  245SOL     hw  978   3.085   0.977   5.169 -0.9775 -0.3578 -0.3039
  245SOL     hw  979   3.227   0.935   5.141 -0.1529 -0.0857  3.0224
  245SOL     vw  980   3.142   0.916   5.145 -0.3142 -0.1329  0.6332
  246SOL     ow  981   5.099   3.943   3.834 -0.1378  0.1232 -0.4435
  246SOL     hw  982   5.167   3.929   3.768  0.1094 -0.8519  0.0074
  246SOL     hw  983   5.092   3.859   3.880  2.4786  1.7246  3.4270
  246SOL     vw  984   5.107   3.930   3.832  0.2401  0.2058  0.1267
  247SOL     ow  985   1.852   2.387   6.516 -0.9475  0.3839  0.8970
  247SOL     hw  986   1.776   2.329   6.513 -1.7221  1.4133 -1.1052
  247SOL     hw  987   1.818   2.469   6.552 -1.0609  1.1485 -0.8555
  247SOL     vw  988   1.837   2.390   6.520 -1.0647  0.6206  0.4017
  248SOL     ow  989   5.411   2.028   6.085 -0.1692 -0.3545  0.5273
  248SOL     hw  990   5.394   1.934   6.094 -1.4986 -0.1434  0.3671
  248SOL     hw  991   5.331   2.070   6.115  0.3389  0.7387  0.3995
  248SOL     vw  992   5.398   2.021   6.090 -0.2775 -0.1825  0.4895
  249SOL     ow  993   3.107   6.525   4.218 -0.0224  0.2973 -0.2079
  249SOL     hw  994   3.094   6.455   4.282 -0.2686  0.5290 -0.0027
  249SOL     hw  995   3.087   6.484   4.133 -2.8387  0.7684  0.1093
  249SOL     vw  996   3.102   6.511   4.215 -0.4264  0.3898 -0.1390
  250SOL     ow  997   6.322   6.600   4.441 -0.0706  0.3319  0.0311
  250SOL     hw  998   6.382   6.579   4.513  0.3381  0.3707 -0.2887
  250SOL     hw  999   6.380   6.634   4.372 -0.4727  0.4288 -0.2586
  250SOL     vw 1000   6.338   6.602   4.441 -0.0696  0.3498 -0.0494
  251SOL     ow 1001   6.591   6.822   1.706 -0.2686 -0.3066 -0.1445
  251SOL     hw 1002   6.677   6.855   1.680 -0.1423  0.0961  0.7610
  251SOL     hw 1003   6.560   6.772   1.630  0.7252 -0.3797 -0.5077
  251SOL     vw 1004   6.598   6.820   1.692 -0.1209 -0.2632 -0.0730
  252SOL     ow 1005   3.911   3.764   0.334  0.5047 -0.4953  0.8570
  252SOL     hw 1006   3.854   3.720   0.398 -1.5573 -1.1251 -1.2903
  252SOL     hw 1007   3.908   3.708   0.257  0.4881  1.7149 -0.8341
  252SOL     vw 1008   3.903   3.751   0.333  0.2306 -0.2867  0.3506
  253SOL     ow 1009   3.108   5.716   1.936  0.0066  0.8896 -0.1985
  253SOL     hw 1010   3.041   5.683   1.996  2.0068  0.9566  2.2563
  253SOL     hw 1011   3.062   5.730   1.854 -2.5996 -0.6246  0.8758
  253SOL     vw 1012   3.093   5.713   1.933 -0.0734  0.6986  0.2671
  254SOL     ow 1013   3.783   5.010   3.798 -0.5171 -0.1828 -0.1648
  254SOL     hw 1014   3.863   5.002   3.745 -0.2569 -1.3291  0.3591
  254SOL     hw 1015   3.712   5.014   3.734 -0.3344 -2.9825 -0.6668
  254SOL     vw 1016   3.784   5.009   3.783 -0.4586 -0.7036 -0.1619
  255SOL     ow 1017   2.980   5.568   4.940 -0.1929 -0.2003  0.5261
  255SOL     hw 1018   2.929   5.508   4.994  0.9932 -0.2198  1.6773
  255SOL     hw 1019   3.070   5.556   4.970  0.1177  1.9620  0.5965
  255SOL     vw 1020   2.985   5.558   4.951  0.0046  0.0825  0.6874
  256SOL     ow 1021   2.870   1.152   6.322  0.1990 -0.4903  0.2230
  256SOL     hw 1022   2.811   1.168   6.395 -2.0693 -0.2821 -1.5576
  256SOL     hw 1023   2.828   1.194   6.247  2.6928 -0.2312 -1.1345
  256SOL     vw 1024   2.857   1.159   6.321  0.2288 -0.4286 -0.1910
  257SOL     ow 1025   4.537   4.559   5.968 -0.3642 -0.0830 -0.1672
  257SOL     hw 1026   4.600   4.609   5.916  0.1785 -1.0463 -0.4609
  257SOL     hw 1027   4.465   4.540   5.907  0.7439 -2.1084 -0.9229
  257SOL     vw 1028   4.536   4.563   5.953 -0.1464 -0.4773 -0.3057
  258SOL     ow 1029   0.734   0.889   5.989 -0.2044 -0.1935  0.1557
  258SOL     hw 1030   0.680   0.924   5.918 -2.4352 -0.3717  1.6474
  258SOL     hw 1031   0.753   0.799   5.962 -3.0866 -1.0922  0.7318
  258SOL     vw 1032   0.729   0.882   5.976 -0.8789 -0.3356  0.4287
  259SOL     ow 1033   5.674   2.267   1.884 -0.6147  0.0446  0.0162
  259SOL     hw 1034   5.769   2.264   1.873 -0.5001 -0.0265  0.9430
  259SOL     hw 1035   5.661   2.260   1.979 -1.2973  5.5502  0.6343
  259SOL     vw 1036   5.685   2.266   1.895 -0.6897  0.7616  0.2200
  260SOL     ow 1037   2.687   1.486   1.603  0.2060  0.6924 -0.0448
  260SOL     hw 1038   2.607   1.434   1.599 -0.0576  1.1741 -1.7231
  260SOL     hw 1039   2.756   1.423   1.625 -0.6866  0.3812  2.0897
  260SOL     vw 1040   2.686   1.471   1.606  0.0535  0.7148  0.0153
  261SOL     ow 1041   3.255   2.498   5.245  0.1464 -1.0532  0.1902
  261SOL     hw 1042   3.212   2.565   5.192  0.8980 -1.5793 -1.1489
  261SOL     hw 1043   3.189   2.471   5.308 -0.5414  0.1232 -0.0008
  261SOL     vw 1044   3.241   2.503   5.246  0.1549 -0.9675 -0.0117
  262SOL     ow 1045   1.182   1.442   3.374 -0.5876  0.8079 -0.4082
  262SOL     hw 1046   1.146   1.365   3.330 -1.1291  0.8964 -0.1221
  262SOL     hw 1047   1.241   1.406   3.440  0.8355  0.6820 -1.6832
  262SOL     vw 1048   1.185   1.427   3.377 -0.4713  0.8029 -0.5387
  263SOL     ow 1049   1.928   5.711   5.543 -0.3725 -0.1344 -0.5048
  263SOL     hw 1050   1.947   5.741   5.454 -2.0449  0.2394 -0.7611
  263SOL     hw 1051   1.966   5.778   5.599 -0.0660  0.0735 -0.9498
  263SOL     vw 1052   1.936   5.724   5.538 -0.5528 -0.0577 -0.5970
  264SOL     ow 1053   2.770   2.295   3.067 -0.3871 -0.3612 -0.4724
  264SOL     hw 1054   2.743   2.261   3.152 -0.0273 -1.7845 -0.8938
  264SOL     hw 1055   2.862   2.267   3.059 -0.2757  0.1820 -1.1161
  264SOL     vw 1056   2.779   2.287   3.077 -0.3250 -0.4773 -0.6130
  265SOL     ow 1057   3.761   3.417   1.477  0.1704 -0.2265  0.0019
  265SOL     hw 1058   3.742   3.494   1.531  1.7825  0.9830 -1.0648
  265SOL     hw 1059   3.684   3.409   1.420  0.0724  0.7550 -0.0358
  265SOL     vw 1060   3.748   3.426   1.477  0.3703  0.0626 -0.1439
  266SOL     ow 1061   5.370   6.387   3.874 -0.2535  0.4024  0.2535
  266SOL     hw 1062   5.411   6.390   3.788 -0.9346  1.0003 -0.0678
  266SOL     hw 1063   5.288   6.339   3.860  0.0318 -0.2543  0.7568
  266SOL     vw 1064   5.364   6.381   3.861 -0.3057  0.3946  0.2776
  267SOL     ow 1065   0.231   1.089   1.297 -0.0162  0.0102  0.8468
  267SOL     hw 1066   0.293   1.030   1.339  0.9235  0.7717  0.5683
  267SOL     hw 1067   0.272   1.110   1.212 -0.0037  1.5461  1.1967
  267SOL     vw 1068   0.245   1.084   1.291  0.1094  0.3134  0.8562
  268SOL     ow 1069   1.709   6.424   0.213  0.2186 -0.3291 -0.4595
  268SOL     hw 1070   1.721   6.452   0.123 -0.5548 -0.5521 -0.6433
  268SOL     hw 1071   1.775   6.357   0.227  0.7307  0.1207 -0.6674
  268SOL     vw 1072   1.719   6.419   0.203  0.1842 -0.2995 -0.5112
  269SOL     ow 1073   4.544   2.833   4.774 -0.6001  0.4401  0.1546
  269SOL     hw 1074   4.600   2.895   4.821 -0.7800  1.6534 -1.1572
  269SOL     hw 1075   4.598   2.755   4.763 -0.4407  0.2409  2.0262
  269SOL     vw 1076   4.559   2.831   4.779 -0.6027  0.5739  0.2286
  270SOL     ow 1077   2.346   4.095   5.376 -0.3297  0.4008  0.3910
  270SOL     hw 1078   2.251   4.090   5.367 -0.2951 -1.4705  0.7235
  270SOL     hw 1079   2.375   4.142   5.298 -1.2826 -2.0621 -1.5990
  270SOL     vw 1080   2.337   4.100   5.364 -0.4510 -0.1714  0.1721
  271poe    c31 1081   1.386   1.396   6.744 -0.2705 -0.5147 -0.4628
  271poe     o2 1082   1.302   1.302   6.807 -0.4338  0.3290  0.5974
  271poe    c23 1083   1.192   1.259   6.731 -0.2796  0.8669  0.0633
  271poe    c23 1084   1.078   1.249   6.835 -0.3692  0.5094 -0.0671
  271poe     o2 1085   1.119   1.228   6.968 -0.6858  0.8179  0.0811
  271poe    c23 1086   1.021   1.160   7.044 -0.3791 -0.0456 -0.2779
  271poe    c23 1087   1.074   1.157   7.188 -0.4213 -0.3387 -0.2687
  271poe     o2 1088   1.203   1.101   7.198  0.0982  0.8688  0.0008
  271poe    c23 1089   1.276   1.123   7.316 -0.3556  0.5358  0.3496
  271poe    c23 1090   1.255   1.010   7.419 -0.2253  0.2000  0.0108
  271poe     o2 1091   1.119   0.990   7.454 -0.1060 -0.4458  0.1092
  271poe    c31 1092   1.063   0.878   7.390  0.2287  0.0610 -1.1112
  272poe    c31 1093   4.494   6.753   3.895  0.1970 -0.2448  0.3138
  272poe     o2 1094   4.420   6.853   3.962 -0.5413 -0.3679 -0.2919
  272poe    c23 1095   4.284   6.818   3.971 -0.5739 -0.2153 -0.1760
  272poe    c23 1096   4.223   6.929   4.057 -0.2683  0.0296 -0.2756
  272poe     o2 1097   4.298   7.048   4.044 -0.3105  0.0621 -0.2266
  272poe    c23 1098   4.213   7.160   4.049 -0.4204  0.0181 -0.9430
  272poe    c23 1099   4.313   7.278   4.054  0.0950 -0.4560  0.4001
  272poe     o2 1100   4.417   7.245   3.965  0.3866 -0.1152  0.6102
  272poe    c23 1101   4.538   7.296   4.015  0.4958  0.5035 -0.2564
  272poe    c23 1102   4.647   7.189   3.992 -0.2423 -0.2114 -0.4472
  272poe     o2 1103   4.586   7.068   4.031 -0.2399 -0.1063 -0.1140
  272poe    c31 1104   4.659   6.985   4.119 -0.2563  0.0258  0.0246
  273poe    c31 1105   3.339   3.862   0.818 -0.0624 -0.3135 -0.0849
  273poe     o2 1106   3.296   3.964   0.904 -0.4487  0.0380 -0.6920
  273poe    c23 1107   3.290   4.094   0.849  0.7394  0.1094 -0.6768
  273poe    c23 1108   3.305   4.198   0.962 -0.6688 -0.1192 -0.2554
  273poe     o2 1109   3.230   4.152   1.072 -0.2510 -0.2572 -0.0261
  273poe    c23 1110   3.300   4.198   1.185 -0.1195  0.0607 -0.2383
  273poe    c23 1111   3.226   4.119   1.294 -0.0880  0.6104  0.1840
  273poe     o2 1112   3.231   3.983   1.258  0.2865  0.5024  0.6309
  273poe    c23 1113   3.129   3.907   1.318  0.2164  0.2305  0.1729
  273poe    c23 1114   3.135   3.773   1.242 -0.8789  0.2812 -0.0150
  273poe     o2 1115   3.155   3.797   1.104  0.1485 -0.0367  0.0745
  273poe    c31 1116   3.169   3.669   1.046 -0.0547 -0.4466  0.9165
  274poe    c31 1117   1.547   5.098   1.868 -0.4623 -0.1363 -0.4027
  274poe     o2 1118   1.446   5.091   1.967 -0.0959 -0.1588 -0.0274
  274poe    c23 1119   1.336   5.016   1.921 -0.1653 -0.1571  0.1366
  274poe    c23 1120   1.225   5.075   2.009 -0.5280  0.0061 -0.4232
  274poe     o2 1121   1.276   5.156   2.113 -0.0043 -0.1812 -0.5362
  274poe    c23 1122   1.173   5.213   2.190  0.4356  0.3286 -0.3205
  274poe    c23 1123   1.250   5.228   2.322 -0.2378  1.1443 -0.0137
  274poe     o2 1124   1.381   5.274   2.295  0.2877 -0.7211 -0.7596
  274poe    c23 1125   1.460   5.268   2.411  0.0978 -0.3612 -0.6120
  274poe    c23 1126   1.605   5.273   2.361  0.2955 -0.2460 -0.0397
  274poe     o2 1127   1.606   5.205   2.237 -0.1318  0.0886 -0.2256
  274poe    c31 1128   1.738   5.176   2.198 -0.3056 -0.1937 -0.6057
  275poe    c31 1129   6.104   1.514   3.985 -0.0982  0.2747 -0.2309
  275poe     o2 1130   6.161   1.387   3.964 -0.5445  0.1899 -0.9406
  275poe    c23 1131   6.064   1.284   3.974 -0.0738 -0.1660  0.1091
  275poe    c23 1132   6.130   1.145   3.977 -0.0748 -0.1686  0.0246
  275poe     o2 1133   6.235   1.156   3.883  0.0660  1.0248  0.3019
  275poe    c23 1134   6.333   1.057   3.900 -0.4561  0.3625 -0.4417
  275poe    c23 1135   6.463   1.135   3.872  0.1869 -0.3902  0.3919
  275poe     o2 1136   6.447   1.264   3.927  0.2129 -0.2607  0.0970
  275poe    c23 1137   6.565   1.342   3.927 -0.2724  0.4881  0.1899
  275poe    c23 1138   6.528   1.491   3.915  0.0006  0.5738  0.4195
  275poe     o2 1139   6.409   1.501   3.841 -0.0130  0.2621  0.3982
  275poe    c31 1140   6.406   1.623   3.771  0.2102 -0.2461 -0.5072
  276poe    c31 1141   2.863   0.185   1.872  0.5108 -0.4121 -0.2890
  276poe     o2 1142   2.731   0.144   1.900  0.5090  0.1107  0.4952
  276poe    c23 1143   2.740   0.022   1.970 -0.1522  0.1469  0.6511
  276poe    c23 1144   2.598   0.011   2.030 -0.2546  0.6051  0.4962
  276poe     o2 1145   2.520   0.048   1.918  0.3386 -0.0731 -0.1581
  276poe    c23 1146   2.385   0.070   1.951  0.3873  0.4217 -0.2798
  276poe    c23 1147   2.331   0.126   1.818 -0.5542  0.9378  0.3079
  276poe     o2 1148   2.423   0.220   1.768  0.3343 -0.4354 -0.7314
  276poe    c23 1149   2.358   0.344   1.788  0.2428 -0.5465 -0.3272
  276poe    c23 1150   2.465   0.454   1.771  0.3753 -0.6547 -0.1866
  276poe     o2 1151   2.579   0.407   1.840  0.1237 -0.0594  0.6518
  276poe    c31 1152   2.674   0.511   1.848  0.0285  0.1324 -0.5956
  277poe    c31 1153   0.457   4.018   4.540 -0.0857 -0.2196 -0.3256
  277poe     o2 1154   0.545   4.006   4.649  0.1574  0.1248 -0.4820
  277poe    c23 1155   0.503   4.068   4.769 -0.2585  0.4665 -0.8020
  277poe    c23 1156   0.488   3.960   4.877 -0.1122  1.0093 -0.2302
  277poe     o2 1157   0.614   3.903   4.903 -0.4345  0.3268 -0.1398
  277poe    c23 1158   0.579   3.786   4.974  0.3066  0.1069 -0.1259
  277poe    c23 1159   0.686   3.683   4.933  0.6091  0.1724  0.4918
  277poe     o2 1160   0.691   3.691   4.792 -0.3530 -0.6374  0.4053
  277poe    c23 1161   0.800   3.630   4.728  0.2198  0.7484  0.0353
  277poe    c23 1162   0.777   3.652   4.577 -0.3156  0.1572  0.0281
  277poe     o2 1163   0.750   3.788   4.554 -0.3888  0.0304 -0.6585
  277poe    c31 1164   0.774   3.823   4.420  0.2217  0.0787 -0.5367
  278poe    c31 1165   3.421   0.592   5.972  1.0924 -0.2270 -0.6324
  278poe     o2 1166   3.310   0.513   5.936  0.4590  0.4753 -0.2615
  278poe    c23 1167   3.285   0.531   5.798 -0.4801 -0.1578 -0.1803
  278poe    c23 1168   3.164   0.448   5.750 -0.4157 -0.0319 -0.5598
  278poe     o2 1169   3.179   0.318   5.803 -0.5419  0.6038  1.1031
  278poe    c23 1170   3.075   0.229   5.769  0.2645 -0.0683  0.3564
  278poe    c23 1171   3.085   0.108   5.864  0.4310 -0.2257  0.1397
  278poe     o2 1172   3.119   0.152   5.993  0.2853 -0.0821  0.1285
  278poe    c23 1173   3.221   0.080   6.059  0.6032 -0.0485 -0.3226
  278poe    c23 1174   3.253   0.153   6.191  0.1834 -0.2424 -0.1105
  278poe     o2 1175   3.278   0.288   6.155 -0.1111 -0.0570  0.3763
  278poe    c31 1176   3.290   0.375   6.265 -0.5515  0.5454 -0.0450
  279poe    c31 1177   2.714   4.043   5.851 -0.3141 -0.6232 -1.1233
  279poe     o2 1178   2.595   4.109   5.813 -0.3786  0.0116  0.1064
  279poe    c23 1179   2.498   4.011   5.782 -0.3637  0.0127  0.0551
  279poe    c23 1180   2.350   4.052   5.785 -0.5452 -0.6585  0.5374
  279poe     o2 1181   2.319   4.140   5.680 -0.0992 -0.3017  0.6998
  279poe    c23 1182   2.186   4.186   5.692 -0.0160  0.1679 -0.0594
  279poe    c23 1183   2.080   4.106   5.614  0.1480 -0.1969  0.0872
  279poe     o2 1184   2.084   4.132   5.475  0.4801 -0.1585  0.1035
  279poe    c23 1185   1.978   4.074   5.402  0.8167 -0.3503 -0.2330
  279poe    c23 1186   2.003   4.093   5.251  0.6796 -0.2963 -0.2485
  279poe     o2 1187   2.043   4.218   5.200  0.8720 -0.1527  0.2424
  279poe    c31 1188   2.063   4.190   5.063 -0.5073 -0.2039  0.0365
  280poe    c31 1189   5.528   5.675   6.139 -0.3154 -0.0021 -0.1236
  280poe     o2 1190   5.658   5.693   6.086 -0.1558  0.3332  0.3737
  280poe    c23 1191   5.644   5.791   5.986 -0.2271 -0.6457 -0.5952
  280poe    c23 1192   5.775   5.828   5.914 -0.2715  0.2825 -0.2256
  280poe     o2 1193   5.830   5.705   5.871  0.4539 -0.0668  1.6315
  280poe    c23 1194   5.970   5.712   5.885  0.5967 -0.0960  0.3281
  280poe    c23 1195   6.017   5.567   5.905 -0.1297 -0.3106  0.4880
  280poe     o2 1196   5.920   5.507   5.989 -0.2014 -0.0360  0.6031
  280poe    c23 1197   5.940   5.369   6.014 -0.1540 -0.0817  0.3252
  280poe    c23 1198   5.805   5.320   6.072 -0.2382 -0.1555  0.0647
  280poe     o2 1199   5.733   5.417   6.145 -0.0661  0.2962 -0.3500
  280poe    c31 1200   5.623   5.343   6.195  0.3268  0.2243  0.4382
  281poe    c31 1201   3.009   5.171   0.829 -0.7383 -0.2269 -0.6600
  281poe     o2 1202   3.138   5.129   0.868 -0.7118  0.3699 -0.0739
  281poe    c23 1203   3.214   5.240   0.910 -0.1492  0.0268 -0.1778
  281poe    c23 1204   3.353   5.215   0.972 -0.3854 -0.3810  0.1975
  281poe     o2 1205   3.442   5.163   0.876 -0.2482 -0.1461  0.1980
  281poe    c23 1206   3.562   5.117   0.936 -0.2416 -0.3378  0.0397
  281poe    c23 1207   3.618   5.000   0.852  0.6140  0.0158  0.1093
  281poe     o2 1208   3.570   4.869   0.869 -0.0940  0.2516 -0.0311
  281poe    c23 1209   3.657   4.760   0.852 -0.3308  0.0703 -0.0883
  281poe    c23 1210   3.583   4.648   0.776 -0.0132 -0.6256  0.6051
  281poe     o2 1211   3.462   4.634   0.846 -0.3529  0.3344  0.2269
  281poe    c31 1212   3.394   4.525   0.787 -0.2650 -0.2534  1.1890
  282poe    c31 1213   3.482   2.296   6.484  0.0310 -0.1775  0.1901
  282poe     o2 1214   3.482   2.305   6.343 -0.0270  0.1302  0.2085
  282poe    c23 1215   3.418   2.193   6.286  0.1917  0.1028  0.0192
  282poe    c23 1216   3.465   2.164   6.142  0.6084 -0.1419  0.2021
  282poe     o2 1217   3.432   2.285   6.077  0.3059 -0.2405  0.1669
  282poe    c23 1218   3.517   2.304   5.966  0.2052  0.0645  0.1423
  282poe    c23 1219   3.601   2.429   5.998  0.0174  0.2560 -0.1064
  282poe     o2 1220   3.614   2.455   6.137 -0.6915  0.3834 -0.0628
  282poe    c23 1221   3.687   2.569   6.176  0.9682 -0.5250 -0.4337
  282poe    c23 1222   3.667   2.573   6.329  0.4489  0.5239 -0.5254
  282poe     o2 1223   3.526   2.575   6.341  0.4914  0.0542  0.0877
  282poe    c31 1224   3.485   2.631   6.464 -0.4415 -0.2459 -0.0795
  283poe    c31 1225   3.769   2.154   2.534 -0.4470  0.4541  0.3109
  283poe     o2 1226   3.862   2.059   2.581 -0.3184  0.2383 -0.3702
  283poe    c23 1227   3.915   1.987   2.471 -1.0280 -0.8743  0.0021
  283poe    c23 1228   4.018   1.886   2.524 -0.1224 -0.0358 -0.1430
  283poe     o2 1229   4.114   1.965   2.590 -0.0951 -0.2046  0.0193
  283poe    c23 1230   4.214   1.873   2.629 -0.3140 -0.5803 -0.2954
  283poe    c23 1231   4.285   1.918   2.758 -0.4763  0.7284 -0.6540
  283poe     o2 1232   4.186   1.936   2.857  0.0396  0.5948 -0.1037
  283poe    c23 1233   4.224   1.967   2.989 -0.1309 -0.0113  0.0876
  283poe    c23 1234   4.264   2.111   3.025 -0.8021  0.1936  0.0273
  283poe     o2 1235   4.164   2.207   3.053 -0.4651  0.5849 -0.1062
  283poe    c31 1236   4.214   2.291   3.154 -0.0722  0.2278 -0.0041
  284poe    c31 1237   6.114   2.298   2.580  0.2414  0.2947 -0.4342
  284poe     o2 1238   6.206   2.374   2.655 -0.0193  0.2169 -0.0310
  284poe    c23 1239   6.130   2.465   2.731 -0.2462 -0.2665  0.3240
  284poe    c23 1240   6.222   2.548   2.822 -0.2902  0.0251  0.1049
  284poe     o2 1241   6.309   2.453   2.878  0.3403  0.2452 -0.4904
  284poe    c23 1242   6.416   2.500   2.957 -0.3994  0.2105  0.5477
  284poe    c23 1243   6.505   2.381   2.996 -0.0640  0.1328 -0.4338
  284poe     o2 1244   6.519   2.324   2.868  0.4160 -0.4189 -0.1394
  284poe    c23 1245   6.584   2.198   2.866  0.4783 -0.3964  0.2955
  284poe    c23 1246   6.564   2.158   2.718 -0.0045  0.3059  0.1640
  284poe     o2 1247   6.429   2.190   2.692 -0.1218 -0.0213  0.3613
  284poe    c31 1248   6.399   2.134   2.566 -0.0356  0.2945  0.1974
  285poe    c31 1249   5.043   3.746   4.120  0.6145 -0.3657  0.2393
  285poe     o2 1250   5.005   3.750   3.985  0.2836 -0.1099  0.3386
  285poe    c23 1251   4.875   3.703   3.957  0.1584  0.7374 -0.5613
  285poe    c23 1252   4.862   3.671   3.807  0.2177  0.3538 -0.4868
  285poe     o2 1253   4.828   3.789   3.736 -0.1418  0.0483 -0.8280
  285poe    c23 1254   4.853   3.762   3.600 -0.6074 -0.1924 -0.8658
  285poe    c23 1255   4.849   3.896   3.524 -0.4650  0.2869 -0.0311
  285poe     o2 1256   4.946   3.988   3.571  0.0382 -0.1252 -0.2540
  285poe    c23 1257   4.977   4.076   3.466 -0.4600  0.1095 -0.2076
  285poe    c23 1258   5.061   4.185   3.534 -0.2667 -0.4943  0.5388
  285poe     o2 1259   4.993   4.216   3.654  0.0511 -0.2778  0.6652
  285poe    c31 1260   5.068   4.312   3.725  0.4389 -0.0772 -0.0089
  286poe    c31 1261   5.850   3.961   6.279 -0.6229 -0.3209  0.0092
  286poe     o2 1262   5.732   3.900   6.327 -0.4145 -0.6042  0.1606
  286poe    c23 1263   5.621   3.955   6.260 -0.0286 -0.4511 -0.3578
  286poe    c23 1264   5.488   3.902   6.316  0.0297  0.0467  0.2716
  286poe     o2 1265   5.523   3.766   6.327 -0.1937 -0.0565 -0.2594
  286poe    c23 1266   5.432   3.685   6.398  0.3311 -0.1893  0.2612
  286poe    c23 1267   5.479   3.687   6.545  0.0489  0.3933  0.3466
  286poe     o2 1268   5.619   3.675   6.546  0.0596  0.4459 -0.3216
  286poe    c23 1269   5.671   3.719   6.669 -0.4804  0.1964 -0.0020
  286poe    c23 1270   5.825   3.725   6.669 -0.4917  0.5344 -0.1844
  286poe     o2 1271   5.859   3.787   6.547 -0.0548  0.3920 -0.1368
  286poe    c31 1272   5.999   3.797   6.537 -0.0537  0.2456 -0.2847
  287poe    c31 1273   0.392   6.687   0.159  0.3489  0.1630  1.0752
  287poe     o2 1274   0.527   6.654   0.134  0.2914  0.5418  0.2437
  287poe    c23 1275   0.561   6.572   0.243 -0.7178 -0.0676  0.1134
  287poe    c23 1276   0.714   6.555   0.240 -0.6751  0.3385 -0.0006
  287poe     o2 1277   0.806   6.662   0.253 -0.0667 -0.1529 -0.2033
  287poe    c23 1278   0.813   6.710   0.385  1.1730 -0.7010 -0.0556
  287poe    c23 1279   0.883   6.845   0.405 -0.1666  0.1469 -0.9376
  287poe     o2 1280   0.837   6.954   0.328 -0.7396  0.3593 -0.2968
  287poe    c23 1281   0.895   7.076   0.367 -0.3476  0.1248 -0.1428
  287poe    c23 1282   0.897   7.181   0.254  0.0689  0.6482  0.3441
  287poe     o2 1283   0.790   7.158   0.166  0.1767 -0.1397  0.4116
  287poe    c31 1284   0.797   7.261   0.069  0.8773 -0.3222  0.2673
  288poe    c31 1285   3.174   5.540   3.527  0.2239  0.3074  0.1031
  288poe     o2 1286   3.275   5.554   3.429 -0.0159  0.2520 -0.1550
  288poe    c23 1287   3.408   5.534   3.473 -0.0635  0.2008 -0.0346
  288poe    c23 1288   3.521   5.553   3.370  0.0431 -0.3650 -0.0280
  288poe     o2 1289   3.513   5.484   3.248 -0.2749 -0.3251 -0.0311
  288poe    c23 1290   3.643   5.508   3.198 -0.6055 -0.1046 -0.7932
  288poe    c23 1291   3.656   5.436   3.063  0.0136 -0.3063 -0.6282
  288poe     o2 1292   3.529   5.445   3.001 -0.2634  0.0859 -0.0136
  288poe    c23 1293   3.534   5.414   2.863  0.4187 -0.1099  0.0499
  288poe    c23 1294   3.387   5.442   2.829  0.1785 -0.3936  0.8150
  288poe     o2 1295   3.306   5.409   2.939 -0.4910 -0.4582  0.3123
  288poe    c31 1296   3.182   5.347   2.912 -0.1667 -0.8671 -0.2406
  289poe    c31 1297   1.935   4.099   6.838 -0.6938 -0.2648  0.0544
  289poe     o2 1298   1.994   3.972   6.855  0.1511  0.1531  0.2880
  289poe    c23 1299   2.042   3.921   6.733  0.3346  0.2103  0.3363
  289poe    c23 1300   2.077   3.775   6.765  0.1600  0.1233  0.1287
  289poe     o2 1301   2.166   3.769   6.874 -0.0827  0.1492  0.3278
  289poe    c23 1302   2.153   3.636   6.920 -0.2809  0.0553  0.0030
  289poe    c23 1303   2.197   3.634   7.067 -0.6032 -0.6613  0.0944
  289poe     o2 1304   2.128   3.745   7.121 -0.1972 -0.3883  0.0559
  289poe    c23 1305   2.146   3.773   7.258  0.0258  0.3748 -0.1202
  289poe    c23 1306   2.064   3.897   7.296 -0.3387  0.0711  0.0966
  289poe     o2 1307   2.066   3.983   7.184  0.0055 -0.2856 -0.1710
  289poe    c31 1308   2.018   4.114   7.205  0.4407 -0.1771  0.1544
  290poe    c31 1309   6.032   0.062   4.890 -0.3758  0.4319  0.5452
  290poe     o2 1310   6.068   0.153   4.991  0.2469  0.3301  0.4211
  290poe    c23 1311   6.009   0.119   5.115  0.1259 -0.1391  0.2339
  290poe    c23 1312   6.047   0.222   5.222  0.1544 -0.0241  0.1126
  290poe     o2 1313   6.188   0.227   5.227  0.1383  0.3015  0.2559
  290poe    c23 1314   6.239   0.322   5.318  1.1810 -0.2532  0.2642
  290poe    c23 1315   6.256   0.455   5.243 -0.5565 -0.2186 -0.0993
  290poe     o2 1316   6.302   0.438   5.111  0.1358 -0.1362  0.1287
  290poe    c23 1317   6.267   0.548   5.031  0.5383  0.0910  0.2633
  290poe    c23 1318   6.258   0.510   4.882 -0.8057 -0.4146  0.4596
  290poe     o2 1319   6.202   0.381   4.875  0.0679 -0.7762  0.0092
  290poe    c31 1320   6.150   0.364   4.745 -0.1350 -0.1079 -0.0005
  291poe    c31 1321   5.443   6.261   3.579 -0.7497  0.4182  0.6606
  291poe     o2 1322   5.518   6.335   3.672 -0.0658  0.4114  0.1239
  291poe    c23 1323   5.654   6.360   3.641 -0.2652  1.0046 -0.2864
  291poe    c23 1324   5.738   6.333   3.766 -0.7356 -0.1723 -0.2078
  291poe     o2 1325   5.696   6.415   3.873 -0.2108  0.4544 -0.4774
  291poe    c23 1326   5.782   6.392   3.983  0.0628  0.4643 -0.6874
  291poe    c23 1327   5.725   6.475   4.099  0.1354 -0.3540 -0.0520
  291poe     o2 1328   5.586   6.452   4.100  0.0819 -0.0307  0.1268
  291poe    c23 1329   5.525   6.524   4.205 -0.3488  0.3198 -0.3551
  291poe    c23 1330   5.374   6.501   4.185 -0.4997  0.8647  0.1371
  291poe     o2 1331   5.348   6.365   4.160  0.0210  0.5080  1.4511
  291poe    c31 1332   5.208   6.352   4.162 -0.0340  0.4262 -0.5831
  292poe    c31 1333   5.670   1.509   6.841 -0.2440 -0.4974  0.1536
  292poe     o2 1334   5.641   1.383   6.786  0.1610 -0.4493 -0.1735
  292poe    c23 1335   5.517   1.330   6.828  0.1156 -0.2574 -0.0645
  292poe    c23 1336   5.432   1.276   6.712 -0.0413 -0.2581  0.0516
  292poe     o2 1337   5.496   1.173   6.639 -0.0114 -0.1762 -0.0368
  292poe    c23 1338   5.409   1.125   6.540  0.0703  0.1200 -0.2545
  292poe    c23 1339   5.470   0.995   6.484 -0.5174  0.3406 -1.4479
  292poe     o2 1340   5.609   1.000   6.461 -0.2804 -0.4010 -0.3165
  292poe    c23 1341   5.667   0.882   6.412 -0.2535 -0.3220 -0.4760
  292poe    c23 1342   5.817   0.917   6.415 -0.3301 -0.0417  0.2975
  292poe     o2 1343   5.838   0.966   6.545  0.1081 -0.3587  0.3491
  292poe    c31 1344   5.972   1.010   6.544 -0.0077 -0.0099  0.1056
  293poe    c31 1345   1.357   0.497   4.593 -0.0830  0.7420  0.0240
  293poe     o2 1346   1.410   0.596   4.508  0.3223  0.5037 -0.0036
  293poe    c23 1347   1.492   0.518   4.423 -0.1941  0.2301 -0.2602
  293poe    c23 1348   1.578   0.615   4.339  0.2006 -0.0361 -0.1664
  293poe     o2 1349   1.490   0.690   4.259 -0.0450 -0.0944  0.0463
  293poe    c23 1350   1.555   0.761   4.156  0.1139 -0.7505 -0.3150
  293poe    c23 1351   1.451   0.865   4.110  0.8163  0.4387  0.7120
  293poe     o2 1352   1.384   0.916   4.223  0.0267 -0.4616  0.6664
  293poe    c23 1353   1.422   1.051   4.240 -0.0022 -0.3070 -0.4642
  293poe    c23 1354   1.317   1.164   4.240 -0.2004 -0.4873  0.0468
  293poe     o2 1355   1.246   1.163   4.362  0.2316  0.2330  0.3123
  293poe    c31 1356   1.188   1.288   4.391  0.3949  0.4705 -0.3611
  294poe    c31 1357   4.200   0.728   3.271  0.3090 -0.3240  0.2358
  294poe     o2 1358   4.236   0.830   3.362 -0.1407  0.4376 -0.4248
  294poe    c23 1359   4.136   0.928   3.372 -0.6539 -0.1320  0.1675
  294poe    c23 1360   4.167   1.035   3.479 -0.2252  0.1523 -0.2395
  294poe     o2 1361   4.219   0.943   3.573 -0.8124 -0.1431 -0.2007
  294poe    c23 1362   4.254   1.017   3.688 -0.3800 -0.4102 -0.1576
  294poe    c23 1363   4.367   0.936   3.753 -0.1841  0.1457  0.2058
  294poe     o2 1364   4.448   0.885   3.650  0.0596  0.2955  0.3233
  294poe    c23 1365   4.557   0.965   3.609  0.0451  0.3082  0.3095
  294poe    c23 1366   4.615   0.907   3.479 -0.1483 -0.1779  0.4371
  294poe     o2 1367   4.503   0.869   3.402  0.3578  0.1825 -0.5038
  294poe    c31 1368   4.532   0.870   3.264 -0.0327  0.6064 -0.5844
  295poe    c31 1369   3.812   1.832   0.248  0.2304 -0.4225 -0.2871
  295poe     o2 1370   3.823   1.963   0.196 -0.2364 -0.4203 -0.3824
  295poe    c23 1371   3.934   1.965   0.110  0.2182 -0.0224  0.2086
  295poe    c23 1372   3.900   2.049  -0.014  0.0383  0.0062  0.2774
  295poe     o2 1373   3.857   2.176   0.031 -0.1089 -0.0589  0.3200
  295poe    c23 1374   3.737   2.219  -0.030 -0.2716 -0.5436  0.2918
  295poe    c23 1375   3.605   2.165   0.027 -0.3418 -0.1642  0.4899
  295poe     o2 1376   3.633   2.182   0.164  0.5638  0.0777  0.2825
  295poe    c23 1377   3.519   2.185   0.248  0.0738 -0.2659 -0.3646
  295poe    c23 1378   3.565   2.171   0.394 -0.3582  0.0191 -0.1995
  295poe     o2 1379   3.684   2.095   0.398 -0.1110  0.4285  0.2600
  295poe    c31 1380   3.687   2.004   0.506  0.0632 -0.0457 -0.1443
  296poe    c31 1381   3.412   3.411   1.672  0.1590 -0.2725  0.1263
  296poe     o2 1382   3.352   3.284   1.675 -0.0463 -0.1766  0.1040
  296poe    c23 1383   3.452   3.186   1.662 -0.1388 -0.2260 -0.2729
  296poe    c23 1384   3.394   3.057   1.602 -0.4401 -0.0068 -0.4518
  296poe     o2 1385   3.393   3.075   1.463 -0.2373  0.1369 -0.4341
  296poe    c23 1386   3.467   2.964   1.418 -0.5607 -0.2406 -0.0370
  296poe    c23 1387   3.470   2.968   1.264  0.6147 -0.2075 -0.0228
  296poe     o2 1388   3.344   3.004   1.213  0.7309  0.0907 -0.1016
  296poe    c23 1389   3.352   2.988   1.073 -0.3722 -0.1400 -0.1470
  296poe    c23 1390   3.206   3.000   1.025 -0.2907  0.3337 -0.2777
  296poe     o2 1391   3.139   3.086   1.113 -0.3210 -0.4395  0.4686
  296poe    c31 1392   3.007   3.101   1.064 -0.1048 -0.1663 -0.0391
  297poe    c31 1393   6.523   5.955   1.557  0.0267  0.6943 -0.0624
  297poe     o2 1394   6.599   5.940   1.439 -0.0645  0.1969 -0.0581
  297poe    c23 1395   6.530   6.013   1.340 -0.3476 -0.2387 -0.1862
  297poe    c23 1396   6.598   5.962   1.211 -0.1412 -0.1242 -0.1223
  297poe     o2 1397   6.738   5.961   1.228 -0.0997  0.1224 -0.4359
  297poe    c23 1398   6.797   5.999   1.106  0.5704  0.6205  0.0296
  297poe    c23 1399   6.948   5.990   1.131  0.4864  0.3658  0.4503
  297poe     o2 1400   6.977   6.064   1.247  0.1714  0.6202  0.3674
  297poe    c23 1401   7.074   6.007   1.333  0.1806  0.0242 -0.0313
  297poe    c23 1402   7.029   6.030   1.479  0.2185 -0.0348 -0.0104
  297poe     o2 1403   6.913   5.952   1.502 -0.5190  0.9264 -0.4021
  297poe    c31 1404   6.907   5.931   1.641  0.1493  0.3060 -0.4592
  298poe    c31 1405   4.057   1.332   1.950  0.4555  0.5438  0.6655
  298poe     o2 1406   4.166   1.249   1.985 -0.0065 -0.4241 -0.1458
  298poe    c23 1407   4.210   1.169   1.878  0.9089 -0.0503 -0.0601
  298poe    c23 1408   4.119   1.052   1.834 -0.0523  0.6929 -0.0867
  298poe     o2 1409   4.108   0.949   1.930  0.0726 -0.0917 -0.9044
  298poe    c23 1410   4.045   0.830   1.888 -0.0713 -0.3695  0.0826
  298poe    c23 1411   4.061   0.726   2.001  0.6655 -0.2808  0.0662
  298poe     o2 1412   3.970   0.719   2.109  0.0950 -0.4580 -0.4259
  298poe    c23 1413   4.037   0.713   2.233  0.5574  0.3615 -0.6325
  298poe    c23 1414   3.944   0.788   2.330  0.3222  0.3102 -0.8174
  298poe     o2 1415   3.817   0.733   2.300  0.1841  0.1226  0.0839
  298poe    c31 1416   3.745   0.733   2.421 -0.1209  0.7161 -0.0952
  299poe    c31 1417   4.432   2.875   2.454 -0.4788 -0.3668  0.6213
  299poe     o2 1418   4.518   2.888   2.343 -0.1996 -0.5916  0.8095
  299poe    c23 1419   4.545   2.763   2.284 -0.1152  0.0901 -0.6451
  299poe    c23 1420   4.633   2.803   2.164  0.4106 -0.8295 -0.5813
  299poe     o2 1421   4.551   2.878   2.077 -0.0318 -0.8740 -0.2056
  299poe    c23 1422   4.603   2.892   1.947  0.6417 -0.2034  0.1272
  299poe    c23 1423   4.682   3.020   1.911 -0.1686  0.1955 -0.2908
  299poe     o2 1424   4.615   3.141   1.884  0.2432  0.4200 -0.3177
  299poe    c23 1425   4.710   3.244   1.887  0.3727  0.2922  0.1653
  299poe    c23 1426   4.636   3.376   1.858 -0.5548 -0.2698 -0.0718
  299poe     o2 1427   4.589   3.438   1.976 -0.2064 -0.2309  0.0487
  299poe    c31 1428   4.665   3.552   2.010 -0.3637  0.2835 -1.2482
  300poe    c31 1429   1.881   2.192   0.152  0.2032  0.1605  0.2522
  300poe     o2 1430   1.741   2.191   0.138  0.1594  0.1909  0.6727
  300poe    c23 1431   1.714   2.314   0.076  0.1202 -0.2919 -0.2976
  300poe    c23 1432   1.563   2.346   0.078  0.2390  0.2975 -0.5221
  300poe     o2 1433   1.511   2.296   0.199 -0.3381  0.1327 -0.8328
  300poe    c23 1434   1.373   2.271   0.188 -0.3574 -0.0987 -0.1419
  300poe    c23 1435   1.345   2.132   0.247  0.3510 -0.0275  0.3685
  300poe     o2 1436   1.444   2.047   0.193  0.3416 -0.1909  0.6065
  300poe    c23 1437   1.427   1.910   0.222 -0.4404 -0.2280 -0.0024
  300poe    c23 1438   1.553   1.838   0.170 -0.2763 -0.0273  0.1137
  300poe     o2 1439   1.665   1.915   0.205 -0.5939  0.2717  0.4681
  300poe    c31 1440   1.773   1.844   0.260  0.2023  0.9840 -0.1538
  301poe    c31 1441   3.100   6.737   3.271 -0.0199 -0.4368 -0.0184
  301poe     o2 1442   3.166   6.616   3.241 -0.3205 -0.4705 -0.5436
  301poe    c23 1443   3.116   6.512   3.321 -0.4799 -0.4668 -0.6382
  301poe    c23 1444   3.211   6.391   3.333  0.5169  0.3915  0.2908
  301poe     o2 1445   3.261   6.367   3.204 -0.0695  0.2266  0.0885
  301poe    c23 1446   3.316   6.239   3.183 -0.3309  0.0593  0.4161
  301poe    c23 1447   3.313   6.220   3.030 -0.1778 -0.1388  0.4363
  301poe     o2 1448   3.323   6.353   2.984 -0.2157 -0.2134  0.2102
  301poe    c23 1449   3.242   6.349   2.869 -0.0993 -0.0847  0.1230
  301poe    c23 1450   3.197   6.494   2.841 -0.6746 -0.3240 -0.2160
  301poe     o2 1451   3.168   6.555   2.965 -0.5804 -0.2139 -0.2484
  301poe    c31 1452   3.113   6.678   2.922 -0.2335  0.1176  0.2358
  302poe    c31 1453   3.154   6.580   1.091  0.4993  0.6045 -0.1920
  302poe     o2 1454   3.243   6.674   1.147  0.4996  0.3192  0.2914
  302poe    c23 1455   3.261   6.776   1.051  0.3717 -0.1447 -0.2361
  302poe    c23 1456   3.356   6.891   1.091  0.0474 -0.1508  0.5728
  302poe     o2 1457   3.317   6.968   1.203  0.0058  0.2907  0.2538
  302poe    c23 1458   3.376   7.096   1.188 -0.0707  0.2571 -0.3721
  302poe    c23 1459   3.357   7.174   1.319  0.3418 -0.0319 -0.1370
  302poe     o2 1460   3.369   7.076   1.419  0.3888 -0.2352 -0.3429
  302poe    c23 1461   3.376   7.131   1.548  0.7071  0.0527 -0.4804
  302poe    c23 1462   3.364   7.015   1.649  0.3115  0.4160 -0.1051
  302poe     o2 1463   3.261   6.922   1.622  0.1873  0.3867  0.4550
  302poe    c31 1464   3.271   6.817   1.716  0.2503 -0.0707 -0.0537
  303poe    c31 1465   4.423   2.252   6.501 -0.2466  0.1594  0.2249
  303poe     o2 1466   4.399   2.167   6.611 -0.0992  0.2916  0.3593
  303poe    c23 1467   4.400   2.028   6.586 -0.4298  0.3161  0.1991
  303poe    c23 1468   4.373   1.944   6.713 -0.0261 -0.1685 -0.0307
  303poe     o2 1469   4.478   1.939   6.806  0.1885 -0.0561 -0.2659
  303poe    c23 1470   4.475   2.056   6.884 -0.0397 -0.2583  0.0283
  303poe    c23 1471   4.524   2.041   7.029  0.0446  0.2167  0.0524
  303poe     o2 1472   4.623   1.941   7.027 -0.5836 -0.4124 -0.0476
  303poe    c23 1473   4.711   1.955   7.137 -0.7107 -0.8077  0.1058
  303poe    c23 1474   4.824   1.852   7.116  0.1374  0.1635 -0.1630
  303poe     o2 1475   4.759   1.740   7.060  0.5105 -0.0795 -0.1164
  303poe    c31 1476   4.850   1.634   7.044 -0.2601 -0.5710 -1.4092
  304poe    c31 1477   5.267   3.109   4.234  0.4357 -0.4209 -0.0115
  304poe     o2 1478   5.403   3.142   4.249  0.3503 -0.1579  0.1901
  304poe    c23 1479   5.496   3.037   4.239  0.7315  0.1814  0.1694
  304poe    c23 1480   5.637   3.100   4.253  0.6654  0.2146  0.7195
  304poe     o2 1481   5.626   3.215   4.172  0.3535 -0.2841  0.0413
  304poe    c23 1482   5.755   3.260   4.140  0.2122 -0.4516 -0.7923
  304poe    c23 1483   5.781   3.403   4.087 -0.3731  0.0101  0.1442
  304poe     o2 1484   5.744   3.497   4.186 -0.3853  0.2723 -0.1111
  304poe    c23 1485   5.783   3.627   4.149  0.4550  0.1168  0.2194
  304poe    c23 1486   5.748   3.708   4.276 -0.1449 -0.1806  0.2445
  304poe     o2 1487   5.811   3.657   4.392 -0.1914 -0.5908  0.0923
  304poe    c31 1488   5.725   3.721   4.484 -0.8299 -0.7649 -0.3769
  305poe    c31 1489   2.544   2.359   1.754  0.1687 -0.5546 -0.3845
  305poe     o2 1490   2.546   2.312   1.621  0.0530  0.0210 -0.5948
  305poe    c23 1491   2.530   2.172   1.612 -0.2484  0.0568 -0.6073
  305poe    c23 1492   2.646   2.131   1.520  0.1469 -0.6219  0.1775
  305poe     o2 1493   2.655   2.227   1.417  0.3788 -0.6446  0.1771
  305poe    c23 1494   2.769   2.236   1.334  0.6486 -0.3255  0.5825
  305poe    c23 1495   2.791   2.381   1.289 -0.0524 -0.4570 -0.1914
  305poe     o2 1496   2.762   2.459   1.403 -0.3441 -0.0895 -0.5123
  305poe    c23 1497   2.776   2.598   1.389 -0.2664  0.0192  0.5613
  305poe    c23 1498   2.698   2.667   1.502 -0.0952  0.7101  0.2650
  305poe     o2 1499   2.583   2.585   1.500  0.2705  0.2110 -0.4613
  305poe    c31 1500   2.476   2.675   1.490  0.3666  0.4300  0.3923
  306poe    c31 1501   4.198   3.199   6.450 -0.0235 -0.2881  0.5627
  306poe     o2 1502   4.315   3.121   6.460  0.6336  0.5624 -0.2927
  306poe    c23 1503   4.408   3.180   6.549  0.2225 -0.1065  0.5927
  306poe    c23 1504   4.538   3.098   6.539  0.0795 -0.4042  1.1124
  306poe     o2 1505   4.517   2.960   6.521 -0.1232 -0.2579  0.1917
  306poe    c23 1506   4.635   2.890   6.552 -0.0932 -0.3870 -0.2141
  306poe    c23 1507   4.628   2.759   6.470  0.4789 -0.5067 -0.0766
  306poe     o2 1508   4.521   2.682   6.519  0.2291  0.0331  0.2419
  306poe    c23 1509   4.430   2.639   6.420  0.4009  0.1653  0.0286
  306poe    c23 1510   4.286   2.688   6.442  0.3192 -0.0271 -0.0849
  306poe     o2 1511   4.275   2.828   6.453 -0.6672 -0.0500 -0.5965
  306poe    c31 1512   4.163   2.859   6.531 -0.4262  0.4748 -0.4532
  307poe    c31 1513   1.293   4.155   2.842 -1.1703 -0.2856  0.7994
  307poe     o2 1514   1.338   4.189   2.972  0.0796  0.5521  0.1662
  307poe    c23 1515   1.270   4.127   3.079 -0.2567  0.8766  0.1431
  307poe    c23 1516   1.353   4.129   3.208 -0.2841  0.0483  0.1743
  307poe     o2 1517   1.403   4.253   3.252 -0.1004  0.0705 -0.0923
  307poe    c23 1518   1.469   4.245   3.376  0.2052 -0.9702 -0.3136
  307poe    c23 1519   1.533   4.385   3.388 -0.2862 -0.7078 -0.7696
  307poe     o2 1520   1.466   4.490   3.322  0.3472 -0.0578 -0.3947
  307poe    c23 1521   1.553   4.597   3.294 -0.1421  0.1818 -1.0400
  307poe    c23 1522   1.465   4.716   3.252 -0.2339  0.3280 -0.4428
  307poe     o2 1523   1.363   4.687   3.159 -0.2175  0.4311 -0.4930
  307poe    c31 1524   1.303   4.812   3.132  0.6164  0.8266 -0.5418
  308poe    c31 1525   6.279   6.202   3.998 -1.0427  0.1018  0.3637
  308poe     o2 1526   6.232   6.069   3.994  0.0898 -0.3010 -0.1653
  308poe    c23 1527   6.242   6.013   4.123  0.2625  0.0679 -0.0164
  308poe    c23 1528   6.205   5.864   4.116  0.2915  0.0701 -0.2116
  308poe     o2 1529   6.217   5.803   3.990  0.5636  0.0711 -0.1883
  308poe    c23 1530   6.138   5.687   3.984  0.0482  0.3730  0.6177
  308poe    c23 1531   6.139   5.601   3.856  0.4798  0.3287  0.6519
  308poe     o2 1532   6.265   5.573   3.799  0.1809 -0.2456  0.2708
  308poe    c23 1533   6.250   5.528   3.666  0.3833  0.3683  0.0361
  308poe    c23 1534   6.385   5.472   3.617 -0.0799 -0.6497 -0.1190
  308poe     o2 1535   6.484   5.489   3.715 -0.0613  0.0477 -0.2481
  308poe    c31 1536   6.611   5.458   3.660  0.3180 -0.1619  0.7080
  309poe    c31 1537   2.359   3.898   1.482  0.1852 -0.2621  0.6705
  309poe     o2 1538   2.251   3.843   1.411  0.3795  0.6711 -0.3916
  309poe    c23 1539   2.219   3.715   1.462 -0.0260  0.5285 -0.9996
  309poe    c23 1540   2.069   3.684   1.443  0.0530 -0.5473  0.0499
  309poe     o2 1541   2.043   3.715   1.308  0.4259 -0.0049  0.1025
  309poe    c23 1542   1.912   3.766   1.303  0.2172 -0.5798 -0.3948
  309poe    c23 1543   1.900   3.867   1.188  0.4880 -0.4236 -0.2872
  309poe     o2 1544   2.027   3.928   1.181  0.1822  0.2801  0.2942
  309poe    c23 1545   2.007   4.063   1.145  0.5636 -0.0116 -1.0436
  309poe    c23 1546   2.142   4.125   1.101  0.5748  0.8579  0.1576
  309poe     o2 1547   2.244   4.108   1.197  0.9238 -0.5230 -0.4376
  309poe    c31 1548   2.350   4.187   1.149  0.4043  0.4159 -0.0665
  310poe    c31 1549   5.876   3.378   5.350 -0.2101  0.2650  0.4329
  310poe     o2 1550   5.774   3.287   5.384  0.0949 -0.2655 -0.0523
  310poe    c23 1551   5.791   3.228   5.511 -0.0303  0.5992  0.3749
  310poe    c23 1552   5.671   3.144   5.556  0.3880  0.0119  0.4085
  310poe     o2 1553   5.577   3.241   5.598  0.3628  0.2493 -0.1726
  310poe    c23 1554   5.575   3.256   5.739 -1.0608 -0.1769 -0.1331
  310poe    c23 1555   5.487   3.379   5.766 -0.1250  0.3661  0.5099
  310poe     o2 1556   5.391   3.393   5.662  0.1845  0.1134  0.1895
  310poe    c23 1557   5.342   3.525   5.664  0.1449  0.1096 -0.3626
  310poe    c23 1558   5.208   3.516   5.589  0.0291  0.3467 -0.1837
  310poe     o2 1559   5.236   3.442   5.473 -0.1390  0.7135 -0.4605
  310poe    c31 1560   5.123   3.425   5.390 -0.0170 -1.0799 -0.2920
  311poe    c31 1561   2.762   4.903   2.417  0.3171 -0.3037  0.2161
  311poe     o2 1562   2.825   4.998   2.499  0.7055 -0.2528 -0.1353
  311poe    c23 1563   2.926   4.940   2.578  0.6900  0.5137  0.4645
  311poe    c23 1564   3.006   5.046   2.656  0.1559  0.6171  0.8762
  311poe     o2 1565   2.997   5.160   2.573  0.1422  0.2721  0.4027
  311poe    c23 1566   3.125   5.221   2.578  0.4455 -0.3049 -0.1255
  311poe    c23 1567   3.149   5.317   2.460  0.3436 -0.2367 -0.0913
  311poe     o2 1568   3.025   5.379   2.435  0.0723 -0.6159  0.2994
  311poe    c23 1569   2.981   5.367   2.301 -0.1306 -1.0462  0.4012
  311poe    c23 1570   2.828   5.367   2.287 -0.1092  0.1673  0.1152
  311poe     o2 1571   2.765   5.246   2.321  0.3621 -0.0448  0.2401
  311poe    c31 1572   2.630   5.245   2.281  0.4588 -0.1610 -0.0853
  312poe    c31 1573   2.406   5.190   5.480  0.0982 -0.5939  0.2473
  312poe     o2 1574   2.532   5.155   5.533  0.2308 -0.2402  0.1717
  312poe    c23 1575   2.615   5.268   5.549  0.2993 -0.2802  0.1006
  312poe    c23 1576   2.705   5.212   5.660  0.1189 -0.4279  0.1735
  312poe     o2 1577   2.740   5.083   5.617 -0.4529 -0.3731 -0.4689
  312poe    c23 1578   2.802   5.011   5.722 -0.0691  0.2133 -0.2902
  312poe    c23 1579   2.860   4.879   5.670  0.0109 -0.0357  0.4226
  312poe     o2 1580   2.762   4.805   5.601  0.3875 -0.4429  0.3190
  312poe    c23 1581   2.803   4.760   5.473 -0.0793  0.2993 -0.0964
  312poe    c23 1582   2.676   4.759   5.386 -0.3064  0.0092  0.2355
  312poe     o2 1583   2.625   4.888   5.410  0.1566  0.1731  0.3424
  312poe    c31 1584   2.572   4.926   5.285 -0.0380  0.3386  0.4751
  313poe    c31 1585   3.147   4.267   6.656 -0.1062 -0.1862  0.3874
  313poe     o2 1586   3.274   4.254   6.597  0.0416 -0.2791  0.7241
  313poe    c23 1587   3.309   4.372   6.528 -0.4883 -0.9456 -0.7287
  313poe    c23 1588   3.434   4.349   6.440  0.1954 -0.2354  0.0468
  313poe     o2 1589   3.412   4.244   6.350  0.2104 -0.3360  0.1598
  313poe    c23 1590   3.531   4.218   6.279 -0.1051 -0.0003 -0.5115
  313poe    c23 1591   3.534   4.064   6.282  0.2105  0.0094 -0.2132
  313poe     o2 1592   3.511   4.040   6.419 -0.0761 -0.1462 -0.2860
  313poe    c23 1593   3.484   3.901   6.425  0.0493 -0.1546  0.1980
  313poe    c23 1594   3.405   3.878   6.554  0.1452  0.4036  0.3596
  313poe     o2 1595   3.298   3.970   6.562 -0.0010  0.2705 -0.0749
  313poe    c31 1596   3.211   3.921   6.661  0.7756 -0.0779  0.4468
  314poe    c31 1597   2.635   3.427   2.368 -0.1656 -0.4681  0.1993
  314poe     o2 1598   2.635   3.485   2.497  0.0726 -0.3126  0.1304
  314poe    c23 1599   2.764   3.539   2.513  0.0519 -0.1821 -0.1378
  314poe    c23 1600   2.827   3.528   2.653 -0.4422 -0.1674  0.0864
  314poe     o2 1601   2.887   3.404   2.682  0.6929  0.3003 -0.1926
  314poe    c23 1602   2.824   3.357   2.800  0.6239 -0.1079 -0.3922
  314poe    c23 1603   2.794   3.206   2.806 -0.0322  0.0289 -0.1530
  314poe     o2 1604   2.914   3.133   2.789  0.1351  0.1474  0.4994
  314poe    c23 1605   2.893   2.995   2.771  0.2704  0.2322 -0.3111
  314poe    c23 1606   3.032   2.939   2.735  0.1873 -0.1212 -0.0840
  314poe     o2 1607   3.111   2.995   2.838  0.0435  0.2155 -0.1568
  314poe    c31 1608   3.212   2.911   2.888 -0.2506  0.0387  0.1435
  315poe    c31 1609   1.287   2.383   6.474 -0.6726  0.5493 -0.8484
  315poe     o2 1610   1.163   2.315   6.477 -0.1682 -0.3663 -0.2017
  315poe    c23 1611   1.128   2.309   6.614 -0.2308 -0.4505 -0.2214
  315poe    c23 1612   1.009   2.217   6.647  0.0847 -0.9641 -0.4922
  315poe     o2 1613   1.062   2.087   6.654  0.1690 -0.8847  0.5354
  315poe    c23 1614   0.952   1.999   6.646 -0.3687 -0.2335  0.6979
  315poe    c23 1615   0.998   1.852   6.640  0.2229 -0.0066 -0.4958
  315poe     o2 1616   1.078   1.843   6.525 -0.1440  0.2917 -0.7781
  315poe    c23 1617   1.101   1.716   6.467 -0.3889  0.0357 -0.3192
  315poe    c23 1618   1.158   1.720   6.324  0.4030  0.4711 -0.0007
  315poe     o2 1619   1.273   1.802   6.319  0.2305  0.7070 -0.1640
  315poe    c31 1620   1.363   1.757   6.220 -0.0068  0.1689 -0.1428
  316poe    c31 1621   6.485   0.784   4.872  0.2594 -0.3233  0.0369
  316poe     o2 1622   6.438   0.859   4.762  0.0325  0.1847  0.4765
  316poe    c23 1623   6.508   0.831   4.643  0.4288  0.5248  0.6263
  316poe    c23 1624   6.474   0.937   4.536  0.1023  0.0124  0.2199
  316poe     o2 1625   6.338   0.908   4.512  0.1737  0.4677 -0.7691
  316poe    c23 1626   6.300   0.812   4.416  0.1309  0.2300 -0.5157
  316poe    c23 1627   6.146   0.807   4.417  0.1469 -0.1920  0.5809
  316poe     o2 1628   6.095   0.939   4.411 -0.0816 -0.2959  0.2541
  316poe    c23 1629   5.954   0.941   4.420 -0.1466  0.4852 -0.7528
  316poe    c23 1630   5.905   1.062   4.502 -0.0402 -0.0067  0.0517
  316poe     o2 1631   5.995   1.077   4.610  0.1040  0.4187 -0.1233
  316poe    c31 1632   5.947   1.182   4.691  0.0651  0.2716  0.0456
  317poe    c31 1633   0.778   2.903   4.133  0.6143 -0.4507 -0.2326
  317poe     o2 1634   0.882   2.935   4.042  1.0897 -1.0949  0.0683
  317poe    c23 1635   0.932   3.057   4.093  0.1350 -0.6508 -0.0249
  317poe    c23 1636   1.001   3.123   3.972 -0.0173  0.4443  0.4751
  317poe     o2 1637   0.910   3.108   3.865  0.3538 -0.1304  0.2408
  317poe    c23 1638   0.950   3.199   3.765  0.2780 -0.3900 -0.0302
  317poe    c23 1639   0.877   3.208   3.630 -0.1023  0.3033  0.2146
  317poe     o2 1640   0.871   3.086   3.560 -0.3522  0.6621 -0.3963
  317poe    c23 1641   0.785   3.091   3.449 -0.4411 -0.3348 -0.3863
  317poe    c23 1642   0.754   2.954   3.386  0.6201 -0.4735 -0.6219
  317poe     o2 1643   0.694   2.874   3.485  0.1588  0.8102  0.1675
  317poe    c31 1644   0.612   2.780   3.418  0.0225  0.2751  1.0743
  318poe    c31 1645   4.201   3.343   5.010  0.6560 -0.4487 -0.0053
  318poe     o2 1646   4.145   3.448   5.086 -0.4056 -0.3637 -0.8795
  318poe    c23 1647   4.029   3.498   5.025 -0.3548  0.4916 -0.2956
  318poe    c23 1648   3.955   3.611   5.100 -0.1136  0.2283  0.3433
  318poe     o2 1649   3.961   3.584   5.238  0.2571  0.3067  0.3425
  318poe    c23 1650   3.967   3.687   5.334  0.1092  0.7856 -0.1603
  318poe    c23 1651   4.113   3.736   5.342  0.2286  0.3219  0.5716
  318poe     o2 1652   4.208   3.631   5.342  0.1628  0.2591  0.1857
  318poe    c23 1653   4.339   3.682   5.330  0.3313 -0.2551 -0.1816
  318poe    c23 1654   4.415   3.555   5.373 -0.3149 -0.5506  0.1072
  318poe     o2 1655   4.331   3.449   5.335 -1.0372  0.1966 -0.4287
  318poe    c31 1656   4.374   3.331   5.401  0.3554  0.5717 -0.6339
  319poe    c31 1657   1.315   0.116   0.879  0.1849  0.7292 -0.0151
  319poe     o2 1658   1.250   0.238   0.852 -0.3864  0.4420  0.0689
  319poe    c23 1659   1.188   0.210   0.728 -0.1119  0.0568  0.0190
  319poe    c23 1660   1.161   0.354   0.681  0.1094  0.1186  0.0773
  319poe     o2 1661   1.108   0.420   0.793 -0.1548 -0.2135  0.1523
  319poe    c23 1662   1.066   0.551   0.759 -0.4869 -0.2817  0.2968
  319poe    c23 1663   1.078   0.621   0.896 -0.1969  0.2882 -0.0199
  319poe     o2 1664   1.208   0.602   0.945 -0.0982  0.1462 -0.3389
  319poe    c23 1665   1.213   0.638   1.081  0.3592 -0.7440 -0.1106
  319poe    c23 1666   1.285   0.527   1.160  0.6950 -0.5188 -0.1001
  319poe     o2 1667   1.264   0.401   1.101 -0.2822 -0.7308  0.6819
  319poe    c31 1668   1.302   0.281   1.165  0.8567 -0.3309  0.7814
  320poe    c31 1669   0.124   1.905   6.192  0.4524 -0.1145  0.1478
  320poe     o2 1670   0.052   1.830   6.096 -0.3902  0.1038  0.5986
  320poe    c23 1671  -0.080   1.881   6.101 -0.5413 -0.2498  0.2357
  320poe    c23 1672  -0.151   1.881   5.964 -0.5575 -0.6350  0.2431
  320poe     o2 1673  -0.114   1.748   5.936  0.8970 -0.1571 -0.2035
  320poe    c23 1674  -0.203   1.683   5.848  0.2010 -0.1299  0.4685
  320poe    c23 1675  -0.147   1.542   5.822 -0.0011 -0.0833 -0.2548
  320poe     o2 1676  -0.008   1.561   5.800  0.0510 -0.3583 -0.1716
  320poe    c23 1677   0.078   1.452   5.821 -0.0874 -0.3609  0.4249
  320poe    c23 1678   0.123   1.436   5.967  1.1794  0.0164  0.0908
  320poe     o2 1679   0.145   1.563   6.025  0.5660  0.3448 -0.3852
  320poe    c31 1680   0.162   1.542   6.163  0.5044  0.1351 -0.4089
  321poe    c31 1681   1.121   6.830   4.803  0.4165 -0.7449 -0.2115
  321poe     o2 1682   1.252   6.874   4.778  0.0932  0.1045 -0.4504
  321poe    c23 1683   1.249   7.015   4.791 -0.0775  0.1093 -0.5491
  321poe    c23 1684   1.396   7.042   4.827 -0.0995 -0.6338  0.1317
  321poe     o2 1685   1.465   6.969   4.727  0.1226 -0.0996 -0.1076
  321poe    c23 1686   1.599   6.947   4.764  0.0671 -0.2330  0.0173
  321poe    c23 1687   1.632   6.828   4.672 -0.3104 -0.0201 -0.3970
  321poe     o2 1688   1.521   6.740   4.677 -0.4730  0.2022 -0.0691
  321poe    c23 1689   1.532   6.621   4.603  0.2127 -0.1932  0.6602
  321poe    c23 1690   1.391   6.566   4.574  0.3085 -0.2001  0.2052
  321poe     o2 1691   1.302   6.675   4.572  0.1641 -0.3213  0.0182
  321poe    c31 1692   1.191   6.642   4.491  0.1259 -0.5508  0.1634
  322poe    c31 1693   4.546   3.447   6.799  0.5658 -1.2351  0.0589
  322poe     o2 1694   4.647   3.528   6.743 -0.2770 -0.0047  0.2870
  322poe    c23 1695   4.762   3.452   6.715 -0.1763  0.3441 -0.2711
  322poe    c23 1696   4.874   3.524   6.794 -0.2053 -0.2901  0.3661
  322poe     o2 1697   4.865   3.665   6.792  0.3676 -0.2527 -0.8239
  322poe    c23 1698   4.901   3.725   6.670 -0.2819  0.8987 -0.4593
  322poe    c23 1699   4.841   3.867   6.680  0.0980  1.0456 -0.2079
  322poe     o2 1700   4.700   3.855   6.676  0.1578  0.2410 -0.0259
  322poe    c23 1701   4.644   3.866   6.547 -0.0066 -0.4205 -0.0170
  322poe    c23 1702   4.491   3.851   6.554 -0.1177  0.6122  0.0152
  322poe     o2 1703   4.476   3.763   6.664 -0.3167  0.4251 -0.1598
  322poe    c31 1704   4.342   3.780   6.704 -0.1893  0.3639  0.2931
  323poe    c31 1705   0.203   1.419   2.952  0.2862 -0.4010 -0.7250
  323poe     o2 1706   0.294   1.376   3.050  0.0362  0.3187 -0.1707
  323poe    c23 1707   0.431   1.388   3.018 -0.0011 -0.2586 -0.5479
  323poe    c23 1708   0.511   1.347   3.143  0.2261 -0.0320 -0.6185
  323poe     o2 1709   0.460   1.219   3.174 -0.4985  0.3804 -0.0919
  323poe    c23 1710   0.529   1.167   3.285 -0.1729  0.4129 -0.2755
  323poe    c23 1711   0.444   1.056   3.351 -0.1290  0.6303  0.1512
  323poe     o2 1712   0.317   1.113   3.373 -0.2402  0.2411  0.5284
  323poe    c23 1713   0.234   1.026   3.447 -0.2560 -0.2667 -0.0676
  323poe    c23 1714   0.084   1.059   3.457 -0.1308  0.3571 -0.2159
  323poe     o2 1715   0.010   1.079   3.338  0.0454  0.4802 -0.3050
  323poe    c31 1716  -0.125   1.118   3.347 -0.1427 -0.1999 -0.1570
  324poe    c31 1717   1.238   6.688   5.300 -0.3524  0.0757 -0.1063
  324poe     o2 1718   1.229   6.661   5.439  0.3036  0.4374  0.0124
  324poe    c23 1719   1.262   6.528   5.471  0.3524  0.4666  0.0819
  324poe    c23 1720   1.211   6.510   5.615  0.3230 -0.7024 -0.0688
  324poe     o2 1721   1.255   6.619   5.692 -0.5811 -0.2781 -0.1368
  324poe    c23 1722   1.230   6.601   5.830  0.1578 -0.1095  0.0249
  324poe    c23 1723   1.246   6.726   5.918 -0.6430 -0.2285  0.3463
  324poe     o2 1724   1.166   6.824   5.857  0.4045  0.3888 -0.0508
  324poe    c23 1725   1.147   6.939   5.937  0.7225  0.0416  0.5316
  324poe    c23 1726   1.039   6.939   6.046 -0.2004 -0.1545 -0.3631
  324poe     o2 1727   1.053   6.827   6.131  0.3700  0.2731  0.1184
  324poe    c31 1728   0.925   6.768   6.126  0.4821 -0.0430  0.9061
  325poe    c31 1729   0.644   5.053   3.375 -0.1436 -0.4831 -0.0303
  325poe     o2 1730   0.570   4.934   3.392 -0.5179 -0.2461  0.0242
  325poe    c23 1731   0.499   4.892   3.277 -0.4287  0.0278 -0.1333
  325poe    c23 1732   0.498   4.738   3.276  0.8464  0.0063  0.2557
  325poe     o2 1733   0.452   4.702   3.405 -0.2676 -0.0787 -0.1514
  325poe    c23 1734   0.467   4.563   3.423 -0.6533 -0.1081 -0.0571
  325poe    c23 1735   0.425   4.564   3.571 -0.7642  0.2792 -0.0914
  325poe     o2 1736   0.515   4.650   3.638 -0.5241 -0.4837  0.5853
  325poe    c23 1737   0.476   4.686   3.769 -0.0996  0.1886  0.5262
  325poe    c23 1738   0.577   4.797   3.808  0.0245  0.1569  0.3022
  325poe     o2 1739   0.580   4.893   3.705  0.1302  0.0485  0.2030
  325poe    c31 1740   0.650   5.010   3.743  1.0070 -0.3423 -0.2088
  326poe    c31 1741   6.041   0.975   3.629 -0.5596  0.1177  0.1031
  326poe     o2 1742   6.045   0.861   3.546 -0.1066  0.2498 -0.0596
  326poe    c23 1743   5.930   0.861   3.464 -0.4291 -0.3485  0.3931
  326poe    c23 1744   5.937   0.729   3.385 -0.3436 -0.3344  0.3776
  326poe     o2 1745   5.850   0.712   3.275  0.0846  0.1386 -0.0379
  326poe    c23 1746   5.853   0.576   3.241 -0.3100  0.0291  0.3537
  326poe    c23 1747   5.793   0.562   3.100  0.6159  0.8570 -0.1301
  326poe     o2 1748   5.683   0.647   3.078 -0.2494 -0.0300  0.7005
  326poe    c23 1749   5.637   0.620   2.948  0.6983 -0.0625  0.3642
  326poe    c23 1750   5.519   0.698   2.887  0.2601 -0.5162  0.6292
  326poe     o2 1751   5.403   0.683   2.966 -0.0537  0.1427  0.3002
  326poe    c31 1752   5.300   0.760   2.907  0.0101 -0.1289 -0.1638
  327poe    c31 1753   5.095   1.788   0.620  0.0475 -0.2338 -0.4447
  327poe     o2 1754   5.132   1.651   0.619 -0.3515 -0.3576  0.3994
  327poe    c23 1755   5.272   1.639   0.631 -0.2586  0.7522  0.5992
  327poe    c23 1756   5.319   1.502   0.683 -0.2377  0.6249  0.2526
  327poe     o2 1757   5.309   1.404   0.582 -0.4665  0.0053  0.8617
  327poe    c23 1758   5.334   1.276   0.634 -0.1761 -0.3769 -0.1909
  327poe    c23 1759   5.329   1.183   0.511 -0.1250  0.1755 -0.6138
  327poe     o2 1760   5.218   1.189   0.425 -0.2577 -0.6148 -0.5029
  327poe    c23 1761   5.240   1.108   0.311  0.2489 -0.6811 -0.3577
  327poe    c23 1762   5.115   1.145   0.230 -0.0432 -0.2918  0.2622
  327poe     o2 1763   5.095   1.285   0.230  0.0879 -0.2718  0.0849
  327poe    c31 1764   4.986   1.329   0.151  0.4307 -0.2782 -0.3923
  328poe    c31 1765   2.523   3.504   1.244 -0.2950  0.0046  0.5311
  328poe     o2 1766   2.562   3.406   1.150  0.3954  0.1213  0.6961
  328poe    c23 1767   2.701   3.424   1.130  0.2291 -0.0163 -0.6374
  328poe    c23 1768   2.729   3.306   1.035 -0.0181 -0.4451 -0.1827
  328poe     o2 1769   2.615   3.292   0.954 -0.5902  0.0462  0.5273
  328poe    c23 1770   2.607   3.164   0.895  0.1568  0.1487  0.2019
  328poe    c23 1771   2.462   3.149   0.846  0.2000  0.2291  0.0477
  328poe     o2 1772   2.388   3.186   0.960  0.2835  0.3136  0.0741
  328poe    c23 1773   2.256   3.138   0.955  0.2251  0.5060 -0.2836
  328poe    c23 1774   2.193   3.137   1.096 -0.8685 -0.2923 -0.7715
  328poe     o2 1775   2.216   3.260   1.160 -0.2203 -0.5234 -0.5580
  328poe    c31 1776   2.174   3.267   1.294 -0.3956 -0.3165 -0.6229
  329poe    c31 1777   2.131   4.508   0.309  0.2179  0.1749 -0.4569
  329poe     o2 1778   2.092   4.539   0.177 -0.3275  0.5125 -0.2199
  329poe    c23 1779   2.053   4.675   0.170 -0.3457  0.5092 -0.1788
  329poe    c23 1780   1.986   4.719   0.039 -0.6585  0.1524 -0.1381
  329poe     o2 1781   2.066   4.717  -0.077 -0.5716  0.0928 -0.0762
  329poe    c23 1782   1.988   4.737  -0.193 -0.3117 -0.3118 -0.3233
  329poe    c23 1783   2.065   4.704  -0.322 -0.0260 -0.6518 -0.0708
  329poe     o2 1784   2.199   4.727  -0.285 -0.0188 -0.1914 -0.3785
  329poe    c23 1785   2.276   4.659  -0.382 -0.1050 -0.5406 -0.2012
  329poe    c23 1786   2.425   4.674  -0.345 -0.3184 -0.2140  0.5492
  329poe     o2 1787   2.446   4.649  -0.208 -0.3084 -0.7572  0.4531
  329poe    c31 1788   2.583   4.632  -0.181 -0.3861 -0.5451  0.9970
  330poe    c31 1789   6.053   0.263   0.270  0.7926 -0.2566 -0.3267
  330poe     o2 1790   6.093   0.134   0.310  0.3796 -0.3889 -0.3275
  330poe    c23 1791   5.990   0.046   0.272 -0.1600  0.1055 -0.0315
  330poe    c23 1792   6.017  -0.091   0.336  0.8567 -0.0434 -0.7475
  330poe     o2 1793   6.118  -0.159   0.265  1.4324  0.3792 -0.3452
  330poe    c23 1794   6.114  -0.300   0.267  0.2655  0.4093 -0.1736
  330poe    c23 1795   6.188  -0.344   0.139  0.4004 -0.0977  0.0803
  330poe     o2 1796   6.318  -0.290   0.144  0.2915  0.1316  0.4859
  330poe    c23 1797   6.359  -0.265   0.011 -0.1887 -0.4471  0.2212
  330poe    c23 1798   6.499  -0.200   0.011 -0.5070  0.2538  0.2900
  330poe     o2 1799   6.485  -0.106   0.115 -0.8344 -0.7635  1.1943
  330poe    c31 1800   6.606  -0.067   0.176 -0.2957  0.0422 -0.3333
  331poe    c31 1801   5.912   6.373   1.912  0.1217 -0.2080 -0.0443
  331poe     o2 1802   5.955   6.352   1.779  0.2091  0.1322 -0.0681
  331poe    c23 1803   5.857   6.289   1.701  0.5991 -0.0601 -0.4046
  331poe    c23 1804   5.880   6.338   1.557  0.3423  0.0125 -0.4221
  331poe     o2 1805   6.014   6.301   1.531  0.6305  0.5054  0.3099
  331poe    c23 1806   6.065   6.354   1.411  0.0246  0.2133 -0.0839
  331poe    c23 1807   6.213   6.314   1.425 -0.1848 -0.4805  0.1889
  331poe     o2 1808   6.243   6.326   1.563  0.6244  0.0074 -0.0241
  331poe    c23 1809   6.378   6.318   1.604  0.8012  0.8613 -0.4112
  331poe    c23 1810   6.372   6.357   1.753 -0.1673  1.2346 -0.5373
  331poe     o2 1811   6.255   6.306   1.812  0.2016  0.7487 -0.2104
  331poe    c31 1812   6.278   6.274   1.948 -0.1643  0.3536 -0.2401
  332poe    c31 1813   5.283   3.080   5.604 -0.3848  0.0207  0.0046
  332poe     o2 1814   5.321   3.141   5.483 -0.4240 -0.2218 -0.1292
  332poe    c23 1815   5.292   3.051   5.378 -0.5474 -0.4932  0.1372
  332poe    c23 1816   5.422   2.973   5.348 -0.0066  0.5789 -0.3717
  332poe     o2 1817   5.493   3.060   5.263  0.2601  0.6242 -0.1035
  332poe    c23 1818   5.625   3.012   5.252  0.1131  0.2959 -0.4341
  332poe    c23 1819   5.676   3.084   5.125  0.1123  0.3613 -0.3975
  332poe     o2 1820   5.632   3.035   5.000 -0.2201 -0.3553 -0.0063
  332poe    c23 1821   5.722   2.938   4.951  0.1666  0.4053 -0.8295
  332poe    c23 1822   5.687   2.911   4.803 -0.1481 -1.0513 -0.5070
  332poe     o2 1823   5.547   2.912   4.787 -0.0959 -0.2429 -0.9562
  332poe    c31 1824   5.503   2.801   4.713  0.1903 -0.8644 -0.2092
  333poe    c31 1825   4.937   0.889   2.631  0.0905 -0.4146  0.4384
  333poe     o2 1826   4.831   0.819   2.691 -0.3773  0.1887  0.3273
  333poe    c23 1827   4.811   0.876   2.818 -0.0053  0.5217  0.2395
  333poe    c23 1828   4.669   0.832   2.858 -0.0019 -0.2317 -0.5535
  333poe     o2 1829   4.673   0.691   2.853  0.3355 -0.2507  0.2050
  333poe    c23 1830   4.544   0.633   2.859  0.5127 -0.6714 -0.0144
  333poe    c23 1831   4.581   0.496   2.799  0.0607 -0.7180 -0.1885
  333poe     o2 1832   4.660   0.502   2.682 -0.0904 -0.5838 -0.2839
  333poe    c23 1833   4.584   0.512   2.563  0.3777  0.1886 -0.5227
  333poe    c23 1834   4.666   0.550   2.438  0.1915 -0.3312 -0.8024
  333poe     o2 1835   4.737   0.661   2.486 -0.1762 -0.2977 -0.3265
  333poe    c31 1836   4.766   0.748   2.378 -0.3119 -0.7843 -0.7589
  334poe    c31 1837   3.330   5.409   5.065 -0.3947 -0.1048 -1.2158
  334poe     o2 1838   3.259   5.527   5.033 -0.8600  0.0741  0.3919
  334poe    c23 1839   3.275   5.614   5.143 -0.8330 -0.0231  0.4651
  334poe    c23 1840   3.266   5.763   5.102 -0.1702  0.0074  0.4099
  334poe     o2 1841   3.142   5.790   5.040 -0.1190 -0.1565  0.2370
  334poe    c23 1842   3.129   5.923   4.996 -0.8738 -0.2648  0.1088
  334poe    c23 1843   2.985   5.969   4.970 -0.6973  0.0409 -0.3464
  334poe     o2 1844   2.917   5.888   4.877  0.1999 -0.4073 -0.6217
  334poe    c23 1845   2.806   5.954   4.820  0.5057  0.0144 -0.7299
  334poe    c23 1846   2.728   5.855   4.732  0.0112 -0.1704 -0.0888
  334poe     o2 1847   2.759   5.730   4.788 -0.0194 -0.0002  0.3132
  334poe    c31 1848   2.701   5.622   4.719  0.4326 -0.0566  0.0142
  335poe    c31 1849   6.061   5.200   1.917  0.1206  1.1560  0.5092
  335poe     o2 1850   6.177   5.177   1.994  0.4391 -0.1488 -0.3189
  335poe    c23 1851   6.246   5.300   1.997 -0.2109  0.2233 -0.1849
  335poe    c23 1852   6.380   5.273   2.069 -0.7956 -0.4735  0.6594
  335poe     o2 1853   6.357   5.201   2.188 -0.3472 -0.4167  0.7810
  335poe    c23 1854   6.480   5.181   2.255  0.2180 -0.1807 -0.1612
  335poe    c23 1855   6.454   5.069   2.358 -0.2409  0.0245 -0.0492
  335poe     o2 1856   6.414   4.957   2.283  0.7839 -0.1319 -0.3829
  335poe    c23 1857   6.458   4.835   2.340 -0.0151 -0.1688  0.1792
  335poe    c23 1858   6.399   4.720   2.257  0.4665 -0.3394  0.0703
  335poe     o2 1859   6.431   4.723   2.119  0.0788  0.5636 -0.0068
  335poe    c31 1860   6.533   4.634   2.081 -0.4659  0.0311 -0.2468
  336poe    c31 1861   5.072   6.194   6.333  0.8690 -0.1490  0.4602
  336poe     o2 1862   4.957   6.124   6.292 -0.0714  1.0431  1.0033
  336poe    c23 1863   4.848   6.141   6.379 -0.7092 -0.0492  0.4500
  336poe    c23 1864   4.769   6.010   6.387 -0.3381 -0.3503 -0.7292
  336poe     o2 1865   4.744   5.985   6.250 -0.0820  0.0338 -0.8480
  336poe    c23 1866   4.701   5.854   6.220 -0.5134  0.0524 -0.3437
  336poe    c23 1867   4.783   5.799   6.101  0.0955  0.1528  0.0237
  336poe     o2 1868   4.919   5.822   6.129  0.1492 -0.7023  0.4698
  336poe    c23 1869   5.005   5.791   6.022  0.3274  0.0863  0.3780
  336poe    c23 1870   5.105   5.907   6.011  0.5927 -0.1652  0.1122
  336poe     o2 1871   5.030   6.025   6.027  0.5390 -0.0968 -0.6100
  336poe    c31 1872   5.117   6.131   5.994  0.4051  0.1206 -0.2660
  337poe    c31 1873   2.626   6.265   3.177  0.1490  0.0130 -0.2401
  337poe     o2 1874   2.665   6.312   3.049  0.2105  0.5563 -0.0254
  337poe    c23 1875   2.736   6.433   3.063  0.1958  0.5486  0.1160
  337poe    c23 1876   2.749   6.490   2.921  0.1896  0.6401  0.1515
  337poe     o2 1877   2.820   6.387   2.854  0.3363  0.8107  0.0447
  337poe    c23 1878   2.818   6.423   2.718 -0.2882  0.2066 -0.1138
  337poe    c23 1879   2.796   6.300   2.629 -0.5071  0.5107 -0.4817
  337poe     o2 1880   2.700   6.223   2.699 -0.0548  0.1456 -0.2596
  337poe    c23 1881   2.582   6.189   2.630 -0.1105 -0.5238  0.1567
  337poe    c23 1882   2.505   6.108   2.736  0.0111 -0.4036  0.3380
  337poe     o2 1883   2.542   6.154   2.864  0.0607  0.6867 -0.0602
  337poe    c31 1884   2.485   6.061   2.952 -0.1788  0.4760 -0.4333
  338poe    c31 1885   4.069   3.822   4.717 -0.1225 -0.2870  0.1428
  338poe     o2 1886   4.102   3.832   4.580  0.4020  0.5582  0.3276
  338poe    c23 1887   3.984   3.856   4.506 -0.0436 -0.7729  0.5856
  338poe    c23 1888   4.006   3.812   4.360 -0.3454  0.0066  0.3000
  338poe     o2 1889   4.138   3.841   4.321 -0.4563 -0.0262 -0.1038
  338poe    c23 1890   4.164   3.792   4.192 -0.1467  0.6127 -0.2883
  338poe    c23 1891   4.312   3.830   4.169  0.0659 -0.0864 -0.1301
  338poe     o2 1892   4.363   3.799   4.296 -0.7542  0.9599  0.4743
  338poe    c23 1893   4.493   3.851   4.308 -0.3056  0.0190 -0.1842
  338poe    c23 1894   4.511   3.856   4.461  0.1595  0.3734 -0.2456
  338poe     o2 1895   4.383   3.879   4.518  0.1033  0.1889 -0.2948
  338poe    c31 1896   4.406   3.928   4.648  0.4283 -0.6000 -0.0517
  339poe    c31 1897   5.645   6.722   5.329  0.0781 -0.7184 -0.3173
  339poe     o2 1898   5.598   6.681   5.202 -0.5078  0.0902 -0.3726
  339poe    c23 1899   5.655   6.752   5.095  0.2198  0.3679  0.1878
  339poe    c23 1900   5.621   6.684   4.961 -0.0901  0.2745  0.3117
  339poe     o2 1901   5.657   6.548   4.974  0.3943  0.3584 -0.0941
  339poe    c23 1902   5.579   6.476   4.881  0.0554  0.4766  0.0955
  339poe    c23 1903   5.662   6.355   4.835 -0.5986  0.0091  0.1359
  339poe     o2 1904   5.733   6.304   4.945 -0.0019 -0.5054 -0.4779
  339poe    c23 1905   5.776   6.171   4.926 -0.2499 -0.4937 -1.1608
  339poe    c23 1906   5.929   6.176   4.906 -0.1093  0.1005 -0.0387
  339poe     o2 1907   5.994   6.154   5.029 -0.1591 -0.3834 -0.0979
  339poe    c31 1908   6.133   6.147   5.007 -0.1405  0.1244 -0.1466
  340poe    c31 1909   0.586   4.944   2.331 -0.4049 -0.1016 -0.1749
  340poe     o2 1910   0.449   4.980   2.327 -0.1774  0.7977 -0.0091
  340poe    c23 1911   0.435   5.071   2.434  0.3049  0.9967 -0.1133
  340poe    c23 1912   0.340   5.186   2.393  0.4150  0.9271 -0.5670
  340poe     o2 1913   0.220   5.155   2.326  0.1582  0.2036  0.2095
  340poe    c23 1914   0.128   5.086   2.407 -0.2698 -0.0359 -0.4715
  340poe    c23 1915   0.051   4.973   2.336 -0.8488 -0.3085  0.5677
  340poe     o2 1916   0.152   4.889   2.286 -0.1277  0.8871 -0.0428
  340poe    c23 1917   0.115   4.760   2.243  0.3931  0.5574  0.4678
  340poe    c23 1918   0.246   4.680   2.230  0.2668  0.3532  0.4369
  340poe     o2 1919   0.343   4.767   2.174 -0.1035  0.2582 -0.3689
  340poe    c31 1920   0.457   4.690   2.144  0.4551  0.6534  0.6848
  341poe    c31 1921   0.709   4.642   5.195 -0.9467 -0.2687  0.0235
  341poe     o2 1922   0.829   4.606   5.129 -0.5842 -0.2802  0.6725
  341poe    c23 1923   0.794   4.488   5.060 -0.9334  0.2571 -0.0889
  341poe    c23 1924   0.914   4.458   4.967 -0.8922  0.2446 -0.0320
  341poe     o2 1925   1.033   4.510   5.022 -0.7489  0.0665 -0.1729
  341poe    c23 1926   1.135   4.506   4.925 -0.2428 -0.1443  0.3596
  341poe    c23 1927   1.241   4.611   4.962  0.1793 -0.4277 -0.0415
  341poe     o2 1928   1.156   4.708   5.018  0.1875  0.1893 -1.0861
  341poe    c23 1929   1.215   4.826   5.068  0.2178 -0.2727 -0.0190
  341poe    c23 1930   1.095   4.878   5.149  0.1307 -0.2638 -0.1526
  341poe     o2 1931   1.037   4.787   5.241  0.1502 -0.3559 -0.2321
  341poe    c31 1932   0.951   4.858   5.326  0.3978  0.1213 -0.3753
  342poe    c31 1933   1.887   3.114   4.070 -0.3793  0.2801  0.0477
  342poe     o2 1934   1.774   3.178   4.014 -0.3737  0.7782  0.5932
  342poe    c23 1935   1.777   3.162   3.874  0.1658 -0.0856  0.6971
  342poe    c23 1936   1.677   3.258   3.807  0.3013 -0.0799  0.5007
  342poe     o2 1937   1.558   3.266   3.882 -0.3322  0.0223 -0.5014
  342poe    c23 1938   1.484   3.382   3.853  0.1146  0.3537 -0.3247
  342poe    c23 1939   1.418   3.433   3.983  0.3221 -0.3252  0.0488
  342poe     o2 1940   1.498   3.376   4.085  0.1066 -0.3467  0.2062
  342poe    c23 1941   1.450   3.410   4.213 -0.3375 -0.2093  0.0045
  342poe    c23 1942   1.542   3.336   4.311  0.2919  0.3433 -0.1640
  342poe     o2 1943   1.577   3.213   4.250 -0.9197 -0.0203 -0.1502
  342poe    c31 1944   1.666   3.157   4.343 -0.4598  0.4764 -0.2838
  343poe    c31 1945   5.005   2.059   4.792  0.2529 -0.0082  0.5135
  343poe     o2 1946   4.979   2.189   4.838 -0.2177 -0.1234  0.5761
  343poe    c23 1947   4.993   2.283   4.734 -0.4135 -0.3698  0.3288
  343poe    c23 1948   4.907   2.401   4.784  0.2294  0.1830  0.1407
  343poe     o2 1949   4.966   2.428   4.909  0.2125 -1.0136  0.4173
  343poe    c23 1950   4.875   2.489   4.998 -0.1086 -0.0199 -0.5722
  343poe    c23 1951   4.942   2.468   5.136 -0.7298 -0.1898 -0.2944
  343poe     o2 1952   4.995   2.337   5.136  0.2295  0.1922 -0.1156
  343poe    c23 1953   4.978   2.280   5.263 -0.2874 -0.4294 -0.4561
  343poe    c23 1954   4.975   2.126   5.255  0.0254 -0.4552 -0.0983
  343poe     o2 1955   4.886   2.100   5.149  0.3632  0.0724 -0.5193
  343poe    c31 1956   4.751   2.080   5.185  0.6487 -0.2478  0.4048
  344poe    c31 1957   6.417   6.380   5.622 -0.0265  0.1722  0.2017
  344poe     o2 1958   6.377   6.436   5.745 -0.5959 -0.0081  0.1013
  344poe    c23 1959   6.490   6.491   5.809 -0.4243 -0.3525  0.0957
  344poe    c23 1960   6.452   6.555   5.944  0.0190 -0.0269  0.0679
  344poe     o2 1961   6.335   6.625   5.907  0.1408  0.3339  0.3639
  344poe    c23 1962   6.244   6.642   6.013  0.0496  0.3791  0.2776
  344poe    c23 1963   6.099   6.665   5.967  0.0268 -0.5133 -0.1182
  344poe     o2 1964   6.068   6.579   5.860  1.0817 -0.3334 -0.5808
  344poe    c23 1965   5.944   6.588   5.793  0.6950  0.4257  0.2187
  344poe    c23 1966   5.951   6.470   5.694 -0.1219  0.1890  0.4335
  344poe     o2 1967   6.085   6.430   5.673 -0.2479 -0.2137  0.3971
  344poe    c31 1968   6.079   6.324   5.580  0.0872 -0.5719  0.7832
  345poe    c31 1969   1.288   2.611   3.444  0.1280 -0.1971  0.4121
  345poe     o2 1970   1.234   2.489   3.397 -0.4065  0.2814 -0.2309
  345poe    c23 1971   1.145   2.447   3.498  0.0004  0.0061  0.0150
  345poe    c23 1972   1.110   2.298   3.486  0.1330 -0.0311  0.0948
  345poe     o2 1973   1.068   2.279   3.353 -0.0867 -0.0288  0.1627
  345poe    c23 1974   1.059   2.145   3.308 -0.7971  0.0492  0.0622
  345poe    c23 1975   1.118   2.131   3.166 -0.0814  0.2745  0.3317
  345poe     o2 1976   1.218   2.231   3.163  0.5382 -0.3385  0.4179
  345poe    c23 1977   1.304   2.220   3.052 -0.2199  0.7864 -0.3040
  345poe    c23 1978   1.412   2.326   3.081  0.2473  0.1167  0.4591
  345poe     o2 1979   1.353   2.440   3.140 -0.3144  0.2953 -0.4286
  345poe    c31 1980   1.446   2.546   3.130  0.3363 -0.2131  0.1514
  346poe    c31 1981   2.684   1.381   6.117  0.2074 -0.2964 -0.6785
  346poe     o2 1982   2.782   1.280   6.128  0.1578 -0.2565  0.1411
  346poe    c23 1983   2.872   1.301   6.022  0.8092  0.1843  0.7728
  346poe    c23 1984   2.916   1.158   5.986  0.1164  0.1112  0.1988
  346poe     o2 1985   2.999   1.105   6.087  0.3602  0.0428 -0.0333
  346poe    c23 1986   3.060   0.986   6.044 -0.2123 -0.1376 -0.3489
  346poe    c23 1987   3.056   0.894   6.167  0.3979  0.1474 -0.1151
  346poe     o2 1988   3.130   0.961   6.267 -0.1877  0.7687 -0.0876
  346poe    c23 1989   3.118   0.896   6.391  0.0562 -0.0123 -0.4669
  346poe    c23 1990   3.140   1.007   6.496 -0.6403  0.2698 -0.6129
  346poe     o2 1991   3.109   1.139   6.457  0.1608  0.5649 -0.2603
  346poe    c31 1992   3.109   1.234   6.562  0.9868  0.0204  0.2472
  347poe    c31 1993   5.127   1.219   2.507  0.1237  0.3917  0.1967
  347poe     o2 1994   5.067   1.298   2.607  0.3030  0.2872  0.3881
  347poe    c23 1995   4.987   1.399   2.548 -0.0658 -0.3738 -0.2534
  347poe    c23 1996   5.030   1.542   2.583 -0.0572 -0.4344 -0.0112
  347poe     o2 1997   5.065   1.547   2.719 -0.3288 -0.4594  0.0603
  347poe    c23 1998   5.089   1.677   2.769 -0.3377 -0.4171 -0.0453
  347poe    c23 1999   5.084   1.684   2.923  0.9080  0.1560 -0.0192
  347poe     o2 2000   5.187   1.612   2.987  0.6178  0.4372  0.7735
  347poe    c23 2001   5.143   1.520   3.084  0.2175 -0.4578 -0.2436
  347poe    c23 2002   5.161   1.371   3.047  0.0760 -0.7392  0.7941
  347poe     o2 2003   5.085   1.333   2.934  0.2352  0.0626  0.4097
  347poe    c31 2004   5.051   1.197   2.931  0.8299 -0.0758 -0.3093
  348poe    c31 2005   0.550   0.712   0.610  0.5504 -0.2897 -0.4048
  348poe     o2 2006   0.581   0.849   0.617  0.1638 -0.2425  0.6117
  348poe    c23 2007   0.716   0.867   0.579  0.0686  0.4065  0.5592
  348poe    c23 2008   0.741   1.005   0.516  0.0878  0.2339  0.1820
  348poe     o2 2009   0.677   1.091   0.608 -0.3544 -0.2639  0.3468
  348poe    c23 2010   0.706   1.228   0.588 -0.3010 -0.2528  0.4969
  348poe    c23 2011   0.613   1.293   0.692 -0.5806 -0.0287  0.1095
  348poe     o2 2012   0.481   1.243   0.699 -0.5735 -0.0208  0.2969
  348poe    c23 2013   0.400   1.266   0.585  0.2244 -0.2083 -0.3140
  348poe    c23 2014   0.298   1.151   0.593  0.2609 -0.2084  0.2458
  348poe     o2 2015   0.363   1.026   0.593  0.2916 -0.1931  0.6650
  348poe    c31 2016   0.267   0.927   0.563 -0.1699  0.5214 -0.2597
  349poe    c31 2017   6.694   0.004   3.101 -0.6924 -0.3483 -0.1838
  349poe     o2 2018   6.670  -0.119   3.166 -0.1718 -0.0528  0.5807
  349poe    c23 2019   6.786  -0.199   3.178 -0.1284 -0.0144  0.4343
  349poe    c23 2020   6.730  -0.331   3.236  0.1002 -0.3408 -0.0899
  349poe     o2 2021   6.654  -0.296   3.349  0.2842  0.2512 -0.1474
  349poe    c23 2022   6.604  -0.411   3.413 -0.0593  0.3172 -0.2972
  349poe    c23 2023   6.462  -0.373   3.460 -0.0750  0.2458 -0.2860
  349poe     o2 2024   6.417  -0.289   3.356  0.2683  0.4483 -0.2684
  349poe    c23 2025   6.290  -0.231   3.377  0.3055  0.5381 -0.2880
  349poe    c23 2026   6.253  -0.183   3.235 -0.1348 -0.2817 -0.4584
  349poe     o2 2027   6.359  -0.098   3.198 -0.5445  0.5555  0.2523
  349poe    c31 2028   6.334  -0.043   3.070  0.1846  0.7207  0.1797
  350poe    c31 2029   5.845   3.081   3.108 -0.7056 -0.4374 -0.6355
  350poe     o2 2030   5.758   3.177   3.162  0.1547  0.1616 -0.2842
  350poe    c23 2031   5.678   3.217   3.052 -0.0669  0.4572 -0.0155
  350poe    c23 2032   5.566   3.311   3.102  0.0917  0.2507  0.7524
  350poe     o2 2033   5.471   3.275   3.200  0.4216 -0.2991  0.8744
  350poe    c23 2034   5.390   3.386   3.231  0.3130 -0.0743 -0.1582
  350poe    c23 2035   5.261   3.338   3.302  0.5705  0.1471  0.4706
  350poe     o2 2036   5.279   3.239   3.401  0.4025 -0.4237 -0.0602
  350poe    c23 2037   5.164   3.181   3.457  0.2465 -0.1580 -0.0998
  350poe    c23 2038   5.234   3.054   3.510  0.3714  0.0314  0.1927
  350poe     o2 2039   5.349   3.013   3.439 -0.0436  0.2686 -0.6216
  350poe    c31 2040   5.395   2.890   3.489 -0.5135  0.3082 -0.0716
  351poe    c31 2041   2.805   1.064   2.293 -0.0584 -0.4297 -0.3229
  351poe     o2 2042   2.851   1.154   2.195 -0.3069  0.0242 -0.0290
  351poe    c23 2043   2.752   1.253   2.178 -0.0881  0.1061 -0.8578
  351poe    c23 2044   2.816   1.392   2.197  0.2549 -0.1617 -0.0025
  351poe     o2 2045   2.937   1.389   2.125 -0.2982  0.3830 -0.9701
  351poe    c23 2046   2.995   1.505   2.070 -0.1066  0.2427 -1.0633
  351poe    c23 2047   3.129   1.462   2.008  0.0774 -0.5531 -0.1355
  351poe     o2 2048   3.101   1.338   1.946 -0.3447 -0.5497  0.0486
  351poe    c23 2049   3.227   1.278   1.963 -0.2349 -0.1257  0.8005
  351poe    c23 2050   3.196   1.128   1.945 -0.9964  0.1750 -0.5137
  351poe     o2 2051   3.101   1.088   2.040 -0.7431 -0.1835 -0.4094
  351poe    c31 2052   3.076   0.953   2.007  0.2277 -0.3935 -0.3319
  352poe    c31 2053   3.787   6.711   0.744 -0.4736  0.2593 -0.1751
  352poe     o2 2054   3.896   6.769   0.813 -0.2759 -0.5502  0.2078
  352poe    c23 2055   3.904   6.909   0.798  0.1698 -0.5533  0.4014
  352poe    c23 2056   3.983   7.010   0.882  0.2100 -0.1670 -0.1008
  352poe     o2 2057   3.898   7.081   0.970  0.3585 -0.2896  0.1428
  352poe    c23 2058   3.968   7.103   1.090  0.2008  0.1229  0.1577
  352poe    c23 2059   3.864   7.189   1.165  0.0947  0.4043 -0.3098
  352poe     o2 2060   3.816   7.290   1.079 -0.1801  0.2748 -0.3110
  352poe    c23 2061   3.775   7.407   1.145  0.1734  0.0780  0.2636
  352poe    c23 2062   3.692   7.484   1.041  0.1463  0.2232  0.3925
  352poe     o2 2063   3.761   7.493   0.918 -0.5729  0.4777 -0.0029
  352poe    c31 2064   3.689   7.556   0.815 -0.6883 -0.4728 -0.5236
  353poe    c31 2065   5.994   4.799   1.822 -0.3566 -0.2926  0.5327
  353poe     o2 2066   6.089   4.807   1.718 -0.6170 -0.0114  0.3164
  353poe    c23 2067   6.216   4.752   1.741 -0.3587  0.5743  0.3143
  353poe    c23 2068   6.312   4.817   1.639 -0.3531  0.4766  0.2563
  353poe     o2 2069   6.248   4.781   1.519  0.7122 -0.0910 -0.1464
  353poe    c23 2070   6.285   4.850   1.401  0.6028 -0.0509 -0.1572
  353poe    c23 2071   6.223   4.753   1.298  0.0882  0.5211 -0.3965
  353poe     o2 2072   6.087   4.736   1.329  0.1934  0.4307  0.0208
  353poe    c23 2073   6.017   4.669   1.227  0.1951  0.0483  0.2677
  353poe    c23 2074   5.898   4.578   1.262 -0.1036  0.3561  0.0529
  353poe     o2 2075   5.941   4.470   1.342  0.4082  0.1824 -0.4513
  353poe    c31 2076   5.845   4.367   1.336  0.2023  0.3402  0.0799
  354poe    c31 2077   6.449   1.109   1.904 -0.2838  0.0606  0.1125
  354poe     o2 2078   6.375   1.219   1.954 -0.4072  0.0461 -0.0368
  354poe    c23 2079   6.338   1.312   1.855 -0.0930  0.2651  0.0510
  354poe    c23 2080   6.212   1.394   1.892 -0.2462  0.0373  0.0355
  354poe     o2 2081   6.231   1.422   2.029 -0.3824  0.1488  0.0315
  354poe    c23 2082   6.133   1.510   2.077 -0.1747  0.4599 -0.1128
  354poe    c23 2083   6.116   1.474   2.226  0.1897  0.2808 -0.1145
  354poe     o2 2084   6.052   1.349   2.244  0.8012 -0.0946 -0.5266
  354poe    c23 2085   6.010   1.334   2.377  0.2723 -0.4652 -0.7337
  354poe    c23 2086   5.983   1.189   2.422 -0.1475 -0.2419 -0.2624
  354poe     o2 2087   6.105   1.121   2.442 -0.3123 -0.5715 -0.3667
  354poe    c31 2088   6.088   0.984   2.471 -0.2810 -0.4146  0.3890
  355poe    c31 2089   3.252   5.438   2.069  0.7560 -0.4156 -0.6736
  355poe     o2 2090   3.254   5.571   2.118  0.3190 -0.6634  0.0297
  355poe    c23 2091   3.320   5.575   2.243  0.3930  0.6838 -0.0452
  355poe    c23 2092   3.301   5.717   2.300 -0.6153  0.5256  0.0303
  355poe     o2 2093   3.343   5.781   2.182 -0.0451 -0.7102 -0.4550
  355poe    c23 2094   3.309   5.917   2.165  0.5201 -0.5009  0.0332
  355poe    c23 2095   3.379   5.969   2.038  0.2022  0.3047  0.1823
  355poe     o2 2096   3.310   5.903   1.934  0.4367  0.3165  0.0175
  355poe    c23 2097   3.333   5.981   1.819  0.0807  0.6285  0.1540
  355poe    c23 2098   3.469   5.953   1.752 -0.0529  0.1972  0.0627
  355poe     o2 2099   3.473   5.819   1.709 -0.5334  0.2421 -0.1256
  355poe    c31 2100   3.526   5.812   1.578 -1.1285  0.1857 -0.3676
  356poe    c31 2101   3.494   6.692   2.082  0.0111  0.7071 -0.3962
  356poe     o2 2102   3.586   6.675   1.976  0.1583 -0.7013 -0.0580
  356poe    c23 2103   3.613   6.793   1.903  0.5214 -0.5074  0.3823
  356poe    c23 2104   3.748   6.781   1.829  0.3383  0.0736 -0.0484
  356poe     o2 2105   3.770   6.643   1.818 -0.2707 -0.0426  0.1322
  356poe    c23 2106   3.905   6.606   1.797 -0.1684 -0.0917  0.8366
  356poe    c23 2107   3.907   6.457   1.759 -0.7862  0.1867 -0.3589
  356poe     o2 2108   3.844   6.390   1.866  0.4441 -0.6089 -0.1042
  356poe    c23 2109   3.808   6.256   1.843 -0.0318 -0.4424 -0.3368
  356poe    c23 2110   3.709   6.211   1.952 -0.0604  0.1993 -0.0902
  356poe     o2 2111   3.619   6.312   1.989 -0.4982 -0.0049 -0.5782
  356poe    c31 2112   3.538   6.274   2.098  0.1500  0.8012  0.2009
  357poe    c31 2113   5.501   4.810   3.778  0.1924 -0.3211  0.0370
  357poe     o2 2114   5.633   4.848   3.745 -0.0389  0.1978 -0.3065
  357poe    c23 2115   5.643   4.800   3.613  0.3806 -0.4282 -0.0576
  357poe    c23 2116   5.756   4.866   3.531  0.1314 -0.1108 -0.1512
  357poe     o2 2117   5.862   4.866   3.625  0.1665 -0.0777 -0.1911
  357poe    c23 2118   5.982   4.927   3.585  0.1168  0.0067 -0.2136
  357poe    c23 2119   6.070   4.918   3.711 -0.8017 -0.4460  0.3976
  357poe     o2 2120   5.991   4.979   3.812 -0.4695  0.0208  0.3753
  357poe    c23 2121   6.041   4.940   3.938  0.1036  0.3714  0.2596
  357poe    c23 2122   5.935   4.945   4.048  0.0238 -0.3250  0.2164
  357poe     o2 2123   5.831   4.874   3.985 -0.2444  0.4077 -0.1719
  357poe    c31 2124   5.706   4.866   4.050  0.1659 -0.1643  0.5443
  358poe    c31 2125   5.330   6.210   0.662  0.4330 -0.0493  0.4882
  358poe     o2 2126   5.258   6.107   0.726  0.3066 -0.3365 -0.1025
  358poe    c23 2127   5.124   6.108   0.682  0.3493  0.4560 -0.2251
  358poe    c23 2128   5.031   6.026   0.773  0.2019 -0.1464 -0.9133
  358poe     o2 2129   5.105   5.909   0.804 -0.2359 -0.4164 -0.8843
  358poe    c23 2130   5.042   5.844   0.912  0.3911  0.1254 -0.1788
  358poe    c23 2131   5.156   5.771   0.986  0.0795  0.3245  0.5072
  358poe     o2 2132   5.273   5.842   0.952  0.0524 -0.1007 -0.5256
  358poe    c23 2133   5.399   5.804   1.000 -0.1395  0.1763  0.2177
  358poe    c23 2134   5.488   5.929   0.985  0.0325 -0.0275 -0.4939
  358poe     o2 2135   5.482   5.964   0.849 -0.4919  0.3600 -0.3734
  358poe    c31 2136   5.593   6.028   0.789 -0.2544  0.1235 -0.1927
  359poe    c31 2137   1.675   1.396   4.323 -0.4688 -1.2741  0.2015
  359poe     o2 2138   1.596   1.435   4.433  0.4939  0.3600  0.3389
  359poe    c23 2139   1.634   1.364   4.549 -0.3386 -0.6767 -0.0148
  359poe    c23 2140   1.509   1.355   4.639  0.0199  0.4060  0.6042
  359poe     o2 2141   1.441   1.478   4.636 -0.3692  0.1896  0.5144
  359poe    c23 2142   1.343   1.482   4.738 -0.5887  0.0090  0.3115
  359poe    c23 2143   1.250   1.599   4.700 -0.8406 -0.1295  0.4995
  359poe     o2 2144   1.174   1.571   4.584  0.2021 -0.2621 -0.1682
  359poe    c23 2145   1.094   1.679   4.543  0.3193 -0.2337 -0.3214
  359poe    c23 2146   1.025   1.655   4.408 -0.3601  0.1291 -0.0437
  359poe     o2 2147   1.112   1.660   4.297 -0.1838  0.2188  0.0975
  359poe    c31 2148   1.021   1.674   4.190 -0.6044  0.7644  0.5224
  360poe    c31 2149   6.534   3.852   1.134 -0.0465  0.3993  0.2084
  360poe     o2 2150   6.415   3.901   1.189  0.1857  0.5518  0.5788
  360poe    c23 2151   6.386   3.809   1.292 -0.1071  0.2437  0.2276
  360poe    c23 2152   6.307   3.883   1.402 -0.4255  0.3488 -0.0721
  360poe     o2 2153   6.213   3.940   1.313 -0.3258  0.0811 -0.3524
  360poe    c23 2154   6.100   4.002   1.371 -0.6019 -0.7028 -0.0401
  360poe    c23 2155   6.012   4.049   1.254 -0.2283  0.3882  0.1052
  360poe     o2 2156   6.112   4.088   1.163  0.6036  0.6740  1.1269
  360poe    c23 2157   6.063   4.088   1.031  0.2210 -0.9141  1.2503
  360poe    c23 2158   6.183   4.136   0.948 -0.7259 -1.2318 -0.3559
  360poe     o2 2159   6.296   4.065   0.994 -0.1386 -0.0114  0.1479
  360poe    c31 2160   6.396   4.089   0.898  0.3323 -0.4401  0.5250
  361poe    c31 2161   3.568   0.456   5.395 -0.1891  0.1399  0.3738
  361poe     o2 2162   3.700   0.436   5.439 -0.0201  0.2393 -0.0776
  361poe    c23 2163   3.723   0.301   5.403  0.2644  0.4421 -0.6719
  361poe    c23 2164   3.858   0.262   5.466  0.0116  0.4829 -0.1000
  361poe     o2 2165   3.936   0.378   5.481  0.7136  0.0588 -0.4268
  361poe    c23 2166   4.059   0.365   5.549  0.5607  0.7415 -0.0115
  361poe    c23 2167   4.046   0.435   5.686 -0.2199  0.1005  0.2490
  361poe     o2 2168   3.962   0.546   5.662 -0.0398  0.2409  0.2713
  361poe    c23 2169   3.895   0.593   5.777  0.2260  0.4077  0.3615
  361poe    c23 2170   3.798   0.711   5.753  0.1979  0.2018 -0.5762
  361poe     o2 2171   3.733   0.670   5.635  0.3616  0.3132 -0.7063
  361poe    c31 2172   3.620   0.750   5.610  0.1149  0.4212  0.6682
  362poe    c31 2173   1.981   5.695   6.444  0.3633  0.1323 -0.1177
  362poe     o2 2174   1.892   5.648   6.543  0.3459 -0.3347 -0.3545
  362poe    c23 2175   1.956   5.580   6.648  0.3006  0.2402  0.0485
  362poe    c23 2176   1.858   5.549   6.763  0.4256 -0.5109 -0.0380
  362poe     o2 2177   1.812   5.675   6.806  0.7348 -0.2170 -0.5620
  362poe    c23 2178   1.702   5.650   6.890  0.7698  0.7074 -0.2315
  362poe    c23 2179   1.648   5.788   6.933  0.2957  0.4865 -0.1119
  362poe     o2 2180   1.657   5.866   6.816  0.4870  0.3832 -0.1654
  362poe    c23 2181   1.675   6.002   6.849 -0.4579  0.5388 -0.2690
  362poe    c23 2182   1.748   6.059   6.726  0.6786  0.4311  0.3390
  362poe     o2 2183   1.837   5.968   6.668 -0.3095  0.0748 -0.6564
  362poe    c31 2184   1.952   6.027   6.610 -0.2696  0.1103 -0.5403
  363poe    c31 2185   2.157   2.339   3.684 -0.6444 -0.2429 -0.4864
  363poe     o2 2186   2.057   2.425   3.635 -0.0140  0.6763 -0.1764
  363poe    c23 2187   1.993   2.380   3.518  0.3089 -0.1384 -0.0397
  363poe    c23 2188   1.885   2.485   3.488  0.1079 -0.1960  0.4612
  363poe     o2 2189   1.849   2.545   3.610  0.2959  0.0753  0.3838
  363poe    c23 2190   1.756   2.651   3.601  0.3487  0.1455  0.6474
  363poe    c23 2191   1.717   2.699   3.742 -0.6126  0.4326  0.2931
  363poe     o2 2192   1.837   2.725   3.811 -0.3818 -0.1150  0.1133
  363poe    c23 2193   1.821   2.730   3.952 -0.2591  0.1728  0.1188
  363poe    c23 2194   1.957   2.662   3.977 -0.1957  0.2340 -0.0541
  363poe     o2 2195   1.973   2.545   3.899  0.4887  0.3414 -0.0792
  363poe    c31 2196   1.955   2.423   3.968 -0.1326  0.2570 -0.3905
  364poe    c31 2197   4.342   1.220   2.382  0.0635 -0.0995 -0.3126
  364poe     o2 2198   4.448   1.276   2.309  0.3519 -0.2793 -0.0338
  364poe    c23 2199   4.557   1.195   2.270  0.2128 -0.2299 -0.5310
  364poe    c23 2200   4.676   1.287   2.237 -0.0943  0.3373 -0.0727
  364poe     o2 2201   4.631   1.401   2.168 -0.3679  0.4193  0.2388
  364poe    c23 2202   4.737   1.491   2.144 -0.3059  0.3368  0.2027
  364poe    c23 2203   4.660   1.617   2.099 -0.5102  0.1529  0.0333
  364poe     o2 2204   4.548   1.619   2.185 -0.2369  0.2007  0.3946
  364poe    c23 2205   4.473   1.738   2.194 -0.0505  0.3298  0.2344
  364poe    c23 2206   4.377   1.716   2.311 -0.1088  0.4265  0.2048
  364poe     o2 2207   4.307   1.598   2.278 -0.1723  0.6295 -0.4023
  364poe    c31 2208   4.195   1.570   2.358 -0.5299 -0.3222 -1.2141
  365poe    c31 2209   5.062   2.906   6.726  0.3381  0.5045  0.0275
  365poe     o2 2210   5.173   2.911   6.639  0.0806 -0.0654 -0.3381
  365poe    c23 2211   5.276   2.846   6.711  0.1234 -0.0067 -0.3462
  365poe    c23 2212   5.380   2.814   6.601 -0.0143 -0.1442 -0.4373
  365poe     o2 2213   5.372   2.901   6.490  0.0197 -0.3643 -0.6109
  365poe    c23 2214   5.445   2.839   6.386  0.4470 -0.5394 -0.2125
  365poe    c23 2215   5.409   2.907   6.253  0.4866 -0.5736 -0.2409
  365poe     o2 2216   5.268   2.920   6.255  0.5622  0.3046 -0.2756
  365poe    c23 2217   5.223   2.962   6.128  0.1542  0.5914 -0.0354
  365poe    c23 2218   5.073   2.998   6.119 -0.0156 -0.0581  0.1405
  365poe     o2 2219   4.986   2.895   6.159 -0.1094 -0.0359 -0.0029
  365poe    c31 2220   4.857   2.919   6.109 -0.3800 -0.6927  0.3666
  366poe    c31 2221   2.395   5.661   4.976 -0.5336 -0.2919  0.3215
  366poe     o2 2222   2.418   5.725   5.100  0.3570 -0.5170  0.2741
  366poe    c23 2223   2.316   5.678   5.184  0.5111 -0.8817  0.2557
  366poe    c23 2224   2.307   5.739   5.325 -0.2182 -0.4659  0.0287
  366poe     o2 2225   2.419   5.689   5.393 -0.1855 -0.4025  0.0213
  366poe    c23 2226   2.404   5.688   5.533 -0.7573  0.4023 -0.0284
  366poe    c23 2227   2.540   5.646   5.592 -0.8148  0.0137 -0.1703
  366poe     o2 2228   2.639   5.721   5.525 -0.5949 -0.3528 -0.2594
  366poe    c23 2229   2.769   5.692   5.573 -0.6019  0.6083  0.3959
  366poe    c23 2230   2.881   5.779   5.513 -0.3394  0.0763  0.1055
  366poe     o2 2231   2.843   5.769   5.378  0.0917  0.2524 -0.0294
  366poe    c31 2232   2.949   5.793   5.288  0.3565  0.5947  0.3719
  367poe    c31 2233   4.465   5.349   4.754 -0.1011 -0.7895  0.7656
  367poe     o2 2234   4.527   5.226   4.722  0.0238 -0.5593  0.1044
  367poe    c23 2235   4.622   5.259   4.624  0.2064  0.2408  0.5342
  367poe    c23 2236   4.699   5.128   4.595  0.3502  0.4801 -0.1741
  367poe     o2 2237   4.614   5.018   4.619  0.8929  0.1117  0.0645
  367poe    c23 2238   4.563   4.931   4.521  0.9054  0.1292  0.0423
  367poe    c23 2239   4.473   4.841   4.608  0.5289  0.3999 -0.0673
  367poe     o2 2240   4.392   4.918   4.694  0.2690 -0.0674  0.1066
  367poe    c23 2241   4.326   4.837   4.789  0.2419 -0.1014  0.0590
  367poe    c23 2242   4.262   4.944   4.879  0.0672  0.2860 -0.5213
  367poe     o2 2243   4.366   5.026   4.927  0.2413 -0.3265  0.1676
  367poe    c31 2244   4.331   5.060   5.059  0.4493  0.8431 -0.0634
  368poe    c31 2245   3.526   2.625   1.833 -0.1007  0.8695 -0.3327
  368poe     o2 2246   3.525   2.622   1.974  0.1961  0.6336 -0.3346
  368poe    c23 2247   3.652   2.617   2.034  0.2095  0.0375 -0.4020
  368poe    c23 2248   3.632   2.599   2.186 -0.4156  0.4171 -0.4338
  368poe     o2 2249   3.540   2.494   2.201  0.0653  0.0659  0.1276
  368poe    c23 2250   3.567   2.415   2.314  0.2139 -0.1250 -0.0399
  368poe    c23 2251   3.490   2.282   2.306 -0.0942  0.0145  0.5225
  368poe     o2 2252   3.351   2.291   2.323 -0.1259  0.0285  0.2594
  368poe    c23 2253   3.282   2.167   2.329  0.2567 -0.2149 -0.2628
  368poe    c23 2254   3.149   2.159   2.254 -0.1776  0.0138  0.4676
  368poe     o2 2255   3.142   2.188   2.116 -0.2048 -0.4644  0.3666
  368poe    c31 2256   3.040   2.122   2.044 -0.3028 -0.0457  0.1176
  369poe    c31 2257   2.478   1.476   4.507 -0.1536 -0.4620  0.1080
  369poe     o2 2258   2.431   1.355   4.454 -0.0816 -0.4324 -0.0222
  369poe    c23 2259   2.537   1.290   4.387  0.1236 -0.0186 -0.1022
  369poe    c23 2260   2.515   1.140   4.416 -0.2689  0.3200  1.4220
  369poe     o2 2261   2.385   1.116   4.368  0.1767  0.1067  0.3091
  369poe    c23 2262   2.363   0.979   4.342  0.4474  0.1706 -0.2698
  369poe    c23 2263   2.227   0.958   4.275  0.5423  0.2080 -0.4764
  369poe     o2 2264   2.128   1.047   4.321  0.4763  0.0365 -0.2827
  369poe    c23 2265   2.083   1.131   4.217 -0.4278 -0.5408 -0.3700
  369poe    c23 2266   2.013   1.244   4.295  0.3516 -0.2044 -0.1478
  369poe     o2 2267   2.125   1.302   4.360  0.1736 -0.1607  0.1222
  369poe    c31 2268   2.099   1.440   4.370 -0.1447 -0.1912 -0.2524
  370poe    c31 2269   4.644   1.540   0.478 -0.0480  0.5960  0.0729
  370poe     o2 2270   4.552   1.513   0.375 -0.0676  0.2447  0.1796
  370poe    c23 2271   4.485   1.633   0.341 -0.2894  0.0320 -0.1464
  370poe    c23 2272   4.416   1.616   0.205 -0.1037 -0.4336 -0.1835
  370poe     o2 2273   4.510   1.646   0.104  0.5122 -0.2476  0.4407
  370poe    c23 2274   4.465   1.584  -0.014 -0.3762  0.4515  0.4002
  370poe    c23 2275   4.569   1.612  -0.124  0.1127  0.4958  0.8681
  370poe     o2 2276   4.641   1.730  -0.098  0.2928  0.5150  0.2936
  370poe    c23 2277   4.746   1.739  -0.191  0.0197 -0.1531 -0.0882
  370poe    c23 2278   4.786   1.888  -0.202 -0.2522 -0.0968 -0.3318
  370poe     o2 2279   4.820   1.942  -0.076 -0.0521 -0.4970 -0.2129
  370poe    c31 2280   4.834   2.081  -0.088  0.1149 -0.5582 -0.7719
  371poe    c31 2281   3.632   1.251   3.796  0.3044 -0.0558  0.3388
  371poe     o2 2282   3.647   1.258   3.936 -0.3782  0.2016  0.4009
  371poe    c23 2283   3.777   1.217   3.974 -0.2055  0.3077 -0.0710
  371poe    c23 2284   3.753   1.148   4.109 -0.2243  0.2168 -0.1201
  371poe     o2 2285   3.643   1.062   4.089  0.1855 -0.2622 -0.3430
  371poe    c23 2286   3.657   0.957   4.182 -0.4300 -0.5117 -0.5296
  371poe    c23 2287   3.539   0.923   4.275  0.0787 -0.9570 -0.0456
  371poe     o2 2288   3.420   0.901   4.203  0.0250  0.4162 -0.3926
  371poe    c23 2289   3.349   0.803   4.277 -0.0799  0.8506  0.0914
  371poe    c23 2290   3.275   0.715   4.175  0.3527  0.2158  0.3170
  371poe     o2 2291   3.164   0.637   4.211 -0.3118  0.8231 -0.3621
  371poe    c31 2292   3.129   0.533   4.123 -0.1604  0.5037 -0.0485
  372poe    c31 2293   5.855   2.486   6.193  0.1417 -0.0413  0.0580
  372poe     o2 2294   5.960   2.578   6.172  0.3192 -0.2198  0.1527
  372poe    c23 2295   5.975   2.636   6.300  0.3185 -0.3330  0.2052
  372poe    c23 2296   6.054   2.767   6.279 -0.8622  0.2080 -1.0598
  372poe     o2 2297   6.132   2.767   6.161 -0.2226 -0.5932 -0.6478
  372poe    c23 2298   6.179   2.893   6.119 -0.4323 -0.3072 -0.0429
  372poe    c23 2299   6.243   2.855   5.984  0.0531  0.2867  0.0206
  372poe     o2 2300   6.140   2.803   5.903 -0.1952 -0.1786  0.6289
  372poe    c23 2301   6.191   2.752   5.782 -0.2703  0.1198  0.4694
  372poe    c23 2302   6.102   2.631   5.749  0.6502 -0.3788 -0.2426
  372poe     o2 2303   6.074   2.547   5.859  0.0912  0.2122  0.0743
  372poe    c31 2304   5.990   2.441   5.820  0.4960 -0.0992  0.0297
  373poe    c31 2305   0.444   0.633   3.876  0.0981  0.3088 -0.0634
  373poe     o2 2306   0.519   0.675   3.764 -0.1802  0.4925 -0.1813
  373poe    c23 2307   0.433   0.725   3.663 -0.2784  0.6032 -0.0431
  373poe    c23 2308   0.506   0.740   3.528 -0.5392 -0.0362 -0.2575
  373poe     o2 2309   0.601   0.636   3.520 -0.3830  0.0814  0.0214
  373poe    c23 2310   0.692   0.648   3.413 -0.4861 -0.4065 -0.1283
  373poe    c23 2311   0.806   0.547   3.439 -0.1254 -0.1227 -0.5921
  373poe     o2 2312   0.820   0.563   3.579 -0.9268  0.0883 -0.5287
  373poe    c23 2313   0.902   0.468   3.642 -1.0961  0.3919  0.1522
  373poe    c23 2314   0.897   0.487   3.795  0.0486 -0.3209  0.2881
  373poe     o2 2315   0.771   0.530   3.841 -0.1184  0.1276 -0.5622
  373poe    c31 2316   0.757   0.507   3.980  0.1780 -0.4980 -0.6340
  374poe    c31 2317   4.330   5.063   1.917 -0.1459  0.5671  0.0065
  374poe     o2 2318   4.420   5.106   1.817 -0.1231  0.2060 -0.1326
  374poe    c23 2319   4.463   5.000   1.735 -0.1290  0.2664 -0.2135
  374poe    c23 2320   4.547   5.051   1.616 -0.5970  0.0249 -0.6516
  374poe     o2 2321   4.451   5.134   1.553 -0.8861  0.2196  0.0366
  374poe    c23 2322   4.441   5.104   1.416 -0.5519 -0.5419  0.1695
  374poe    c23 2323   4.289   5.115   1.395 -0.5131 -0.4681 -0.0839
  374poe     o2 2324   4.241   5.231   1.458 -0.0029 -0.3518  0.0970
  374poe    c23 2325   4.128   5.198   1.536 -0.1558 -0.1995 -0.0590
  374poe    c23 2326   4.093   5.316   1.628  0.0922 -0.3927  0.2826
  374poe     o2 2327   4.220   5.333   1.688 -0.1868 -0.2015  0.8226
  374poe    c31 2328   4.214   5.448   1.770 -0.5128  0.0912  0.3968
  375poe    c31 2329   1.697   0.053   5.924 -0.1223  0.3304 -0.0791
  375poe     o2 2330   1.627   0.051   5.802  0.3143 -0.2130 -0.3234
  375poe    c23 2331   1.604  -0.081   5.756 -0.2503 -0.2096 -0.0619
  375poe    c23 2332   1.533  -0.075   5.619 -0.0721  0.0501 -0.1437
  375poe     o2 2333   1.406  -0.016   5.606  0.0899  0.4558  0.0649
  375poe    c23 2334   1.421   0.088   5.512  0.5060 -0.2615 -0.6795
  375poe    c23 2335   1.295   0.175   5.527  0.7760 -0.0249  0.2497
  375poe     o2 2336   1.195   0.080   5.499  0.4871  0.3975 -0.1637
  375poe    c23 2337   1.068   0.140   5.504  0.2906 -0.0571  0.2903
  375poe    c23 2338   0.950   0.040   5.510  0.5238 -0.3731 -0.3868
  375poe     o2 2339   0.999  -0.056   5.601 -0.0086 -0.2720  0.0106
  375poe    c31 2340   0.893  -0.143   5.631 -0.7421  0.5514 -0.1342
  376poe    c31 2341   2.822   0.672   4.222 -0.2686  0.6728 -0.4808
  376poe     o2 2342   2.914   0.728   4.312 -0.3311  0.2277 -0.1412
  376poe    c23 2343   2.852   0.753   4.437 -0.5779 -0.1889 -0.1769
  376poe    c23 2344   2.953   0.777   4.551 -0.5203 -0.0152 -0.2628
  376poe     o2 2345   3.056   0.683   4.531  0.0510  0.6197 -0.3321
  376poe    c23 2346   3.129   0.652   4.648  0.3659 -0.4484 -0.8005
  376poe    c23 2347   3.221   0.536   4.606  0.2277 -1.1466  0.7411
  376poe     o2 2348   3.283   0.563   4.482 -0.0250 -0.0652  0.8433
  376poe    c23 2349   3.389   0.473   4.458 -0.0476  0.1787 -0.2176
  376poe    c23 2350   3.532   0.515   4.496  0.1074 -0.1368 -0.4445
  376poe     o2 2351   3.573   0.599   4.390  0.2827  0.5423  0.1523
  376poe    c31 2352   3.713   0.588   4.381  0.2511  0.2067  0.0407
  377poe    c31 2353   4.080   2.481   0.793  0.1597 -0.3316 -0.2222
  377poe     o2 2354   4.011   2.397   0.882  0.4523 -0.0808  0.2445
  377poe    c23 2355   3.963   2.282   0.816  0.2807 -0.2915  0.7337
  377poe    c23 2356   3.859   2.230   0.917 -0.5756  0.6115  0.3332
  377poe     o2 2357   3.921   2.246   1.042 -0.5618 -0.0018  0.4069
  377poe    c23 2358   3.860   2.181   1.152 -0.4992 -0.2031  0.3227
  377poe    c23 2359   3.964   2.189   1.266  0.3101 -0.2323 -0.4015
  377poe     o2 2360   4.015   2.321   1.260  0.1167 -0.1292  0.2053
  377poe    c23 2361   4.070   2.363   1.383  0.2722  0.5916 -0.1073
  377poe    c23 2362   4.222   2.338   1.397  0.1956  0.1529 -0.0452
  377poe     o2 2363   4.299   2.400   1.297  0.1832  0.1494 -0.0570
  377poe    c31 2364   4.437   2.384   1.323  0.2965  0.3293 -0.5371
  378poe    c31 2365   4.557   3.923   0.946 -0.1777  0.0034  0.1668
  378poe     o2 2366   4.473   3.915   0.833  0.0415 -0.4504  0.0323
  378poe    c23 2367   4.336   3.909   0.865  0.0577 -0.3019  0.1359
  378poe    c23 2368   4.267   3.910   0.727 -0.0821 -0.0492  0.2089
  378poe     o2 2369   4.329   3.818   0.640 -0.1082 -0.0982  0.2422
  378poe    c23 2370   4.245   3.776   0.536  0.0819 -0.1870  0.1247
  378poe    c23 2371   4.318   3.687   0.433  0.4104  0.2157  0.0075
  378poe     o2 2372   4.391   3.588   0.502  0.2835  0.2954  0.2579
  378poe    c23 2373   4.333   3.460   0.506  0.0862  0.3873  0.3277
  378poe    c23 2374   4.231   3.426   0.617  0.0111  0.0085  0.1452
  378poe     o2 2375   4.302   3.405   0.737  0.1470 -0.1533  0.0358
  378poe    c31 2376   4.209   3.389   0.842  0.2621 -0.4388  0.0959
  379poe    c31 2377   0.154   0.482   0.932 -0.0162  0.2905  0.0847
  379poe     o2 2378   0.090   0.460   0.809  0.5575  0.2212 -0.2057
  379poe    c23 2379   0.085   0.587   0.748 -0.6282  0.5037  0.4572
  379poe    c23 2380  -0.001   0.563   0.622  0.3139  0.2039 -0.1324
  379poe     o2 2381   0.045   0.444   0.563  0.4121 -0.0891  0.5214
  379poe    c23 2382  -0.043   0.412   0.457  0.8814 -0.0473  0.1127
  379poe    c23 2383  -0.037   0.259   0.439 -0.3733 -0.0285 -0.5700
  379poe     o2 2384  -0.070   0.212   0.568 -0.1492  0.3326 -0.3773
  379poe    c23 2385  -0.063   0.072   0.581  0.3807  0.3688 -0.2513
  379poe    c23 2386  -0.065   0.067   0.735  0.2903  0.0267 -0.2609
  379poe     o2 2387   0.007   0.171   0.797 -0.0364  0.2708 -0.2867
  379poe    c31 2388  -0.028   0.182   0.933  0.1117 -0.0641 -0.2216
  380poe    c31 2389   1.095   6.556   0.069  0.3069 -0.1895  0.5562
  380poe     o2 2390   1.059   6.501  -0.057  0.2410  0.4670  0.2880
  380poe    c23 2391   0.918   6.495  -0.063  0.2898 -0.3391 -0.0674
  380poe    c23 2392   0.871   6.405  -0.179  0.4143 -0.5734  0.0633
  380poe     o2 2393   0.965   6.426  -0.281  0.6796 -0.1358  0.3928
  380poe    c23 2394   0.922   6.519  -0.378  0.1119 -0.2672  0.5178
  380poe    c23 2395   1.032   6.626  -0.393 -0.1621 -0.0060  0.3747
  380poe     o2 2396   1.158   6.564  -0.380 -0.0808  0.0703 -0.0382
  380poe    c23 2397   1.209   6.490  -0.488  0.0369  0.4937 -0.2758
  380poe    c23 2398   1.259   6.355  -0.434 -0.1380  0.5233 -0.0389
  380poe     o2 2399   1.176   6.313  -0.329  0.3083  0.1932  0.1864
  380poe    c31 2400   1.182   6.173  -0.310 -0.6733  0.1082 -0.0417
  381poe    c31 2401   1.040   3.895   5.787 -0.6051 -0.5771  0.0224
  381poe     o2 2402   1.131   3.824   5.869 -0.1573 -0.0851 -0.0431
  381poe    c23 2403   1.235   3.763   5.795  0.1684  0.5307 -0.1085
  381poe    c23 2404   1.319   3.700   5.908 -0.1513  0.1772 -0.0649
  381poe     o2 2405   1.227   3.642   5.999 -0.0025  0.6231  0.3726
  381poe    c23 2406   1.255   3.505   6.014  0.0742  0.6350  0.3362
  381poe    c23 2407   1.169   3.464   6.135 -0.0478 -0.0689  0.0133
  381poe     o2 2408   1.050   3.537   6.117 -0.1568 -0.1212  0.5131
  381poe    c23 2409   1.018   3.571   6.250 -0.3973  0.0086  0.4242
  381poe    c23 2410   0.920   3.690   6.245 -0.2788  0.0930  0.0853
  381poe     o2 2411   0.973   3.773   6.144  0.0050  0.3067  0.4062
  381poe    c31 2412   0.911   3.899   6.156 -0.0811  0.3140 -0.1074
  382poe    c31 2413   5.671   5.460   5.485  0.0657  0.6315 -0.2829
  382poe     o2 2414   5.710   5.588   5.440 -1.0570  1.0566 -0.0940
  382poe    c23 2415   5.754   5.671   5.545 -0.0311 -0.1074  0.4293
  382poe    c23 2416   5.788   5.811   5.488  0.3864 -0.3364  0.1088
  382poe     o2 2417   5.847   5.791   5.362 -0.1471 -0.2451 -0.1585
  382poe    c23 2418   5.905   5.900   5.292  0.1175 -0.1822  0.1594
  382poe    c23 2419   5.978   5.836   5.173 -0.0101  0.3872 -0.2267
  382poe     o2 2420   5.892   5.801   5.068  0.0203 -0.5875  0.0635
  382poe    c23 2421   5.952   5.722   4.968  0.4087  0.1142 -0.2617
  382poe    c23 2422   5.886   5.746   4.830  0.3643 -0.8875 -0.4239
  382poe     o2 2423   5.930   5.863   4.764 -0.1261 -0.5289 -0.1249
  382poe    c31 2424   5.876   5.874   4.634 -0.2870 -0.3262 -0.0393
  383poe    c31 2425   0.643   6.719   5.161  0.5489 -0.7117 -1.0426
  383poe     o2 2426   0.563   6.644   5.249  0.7007  0.4234  0.0881
  383poe    c23 2427   0.586   6.701   5.376  0.8835  0.4360  0.0490
  383poe    c23 2428   0.502   6.621   5.477  0.6704 -0.0125 -0.4764
  383poe     o2 2429   0.390   6.578   5.403  0.4400 -0.3444  0.0576
  383poe    c23 2430   0.334   6.474   5.481 -0.0789 -0.3092 -0.2654
  383poe    c23 2431   0.238   6.401   5.386 -0.7947  0.1249  0.1172
  383poe     o2 2432   0.307   6.361   5.269 -0.0987 -0.0690  0.5895
  383poe    c23 2433   0.241   6.259   5.198  0.3185  0.2404 -0.2508
  383poe    c23 2434   0.330   6.215   5.080  0.2171  0.1286 -0.2856
  383poe     o2 2435   0.350   6.317   4.985 -0.0194  0.5751  0.1436
  383poe    c31 2436   0.476   6.295   4.927 -0.0810 -0.1448  0.2820
  384poe    c31 2437   5.217   4.476   6.427  0.1224 -0.4911  0.0991
  384poe     o2 2438   5.258   4.514   6.556  0.1371  0.4445 -0.1728
  384poe    c23 2439   5.351   4.620   6.562  0.3327  0.2507  0.2401
  384poe    c23 2440   5.419   4.631   6.700  0.2514  0.0438  0.2971
  384poe     o2 2441   5.317   4.649   6.795  0.1939  1.0898  0.0563
  384poe    c23 2442   5.343   4.625   6.932 -0.1322  0.0412 -0.0505
  384poe    c23 2443   5.227   4.553   7.002  0.2458 -0.1080  0.4245
  384poe     o2 2444   5.190   4.462   6.901  0.4142  0.1699  0.1100
  384poe    c23 2445   5.062   4.408   6.926  0.5122 -0.1943 -0.1494
  384poe    c23 2446   5.041   4.300   6.819  0.4819 -0.0964 -0.2422
  384poe     o2 2447   5.088   4.340   6.692  0.2715 -0.0757 -0.3136
  384poe    c31 2448   5.015   4.268   6.596  0.3520 -0.3660 -0.1592
  385poe    c31 2449   2.990   3.666   6.580  0.4892 -0.6946 -0.0874
  385poe     o2 2450   2.874   3.743   6.562  0.8024 -0.3348 -0.5814
  385poe    c23 2451   2.825   3.761   6.693  0.4950 -0.6302 -0.6527
  385poe    c23 2452   2.740   3.889   6.695  0.4917 -0.6406 -0.0122
  385poe     o2 2453   2.659   3.865   6.582  0.2558  0.4076 -0.0841
  385poe    c23 2454   2.581   3.977   6.548 -0.2314 -0.0356 -0.4418
  385poe    c23 2455   2.539   3.951   6.403 -0.0170  0.3935 -0.5813
  385poe     o2 2456   2.650   3.883   6.348 -0.0732  0.1291 -0.3725
  385poe    c23 2457   2.632   3.841   6.215 -0.0316 -0.3982 -0.2138
  385poe    c23 2458   2.772   3.791   6.172  0.5343  0.6673  0.3422
  385poe     o2 2459   2.813   3.707   6.278 -0.1677 -0.1496 -0.0208
  385poe    c31 2460   2.919   3.622   6.238  0.2634  0.3861 -0.0263
  386poe    c31 2461   0.750   3.670   3.564 -0.0230  0.0002 -0.1038
  386poe     o2 2462   0.735   3.810   3.557 -0.1084 -0.0322 -0.6114
  386poe    c23 2463   0.609   3.834   3.499 -0.1998 -0.2088 -0.4884
  386poe    c23 2464   0.603   3.986   3.471  0.3745 -0.0716  0.1041
  386poe     o2 2465   0.728   4.012   3.411  0.4901  0.3829  0.5373
  386poe    c23 2466   0.748   4.133   3.341  0.3992  0.1238  0.0627
  386poe    c23 2467   0.806   4.242   3.432  0.1730  0.2825  0.0172
  386poe     o2 2468   0.933   4.200   3.476 -0.0297 -0.3077  0.0409
  386poe    c23 2469   0.970   4.289   3.579  0.1284 -0.2428 -0.0732
  386poe    c23 2470   1.102   4.256   3.650  0.0864  0.3117  0.2676
  386poe     o2 2471   1.089   4.150   3.742  0.1202 -0.1425 -0.2470
  386poe    c31 2472   1.180   4.153   3.849 -0.2100 -0.3925  0.0445
  387poe    c31 2473   0.280   2.617   0.155  0.0845 -0.2525 -0.2236
  387poe     o2 2474   0.330   2.674   0.036 -0.0248  0.4072  0.0479
  387poe    c23 2475   0.228   2.657  -0.060 -0.1253 -0.1743  0.2569
  387poe    c23 2476   0.265   2.724  -0.194 -0.2403 -0.3564  0.1322
  387poe     o2 2477   0.401   2.699  -0.222 -0.1952 -0.2023  0.2105
  387poe    c23 2478   0.453   2.787  -0.319  0.1148 -0.0515  0.5071
  387poe    c23 2479   0.597   2.749  -0.359  0.0645  0.2579  0.0297
  387poe     o2 2480   0.664   2.765  -0.236  0.3520  0.1583 -0.1138
  387poe    c23 2481   0.742   2.650  -0.214 -0.2334 -0.1646  0.3381
  387poe    c23 2482   0.756   2.629  -0.062  0.3154  0.8893  0.4413
  387poe     o2 2483   0.628   2.646  -0.006 -0.1088  0.0973 -0.2579
  387poe    c31 2484   0.625   2.567   0.111  0.5061 -0.2085 -0.4473
  388poe    c31 2485   2.716   2.178   6.679  0.2366  0.1343  0.0061
  388poe     o2 2486   2.708   2.038   6.691  0.2419  0.1641  0.3771
  388poe    c23 2487   2.797   1.991   6.790 -0.0957 -0.1922  0.5141
  388poe    c23 2488   2.778   1.839   6.799  0.5342 -0.3148 -0.1916
  388poe     o2 2489   2.640   1.817   6.818  0.5441  0.0468  0.3027
  388poe    c23 2490   2.625   1.676   6.817  0.4650  0.0566  0.1729
  388poe    c23 2491   2.484   1.622   6.847  0.2674  0.4980  0.0441
  388poe     o2 2492   2.410   1.656   6.731  0.2328 -0.4312 -0.2119
  388poe    c23 2493   2.276   1.619   6.758  0.0184  0.8962  0.6732
  388poe    c23 2494   2.199   1.716   6.666 -0.1165  0.4136  0.2715
  388poe     o2 2495   2.176   1.848   6.710 -0.4660  0.2965  0.4440
  388poe    c31 2496   2.062   1.900   6.645 -0.2054  0.4393  0.0924
  389poe    c31 2497   1.945   4.964   0.676  0.0354  0.6051  0.5161
  389poe     o2 2498   1.837   5.050   0.703 -0.1773  0.5596 -0.1881
  389poe    c23 2499   1.751   4.974   0.785  0.0062  0.3765 -0.1657
  389poe    c23 2500   1.628   5.054   0.832 -0.2438 -0.1532  0.0886
  389poe     o2 2501   1.570   5.096   0.710  0.1277  0.4264  0.1072
  389poe    c23 2502   1.509   5.222   0.701 -0.0901  0.2760 -0.5436
  389poe    c23 2503   1.530   5.274   0.557  0.1128  0.5044 -0.4327
  389poe     o2 2504   1.670   5.278   0.547  0.2200 -0.6444  0.4135
  389poe    c23 2505   1.697   5.409   0.504 -0.1777 -0.3907  0.9258
  389poe    c23 2506   1.842   5.429   0.552 -0.1220 -0.3398  0.7396
  389poe     o2 2507   1.931   5.322   0.533  0.0636  0.0047 -0.4080
  389poe    c31 2508   2.055   5.372   0.489  0.2747 -0.0543  0.1068
  390poe    c31 2509   2.633   1.001   4.092 -0.1982 -1.1929 -0.3818
  390poe     o2 2510   2.676   1.062   3.973  0.4105  0.1203  0.4835
  390poe    c23 2511   2.702   0.959   3.880  0.1895  0.4200  0.0855
  390poe    c23 2512   2.687   1.001   3.733 -0.5243 -0.0459  0.0172
  390poe     o2 2513   2.745   1.128   3.712 -0.1149 -0.2188  0.1034
  390poe    c23 2514   2.713   1.172   3.582 -0.1755 -0.6529 -0.0317
  390poe    c23 2515   2.736   1.324   3.574  0.6769 -0.7411  0.5497
  390poe     o2 2516   2.672   1.367   3.692 -0.2068 -0.2670 -0.0866
  390poe    c23 2517   2.713   1.498   3.721 -0.5276 -0.3277  0.6528
  390poe    c23 2518   2.732   1.505   3.874  0.1817  0.1080  0.5508
  390poe     o2 2519   2.788   1.385   3.923  0.3255  0.0140  0.1633
  390poe    c31 2520   2.818   1.394   4.061  0.0196 -0.2812  0.2488
  391poe    c31 2521   6.028   1.550   0.890 -0.3414 -0.6470  0.3795
  391poe     o2 2522   6.084   1.433   0.945  0.1337 -0.4659  0.2889
  391poe    c23 2523   6.156   1.357   0.850  0.6546 -0.2175  0.4853
  391poe    c23 2524   6.185   1.216   0.905  0.1314 -0.4916  0.0584
  391poe     o2 2525   6.073   1.141   0.947 -0.1397 -0.0270  0.1845
  391poe    c23 2526   6.095   1.009   0.992 -0.4668 -0.0491  0.2838
  391poe    c23 2527   6.185   0.992   1.116 -0.3272  0.3515  0.2385
  391poe     o2 2528   6.136   1.066   1.226 -0.1953  0.3879  0.2718
  391poe    c23 2529   6.241   1.086   1.319  0.0523  0.4174 -0.0128
  391poe    c23 2530   6.177   1.119   1.455 -0.3452 -1.0333  0.1673
  391poe     o2 2531   6.049   1.176   1.439 -0.2356 -0.8328  0.0030
  391poe    c31 2532   5.988   1.214   1.561 -0.5502 -0.6812 -0.2007
  392poe    c31 2533   0.223   4.117   4.139 -0.0053  0.1983 -0.0297
  392poe     o2 2534   0.158   4.201   4.232  0.0534  0.4673 -0.2290
  392poe    c23 2535   0.238   4.247   4.338 -0.3305 -0.1568  0.3377
  392poe    c23 2536   0.155   4.342   4.426 -0.1494  0.3900 -0.0767
  392poe     o2 2537   0.022   4.296   4.418  0.0152 -0.1606  0.2885
  392poe    c23 2538  -0.066   4.383   4.485  0.3212  0.5200 -0.1777
  392poe    c23 2539  -0.199   4.311   4.456  0.7189 -0.2000 -0.2325
  392poe     o2 2540  -0.216   4.285   4.318 -0.1412  0.4726 -0.2570
  392poe    c23 2541  -0.342   4.235   4.279 -0.3055  0.6807 -0.0039
  392poe    c23 2542  -0.331   4.178   4.136 -0.6369 -0.0228  0.2457
  392poe     o2 2543  -0.203   4.123   4.116 -0.4196  0.7487 -0.5919
  392poe    c31 2544  -0.185   4.074   3.985 -0.0789 -0.0270 -0.2656
  393poe    c31 2545   3.022   0.038   0.029 -0.0468 -0.6758  0.0311
  393poe     o2 2546   3.021   0.111  -0.092  0.2463 -0.4738  0.1497
  393poe    c23 2547   3.125   0.079  -0.181  0.1230  0.1611 -0.2257
  393poe    c23 2548   3.051   0.057  -0.315  0.6708  1.1727 -0.7051
  393poe     o2 2549   2.976   0.176  -0.325 -0.4721  0.5329  0.0211
  393poe    c23 2550   2.882   0.175  -0.430 -0.1652 -0.0814 -0.2505
  393poe    c23 2551   2.839   0.322  -0.431 -0.2733 -0.1139 -0.5027
  393poe     o2 2552   2.784   0.333  -0.302  0.0362  0.5165 -0.4187
  393poe    c23 2553   2.752   0.460  -0.249 -0.2211  0.5185 -0.5773
  393poe    c23 2554   2.694   0.441  -0.107  0.5005  0.2755 -0.3083
  393poe     o2 2555   2.777   0.357  -0.031 -0.5622 -0.3552  0.1657
  393poe    c31 2556   2.761   0.378   0.108 -0.4708  0.6204  0.0365
  394poe    c31 2557   3.095   4.722   4.252 -0.1929 -0.1959 -0.4226
  394poe     o2 2558   3.029   4.829   4.317  0.2559 -0.2540  0.1409
  394poe    c23 2559   2.905   4.773   4.356 -0.1350  0.4559 -0.0564
  394poe    c23 2560   2.833   4.886   4.432 -1.0386 -0.1265 -0.0315
  394poe     o2 2561   2.893   5.005   4.386 -0.2866 -0.3913  0.2451
  394poe    c23 2562   2.824   5.115   4.439 -0.0842 -0.1566  0.0249
  394poe    c23 2563   2.938   5.216   4.461 -0.3490  0.1645 -0.0505
  394poe     o2 2564   3.041   5.195   4.367  0.2230  0.7070  0.4465
  394poe    c23 2565   3.160   5.254   4.417  0.3293  1.2888 -0.4695
  394poe    c23 2566   3.282   5.188   4.349  0.0806  0.0215  0.2734
  394poe     o2 2567   3.238   5.055   4.336  0.2306  0.0871 -1.0546
  394poe    c31 2568   3.348   4.974   4.300  0.5848  0.4271 -0.7482
  395poe    c31 2569   1.802   0.207   4.401 -0.1853 -0.3758  0.2454
  395poe     o2 2570   1.819   0.251   4.268 -0.8119 -0.2317  0.2093
  395poe    c23 2571   1.736   0.180   4.179 -0.1722 -0.8328  0.0841
  395poe    c23 2572   1.735   0.268   4.052  0.6163  0.5464  1.0037
  395poe     o2 2573   1.860   0.248   3.990  0.1692  0.0988  0.2250
  395poe    c23 2574   1.878   0.317   3.869  0.2792  0.5540  0.4968
  395poe    c23 2575   2.013   0.292   3.799 -0.1237  0.4756 -0.2717
  395poe     o2 2576   2.109   0.295   3.902  0.0072  0.1736 -0.3830
  395poe    c23 2577   2.245   0.315   3.871  0.2035 -0.1586  0.2445
  395poe    c23 2578   2.331   0.402   3.964 -0.0596  0.3839 -0.0198
  395poe     o2 2579   2.350   0.320   4.077 -0.0620  0.6566  0.1805
  395poe    c31 2580   2.457   0.380   4.147 -0.0672  0.3566  0.4457
  396poe    c31 2581   5.527   2.356   6.323  0.6267 -0.1369 -0.4733
  396poe     o2 2582   5.516   2.289   6.199  0.2133  0.5149 -0.7955
  396poe    c23 2583   5.471   2.387   6.108  0.0754  0.8626 -0.3573
  396poe    c23 2584   5.460   2.329   5.966  0.2685  0.4190 -0.1949
  396poe     o2 2585   5.554   2.224   5.959 -0.0903  0.0925 -0.1409
  396poe    c23 2586   5.608   2.199   5.831 -0.8135 -0.3138 -0.3695
  396poe    c23 2587   5.666   2.056   5.828  0.6267  0.2495  0.0348
  396poe     o2 2588   5.756   2.056   5.937  0.5019 -0.3552  0.1423
  396poe    c23 2589   5.773   1.927   5.990  0.3391 -0.4747 -0.0942
  396poe    c23 2590   5.806   1.946   6.139 -0.3191 -0.4559  0.0491
  396poe     o2 2591   5.705   2.025   6.199  0.0797  0.0857  0.0085
  396poe    c31 2592   5.735   2.067   6.330  0.0773  0.1672 -0.0174
  397poe    c31 2593   2.633   2.391   2.678  0.0956 -0.0666 -0.0147
  397poe     o2 2594   2.641   2.419   2.816 -0.8368  0.3399 -0.0338
  397poe    c23 2595   2.605   2.554   2.826 -0.5801  0.3878  0.2383
  397poe    c23 2596   2.674   2.621   2.947  0.3650  0.0019 -0.0798
  397poe     o2 2597   2.641   2.561   3.070  0.1503  0.2012 -0.0388
  397poe    c23 2598   2.531   2.609   3.143  0.1205  0.3592 -0.1868
  397poe    c23 2599   2.452   2.482   3.180  0.5798  0.1345  0.0380
  397poe     o2 2600   2.464   2.383   3.081  0.0358  0.3697 -0.2689
  397poe    c23 2601   2.358   2.290   3.077  0.5208 -0.3066  1.4697
  397poe    c23 2602   2.401   2.152   3.026  0.5145  0.1321  0.2382
  397poe     o2 2603   2.490   2.171   2.918  0.2416  0.1376  0.0131
  397poe    c31 2604   2.538   2.047   2.870  0.6304  0.3876 -0.2485
  398poe    c31 2605   5.764   3.710   2.657  0.1434  0.0618 -0.1517
  398poe     o2 2606   5.762   3.839   2.714 -0.0173 -0.0161  0.0195
  398poe    c23 2607   5.856   3.915   2.641  0.0218  0.4294  0.5262
  398poe    c23 2608   5.785   4.051   2.627  0.1264  0.4679  0.3718
  398poe     o2 2609   5.776   4.088   2.763 -0.1282 -0.3094  0.5750
  398poe    c23 2610   5.716   4.214   2.787  0.6176  0.1825 -0.0753
  398poe    c23 2611   5.662   4.205   2.931  0.9276 -0.2451  0.0175
  398poe     o2 2612   5.588   4.086   2.945  0.2589  0.1650  0.0080
  398poe    c23 2613   5.527   4.057   3.069 -0.0129 -0.7781 -0.3374
  398poe    c23 2614   5.457   3.922   3.049 -0.6480 -0.4410 -0.4228
  398poe     o2 2615   5.556   3.847   2.980 -0.4733 -0.1126 -0.5297
  398poe    c31 2616   5.565   3.709   3.005 -0.7658  0.0386  0.4601
  399poe    c31 2617   5.944   5.790   0.034  0.3012  0.1376  0.6010
  399poe     o2 2618   5.945   5.875   0.146 -0.2617  0.7155  0.1762
  399poe    c23 2619   5.932   5.787   0.255 -0.3047  0.0212 -0.3847
  399poe    c23 2620   5.888   5.871   0.376  0.8191 -0.2544  0.2253
  399poe     o2 2621   5.955   5.994   0.354 -0.0304  0.1588 -0.1007
  399poe    c23 2622   6.019   6.049   0.467 -0.1085  0.1417 -0.0481
  399poe    c23 2623   6.163   6.070   0.416 -0.1342  0.7258  0.1114
  399poe     o2 2624   6.157   6.117   0.283  0.1651 -0.1129 -0.2115
  399poe    c23 2625   6.274   6.087   0.212 -0.1276  0.3349 -0.8993
  399poe    c23 2626   6.239   6.135   0.070  0.0850 -0.1549 -1.1211
  399poe     o2 2627   6.103   6.103   0.055 -0.1501  0.3135 -0.1344
  399poe    c31 2628   6.060   6.129  -0.077 -0.2884 -0.5598 -0.2666
  400poe    c31 2629   3.584   2.649   5.690  0.0828 -0.5539  0.3540
  400poe     o2 2630   3.715   2.625   5.645  0.0050 -0.4822  0.0861
  400poe    c23 2631   3.726   2.612   5.506  0.0886 -0.1747  0.0620
  400poe    c23 2632   3.872   2.590   5.465  0.3893  0.3510  0.8366
  400poe     o2 2633   3.953   2.705   5.465 -0.8518  1.2479 -0.3054
  400poe    c23 2634   4.034   2.703   5.580 -0.3397  0.2319 -0.6679
  400poe    c23 2635   4.117   2.832   5.565  0.2373 -0.0577 -0.0075
  400poe     o2 2636   4.163   2.840   5.432  0.0305  0.0681 -0.0712
  400poe    c23 2637   4.275   2.925   5.423 -0.1214  0.2527 -0.2240
  400poe    c23 2638   4.298   2.970   5.277  0.5769 -0.5687 -0.3765
  400poe     o2 2639   4.274   2.869   5.182  0.9727 -0.7025 -0.3337
  400poe    c31 2640   4.290   2.930   5.056 -0.4000 -0.2731 -0.3220
  401poe    c31 2641   6.838   2.212   2.226 -0.0961 -0.0975 -1.1194
  401poe     o2 2642   6.919   2.099   2.208  0.3104 -0.0232  0.1856
  401poe    c23 2643   6.821   1.997   2.211  0.2266  0.0388 -0.4032
  401poe    c23 2644   6.879   1.854   2.211 -0.2172 -0.1443 -0.0693
  401poe     o2 2645   6.971   1.848   2.104 -0.3473 -0.2821 -0.1732
  401poe    c23 2646   7.053   1.735   2.117 -0.1936 -0.2178 -0.5504
  401poe    c23 2647   7.190   1.769   2.055  0.0759  0.1477  0.2357
  401poe     o2 2648   7.213   1.901   2.099 -0.1475  0.1613  0.3182
  401poe    c23 2649   7.301   1.959   2.004 -0.4720  0.3074  0.1049
  401poe    c23 2650   7.324   2.106   2.044  0.3175  0.2774 -0.2185
  401poe     o2 2651   7.197   2.150   2.086  0.3333 -0.0660  0.2033
  401poe    c31 2652   7.203   2.288   2.116 -0.1543  0.2587 -1.1322
  402poe    c31 2653   6.096   6.364   6.212 -0.0783  0.4731 -0.0128
  402poe     o2 2654   6.031   6.376   6.337  0.0417  0.2220  0.0740
  402poe    c23 2655   6.107   6.419   6.447  0.9663 -0.9625 -0.0836
  402poe    c23 2656   6.011   6.449   6.563  0.8675  0.0830 -0.4275
  402poe     o2 2657   5.915   6.348   6.543 -0.4025  1.2607 -0.4080
  402poe    c23 2658   5.814   6.349   6.642 -0.0564 -0.5255 -0.0020
  402poe    c23 2659   5.695   6.276   6.578 -0.6266  0.2991  0.1022
  402poe     o2 2660   5.685   6.334   6.450  0.2493  0.3575  0.0579
  402poe    c23 2661   5.611   6.250   6.364 -0.2017  0.7202  0.0894
  402poe    c23 2662   5.604   6.318   6.226 -0.2917 -0.2044 -0.3648
  402poe     o2 2663   5.737   6.351   6.196 -0.2052  0.2335  0.4754
  402poe    c31 2664   5.765   6.315   6.062  0.5534 -0.5605  0.8446
  403poe    c31 2665   1.002   6.570   2.120 -0.8749 -0.8162  0.0999
  403poe     o2 2666   0.919   6.610   2.014 -0.4537 -0.9865 -0.2956
  403poe    c23 2667   0.994   6.703   1.938 -0.4790 -0.1315  0.7135
  403poe    c23 2668   0.884   6.770   1.854  0.0721 -0.3064 -0.1605
  403poe     o2 2669   0.795   6.668   1.814 -0.1143 -0.3668  0.3956
  403poe    c23 2670   0.669   6.713   1.770 -0.1263 -0.7745  0.0056
  403poe    c23 2671   0.571   6.595   1.775 -0.0601 -0.8444 -0.3500
  403poe     o2 2672   0.609   6.536   1.897 -0.3168  0.1478  0.2129
  403poe    c23 2673   0.528   6.423   1.922 -0.0438 -0.1244 -0.1388
  403poe    c23 2674   0.603   6.360   2.041 -0.1204  0.4952  0.2420
  403poe     o2 2675   0.743   6.360   2.022 -0.1365  0.1878  0.1206
  403poe    c31 2676   0.805   6.256   2.095  0.0076  0.2882  0.1413
  404poe    c31 2677   1.662   2.670   6.637  0.0248  0.6864 -0.1612
  404poe     o2 2678   1.787   2.606   6.639 -0.1500  0.3480 -0.0867
  404poe    c23 2679   1.878   2.668   6.727 -0.1771 -0.1028  0.2614
  404poe    c23 2680   1.982   2.565   6.774  0.1769  0.1995  0.1450
  404poe     o2 2681   2.063   2.506   6.675  0.3688  0.7372 -0.0221
  404poe    c23 2682   2.155   2.421   6.741  0.1118  0.2247 -0.3158
  404poe    c23 2683   2.260   2.383   6.635  0.2899  0.1201 -0.1032
  404poe     o2 2684   2.198   2.318   6.527 -0.1560  0.4062 -0.0225
  404poe    c23 2685   2.280   2.299   6.414  0.2385 -0.1302  0.3485
  404poe    c23 2686   2.192   2.263   6.293  0.1644  0.4181  0.2377
  404poe     o2 2687   2.068   2.327   6.316 -0.2136 -0.4992  0.8197
  404poe    c31 2688   1.990   2.313   6.200 -0.2635 -0.3242  0.8319
  405poe    c31 2689   4.272   1.546   6.407  0.3385 -0.9850 -0.1415
  405poe     o2 2690   4.380   1.612   6.345  0.1102 -0.4008  0.0838
  405poe    c23 2691   4.455   1.516   6.275  0.3718  0.1760 -0.4339
  405poe    c23 2692   4.600   1.562   6.252  0.3932  0.1765 -0.2989
  405poe     o2 2693   4.590   1.674   6.167 -0.6066  0.4054  0.1028
  405poe    c23 2694   4.715   1.739   6.160 -0.3924 -0.0184 -0.0719
  405poe    c23 2695   4.696   1.857   6.062 -0.3507 -0.2759 -0.3930
  405poe     o2 2696   4.580   1.929   6.100 -0.2095 -0.0659 -0.3635
  405poe    c23 2697   4.555   2.045   6.023  0.0534  0.2771  0.0648
  405poe    c23 2698   4.411   2.096   6.044  0.0542  0.3785 -0.1762
  405poe     o2 2699   4.388   2.111   6.182  0.2184 -0.6439 -0.0265
  405poe    c31 2700   4.264   2.177   6.197  0.5110 -0.0552 -0.1607
  406poe    c31 2701   1.636   0.744   0.204  0.5693  0.2340 -0.1574
  406poe     o2 2702   1.675   0.610   0.226  0.5424  0.3262  0.4610
  406poe    c23 2703   1.572   0.541   0.293 -0.0234  0.3469 -0.3656
  406poe    c23 2704   1.601   0.393   0.263 -0.1825  0.3672 -0.6125
  406poe     o2 2705   1.740   0.388   0.282 -0.2246  0.2297 -0.3443
  406poe    c23 2706   1.797   0.259   0.280  0.0258  0.3047  0.8411
  406poe    c23 2707   1.944   0.276   0.321  0.3648 -0.0077 -0.2066
  406poe     o2 2708   1.994   0.391   0.257  0.2613 -0.0424 -0.3494
  406poe    c23 2709   2.108   0.450   0.314  0.2187  0.1539 -0.4645
  406poe    c23 2710   2.068   0.574   0.397 -0.1261 -0.0824 -0.2729
  406poe     o2 2711   1.983   0.644   0.309 -0.0717  0.2287 -0.0782
  406poe    c31 2712   1.935   0.756   0.380 -0.2272 -0.2282  0.5393
  407poe    c31 2713   2.801   2.778   0.055 -0.0733  0.1557 -0.5059
  407poe     o2 2714   2.877   2.782  -0.064 -0.6734  0.7880 -0.8732
  407poe    c23 2715   2.816   2.728  -0.180 -0.6566  0.1026 -0.5676
  407poe    c23 2716   2.885   2.808  -0.292  0.5206 -0.1653 -0.0463
  407poe     o2 2717   3.010   2.847  -0.238  0.6595 -0.1202 -0.3947
  407poe    c23 2718   3.090   2.916  -0.331  0.5545 -0.1111 -0.4789
  407poe    c23 2719   3.107   3.049  -0.254 -0.3030 -0.1997 -0.1159
  407poe     o2 2720   3.126   3.033  -0.116 -0.1328 -0.1495 -0.1326
  407poe    c23 2721   3.064   3.136  -0.043  0.0646  0.1599 -0.4023
  407poe    c23 2722   3.083   3.080   0.099  0.3318  0.2520 -0.4029
  407poe     o2 2723   3.034   2.949   0.114  0.1489  0.3669  0.0238
  407poe    c31 2724   3.084   2.895   0.234  0.1930  0.5110  0.0702
  408poe    c31 2725   1.233   2.251   1.790  0.3829 -0.1366 -1.2921
  408poe     o2 2726   1.156   2.319   1.693 -0.2700 -0.3383 -0.9235
  408poe    c23 2727   1.243   2.398   1.615  0.2627 -0.1323 -0.1283
  408poe    c23 2728   1.173   2.438   1.484  0.4616 -0.4030 -0.3171
  408poe     o2 2729   1.041   2.472   1.522  0.4677 -0.7835  0.0547
  408poe    c23 2730   0.977   2.511   1.403  0.2479 -0.1515  0.3742
  408poe    c23 2731   0.829   2.506   1.447 -0.1045 -0.6302 -0.8036
  408poe     o2 2732   0.791   2.394   1.524 -0.1906 -0.0980 -0.0591
  408poe    c23 2733   0.761   2.283   1.443  0.1573 -0.2381  0.0032
  408poe    c23 2734   0.809   2.154   1.513 -0.0009 -0.1612  0.2554
  408poe     o2 2735   0.942   2.168   1.556 -0.0737  0.3352  0.3257
  408poe    c31 2736   0.997   2.039   1.569  0.3944  0.4653 -0.2760
  409poe    c31 2737   0.643   4.685   6.046  0.6628 -0.0030  0.4063
  409poe     o2 2738   0.671   4.619   6.168  0.3565 -0.0998  0.4246
  409poe    c23 2739   0.712   4.708   6.270  0.0141  0.6604 -0.0941
  409poe    c23 2740   0.750   4.637   6.401 -0.3472 -0.4793 -0.5858
  409poe     o2 2741   0.657   4.531   6.411 -0.3229 -0.4839 -0.3984
  409poe    c23 2742   0.693   4.462   6.529  0.0517  0.3231 -0.0318
  409poe    c23 2743   0.578   4.368   6.569  0.0274  0.5005  0.3147
  409poe     o2 2744   0.537   4.290   6.459 -0.0754 -0.4177  0.9864
  409poe    c23 2745   0.449   4.184   6.485 -0.2563 -0.3698  0.5718
  409poe    c23 2746   0.301   4.227   6.480 -0.2173 -0.2628  0.2819
  409poe     o2 2747   0.260   4.326   6.573 -0.0946 -0.0525  0.1128
  409poe    c31 2748   0.126   4.367   6.562 -0.0396 -0.1103 -0.9233
  410poe    c31 2749   5.044   6.020   3.230  0.6680  0.7226 -0.2374
  410poe     o2 2750   5.092   6.002   3.361  0.1159 -0.2447 -0.1618
  410poe    c23 2751   5.224   5.952   3.366  0.1636 -0.0746  0.4210
  410poe    c23 2752   5.250   5.890   3.504 -0.6224 -0.7139  0.2943
  410poe     o2 2753   5.215   5.995   3.592 -0.1141 -0.2055 -0.1050
  410poe    c23 2754   5.270   5.943   3.711 -0.1948 -0.2509 -0.0884
  410poe    c23 2755   5.190   6.010   3.825  0.0273  0.7574 -0.5122
  410poe     o2 2756   5.054   6.018   3.789 -0.0184 -0.3076 -0.6037
  410poe    c23 2757   4.992   6.079   3.899  0.2371 -0.3139 -0.4549
  410poe    c23 2758   4.840   6.089   3.875  0.1259  0.9708  0.6346
  410poe     o2 2759   4.768   6.112   3.994 -0.0778  0.5211  0.5995
  410poe    c31 2760   4.639   6.062   3.965  0.4371  0.0678 -1.0022
  411poe    c31 2761   2.184   1.543   5.713  0.2847 -0.5354 -0.0968
  411poe     o2 2762   2.224   1.524   5.847  0.7926  0.1205 -0.1475
  411poe    c23 2763   2.260   1.653   5.890  0.1412  0.1700  0.2496
  411poe    c23 2764   2.169   1.695   6.007 -0.6199 -0.1981 -0.2004
  411poe     o2 2765   2.195   1.593   6.101  0.1651  0.0004 -0.1917
  411poe    c23 2766   2.113   1.610   6.215  0.1567 -0.4081 -0.1364
  411poe    c23 2767   2.140   1.492   6.311 -0.5184 -0.1504  0.3798
  411poe     o2 2768   2.139   1.381   6.225 -0.4696  0.0873  0.0689
  411poe    c23 2769   2.237   1.284   6.255  0.6204  0.9321 -0.7041
  411poe    c23 2770   2.267   1.201   6.129 -0.2276  0.4348 -0.5838
  411poe     o2 2771   2.297   1.291   6.025 -0.5860  0.3455 -0.7685
  411poe    c31 2772   2.362   1.218   5.923  0.1887  0.2055 -0.1913
  412poe    c31 2773   1.062   1.110   3.320  0.2162  0.1362 -0.5353
  412poe     o2 2774   1.047   1.244   3.280 -0.6863  0.1545 -0.1604
  412poe    c23 2775   0.919   1.301   3.298 -0.9610 -0.5683  0.1852
  412poe    c23 2776   0.867   1.343   3.436 -0.2711  0.8243  0.0354
  412poe     o2 2777   0.938   1.454   3.486  0.5303  0.2429  0.2053
  412poe    c23 2778   0.874   1.475   3.610  0.0288  0.0902 -0.0247
  412poe    c23 2779   0.979   1.539   3.702  0.4458 -0.3306 -0.2016
  412poe     o2 2780   1.035   1.642   3.623 -0.3601  0.3687  0.1228
  412poe    c23 2781   1.154   1.689   3.683  0.2144 -0.7802 -0.0767
  412poe    c23 2782   1.218   1.781   3.577  0.1926 -0.0907  0.5025
  412poe     o2 2783   1.228   1.703   3.460  0.3186 -0.1213  0.5333
  412poe    c31 2784   1.338   1.738   3.380 -0.0883  0.4616  0.2191
  413poe    c31 2785   6.831   3.111   3.857  0.1425  0.1454 -0.3793
  413poe     o2 2786   6.924   3.215   3.880  0.0865  0.1672 -0.2523
  413poe    c23 2787   6.900   3.257   4.012 -0.5140  0.5704 -0.4857
  413poe    c23 2788   6.991   3.380   4.035  0.2138  0.0242 -0.3856
  413poe     o2 2789   6.979   3.456   3.917  0.1984 -0.2841 -0.5823
  413poe    c23 2790   7.018   3.590   3.934 -0.1389 -0.2922  0.2631
  413poe    c23 2791   6.966   3.672   3.814 -0.1618 -0.0873  0.4113
  413poe     o2 2792   7.021   3.625   3.693  0.0756  0.5684  0.2605
  413poe    c23 2793   6.974   3.690   3.578  0.9524  0.4293 -0.1848
  413poe    c23 2794   7.000   3.596   3.458  0.2008  0.4856 -0.4005
  413poe     o2 2795   6.917   3.484   3.442  0.1153  0.5523 -0.4262
  413poe    c31 2796   6.946   3.430   3.315  0.0851 -0.4834 -0.0066
  414poe    c31 2797   4.901   5.247   0.577  0.1761  0.0212  0.1435
  414poe     o2 2798   4.802   5.284   0.483  0.2706  0.4990  0.2290
  414poe    c23 2799   4.682   5.219   0.516  0.3342  0.3108  0.0901
  414poe    c23 2800   4.579   5.269   0.413  0.4157 -0.1171 -0.2067
  414poe     o2 2801   4.588   5.410   0.416  0.0388 -0.1007  0.4020
  414poe    c23 2802   4.504   5.461   0.314  0.1744 -0.3034  0.1883
  414poe    c23 2803   4.562   5.602   0.296 -0.1627 -0.1964 -0.0636
  414poe     o2 2804   4.703   5.596   0.304 -0.1228  0.9206  0.2022
  414poe    c23 2805   4.754   5.726   0.327  0.4571  0.7696 -0.2172
  414poe    c23 2806   4.906   5.701   0.343  0.3762  0.1954 -0.3030
  414poe     o2 2807   4.918   5.583   0.418 -0.0411  0.0952 -0.3879
  414poe    c31 2808   5.053   5.555   0.448 -0.4707 -0.9108  0.6928
  415poe    c31 2809   4.234   2.065   0.933  0.3769  0.2717 -0.4134
  415poe     o2 2810   4.237   1.950   0.852 -0.0394  0.0140 -0.0680
  415poe    c23 2811   4.291   1.960   0.722  0.6075 -0.2501  0.1765
  415poe    c23 2812   4.260   1.821   0.666  0.1140 -0.1195  0.1257
  415poe     o2 2813   4.318   1.723   0.748 -0.1884 -0.3738  0.0393
  415poe    c23 2814   4.274   1.590   0.727  0.7874 -0.6176 -0.5148
  415poe    c23 2815   4.336   1.501   0.836 -0.5175  0.0454  0.7934
  415poe     o2 2816   4.313   1.583   0.949 -0.4228  0.6602  0.3721
  415poe    c23 2817   4.397   1.555   1.059  0.0985  0.2935 -0.1150
  415poe    c23 2818   4.507   1.663   1.059  0.1632  0.2275 -0.1671
  415poe     o2 2819   4.445   1.786   1.029  0.0796  0.2745  0.1933
  415poe    c31 2820   4.537   1.888   1.062  0.6610  0.1859 -1.0850
  416poe    c31 2821   1.899   1.588   1.490 -0.0141  0.1931 -0.4247
  416poe     o2 2822   2.021   1.560   1.426  0.4601  0.4723  0.3436
  416poe    c23 2823   1.991   1.565   1.288  1.1521  0.4174  0.1864
  416poe    c23 2824   2.110   1.545   1.192  0.8863  0.4649 -0.1543
  416poe     o2 2825   2.101   1.617   1.072 -0.7358  0.1904 -0.2260
  416poe    c23 2826   2.188   1.729   1.068 -0.3152 -0.1188  0.1474
  416poe    c23 2827   2.222   1.760   0.921 -0.3676 -0.0926  0.1408
  416poe     o2 2828   2.103   1.756   0.845 -0.2400 -0.0514 -0.0643
  416poe    c23 2829   2.107   1.818   0.719  0.0665  0.1155  0.0269
  416poe    c23 2830   1.999   1.758   0.627  0.0793  0.4784 -0.2227
  416poe     o2 2831   2.036   1.623   0.618 -0.0445  0.4562 -0.4051
  416poe    c31 2832   1.985   1.568   0.498  0.6005  0.2600 -0.5962
  417poe    c31 2833   6.299   5.781   6.728  0.6333 -0.0492 -0.5538
  417poe     o2 2834   6.352   5.743   6.603  0.6612 -0.1926 -0.4991
  417poe    c23 2835   6.354   5.860   6.525 -0.2119  0.3104  0.2168
  417poe    c23 2836   6.424   5.828   6.391 -0.5023  0.2506  0.0786
  417poe     o2 2837   6.350   5.746   6.304  0.2144 -0.3317  0.0071
  417poe    c23 2838   6.401   5.725   6.174  0.0356  0.9461 -0.2740
  417poe    c23 2839   6.327   5.612   6.101  0.7097  0.4734 -0.2268
  417poe     o2 2840   6.348   5.502   6.187  0.5638  0.2258 -0.5046
  417poe    c23 2841   6.319   5.382   6.118 -0.2148  0.2074 -0.1462
  417poe    c23 2842   6.301   5.279   6.231  0.0823 -0.3586 -0.6131
  417poe     o2 2843   6.211   5.351   6.312  0.3104 -0.7180 -0.0347
  417poe    c31 2844   6.163   5.254   6.403  0.1037  0.1532  0.7943
  418poe    c31 2845   5.512   5.046   2.259 -0.1924  0.2441 -0.0959
  418poe     o2 2846   5.565   4.923   2.214 -0.5374 -0.0286  0.2371
  418poe    c23 2847   5.597   4.937   2.078  0.3612 -0.0917  0.4387
  418poe    c23 2848   5.682   4.812   2.048  0.8435  0.1885  0.6166
  418poe     o2 2849   5.613   4.701   2.100 -0.0007  0.1603 -0.5270
  418poe    c23 2850   5.677   4.577   2.081  0.4328  0.1991  0.6087
  418poe    c23 2851   5.600   4.483   2.176  0.8089 -0.2626  0.4612
  418poe     o2 2852   5.578   4.559   2.293 -0.2384  0.3192 -0.0971
  418poe    c23 2853   5.520   4.483   2.396 -0.3743  0.4250 -0.0970
  418poe    c23 2854   5.508   4.592   2.504 -0.1118 -0.0214  0.3880
  418poe     o2 2855   5.497   4.717   2.440 -0.1306  0.0507  0.5302
  418poe    c31 2856   5.528   4.815   2.536  0.4202  0.7181 -0.3041
  419poe    c31 2857   3.922   4.954   1.147  0.1129 -0.4349 -0.4616
  419poe     o2 2858   4.035   4.894   1.088  0.5223 -0.2208  0.0940
  419poe    c23 2859   3.986   4.849   0.963  0.4057  1.1592 -0.3821
  419poe    c23 2860   4.095   4.834   0.855  0.5069 -0.2072 -0.1131
  419poe     o2 2861   4.134   4.961   0.809  0.8956 -0.1200  0.4473
  419poe    c23 2862   4.257   4.945   0.741  0.0898 -0.4129 -0.9862
  419poe    c23 2863   4.294   5.089   0.699  0.5143 -0.1684  0.1904
  419poe     o2 2864   4.301   5.172   0.813 -0.9365  0.4082 -0.1317
  419poe    c23 2865   4.333   5.304   0.775 -0.3342  0.4319  0.4457
  419poe    c23 2866   4.304   5.397   0.894 -0.4679  0.3479  0.4783
  419poe     o2 2867   4.204   5.325   0.965 -0.1812 -0.1667  0.3687
  419poe    c31 2868   4.184   5.378   1.094 -0.2927 -0.3000  0.4061
  420poe    c31 2869   2.013   6.545   1.601  0.1393 -0.1821 -0.0525
  420poe     o2 2870   1.906   6.458   1.572 -0.2275  0.0736  0.5221
  420poe    c23 2871   1.959   6.328   1.555  0.8492  0.5167  0.4576
  420poe    c23 2872   1.841   6.230   1.565  0.8108  0.4507 -0.4778
  420poe     o2 2873   1.747   6.269   1.468  0.3522  0.2870 -0.1076
  420poe    c23 2874   1.612   6.231   1.476  0.2313  0.7185 -0.0690
  420poe    c23 2875   1.515   6.332   1.413 -0.3753  0.2679  0.1343
  420poe     o2 2876   1.570   6.458   1.442  0.2920 -0.0490  0.2415
  420poe    c23 2877   1.483   6.566   1.420  0.0063 -0.2331  0.4680
  420poe    c23 2878   1.536   6.708   1.449 -0.2943 -0.0301  0.0246
  420poe     o2 2879   1.668   6.723   1.402 -0.1904  0.4727  0.4684
  420poe    c31 2880   1.733   6.815   1.486  0.2404 -0.3198  1.0074
  421poe    c31 2881   0.598   0.442   1.133  0.6204  0.1932  0.7212
  421poe     o2 2882   0.517   0.456   1.248  0.1263  0.1252  0.3841
  421poe    c23 2883   0.423   0.558   1.222 -0.4379 -0.4976 -0.0333
  421poe    c23 2884   0.306   0.537   1.320 -0.3649 -0.1077  0.1392
  421poe     o2 2885   0.346   0.548   1.455 -0.3343  0.1510  0.1104
  421poe    c23 2886   0.232   0.506   1.528 -0.2472 -0.0565  0.1284
  421poe    c23 2887   0.265   0.539   1.675  0.3116  0.7448 -0.1659
  421poe     o2 2888   0.395   0.496   1.705  0.1333  0.1894 -0.1732
  421poe    c23 2889   0.427   0.514   1.841 -0.0184  0.6718 -0.2025
  421poe    c23 2890   0.575   0.472   1.833 -0.0970  0.3055  0.2526
  421poe     o2 2891   0.633   0.531   1.719 -0.4544  0.1292 -0.0247
  421poe    c31 2892   0.771   0.555   1.738 -0.4662 -0.2549  0.5832
  422poe    c31 2893   0.630   6.637   1.384  0.2997 -0.0602 -0.1861
  422poe     o2 2894   0.653   6.693   1.257  0.4533 -0.0493 -0.1533
  422poe    c23 2895   0.559   6.798   1.253  0.4495 -0.0513 -0.1147
  422poe    c23 2896   0.524   6.821   1.105 -0.1381  0.3132  0.0779
  422poe     o2 2897   0.654   6.802   1.053 -0.2748  0.0225 -0.1591
  422poe    c23 2898   0.654   6.783   0.914 -0.5198  0.0598 -0.1655
  422poe    c23 2899   0.805   6.780   0.881 -0.4837 -0.5123  0.0310
  422poe     o2 2900   0.848   6.684   0.975  0.4619  0.3063  0.4560
  422poe    c23 2901   0.903   6.570   0.912 -0.7159 -0.0234 -0.0057
  422poe    c23 2902   0.916   6.461   1.021 -0.0718 -0.1062 -0.1641
  422poe     o2 2903   0.792   6.458   1.088  0.0192 -0.4197 -0.0100
  422poe    c31 2904   0.740   6.328   1.101 -1.0247 -0.0179 -0.0796
  423poe    c31 2905   5.375   5.196   0.790  0.3313 -0.5070 -0.3259
  423poe     o2 2906   5.390   5.086   0.877 -0.3237 -0.3182  0.0342
  423poe    c23 2907   5.441   5.111   1.006  0.2570  0.6841 -0.3710
  423poe    c23 2908   5.417   4.979   1.082  0.7663  0.8607  0.1027
  423poe     o2 2909   5.441   4.875   0.990  0.2630  0.4643  0.4119
  423poe    c23 2910   5.452   4.742   1.036  0.0107  0.0850 -0.6068
  423poe    c23 2911   5.358   4.655   0.950 -0.7713  0.0591  0.2675
  423poe     o2 2912   5.318   4.735   0.841  0.2545 -0.0285 -0.1794
  423poe    c23 2913   5.185   4.711   0.800  0.1527 -0.2414  0.2731
  423poe    c23 2914   5.098   4.808   0.883  0.3301 -0.1710  0.3782
  423poe     o2 2915   5.155   4.937   0.872 -0.6001  0.2334  0.2323
  423poe    c31 2916   5.066   5.035   0.922 -0.0005  0.9402 -0.0692
  424poe    c31 2917   5.139   0.858   4.655  0.6848  0.0737  0.0574
  424poe     o2 2918   5.230   0.907   4.751 -0.1660  0.4664  0.6750
  424poe    c23 2919   5.354   0.840   4.750 -0.1466  0.5021 -0.1660
  424poe    c23 2920   5.436   0.899   4.867  0.6275 -0.7326 -0.0672
  424poe     o2 2921   5.431   1.040   4.867  0.9124 -0.7219 -0.0154
  424poe    c23 2922   5.507   1.117   4.957 -0.4229  0.2535  0.3232
  424poe    c23 2923   5.490   1.267   4.930  0.1927  0.3475  0.4455
  424poe     o2 2924   5.353   1.299   4.933  0.0899  0.0132 -0.3323
  424poe    c23 2925   5.331   1.439   4.929  0.2159  0.0178 -0.8318
  424poe    c23 2926   5.193   1.469   4.868 -0.2731  0.6025  0.5368
  424poe     o2 2927   5.098   1.392   4.939 -0.1504  0.1130  0.1728
  424poe    c31 2928   4.972   1.438   4.898 -0.1830  0.0665  0.2210
  425poe    c31 2929   4.039   5.816   3.661  0.2295 -0.5576 -0.0326
  425poe     o2 2930   4.133   5.713   3.685  0.3222 -0.4757 -0.0467
  425poe    c23 2931   4.139   5.635   3.568 -0.9625 -0.2769 -0.2659
  425poe    c23 2932   4.214   5.507   3.610 -0.5964 -0.0228 -0.1335
  425poe     o2 2933   4.324   5.551   3.686 -0.5966 -0.1169 -0.0783
  425poe    c23 2934   4.391   5.451   3.760 -0.2019 -0.0222 -0.3054
  425poe    c23 2935   4.469   5.528   3.868 -0.5182  0.0680 -0.1398
  425poe     o2 2936   4.384   5.622   3.928 -0.3089 -0.1123  0.4494
  425poe    c23 2937   4.466   5.721   3.986 -0.2369  0.0796  0.0211
  425poe    c23 2938   4.379   5.846   4.012  0.1645  0.2244  0.6975
  425poe     o2 2939   4.312   5.864   3.889  0.0267 -0.2451  0.7014
  425poe    c31 2940   4.229   5.978   3.889 -0.1545 -0.3687 -0.2480
  426poe    c31 2941   5.672   5.206   0.232 -0.2804 -0.5050  0.1092
  426poe     o2 2942   5.733   5.123   0.328  0.3470 -0.1929 -0.0151
  426poe    c23 2943   5.750   5.210   0.438  0.5839  0.6403 -0.6937
  426poe    c23 2944   5.866   5.146   0.516  0.3776  1.1663  0.0572
  426poe     o2 2945   5.848   5.010   0.550  0.2591  1.1831  0.0595
  426poe    c23 2946   5.956   4.943   0.610 -0.1527  0.3518 -0.1031
  426poe    c23 2947   5.919   4.797   0.580  0.2244  0.2255  0.0444
  426poe     o2 2948   5.866   4.800   0.450  0.0901  0.2036  0.0987
  426poe    c23 2949   5.910   4.691   0.372 -0.4099 -0.1728  0.3379
  426poe    c23 2950   5.808   4.700   0.257  0.0348  0.1681 -0.0338
  426poe     o2 2951   5.773   4.835   0.235  0.0037  0.1213 -0.2674
  426poe    c31 2952   5.739   4.843   0.098  0.1807  0.4558 -0.2907
  427poe    c31 2953   2.199   1.876   4.864 -0.9078  0.4562  0.4903
  427poe     o2 2954   2.294   1.802   4.938 -0.5053 -0.1524 -0.6046
  427poe    c23 2955   2.415   1.798   4.866  0.1123 -0.1532  0.4146
  427poe    c23 2956   2.481   1.663   4.898  0.1359 -0.2182  0.0994
  427poe     o2 2957   2.449   1.627   5.031  0.5339  0.3554  0.3531
  427poe    c23 2958   2.464   1.489   5.055  0.5875  0.2758 -0.1306
  427poe    c23 2959   2.424   1.487   5.204 -0.4167  0.4770 -0.3881
  427poe     o2 2960   2.310   1.569   5.209 -0.2353  0.6802  0.5410
  427poe    c23 2961   2.270   1.604   5.340  0.3388 -0.4504  1.0291
  427poe    c23 2962   2.255   1.758   5.344 -0.8256 -0.5399  0.5280
  427poe     o2 2963   2.189   1.790   5.225 -0.2768 -0.8197  0.1428
  427poe    c31 2964   2.119   1.913   5.234  0.4736 -0.3644 -0.1702
  428poe    c31 2965   2.024   1.131   6.510 -0.2250 -0.1096  0.2452
  428poe     o2 2966   2.024   1.036   6.406  0.3353  0.3377 -0.1734
  428poe    c23 2967   1.931   1.078   6.309  0.2061  0.1986 -0.1104
  428poe    c23 2968   1.909   0.966   6.205  0.0917  0.1757 -0.0616
  428poe     o2 2969   2.039   0.917   6.182 -0.1105 -0.2361 -0.3373
  428poe    c23 2970   2.030   0.800   6.104 -0.4473  0.0454 -0.7267
  428poe    c23 2971   2.167   0.732   6.081 -0.1110  0.4697 -0.0042
  428poe     o2 2972   2.234   0.702   6.202  0.0309 -0.0272 -0.2013
  428poe    c23 2973   2.348   0.621   6.187 -0.0400 -0.2394  0.3985
  428poe    c23 2974   2.415   0.609   6.325  0.3571  0.0983  0.2359
  428poe     o2 2975   2.436   0.728   6.398 -0.3558  0.1246  0.4044
  428poe    c31 2976   2.573   0.755   6.419 -0.3177 -0.0211  0.3439
  429poe    c31 2977   6.619   0.451   3.136  0.0840  0.2805 -0.0872
  429poe     o2 2978   6.519   0.507   3.217 -0.0585 -0.4392  0.2365
  429poe    c23 2979   6.415   0.541   3.128  0.0431  0.1501  0.3346
  429poe    c23 2980   6.299   0.612   3.199 -0.0481 -0.2316  0.5709
  429poe     o2 2981   6.370   0.701   3.283  0.0798 -0.2326  0.4639
  429poe    c23 2982   6.303   0.786   3.373 -0.3876  0.7472 -0.7738
  429poe    c23 2983   6.401   0.852   3.472 -0.2595 -0.1197 -0.3066
  429poe     o2 2984   6.492   0.745   3.483 -0.0092  0.1975  0.8297
  429poe    c23 2985   6.603   0.765   3.567  0.4756 -0.2236  0.2985
  429poe    c23 2986   6.693   0.640   3.578  0.3176 -0.3420  0.2488
  429poe     o2 2987   6.703   0.604   3.442  0.4424  0.3143  0.0795
  429poe    c31 2988   6.808   0.514   3.419 -0.0176 -0.2368  0.1039
  430poe    c31 2989   1.937   5.733   6.024  0.1101  0.5009 -0.3089
  430poe     o2 2990   1.826   5.702   5.943  0.1886 -0.0004 -0.2275
  430poe    c23 2991   1.799   5.819   5.869 -0.4200 -0.1793 -0.2972
  430poe    c23 2992   1.679   5.817   5.772 -0.0390  0.3946 -0.7897
  430poe     o2 2993   1.689   5.718   5.672  0.6905 -0.0585 -0.2848
  430poe    c23 2994   1.582   5.737   5.581 -0.1638 -0.4352  0.6199
  430poe    c23 2995   1.547   5.605   5.510 -0.4621  0.3209 -0.6495
  430poe     o2 2996   1.669   5.538   5.490 -0.1555  0.5426  0.4532
  430poe    c23 2997   1.661   5.434   5.395  0.9796  0.2970  0.6085
  430poe    c23 2998   1.754   5.325   5.450  0.6114 -0.1608  0.3224
  430poe     o2 2999   1.852   5.393   5.525  0.9874 -0.1966 -0.1373
  430poe    c31 3000   1.959   5.416   5.436  0.6489 -0.3307 -0.5850
  431poe    c31 3001   4.466   0.365   1.218 -0.7629 -0.4007 -0.3910
  431poe     o2 3002   4.423   0.231   1.211 -0.0941 -0.6698  0.5312
  431poe    c23 3003   4.455   0.183   1.083 -0.1701 -0.4865  0.4437
  431poe    c23 3004   4.358   0.099   0.997 -0.1983  0.0524 -0.0635
  431poe     o2 3005   4.304  -0.010   1.069 -0.1524  0.5858  0.7972
  431poe    c23 3006   4.231  -0.081   0.971  0.4116  0.2254  0.6341
  431poe    c23 3007   4.171  -0.212   1.026  0.2949  0.2484  0.5617
  431poe     o2 3008   4.087  -0.174   1.133  0.1130  0.4099  0.3637
  431poe    c23 3009   3.976  -0.260   1.129  0.5286 -0.1156 -0.0796
  431poe    c23 3010   3.856  -0.183   1.188  0.0938 -0.4124 -0.5629
  431poe     o2 3011   3.895  -0.114   1.305 -0.5048 -0.7608 -0.1510
  431poe    c31 3012   3.786  -0.041   1.358  0.0298 -0.1426  0.1046
  432poe    c31 3013   0.399   1.473   6.759 -0.1503  0.1976  0.2313
  432poe     o2 3014   0.291   1.452   6.847 -0.2770  0.6027  0.1775
  432poe    c23 3015   0.353   1.414   6.968  0.5608  0.5925 -0.2536
  432poe    c23 3016   0.238   1.426   7.069  0.2121  0.1884 -0.5986
  432poe     o2 3017   0.148   1.331   7.018  0.2653 -0.2599  0.1275
  432poe    c23 3018   0.022   1.320   7.081  0.1673  0.0516 -0.0115
  432poe    c23 3019  -0.066   1.232   6.990  0.6267 -0.3117 -0.1133
  432poe     o2 3020  -0.040   1.293   6.865  0.7559 -0.5595 -0.2081
  432poe    c23 3021  -0.137   1.246   6.774  0.2662 -0.1687  0.1002
  432poe    c23 3022  -0.107   1.321   6.643 -0.3400 -0.0547  0.0246
  432poe     o2 3023   0.028   1.359   6.661 -0.3165 -0.0774 -0.1035
  432poe    c31 3024   0.065   1.441   6.552 -0.7194  0.0687 -0.1301
  433poe    c31 3025   4.247   3.157   4.099 -0.4502 -0.0142 -0.3905
  433poe     o2 3026   4.145   3.252   4.123  0.1238  0.5291 -0.1016
  433poe    c23 3027   4.132   3.343   4.017 -0.0664 -0.0734 -0.5997
  433poe    c23 3028   4.036   3.450   4.071  0.0738 -0.4610  0.4289
  433poe     o2 3029   3.917   3.394   4.122  0.0135 -0.3401  0.4224
  433poe    c23 3030   3.842   3.507   4.161 -0.0658 -0.0297 -0.6065
  433poe    c23 3031   3.701   3.461   4.203  0.1823 -0.1111  0.1535
  433poe     o2 3032   3.711   3.343   4.279  0.0299  0.0924  0.4904
  433poe    c23 3033   3.591   3.321   4.351  0.0175  0.1839  0.4980
  433poe    c23 3034   3.611   3.232   4.475 -0.1112  0.2274  0.5500
  433poe     o2 3035   3.620   3.099   4.428 -0.0613  0.3407  0.2317
  433poe    c31 3036   3.639   3.008   4.535 -0.1165 -0.0902 -0.1225
  434poe    c31 3037   1.681   4.159   0.373 -0.6566 -0.0232 -0.1230
  434poe     o2 3038   1.569   4.117   0.448 -0.4738  0.1981  0.2780
  434poe    c23 3039   1.579   3.976   0.456 -0.7063  0.1340 -0.5301
  434poe    c23 3040   1.479   3.922   0.559 -0.1882  0.2584  0.0429
  434poe     o2 3041   1.458   4.004   0.671  0.3123  0.0330  0.3045
  434poe    c23 3042   1.404   3.940   0.785  0.0866 -0.3059  0.0073
  434poe    c23 3043   1.406   4.038   0.903 -0.3777 -0.1200 -0.1375
  434poe     o2 3044   1.361   4.162   0.854 -0.0509  0.1791  0.3062
  434poe    c23 3045   1.361   4.258   0.958  0.0895  0.5810 -0.0566
  434poe    c23 3046   1.305   4.389   0.900  0.1684  0.5284 -0.2527
  434poe     o2 3047   1.392   4.438   0.801  0.0690  0.5677 -0.3214
  434poe    c31 3048   1.457   4.550   0.856  0.6825  0.0222  0.0762
  435poe    c31 3049   4.566   1.316   4.677 -0.4279 -1.0842  0.1299
  435poe     o2 3050   4.530   1.336   4.542 -0.4983  0.0157  0.3049
  435poe    c23 3051   4.520   1.474   4.513 -0.2441 -0.1168 -0.4215
  435poe    c23 3052   4.466   1.507   4.372 -0.3087  0.1468 -0.3347
  435poe     o2 3053   4.533   1.419   4.285 -0.5822 -0.2053 -0.1899
  435poe    c23 3054   4.489   1.442   4.153 -0.2065 -0.0356 -0.2852
  435poe    c23 3055   4.594   1.398   4.049  0.0213  0.0571 -0.0953
  435poe     o2 3056   4.633   1.272   4.101 -0.0525  0.1175  0.1076
  435poe    c23 3057   4.755   1.235   4.040 -0.5565  0.0354 -0.8792
  435poe    c23 3058   4.780   1.083   4.054  0.2438  0.2114 -0.3380
  435poe     o2 3059   4.781   1.032   4.185 -0.7047  0.2968 -0.2920
  435poe    c31 3060   4.820   0.897   4.180 -0.5185  0.3615 -0.5718
  436poe    c31 3061   5.076   1.896   1.674 -0.2239 -0.4277 -0.8694
  436poe     o2 3062   4.996   2.010   1.646 -0.3685 -0.2554  0.1922
  436poe    c23 3063   5.086   2.118   1.651 -0.9353  0.2062  0.4795
  436poe    c23 3064   5.034   2.231   1.560 -0.2336  0.2691  0.1450
  436poe     o2 3065   4.902   2.255   1.605 -0.3618 -0.1741  0.0074
  436poe    c23 3066   4.817   2.287   1.497 -0.5031  0.3189  0.2632
  436poe    c23 3067   4.777   2.167   1.409 -0.7507 -0.0219  0.8341
  436poe     o2 3068   4.737   2.072   1.505 -0.2440 -0.4123  0.6664
  436poe    c23 3069   4.701   1.945   1.456 -0.3202 -0.1482  0.0335
  436poe    c23 3070   4.674   1.845   1.570 -1.0777  0.4066  0.3516
  436poe     o2 3071   4.764   1.868   1.676  0.1499 -0.5854 -0.4313
  436poe    c31 3072   4.759   1.765   1.772  0.6412 -0.6208 -0.4439
  437poe    c31 3073   3.821   5.998   4.611  0.5661  0.0018  0.1918
  437poe     o2 3074   3.854   6.069   4.494  0.2581  0.2039  0.2268
  437poe    c23 3075   3.975   6.015   4.447  0.0990 -0.0825  0.1404
  437poe    c23 3076   4.011   6.088   4.316 -0.0159 -0.1362  0.0787
  437poe     o2 3077   4.020   6.228   4.328  0.5011 -0.1846  0.2714
  437poe    c23 3078   4.068   6.276   4.204  0.6434 -0.2768  0.2906
  437poe    c23 3079   4.058   6.429   4.190  0.2263 -0.3364 -0.0634
  437poe     o2 3080   3.922   6.459   4.211  0.0606  0.2474 -1.7898
  437poe    c23 3081   3.888   6.579   4.146 -0.4501  0.8183 -0.5158
  437poe    c23 3082   3.735   6.593   4.151 -0.5835 -0.7115  0.0614
  437poe     o2 3083   3.690   6.538   4.273  0.0632 -0.8854  0.2251
  437poe    c31 3084   3.565   6.583   4.320  0.2520 -0.6107  0.4663
  438poe    c31 3085   1.246   5.553   0.974  0.0251  0.4327  0.1580
  438poe     o2 3086   1.225   5.574   1.112  0.0108 -0.2177  0.2610
  438poe    c23 3087   1.086   5.586   1.134 -0.0948  0.2298 -0.5798
  438poe    c23 3088   1.066   5.611   1.285  0.2433 -0.4941 -0.4100
  438poe     o2 3089   1.154   5.525   1.353  0.1322 -0.4026 -0.1502
  438poe    c23 3090   1.186   5.540   1.490 -0.6186  0.2415 -0.0403
  438poe    c23 3091   1.319   5.464   1.502 -0.5319  0.2833 -0.6692
  438poe     o2 3092   1.404   5.526   1.408  0.2327 -0.0480 -0.2086
  438poe    c23 3093   1.519   5.445   1.408  0.0004 -0.3937  0.6457
  438poe    c23 3094   1.608   5.514   1.303 -0.6465  0.0261  0.3670
  438poe     o2 3095   1.529   5.538   1.189 -0.1140  0.2144  0.0325
  438poe    c31 3096   1.619   5.606   1.104  0.2685  0.0618  0.3137
  439poe    c31 3097   2.787   5.060   0.463  0.4476 -0.4344 -0.0118
  439poe     o2 3098   2.850   5.061   0.337 -0.0284 -0.3432 -0.2492
  439poe    c23 3099   2.963   5.144   0.338  0.2229 -0.6838 -0.0493
  439poe    c23 3100   2.946   5.237   0.216 -0.0688  0.1011  0.5738
  439poe     o2 3101   2.925   5.148   0.108  0.2071  0.2036  0.4365
  439poe    c23 3102   2.913   5.208  -0.019  0.4232 -0.3660  0.1478
  439poe    c23 3103   2.822   5.107  -0.092 -0.1766  0.3857 -0.1599
  439poe     o2 3104   2.732   5.054   0.003  0.0990  0.3050  0.0607
  439poe    c23 3105   2.653   4.946  -0.043 -0.0141  0.4248 -0.0299
  439poe    c23 3106   2.570   4.907   0.080  0.2775 -0.2675 -0.0509
  439poe     o2 3107   2.671   4.879   0.174  0.0660  0.2780  0.3375
  439poe    c31 3108   2.621   4.794   0.275  0.5119 -0.1247  0.2193
  440poe    c31 3109   1.096   4.388   4.164 -0.9640 -0.3672 -0.6595
  440poe     o2 3110   1.214   4.316   4.190 -0.4208  0.6613 -0.2385
  440poe    c23 3111   1.179   4.180   4.207  0.5638  0.3503 -0.6415
  440poe    c23 3112   1.273   4.087   4.286  0.1690  0.0154 -0.5633
  440poe     o2 3113   1.406   4.081   4.238  0.5504 -0.2823  0.4995
  440poe    c23 3114   1.491   3.987   4.299  0.8788 -0.0894  0.3451
  440poe    c23 3115   1.630   3.989   4.234  0.7017  0.3862 -0.0234
  440poe     o2 3116   1.687   4.117   4.244  0.1941  0.6255 -0.1692
  440poe    c23 3117   1.813   4.141   4.185  0.4375 -0.1096  0.0473
  440poe    c23 3118   1.857   4.286   4.209  0.5209 -0.1719  0.2747
  440poe     o2 3119   1.741   4.366   4.204  0.7142  0.1040  0.1637
  440poe    c31 3120   1.767   4.500   4.237 -0.6708  0.2156  0.8838
  441poe    c31 3121   5.778   3.860   2.013 -0.0411 -0.2314  0.0620
  441poe     o2 3122   5.850   3.938   1.921 -0.2580 -0.2000 -0.0811
  441poe    c23 3123   5.987   3.946   1.954 -0.0758 -0.1673 -0.8255
  441poe    c23 3124   6.056   3.980   1.820  1.1791  0.5444 -0.0138
  441poe     o2 3125   5.959   4.064   1.761  0.2726 -0.4098  0.0864
  441poe    c23 3126   5.997   4.200   1.764 -0.0745 -0.2817 -1.0402
  441poe    c23 3127   5.878   4.274   1.699 -0.1236  0.7765  0.2127
  441poe     o2 3128   5.769   4.220   1.769 -0.5433  0.2822 -0.7914
  441poe    c23 3129   5.656   4.298   1.739 -0.4721  0.9318  0.5272
  441poe    c23 3130   5.536   4.223   1.800 -0.3682  0.4968  0.1991
  441poe     o2 3131   5.561   4.085   1.792 -0.6198  0.4908 -0.5498
  441poe    c31 3132   5.461   4.007   1.853 -0.5824  0.5932 -0.3588
  442poe    c31 3133   0.091   6.436   6.654 -0.3444 -0.0652  0.4295
  442poe     o2 3134   0.144   6.333   6.573 -0.0792 -0.0785  0.6182
  442poe    c23 3135   0.125   6.354   6.435  0.6474 -0.0372  0.5177
  442poe    c23 3136   0.084   6.216   6.379  1.0538 -0.0333  0.2064
  442poe     o2 3137   0.179   6.119   6.416  0.2528 -0.6218  0.7610
  442poe    c23 3138   0.148   5.985   6.384  0.3776 -0.3609 -0.5056
  442poe    c23 3139   0.092   5.913   6.508 -0.2536  0.1662 -0.4789
  442poe     o2 3140   0.172   5.954   6.616 -0.3855  0.1949 -0.3911
  442poe    c23 3141   0.097   5.944   6.735  0.5502 -0.4643  0.1580
  442poe    c23 3142   0.177   6.014   6.847  0.8792  0.0024 -0.3614
  442poe     o2 3143   0.188   6.151   6.816 -0.1826  0.1077 -0.3239
  442poe    c31 3144   0.233   6.236   6.919 -0.2578 -0.2100 -0.0305
  443poe    c31 3145   6.487   0.573   2.327 -0.5978  0.5462 -0.3852
  443poe     o2 3146   6.477   0.565   2.468  0.2443 -0.1782 -0.3581
  443poe    c23 3147   6.394   0.669   2.517  0.2729 -0.4449  0.2649
  443poe    c23 3148   6.452   0.707   2.654  0.4997  0.4046 -0.0643
  443poe     o2 3149   6.496   0.583   2.703 -0.2644  0.1499 -0.0024
  443poe    c23 3150   6.632   0.599   2.737 -0.1851  0.0096 -0.2495
  443poe    c23 3151   6.703   0.462   2.745 -0.0801  0.0807  0.0761
  443poe     o2 3152   6.670   0.397   2.624  0.2683 -0.0935  0.0738
  443poe    c23 3153   6.700   0.259   2.624  0.4273 -0.0589 -0.0085
  443poe    c23 3154   6.668   0.195   2.487  0.7474 -0.7994  0.2559
  443poe     o2 3155   6.537   0.241   2.464  0.8965 -0.7872 -0.5834
  443poe    c31 3156   6.477   0.188   2.347  0.7303 -0.0034 -0.8622
  444poe    c31 3157   6.120   0.557   4.129 -1.0008 -1.0833  0.2020
  444poe     o2 3158   6.109   0.541   3.989  0.0996 -0.3742  0.0273
  444poe    c23 3159   5.993   0.608   3.945 -0.4272 -0.7407  0.8239
  444poe    c23 3160   5.969   0.576   3.796  0.0515 -0.2896  0.6452
  444poe     o2 3161   5.944   0.438   3.785  0.2166 -0.3026  0.4281
  444poe    c23 3162   5.889   0.407   3.659 -0.0587 -0.2621  0.5385
  444poe    c23 3163   5.838   0.262   3.664 -0.5180 -0.1438 -0.3211
  444poe     o2 3164   5.948   0.188   3.714 -0.3718  0.0007 -0.4266
  444poe    c23 3165   5.914   0.052   3.732 -0.5063  0.0341 -0.4228
  444poe    c23 3166   6.034  -0.044   3.745  0.0933  0.7805 -0.3663
  444poe     o2 3167   6.107   0.031   3.841 -0.2400  0.5277  0.0870
  444poe    c31 3168   6.234  -0.030   3.839 -0.0510  0.9312 -0.1030
  445poe    c31 3169   0.626   0.204   3.116 -0.4119  1.0904  0.3274
  445poe     o2 3170   0.537   0.136   3.202 -0.4099 -0.0845 -0.5694
  445poe    c23 3171   0.422   0.218   3.198  0.0922  0.6505 -0.0650
  445poe    c23 3172   0.298   0.127   3.200  0.4057  0.2232 -0.0008
  445poe     o2 3173   0.333   0.045   3.309 -0.5370 -0.2682 -0.0591
  445poe    c23 3174   0.241  -0.062   3.315 -0.7385 -0.0824  0.1862
  445poe    c23 3175   0.293  -0.153   3.428 -0.0695 -0.9352 -0.8021
  445poe     o2 3176   0.433  -0.153   3.409  0.0499 -0.0198  0.0281
  445poe    c23 3177   0.503  -0.210   3.518 -0.1716 -0.6186 -0.1358
  445poe    c23 3178   0.651  -0.167   3.514 -0.3783  0.1458  0.1499
  445poe     o2 3179   0.649  -0.040   3.452  0.3545 -0.0716 -0.3308
  445poe    c31 3180   0.777   0.018   3.445  0.0921  0.6156  0.4506
  446poe    c31 3181   0.612   4.437   0.372  0.0977 -0.3691  0.9445
  446poe     o2 3182   0.520   4.543   0.385  0.2313 -0.1201 -0.0569
  446poe    c23 3183   0.431   4.510   0.489  0.0826 -0.0621 -0.1641
  446poe    c23 3184   0.290   4.516   0.428 -0.1266 -0.3077  0.2924
  446poe     o2 3185   0.288   4.615   0.328  0.4719 -0.2570  0.3260
  446poe    c23 3186   0.164   4.669   0.287  0.3895 -0.0503  0.8433
  446poe    c23 3187   0.203   4.816   0.262 -0.0909 -0.0556  0.0308
  446poe     o2 3188   0.331   4.860   0.301 -0.2848  0.4573  0.0954
  446poe    c23 3189   0.345   4.898   0.436 -0.2661  0.4024  0.1089
  446poe    c23 3190   0.490   4.943   0.463 -0.2927  0.6932 -0.2263
  446poe     o2 3191   0.566   4.836   0.411  0.2115  0.9236  0.0314
  446poe    c31 3192   0.700   4.842   0.454  0.2461  0.1879  0.0467
  447poe    c31 3193   3.291   3.804   3.293 -0.1705 -0.4877 -0.1037
  447poe     o2 3194   3.413   3.779   3.227  0.2067  0.6748  0.1472
  447poe    c23 3195   3.401   3.848   3.105 -0.3078  0.1152 -0.1215
  447poe    c23 3196   3.526   3.817   3.022  0.2214  0.1179  0.6632
  447poe     o2 3197   3.633   3.844   3.110  0.2216 -0.0522  0.7138
  447poe    c23 3198   3.761   3.828   3.051 -0.0642 -0.0985  0.1004
  447poe    c23 3199   3.868   3.881   3.147 -0.2613  0.2180  0.1481
  447poe     o2 3200   3.861   3.804   3.265  0.1936  0.2338  0.1900
  447poe    c23 3201   3.883   3.883   3.379  0.6256  0.3056  0.0579
  447poe    c23 3202   3.794   3.826   3.491 -0.0438  0.0979 -0.5691
  447poe     o2 3203   3.659   3.825   3.450 -0.1917 -0.9737 -0.0932
  447poe    c31 3204   3.579   3.836   3.566 -0.2010 -0.2429 -0.1674
  448poe    c31 3205   2.341   2.241   5.838  0.2050 -0.3546  0.4611
  448poe     o2 3206   2.418   2.359   5.852 -0.5119  0.1765 -0.0258
  448poe    c23 3207   2.440   2.390   5.987 -0.5428 -0.7317  0.1946
  448poe    c23 3208   2.570   2.470   6.007 -0.6056 -0.4720 -0.4365
  448poe     o2 3209   2.578   2.556   5.895 -0.1224 -0.0679 -0.0972
  448poe    c23 3210   2.702   2.624   5.895 -0.2079  0.0870 -0.1369
  448poe    c23 3211   2.707   2.736   5.790 -0.7756  0.4935  0.2602
  448poe     o2 3212   2.675   2.674   5.667  0.0051 -0.2261  0.4106
  448poe    c23 3213   2.670   2.769   5.563  0.5113  0.1309  0.7090
  448poe    c23 3214   2.652   2.719   5.419 -0.1251 -0.7200  1.0773
  448poe     o2 3215   2.728   2.601   5.407  0.3145 -0.3451  0.0890
  448poe    c31 3216   2.850   2.621   5.339  0.1845  0.2726  0.0298
  449poe    c31 3217   4.165   0.348   5.045 -0.0898 -0.7946 -0.1707
  449poe     o2 3218   4.257   0.454   5.030 -0.6581 -0.3013 -0.2634
  449poe    c23 3219   4.386   0.403   5.057 -0.6362 -0.2610 -0.2924
  449poe    c23 3220   4.480   0.465   4.952 -0.0077 -0.3441  0.2124
  449poe     o2 3221   4.460   0.604   4.963  0.3319 -0.2670 -0.1315
  449poe    c23 3222   4.507   0.676   4.851  0.0474  0.4355  0.1974
  449poe    c23 3223   4.450   0.815   4.883 -0.0230  0.4169  0.1533
  449poe     o2 3224   4.324   0.820   4.947 -0.2675 -0.0022 -0.2843
  449poe    c23 3225   4.337   0.902   5.062  1.0901 -0.1475 -0.3199
  449poe    c23 3226   4.247   0.840   5.170  0.3598 -0.0998 -0.8976
  449poe     o2 3227   4.242   0.699   5.178 -0.8432  0.0016  0.5884
  449poe    c31 3228   4.208   0.656   5.308 -0.3390 -0.2340  0.6453
  450poe    c31 3229   5.928   5.080   1.178  0.8263  0.5403 -0.6869
  450poe     o2 3230   5.935   5.214   1.223 -0.2387  0.2085  0.5383
  450poe    c23 3231   5.874   5.284   1.117 -0.2465  0.3658  0.6467
  450poe    c23 3232   5.877   5.434   1.153 -1.2736  0.4438  0.4388
  450poe     o2 3233   5.845   5.435   1.291 -0.7237  0.0471  0.5765
  450poe    c23 3234   5.837   5.560   1.355 -0.4756  0.2123  0.2904
  450poe    c23 3235   5.809   5.540   1.506 -0.3308  0.6189  0.3729
  450poe     o2 3236   5.884   5.431   1.555 -0.3455  0.2529 -0.3959
  450poe    c23 3237   6.010   5.469   1.605 -0.1839 -0.4105 -0.2936
  450poe    c23 3238   6.112   5.363   1.558 -0.0050 -0.2519 -0.2612
  450poe     o2 3239   6.095   5.343   1.420 -0.1326  0.6192 -0.3762
  450poe    c31 3240   6.211   5.295   1.357 -0.3201 -0.3961  0.0341
  451poe    c31 3241   3.479   4.498   5.309  0.3853 -0.8356  0.2555
  451poe     o2 3242   3.590   4.557   5.247 -0.0938 -0.4479 -0.2489
  451poe    c23 3243   3.548   4.675   5.182 -0.0260 -0.0680  0.3766
  451poe    c23 3244   3.672   4.723   5.103 -0.1440 -0.0935  0.1748
  451poe     o2 3245   3.780   4.771   5.180  0.0784  0.2156 -0.3244
  451poe    c23 3246   3.858   4.858   5.102  0.2527  0.3409 -0.0156
  451poe    c23 3247   3.930   4.952   5.201  0.9519  0.0497 -0.2411
  451poe     o2 3248   3.973   4.880   5.314  0.4116 -0.1396 -0.1508
  451poe    c23 3249   4.012   4.981   5.405 -0.2890 -0.2400  0.2689
  451poe    c23 3250   4.123   4.916   5.489  0.2644  0.0719 -0.2137
  451poe     o2 3251   4.062   4.801   5.545 -0.1829  0.4477  0.0771
  451poe    c31 3252   4.136   4.749   5.653  0.4571  0.4131 -0.3704
  452poe    c31 3253   1.324   2.357   4.702  0.1119 -0.2394 -0.9358
  452poe     o2 3254   1.305   2.480   4.635 -0.4070  0.1255 -0.1272
  452poe    c23 3255   1.389   2.477   4.522  0.6714 -0.0551  0.6503
  452poe    c23 3256   1.351   2.607   4.448 -0.5892 -0.7139  0.0903
  452poe     o2 3257   1.353   2.697   4.557 -0.5341 -0.2090 -0.3223
  452poe    c23 3258   1.360   2.835   4.529  0.1888 -0.1906 -0.0683
  452poe    c23 3259   1.326   2.922   4.651  0.2687  0.0688 -0.2296
  452poe     o2 3260   1.188   2.915   4.681  0.1757  0.6186 -0.5221
  452poe    c23 3261   1.160   3.007   4.784  0.3244  0.4622 -0.3407
  452poe    c23 3262   1.025   2.972   4.850  0.2853 -0.0010 -0.6587
  452poe     o2 3263   1.034   2.843   4.906  0.0861  0.3851  0.2912
  452poe    c31 3264   0.908   2.790   4.941 -0.1982  0.0823 -1.1365
  453poe    c31 3265   2.642   5.170   6.425  0.7515 -0.4555  0.6302
  453poe     o2 3266   2.665   5.303   6.387  0.1407 -0.4624  0.2226
  453poe    c23 3267   2.553   5.389   6.372  0.4272 -0.1728 -0.3036
  453poe    c23 3268   2.615   5.528   6.353 -0.4782  0.2268 -0.3688
  453poe     o2 3269   2.716   5.536   6.254  0.0233  0.6034  0.1640
  453poe    c23 3270   2.653   5.551   6.129 -0.0243  0.2295  0.1427
  453poe    c23 3271   2.772   5.544   6.032 -0.0204 -0.2974  0.1845
  453poe     o2 3272   2.879   5.473   6.091  0.2258 -0.0899 -0.0085
  453poe    c23 3273   2.964   5.403   6.003  0.0232  0.2555 -0.4829
  453poe    c23 3274   2.907   5.269   5.954 -0.0681  0.1480 -0.0870
  453poe     o2 3275   2.937   5.161   6.039  0.2604  0.3460  0.0472
  453poe    c31 3276   2.817   5.101   6.081 -0.2722  0.8511 -0.7318
  454poe    c31 3277   3.166   1.028   2.903  0.5452  0.0869 -0.1295
  454poe     o2 3278   3.129   0.893   2.923  0.7545  0.1653  0.8216
  454poe    c23 3279   3.007   0.870   2.989  0.3926 -0.1093  0.0651
  454poe    c23 3280   2.974   0.721   2.969 -0.6827  0.0527  0.5437
  454poe     o2 3281   3.082   0.647   3.020 -0.2908  0.0578 -0.2667
  454poe    c23 3282   3.084   0.507   3.000 -0.1981  0.0379 -0.1233
  454poe    c23 3283   3.212   0.451   3.064 -0.4990  0.5865  0.9806
  454poe     o2 3284   3.322   0.518   3.005 -0.4062 -0.1361  0.3235
  454poe    c23 3285   3.432   0.431   2.994 -0.1988  0.1409  0.2139
  454poe    c23 3286   3.551   0.509   2.935  0.1782 -0.4613  0.1733
  454poe     o2 3287   3.514   0.575   2.816  0.4803 -0.4577  0.0795
  454poe    c31 3288   3.628   0.634   2.758 -0.1110  0.3966 -0.2294
  455poe    c31 3289   5.062   5.437   0.064 -0.0869 -0.1225  0.0970
  455poe     o2 3290   5.165   5.400  -0.025 -0.0547  0.1187  0.0313
  455poe    c23 3291   5.152   5.262  -0.051  0.1520  0.0649  0.2131
  455poe    c23 3292   5.278   5.214  -0.127 -0.7962 -0.5619 -1.0025
  455poe     o2 3293   5.286   5.319  -0.221 -1.1484 -0.2777 -0.7185
  455poe    c23 3294   5.370   5.295  -0.332 -0.5319  0.3570 -0.3965
  455poe    c23 3295   5.389   5.423  -0.415  0.2552  0.4369 -0.1009
  455poe     o2 3296   5.415   5.520  -0.316  0.3385 -0.0793  0.3888
  455poe    c23 3297   5.541   5.521  -0.254  0.6075 -0.1037 -0.1491
  455poe    c23 3298   5.518   5.616  -0.135  0.1025 -0.5694  0.1280
  455poe     o2 3299   5.399   5.583  -0.066  0.1972 -0.4826  0.3351
  455poe    c31 3300   5.388   5.656   0.054  1.3216  0.3139 -0.0218
  456poe    c31 3301   2.364   1.270   1.844  0.5834 -0.1257 -0.4536
  456poe     o2 3302   2.337   1.136   1.811  0.0441 -0.1074 -0.0993
  456poe    c23 3303   2.378   1.058   1.921 -0.9965 -0.7465 -0.1504
  456poe    c23 3304   2.346   0.910   1.891  0.1595 -0.9731 -0.2903
  456poe     o2 3305   2.206   0.919   1.881  0.1769  0.3552  0.4180
  456poe    c23 3306   2.136   0.797   1.898  0.3196  0.0029 -1.3859
  456poe    c23 3307   1.985   0.827   1.894  0.4655  1.1897  0.6790
  456poe     o2 3308   1.975   0.867   1.759 -0.2806 -0.4845  0.2107
  456poe    c23 3309   1.864   0.953   1.742 -0.3159 -0.5787 -0.0346
  456poe    c23 3310   1.884   1.048   1.623  0.0445 -0.9179 -0.2497
  456poe     o2 3311   2.018   1.094   1.627 -0.3610  0.2572  0.3254
  456poe    c31 3312   2.039   1.206   1.545  0.6436 -0.3303 -0.2331
  457poe    c31 3313   3.818   2.838   6.759 -0.0176 -0.3872 -0.4202
  457poe     o2 3314   3.927   2.748   6.760  0.2698 -0.0351  0.1984
  457poe    c23 3315   3.896   2.617   6.802  0.7832 -0.0065  0.6830
  457poe    c23 3316   4.028   2.542   6.782  0.4666 -0.0975 -1.2273
  457poe     o2 3317   4.141   2.603   6.840 -0.3878 -0.4206  0.8649
  457poe    c23 3318   4.224   2.489   6.846 -0.1759 -0.3163  0.0574
  457poe    c23 3319   4.347   2.516   6.935 -0.1505  0.6264 -0.2529
  457poe     o2 3320   4.296   2.545   7.063  0.1663 -0.0434  0.0330
  457poe    c23 3321   4.405   2.561   7.150 -0.2362 -1.3093  0.7878
  457poe    c23 3322   4.338   2.605   7.282 -0.0467  0.1705  0.4066
  457poe     o2 3323   4.246   2.703   7.238  0.4271  0.1944 -0.5721
  457poe    c31 3324   4.192   2.763   7.354  0.1787  0.6869 -0.9417
  458poe    c31 3325   3.867   3.994   2.289 -0.2965 -0.8258 -0.6731
  458poe     o2 3326   3.911   3.860   2.294  0.4311 -0.5591  0.4723
  458poe    c23 3327   3.913   3.790   2.171  0.2679 -0.1096  0.2115
  458poe    c23 3328   3.946   3.642   2.198  0.1102 -0.2173 -0.1864
  458poe     o2 3329   4.056   3.647   2.286 -0.0859 -0.0766  0.0505
  458poe    c23 3330   4.089   3.519   2.335  0.0367  0.0131  0.2047
  458poe    c23 3331   4.191   3.524   2.450  0.9055  0.2044 -0.5609
  458poe     o2 3332   4.139   3.623   2.536  0.3010 -0.6487  0.0792
  458poe    c23 3333   4.240   3.718   2.562  0.0499 -0.0989 -0.8714
  458poe    c23 3334   4.166   3.831   2.636  0.6124 -0.3571  0.1110
  458poe     o2 3335   4.061   3.881   2.556  0.7682 -0.0191  0.1132
  458poe    c31 3336   4.001   3.980   2.637  0.4448 -0.2568  0.1655
  459poe    c31 3337   6.011   4.110   3.676  0.1115 -0.5048  0.1039
  459poe     o2 3338   5.887   4.099   3.741  0.1660 -0.1506  0.2666
  459poe    c23 3339   5.902   4.008   3.848  0.5220  0.0722  0.4087
  459poe    c23 3340   5.765   3.982   3.913  0.4995  0.0153  0.3399
  459poe     o2 3341   5.695   4.104   3.922 -0.0603 -0.2505 -0.3332
  459poe    c23 3342   5.564   4.084   3.969 -0.1338 -0.2915 -0.5552
  459poe    c23 3343   5.500   4.212   3.911  0.2563 -0.0851 -0.5308
  459poe     o2 3344   5.525   4.220   3.772  0.2969 -0.2866 -0.5361
  459poe    c23 3345   5.469   4.328   3.700 -0.1173  0.2636  0.5834
  459poe    c23 3346   5.536   4.308   3.563 -0.6001 -1.1761  0.5460
  459poe     o2 3347   5.675   4.283   3.576 -0.2145  0.6531  0.1126
  459poe    c31 3348   5.705   4.263   3.440  0.5008  0.5585  0.2807
  460poe    c31 3349   6.066   3.131   0.565  0.4386 -1.0656  0.3278
  460poe     o2 3350   6.171   3.186   0.487 -0.3158 -0.0188  0.0256
  460poe    c23 3351   6.272   3.220   0.580 -0.4601  0.4161  0.0280
  460poe    c23 3352   6.365   3.311   0.498 -0.3923  0.2381 -0.0926
  460poe     o2 3353   6.369   3.264   0.365  0.2177 -0.3384  0.1229
  460poe    c23 3354   6.407   3.369   0.279 -0.8031  0.7985  1.0323
  460poe    c23 3355   6.346   3.317   0.147  0.1669  0.9219  0.5280
  460poe     o2 3356   6.218   3.265   0.174  0.4352 -0.3849 -0.5956
  460poe    c23 3357   6.139   3.236   0.061  0.0034 -0.0044 -0.3977
  460poe    c23 3358   6.024   3.156   0.125  0.1510  0.1750  0.0935
  460poe     o2 3359   6.090   3.079   0.224 -0.0149  0.2059  0.2291
  460poe    c31 3360   6.010   2.970   0.263 -1.3682  0.9060 -0.5162
  461poe    c31 3361   1.526   1.070   6.380  0.4816 -0.1476  0.2962
  461poe     o2 3362   1.443   1.050   6.268  0.1575  0.1389  0.4826
  461poe    c23 3363   1.444   0.913   6.235  0.1806  0.3643 -0.4862
  461poe    c23 3364   1.348   0.901   6.115 -0.0275  0.1012 -0.2961
  461poe     o2 3365   1.367   1.010   6.028  0.0575  0.1385 -0.2309
  461poe    c23 3366   1.282   1.014   5.916 -0.1842  0.4315 -0.0398
  461poe    c23 3367   1.308   1.138   5.829  0.5019  0.4335  0.1669
  461poe     o2 3368   1.315   1.220   5.944  0.1323 -0.3663  0.7687
  461poe    c23 3369   1.372   1.346   5.915 -0.1661 -0.3041  0.4560
  461poe    c23 3370   1.372   1.418   6.050  0.3567  0.2533  0.1609
  461poe     o2 3371   1.431   1.342   6.154  0.4358 -0.1276 -0.1600
  461poe    c31 3372   1.430   1.414   6.275 -0.7996 -0.1887 -0.1212
  462poe    c31 3373   4.590   4.857   0.489  0.2950  0.2882 -0.1552
  462poe     o2 3374   4.534   4.834   0.361  0.4470  0.0722 -0.1829
  462poe    c23 3375   4.405   4.890   0.363  0.3483 -0.1745  0.3162
  462poe    c23 3376   4.349   4.902   0.220  0.5656  0.2073  0.2623
  462poe     o2 3377   4.382   4.775   0.167 -0.0944  0.1087  0.0804
  462poe    c23 3378   4.264   4.707   0.131 -0.3703  0.3837  0.4675
  462poe    c23 3379   4.316   4.577   0.067  0.1478  0.9376 -0.2529
  462poe     o2 3380   4.446   4.563   0.121 -0.0758 -0.4585 -0.0426
  462poe    c23 3381   4.509   4.437   0.124  0.0589 -0.3853  0.2346
  462poe    c23 3382   4.659   4.471   0.140  0.0013 -0.2168  0.4301
  462poe     o2 3383   4.683   4.570   0.237 -0.0548  0.2632 -0.0434
  462poe    c31 3384   4.759   4.527   0.348  0.3837 -0.2624 -0.5398
  463poe    c31 3385   1.446   5.307   3.539  0.4996 -0.0331  0.0685
  463poe     o2 3386   1.420   5.220   3.647 -0.0040  0.0688  0.0329
  463poe    c23 3387   1.282   5.194   3.653 -0.0307  0.1283 -0.3241
  463poe    c23 3388   1.255   5.063   3.729 -0.1848  0.2908 -0.1003
  463poe     o2 3389   1.314   5.091   3.854 -0.2889  0.5095 -0.0994
  463poe    c23 3390   1.358   4.975   3.921  0.1182  0.5076 -0.3699
  463poe    c23 3391   1.478   5.027   4.004  0.2595 -0.1748 -0.1359
  463poe     o2 3392   1.559   5.091   3.908  0.2267 -0.4553 -0.3511
  463poe    c23 3393   1.683   5.128   3.964  0.6533 -0.5764 -1.2029
  463poe    c23 3394   1.755   5.199   3.847  0.3527  0.9607 -0.4795
  463poe     o2 3395   1.671   5.301   3.800 -0.5858  0.3719 -0.1106
  463poe    c31 3396   1.760   5.388   3.733  0.1126 -0.3593 -0.1483
  464poe    c31 3397   3.006   3.320   3.601 -0.8672  0.5881  0.1093
  464poe     o2 3398   3.068   3.441   3.639  0.1279  0.0652  0.1643
  464poe    c23 3399   2.987   3.555   3.623 -0.0238 -0.1029 -0.2944
  464poe    c23 3400   3.033   3.689   3.684  0.4271 -0.4507  0.1345
  464poe     o2 3401   3.155   3.734   3.629  0.0235  0.5297  0.0366
  464poe    c23 3402   3.233   3.803   3.725  0.4717  0.2109 -0.0989
  464poe    c23 3403   3.291   3.718   3.840 -0.0569 -0.1111 -0.0681
  464poe     o2 3404   3.306   3.588   3.787  0.0963 -0.1972  0.1863
  464poe    c23 3405   3.358   3.505   3.888  0.3022  0.2792  0.4726
  464poe    c23 3406   3.406   3.371   3.828 -0.3129  0.2849 -0.0355
  464poe     o2 3407   3.294   3.320   3.759  0.0057 -0.5330  0.0438
  464poe    c31 3408   3.290   3.179   3.750  0.5022 -0.5289 -0.2375
  465poe    c31 3409   0.266   5.340   4.073 -0.4163 -0.1259 -0.5599
  465poe     o2 3410   0.282   5.481   4.073 -0.3798 -0.1280 -0.0404
  465poe    c23 3411   0.200   5.533   3.970 -0.2083 -0.1485 -0.1873
  465poe    c23 3412   0.191   5.685   3.987 -0.6079 -0.2268  0.3330
  465poe     o2 3413   0.263   5.722   4.102  0.4252  0.1009 -0.4039
  465poe    c23 3414   0.338   5.841   4.097 -0.0363  0.3748 -0.8630
  465poe    c23 3415   0.424   5.817   4.223 -0.2979 -0.3293 -0.8134
  465poe     o2 3416   0.475   5.686   4.225  0.0546 -0.1882 -0.5424
  465poe    c23 3417   0.568   5.658   4.328  0.1956  0.0595 -0.6035
  465poe    c23 3418   0.639   5.534   4.273  0.2602 -0.1550 -0.0395
  465poe     o2 3419   0.545   5.438   4.229  0.2340  0.0361 -0.4105
  465poe    c31 3420   0.628   5.339   4.173  0.0240 -0.0972 -0.4871
  466poe    c31 3421   1.843   6.386   4.646 -0.1000  0.5129 -0.4794
  466poe     o2 3422   1.914   6.359   4.527  0.2326  0.4038 -0.2578
  466poe    c23 3423   2.037   6.289   4.522 -0.3692 -0.6960  0.0507
  466poe    c23 3424   2.059   6.206   4.394 -0.1520 -0.4367 -0.0817
  466poe     o2 3425   1.972   6.096   4.407  0.1789 -0.7308 -0.3511
  466poe    c23 3426   2.039   5.979   4.449  0.2045 -0.3792  0.5976
  466poe    c23 3427   1.944   5.860   4.426  0.0190 -0.1220  0.0262
  466poe     o2 3428   1.886   5.865   4.297  0.1880 -0.5036 -0.0642
  466poe    c23 3429   1.903   5.753   4.213  0.1253 -0.3546 -0.2730
  466poe    c23 3430   1.788   5.749   4.110  0.4299 -0.1982 -0.6234
  466poe     o2 3431   1.796   5.872   4.043 -0.0467  0.0251 -0.2748
  466poe    c31 3432   1.676   5.900   3.973 -0.1101 -0.0502 -0.1958
  467poe    c31 3433   6.093   2.588   4.058 -0.2594  0.5843 -0.6025
  467poe     o2 3434   5.956   2.570   4.084  0.0303 -0.6872  0.1461
  467poe    c23 3435   5.875   2.658   4.010  0.6237 -0.0894  0.1960
  467poe    c23 3436   5.738   2.665   4.080  0.4273 -0.2914 -0.1632
  467poe     o2 3437   5.673   2.550   4.129 -0.1031  0.1183  0.1078
  467poe    c23 3438   5.569   2.580   4.219 -0.3885 -0.2488 -0.0972
  467poe    c23 3439   5.534   2.466   4.316 -0.0894  0.3144  0.6864
  467poe     o2 3440   5.651   2.411   4.373  0.1449 -0.0394 -0.1128
  467poe    c23 3441   5.636   2.398   4.513  0.0637  0.3209 -0.0867
  467poe    c23 3442   5.770   2.349   4.569 -0.2113 -0.3939 -0.0384
  467poe     o2 3443   5.822   2.233   4.507  0.1245  0.1970 -0.8775
  467poe    c31 3444   5.932   2.178   4.576 -0.3995  0.1549 -0.0566
  468poe    c31 3445   5.686   3.273   6.762  0.6638  0.7695 -0.2973
  468poe     o2 3446   5.575   3.207   6.818  0.8279  0.4836 -0.3031
  468poe    c23 3447   5.487   3.173   6.713 -0.0178  0.3881  0.4214
  468poe    c23 3448   5.353   3.203   6.781 -0.0351  0.7921  0.2138
  468poe     o2 3449   5.357   3.137   6.906  0.0814 -0.0672 -0.2367
  468poe    c23 3450   5.221   3.144   6.945  0.1028 -0.1719 -0.1438
  468poe    c23 3451   5.213   3.083   7.086  0.1096 -0.1843 -0.1488
  468poe     o2 3452   5.322   3.131   7.161  0.4329 -1.0084 -0.0790
  468poe    c23 3453   5.324   3.057   7.281  0.4217 -0.1740  0.4441
  468poe    c23 3454   5.443   3.084   7.375  0.4185  0.0801  0.3767
  468poe     o2 3455   5.554   3.058   7.292 -0.0656 -0.7437 -0.0297
  468poe    c31 3456   5.674   3.108   7.347 -0.0802 -0.4197 -0.2896
  469poe    c31 3457   2.607   3.858   3.013 -0.6084 -0.2474 -0.1206
  469poe     o2 3458   2.658   3.984   2.977  0.0114 -0.5701 -0.3747
  469poe    c23 3459   2.579   4.049   2.881  0.2699 -1.0044 -0.8868
  469poe    c23 3460   2.652   4.180   2.843 -0.6165 -0.2061  0.1165
  469poe     o2 3461   2.789   4.156   2.869 -0.4317 -0.0372 -0.6823
  469poe    c23 3462   2.879   4.264   2.857 -0.0114 -0.2775  0.2235
  469poe    c23 3463   2.995   4.248   2.957  0.4202  0.7709 -0.0996
  469poe     o2 3464   2.950   4.169   3.065  0.5531 -0.1569 -0.7061
  469poe    c23 3465   3.037   4.165   3.176  0.6275 -0.0619 -0.7604
  469poe    c23 3466   2.969   4.076   3.282  0.2111  0.0498 -0.9332
  469poe     o2 3467   2.934   3.945   3.242  0.3993 -0.0537 -0.7584
  469poe    c31 3468   2.848   3.879   3.331  0.3945  0.2004 -0.5737
  470poe    c31 3469   6.710   3.062   2.482  0.0137 -0.4560 -0.2087
  470poe     o2 3470   6.729   3.032   2.619 -0.0366  0.2864 -0.0330
  470poe    c23 3471   6.679   2.901   2.635  0.1551  0.2471  0.2460
  470poe    c23 3472   6.693   2.842   2.777 -0.3805 -0.9405 -0.1823
  470poe     o2 3473   6.826   2.859   2.821 -0.6166 -0.4712  0.3631
  470poe    c23 3474   6.834   2.782   2.939  0.2054 -0.6312  0.2107
  470poe    c23 3475   6.976   2.771   2.998  0.4533  0.1326 -0.2189
  470poe     o2 3476   7.071   2.700   2.922  0.2500  0.2177 -0.5533
  470poe    c23 3477   7.190   2.686   2.995 -0.0201  0.0427 -0.1418
  470poe    c23 3478   7.274   2.598   2.901 -0.7540 -0.4414 -0.3476
  470poe     o2 3479   7.268   2.652   2.771 -0.0275  0.4400 -0.0213
  470poe    c31 3480   7.344   2.569   2.687 -0.1458  0.1658  0.1408
  471poe    c31 3481   0.000   5.754   4.939  0.3269 -0.3625  0.3363
  471poe     o2 3482  -0.018   5.889   4.904 -0.0490 -0.3599  0.5352
  471poe    c23 3483  -0.088   5.956   5.007 -1.0848 -0.1801 -0.2737
  471poe    c23 3484  -0.164   6.075   4.945 -0.2459  0.3959 -0.2087
  471poe     o2 3485  -0.065   6.137   4.867  0.0683 -0.2812 -0.3548
  471poe    c23 3486  -0.097   6.243   4.780  0.1764  0.2193  0.2055
  471poe    c23 3487   0.019   6.238   4.679 -0.1838  0.2388 -0.2167
  471poe     o2 3488   0.027   6.105   4.632 -0.0637  0.1949 -0.0735
  471poe    c23 3489  -0.013   6.085   4.498  0.3748 -0.5583 -0.0988
  471poe    c23 3490  -0.089   5.951   4.506  0.4347 -0.5693  0.2934
  471poe     o2 3491  -0.151   5.931   4.631  0.1617  0.7588  0.3842
  471poe    c31 3492  -0.243   5.824   4.632  1.0942 -0.0583  0.5988
  472poe    c31 3493   0.346   6.432   4.443 -0.1682 -0.5339  0.2064
  472poe     o2 3494   0.263   6.355   4.360 -0.5507 -0.1351  0.2117
  472poe    c23 3495   0.345   6.306   4.256 -0.5818  0.3239 -0.0328
  472poe    c23 3496   0.264   6.244   4.140 -0.1885  0.3766 -0.3391
  472poe     o2 3497   0.191   6.326   4.053 -0.1057  0.5769 -0.2212
  472poe    c23 3498   0.096   6.251   3.979 -0.1257  0.1624  0.2226
  472poe    c23 3499   0.111   6.316   3.841 -0.8312 -0.2266 -0.0414
  472poe     o2 3500   0.085   6.454   3.859 -0.2475 -0.0201 -0.7043
  472poe    c23 3501   0.044   6.511   3.736 -0.1245  0.2430 -0.6233
  472poe    c23 3502   0.010   6.661   3.740  0.5850  0.3948  0.1299
  472poe     o2 3503   0.128   6.730   3.774  0.7698  0.0974  0.0966
  472poe    c31 3504   0.091   6.866   3.775  0.5637  0.0441 -0.1386
  473poe    c31 3505   4.197   6.095   0.988  0.0047  0.1600 -0.2260
  473poe     o2 3506   4.308   6.053   1.064 -0.3988  0.0641  0.3147
  473poe    c23 3507   4.327   5.915   1.040  0.1930  0.2430 -0.2669
  473poe    c23 3508   4.413   5.844   1.146  0.1738  0.6460  0.0213
  473poe     o2 3509   4.524   5.931   1.144  0.6934 -0.0024  0.2916
  473poe    c23 3510   4.612   5.892   1.247  0.4104 -0.3788  0.3965
  473poe    c23 3511   4.720   5.998   1.279 -0.4028  0.5593  0.0959
  473poe     o2 3512   4.647   6.116   1.256 -0.6448  0.3277 -0.3643
  473poe    c23 3513   4.723   6.226   1.210  0.1817 -0.3882 -0.7389
  473poe    c23 3514   4.623   6.316   1.136 -0.3194  0.1712  0.5821
  473poe     o2 3515   4.533   6.246   1.053 -0.5647  0.6809  0.4138
  473poe    c31 3516   4.517   6.320   0.934 -0.4322 -0.2345 -0.1869
  474poe    c31 3517   0.895   3.446   1.989 -0.2991  0.5138 -0.1224
  474poe     o2 3518   0.880   3.577   2.038 -0.8025  0.3821  0.0835
  474poe    c23 3519   0.868   3.554   2.177 -0.1685 -0.1534  0.0563
  474poe    c23 3520   0.763   3.654   2.230  0.1672  0.0044  0.4288
  474poe     o2 3521   0.803   3.774   2.168  0.4216 -0.2773  0.0410
  474poe    c23 3522   0.718   3.884   2.191 -0.0156 -0.5091 -0.4257
  474poe    c23 3523   0.751   4.002   2.098 -0.3667 -0.2208 -0.1865
  474poe     o2 3524   0.789   3.954   1.971 -0.4719 -0.0655 -0.2784
  474poe    c23 3525   0.704   3.959   1.858 -0.5691  0.6088 -0.1770
  474poe    c23 3526   0.793   3.906   1.745 -0.1147  0.8956  0.0397
  474poe     o2 3527   0.858   3.793   1.800 -0.0798  0.8929 -0.0069
  474poe    c31 3528   0.958   3.741   1.715 -0.2851  0.2836  0.1178
  475poe    c31 3529   4.432   6.220   6.713  0.6284 -0.4089 -0.2291
  475poe     o2 3530   4.510   6.198   6.828  0.2612 -0.2763  0.0460
  475poe    c23 3531   4.581   6.077   6.811  0.3413 -0.1919 -0.2238
  475poe    c23 3532   4.644   6.032   6.944  0.6848 -0.1654 -0.3769
  475poe     o2 3533   4.700   6.155   6.985 -0.4623  0.3106 -0.1973
  475poe    c23 3534   4.788   6.141   7.095 -0.1144  0.3731 -0.4671
  475poe    c23 3535   4.849   6.277   7.135 -0.0305  0.2074 -0.0308
  475poe     o2 3536   4.762   6.388   7.125  0.0328  0.2071 -0.5903
  475poe    c23 3537   4.792   6.497   7.209  0.3736 -0.4713  0.1804
  475poe    c23 3538   4.694   6.612   7.181  0.3631 -0.3507  0.7034
  475poe     o2 3539   4.561   6.575   7.212  0.1172 -0.1279 -0.0626
  475poe    c31 3540   4.523   6.618   7.341 -0.6217 -0.0788 -0.2920
  476poe    c31 3541   6.768   6.636   1.994  0.4253  0.0268 -0.0763
  476poe     o2 3542   6.648   6.709   1.983  0.2777 -0.2482 -0.2764
  476poe    c23 3543   6.542   6.624   2.023  0.0083  0.2303  0.0339
  476poe    c23 3544   6.435   6.725   2.068 -0.1858 -0.1003  0.3147
  476poe     o2 3545   6.434   6.829   1.974  0.2380 -0.0776  0.3351
  476poe    c23 3546   6.375   6.945   2.028 -0.9967 -0.6010  0.1354
  476poe    c23 3547   6.365   7.058   1.924  0.0001 -0.4585  0.1890
  476poe     o2 3548   6.494   7.093   1.878 -0.3481  0.3074 -0.2280
  476poe    c23 3549   6.497   7.211   1.801  0.0129  0.5956  0.2268
  476poe    c23 3550   6.534   7.180   1.655 -0.7069 -0.2636  0.2164
  476poe     o2 3551   6.527   7.296   1.575  0.8827 -0.5201 -0.3402
  476poe    c31 3552   6.415   7.295   1.489  0.8310  0.1414 -0.2843
  477poe    c31 3553   1.319   5.888   3.831  0.8159  0.1739 -0.0790
  477poe     o2 3554   1.196   5.907   3.899  0.3839  0.3720 -0.9035
  477poe    c23 3555   1.194   5.836   4.020  0.0447  0.3129 -0.9436
  477poe    c23 3556   1.069   5.875   4.101  0.1118 -0.6563 -0.3574
  477poe     o2 3557   0.957   5.839   4.023  0.1570  0.1934 -0.8209
  477poe    c23 3558   0.848   5.868   4.108  0.4209  0.1429 -0.4620
  477poe    c23 3559   0.717   5.852   4.030  0.1385  0.4030 -0.0474
  477poe     o2 3560   0.750   5.745   3.944 -0.1755 -0.1011  0.4549
  477poe    c23 3561   0.635   5.696   3.879  0.1250 -0.3237  0.0874
  477poe    c23 3562   0.674   5.555   3.833  0.0800 -0.1845 -0.3842
  477poe     o2 3563   0.796   5.569   3.764  0.3119  0.2010  0.1007
  477poe    c31 3564   0.810   5.446   3.695 -0.5229  0.1706 -0.0298
  478poe    c31 3565   5.553   4.997   5.493 -0.5039 -0.6222  1.1161
  478poe     o2 3566   5.672   4.936   5.447 -0.6482  0.0838 -0.2332
  478poe    c23 3567   5.720   4.979   5.321  0.2990 -0.3763 -0.0411
  478poe    c23 3568   5.827   4.885   5.264 -0.1039 -0.5576 -0.5028
  478poe     o2 3569   5.850   4.786   5.361 -0.2511 -0.0181  0.0895
  478poe    c23 3570   5.975   4.722   5.347 -0.3455 -0.0146 -0.8240
  478poe    c23 3571   5.983   4.619   5.461  0.0496  0.8518 -0.0538
  478poe     o2 3572   5.909   4.668   5.570 -0.2922  0.0765  0.0697
  478poe    c23 3573   5.852   4.559   5.638 -0.1748  0.0374  0.1051
  478poe    c23 3574   5.737   4.619   5.722 -0.4757  0.1962 -0.4164
  478poe     o2 3575   5.660   4.722   5.664 -0.2189  0.6320  0.0045
  478poe    c31 3576   5.527   4.702   5.706 -0.2005  0.3106 -0.0877
  479poe    c31 3577   2.822   0.610   0.686 -0.2296 -0.1547 -0.4386
  479poe     o2 3578   2.803   0.594   0.824 -0.1865 -0.4376 -0.4644
  479poe    c23 3579   2.849   0.467   0.866  0.0566 -0.2395 -0.1230
  479poe    c23 3580   2.855   0.463   1.020 -0.1829 -0.0784 -0.1083
  479poe     o2 3581   2.895   0.588   1.071  0.3389 -0.3799  0.2352
  479poe    c23 3582   2.905   0.588   1.211 -0.2396  0.5910  0.2827
  479poe    c23 3583   2.892   0.735   1.258 -0.0359  0.6486  0.1605
  479poe     o2 3584   2.770   0.779   1.202 -0.1707  0.0868  0.0045
  479poe    c23 3585   2.774   0.916   1.173 -0.0516  0.0965  0.0679
  479poe    c23 3586   2.680   0.903   1.052  0.0301  0.3053 -0.0187
  479poe     o2 3587   2.730   0.832   0.941  0.2347  0.4975 -0.0500
  479poe    c31 3588   2.638   0.875   0.842  0.2700  0.1502 -0.2334
  480poe    c31 3589   2.128   4.977   3.033 -0.0781 -0.6344  0.0563
  480poe     o2 3590   2.096   5.081   2.944 -0.1059 -0.0642  0.7245
  480poe    c23 3591   2.098   5.198   3.022 -0.8462  0.2156  0.3392
  480poe    c23 3592   2.050   5.315   2.934 -0.1657  0.0752 -0.2222
  480poe     o2 3593   2.120   5.299   2.812  0.0365 -0.4168 -0.0441
  480poe    c23 3594   2.046   5.371   2.716 -0.2892 -0.3800  0.2322
  480poe    c23 3595   2.107   5.336   2.579  0.2812  0.4228  0.2734
  480poe     o2 3596   2.071   5.200   2.570  0.7471  0.3437 -0.4336
  480poe    c23 3597   2.040   5.175   2.435 -0.3487 -0.4058 -0.0601
  480poe    c23 3598   2.059   5.024   2.410 -0.2357 -0.3804 -0.1289
  480poe     o2 3599   2.008   4.945   2.515 -0.2916 -0.3799 -0.1558
  480poe    c31 3600   1.991   4.820   2.453  0.1752 -0.5853  0.1267
  481poe    c31 3601   6.788   3.184   1.864 -0.0745 -0.5402  0.2155
  481poe     o2 3602   6.782   3.292   1.773 -0.4280 -0.2522  0.5736
  481poe    c23 3603   6.910   3.350   1.762 -0.6949  0.3343  0.5734
  481poe    c23 3604   6.918   3.468   1.663 -0.1099  0.0760  0.3104
  481poe     o2 3605   6.842   3.418   1.555 -0.0598 -0.2354  0.4186
  481poe    c23 3606   6.845   3.505   1.444  0.4740 -0.2064  0.4548
  481poe    c23 3607   6.724   3.448   1.369  0.3656  0.3110  0.2296
  481poe     o2 3608   6.621   3.406   1.456  0.2493 -0.1345 -0.1240
  481poe    c23 3609   6.506   3.344   1.401 -0.5921  0.9402  0.3903
  481poe    c23 3610   6.438   3.265   1.514 -0.8082  0.3952 -0.1188
  481poe     o2 3611   6.543   3.192   1.573 -0.8883  0.9035  0.6677
  481poe    c31 3612   6.485   3.090   1.651 -0.1883 -0.0800 -0.0660
  482poe    c31 3613   2.771   5.777   3.923 -0.3487  0.0869  0.5414
  482poe     o2 3614   2.654   5.705   3.894  0.1281 -0.2330 -0.6621
  482poe    c23 3615   2.661   5.574   3.947  0.8201  0.2873  0.5719
  482poe    c23 3616   2.525   5.514   3.908  0.7801  0.4017  0.5336
  482poe     o2 3617   2.414   5.599   3.926  0.1863 -0.2035 -0.1996
  482poe    c23 3618   2.301   5.565   3.849 -0.1586  0.2908  0.0832
  482poe    c23 3619   2.243   5.700   3.802  0.0942  0.2988 -0.2068
  482poe     o2 3620   2.359   5.768   3.759  0.5328 -0.2087  0.1657
  482poe    c23 3621   2.332   5.899   3.717  0.4863 -0.4613 -0.6135
  482poe    c23 3622   2.466   5.975   3.711  0.3464 -0.1709 -0.1159
  482poe     o2 3623   2.532   5.944   3.831 -0.2984  0.3506  0.3828
  482poe    c31 3624   2.563   6.063   3.901 -0.1306  0.1847  0.5922
  483poe    c31 3625   1.570   1.735   2.941  0.7192 -0.1101 -0.2973
  483poe     o2 3626   1.502   1.663   2.840 -0.0070 -0.1002  0.1793
  483poe    c23 3627   1.588   1.664   2.729  0.3019  0.0973  0.4196
  483poe    c23 3628   1.506   1.600   2.616  0.6145 -0.0648  0.2830
  483poe     o2 3629   1.441   1.496   2.687  0.3992 -0.2417 -0.1688
  483poe    c23 3630   1.362   1.408   2.610  0.4040 -0.3205 -0.0831
  483poe    c23 3631   1.344   1.291   2.708  0.3960  0.1480  0.4832
  483poe     o2 3632   1.317   1.346   2.835 -0.2169  0.2488  0.3137
  483poe    c23 3633   1.304   1.261   2.947 -0.4952  0.2725  0.3007
  483poe    c23 3634   1.315   1.357   3.066 -0.4803  0.2563  0.3123
  483poe     o2 3635   1.410   1.456   3.034  0.0569 -0.2790  0.2441
  483poe    c31 3636   1.502   1.462   3.142  0.1866  0.5772  0.0935
  484poe    c31 3637   0.519   3.343   4.854  0.1549  0.7146 -1.0245
  484poe     o2 3638   0.468   3.249   4.763 -0.1897 -0.4170  0.3117
  484poe    c23 3639   0.371   3.154   4.802  0.2636 -0.6872  0.7933
  484poe    c23 3640   0.374   3.039   4.701 -0.3130  0.0416 -0.0714
  484poe     o2 3641   0.365   3.111   4.580 -0.3658  0.6674  0.3012
  484poe    c23 3642   0.366   3.034   4.462 -0.8623  0.3270  0.5140
  484poe    c23 3643   0.331   3.131   4.348 -0.8795  0.2135  0.4225
  484poe     o2 3644   0.400   3.253   4.359 -0.3249 -0.0674  0.0770
  484poe    c23 3645   0.407   3.307   4.229  0.2271  0.1749  0.2034
  484poe    c23 3646   0.467   3.449   4.219  0.0282  0.2667  0.3280
  484poe     o2 3647   0.377   3.540   4.279 -0.4570 -0.0895  0.1507
  484poe    c31 3648   0.434   3.665   4.309 -0.4650 -0.0107 -0.1594
  485poe    c31 3649   2.563   1.620   2.602 -0.0999 -0.3158  0.7817
  485poe     o2 3650   2.669   1.531   2.629 -0.3321 -0.7497  0.2993
  485poe    c23 3651   2.787   1.600   2.593 -0.0011 -0.7676  1.3113
  485poe    c23 3652   2.895   1.492   2.572  0.2615 -0.1911 -0.4167
  485poe     o2 3653   2.848   1.377   2.638  0.1435  0.1035  0.0188
  485poe    c23 3654   2.943   1.272   2.641 -0.4255 -0.4213 -0.1478
  485poe    c23 3655   2.892   1.147   2.715 -0.1034 -0.4260  0.0701
  485poe     o2 3656   2.766   1.109   2.663 -0.0983  0.3163 -0.4995
  485poe    c23 3657   2.738   0.972   2.682  0.4635  0.2457 -0.1636
  485poe    c23 3658   2.601   0.929   2.627  0.6553 -0.5636 -0.0130
  485poe     o2 3659   2.591   0.960   2.490  0.2124  0.3039  0.2099
  485poe    c31 3660   2.534   0.870   2.398  0.6333  0.3252 -0.0781
  486poe    c31 3661   1.248   3.070   5.378 -0.0037 -1.2043  0.4957
  486poe     o2 3662   1.135   3.078   5.295  0.5053 -0.6276 -0.1564
  486poe    c23 3663   1.043   2.974   5.323 -0.0458  0.1003  0.8202
  486poe    c23 3664   0.900   3.013   5.282  0.4234  0.7126 -0.2744
  486poe     o2 3665   0.881   3.134   5.351 -0.5106  0.3554  0.1024
  486poe    c23 3666   0.768   3.203   5.301 -0.6769 -0.0897 -0.1352
  486poe    c23 3667   0.805   3.271   5.167  0.5250 -0.2582  0.0973
  486poe     o2 3668   0.939   3.315   5.169  0.4287  0.0316  0.1405
  486poe    c23 3669   0.995   3.322   5.040 -0.1925  0.8812 -0.0914
  486poe    c23 3670   1.137   3.380   5.056  0.0072  0.2168  0.5778
  486poe     o2 3671   1.213   3.314   5.155 -0.0083 -0.0931  0.3873
  486poe    c31 3672   1.340   3.375   5.168  0.0287 -0.0284 -0.2607
  487poe    c31 3673   4.378   5.535   2.270 -0.1403 -0.5031 -0.4739
  487poe     o2 3674   4.302   5.622   2.352 -0.2146 -0.4150 -0.6347
  487poe    c23 3675   4.368   5.639   2.475 -0.4150  0.2990 -0.6237
  487poe    c23 3676   4.262   5.690   2.575  0.2769 -0.0859  0.3293
  487poe     o2 3677   4.145   5.612   2.571  0.3288 -0.1560  0.1509
  487poe    c23 3678   4.049   5.672   2.655  0.0741 -0.0940 -0.1876
  487poe    c23 3679   3.924   5.583   2.672 -0.0330  0.1231  0.1783
  487poe     o2 3680   3.921   5.503   2.555 -0.0545  0.2865  0.0670
  487poe    c23 3681   3.851   5.381   2.554  0.7122 -0.1499 -0.3259
  487poe    c23 3682   3.853   5.349   2.403  0.1589 -0.6506 -0.2329
  487poe     o2 3683   3.983   5.385   2.362  0.1292  0.0371  0.2631
  487poe    c31 3684   3.985   5.358   2.224  0.4253  0.8140  0.1079
  488poe    c31 3685   1.371   6.461   5.095  0.0944 -0.2541  0.2149
  488poe     o2 3686   1.368   6.358   4.999  0.0529 -0.1783  0.1348
  488poe    c23 3687   1.438   6.240   5.030  0.2401 -0.0696  0.1270
  488poe    c23 3688   1.470   6.149   4.910 -0.1002 -0.1040  0.0616
  488poe     o2 3689   1.349   6.103   4.854 -0.3302  0.0441  0.4332
  488poe    c23 3690   1.355   6.100   4.713 -0.1741  0.8600  0.4153
  488poe    c23 3691   1.210   6.083   4.665  0.3042 -0.4882 -0.6193
  488poe     o2 3692   1.163   5.963   4.722  0.0081 -0.1316 -0.1028
  488poe    c23 3693   1.033   5.926   4.683 -0.0119 -0.4730  0.2787
  488poe    c23 3694   0.996   5.815   4.784 -0.6828  0.0883  0.6664
  488poe     o2 3695   1.037   5.858   4.911  0.4649  0.1553  0.2873
  488poe    c31 3696   0.936   5.806   4.995 -0.2400 -0.4699 -0.9232
  489poe    c31 3697   1.427   3.303   0.714 -0.8851  0.3470  0.1101
  489poe     o2 3698   1.409   3.168   0.752  0.6415  0.1233  0.0666
  489poe    c23 3699   1.280   3.139   0.801  0.4672  0.8102  0.0243
  489poe    c23 3700   1.265   3.019   0.896 -0.5269  0.8309 -0.0996
  489poe     o2 3701   1.332   3.017   1.020 -0.5869  0.3930 -0.0733
  489poe    c23 3702   1.378   2.898   1.080  0.0025  0.6850  0.0607
  489poe    c23 3703   1.462   2.946   1.199 -0.0703 -0.0300  0.4103
  489poe     o2 3704   1.569   3.037   1.182  0.0466 -0.1585  0.4594
  489poe    c23 3705   1.654   3.035   1.294  0.6394 -0.5254  0.0092
  489poe    c23 3706   1.768   3.130   1.252 -0.0361  0.1844 -0.2405
  489poe     o2 3707   1.711   3.240   1.185 -0.0964 -0.2421 -0.9058
  489poe    c31 3708   1.812   3.326   1.137 -0.2435  0.3039 -0.2411
  490poe    c31 3709   6.450   4.716   4.154  0.7571 -0.9073 -0.3078
  490poe     o2 3710   6.465   4.845   4.100 -0.7621 -0.4419  0.3127
  490poe    c23 3711   6.448   4.844   3.960 -0.4064  0.1264  0.2599
  490poe    c23 3712   6.492   4.973   3.889  0.5364 -0.6016 -0.5131
  490poe     o2 3713   6.609   5.012   3.958  0.1595  0.4579 -0.4501
  490poe    c23 3714   6.648   5.146   3.940  0.2913  0.4916  0.0692
  490poe    c23 3715   6.757   5.170   4.046  0.1411 -0.0209  0.3372
  490poe     o2 3716   6.711   5.110   4.166 -0.4498  0.3425  0.2960
  490poe    c23 3717   6.822   5.101   4.252 -0.0313  0.1637 -0.2514
  490poe    c23 3718   6.777   5.034   4.383 -0.0637  0.0955 -0.2979
  490poe     o2 3719   6.675   4.951   4.334 -0.0929 -0.2476  0.3232
  490poe    c31 3720   6.621   4.875   4.439  0.1026 -0.5953  0.1749
  491poe    c31 3721   3.951   5.080   6.609  0.2681 -0.3511 -0.3387
  491poe     o2 3722   4.083   5.112   6.573  0.0911  0.2611 -0.4520
  491poe    c23 3723   4.178   5.080   6.673 -0.2585 -0.1021 -0.2318
  491poe    c23 3724   4.296   5.176   6.646 -0.1105 -0.1442  0.2582
  491poe     o2 3725   4.337   5.171   6.511 -0.4974 -0.2900  0.1426
  491poe    c23 3726   4.476   5.196   6.512 -0.4308 -0.6478 -0.0408
  491poe    c23 3727   4.525   5.224   6.368 -0.2918  0.3721  0.1961
  491poe     o2 3728   4.448   5.138   6.288  0.0803  0.4406 -0.2371
  491poe    c23 3729   4.485   5.121   6.153 -0.0670 -0.3785 -0.1827
  491poe    c23 3730   4.371   5.033   6.099 -0.1273 -0.0573 -0.5902
  491poe     o2 3731   4.243   5.084   6.131  0.0358  0.0487 -0.0880
  491poe    c31 3732   4.164   5.068   6.015  0.0790 -0.0490 -0.1050
  492poe    c31 3733   1.062   6.612   2.674 -0.1556  0.4600  0.3714
  492poe     o2 3734   1.043   6.736   2.738 -0.0076  0.4091  0.5139
  492poe    c23 3735   0.913   6.734   2.795 -0.0445  0.2702  0.4251
  492poe    c23 3736   0.917   6.833   2.913 -0.8484  0.1668  0.5395
  492poe     o2 3737   0.964   6.958   2.869 -0.6182  0.1066  0.6118
  492poe    c23 3738   1.081   7.012   2.925 -0.4424 -0.3824  0.7236
  492poe    c23 3739   1.215   6.958   2.871 -0.6975  0.1664 -0.5158
  492poe     o2 3740   1.204   6.940   2.732 -0.2912 -0.4708 -0.4717
  492poe    c23 3741   1.324   6.880   2.690 -0.0099 -0.2163 -0.0394
  492poe    c23 3742   1.337   6.878   2.536  0.1050 -0.1384 -0.0310
  492poe     o2 3743   1.214   6.828   2.489  0.2281 -0.4639 -0.0087
  492poe    c31 3744   1.208   6.819   2.348 -0.5297  0.3761 -0.0365
  493poe    c31 3745   5.236   3.152   1.873 -0.3210 -0.4269 -0.0432
  493poe     o2 3746   5.281   3.037   1.805  0.3161 -0.3430  0.2273
  493poe    c23 3747   5.373   3.064   1.702  0.0814  0.3504  0.1942
  493poe    c23 3748   5.388   2.937   1.616 -0.0126  0.2185  0.3726
  493poe     o2 3749   5.400   2.824   1.699 -0.2641  0.1419  0.3063
  493poe    c23 3750   5.528   2.794   1.750 -0.1098 -0.8888 -0.6491
  493poe    c23 3751   5.495   2.727   1.884  0.0566  0.2279 -0.0376
  493poe     o2 3752   5.399   2.808   1.948 -0.0443  0.0766  0.0032
  493poe    c23 3753   5.356   2.730   2.058  0.1299 -0.2102 -0.1305
  493poe    c23 3754   5.244   2.814   2.123 -0.0275 -0.7015  0.2359
  493poe     o2 3755   5.164   2.880   2.028 -0.3219 -0.1529  0.8573
  493poe    c31 3756   5.038   2.928   2.069 -0.5130 -0.4043  0.5686
  494poe    c31 3757   2.067   4.917   5.126 -0.6430 -0.0952 -0.4352
  494poe     o2 3758   2.034   4.970   5.000  0.2684  0.1560 -0.5770
  494poe    c23 3759   2.075   5.104   4.986 -0.6248  0.5171  0.1424
  494poe    c23 3760   2.054   5.168   4.847  0.1289  0.1896 -0.1287
  494poe     o2 3761   1.917   5.185   4.820  0.1805  0.0008 -0.5069
  494poe    c23 3762   1.885   5.301   4.746 -0.5721  0.0694 -0.0863
  494poe    c23 3763   1.734   5.321   4.770 -0.4132  0.4403  0.6420
  494poe     o2 3764   1.681   5.197   4.728 -0.1743  0.4228  0.3877
  494poe    c23 3765   1.548   5.197   4.775 -0.4106 -0.1428 -0.2661
  494poe    c23 3766   1.476   5.082   4.702 -0.2848 -0.3619 -0.0472
  494poe     o2 3767   1.572   4.978   4.697  0.3874  0.2480 -0.0616
  494poe    c31 3768   1.518   4.874   4.619  0.3684  0.1682  0.0581
  495poe    c31 3769   4.984   3.981   0.965  0.0343 -0.3714 -0.2099
  495poe     o2 3770   4.990   4.122   0.970  0.4035 -0.3752 -0.5431
  495poe    c23 3771   4.902   4.171   0.872 -0.0534  0.7385  0.4020
  495poe    c23 3772   4.947   4.318   0.858  0.4302  0.5545 -0.0264
  495poe     o2 3773   4.974   4.362   0.990  0.5197 -0.2690  0.2356
  495poe    c23 3774   4.937   4.498   0.993  0.1590 -0.3696  0.4088
  495poe    c23 3775   4.975   4.555   1.131  0.3338  0.0060  0.2053
  495poe     o2 3776   5.106   4.528   1.175  0.2831 -1.1284 -0.2804
  495poe    c23 3777   5.120   4.557   1.313 -0.5820 -0.4899 -0.3173
  495poe    c23 3778   5.247   4.490   1.367 -0.7288  0.0106  0.6651
  495poe     o2 3779   5.243   4.349   1.366 -0.0113 -0.0197 -0.7890
  495poe    c31 3780   5.321   4.280   1.462  0.0010  0.2828 -0.5811
  496poe    c31 3781   4.226   1.292   4.785 -0.3541  0.3980 -0.5419
  496poe     o2 3782   4.178   1.377   4.886 -0.2675  0.0362 -0.1936
  496poe    c23 3783   4.272   1.381   4.991 -1.2307 -0.0617  0.6845
  496poe    c23 3784   4.247   1.486   5.101 -0.2894  0.1986  0.6584
  496poe     o2 3785   4.175   1.596   5.050  0.1687  0.3111  0.2561
  496poe    c23 3786   4.199   1.706   5.135  0.1173  0.5757 -0.0708
  496poe    c23 3787   4.152   1.834   5.063 -0.3916  0.1146 -0.5712
  496poe     o2 3788   4.017   1.812   5.031 -0.3383 -0.2510 -0.5425
  496poe    c23 3789   3.970   1.901   4.933 -0.2561  0.0769 -0.2834
  496poe    c23 3790   3.818   1.893   4.911 -0.2748  0.3558 -0.2654
  496poe     o2 3791   3.781   1.760   4.885  0.0976  0.0450  0.7497
  496poe    c31 3792   3.656   1.741   4.949 -0.1606 -0.8113  0.0244
  497poe    c31 3793   6.724   2.986   4.931  0.0871 -0.2864  0.0069
  497poe     o2 3794   6.721   3.127   4.923 -0.0076 -0.2579  0.5231
  497poe    c23 3795   6.826   3.190   4.993 -0.3276  0.2162  0.5864
  497poe    c23 3796   6.849   3.325   4.924 -0.5029  0.1562  0.4086
  497poe     o2 3797   6.719   3.373   4.898 -0.3138  0.3460 -0.1928
  497poe    c23 3798   6.717   3.507   4.854 -0.0251  0.4890  0.2276
  497poe    c23 3799   6.573   3.532   4.807  0.0385 -0.0195 -0.2445
  497poe     o2 3800   6.516   3.407   4.779  0.2544 -0.1362 -0.1625
  497poe    c23 3801   6.375   3.398   4.791  0.2832 -0.0802  0.2223
  497poe    c23 3802   6.331   3.251   4.772  0.3615 -0.0478 -0.2382
  497poe     o2 3803   6.420   3.161   4.834  0.0783  0.0393  0.3028
  497poe    c31 3804   6.351   3.039   4.847 -0.5894  0.3982  0.1845
  498poe    c31 3805   6.803   6.113   3.327 -0.7825 -0.4086  0.5971
  498poe     o2 3806   6.731   6.026   3.242 -0.1697 -0.5958  0.2615
  498poe    c23 3807   6.597   6.067   3.224 -0.0770 -0.4965 -0.2164
  498poe    c23 3808   6.496   5.966   3.283 -0.7845 -0.1837 -0.8799
  498poe     o2 3809   6.551   5.846   3.235 -0.2034 -0.2829  0.0175
  498poe    c23 3810   6.506   5.734   3.308 -0.0558 -0.5143 -0.2452
  498poe    c23 3811   6.611   5.625   3.275  0.5128 -0.1828  0.4454
  498poe     o2 3812   6.736   5.686   3.298  0.5588  0.1245 -0.5843
  498poe    c23 3813   6.853   5.615   3.267  0.4325 -0.5847  0.5013
  498poe    c23 3814   6.977   5.705   3.289 -0.2587  0.3389  0.6635
  498poe     o2 3815   6.941   5.831   3.236 -0.3870  0.0415  0.0475
  498poe    c31 3816   7.065   5.897   3.242 -0.3050 -0.0968 -0.0832
  499poe    c31 3817   0.353   5.793   6.139 -0.5871  0.1541 -0.4954
  499poe     o2 3818   0.440   5.882   6.206 -0.2452 -0.5111 -0.0423
  499poe    c23 3819   0.431   6.008   6.144  0.4631 -0.0558  0.7625
  499poe    c23 3820   0.579   6.048   6.127  0.2217  0.4242 -0.3083
  499poe     o2 3821   0.649   6.006   6.242 -0.1871  1.1551  0.2207
  499poe    c23 3822   0.787   5.987   6.221 -0.3234  0.8433 -0.4204
  499poe    c23 3823   0.832   5.895   6.336 -0.7331  0.9780 -0.1515
  499poe     o2 3824   0.722   5.808   6.347  0.3525 -0.4878 -0.4867
  499poe    c23 3825   0.743   5.684   6.411  0.5327 -0.2981 -0.1723
  499poe    c23 3826   0.605   5.616   6.409  0.0449  0.6876 -0.9743
  499poe     o2 3827   0.511   5.721   6.424  0.0623  0.5878 -0.0937
  499poe    c31 3828   0.398   5.677   6.497 -0.3339  0.7730 -0.5849
  500poe    c31 3829   6.326   4.484   2.771  0.2413  0.3900  0.1324
  500poe     o2 3830   6.192   4.444   2.784  0.1888  0.3355 -0.5327
  500poe    c23 3831   6.135   4.431   2.656 -0.6452 -0.0625 -0.1268
  500poe    c23 3832   5.992   4.374   2.653 -0.4969 -0.4157 -0.4963
  500poe     o2 3833   5.917   4.450   2.745  0.8449  0.4774 -0.1188
  500poe    c23 3834   5.874   4.571   2.687  0.8631  0.6674  0.2642
  500poe    c23 3835   5.877   4.669   2.806 -0.1001  0.3241  0.5826
  500poe     o2 3836   6.009   4.660   2.858  0.2902 -0.0258 -0.4446
  500poe    c23 3837   6.018   4.766   2.950 -0.3865 -0.3385 -0.0099
  500poe    c23 3838   6.166   4.760   2.993 -0.3866 -0.2206  0.0071
  500poe     o2 3839   6.184   4.624   3.021  1.1286 -0.0481 -0.0465
  500poe    c31 3840   6.304   4.616   3.095  0.8541 -0.4114  0.3635
  501poe    c31 3841   2.433   4.389   4.759  0.0826 -0.0494  0.5862
  501poe     o2 3842   2.548   4.372   4.838  0.5941  0.8377  0.0381
  501poe    c23 3843   2.647   4.288   4.783 -0.6777 -0.9612  0.4260
  501poe    c23 3844   2.762   4.274   4.885 -0.0067  0.0185 -0.1832
  501poe     o2 3845   2.798   4.407   4.919 -0.2624  0.0553 -0.0519
  501poe    c23 3846   2.850   4.414   5.050 -0.1935  0.3680 -0.0971
  501poe    c23 3847   2.869   4.563   5.085  0.3990  0.0200  1.1210
  501poe     o2 3848   2.747   4.625   5.047  0.6519 -0.4364 -0.5116
  501poe    c23 3849   2.752   4.762   5.017  0.5667 -0.3680 -0.2175
  501poe    c23 3850   2.657   4.777   4.896  0.4170 -0.0077 -0.0571
  501poe     o2 3851   2.629   4.650   4.844 -0.1917  0.3049 -0.5055
  501poe    c31 3852   2.659   4.669   4.707 -0.0143  0.4813 -0.4419
  502poe    c31 3853   5.181   0.766   0.583 -0.3484 -1.2124 -0.3279
  502poe     o2 3854   5.296   0.711   0.644  0.2809  0.3172 -0.0911
  502poe    c23 3855   5.263   0.582   0.692 -0.1438  0.5550  0.2657
  502poe    c23 3856   5.254   0.557   0.844  0.1848 -0.0860  0.1790
  502poe     o2 3857   5.372   0.594   0.911  0.1131  0.1012  0.2019
  502poe    c23 3858   5.345   0.656   1.035  0.4161  1.1263 -0.2363
  502poe    c23 3859   5.460   0.609   1.127  0.0663  0.2072 -0.2554
  502poe     o2 3860   5.577   0.644   1.057 -0.0122  0.4075 -0.2894
  502poe    c23 3861   5.692   0.566   1.087 -0.3888 -0.2831 -0.6154
  502poe    c23 3862   5.797   0.650   1.013 -0.0044 -0.2410 -0.0287
  502poe     o2 3863   5.763   0.650   0.876 -0.2882 -0.0577  0.0416
  502poe    c31 3864   5.869   0.700   0.797 -0.2641 -0.0328  0.0901
  503poe    c31 3865   3.033   1.824   5.278 -0.0437  0.0275 -0.3307
  503poe     o2 3866   3.052   1.704   5.351 -0.6088  0.1109 -0.0359
  503poe    c23 3867   2.922   1.669   5.391 -0.7011  0.1910 -0.2626
  503poe    c23 3868   2.914   1.645   5.543  0.2082 -0.4245 -0.3059
  503poe     o2 3869   3.004   1.538   5.564  0.4964 -0.2078 -0.4282
  503poe    c23 3870   3.064   1.522   5.691  0.0128 -0.2547 -0.1983
  503poe    c23 3871   3.206   1.467   5.665  0.0470  0.1101 -0.8194
  503poe     o2 3872   3.251   1.531   5.548  0.3666 -0.1108 -0.8188
  503poe    c23 3873   3.390   1.529   5.527  0.5824 -0.4324  0.5736
  503poe    c23 3874   3.418   1.621   5.407  0.1326 -0.7706  0.2070
  503poe     o2 3875   3.317   1.594   5.312  0.3651  0.3537 -0.3780
  503poe    c31 3876   3.334   1.672   5.196 -0.1379  0.5830 -0.2981
  504poe    c31 3877   2.224   0.740   5.162  0.6548  0.1767 -0.0746
  504poe     o2 3878   2.311   0.838   5.215  0.2715  0.3311  0.2730
  504poe    c23 3879   2.260   0.969   5.202  0.3467  0.4038  0.7024
  504poe    c23 3880   2.321   1.067   5.304  0.5657  0.8312  0.1641
  504poe     o2 3881   2.250   1.098   5.422  0.4940  0.1082  0.3145
  504poe    c23 3882   2.224   1.003   5.523 -0.2630  0.1117  0.1216
  504poe    c23 3883   2.357   0.943   5.571  0.1414  0.4389 -0.5704
  504poe     o2 3884   2.405   0.841   5.486 -0.1361  0.1755 -0.4130
  504poe    c23 3885   2.413   0.729   5.570  0.0604  0.3804 -0.1584
  504poe    c23 3886   2.496   0.617   5.504 -0.1103 -0.0653  0.3745
  504poe     o2 3887   2.455   0.616   5.370 -0.0221 -0.1452  0.3486
  504poe    c31 3888   2.473   0.488   5.313  0.5394  0.2221 -0.3189
  505poe    c31 3889   5.107   6.660   5.691  0.1463 -0.4598 -0.0115
  505poe     o2 3890   5.078   6.565   5.591 -0.4523  0.0027 -0.2806
  505poe    c23 3891   4.963   6.489   5.620 -0.1706 -0.0538  0.7322
  505poe    c23 3892   4.933   6.393   5.504  0.5754 -0.6264  1.0059
  505poe     o2 3893   5.062   6.376   5.450  0.1143  1.4897 -0.9465
  505poe    c23 3894   5.069   6.305   5.328  0.0580  0.0829 -0.1551
  505poe    c23 3895   5.209   6.252   5.292 -0.0284 -0.2027 -0.0709
  505poe     o2 3896   5.287   6.366   5.265  0.0212 -0.1627  0.2323
  505poe    c23 3897   5.405   6.347   5.190 -0.0060  0.5785 -0.0121
  505poe    c23 3898   5.519   6.297   5.281 -0.3809  0.9895  0.6908
  505poe     o2 3899   5.646   6.304   5.220 -0.3523 -0.2638  0.5789
  505poe    c31 3900   5.732   6.225   5.299  0.0636 -0.1230  0.2676
  506poe    c31 3901   2.772   4.416   3.735  1.2955  0.6347  0.0864
  506poe     o2 3902   2.742   4.551   3.707 -0.2624  0.3578  0.3433
  506poe    c23 3903   2.706   4.616   3.827 -0.1184  0.0803  0.5360
  506poe    c23 3904   2.590   4.710   3.791 -0.1418 -0.2429 -0.2375
  506poe     o2 3905   2.607   4.761   3.661  0.2261 -0.1817 -0.1650
  506poe    c23 3906   2.548   4.889   3.648 -0.4032 -0.4526 -0.0165
  506poe    c23 3907   2.578   4.937   3.504 -0.4148 -0.4635 -0.0221
  506poe     o2 3908   2.690   4.864   3.460  0.0775  0.1782  0.1682
  506poe    c23 3909   2.821   4.917   3.464 -0.1458  0.7711 -0.2914
  506poe    c23 3910   2.902   4.805   3.398 -0.5665  0.1763  0.1928
  506poe     o2 3911   2.887   4.687   3.474  0.1497  0.0418  0.1318
  506poe    c31 3912   2.974   4.588   3.422 -0.2714 -0.0436 -0.4207
  507poe    c31 3913   3.177   6.250   4.821  0.9106  0.1329  0.0926
  507poe     o2 3914   3.238   6.355   4.894 -0.2692  0.9133 -0.0189
  507poe    c23 3915   3.167   6.470   4.855  0.1182  0.9757 -0.5431
  507poe    c23 3916   3.165   6.562   4.979 -1.0304 -0.6352  0.6859
  507poe     o2 3917   3.290   6.554   5.043 -0.7949 -0.2485  0.2877
  507poe    c23 3918   3.295   6.631   5.161 -0.1834 -0.2445  0.2639
  507poe    c23 3919   3.443   6.633   5.203 -0.1280  0.2696  0.0493
  507poe     o2 3920   3.516   6.516   5.174 -0.2288  0.1273  0.3615
  507poe    c23 3921   3.651   6.541   5.142 -0.3952 -0.1966 -0.6065
  507poe    c23 3922   3.734   6.411   5.140  0.0081  0.0483 -0.0122
  507poe     o2 3923   3.682   6.304   5.064  0.4317  0.1395 -0.4431
  507poe    c31 3924   3.761   6.190   5.087 -0.2435 -0.1239  0.6462
  508poe    c31 3925   1.785   4.421   5.529 -0.0234  0.5589 -0.0276
  508poe     o2 3926   1.748   4.397   5.396  0.2428  0.8787 -0.1629
  508poe    c23 3927   1.829   4.479   5.315  1.1364  0.1496 -0.0121
  508poe    c23 3928   1.773   4.457   5.174  0.2713  0.4071  0.2875
  508poe     o2 3929   1.632   4.460   5.175  0.2415 -0.6061  0.1062
  508poe    c23 3930   1.572   4.395   5.065 -0.7883 -0.0886  0.3449
  508poe    c23 3931   1.548   4.245   5.093 -0.3289 -0.2671 -0.1900
  508poe     o2 3932   1.504   4.244   5.227 -0.3624  0.2651 -0.1941
  508poe    c23 3933   1.454   4.117   5.263 -0.2708  0.2388 -0.1568
  508poe    c23 3934   1.422   4.120   5.414 -0.0726  0.0320 -0.1116
  508poe     o2 3935   1.529   4.188   5.475 -0.0204 -0.1536  0.0069
  508poe    c31 3936   1.525   4.172   5.615  0.1396  0.1756  0.0503
  509poe    c31 3937   4.622   0.583   0.099 -0.5671 -0.4038 -0.1343
  509poe     o2 3938   4.618   0.446   0.132 -0.0317 -0.3287  0.2606
  509poe    c23 3939   4.562   0.392   0.014 -0.3070 -0.3929  0.4201
  509poe    c23 3940   4.643   0.263  -0.006  0.2035  0.0631 -0.5087
  509poe     o2 3941   4.700   0.229   0.118  0.0601 -0.3212 -0.5439
  509poe    c23 3942   4.769   0.108   0.135  0.6421  0.1341  0.4280
  509poe    c23 3943   4.730   0.074   0.280 -0.9039 -0.1557 -0.0414
  509poe     o2 3944   4.726   0.197   0.349 -0.3524 -0.1008 -0.1030
  509poe    c23 3945   4.659   0.182   0.473  0.3345  0.0616  0.2926
  509poe    c23 3946   4.619   0.316   0.536  0.2445 -0.0877  0.5534
  509poe     o2 3947   4.601   0.411   0.434 -0.6672 -0.6949  0.1407
  509poe    c31 3948   4.556   0.533   0.489  0.7620  0.1866 -0.5675
  510poe    c31 3949   0.118   0.872   2.643 -0.2474  0.1096 -0.5222
  510poe     o2 3950   0.184   0.996   2.650 -0.1174  0.0225 -0.1865
  510poe    c23 3951   0.240   1.004   2.779  0.0364 -0.0222 -0.2494
  510poe    c23 3952   0.357   1.104   2.769  0.2913 -0.3443 -0.4808
  510poe     o2 3953   0.318   1.200   2.674  0.1747  0.1062  0.0197
  510poe    c23 3954   0.420   1.281   2.619  0.4234 -0.2433 -0.0338
  510poe    c23 3955   0.405   1.279   2.466  0.1387  0.4736 -0.0182
  510poe     o2 3956   0.275   1.237   2.432  0.2068  0.2455  0.0040
  510poe    c23 3957   0.264   1.180   2.303  0.3747  1.0770 -0.3827
  510poe    c23 3958   0.117   1.137   2.291  0.1999  1.2926  0.7925
  510poe     o2 3959   0.079   1.083   2.415 -0.2184  0.2815  0.2370
  510poe    c31 3960  -0.054   1.035   2.413 -0.4474  0.9221 -0.0975
  511poe    c31 3961   6.814   4.649   3.150  0.1737  0.0632 -0.2066
  511poe     o2 3962   6.803   4.514   3.187 -0.1240  0.1016 -0.1564
  511poe    c23 3963   6.809   4.427   3.077  0.0894  0.9112 -0.7908
  511poe    c23 3964   6.694   4.325   3.085  0.4598  0.5354 -0.1026
  511poe     o2 3965   6.674   4.297   3.221 -0.3140  0.2525 -0.2698
  511poe    c23 3966   6.538   4.274   3.251 -0.1003 -0.0369  0.5146
  511poe    c23 3967   6.499   4.330   3.389 -0.1885  0.6075  0.2315
  511poe     o2 3968   6.573   4.449   3.401  0.2423  0.3630  0.0243
  511poe    c23 3969   6.582   4.500   3.532  0.0535 -0.3958  0.3367
  511poe    c23 3970   6.692   4.607   3.534  0.1462 -0.4936  0.5425
  511poe     o2 3971   6.798   4.548   3.461 -0.3021 -0.2976 -0.2839
  511poe    c31 3972   6.914   4.575   3.537 -0.2970  0.3098 -0.5071
  512poe    c31 3973   5.671   2.391   0.807 -0.2175 -0.1051 -0.3601
  512poe     o2 3974   5.665   2.265   0.871 -0.0926  0.0767  0.0114
  512poe    c23 3975   5.592   2.182   0.784 -0.6988 -0.0282  0.6091
  512poe    c23 3976   5.665   2.049   0.808 -0.3206  0.0172 -0.2457
  512poe     o2 3977   5.691   2.034   0.946 -0.3884 -0.0412 -0.2392
  512poe    c23 3978   5.784   1.934   0.981 -0.3562  0.3676  0.8755
  512poe    c23 3979   5.913   2.006   1.023  0.2712 -0.0528 -0.2905
  512poe     o2 3980   5.861   2.109   1.103  0.1084 -0.1798 -0.2325
  512poe    c23 3981   5.955   2.176   1.185 -0.3048 -0.4418  0.4652
  512poe    c23 3982   5.865   2.289   1.239 -0.1563  0.0283 -0.2524
  512poe     o2 3983   5.796   2.335   1.125 -0.0563 -0.3477 -0.4659
  512poe    c31 3984   5.737   2.459   1.158  0.1507 -0.3070 -0.2391
  513poe    c31 3985   0.683   3.335   6.264  0.0119 -0.0819  0.2453
  513poe     o2 3986   0.572   3.395   6.201 -0.0770 -0.6608 -0.1550
  513poe    c23 3987   0.576   3.362   6.064  0.1457 -0.2693 -0.2446
  513poe    c23 3988   0.463   3.447   6.004  0.0618  0.2338  0.6148
  513poe     o2 3989   0.364   3.465   6.103 -0.4000  0.4298  0.1252
  513poe    c23 3990   0.255   3.375   6.100 -0.1040  0.0424  0.7259
  513poe    c23 3991   0.180   3.383   6.234 -0.4870  0.0798  0.5114
  513poe     o2 3992   0.277   3.362   6.335  0.2165 -0.0916 -0.1881
  513poe    c23 3993   0.239   3.386   6.469  0.5643 -0.3631 -0.0394
  513poe    c23 3994   0.361   3.347   6.553  0.2507 -0.6562  0.2800
  513poe     o2 3995   0.472   3.402   6.485 -0.1238  0.4103  0.5111
  513poe    c31 3996   0.550   3.487   6.566  0.6487  0.2225 -0.0310
  514poe    c31 3997   3.601   3.036   5.765 -0.0509 -0.8561 -0.2723
  514poe     o2 3998   3.525   3.119   5.680  0.2910 -0.4524 -0.1881
  514poe    c23 3999   3.499   3.056   5.556  0.2001 -0.0057 -0.3985
  514poe    c23 4000   3.377   2.962   5.551 -0.1107  0.3927 -0.3367
  514poe     o2 4001   3.257   3.022   5.507 -0.1676  0.2617 -0.3593
  514poe    c23 4002   3.244   3.037   5.367  0.9429  0.8722 -0.4075
  514poe    c23 4003   3.123   3.115   5.315  0.4553  0.2776 -0.1749
  514poe     o2 4004   3.132   3.256   5.316  0.0370  0.3050  0.2105
  514poe    c23 4005   3.029   3.322   5.247  0.1782  0.3329  0.0237
  514poe    c23 4006   3.021   3.476   5.248 -0.5697  0.2994  0.0503
  514poe     o2 4007   2.984   3.541   5.367 -0.0645  0.1044  0.3188
  514poe    c31 4008   2.848   3.555   5.402 -0.1798  0.1577 -0.1401
  515poe    c31 4009   5.001   1.355   5.876 -0.1124 -0.5633 -0.2484
  515poe     o2 4010   4.981   1.466   5.790 -0.0603 -0.2102  0.1912
  515poe    c23 4011   4.846   1.506   5.777 -0.0802 -0.4761 -0.4836
  515poe    c23 4012   4.844   1.623   5.677 -0.5161 -0.1322 -0.0782
  515poe     o2 4013   4.890   1.569   5.555 -0.5389 -0.0140 -0.1390
  515poe    c23 4014   4.856   1.644   5.440 -0.3444  0.0664 -0.1449
  515poe    c23 4015   4.909   1.556   5.325  0.5713  0.4296 -0.0131
  515poe     o2 4016   5.042   1.519   5.348  0.1876 -0.3042  1.0787
  515poe    c23 4017   5.080   1.408   5.270 -0.5100  0.0689  0.1957
  515poe    c23 4018   5.195   1.338   5.345 -0.4111  0.0560  0.0319
  515poe     o2 4019   5.165   1.339   5.483 -0.0355  0.4275  0.1125
  515poe    c31 4020   5.266   1.268   5.550 -0.1625  0.1927  0.0541
  516poe    c31 4021   5.370   0.689   4.406 -0.0177 -0.3676  0.6387
  516poe     o2 4022   5.374   0.548   4.404 -0.2136 -0.3683 -0.2130
  516poe    c23 4023   5.416   0.494   4.281  0.0653  0.3934 -0.4586
  516poe    c23 4024   5.402   0.342   4.299  0.4026  0.4103 -0.0484
  516poe     o2 4025   5.431   0.299   4.430  0.3171  0.4000 -0.0331
  516poe    c23 4026   5.398   0.165   4.458  0.4808  0.3799  0.0642
  516poe    c23 4027   5.459   0.122   4.593 -0.3054 -0.3667  0.1912
  516poe     o2 4028   5.409   0.211   4.690 -0.0391  0.3306 -0.3049
  516poe    c23 4029   5.433   0.161   4.820 -0.7899  0.3604 -0.1523
  516poe    c23 4030   5.445   0.290   4.903 -0.4081  0.5511 -0.4998
  516poe     o2 4031   5.565   0.361   4.886  0.0657 -0.1647 -0.1717
  516poe    c31 4032   5.675   0.305   4.955 -0.3245 -0.4770  0.1989
  517poe    c31 4033   1.178   1.964   4.008 -0.6163 -0.5174 -0.3884
  517poe     o2 4034   1.191   2.104   4.001  0.2690 -0.5941 -0.4095
  517poe    c23 4035   1.303   2.142   3.924 -0.0263  0.0758 -0.5156
  517poe    c23 4036   1.344   2.289   3.951 -0.2319  0.0363  0.0336
  517poe     o2 4037   1.217   2.345   3.976 -0.1252  0.0679  0.5037
  517poe    c23 4038   1.216   2.485   3.994  0.1197  0.0967  0.2977
  517poe    c23 4039   1.073   2.532   4.029 -0.2332 -0.6428 -0.1099
  517poe     o2 4040   1.025   2.460   4.140 -0.5151 -0.2294  0.0382
  517poe    c23 4041   1.010   2.542   4.253  0.0431 -0.1961  0.0898
  517poe    c23 4042   0.955   2.470   4.377  0.1219 -0.2756  0.0789
  517poe     o2 4043   1.040   2.365   4.416  0.2497 -0.2561 -0.1480
  517poe    c31 4044   1.006   2.283   4.526 -0.0308  0.1257  0.0536
  518poe    c31 4045   6.083   5.498   5.532  0.4499 -0.1680  0.7063
  518poe     o2 4046   6.209   5.520   5.591  0.5581 -0.2854  0.5170
  518poe    c23 4047   6.314   5.482   5.504 -0.0286 -0.7038 -0.0113
  518poe    c23 4048   6.435   5.465   5.597 -0.1675  0.0616  0.3128
  518poe     o2 4049   6.497   5.578   5.656  0.0365  0.3177 -0.3852
  518poe    c23 4050   6.562   5.538   5.774 -0.0115  0.2032 -0.3975
  518poe    c23 4051   6.698   5.610   5.769 -0.0902  0.4304  0.5014
  518poe     o2 4052   6.657   5.745   5.763  0.3983  0.5471 -0.4893
  518poe    c23 4053   6.755   5.837   5.804  0.4396  0.3276 -0.0878
  518poe    c23 4054   6.900   5.844   5.752  0.6312 -0.1854  0.3647
  518poe     o2 4055   6.908   5.909   5.627 -0.6011  0.5494  0.6534
  518poe    c31 4056   7.021   5.994   5.623 -0.2708  0.1111  0.6371
  519poe    c31 4057   2.293   0.836   0.182  0.4507  0.2459  0.0356
  519poe     o2 4058   2.382   0.900   0.270  0.5996 -0.1472  0.1706
  519poe    c23 4059   2.452   0.807   0.350 -0.1463 -0.8492  0.0187
  519poe    c23 4060   2.556   0.864   0.448 -0.3677 -0.4464  0.0211
  519poe     o2 4061   2.624   0.968   0.382 -1.3787  0.2422  0.0508
  519poe    c23 4062   2.666   1.078   0.460  0.0965 -0.3891  0.1611
  519poe    c23 4063   2.699   1.196   0.367 -0.3691 -0.3288  0.0710
  519poe     o2 4064   2.569   1.223   0.319 -0.2256 -0.0422 -0.1544
  519poe    c23 4065   2.564   1.354   0.267  0.2643  0.3808  0.8279
  519poe    c23 4066   2.412   1.372   0.246  0.3130  0.0364  0.1682
  519poe     o2 4067   2.364   1.251   0.191 -0.1643 -0.0058  0.6769
  519poe    c31 4068   2.223   1.255   0.200 -0.1662  0.7069  0.4398
  520poe    c31 4069   6.014   6.093   2.679  0.1637  0.4329  0.0613
  520poe     o2 4070   6.054   5.994   2.771 -0.7658  0.3341  0.3694
  520poe    c23 4071   6.168   6.047   2.836 -0.1054  0.1289 -0.5974
  520poe    c23 4072   6.266   5.929   2.848  0.0712  0.3947  0.6326
  520poe     o2 4073   6.211   5.819   2.918 -0.1287 -0.0317 -0.1882
  520poe    c23 4074   6.299   5.714   2.951  0.0245  0.0791 -0.2434
  520poe    c23 4075   6.315   5.638   2.818  0.0761  0.1712 -0.2908
  520poe     o2 4076   6.181   5.628   2.775 -0.2526  0.7701  0.5817
  520poe    c23 4077   6.168   5.584   2.642  0.0138  0.7412  0.5660
  520poe    c23 4078   6.018   5.601   2.612 -0.0294  0.0425  0.3661
  520poe     o2 4079   5.983   5.733   2.647 -0.6331 -0.0931  0.2827
  520poe    c31 4080   5.915   5.796   2.541  0.5843  0.2138 -0.3383
  521poe    c31 4081   4.534   5.880   5.183 -0.1460  0.1908 -0.2134
  521poe     o2 4082   4.659   5.815   5.188 -0.0654  0.3663  0.0744
  521poe    c23 4083   4.765   5.903   5.159  0.1298  0.2727  0.4952
  521poe    c23 4084   4.887   5.809   5.157 -0.3966 -0.4128 -0.0913
  521poe     o2 4085   4.891   5.730   5.274 -0.0320  0.1431  0.2809
  521poe    c23 4086   5.014   5.744   5.341 -0.2519  0.4197  0.6324
  521poe    c23 4087   5.034   5.627   5.440  0.4833 -0.4963 -0.5629
  521poe     o2 4088   4.911   5.587   5.497  0.6699  0.2048  0.3575
  521poe    c23 4089   4.933   5.480   5.586  0.6898  0.1599  0.2986
  521poe    c23 4090   4.816   5.444   5.680  0.0416  0.7040 -0.2966
  521poe     o2 4091   4.719   5.382   5.597 -0.1953 -0.0175  0.5092
  521poe    c31 4092   4.610   5.340   5.676 -0.2408  0.4835  0.7189
  522poe    c31 4093   5.745   1.999   6.856  0.2230 -0.4885 -0.0082
  522poe     o2 4094   5.661   2.084   6.930 -0.0111 -0.3568 -0.4272
  522poe    c23 4095   5.729   2.137   7.042 -0.2815  0.5568 -0.6861
  522poe    c23 4096   5.634   2.235   7.114 -0.0353  0.4589 -0.2285
  522poe     o2 4097   5.502   2.218   7.068  0.0540 -0.0156 -0.3191
  522poe    c23 4098   5.432   2.340   7.075 -0.5728 -0.4020  0.2306
  522poe    c23 4099   5.287   2.313   7.030 -0.4067 -0.4062 -0.3034
  522poe     o2 4100   5.321   2.267   6.901  0.4338 -0.6498 -0.0041
  522poe    c23 4101   5.233   2.176   6.839 -0.3636  0.3164 -0.3273
  522poe    c23 4102   5.288   2.108   6.712 -0.3778 -0.2516 -0.0347
  522poe     o2 4103   5.398   2.032   6.756 -0.2470  0.0594  0.1820
  522poe    c31 4104   5.404   1.919   6.672  0.3492 -0.6844  1.1931
  523poe    c31 4105   2.615   5.893   0.091  0.3917  0.5103 -0.2477
  523poe     o2 4106   2.482   5.851   0.116  0.2003  0.8352 -0.7048
  523poe    c23 4107   2.432   5.770   0.012  0.0947 -0.2520  0.1854
  523poe    c23 4108   2.418   5.633   0.082  0.1323 -0.2665  0.1651
  523poe     o2 4109   2.349   5.654   0.203 -0.4007 -0.1886 -0.1537
  523poe    c23 4110   2.364   5.549   0.296 -0.8210  0.2666  0.4305
  523poe    c23 4111   2.389   5.617   0.432 -0.0170  0.2940  0.2697
  523poe     o2 4112   2.490   5.714   0.413  0.3825 -0.2078 -0.2123
  523poe    c23 4113   2.486   5.806   0.519  0.2990 -0.0643 -0.3394
  523poe    c23 4114   2.541   5.943   0.475 -0.1732  0.2988  0.1815
  523poe     o2 4115   2.483   5.963   0.348 -0.2670 -0.2916  0.1308
  523poe    c31 4116   2.473   6.103   0.348  0.6019 -0.2229  0.3748
  524poe    c31 4117   4.325   4.792   3.689 -0.3079 -0.2489  0.4912
  524poe     o2 4118   4.262   4.677   3.739 -0.3844 -0.6520 -0.5105
  524poe    c23 4119   4.323   4.639   3.860 -0.1641 -0.2656 -0.4999
  524poe    c23 4120   4.242   4.520   3.915  0.1185  0.0486  0.6249
  524poe     o2 4121   4.206   4.434   3.810  0.1042  0.4248  0.3202
  524poe    c23 4122   4.075   4.383   3.816  0.2032  0.1325  0.0503
  524poe    c23 4123   4.043   4.312   3.683  0.0051  0.0416  0.1469
  524poe     o2 4124   4.105   4.399   3.592  0.3322 -0.1556  0.1800
  524poe    c23 4125   4.130   4.350   3.463 -0.5168 -0.0124 -0.0460
  524poe    c23 4126   4.204   4.468   3.396 -1.0262  0.2698 -0.1110
  524poe     o2 4127   4.288   4.550   3.475  0.3898 -0.8517 -0.4181
  524poe    c31 4128   4.376   4.626   3.395  0.0242  0.1068  0.0781
  525poe    c31 4129   2.205   0.156   2.568  0.0270 -0.2068  0.3025
  525poe     o2 4130   2.212   0.042   2.486  0.2552 -0.0267  0.0716
  525poe    c23 4131   2.348   0.026   2.451  0.1084  0.2136 -0.6306
  525poe    c23 4132   2.353  -0.098   2.361 -0.0239  0.0361 -0.3929
  525poe     o2 4133   2.251  -0.073   2.266 -0.3911  0.1478  0.0269
  525poe    c23 4134   2.223  -0.193   2.197  0.2000 -0.1130  0.2317
  525poe    c23 4135   2.077  -0.171   2.153  0.1051  0.3291  0.7582
  525poe     o2 4136   1.999  -0.128   2.262  0.4495  0.5109  0.9380
  525poe    c23 4137   1.870  -0.082   2.227  0.3607 -0.4619 -0.0730
  525poe    c23 4138   1.814  -0.066   2.369 -0.2374 -0.5587 -0.2943
  525poe     o2 4139   1.906   0.018   2.435 -0.6820 -0.0665 -0.2904
  525poe    c31 4140   1.861   0.081   2.553  0.2352 -0.0458  0.0587
  526poe    c31 4141   2.974   5.331   1.214 -0.0378  0.0151  0.4754
  526poe     o2 4142   3.075   5.371   1.304  0.3620  0.4652 -0.1567
  526poe    c23 4143   3.191   5.418   1.240  0.2947  0.3127 -0.3921
  526poe    c23 4144   3.279   5.462   1.358  0.4057  0.0561 -0.3793
  526poe     o2 4145   3.274   5.368   1.464 -0.0495  0.3654 -0.1215
  526poe    c23 4146   3.350   5.404   1.578  0.3740  0.0210 -0.2909
  526poe    c23 4147   3.312   5.288   1.671 -0.2297  0.7239  0.3466
  526poe     o2 4148   3.171   5.278   1.661 -0.1371 -0.2609 -0.0611
  526poe    c23 4149   3.126   5.164   1.731  0.5395 -0.0898  0.6808
  526poe    c23 4150   2.979   5.140   1.689  0.8242 -0.6880 -0.0072
  526poe     o2 4151   2.977   5.178   1.553 -0.4616  0.0559  0.2086
  526poe    c31 4152   2.850   5.139   1.506 -0.2989  0.4382 -0.5556
  527poe    c31 4153   2.931   6.054   2.147  0.0839  0.1387  0.2254
  527poe     o2 4154   2.904   6.030   2.010 -0.8007  0.4240  0.3464
  527poe    c23 4155   2.822   5.916   1.996 -0.2474 -0.0069  0.6096
  527poe    c23 4156   2.682   5.952   1.945  0.1264  0.6639  0.0338
  527poe     o2 4157   2.672   6.023   1.823 -0.1518  0.4835 -0.0493
  527poe    c23 4158   2.706   5.944   1.711  0.4029  0.6180  0.0206
  527poe    c23 4159   2.661   6.005   1.576  0.3222 -0.4504 -0.4442
  527poe     o2 4160   2.698   6.139   1.600  0.0125 -0.4024 -0.2242
  527poe    c23 4161   2.662   6.221   1.491 -0.2822 -0.0679  0.1212
  527poe    c23 4162   2.701   6.363   1.537 -0.2722 -0.1110  0.2466
  527poe     o2 4163   2.651   6.400   1.663 -0.2865 -0.0704  0.2292
  527poe    c31 4164   2.679   6.537   1.684 -0.3229 -0.1200  0.6171
  528poe    c31 4165   6.003   2.112   1.908 -0.0437 -0.7170 -0.1544
  528poe     o2 4166   5.924   2.204   1.836  0.4023  0.2730  0.6146
  528poe    c23 4167   5.948   2.191   1.698 -0.7846 -0.0303  0.4295
  528poe    c23 4168   5.902   2.310   1.612  0.3041 -0.2090 -0.4259
  528poe     o2 4169   5.763   2.328   1.603  0.2763 -0.1968 -0.0153
  528poe    c23 4170   5.715   2.454   1.564 -0.4101 -0.4006  0.1505
  528poe    c23 4171   5.562   2.452   1.547 -0.4017 -0.0957  0.0267
  528poe     o2 4172   5.507   2.423   1.674  0.5527  0.0463  0.4841
  528poe    c23 4173   5.373   2.468   1.677  0.5266  0.0312 -0.2660
  528poe    c23 4174   5.317   2.430   1.816  0.3095  0.0843 -0.3380
  528poe     o2 4175   5.368   2.306   1.858 -0.1277  0.0995  0.2443
  528poe    c31 4176   5.288   2.263   1.966 -0.8172  0.3118 -0.1773
  529poe    c31 4177   1.665   3.002   0.168  0.1365  0.1730  0.0505
  529poe     o2 4178   1.792   3.064   0.174 -0.2474  0.9476  0.3436
  529poe    c23 4179   1.863   2.993   0.075 -0.2959  0.9584  0.3011
  529poe    c23 4180   2.005   3.053   0.079 -0.0880  0.4875  0.1375
  529poe     o2 4181   2.038   3.072   0.214 -0.1227  0.5700  0.1351
  529poe    c23 4182   2.172   3.106   0.243 -0.1702  0.3907  0.5838
  529poe    c23 4183   2.181   3.190   0.371  1.1440  0.1092  0.6917
  529poe     o2 4184   2.068   3.273   0.386  0.6678 -0.4192  0.0828
  529poe    c23 4185   2.014   3.273   0.516  0.2982 -0.2226 -0.0686
  529poe    c23 4186   1.870   3.327   0.503  0.5517  0.3509 -0.5267
  529poe     o2 4187   1.794   3.239   0.423  0.3173  0.3308 -0.2832
  529poe    c31 4188   1.662   3.278   0.454  0.2905 -0.4671  0.6654
  530poe    c31 4189   0.985   4.066   0.982 -0.0736  0.2908  0.4388
  530poe     o2 4190   0.851   4.024   0.972  0.0729 -0.0167 -0.2737
  530poe    c23 4191   0.855   3.884   0.958  0.0150 -0.0188 -0.2702
  530poe    c23 4192   0.712   3.831   0.942  0.1124 -0.3274 -0.1197
  530poe     o2 4193   0.651   3.921   0.852 -0.1820  0.0719  0.4782
  530poe    c23 4194   0.524   3.888   0.801 -0.0321 -0.0597  0.1894
  530poe    c23 4195   0.437   4.003   0.856 -0.7336 -0.5562  0.1292
  530poe     o2 4196   0.515   4.120   0.849 -1.1915 -0.2656 -0.1924
  530poe    c23 4197   0.443   4.234   0.890 -0.3564  0.2350 -0.1014
  530poe    c23 4198   0.546   4.347   0.866 -0.0951  0.0845  0.2870
  530poe     o2 4199   0.676   4.299   0.892 -0.0071 -0.0150 -0.3068
  530poe    c31 4200   0.764   4.405   0.922  0.1537 -0.1772 -0.2074
  531poe    c31 4201   4.658   2.672   1.500 -0.3632  0.3135  0.4055
  531poe     o2 4202   4.581   2.779   1.450  0.1629  0.6004  0.2052
  531poe    c23 4203   4.490   2.812   1.553 -0.3362  0.0782 -0.0615
  531poe    c23 4204   4.415   2.942   1.520  0.0074  0.2321 -0.2492
  531poe     o2 4205   4.520   3.032   1.493  0.2956  0.0591  0.2850
  531poe    c23 4206   4.484   3.165   1.464  0.3502  0.0205  0.0346
  531poe    c23 4207   4.594   3.247   1.395  0.2334  0.3448  0.2308
  531poe     o2 4208   4.670   3.159   1.315 -0.5146 -0.3286  0.2526
  531poe    c23 4209   4.613   3.133   1.189  0.3018  0.2001 -0.2346
  531poe    c23 4210   4.688   3.009   1.138 -0.7072 -0.4245 -0.2348
  531poe     o2 4211   4.703   2.917   1.244 -0.0441  0.1599  0.1923
  531poe    c31 4212   4.820   2.849   1.206 -0.0758  0.2784 -0.1230
  532poe    c31 4213   6.751   1.736   0.234 -0.0513 -0.0057 -0.1501
  532poe     o2 4214   6.794   1.867   0.262 -0.1047  0.1042 -0.5793
  532poe    c23 4215   6.895   1.912   0.174  0.4957 -0.0208  0.0373
  532poe    c23 4216   6.935   2.056   0.212 -0.1216  0.2283 -0.2407
  532poe     o2 4217   6.829   2.117   0.283  0.3597  0.2800  0.4478
  532poe    c23 4218   6.845   2.250   0.329 -0.5607  0.6363 -0.2275
  532poe    c23 4219   6.704   2.284   0.382 -0.9211 -0.2025 -0.6314
  532poe     o2 4220   6.658   2.174   0.457 -0.1063 -0.4456 -0.4722
  532poe    c23 4221   6.521   2.169   0.492 -0.0681 -0.3338 -0.3054
  532poe    c23 4222   6.500   2.016   0.499 -0.0219 -0.3201  0.1673
  532poe     o2 4223   6.552   1.947   0.388  0.4283 -0.6546  0.5787
  532poe    c31 4224   6.444   1.891   0.317  0.1914  0.3056  0.1692
  533poe    c31 4225   6.476   5.549   4.896 -0.6192  0.1768 -0.0990
  533poe     o2 4226   6.477   5.414   4.856  0.1272  0.0720  0.2463
  533poe    c23 4227   6.594   5.397   4.780  0.4663 -0.1772  0.8185
  533poe    c23 4228   6.608   5.244   4.770 -0.4726 -0.2124 -0.1310
  533poe     o2 4229   6.667   5.187   4.885 -0.4916 -0.4013 -0.2155
  533poe    c23 4230   6.807   5.173   4.879 -0.4979 -0.4609 -0.2128
  533poe    c23 4231   6.846   5.060   4.977  1.0297 -0.0848 -0.3648
  533poe     o2 4232   6.771   5.091   5.093  0.3941 -0.0712 -0.7722
  533poe    c23 4233   6.808   5.029   5.214  0.1270 -0.2147 -0.7645
  533poe    c23 4234   6.680   5.002   5.296  0.3996 -0.2642 -0.3543
  533poe     o2 4235   6.590   4.962   5.195  0.0232  0.1047 -0.1668
  533poe    c31 4236   6.469   4.927   5.259  0.1021 -0.0838 -0.1196
  534poe    c31 4237   5.755   0.056   5.729  0.1735 -0.5180 -0.1777
  534poe     o2 4238   5.866   0.133   5.769 -0.1975  0.1953 -0.4916
  534poe    c23 4239   5.972   0.131   5.676  0.0581  0.3960 -0.2060
  534poe    c23 4240   6.062   0.243   5.732  0.8808 -0.3067 -0.1139
  534poe     o2 4241   6.019   0.373   5.702 -0.1574 -0.6920 -0.3242
  534poe    c23 4242   6.109   0.480   5.682 -0.5395 -0.2949  0.0433
  534poe    c23 4243   6.036   0.607   5.636  0.1051  0.0804  0.0513
  534poe     o2 4244   5.942   0.643   5.734 -0.1880 -0.0983 -0.1628
  534poe    c23 4245   5.868   0.763   5.720  0.1078  0.1555  0.4247
  534poe    c23 4246   5.856   0.792   5.871  0.3882  0.6043  0.3630
  534poe     o2 4247   5.799   0.674   5.924 -0.0422  0.6358 -0.0302
  534poe    c31 4248   5.697   0.704   6.017 -0.6643 -0.2649 -0.4139
  535poe    c31 4249   4.220   4.675   1.262  0.0761 -0.0244 -0.4366
  535poe     o2 4250   4.223   4.536   1.237  0.3550 -0.0649 -0.1846
  535poe    c23 4251   4.205   4.521   1.098  0.0216 -0.1119 -0.1381
  535poe    c23 4252   4.069   4.452   1.077  0.0495 -0.1559 -0.1743
  535poe     o2 4253   4.066   4.348   1.172  0.0745  0.2216  0.2416
  535poe    c23 4254   4.098   4.221   1.121 -0.1689  0.2733 -0.0472
  535poe    c23 4255   4.133   4.136   1.245  0.2369  0.0427 -0.3164
  535poe     o2 4256   4.223   4.209   1.326 -0.0816  0.4792 -0.3508
  535poe    c23 4257   4.251   4.148   1.450  0.2624  0.0588 -0.6283
  535poe    c23 4258   4.301   4.266   1.536 -0.9035 -0.1655  0.3984
  535poe     o2 4259   4.269   4.393   1.484  0.3714  0.1123  0.2572
  535poe    c31 4260   4.348   4.498   1.535  0.0532  0.0583  0.8623
  536poe    c31 4261   1.671   4.446   1.778 -0.6776  0.4208  0.0563
  536poe     o2 4262   1.740   4.481   1.660 -0.2737 -0.2859  0.0832
  536poe    c23 4263   1.850   4.562   1.695 -0.5265  0.2962 -0.4676
  536poe    c23 4264   1.967   4.534   1.599 -0.4403  0.1892 -0.3308
  536poe     o2 4265   1.896   4.515   1.479 -0.2725  0.0504 -0.4087
  536poe    c23 4266   1.985   4.476   1.377  0.1284 -0.5858  0.1712
  536poe    c23 4267   1.895   4.426   1.261  0.9241 -0.9289 -0.3031
  536poe     o2 4268   1.785   4.366   1.326  0.6926 -0.6240 -0.4106
  536poe    c23 4269   1.673   4.323   1.253  0.0083  0.7014 -0.1610
  536poe    c23 4270   1.577   4.288   1.368  0.6537  0.2720  0.2549
  536poe     o2 4271   1.577   4.395   1.461  0.2716  0.0514  0.5100
  536poe    c31 4272   1.442   4.434   1.479  0.2172 -0.0256  0.2739
  537poe    c31 4273   5.153   4.966   3.714 -0.3943 -0.3638 -0.3529
  537poe     o2 4274   5.119   4.833   3.747 -0.0519 -0.3810 -0.0590
  537poe    c23 4275   4.997   4.838   3.818 -0.3849  0.2896 -0.6570
  537poe    c23 4276   4.929   4.700   3.824  0.6221 -0.2131 -0.4735
  537poe     o2 4277   4.903   4.659   3.692 -0.3223  0.5491 -0.5374
  537poe    c23 4278   4.795   4.568   3.699  0.2170 -0.0702 -0.1608
  537poe    c23 4279   4.748   4.541   3.555 -0.0974  0.2243 -0.1137
  537poe     o2 4280   4.853   4.569   3.466 -0.0494 -0.3957 -0.2573
  537poe    c23 4281   4.813   4.554   3.332 -0.4838 -0.2390 -0.1472
  537poe    c23 4282   4.776   4.415   3.277  0.7535 -0.4826 -0.3943
  537poe     o2 4283   4.647   4.368   3.305  0.8307 -0.3435  0.2063
  537poe    c31 4284   4.599   4.278   3.208 -0.6559 -0.2010  0.7731
  538poe    c31 4285   6.850   0.512   4.656  0.5462  0.2147  0.2170
  538poe     o2 4286   6.884   0.450   4.534 -0.4144 -0.0290  0.0646
  538poe    c23 4287   6.812   0.329   4.530 -0.2979 -0.0909 -0.2219
  538poe    c23 4288   6.838   0.239   4.408 -0.3194  0.0625 -0.3396
  538poe     o2 4289   6.814   0.297   4.282 -0.1825 -0.3633 -0.5655
  538poe    c23 4290   6.936   0.293   4.212  0.1089 -0.4689 -0.0567
  538poe    c23 4291   6.911   0.350   4.071  0.6474  0.3078  0.1501
  538poe     o2 4292   6.779   0.318   4.031  0.6229  0.1020  0.3913
  538poe    c23 4293   6.753   0.357   3.898  0.1890 -0.0890  0.4202
  538poe    c23 4294   6.605   0.400   3.891  0.2447  0.0508  0.0937
  538poe     o2 4295   6.540   0.308   3.975  0.6540 -0.2024  0.1385
  538poe    c31 4296   6.409   0.358   3.995  0.6007  0.0572 -0.8244
  539poe    c31 4297   5.842   0.284   6.809  0.0666  0.2606  0.1732
  539poe     o2 4298   5.789   0.402   6.752  0.2804  0.1775 -0.1986
  539poe    c23 4299   5.867   0.434   6.638 -0.2530 -0.0325 -0.6255
  539poe    c23 4300   5.760   0.477   6.535 -0.8313  0.0507  0.0009
  539poe     o2 4301   5.663   0.556   6.600 -0.2291  0.9985 -0.2243
  539poe    c23 4302   5.537   0.527   6.544  0.0079 -0.6983  0.0564
  539poe    c23 4303   5.430   0.549   6.653 -0.1887  0.4268 -0.3446
  539poe     o2 4304   5.482   0.488   6.769 -0.6561  0.6296 -0.0227
  539poe    c23 4305   5.418   0.519   6.890 -0.5625  0.3257  0.1065
  539poe    c23 4306   5.499   0.460   7.007 -0.7177  0.4140  0.2581
  539poe     o2 4307   5.636   0.472   6.980 -0.7748 -0.5771 -0.5115
  539poe    c31 4308   5.708   0.458   7.101 -0.6523 -0.7431 -0.6017
  540poe    c31 4309   0.289   0.191   6.253 -0.6712 -0.0352 -0.3201
  540poe     o2 4310   0.306   0.197   6.113  0.3200 -0.0283 -0.2017
  540poe    c23 4311   0.248   0.307   6.048 -0.3059 -0.0134  0.3654
  540poe    c23 4312   0.309   0.332   5.908 -0.8557 -0.0506  0.1178
  540poe     o2 4313   0.337   0.215   5.834  0.2971 -0.1669  0.7068
  540poe    c23 4314   0.474   0.196   5.809  0.1898 -0.3295  0.2211
  540poe    c23 4315   0.517   0.051   5.840  0.9151 -0.3045 -0.6185
  540poe     o2 4316   0.494   0.014   5.974  0.0714 -0.1162 -0.7060
  540poe    c23 4317   0.506  -0.126   5.980 -0.1847 -0.1219 -0.2679
  540poe    c23 4318   0.485  -0.162   6.129  0.3825  0.5415 -0.0256
  540poe     o2 4319   0.352  -0.117   6.140  0.2775  0.2144  0.0438
  540poe    c31 4320   0.298  -0.177   6.256  0.5474 -0.5614 -0.2254
  541poe    c31 4321   6.354   3.746   6.233 -0.5776 -0.8184  0.1652
  541poe     o2 4322   6.286   3.798   6.122 -0.9937 -0.4956  0.5666
  541poe    c23 4323   6.271   3.938   6.136  0.3277 -0.3285  0.4633
  541poe    c23 4324   6.136   3.970   6.068  0.3314 -1.0223  0.1185
  541poe     o2 4325   6.141   3.884   5.957 -0.6398 -0.5804 -0.2731
  541poe    c23 4326   6.059   3.935   5.854 -0.0687 -0.1222 -0.5021
  541poe    c23 4327   6.123   3.881   5.724 -0.5307 -0.0030 -0.7807
  541poe     o2 4328   6.146   3.745   5.753 -0.0780  0.2211 -0.0413
  541poe    c23 4329   6.244   3.692   5.666 -0.1090 -0.0733  0.1014
  541poe    c23 4330   6.296   3.570   5.745 -0.0886 -0.1882 -0.0907
  541poe     o2 4331   6.319   3.615   5.876 -0.4840 -0.5287  0.0971
  541poe    c31 4332   6.403   3.526   5.945  0.1633  0.8886  1.1946
  542poe    c31 4333   5.009   4.331   2.353 -0.0460 -1.0018  0.0231
  542poe     o2 4334   4.976   4.294   2.485  0.3835  0.0476  0.4378
  542poe    c23 4335   4.959   4.417   2.551 -0.2444  0.2034  0.0059
  542poe    c23 4336   5.030   4.408   2.688  0.2210 -0.3154 -0.2627
  542poe     o2 4337   4.971   4.292   2.742  0.3944 -0.4800 -0.4302
  542poe    c23 4338   4.993   4.263   2.878 -0.3440 -0.3200 -0.2722
  542poe    c23 4339   4.927   4.125   2.886  0.0150 -0.4861 -0.1456
  542poe     o2 4340   4.960   4.055   2.768  0.7333 -0.4583  0.0330
  542poe    c23 4341   4.873   3.948   2.737 -0.6907  0.5817  0.3063
  542poe    c23 4342   4.783   3.982   2.617 -0.5692 -0.1054  0.0120
  542poe     o2 4343   4.867   4.034   2.516 -0.4341  0.4143  0.3878
  542poe    c31 4344   4.815   4.024   2.386 -0.5027  0.4860  0.4093
  543poe    c31 4345   0.722   5.806   5.804 -0.4988  0.4502  0.5095
  543poe     o2 4346   0.809   5.834   5.697 -0.6105  0.2031  0.3548
  543poe    c23 4347   0.760   5.936   5.614 -0.0033  0.2132 -0.0034
  543poe    c23 4348   0.838   5.923   5.482 -0.0247  0.1332 -0.0081
  543poe     o2 4349   0.977   5.935   5.501  0.0704 -0.9804  0.0595
  543poe    c23 4350   1.031   6.058   5.546 -0.2792 -1.0416  0.6582
  543poe    c23 4351   1.142   6.034   5.649  0.3628 -0.2606  0.1561
  543poe     o2 4352   1.089   5.943   5.742 -0.1405 -0.1435 -0.0177
  543poe    c23 4353   1.181   5.918   5.845  0.0688 -0.1174 -0.1978
  543poe    c23 4354   1.108   5.852   5.963  0.2469  0.2038  0.0925
  543poe     o2 4355   1.023   5.753   5.909  0.6330 -0.0599 -0.0400
  543poe    c31 4356   0.992   5.666   6.015 -0.3829 -0.6988 -0.8451
  544poe    c31 4357   1.418   4.172   6.686 -0.2688 -0.5228 -0.2364
  544poe     o2 4358   1.326   4.269   6.731 -0.0620 -0.3011 -0.2925
  544poe    c23 4359   1.193   4.242   6.695 -0.1080  0.0679 -0.4096
  544poe    c23 4360   1.117   4.331   6.795 -0.5599 -0.4945 -0.2432
  544poe     o2 4361   1.167   4.462   6.783 -0.7592 -0.3928  0.0427
  544poe    c23 4362   1.132   4.557   6.882  0.2021 -0.4805  0.4733
  544poe    c23 4363   1.248   4.641   6.939 -0.0317  0.1733 -0.0101
  544poe     o2 4364   1.364   4.563   6.928 -0.3188 -0.3821  0.8004
  544poe    c23 4365   1.473   4.622   6.995  0.1774 -0.3443 -0.0180
  544poe    c23 4366   1.604   4.563   6.940  0.3171  0.3700 -0.4646
  544poe     o2 4367   1.592   4.430   6.895  0.9159  0.1022  0.1613
  544poe    c31 4368   1.724   4.384   6.874  0.5157 -0.7966 -0.4278
  545poe    c31 4369   0.210   1.712   5.137 -0.3344  0.2535  0.2007
  545poe     o2 4370   0.117   1.624   5.196 -0.1554  0.0229  0.1418
  545poe    c23 4371   0.111   1.654   5.333  0.3922 -0.1642  0.2080
  545poe    c23 4372   0.035   1.538   5.401 -0.2860  0.1611  0.0102
  545poe     o2 4373  -0.078   1.504   5.325 -0.2313 -0.0574  0.0279
  545poe    c23 4374  -0.202   1.569   5.343 -0.0495  0.2061  0.3409
  545poe    c23 4375  -0.284   1.567   5.213  0.2223  0.7808  0.1603
  545poe     o2 4376  -0.194   1.599   5.110 -0.0529  1.2586  0.0641
  545poe    c23 4377  -0.241   1.601   4.977 -0.2511  0.6552  0.1240
  545poe    c23 4378  -0.119   1.623   4.885  0.0868 -0.2010  0.3536
  545poe     o2 4379  -0.008   1.556   4.940  0.4403  0.1992  0.1336
  545poe    c31 4380   0.093   1.558   4.842  0.6341 -0.1305  0.3246
  546poe    c31 4381   0.272   5.623   1.861 -0.1128 -0.4929  0.8248
  546poe     o2 4382   0.396   5.689   1.849 -0.8259  0.6794 -0.3979
  546poe    c23 4383   0.437   5.694   1.714 -0.2082  0.0412 -0.2391
  546poe    c23 4384   0.559   5.788   1.710 -0.4451  0.3485 -0.2304
  546poe     o2 4385   0.649   5.753   1.813 -0.2574  0.7802 -0.2472
  546poe    c23 4386   0.775   5.814   1.797  0.3005 -0.4089 -0.4439
  546poe    c23 4387   0.862   5.778   1.919 -0.1482  0.2295  0.0722
  546poe     o2 4388   0.768   5.809   2.019  0.2612  0.2960  0.4386
  546poe    c23 4389   0.780   5.738   2.140  0.1608 -0.1011  0.2149
  546poe    c23 4390   0.744   5.589   2.124  0.0176 -0.0095 -0.3385
  546poe     o2 4391   0.611   5.582   2.077 -0.1586  0.3156  0.1106
  546poe    c31 4392   0.540   5.474   2.133 -0.4043  0.2173 -0.3873
  547poe    c31 4393   1.138   6.339   4.172  0.8452 -0.4702  0.1971
  547poe     o2 4394   1.135   6.425   4.061 -0.0734 -0.3385  0.3185
  547poe    c23 4395   1.038   6.526   4.082  0.8624  0.5893  0.2571
  547poe    c23 4396   1.088   6.657   4.018  0.2539  0.3604 -0.6987
  547poe     o2 4397   1.151   6.610   3.901  0.7249 -0.2456 -0.2074
  547poe    c23 4398   1.243   6.703   3.849 -0.2138  0.7134 -0.1974
  547poe    c23 4399   1.272   6.627   3.718 -0.5101  0.4520 -0.1120
  547poe     o2 4400   1.310   6.494   3.750 -0.6643  0.3260 -0.4530
  547poe    c23 4401   1.291   6.409   3.639 -0.4691  0.1925 -0.3835
  547poe    c23 4402   1.268   6.275   3.712  0.0737 -0.0184 -0.5959
  547poe     o2 4403   1.159   6.289   3.800  0.0459 -0.2278 -0.5977
  547poe    c31 4404   1.083   6.170   3.812  0.2566 -0.2686  0.4191
  548poe    c31 4405   6.490   3.031   6.760  0.1661  0.5266  0.2245
  548poe     o2 4406   6.449   3.072   6.631 -0.2730 -0.2383  0.1171
  548poe    c23 4407   6.310   3.054   6.622 -0.3339  0.3800 -0.1660
  548poe    c23 4408   6.277   3.059   6.472  0.0699  0.1543 -0.2614
  548poe     o2 4409   6.349   3.172   6.428  0.1220  0.2968  0.1842
  548poe    c23 4410   6.328   3.190   6.289  0.4140  0.1286  0.1151
  548poe    c23 4411   6.417   3.307   6.245 -0.1385  0.5339  0.0630
  548poe     o2 4412   6.536   3.271   6.312 -0.3910 -0.2755  0.0748
  548poe    c23 4413   6.595   3.390   6.357 -0.6211 -0.4369  0.8130
  548poe    c23 4414   6.710   3.349   6.451  0.3232  0.2065 -0.0481
  548poe     o2 4415   6.666   3.276   6.563 -0.4315  0.8856  0.1109
  548poe    c31 4416   6.780   3.281   6.647 -0.3824  0.4239  0.0748
  549poe    c31 4417   5.060   3.467   4.607 -0.3314 -0.8804  0.2621
  549poe     o2 4418   4.933   3.491   4.664 -0.1448  0.4681  0.1521
  549poe    c23 4419   4.841   3.518   4.560  0.4518 -0.2892 -0.5861
  549poe    c23 4420   4.698   3.483   4.604  0.2984  0.2961 -0.6123
  549poe     o2 4421   4.705   3.508   4.743  0.0056  0.1571 -0.5699
  549poe    c23 4422   4.594   3.476   4.823  0.1760  0.2297 -0.3008
  549poe    c23 4423   4.624   3.511   4.969  0.1230  0.0586 -0.2484
  549poe     o2 4424   4.765   3.505   4.975  0.1411  0.5420 -0.1441
  549poe    c23 4425   4.815   3.555   5.097 -0.2022  0.5064  0.0109
  549poe    c23 4426   4.955   3.594   5.048  0.3581 -0.7240  0.6018
  549poe     o2 4427   4.940   3.646   4.918 -0.0689 -0.4905  0.7430
  549poe    c31 4428   5.065   3.707   4.892 -0.2809 -0.1643  0.4814
  550poe    c31 4429   5.320   0.843   5.616  0.9450 -0.7015 -0.1241
  550poe     o2 4430   5.241   0.811   5.504  0.1941 -0.2345  0.2617
  550poe    c23 4431   5.314   0.873   5.400 -0.0453 -0.3850  0.0022
  550poe    c23 4432   5.368   0.772   5.297 -0.3180 -0.3325 -0.1930
  550poe     o2 4433   5.275   0.709   5.211 -0.2990 -0.5019 -0.0908
  550poe    c23 4434   5.337   0.633   5.110 -0.1060 -0.2265 -0.1798
  550poe    c23 4435   5.224   0.565   5.030 -0.1387 -0.5102  0.1084
  550poe     o2 4436   5.126   0.534   5.126 -0.6122  0.1411 -0.1555
  550poe    c23 4437   5.013   0.479   5.061 -0.2075 -0.4966 -0.3303
  550poe    c23 4438   4.913   0.452   5.175 -0.0818  0.2591 -0.0356
  550poe     o2 4439   4.913   0.560   5.266  0.1700  0.2056  0.0285
  550poe    c31 4440   4.776   0.571   5.298  0.0784 -0.4655 -0.1213
  551poe    c31 4441   0.567   4.464   1.707  0.2864  0.0241  0.1039
  551poe     o2 4442   0.697   4.504   1.670  0.0135  0.8243 -0.0018
  551poe    c23 4443   0.799   4.443   1.745 -0.6308  0.5685  0.6788
  551poe    c23 4444   0.893   4.563   1.765 -0.5514  0.5633  0.3453
  551poe     o2 4445   0.906   4.637   1.646 -0.1017  0.3421  0.2544
  551poe    c23 4446   0.939   4.768   1.685  0.3375  0.2022  0.3669
  551poe    c23 4447   0.913   4.856   1.560  0.1416  0.1500  0.3697
  551poe     o2 4448   0.792   4.812   1.503  0.2201  0.0453  0.2829
  551poe    c23 4449   0.760   4.869   1.379 -0.0258  0.0580  0.3508
  551poe    c23 4450   0.626   4.800   1.348  0.1615  0.1500 -0.7380
  551poe     o2 4451   0.628   4.661   1.371  0.2615  0.2479 -0.1078
  551poe    c31 4452   0.521   4.596   1.305 -0.0398 -0.0984  0.7159
  552poe    c31 4453   1.678   3.556   3.161 -0.4321  0.2190 -0.7502
  552poe     o2 4454   1.698   3.674   3.235  0.2432 -0.3061 -0.0755
  552poe    c23 4455   1.678   3.792   3.159  0.3332 -0.0073  0.3631
  552poe    c23 4456   1.765   3.912   3.200 -0.1105  0.3522  0.2530
  552poe     o2 4457   1.732   3.936   3.334 -0.4109  0.5124  0.1500
  552poe    c23 4458   1.833   3.989   3.417 -0.1609 -0.0841  0.2299
  552poe    c23 4459   1.814   3.922   3.554  0.3129 -0.0354  0.3203
  552poe     o2 4460   1.820   3.785   3.521 -0.0381  0.0832 -0.2423
  552poe    c23 4461   1.820   3.707   3.638 -0.3487 -0.3421 -0.5201
  552poe    c23 4462   1.842   3.558   3.604 -0.3297 -0.5434  0.3472
  552poe     o2 4463   1.743   3.536   3.506 -0.0519 -0.1319 -0.0315
  552poe    c31 4464   1.764   3.409   3.449  0.2850 -0.3352  0.5355
  553poe    c31 4465   5.319   5.542   4.114  0.3560  0.5219  0.5360
  553poe     o2 4466   5.307   5.440   4.210  0.5835  0.1736  0.1981
  553poe    c23 4467   5.364   5.318   4.169  0.1442  0.0280  0.0056
  553poe    c23 4468   5.317   5.212   4.271  0.5598  0.3489  0.5390
  553poe     o2 4469   5.313   5.266   4.401  0.4821  0.7835  0.3613
  553poe    c23 4470   5.230   5.184   4.481 -0.1683  0.7616 -0.3238
  553poe    c23 4471   5.232   5.261   4.614 -0.3396 -0.0562  0.1605
  553poe     o2 4472   5.162   5.383   4.609 -0.2166 -0.0053 -0.3954
  553poe    c23 4473   5.169   5.449   4.734 -0.6479  0.1770 -0.4642
  553poe    c23 4474   5.027   5.486   4.778 -0.5138  0.0218  0.1035
  553poe     o2 4475   4.975   5.608   4.730  0.0408  0.3380  0.3015
  553poe    c31 4476   4.839   5.623   4.760 -0.1184 -0.5111  0.0254
  554poe    c31 4477   0.165   5.167   3.153 -0.2675 -0.8054 -0.4649
  554poe     o2 4478   0.178   5.272   3.060 -0.7202 -0.0230  0.3414
  554poe    c23 4479   0.184   5.234   2.925 -0.1021  0.3585  0.2601
  554poe    c23 4480   0.216   5.346   2.823  0.0158  0.2989  0.2305
  554poe     o2 4481   0.327   5.425   2.856  0.3820 -0.0756 -0.0968
  554poe    c23 4482   0.311   5.550   2.793  0.1060 -0.0314  0.0607
  554poe    c23 4483   0.433   5.643   2.804  0.1699 -0.1010 -0.0621
  554poe     o2 4484   0.487   5.620   2.932  0.1800  0.1376 -0.0236
  554poe    c23 4485   0.602   5.701   2.951  0.1396  0.1200  0.2952
  554poe    c23 4486   0.652   5.659   3.091  0.3392  0.6006  0.3679
  554poe     o2 4487   0.620   5.523   3.107 -0.3184  0.7217  0.1348
  554poe    c31 4488   0.674   5.468   3.226 -0.3708  0.0322 -0.1554
  555poe    c31 4489   6.252   5.494   0.695  0.1971  0.7595  0.6282
  555poe     o2 4490   6.382   5.440   0.696 -0.1890 -0.1927  0.8401
  555poe    c23 4491   6.419   5.402   0.565 -0.4587  0.3797  0.5941
  555poe    c23 4492   6.569   5.369   0.551 -0.6619 -0.5769  0.5852
  555poe     o2 4493   6.598   5.299   0.670  0.7593 -0.5796  0.2506
  555poe    c23 4494   6.736   5.277   0.690  0.7819 -0.4079  0.2806
  555poe    c23 4495   6.767   5.313   0.837 -0.1708  0.5892  0.2463
  555poe     o2 4496   6.682   5.422   0.866 -0.3512  0.7424 -0.7970
  555poe    c23 4497   6.687   5.452   1.004  0.0438 -0.0234 -0.6399
  555poe    c23 4498   6.582   5.555   1.049  0.1404 -0.3230  0.2979
  555poe     o2 4499   6.463   5.507   0.990 -0.0783 -0.3391  0.7499
  555poe    c31 4500   6.357   5.598   1.011  0.1287  0.1153 -0.1361
  556poe    c31 4501   0.725   4.340   4.668  0.4542 -0.1794 -0.5312
  556poe     o2 4502   0.674   4.356   4.538 -0.7299 -0.0371 -0.0674
  556poe    c23 4503   0.755   4.275   4.455 -0.6461 -0.3246  0.2942
  556poe    c23 4504   0.722   4.305   4.308  0.1568  0.2825  0.2237
  556poe     o2 4505   0.689   4.442   4.308  0.5553  0.3776  0.1274
  556poe    c23 4506   0.629   4.470   4.184 -0.7026 -0.1016  0.6126
  556poe    c23 4507   0.583   4.616   4.174  0.3143  0.1856 -0.0567
  556poe     o2 4508   0.508   4.641   4.291 -0.3827  0.3046 -0.5212
  556poe    c23 4509   0.468   4.776   4.306 -0.1045  0.3447 -0.1207
  556poe    c23 4510   0.368   4.802   4.419 -0.1835 -0.1609 -0.0720
  556poe     o2 4511   0.387   4.756   4.551  0.3030  0.2218 -0.0073
  556poe    c31 4512   0.292   4.826   4.629  0.2164  0.0340  0.0568
  557poe    c31 4513   4.845   0.208   1.873  0.3401 -0.0745 -0.4091
  557poe     o2 4514   4.958   0.233   1.954  0.2808 -0.1991 -0.2876
  557poe    c23 4515   5.066   0.261   1.868  0.4521 -0.5238 -0.1786
  557poe    c23 4516   5.199   0.220   1.933  0.7605  0.5805 -0.0849
  557poe     o2 4517   5.188   0.245   2.071  0.7126  0.6424 -0.0997
  557poe    c23 4518   5.296   0.190   2.143  0.1934 -0.2083  0.0451
  557poe    c23 4519   5.234   0.075   2.225 -0.0244  0.0798  0.2832
  557poe     o2 4520   5.111   0.127   2.269 -0.0269  0.3126  0.0018
  557poe    c23 4521   5.024   0.028   2.318 -0.1379  0.2000 -0.4203
  557poe    c23 4522   4.882   0.088   2.323 -0.4821 -0.6320  0.1274
  557poe     o2 4523   4.870   0.174   2.212  0.1382 -0.6378  0.0532
  557poe    c31 4524   4.744   0.233   2.228  0.0427 -0.8079 -0.0631
  558poe    c31 4525   0.328   5.310   5.420  0.0939  0.0711 -0.2927
  558poe     o2 4526   0.326   5.178   5.369 -0.6537 -0.1235  0.2179
  558poe    c23 4527   0.455   5.133   5.402 -0.3211  0.4615 -0.2407
  558poe    c23 4528   0.543   5.091   5.283 -0.3377  0.4380 -0.2451
  558poe     o2 4529   0.622   5.191   5.222  0.4531  0.0007  0.0528
  558poe    c23 4530   0.736   5.225   5.298 -0.2193 -0.1754  1.1509
  558poe    c23 4531   0.786   5.358   5.237 -0.2490 -0.7632 -0.1837
  558poe     o2 4532   0.771   5.339   5.098 -0.0723 -0.0821 -0.2987
  558poe    c23 4533   0.810   5.444   5.013  0.6839 -0.1274 -0.0129
  558poe    c23 4534   0.793   5.407   4.865  0.1036  0.5439 -0.1215
  558poe     o2 4535   0.666   5.354   4.836  0.2084  0.2897 -0.1161
  558poe    c31 4536   0.581   5.432   4.755  0.0088  0.1970  0.0032
  559poe    c31 4537   4.682   3.886   4.935 -0.1199 -0.9105 -0.5624
  559poe     o2 4538   4.779   3.987   4.951 -1.0533 -0.1197  0.2417
  559poe    c23 4539   4.801   4.052   4.828 -0.6451 -0.7338 -0.0150
  559poe    c23 4540   4.937   4.124   4.833 -0.9371 -0.1649 -0.1619
  559poe     o2 4541   4.943   4.238   4.915 -0.1270 -0.2428 -0.1026
  559poe    c23 4542   5.072   4.285   4.945 -0.2694 -0.3371  0.7023
  559poe    c23 4543   5.043   4.433   4.977  0.3009 -0.1324  0.3037
  559poe     o2 4544   4.937   4.445   5.070 -0.2411  0.1493 -0.3426
  559poe    c23 4545   4.895   4.575   5.107  0.2497  0.3590 -0.5056
  559poe    c23 4546   4.787   4.542   5.212  0.5964  0.5887 -0.0765
  559poe     o2 4547   4.708   4.435   5.167  0.2102  0.4864  0.8258
  559poe    c31 4548   4.617   4.400   5.269 -0.2308 -0.2838  0.1811
  560poe    c31 4549   5.002   2.574   0.918  0.6610  0.0830  0.2406
  560poe     o2 4550   5.074   2.529   0.805 -0.1910  0.0592 -0.3050
  560poe    c23 4551   5.188   2.460   0.852  0.2052  0.8777 -0.0268
  560poe    c23 4552   5.245   2.366   0.744  0.1910  0.0653  0.6592
  560poe     o2 4553   5.144   2.359   0.645  1.0739  0.4371 -0.2889
  560poe    c23 4554   5.159   2.243   0.566 -0.6489  0.0812 -0.1430
  560poe    c23 4555   5.018   2.243   0.505 -0.4592 -0.1793 -0.5922
  560poe     o2 4556   4.998   2.352   0.417  0.5198 -0.2576 -0.9245
  560poe    c23 4557   4.863   2.386   0.391  0.3903 -0.2881 -0.3226
  560poe    c23 4558   4.778   2.430   0.511  0.2310  0.1159 -0.5810
  560poe     o2 4559   4.842   2.506   0.611 -0.0087 -0.2737 -0.1249
  560poe    c31 4560   4.771   2.628   0.615 -0.1435 -0.3568  0.0292
  561poe    c31 4561   4.052   1.302   1.014  0.6267 -0.2042 -0.1603
  561poe     o2 4562   4.046   1.174   1.073 -0.6060  0.3651  0.9971
  561poe    c23 4563   3.941   1.096   1.020  0.2719 -0.4101  0.3845
  561poe    c23 4564   3.935   0.957   1.085  0.2877 -0.6938 -0.2054
  561poe     o2 4565   3.992   0.974   1.213  0.2450  0.7247 -0.3623
  561poe    c23 4566   4.050   0.865   1.282 -0.3180  0.4051 -0.3871
  561poe    c23 4567   4.109   0.933   1.407 -0.0787 -0.1138 -0.2190
  561poe     o2 4568   4.167   1.047   1.348 -0.3062 -0.0629 -0.3454
  561poe    c23 4569   4.231   1.123   1.448 -0.2377 -0.3713 -0.1538
  561poe    c23 4570   4.207   1.267   1.399 -0.3613 -0.5903 -0.7405
  561poe     o2 4571   4.083   1.289   1.336 -0.4911  0.4490 -0.1345
  561poe    c31 4572   4.053   1.426   1.349  0.2529  0.6582 -0.5523
  562poe    c31 4573   2.340   2.366   4.117 -0.3170  0.5279 -0.1023
  562poe     o2 4574   2.257   2.254   4.096 -0.1005  0.4538 -0.5662
  562poe    c23 4575   2.322   2.174   4.000 -0.1610 -0.4526  0.1435
  562poe    c23 4576   2.213   2.071   3.966 -0.0817 -0.2794 -0.6450
  562poe     o2 4577   2.158   2.030   4.089 -0.3225  0.1732 -0.6020
  562poe    c23 4578   2.048   1.942   4.085 -0.2075 -0.0021  0.0402
  562poe    c23 4579   2.026   1.901   4.232 -0.1693 -0.4810 -0.0841
  562poe     o2 4580   2.038   2.018   4.310 -0.0964 -0.5777  0.0493
  562poe    c23 4581   1.918   2.092   4.314  0.1305 -0.2252  0.4141
  562poe    c23 4582   1.942   2.230   4.378 -0.1702  0.3050 -0.5973
  562poe     o2 4583   2.049   2.308   4.330  0.3241  0.1959  0.3025
  562poe    c31 4584   2.027   2.443   4.366  0.0758  0.2835 -0.1656
  563poe    c31 4585   2.028   2.940   4.970 -0.2544  0.4220  0.8189
  563poe     o2 4586   2.036   2.801   4.991 -0.0713  0.2776 -0.1540
  563poe    c23 4587   2.163   2.755   4.950 -0.2574 -0.1117 -0.2976
  563poe    c23 4588   2.153   2.601   4.946 -0.1114 -0.1187 -0.3709
  563poe     o2 4589   2.119   2.575   5.080  0.7082 -0.4921 -0.2290
  563poe    c23 4590   2.091   2.438   5.100 -0.8134 -0.1226  0.2817
  563poe    c23 4591   1.991   2.424   5.216 -0.2872 -0.7576  0.6668
  563poe     o2 4592   1.887   2.516   5.187  0.3696 -0.0237  0.5966
  563poe    c23 4593   1.788   2.547   5.282 -0.2495  0.3760 -0.1667
  563poe    c23 4594   1.712   2.654   5.203 -0.4646 -0.0294 -0.5149
  563poe     o2 4595   1.813   2.752   5.190 -0.4314  0.0604  0.3383
  563poe    c31 4596   1.770   2.885   5.204 -0.5702  0.0984 -0.4048
  564poe    c31 4597   0.853   3.089   5.938  0.0588 -0.1253 -0.1783
  564poe     o2 4598   0.804   2.971   5.880  0.0626 -0.0408 -0.3536
  564poe    c23 4599   0.823   2.990   5.741  0.9594 -0.4542 -0.2972
  564poe    c23 4600   0.780   2.861   5.668 -0.2590  0.0378 -0.4754
  564poe     o2 4601   0.833   2.747   5.730 -0.4480  0.0256 -0.3370
  564poe    c23 4602   0.809   2.617   5.680 -0.7696 -0.1798  0.3293
  564poe    c23 4603   0.876   2.522   5.780 -0.0116  0.1840  0.1711
  564poe     o2 4604   0.865   2.570   5.912  0.2052  0.0185  0.2497
  564poe    c23 4605   0.988   2.615   5.964  0.2484 -0.1937  0.3343
  564poe    c23 4606   0.961   2.682   6.100 -0.0574  0.3292  0.0208
  564poe     o2 4607   0.888   2.801   6.082  0.1543  0.4347 -0.1493
  564poe    c31 4608   0.881   2.868   6.206 -0.8445 -0.6118  0.3780
  565poe    c31 4609   0.992   1.104   1.352 -0.1654  0.5224  0.1060
  565poe     o2 4610   0.987   1.199   1.248  0.1367  0.0353 -0.3568
  565poe    c23 4611   0.973   1.127   1.128 -0.4778 -0.4715  0.0081
  565poe    c23 4612   0.978   1.208   0.997  0.1851 -0.4353  0.0520
  565poe     o2 4613   1.102   1.273   0.974 -0.2620  0.4623  0.1374
  565poe    c23 4614   1.096   1.318   0.840  0.1055  0.1319  0.0075
  565poe    c23 4615   1.227   1.397   0.824  0.2014  0.0528  0.3846
  565poe     o2 4616   1.236   1.494   0.927  0.0209  0.2926  0.1770
  565poe    c23 4617   1.341   1.587   0.918  0.1542  0.1561  0.3094
  565poe    c23 4618   1.318   1.697   1.024  0.3862  0.3630  0.1459
  565poe     o2 4619   1.259   1.638   1.137 -0.0333  0.0341 -0.2414
  565poe    c31 4620   1.237   1.740   1.232 -0.1936 -0.1534 -0.0752
  566poe    c31 4621   4.041   0.991   0.502 -0.6488 -0.4474 -0.0735
  566poe     o2 4622   4.164   1.004   0.569 -0.5320  0.1555 -0.3932
  566poe    c23 4623   4.138   1.014   0.707 -0.0495 -0.8021 -0.2208
  566poe    c23 4624   4.275   1.024   0.779 -0.3535  0.2141  0.2390
  566poe     o2 4625   4.354   0.930   0.709 -0.0996  0.0006  0.8090
  566poe    c23 4626   4.484   0.928   0.763  0.0723 -0.0355  0.3992
  566poe    c23 4627   4.582   0.895   0.649 -0.6112 -0.4106 -0.0854
  566poe     o2 4628   4.562   0.967   0.530  0.3009 -0.3457 -0.2012
  566poe    c23 4629   4.653   0.944   0.424  0.6919  0.3038 -0.0144
  566poe    c23 4630   4.611   0.984   0.282 -0.5171 -0.4963  0.1014
  566poe     o2 4631   4.498   0.919   0.228 -0.5057 -0.3917 -0.0501
  566poe    c31 4632   4.463   0.972   0.102  0.0066 -0.1399 -0.0891
  567poe    c31 4633   4.314   6.116   6.295 -0.0078 -0.6936  0.5652
  567poe     o2 4634   4.347   6.231   6.221  0.1631 -0.8172  0.4482
  567poe    c23 4635   4.379   6.346   6.296 -0.2714 -0.1256 -0.4030
  567poe    c23 4636   4.335   6.471   6.217  0.1283  0.5779  0.4657
  567poe     o2 4637   4.224   6.435   6.138  0.2733  0.7888  0.1618
  567poe    c23 4638   4.212   6.525   6.030  0.0736  0.0372 -0.4507
  567poe    c23 4639   4.197   6.467   5.888  0.5383  0.1509 -0.5477
  567poe     o2 4640   4.269   6.346   5.903  0.1866 -0.0364 -0.3582
  567poe    c23 4641   4.242   6.273   5.786  0.5064  0.0545 -0.4897
  567poe    c23 4642   4.313   6.139   5.807 -0.4599 -0.3457  0.3101
  567poe     o2 4643   4.299   6.104   5.943  0.6208 -0.0349  0.5161
  567poe    c31 4644   4.333   5.968   5.952  0.6535 -0.0597  0.0585
  568poe    c31 4645   5.280   5.013   2.687 -0.6784 -0.4300 -0.3035
  568poe     o2 4646   5.236   5.142   2.650  0.3505 -0.1010 -0.4295
  568poe    c23 4647   5.347   5.217   2.692 -0.0011  0.2450 -0.0991
  568poe    c23 4648   5.302   5.364   2.693 -0.3927  0.1240  0.4866
  568poe     o2 4649   5.240   5.376   2.566 -0.3852 -0.2734  0.4441
  568poe    c23 4650   5.188   5.506   2.556  0.1498 -0.0872  0.0511
  568poe    c23 4651   5.068   5.501   2.460  0.4075 -0.2194 -0.2653
  568poe     o2 4652   5.001   5.390   2.514  0.0848 -0.3350 -0.9010
  568poe    c23 4653   4.899   5.334   2.434 -0.9869  0.0133  0.1907
  568poe    c23 4654   4.850   5.209   2.510 -0.3378 -0.2129  0.2467
  568poe     o2 4655   4.957   5.122   2.535 -0.2097 -0.3053 -0.6035
  568poe    c31 4656   4.908   5.020   2.619 -0.7288  0.0234 -0.5002
  569poe    c31 4657   4.823   3.556   2.618 -0.0896  0.1973  0.0240
  569poe     o2 4658   4.946   3.574   2.552 -0.3374 -0.3164 -0.5880
  569poe    c23 4659   4.916   3.610   2.419 -0.6264 -1.0848 -0.7388
  569poe    c23 4660   5.039   3.612   2.328 -0.3487 -0.0068 -0.3602
  569poe     o2 4661   5.104   3.487   2.320  0.3787  0.3392 -0.0198
  569poe    c23 4662   5.242   3.491   2.294  0.3534  0.3642 -0.1485
  569poe    c23 4663   5.309   3.355   2.320  0.2307  0.2187 -0.5705
  569poe     o2 4664   5.273   3.317   2.451  0.7015 -0.3834 -0.6146
  569poe    c23 4665   5.346   3.199   2.480  0.0324 -0.6127  0.1818
  569poe    c23 4666   5.311   3.153   2.623 -0.3444 -0.1682  0.2377
  569poe     o2 4667   5.175   3.183   2.639 -0.3241  0.1032 -0.0856
  569poe    c31 4668   5.109   3.105   2.736 -0.4444 -0.3382 -0.5161
  570poe    c31 4669   2.193   3.870   3.030 -0.4584  0.5743  0.0415
  570poe     o2 4670   2.216   3.999   2.979  0.3943  0.5035  0.2249
  570poe    c23 4671   2.179   4.086   3.084 -0.4930 -0.0207  0.3561
  570poe    c23 4672   2.257   4.219   3.083  0.0935 -0.3632  0.3356
  570poe     o2 4673   2.260   4.287   2.960 -0.4511  0.0135  0.5270
  570poe    c23 4674   2.311   4.416   2.986  0.5588 -0.3362  0.3229
  570poe    c23 4675   2.353   4.481   2.853 -0.0473 -0.7432 -0.0715
  570poe     o2 4676   2.241   4.458   2.771 -0.0328 -0.3753 -0.1951
  570poe    c23 4677   2.257   4.525   2.647 -0.6031 -0.0101 -0.0732
  570poe    c23 4678   2.145   4.473   2.556 -0.2163 -0.4308 -0.3124
  570poe     o2 4679   2.123   4.339   2.593  0.2407 -0.3908  0.1186
  570poe    c31 4680   2.046   4.264   2.500  0.4843 -0.6445  0.1204
  571poe    c31 4681   6.332   3.247   3.384 -0.2861  0.0657  0.2221
  571poe     o2 4682   6.279   3.378   3.384  0.4536  0.3696  0.2029
  571poe    c23 4683   6.309   3.445   3.264  0.3841 -0.1315 -0.0985
  571poe    c23 4684   6.335   3.594   3.292  0.2431 -0.1545  0.1542
  571poe     o2 4685   6.240   3.618   3.394  0.0729  0.5894 -0.1748
  571poe    c23 4686   6.253   3.727   3.483  0.1694  1.0739 -0.7701
  571poe    c23 4687   6.109   3.742   3.535  0.2952  0.1588 -0.1317
  571poe     o2 4688   6.079   3.618   3.595  0.0124  0.3047  0.0288
  571poe    c23 4689   5.944   3.580   3.579  0.0241  0.3817 -0.2572
  571poe    c23 4690   5.938   3.427   3.591 -0.1888  0.3921 -0.2335
  571poe     o2 4691   6.020   3.367   3.493  0.5625 -0.2448  0.7701
  571poe    c31 4692   5.946   3.278   3.412  0.3015  0.8658 -0.2367
  572poe    c31 4693   0.214   2.392   6.219  0.1468 -0.2250  0.0022
  572poe     o2 4694   0.104   2.458   6.277  0.2985  0.0900 -0.0628
  572poe    c23 4695   0.111   2.448   6.418  1.0310 -1.0713 -0.1719
  572poe    c23 4696   0.040   2.320   6.467 -0.2294 -0.5565 -0.6164
  572poe     o2 4697  -0.084   2.322   6.399 -0.5769 -0.0744  0.0289
  572poe    c23 4698  -0.104   2.196   6.339  0.2587 -0.0503 -0.3236
  572poe    c23 4699  -0.191   2.219   6.214  0.5017 -0.0936 -0.4985
  572poe     o2 4700  -0.144   2.327   6.135  0.6376  0.3812  0.2235
  572poe    c23 4701  -0.203   2.332   6.007 -0.6554  0.1157  0.7846
  572poe    c23 4702  -0.123   2.441   5.932 -0.4964 -0.3694  0.2414
  572poe     o2 4703  -0.039   2.513   6.019 -0.0964 -0.1621 -0.3160
  572poe    c31 4704   0.028   2.609   5.940  0.3409 -0.4755 -0.3330
  573poe    c31 4705   0.989   0.636   2.154  0.1534  0.8010  0.1801
  573poe     o2 4706   0.857   0.623   2.204  0.1474  0.4644  0.0813
  573poe    c23 4707   0.798   0.750   2.187 -0.4102  0.2841  0.6343
  573poe    c23 4708   0.646   0.748   2.209 -0.4641 -0.1356  0.2405
  573poe     o2 4709   0.606   0.678   2.325 -0.1980 -0.1524  0.3220
  573poe    c23 4710   0.471   0.643   2.305 -0.2452  0.0283  0.3243
  573poe    c23 4711   0.445   0.541   2.418  0.7966 -0.4089  0.1759
  573poe     o2 4712   0.523   0.570   2.532  0.4628  0.1552  0.2655
  573poe    c23 4713   0.508   0.461   2.621  0.3306 -0.5149 -0.5621
  573poe    c23 4714   0.579   0.475   2.757  0.3611  0.0516 -0.6357
  573poe     o2 4715   0.717   0.485   2.730  0.3156  0.6911 -0.6671
  573poe    c31 4716   0.810   0.494   2.835 -0.3907  0.3509 -0.0085
  574poe    c31 4717   6.762   0.471   6.023  0.3011  0.2938  0.4971
  574poe     o2 4718   6.655   0.504   6.110  0.0743  0.1932  0.2580
  574poe    c23 4719   6.693   0.619   6.182  0.3488  0.0114  0.4047
  574poe    c23 4720   6.650   0.588   6.326 -0.1184  0.0324  0.2691
  574poe     o2 4721   6.527   0.521   6.314  0.0769 -0.2881  0.0476
  574poe    c23 4722   6.489   0.446   6.428 -0.2355 -0.0980  0.0709
  574poe    c23 4723   6.432   0.312   6.377 -0.2074 -0.1303  0.1236
  574poe     o2 4724   6.500   0.274   6.259 -0.0474  0.2247  0.1004
  574poe    c23 4725   6.435   0.165   6.199  0.2935  0.2841 -0.3830
  574poe    c23 4726   6.470   0.155   6.049  0.3960 -0.2716 -0.3249
  574poe     o2 4727   6.493   0.291   6.019  0.2072 -0.1796 -0.0641
  574poe    c31 4728   6.501   0.300   5.878 -0.0369  0.0750 -0.0612
  575poe    c31 4729   3.554   2.733   3.497 -0.1828  0.1306 -0.0951
  575poe     o2 4730   3.440   2.794   3.552 -0.4485 -0.3869 -0.0621
  575poe    c23 4731   3.408   2.747   3.681  0.2220 -0.0709  0.2252
  575poe    c23 4732   3.260   2.755   3.724  0.1816 -0.3638  0.1453
  575poe     o2 4733   3.172   2.675   3.648  0.8241 -0.5729 -0.3949
  575poe    c23 4734   3.044   2.681   3.706  0.7428 -0.0085 -0.6313
  575poe    c23 4735   2.944   2.589   3.633  0.0344  0.4443 -0.2475
  575poe     o2 4736   2.979   2.613   3.498 -0.6908  0.2015 -0.4848
  575poe    c23 4737   2.926   2.511   3.416 -0.5149 -0.3374  0.0631
  575poe    c23 4738   2.920   2.536   3.264 -0.1947  0.0420  0.1092
  575poe     o2 4739   3.047   2.576   3.218 -0.3049  0.6374  0.3125
  575poe    c31 4740   3.082   2.524   3.092 -0.5658  1.0009  0.0869
  576poe    c31 4741   2.130   2.396   2.692 -0.4543  0.7986 -0.0445
  576poe     o2 4742   2.143   2.474   2.576  0.9289  0.2670 -0.2711
  576poe    c23 4743   2.017   2.484   2.513  0.6973 -0.6333  0.0424
  576poe    c23 4744   2.028   2.596   2.408 -0.0832 -0.4749  0.1213
  576poe     o2 4745   2.104   2.575   2.290  0.0680  0.3266  0.0753
  576poe    c23 4746   2.095   2.682   2.199  0.3815  0.0001 -0.3404
  576poe    c23 4747   2.208   2.678   2.094  0.3716  0.0510 -0.3526
  576poe     o2 4748   2.331   2.656   2.160 -0.1008 -0.3585  0.4025
  576poe    c23 4749   2.418   2.615   2.057 -0.3035 -0.1461  0.1420
  576poe    c23 4750   2.555   2.615   2.128 -0.2308 -0.0792  0.0007
  576poe     o2 4751   2.548   2.535   2.244  0.0974  0.2048  0.2198
  576poe    c31 4752   2.675   2.503   2.296  0.3245  0.7595  0.0144
  577poe    c31 4753   4.211   4.480   2.486 -0.2003 -0.0142  0.3306
  577poe     o2 4754   4.321   4.460   2.401 -0.3658  0.6133 -0.0366
  577poe    c23 4755   4.439   4.518   2.452  0.1026 -0.5151  0.1995
  577poe    c23 4756   4.555   4.509   2.352 -0.0273  0.1137 -0.0136
  577poe     o2 4757   4.505   4.515   2.220  0.3838  1.2211 -0.1311
  577poe    c23 4758   4.605   4.463   2.136 -0.0491 -0.0443  0.1087
  577poe    c23 4759   4.550   4.466   1.992 -0.1984  0.2403  0.1705
  577poe     o2 4760   4.416   4.424   2.006 -0.1443 -0.1380 -0.3963
  577poe    c23 4761   4.321   4.486   1.922  0.1120 -0.0352 -0.6166
  577poe    c23 4762   4.187   4.436   1.979  0.1490  0.6275  0.0720
  577poe     o2 4763   4.177   4.444   2.120 -0.1976  0.9749  0.0278
  577poe    c31 4764   4.040   4.427   2.152 -0.2100  0.8797 -0.0723
  578poe    c31 4765   2.190   3.119   3.189  0.0297  0.0166  0.1274
  578poe     o2 4766   2.173   3.226   3.097  0.3957 -0.3454 -0.3662
  578poe    c23 4767   2.051   3.207   3.031  0.1938 -0.3085 -0.0075
  578poe    c23 4768   1.998   3.336   2.966 -0.3154 -0.3536  0.3109
  578poe     o2 4769   2.112   3.392   2.905 -0.1731  0.0658  0.9432
  578poe    c23 4770   2.091   3.512   2.833 -0.1558  0.0267  0.8722
  578poe    c23 4771   2.227   3.564   2.783 -0.2795 -0.2860  0.1986
  578poe     o2 4772   2.319   3.544   2.889 -0.1322  0.0690  0.1383
  578poe    c23 4773   2.455   3.523   2.860 -0.1603 -0.1602  0.1707
  578poe    c23 4774   2.512   3.463   2.990  0.0480  0.1741  0.2364
  578poe     o2 4775   2.433   3.353   3.028  0.3826 -0.2694 -0.3336
  578poe    c31 4776   2.513   3.246   3.074  0.8057  0.1481 -0.1001
  579poe    c31 4777   1.313   1.304   1.832  0.4806 -0.3650  0.7820
  579poe     o2 4778   1.184   1.327   1.882 -0.0966 -0.3170 -0.6788
  579poe    c23 4779   1.175   1.275   2.013 -0.6160  0.5768 -0.3519
  579poe    c23 4780   1.038   1.207   2.022 -0.5747  0.5862  0.4381
  579poe     o2 4781   0.953   1.286   1.943  0.1102  0.5702 -0.3229
  579poe    c23 4782   0.842   1.220   1.887 -0.5248  0.7967  0.6474
  579poe    c23 4783   0.875   1.208   1.737 -0.0605  0.0349  0.8047
  579poe     o2 4784   0.919   1.339   1.709  0.5627 -0.3523 -0.1006
  579poe    c23 4785   0.950   1.356   1.573 -0.0743 -0.0237 -0.2121
  579poe    c23 4786   1.013   1.496   1.579  0.0989 -0.1266  0.5480
  579poe     o2 4787   1.089   1.500   1.698 -0.1864 -0.3160  0.7361
  579poe    c31 4788   1.180   1.605   1.675 -0.8523  0.2228  0.5233
  580poe    c31 4789   0.861   6.570   4.586 -0.0193 -0.2164 -0.3477
  580poe     o2 4790   0.751   6.631   4.524  0.5640  0.7649 -0.4412
  580poe    c23 4791   0.734   6.587   4.391 -0.1830  0.1109 -0.1399
  580poe    c23 4792   0.688   6.711   4.311 -0.3118 -0.2720 -0.6641
  580poe     o2 4793   0.578   6.761   4.384  0.0274 -0.3631 -0.0852
  580poe    c23 4794   0.498   6.857   4.318  0.2841 -0.1512 -0.0912
  580poe    c23 4795   0.531   6.998   4.369 -0.9969  0.0504  0.2068
  580poe     o2 4796   0.560   6.975   4.505 -0.1041  0.1136  0.0350
  580poe    c23 4797   0.681   7.037   4.542 -0.2940  0.1266  0.6503
  580poe    c23 4798   0.729   6.999   4.683  0.4090  0.1606  0.4233
  580poe     o2 4799   0.726   6.858   4.673  0.4796  0.1694  0.2636
  580poe    c31 4800   0.736   6.813   4.806 -0.4211 -0.5468  0.1007
  581poe    c31 4801   5.865   3.820   5.193  0.1245 -1.0398 -0.3977
  581poe     o2 4802   5.781   3.839   5.082  0.1758 -0.2211 -0.2983
  581poe    c23 4803   5.839   3.781   4.967 -0.3946 -0.5188 -0.4343
  581poe    c23 4804   5.807   3.865   4.842  0.4216  0.1490 -0.2037
  581poe     o2 4805   5.666   3.865   4.842  0.4199 -0.0577 -0.4733
  581poe    c23 4806   5.621   3.986   4.785 -0.1964  0.0640  0.2521
  581poe    c23 4807   5.470   3.987   4.816 -0.1856 -0.1211  0.3090
  581poe     o2 4808   5.461   3.966   4.955  0.0306 -0.1815  0.3145
  581poe    c23 4809   5.336   3.909   4.987 -0.2858  0.3757  0.0826
  581poe    c23 4810   5.343   3.867   5.135 -0.8021  0.2164  0.0659
  581poe     o2 4811   5.473   3.813   5.150 -0.8805 -0.0401 -0.1823
  581poe    c31 4812   5.491   3.772   5.284 -0.0163 -0.4681 -0.4282
  582poe    c31 4813   4.499   2.996   4.511 -0.2443  0.1152  0.5165
  582poe     o2 4814   4.431   2.872   4.518  0.6846 -0.4290  0.1445
  582poe    c23 4815   4.332   2.885   4.419  0.7777  0.1048  0.1179
  582poe    c23 4816   4.259   2.762   4.362  0.5349  0.0131  0.6224
  582poe     o2 4817   4.218   2.686   4.473 -0.3327 -0.6001 -0.1029
  582poe    c23 4818   4.198   2.551   4.436 -0.0556 -0.7698  0.3483
  582poe    c23 4819   4.081   2.478   4.504  0.0468 -0.9573  0.3251
  582poe     o2 4820   3.971   2.567   4.501  0.3001 -0.6563 -0.1196
  582poe    c23 4821   3.859   2.503   4.559 -0.0900  0.6907  0.6301
  582poe    c23 4822   3.734   2.593   4.562 -0.0912  0.7272 -0.3172
  582poe     o2 4823   3.614   2.557   4.626  0.1014  0.4585 -0.1086
  582poe    c31 4824   3.526   2.665   4.645  0.1413  0.4370  0.2122
  583poe    c31 4825   4.544   1.165   1.064  0.5546 -0.3685 -0.0480
  583poe     o2 4826   4.541   1.051   1.147  0.1755 -0.0700  0.3503
  583poe    c23 4827   4.413   0.993   1.154  0.1045  0.0957  0.4506
  583poe    c23 4828   4.432   0.869   1.244 -0.3808 -0.0717  0.3254
  583poe     o2 4829   4.517   0.900   1.352  0.6233  0.2478 -0.5381
  583poe    c23 4830   4.531   0.794   1.444 -0.6442  0.4699 -0.0688
  583poe    c23 4831   4.621   0.855   1.553  0.6662 -1.0634 -0.2633
  583poe     o2 4832   4.738   0.897   1.486  0.2619  0.0176 -0.3073
  583poe    c23 4833   4.831   0.904   1.591 -0.7616 -0.0256  0.6133
  583poe    c23 4834   4.945   1.003   1.561 -0.4546 -0.5507  0.0341
  583poe     o2 4835   5.059   1.014   1.643 -0.6529 -0.6003  0.3210
  583poe    c31 4836   5.043   1.044   1.780  0.3340  0.0773  0.3044
  584poe    c31 4837   6.536   2.224   0.910 -0.4544  0.3778  0.0918
  584poe     o2 4838   6.564   2.103   0.978 -0.4424  0.0021 -0.5750
  584poe    c23 4839   6.457   2.077   1.066 -0.6302  0.2217 -0.7351
  584poe    c23 4840   6.391   1.947   1.015 -0.4694 -0.0001 -0.3790
  584poe     o2 4841   6.506   1.872   0.981 -0.3702 -0.1015  0.1628
  584poe    c23 4842   6.490   1.732   0.985  0.3063 -0.1854  0.0104
  584poe    c23 4843   6.627   1.662   0.984  0.2727 -0.2750  0.9053
  584poe     o2 4844   6.704   1.767   1.039 -0.1284  0.3761  0.2426
  584poe    c23 4845   6.844   1.755   1.041 -0.1594 -0.0652 -0.0162
  584poe    c23 4846   6.899   1.872   1.125  0.2195 -0.2289 -0.0331
  584poe     o2 4847   6.827   1.975   1.060 -0.4492 -0.4704  0.3087
  584poe    c31 4848   6.896   2.096   1.080  0.4238 -0.7200 -1.0295
  585poe    c31 4849   4.025   5.910   4.883  1.2466 -0.1075 -0.5809
  585poe     o2 4850   4.019   5.893   5.023  0.0538 -0.0429 -0.6165
  585poe    c23 4851   4.118   5.975   5.080 -0.5440  0.2653 -0.0105
  585poe    c23 4852   4.167   5.916   5.214 -0.1798 -0.0017 -0.2563
  585poe     o2 4853   4.048   5.915   5.290  0.2203  0.3238  0.3827
  585poe    c23 4854   4.068   5.829   5.400  0.0918 -0.0559  0.1090
  585poe    c23 4855   3.941   5.751   5.437 -0.0106 -0.1636 -0.4583
  585poe     o2 4856   3.875   5.716   5.317 -0.1785 -0.4906 -0.2720
  585poe    c23 4857   3.735   5.706   5.330 -0.1833 -0.1703 -0.0731
  585poe    c23 4858   3.684   5.663   5.191  0.4608 -0.2001 -0.3056
  585poe     o2 4859   3.766   5.712   5.088 -0.0085  0.0757 -0.5548
  585poe    c31 4860   3.711   5.678   4.963  0.3367 -0.0446 -0.6784
  586poe    c31 4861   5.384   3.927   0.411 -0.8713  0.4544  0.3873
  586poe     o2 4862   5.505   3.961   0.474 -0.4384  0.0166 -0.1833
  586poe    c23 4863   5.599   4.008   0.380  0.0027 -0.1178  0.1861
  586poe    c23 4864   5.716   4.076   0.454  0.1853  0.0250 -0.2322
  586poe     o2 4865   5.743   3.987   0.561 -0.0203  0.1186 -0.1014
  586poe    c23 4866   5.830   4.052   0.651 -0.1732 -0.3233  0.3657
  586poe    c23 4867   5.813   3.971   0.781  0.4594 -0.1907  0.5331
  586poe     o2 4868   5.678   3.940   0.805  0.3367 -0.0038  0.0945
  586poe    c23 4869   5.669   3.888   0.936 -0.1008 -0.4431 -0.1041
  586poe    c23 4870   5.523   3.870   0.981  0.0081 -0.1324  0.3711
  586poe     o2 4871   5.453   3.774   0.906  0.2941 -0.0845  0.0405
  586poe    c31 4872   5.317   3.777   0.942  0.2340  0.2840 -0.2159
  587poe    c31 4873   6.836   0.329   5.033  0.2068 -0.3602  0.1481
  587poe     o2 4874   6.812   0.195   5.067  0.2649 -0.2797  0.5191
  587poe    c23 4875   6.676   0.164   5.088 -0.0566  0.3381 -0.5864
  587poe    c23 4876   6.669   0.022   5.147  0.1043  0.4236 -0.3616
  587poe     o2 4877   6.766   0.013   5.249  0.1724  0.1153 -0.4525
  587poe    c23 4878   6.749  -0.099   5.332  0.0612 -0.1048 -0.7698
  587poe    c23 4879   6.853  -0.095   5.446 -0.4137  0.7177 -0.3563
  587poe     o2 4880   6.958  -0.041   5.369  0.7414 -0.5047  0.3190
  587poe    c23 4881   7.049   0.048   5.430  0.2624  0.3832 -0.2481
  587poe    c23 4882   7.139   0.116   5.325  0.5883  0.0758 -0.1677
  587poe     o2 4883   7.055   0.163   5.222  0.3096  0.0357  0.0406
  587poe    c31 4884   7.138   0.221   5.123 -0.0426 -0.6210 -0.6461
  588poe    c31 4885   4.096   2.022   2.192 -1.0825 -0.7047  0.5629
  588poe     o2 4886   4.040   2.080   2.076  0.4473 -0.4935 -0.0908
  588poe    c23 4887   3.939   2.002   2.016  0.1333  0.2915 -0.5975
  588poe    c23 4888   3.821   2.088   1.967 -0.2140  0.1588  0.0078
  588poe     o2 4889   3.904   2.188   1.913  0.4899  0.0192  0.7964
  588poe    c23 4890   3.845   2.251   1.801  0.0180 -0.0162  1.0227
  588poe    c23 4891   3.914   2.387   1.781  0.3233 -0.3560 -0.3760
  588poe     o2 4892   4.045   2.363   1.827  0.3592  0.1818 -0.1877
  588poe    c23 4893   4.118   2.481   1.850 -0.3354  0.4521  0.6805
  588poe    c23 4894   4.257   2.425   1.885 -0.0279  0.3737 -0.6191
  588poe     o2 4895   4.247   2.338   1.995  0.1154  0.9528 -0.1413
  588poe    c31 4896   4.376   2.294   2.033 -0.0524  0.5712 -0.0119
  589poe    c31 4897   5.059   2.629   5.927  0.7580  0.7151 -0.0351
  589poe     o2 4898   5.011   2.646   5.795 -0.0860  0.1400  0.1940
  589poe    c23 4899   5.104   2.713   5.713 -0.0628  0.3111  0.3588
  589poe    c23 4900   5.037   2.759   5.583 -0.2586 -0.7170  0.0826
  589poe     o2 4901   4.934   2.667   5.554 -0.8913 -0.0835  0.2686
  589poe    c23 4902   4.856   2.706   5.443  0.1404 -0.6612 -0.6876
  589poe    c23 4903   4.733   2.617   5.471 -0.2412  0.0218 -0.1780
  589poe     o2 4904   4.711   2.623   5.610  0.4693  0.0420 -0.0666
  589poe    c23 4905   4.602   2.539   5.642  0.2331  0.4175  0.1111
  589poe    c23 4906   4.559   2.570   5.786 -0.1320  0.1056  0.0707
  589poe     o2 4907   4.676   2.570   5.864 -0.2563 -0.4403  0.2622
  589poe    c31 4908   4.667   2.628   5.993 -0.0062  0.1123  0.0326
  590poe    c31 4909   5.634   1.898   2.710  0.1304  0.1163  0.3183
  590poe     o2 4910   5.610   2.012   2.791 -0.2852  0.3635 -0.1460
  590poe    c23 4911   5.510   2.096   2.739  0.0556  0.7229 -0.2291
  590poe    c23 4912   5.508   2.236   2.802 -0.1148  0.7750 -0.3496
  590poe     o2 4913   5.452   2.228   2.931 -0.5347  0.2825 -0.5589
  590poe    c23 4914   5.410   2.358   2.967 -0.0301  0.2171  0.3092
  590poe    c23 4915   5.392   2.384   3.117 -0.3049 -0.1669  0.3441
  590poe     o2 4916   5.314   2.280   3.172  0.1866 -0.4453  0.5240
  590poe    c23 4917   5.178   2.317   3.172  0.3116  0.0577 -0.9813
  590poe    c23 4918   5.070   2.208   3.172 -0.0330  0.3905  0.2051
  590poe     o2 4919   5.082   2.148   3.299  0.0528  0.8351  0.4090
  590poe    c31 4920   4.963   2.084   3.339  0.1709  0.2168 -0.2070
  591poe    c31 4921   2.292   5.902   1.253  0.3450 -0.3345 -0.6698
  591poe     o2 4922   2.248   5.890   1.120 -0.4658 -0.4811 -0.3950
  591poe    c23 4923   2.358   5.896   1.032 -0.4146  0.0531 -0.3012
  591poe    c23 4924   2.323   5.941   0.889  0.2726  0.3880 -0.3672
  591poe     o2 4925   2.204   5.873   0.856 -0.2560  0.6018  1.0185
  591poe    c23 4926   2.131   5.928   0.749 -0.2597  0.0101  0.7113
  591poe    c23 4927   1.983   5.890   0.771 -0.3780  0.1324  0.1358
  591poe     o2 4928   1.955   5.914   0.906 -0.1428  0.2894  0.1572
  591poe    c23 4929   1.824   5.888   0.951  0.1904 -1.1617  0.3262
  591poe    c23 4930   1.816   5.949   1.092  0.0630 -0.0787 -0.1387
  591poe     o2 4931   1.940   5.917   1.151 -0.1860 -0.6468  0.0839
  591poe    c31 4932   1.933   5.946   1.289 -0.1601 -0.3083  0.0150
  592poe    c31 4933   5.339   5.539   1.537  0.2787 -0.4257 -0.2875
  592poe     o2 4934   5.274   5.414   1.526 -0.1620 -0.2374  0.1209
  592poe    c23 4935   5.239   5.373   1.395  0.1106  0.1701 -0.0841
  592poe    c23 4936   5.184   5.229   1.389  0.3983  0.0534  0.0634
  592poe     o2 4937   5.187   5.173   1.518 -0.2355  0.0123  0.0632
  592poe    c23 4938   5.115   5.052   1.521  0.0069 -0.1309  0.1989
  592poe    c23 4939   5.104   5.017   1.670  1.2212 -0.4396  0.2259
  592poe     o2 4940   5.050   5.125   1.742  0.7550 -0.3406 -0.2684
  592poe    c23 4941   4.995   5.065   1.857  0.3324  0.1560 -0.2065
  592poe    c23 4942   4.901   5.142   1.952  0.3393  0.2674 -0.2902
  592poe     o2 4943   4.782   5.173   1.882  0.3215  0.3188 -0.2378
  592poe    c31 4944   4.680   5.234   1.957 -0.0894 -0.0332 -0.5076
  593poe    c31 4945   3.249   1.302   3.167  0.1408  0.1449 -0.3038
  593poe     o2 4946   3.349   1.400   3.190 -0.0506  0.1884  0.3901
  593poe    c23 4947   3.481   1.351   3.196 -0.0517  0.1333  0.0321
  593poe    c23 4948   3.520   1.380   3.342  0.5436  0.0931 -0.1159
  593poe     o2 4949   3.508   1.518   3.368  0.2634  0.0497 -0.0063
  593poe    c23 4950   3.548   1.549   3.499 -0.1671 -0.3949  0.2314
  593poe    c23 4951   3.521   1.697   3.529 -0.2041 -0.3749  0.0995
  593poe     o2 4952   3.381   1.706   3.530 -0.1776  0.0945  0.1222
  593poe    c23 4953   3.337   1.840   3.528 -0.0734  0.1359  0.5516
  593poe    c23 4954   3.191   1.851   3.578 -0.3018  0.0000 -0.0748
  593poe     o2 4955   3.098   1.793   3.489  0.1792 -0.6593 -0.1586
  593poe    c31 4956   2.976   1.853   3.526  0.4865  0.0695 -0.3075
  594poe    c31 4957   3.014   2.162   0.299  0.0056 -0.4800  0.2494
  594poe     o2 4958   3.012   2.105   0.428  0.6517 -1.3451 -0.1172
  594poe    c23 4959   2.881   2.062   0.453  0.1984  0.1332  0.1353
  594poe    c23 4960   2.892   1.983   0.585  0.2881  0.1738  0.1523
  594poe     o2 4961   2.970   2.064   0.670  0.4391  0.3252 -0.1290
  594poe    c23 4962   2.999   1.984   0.782  0.4728 -1.1621 -1.1602
  594poe    c23 4963   3.098   2.077   0.854 -0.4292 -0.4311 -0.8459
  594poe     o2 4964   3.177   2.140   0.756  0.2384 -0.1458 -0.1361
  594poe    c23 4965   3.204   2.271   0.800 -0.1852  0.0707 -0.5167
  594poe    c23 4966   3.109   2.364   0.723 -0.7521  0.0547  0.1523
  594poe     o2 4967   3.123   2.340   0.584  0.1999 -0.1423  0.2792
  594poe    c31 4968   3.190   2.429   0.498  0.0848 -0.7543 -0.4512
  595poe    c31 4969   6.726   5.083   1.297  0.1727 -0.4240  0.0671
  595poe     o2 4970   6.744   4.948   1.330 -1.5582 -0.6225  0.3166
  595poe    c23 4971   6.701   4.867   1.223 -0.1787 -0.4676 -0.3756
  595poe    c23 4972   6.687   4.725   1.282 -0.2169 -0.2191  0.2185
  595poe     o2 4973   6.789   4.704   1.377  0.0752  0.0699 -0.0307
  595poe    c23 4974   6.755   4.607   1.473  0.0945  0.1152  0.0214
  595poe    c23 4975   6.868   4.618   1.577 -0.1365 -0.2941  0.3206
  595poe     o2 4976   6.896   4.753   1.605 -0.5169 -0.2454  0.4711
  595poe    c23 4977   7.023   4.774   1.664 -0.4772  0.3168  0.1971
  595poe    c23 4978   7.058   4.910   1.601  0.4306 -0.1601 -0.3515
  595poe     o2 4979   7.009   4.926   1.470  0.3274  0.1306 -0.2776
  595poe    c31 4980   7.058   5.053   1.436 -0.3134  0.8287  1.2826
  596poe    c31 4981   3.924   5.142   1.919  0.4186 -0.3955 -0.3340
  596poe     o2 4982   3.872   5.027   1.982 -0.6603 -0.0071 -0.5064
  596poe    c23 4983   3.964   4.949   2.054 -0.9143  0.5008  0.3902
  596poe    c23 4984   3.895   4.843   2.142  0.3102 -1.1240 -0.5290
  596poe     o2 4985   3.800   4.786   2.055 -0.6035 -0.1823 -0.1736
  596poe    c23 4986   3.732   4.679   2.118  0.2397 -0.4623  0.2748
  596poe    c23 4987   3.647   4.624   2.002  1.1648 -0.0513 -0.6111
  596poe     o2 4988   3.574   4.729   1.941  0.6390 -0.1770 -0.2089
  596poe    c23 4989   3.553   4.690   1.807  0.2561  0.0035 -0.2002
  596poe    c23 4990   3.541   4.829   1.742 -0.7341  0.3410  0.6700
  596poe     o2 4991   3.643   4.920   1.776  0.1107 -0.2939 -0.1020
  596poe    c31 4992   3.619   5.049   1.724  1.0272  0.2278  0.7432
  597poe    c31 4993   4.472   5.968   2.320 -0.5456 -0.3535 -0.5092
  597poe     o2 4994   4.488   6.058   2.212 -0.4152 -0.4442 -0.5663
  597poe    c23 4995   4.397   6.164   2.230 -0.9601 -1.0219  0.1842
  597poe    c23 4996   4.355   6.206   2.088  0.2318 -0.0147  0.1102
  597poe     o2 4997   4.454   6.239   1.993 -0.2640  0.4485 -0.2476
  597poe    c23 4998   4.393   6.320   1.895 -0.1924  0.6115 -0.1588
  597poe    c23 4999   4.448   6.290   1.754  0.0668  0.0445  0.0603
  597poe     o2 5000   4.588   6.280   1.767 -0.0441 -1.0373  0.4902
  597poe    c23 5001   4.644   6.246   1.642 -0.0155  0.4262  0.0899
  597poe    c23 5002   4.795   6.230   1.669  0.0018  0.6385  0.1231
  597poe     o2 5003   4.784   6.160   1.791 -0.2574  0.0708 -0.2192
  597poe    c31 5004   4.903   6.088   1.814 -0.8053 -0.5246  0.8130
  598poe    c31 5005   1.645   6.844   0.841 -0.2598  0.8168  0.2229
  598poe     o2 5006   1.737   6.742   0.813 -0.1940  0.8208  0.4188
  598poe    c23 5007   1.864   6.795   0.781  0.4372 -0.5690  0.5121
  598poe    c23 5008   1.963   6.700   0.713  0.4205 -0.0622 -0.2266
  598poe     o2 5009   1.958   6.577   0.782  0.6931  0.0000 -0.0911
  598poe    c23 5010   2.000   6.462   0.712  0.6672  0.0876 -0.2516
  598poe    c23 5011   1.924   6.349   0.783  0.1315  0.0794 -0.8331
  598poe     o2 5012   1.795   6.400   0.811  0.1630 -0.4202  0.2754
  598poe    c23 5013   1.697   6.308   0.852 -0.3459  0.2219  0.5109
  598poe    c23 5014   1.551   6.356   0.840 -0.5981 -0.6482 -0.0779
  598poe     o2 5015   1.562   6.490   0.883 -0.0239 -0.8073  0.2937
  598poe    c31 5016   1.441   6.537   0.939  0.3975  0.0275  0.5261
  599poe    c31 5017   1.056   0.887   5.569  0.2840 -0.2461  0.4761
  599poe     o2 5018   1.008   1.019   5.551  0.4393 -0.1629  0.6628
  599poe    c23 5019   0.955   1.056   5.676  0.0312  0.0971  0.4157
  599poe    c23 5020   0.923   1.207   5.670 -0.7398 -0.0782  0.0557
  599poe     o2 5021   0.853   1.229   5.550 -0.2511 -0.2949 -0.2735
  599poe    c23 5022   0.852   1.363   5.507 -0.4776 -0.0612  0.4532
  599poe    c23 5023   0.788   1.361   5.367 -0.1681 -0.6403  0.3173
  599poe     o2 5024   0.869   1.259   5.314  0.2210 -0.1508 -0.0370
  599poe    c23 5025   0.825   1.226   5.184 -0.3275 -0.2298  0.1642
  599poe    c23 5026   0.912   1.106   5.141  0.5988  0.3591  0.3658
  599poe     o2 5027   0.906   1.021   5.254 -0.5502 -0.0910 -0.0173
  599poe    c31 5028   0.946   0.890   5.218  0.1196  0.1064 -0.0158
  600poe    c31 5029   0.167   6.842   2.230  0.2673  0.3787  0.7248
  600poe     o2 5030   0.177   6.759   2.343 -0.5395 -0.1380  0.4298
  600poe    c23 5031   0.159   6.626   2.302  0.8700 -0.4230  0.6604
  600poe    c23 5032   0.152   6.538   2.428  0.3152 -0.7552  0.4037
  600poe     o2 5033   0.240   6.590   2.526  0.0892  0.2635  0.0678
  600poe    c23 5034   0.228   6.537   2.656  0.2448 -0.0501 -0.0444
  600poe    c23 5035   0.278   6.641   2.758 -0.1760 -0.2607  0.3820
  600poe     o2 5036   0.237   6.763   2.700  0.8814 -0.2812 -0.4445
  600poe    c23 5037   0.269   6.878   2.775  0.3511 -0.4984  0.1203
  600poe    c23 5038   0.214   6.992   2.687  0.6792 -0.4657 -0.0430
  600poe     o2 5039   0.241   6.957   2.553 -0.5513  0.3415 -0.5243
  600poe    c31 5040   0.237   7.078   2.482 -0.2457  0.9046  0.3939
  601poe    c31 5041   1.128   5.744   0.705 -0.3709  0.3369 -0.3695
  601poe     o2 5042   1.038   5.803   0.615 -0.3991  0.1941 -0.4347
  601poe    c23 5043   0.955   5.706   0.554 -0.4918  0.2780 -0.4419
  601poe    c23 5044   0.868   5.786   0.455 -0.7070  0.1323 -0.3703
  601poe     o2 5045   0.945   5.889   0.398  0.1323 -0.2315  0.0950
  601poe    c23 5046   0.880   5.987   0.321  0.1783 -0.5568 -0.3638
  601poe    c23 5047   0.846   6.108   0.411 -0.3218 -0.0931 -1.1612
  601poe     o2 5048   0.946   6.106   0.511 -1.3143  0.2886 -0.1442
  601poe    c23 5049   0.906   6.139   0.642 -0.5435 -0.3644  0.2657
  601poe    c23 5050   1.046   6.150   0.704 -0.2558  0.0596 -0.4394
  601poe     o2 5051   1.127   6.045   0.655  0.1529  0.2259 -0.1288
  601poe    c31 5052   1.252   6.066   0.717  0.2723 -0.2129 -0.2214
  602poe    c31 5053   6.174   1.089   0.531 -0.1092 -0.0812 -0.2631
  602poe     o2 5054   6.078   1.121   0.432 -0.2772  0.2001 -0.0102
  602poe    c23 5055   5.963   1.045   0.459 -0.3397  0.2034 -0.2629
  602poe    c23 5056   5.848   1.134   0.409 -0.5475  0.3179  0.4068
  602poe     o2 5057   5.902   1.168   0.283 -0.3409  0.0267  0.4144
  602poe    c23 5058   5.828   1.270   0.219 -0.2586  0.0831  0.4084
  602poe    c23 5059   5.878   1.247   0.075  0.0113  0.1353  0.4932
  602poe     o2 5060   6.017   1.229   0.083 -0.0369 -0.3525  0.2817
  602poe    c23 5061   6.091   1.348   0.066  0.0230 -0.3440  0.6012
  602poe    c23 5062   6.231   1.333   0.128  0.4320  0.1461 -0.1962
  602poe     o2 5063   6.219   1.311   0.267 -0.6907  0.6773 -0.1960
  602poe    c31 5064   6.341   1.330   0.335 -0.3695 -0.1131 -0.5320
  603poe    c31 5065   6.065   0.111   0.714 -0.2659 -0.3201  0.3146
  603poe     o2 5066   6.123  -0.002   0.776  0.4151 -0.1348  0.0243
  603poe    c23 5067   6.029  -0.106   0.792 -0.5418  0.7394  0.2040
  603poe    c23 5068   6.077  -0.205   0.899 -0.1839 -0.0306 -0.6517
  603poe     o2 5069   6.212  -0.227   0.865  0.1135  0.2136  0.3234
  603poe    c23 5070   6.303  -0.280   0.958  0.5446 -0.0442 -0.2444
  603poe    c23 5071   6.356  -0.161   1.040 -0.2702  0.0242  0.1901
  603poe     o2 5072   6.336  -0.047   0.960 -0.0151 -0.0952 -0.0444
  603poe    c23 5073   6.404   0.069   1.003  0.4867 -0.3670 -0.0880
  603poe    c23 5074   6.400   0.179   0.895  0.2611 -0.0493  0.2413
  603poe     o2 5075   6.378   0.125   0.767  0.0527  0.1062  0.2110
  603poe    c31 5076   6.409   0.234   0.683  0.0292 -0.6974 -0.8646
  604poe    c31 5077   0.517   5.261   6.527  0.0610 -0.0196  0.5826
  604poe     o2 5078   0.643   5.299   6.578  0.1162  0.1594  0.3151
  604poe    c23 5079   0.744   5.268   6.485 -0.1819 -0.4299  0.1863
  604poe    c23 5080   0.882   5.332   6.503 -0.4877  0.2252  0.2268
  604poe     o2 5081   0.905   5.311   6.641 -0.4966  0.3713  0.2508
  604poe    c23 5082   0.997   5.406   6.691 -0.2722 -0.0213  0.5885
  604poe    c23 5083   0.943   5.416   6.835  0.2030 -0.2039  0.7820
  604poe     o2 5084   0.806   5.447   6.824  0.2094 -0.4555 -0.1088
  604poe    c23 5085   0.764   5.469   6.957  0.1591 -0.8569 -0.0582
  604poe    c23 5086   0.620   5.415   6.958 -0.1396 -0.0668  0.5786
  604poe     o2 5087   0.610   5.295   6.884  0.0280  0.2564  0.0264
  604poe    c31 5088   0.487   5.233   6.914 -0.0863  0.4490 -0.0471
  605poe    c31 5089   4.059   4.866   4.014  0.0596 -0.7053  0.4980
  605poe     o2 5090   3.974   4.978   3.998  0.4052 -0.4728  0.2801
  605poe    c23 5091   4.028   5.104   4.032 -0.0056 -0.3444  0.4516
  605poe    c23 5092   3.920   5.169   4.122  0.1410  0.1282  0.2901
  605poe     o2 5093   3.794   5.140   4.067  0.4136 -0.0602 -0.2511
  605poe    c23 5094   3.690   5.214   4.128  0.3232  0.0402 -0.5266
  605poe    c23 5095   3.563   5.190   4.044 -0.2438  0.2915  0.2456
  605poe     o2 5096   3.570   5.059   3.992  0.2381  0.3247  0.2171
  605poe    c23 5097   3.458   5.008   3.923  0.6939  0.6405 -0.7694
  605poe    c23 5098   3.426   5.061   3.781 -0.2337  1.0019 -0.4405
  605poe     o2 5099   3.531   5.036   3.690 -0.1259 -0.0269 -0.0532
  605poe    c31 5100   3.530   5.127   3.582 -0.5739  0.1458  0.0919
  606poe    c31 5101   3.026   4.201   4.652 -0.2011  0.3114  0.4201
  606poe     o2 5102   3.063   4.077   4.708 -0.9107  0.2743  0.8120
  606poe    c23 5103   2.974   3.974   4.673  0.4298 -0.5973 -0.0901
  606poe    c23 5104   3.031   3.833   4.700  0.0935 -0.7640 -0.2480
  606poe     o2 5105   3.087   3.839   4.829  0.6559 -0.0490 -0.5234
  606poe    c23 5106   3.179   3.733   4.842  0.2635 -0.3057  0.1845
  606poe    c23 5107   3.228   3.763   4.985  0.8307 -0.2839 -0.0122
  606poe     o2 5108   3.254   3.901   4.996  0.8847 -0.3014  0.0841
  606poe    c23 5109   3.335   3.941   5.104  0.2959  0.0523  0.3976
  606poe    c23 5110   3.370   4.090   5.085 -0.1951  0.0994 -0.1577
  606poe     o2 5111   3.257   4.154   5.031  0.1949  0.4973 -0.5105
  606poe    c31 5112   3.308   4.267   4.964 -0.0529  0.6717 -0.4077
  607poe    c31 5113   3.893   3.529   3.724 -0.1320  0.0958  0.2001
  607poe     o2 5114   3.919   3.421   3.637  0.5002  0.3177  0.1090
  607poe    c23 5115   3.946   3.302   3.708  0.5471  0.2661  0.0042
  607poe    c23 5116   3.968   3.184   3.611  0.0490  0.4604 -0.3485
  607poe     o2 5117   4.048   3.223   3.502  0.5506 -0.0840 -0.1762
  607poe    c23 5118   4.063   3.122   3.405 -0.5382  0.0741 -0.5107
  607poe    c23 5119   4.138   3.166   3.278  0.3002  0.2245  0.0322
  607poe     o2 5120   4.088   3.289   3.231 -0.0480  0.0412 -0.0815
  607poe    c23 5121   4.155   3.322   3.112 -0.2473  0.4960 -0.0705
  607poe    c23 5122   4.116   3.453   3.041 -0.4147  0.3769 -0.1978
  607poe     o2 5123   4.140   3.439   2.903 -0.1805  0.2591 -0.1442
  607poe    c31 5124   4.047   3.525   2.842 -0.2818  0.5023  0.3510
  608poe    c31 5125   1.515   0.322   1.548  0.8312 -0.3914 -0.3667
  608poe     o2 5126   1.497   0.326   1.688  0.0795 -0.3805 -0.4561
  608poe    c23 5127   1.621   0.330   1.756 -0.2979  0.4746  0.1990
  608poe    c23 5128   1.607   0.335   1.909  0.1321  0.4279  0.2407
  608poe     o2 5129   1.474   0.364   1.947 -0.0732 -0.0115 -0.1267
  608poe    c23 5130   1.456   0.360   2.086 -0.3438  1.3329 -0.1065
  608poe    c23 5131   1.308   0.330   2.115 -0.0108 -0.1048  0.1744
  608poe     o2 5132   1.220   0.368   2.012  0.7249 -0.6299 -0.6664
  608poe    c23 5133   1.106   0.289   1.985 -0.1498  0.4269 -0.1861
  608poe    c23 5134   1.069   0.320   1.839 -0.6673 -0.1862 -0.1884
  608poe     o2 5135   1.188   0.333   1.763 -0.2144 -0.2528  0.5011
  608poe    c31 5136   1.158   0.351   1.627  0.2443 -0.0129  0.4306
  609poe    c31 5137   0.987   2.388   4.914 -0.2423  0.3749  0.4224
  609poe     o2 5138   0.892   2.350   5.011 -0.0426  0.0600  0.4955
  609poe    c23 5139   0.808   2.459   5.044  0.0380  0.5477 -0.8607
  609poe    c23 5140   0.672   2.395   5.073  0.4552  0.1307  0.2183
  609poe     o2 5141   0.696   2.301   5.176 -0.5924 -0.0999  0.2686
  609poe    c23 5142   0.578   2.225   5.190 -0.2081 -0.8813 -0.5699
  609poe    c23 5143   0.606   2.126   5.305  0.2125  0.0357  0.1330
  609poe     o2 5144   0.732   2.065   5.290  0.2384  0.0771  0.1809
  609poe    c23 5145   0.745   1.964   5.388 -0.2915 -0.1547  0.0191
  609poe    c23 5146   0.889   1.927   5.429 -0.1449  0.1791 -0.1849
  609poe     o2 5147   0.979   1.881   5.330  0.0654  0.1728  0.0102
  609poe    c31 5148   0.966   1.741   5.320 -0.4633  0.1807  0.5063
  610poe    c31 5149   4.864   5.947   5.644  0.0033 -0.0517 -0.1053
  610poe     o2 5150   4.792   5.831   5.607  0.4350 -0.1413 -0.6784
  610poe    c23 5151   4.655   5.862   5.591  0.2836 -0.2514  0.3252
  610poe    c23 5152   4.561   5.745   5.554 -0.1338  0.2887 -0.3343
  610poe     o2 5153   4.611   5.669   5.446 -0.4444 -0.3500 -0.0340
  610poe    c23 5154   4.549   5.546   5.421 -0.6825 -0.3572  0.5689
  610poe    c23 5155   4.606   5.494   5.287  0.3993  0.0859  0.8500
  610poe     o2 5156   4.747   5.502   5.290  0.4113 -0.1791  1.1025
  610poe    c23 5157   4.784   5.381   5.227 -0.1232  0.0999  0.2335
  610poe    c23 5158   4.935   5.354   5.232 -0.0224  0.5847 -0.0889
  610poe     o2 5159   5.017   5.450   5.171  0.5557 -0.1238 -0.4384
  610poe    c31 5160   5.140   5.390   5.136  0.5531  0.1547 -0.9410
  611poe    c31 5161   2.624   0.244   5.712 -0.0446 -0.5538 -0.0471
  611poe     o2 5162   2.564   0.191   5.828 -0.9176  0.3475 -0.0775
  611poe    c23 5163   2.666   0.139   5.910 -0.5545  0.6613 -0.3245
  611poe    c23 5164   2.611   0.104   6.050 -0.4234 -0.0220 -0.4374
  611poe     o2 5165   2.545   0.194   6.137  0.1202  0.2513 -0.3036
  611poe    c23 5166   2.515   0.127   6.257 -1.1911 -0.2142 -0.8656
  611poe    c23 5167   2.427   0.206   6.356 -0.0687 -0.3864  0.3095
  611poe     o2 5168   2.292   0.233   6.325  0.0976  0.4458  0.2668
  611poe    c23 5169   2.234   0.315   6.423 -0.4238  0.0192  0.3211
  611poe    c23 5170   2.083   0.285   6.419 -0.4026 -0.0028 -0.2931
  611poe     o2 5171   2.048   0.244   6.288 -0.3489  0.2707 -0.3921
  611poe    c31 5172   1.909   0.245   6.264 -0.4669 -1.0001  0.1396
  612poe    c31 5173   4.613   2.919   3.562  0.1925 -0.1526 -0.0152
  612poe     o2 5174   4.517   2.816   3.551 -0.5035  0.4923 -0.0836
  612poe    c23 5175   4.444   2.828   3.432 -0.1092  0.3414 -0.3423
  612poe    c23 5176   4.320   2.736   3.440  0.2339 -0.0802  0.1338
  612poe     o2 5177   4.368   2.616   3.498  0.2833  0.2439  0.7615
  612poe    c23 5178   4.278   2.527   3.559  0.2423  0.2699  0.7395
  612poe    c23 5179   4.321   2.381   3.536 -0.2332  0.1646  0.5083
  612poe     o2 5180   4.435   2.361   3.616  0.2208  0.1567 -0.1311
  612poe    c23 5181   4.497   2.234   3.611  0.5848  0.3356 -0.1863
  612poe    c23 5182   4.598   2.228   3.494  0.4273 -0.1525 -0.3004
  612poe     o2 5183   4.537   2.212   3.368  0.1803 -0.8261 -0.0989
  612poe    c31 5184   4.626   2.242   3.262  0.1465  0.0445  0.1116
  613poe    c31 5185   3.599   2.210   4.522 -0.4736  0.4466 -0.3794
  613poe     o2 5186   3.544   2.286   4.417 -0.4127  0.2502 -0.5558
  613poe    c23 5187   3.526   2.210   4.300 -0.2009 -0.6257 -0.0246
  613poe    c23 5188   3.508   2.286   4.167 -0.0370  0.7817  0.7413
  613poe     o2 5189   3.619   2.355   4.115  0.2553 -0.3398 -0.1444
  613poe    c23 5190   3.675   2.462   4.188  0.4023 -0.7977  0.4173
  613poe    c23 5191   3.813   2.504   4.135  0.0155 -0.1548 -0.0961
  613poe     o2 5192   3.817   2.552   4.003 -0.1044 -0.3115 -0.1572
  613poe    c23 5193   3.948   2.584   3.961 -0.3157  0.8343  0.0246
  613poe    c23 5194   3.947   2.615   3.810 -0.0403  0.3424 -0.0812
  613poe     o2 5195   3.853   2.535   3.741  0.3883 -0.3621  0.1482
  613poe    c31 5196   3.857   2.522   3.601 -0.0997 -0.5475  0.1515
  614poe    c31 5197   0.874   1.344   2.682  0.5558 -0.8172  0.1951
  614poe     o2 5198   0.907   1.477   2.649 -0.1384 -0.6550  0.1471
  614poe    c23 5199   0.859   1.515   2.522  0.3490 -0.3565  0.0473
  614poe    c23 5200   0.918   1.642   2.459  0.1604 -0.3122 -0.0407
  614poe     o2 5201   0.893   1.755   2.539  0.6796 -0.1603 -0.0896
  614poe    c23 5202   0.907   1.873   2.462  0.6409 -0.1167 -0.0299
  614poe    c23 5203   0.900   1.996   2.553 -0.3800 -0.2254  0.0521
  614poe     o2 5204   0.801   1.956   2.646 -0.3494  0.2140  0.2804
  614poe    c23 5205   0.768   2.060   2.734 -0.1990  0.2108  0.3407
  614poe    c23 5206   0.672   1.994   2.834  0.4448  0.1910  0.9546
  614poe     o2 5207   0.702   1.856   2.837 -0.2423  0.0148  0.1257
  614poe    c31 5208   0.600   1.804   2.920 -0.5030 -0.2511 -0.3576
  615poe    c31 5209   0.878   3.451   2.791  0.6198  0.3049  0.4411
  615poe     o2 5210   0.738   3.458   2.807  0.5655  0.5734 -0.1221
  615poe    c23 5211   0.686   3.486   2.679 -0.2671 -0.2737  0.0228
  615poe    c23 5212   0.533   3.502   2.693 -0.2947 -0.3736 -0.1699
  615poe     o2 5213   0.512   3.585   2.804 -0.0263 -0.4983 -0.0258
  615poe    c23 5214   0.376   3.569   2.837 -0.0021  0.1899  0.4273
  615poe    c23 5215   0.355   3.603   2.986 -0.4772  0.0950  0.3832
  615poe     o2 5216   0.458   3.531   3.049 -0.1336  0.5977  0.4058
  615poe    c23 5217   0.467   3.527   3.190 -0.3421  0.0728  0.4078
  615poe    c23 5218   0.588   3.435   3.214 -0.0772  0.2108 -0.3469
  615poe     o2 5219   0.696   3.468   3.130  0.4643 -0.2314  0.1647
  615poe    c31 5220   0.819   3.405   3.155  0.6521 -0.0271 -0.2372
  616poe    c31 5221   3.454   3.119   6.800  0.4560 -0.2224 -0.2241
  616poe     o2 5222   3.505   3.170   6.921  0.2564 -0.3377 -0.0913
  616poe    c23 5223   3.605   3.267   6.901  0.1581 -0.1083  0.5253
  616poe    c23 5224   3.724   3.240   6.995  0.8368  0.6257 -0.1164
  616poe     o2 5225   3.680   3.193   7.120  0.4888  0.8480 -0.1537
  616poe    c23 5226   3.785   3.118   7.177 -0.1076  0.1251  0.0098
  616poe    c23 5227   3.794   3.103   7.330  0.0769 -0.3736 -0.0486
  616poe     o2 5228   3.682   3.029   7.371 -0.1904  0.1090  0.1026
  616poe    c23 5229   3.673   3.010   7.511 -0.5489  0.3816  0.1190
  616poe    c23 5230   3.528   2.967   7.538 -0.2161 -0.2502  0.9465
  616poe     o2 5231   3.469   2.854   7.477  0.5360  0.1190 -0.5026
  616poe    c31 5232   3.527   2.733   7.521  0.5916  0.0757 -0.6975
  617poe    c31 5233   3.710   0.956   4.700 -0.1537 -0.4123  0.4389
  617poe     o2 5234   3.590   1.025   4.723 -0.2447 -0.2697 -0.4008
  617poe    c23 5235   3.486   0.944   4.774  0.0950 -0.1386  0.5330
  617poe    c23 5236   3.357   1.023   4.746 -0.0839 -0.4383  0.5092
  617poe     o2 5237   3.377   1.147   4.808 -0.2634  0.0919 -0.4694
  617poe    c23 5238   3.267   1.236   4.801  0.0930  0.5514 -0.3271
  617poe    c23 5239   3.307   1.361   4.880 -0.2099  0.3885  0.0839
  617poe     o2 5240   3.438   1.402   4.848  0.0309 -0.2996  0.1838
  617poe    c23 5241   3.448   1.485   4.734 -0.1391 -0.4465  0.0598
  617poe    c23 5242   3.582   1.456   4.663 -0.0984  0.5252 -0.2726
  617poe     o2 5243   3.612   1.319   4.645 -0.2933  0.4665 -0.1577
  617poe    c31 5244   3.702   1.297   4.539  0.3224  0.7032  0.3070
  618poe    c31 5245   6.228   5.282   4.615  0.6900 -0.1652 -0.1446
  618poe     o2 5246   6.149   5.321   4.505  0.3843  0.0399  0.1462
  618poe    c23 5247   6.095   5.449   4.528  0.2141  0.0205 -0.1398
  618poe    c23 5248   6.034   5.503   4.398 -0.1533 -0.7637 -0.3048
  618poe     o2 5249   5.943   5.399   4.369 -0.6484 -0.4378  0.0757
  618poe    c23 5250   5.914   5.389   4.232 -0.4676  0.4477 -0.0353
  618poe    c23 5251   5.809   5.277   4.234 -0.5433  0.5224  0.1723
  618poe     o2 5252   5.854   5.178   4.324 -0.1449  0.1516 -0.4339
  618poe    c23 5253   5.755   5.119   4.405  0.0194  0.0700 -0.2910
  618poe    c23 5254   5.841   5.026   4.493 -0.5656  0.2269  0.4512
  618poe     o2 5255   5.974   5.068   4.511 -0.1122 -0.9145 -0.1702
  618poe    c31 5256   6.020   5.002   4.627  0.5773 -0.0183  0.0840
  619poe    c31 5257   5.010   0.020   3.950  0.4694  0.1102  0.3269
  619poe     o2 5258   5.119   0.002   3.863  0.5120  0.1436  0.3738
  619poe    c23 5259   5.238  -0.061   3.908  0.5144 -0.4277 -0.4145
  619poe    c23 5260   5.333  -0.028   3.791  0.3787 -0.1690 -0.4536
  619poe     o2 5261   5.261  -0.034   3.670  0.2451 -0.0084 -0.3827
  619poe    c23 5262   5.317  -0.001   3.544 -0.0099 -0.2377 -0.5572
  619poe    c23 5263   5.206  -0.012   3.438 -0.1074  0.9973 -0.5924
  619poe     o2 5264   5.100   0.054   3.502  0.0655  0.5233  0.1915
  619poe    c23 5265   4.987   0.070   3.419  0.4005 -0.8205 -0.5378
  619poe    c23 5266   4.874   0.146   3.491  1.4472 -0.0421  0.3097
  619poe     o2 5267   4.866   0.093   3.621  0.0106 -0.6565 -0.0058
  619poe    c31 5268   4.762   0.152   3.696  0.5006  0.2014  0.0188
  620poe    c31 5269   0.772   3.226   2.419 -0.9196  0.7379  0.0605
  620poe     o2 5270   0.728   3.093   2.405  0.0945  0.4017 -0.0610
  620poe    c23 5271   0.761   3.023   2.523  0.1190  0.2369 -0.1660
  620poe    c23 5272   0.683   2.890   2.535 -0.2344  0.4688  0.1235
  620poe     o2 5273   0.699   2.844   2.403  0.0119 -0.4896  0.4822
  620poe    c23 5274   0.666   2.707   2.393  0.1817 -0.5220  0.3527
  620poe    c23 5275   0.699   2.666   2.248 -0.8079 -0.4020  0.0840
  620poe     o2 5276   0.660   2.768   2.159  0.0305 -0.3132 -0.1895
  620poe    c23 5277   0.532   2.744   2.105  0.3943 -0.3819 -1.0493
  620poe    c23 5278   0.490   2.886   2.064 -0.8671 -0.3778  0.1872
  620poe     o2 5279   0.546   2.982   2.151 -0.0559 -0.0430 -0.6950
  620poe    c31 5280   0.535   3.116   2.108  0.2679  0.1306 -0.2444
  621poe    c31 5281   0.305   1.556   1.362  0.1739 -0.2909 -0.2490
  621poe     o2 5282   0.291   1.472   1.475  0.9336 -0.3722 -0.2143
  621poe    c23 5283   0.192   1.374   1.454  0.5786 -0.0330 -0.1436
  621poe    c23 5284   0.197   1.280   1.575  0.3023 -0.2907 -0.3301
  621poe     o2 5285   0.186   1.375   1.679  0.2200 -0.2723 -0.3559
  621poe    c23 5286   0.197   1.316   1.806  0.3816 -0.6096 -0.5237
  621poe    c23 5287   0.260   1.413   1.908  0.2172 -0.2185 -0.7890
  621poe     o2 5288   0.362   1.483   1.841 -0.0805  0.3117 -0.6890
  621poe    c23 5289   0.496   1.446   1.861 -0.4887 -0.5351  0.6319
  621poe    c23 5290   0.580   1.531   1.763 -0.8693 -0.4792  0.3532
  621poe     o2 5291   0.532   1.519   1.631 -0.0708  0.3205 -0.0206
  621poe    c31 5292   0.619   1.507   1.521  0.1474 -0.0491  0.1914
  622poe    c31 5293   5.860   5.207   3.105 -0.6708 -0.0936 -0.3842
  622poe     o2 5294   5.825   5.283   3.219 -0.0226 -0.2371 -0.0896
  622poe    c23 5295   5.939   5.355   3.260 -0.2779 -0.0819  0.3572
  622poe    c23 5296   5.914   5.440   3.386  0.3742 -0.2308  0.5934
  622poe     o2 5297   5.791   5.485   3.334  0.2191 -0.6836  0.5633
  622poe    c23 5298   5.723   5.559   3.433  0.1378 -0.0006 -0.0010
  622poe    c23 5299   5.570   5.573   3.418  0.1647 -0.1233 -0.3979
  622poe     o2 5300   5.524   5.439   3.411  0.3864 -0.2080 -0.2516
  622poe    c23 5301   5.386   5.425   3.385  0.2955  0.2354 -0.0402
  622poe    c23 5302   5.377   5.283   3.325  0.6339  0.0162  0.4273
  622poe     o2 5303   5.492   5.252   3.249  0.3665  0.0062  0.0300
  622poe    c31 5304   5.456   5.141   3.170  0.2366 -0.0888  0.2228
  623poe    c31 5305   5.005   1.559   4.480 -0.1155  0.5614  0.3590
  623poe     o2 5306   4.997   1.696   4.510 -0.0485  0.6826 -0.1565
  623poe    c23 5307   5.134   1.729   4.504  0.0406  0.2601 -0.5082
  623poe    c23 5308   5.162   1.869   4.447 -0.0706  0.6000  0.2489
  623poe     o2 5309   5.100   1.889   4.321  0.1668 -0.2699 -0.0128
  623poe    c23 5310   5.087   2.027   4.295  0.5973 -0.2429 -0.0959
  623poe    c23 5311   4.980   2.057   4.188  0.5286 -0.2495 -0.0294
  623poe     o2 5312   4.844   2.035   4.216  0.3957 -0.2656 -0.6703
  623poe    c23 5313   4.750   2.127   4.165 -0.0699 -0.2423  0.2103
  623poe    c23 5314   4.613   2.062   4.191  0.0003 -0.4772 -0.0020
  623poe     o2 5315   4.599   1.929   4.146  0.3390 -0.4652 -0.1454
  623poe    c31 5316   4.468   1.892   4.108 -0.0819  0.7347  0.0799
  624poe    c31 5317   5.868   2.697   2.269  0.3357 -0.3299 -0.1374
  624poe     o2 5318   5.910   2.659   2.140  0.5124 -0.3514 -0.0741
  624poe    c23 5319   5.842   2.543   2.096  0.4502 -0.4433  0.2595
  624poe    c23 5320   5.887   2.527   1.949 -0.1221 -0.1761  0.0525
  624poe     o2 5321   5.864   2.653   1.891  0.2306 -0.0965  0.0878
  624poe    c23 5322   5.967   2.685   1.800 -0.0530 -0.1119 -0.2370
  624poe    c23 5323   5.994   2.833   1.833  0.2557 -0.1701 -0.2339
  624poe     o2 5324   6.032   2.850   1.968 -0.0405 -0.8963 -0.0554
  624poe    c23 5325   6.077   2.979   2.001 -0.8267 -0.6656  0.1394
  624poe    c23 5326   6.203   2.947   2.084 -0.4092  0.2702 -0.1142
  624poe     o2 5327   6.171   2.846   2.177 -0.3887  0.0502 -0.3440
  624poe    c31 5328   6.244   2.856   2.297  0.1604 -0.7764 -0.6059
  625poe    c31 5329   2.430   0.824   3.512 -0.4010  0.0467 -0.2628
  625poe     o2 5330   2.417   0.684   3.507 -0.5026  0.0577 -0.3125
  625poe    c23 5331   2.329   0.643   3.609 -0.0675 -0.3048 -0.0823
  625poe    c23 5332   2.262   0.513   3.560 -0.5373 -0.0463 -0.1241
  625poe     o2 5333   2.381   0.439   3.547 -0.3712  0.2017 -0.0312
  625poe    c23 5334   2.350   0.302   3.528  0.2853  0.0200  0.1941
  625poe    c23 5335   2.474   0.248   3.455  0.1235  0.0151 -0.0756
  625poe     o2 5336   2.515   0.355   3.373  0.2321 -0.1618 -0.2562
  625poe    c23 5337   2.501   0.340   3.234  0.0137  0.2630 -0.2830
  625poe    c23 5338   2.520   0.469   3.154  0.3531  0.4286  0.0604
  625poe     o2 5339   2.457   0.571   3.228 -0.5037 -0.0526  0.0147
  625poe    c31 5340   2.451   0.680   3.139  0.3241 -0.4757 -0.5734
  626poe    c31 5341   5.979   1.730   0.061 -0.7492 -0.1907  0.3602
  626poe     o2 5342   6.034   1.842  -0.005 -0.0920 -0.4029  0.5307
  626poe    c23 5343   6.059   1.821  -0.142 -0.6250 -0.5521  0.4523
  626poe    c23 5344   6.012   1.930  -0.241  0.2988 -0.7019 -0.1660
  626poe     o2 5345   6.080   2.051  -0.214 -0.5767 -0.2109 -0.1247
  626poe    c23 5346   6.048   2.136  -0.322  0.1561  0.3781  0.1138
  626poe    c23 5347   6.137   2.261  -0.316  0.3022  0.2848 -0.0855
  626poe     o2 5348   6.134   2.286  -0.177  0.5550  0.2936 -0.0796
  626poe    c23 5349   6.202   2.406  -0.147 -0.1228  0.6411  0.0916
  626poe    c23 5350   6.166   2.446  -0.003  0.0755 -0.1205  0.3613
  626poe     o2 5351   6.192   2.324   0.062  0.6310 -0.3363 -0.2528
  626poe    c31 5352   6.182   2.347   0.201 -0.0571 -1.1879 -0.1529
  627poe    c31 5353   0.688   2.173   6.220  0.1879 -0.4137 -0.0749
  627poe     o2 5354   0.614   2.060   6.180 -0.1410 -0.1699 -0.1605
  627poe    c23 5355   0.526   2.104   6.079 -0.5671  0.4141  0.4577
  627poe    c23 5356   0.462   1.971   6.033  0.5730  0.0104  0.0170
  627poe     o2 5357   0.563   1.872   6.037  0.6133  0.0388 -0.2781
  627poe    c23 5358   0.506   1.754   5.985  0.2606  0.2069 -0.2814
  627poe    c23 5359   0.586   1.634   6.041 -0.6376 -0.1171  0.3247
  627poe     o2 5360   0.598   1.639   6.182  0.7305  0.6236  0.1932
  627poe    c23 5361   0.681   1.533   6.224  0.9497  0.6637 -0.1351
  627poe    c23 5362   0.680   1.533   6.378  0.4927 -0.1575 -0.1343
  627poe     o2 5363   0.702   1.645   6.460  0.4230 -0.0945 -0.2010
  627poe    c31 5364   0.666   1.622   6.594 -0.7965 -0.5181 -0.5901
  628poe    c31 5365   2.791   1.763   4.697  0.5853 -0.3048 -0.2431
  628poe     o2 5366   2.888   1.698   4.619 -0.1427 -0.5701 -0.9473
  628poe    c23 5367   2.850   1.563   4.602 -0.2176 -0.6678 -0.0583
  628poe    c23 5368   2.928   1.525   4.474 -0.3595 -0.4022 -0.2257
  628poe     o2 5369   2.914   1.613   4.365 -0.1540  0.1609  0.2002
  628poe    c23 5370   3.009   1.605   4.261 -0.8518  0.5034 -0.4762
  628poe    c23 5371   2.987   1.729   4.173  0.4857  0.4176 -0.9505
  628poe     o2 5372   2.998   1.839   4.261  0.3288 -0.1922 -0.1568
  628poe    c23 5373   3.007   1.949   4.173 -0.0756 -0.1172 -0.1049
  628poe    c23 5374   3.149   2.008   4.181 -0.1478  0.0828 -0.2877
  628poe     o2 5375   3.159   2.125   4.103 -0.5906  0.1615 -0.2303
  628poe    c31 5376   3.210   2.104   3.974 -0.2504 -0.1399 -0.0500
  629poe    c31 5377   6.561   4.073   2.424 -0.5525  0.4121 -0.3468
  629poe     o2 5378   6.654   4.002   2.347 -0.2261  0.6025 -0.1295
  629poe    c23 5379   6.704   3.911   2.443 -0.4355  0.0965 -0.4900
  629poe    c23 5380   6.817   3.819   2.394  0.1450  0.2933  0.4374
  629poe     o2 5381   6.765   3.744   2.286 -0.0662  0.3061  0.5307
  629poe    c23 5382   6.845   3.713   2.175 -0.2488 -0.3513  0.5788
  629poe    c23 5383   6.865   3.828   2.075 -0.5080 -0.2762  0.6137
  629poe     o2 5384   6.738   3.887   2.059 -0.3229  0.0011  0.1107
  629poe    c23 5385   6.736   3.992   1.966 -0.4085 -0.1902 -0.1056
  629poe    c23 5386   6.590   4.023   1.927 -0.4678 -0.2250  0.0872
  629poe     o2 5387   6.509   4.065   2.034 -0.5243 -0.3462  0.0916
  629poe    c31 5388   6.519   4.205   2.048 -0.2168 -0.3162 -0.4158
  630poe    c31 5389   3.586   4.364   4.552  0.2372 -0.1294  0.0110
  630poe     o2 5390   3.721   4.330   4.527  0.3002  0.1769 -0.0800
  630poe    c23 5391   3.737   4.304   4.390 -0.2195 -0.3858 -0.0384
  630poe    c23 5392   3.876   4.242   4.366 -0.0691  0.1555 -0.5946
  630poe     o2 5393   3.962   4.314   4.451  0.0393 -0.2185 -0.3870
  630poe    c23 5394   4.075   4.246   4.499  0.0012  0.0164  0.0459
  630poe    c23 5395   4.124   4.315   4.627 -0.5007  0.7174 -0.1319
  630poe     o2 5396   4.007   4.333   4.703 -0.6032 -0.7873  0.1026
  630poe    c23 5397   4.018   4.415   4.817  0.0624 -0.1474 -0.4130
  630poe    c23 5398   3.900   4.405   4.917 -0.0705 -0.3099 -0.5856
  630poe     o2 5399   3.778   4.394   4.848 -0.2190  0.1081 -0.3877
  630poe    c31 5400   3.670   4.382   4.938 -0.1306 -0.4883 -0.3594
  631poe    c31 5401   1.340   3.632   1.599 -0.2845 -0.6371 -0.4483
  631poe     o2 5402   1.402   3.572   1.711  0.0286 -0.0885 -0.3198
  631poe    c23 5403   1.539   3.605   1.718 -0.0705  0.3347 -0.3995
  631poe    c23 5404   1.603   3.558   1.850 -0.5609  0.1783 -0.2153
  631poe     o2 5405   1.540   3.434   1.874 -0.1589  0.0851  0.3677
  631poe    c23 5406   1.623   3.364   1.965  0.2142 -0.7880 -0.6205
  631poe    c23 5407   1.545   3.231   1.968  0.0077 -0.6595 -0.2359
  631poe     o2 5408   1.410   3.270   1.972  0.3223  0.4216  0.2201
  631poe    c23 5409   1.314   3.173   1.933 -0.2037  0.9873  0.0866
  631poe    c23 5410   1.305   3.172   1.779  0.0726 -0.2995  0.0667
  631poe     o2 5411   1.299   3.310   1.749 -0.6063 -0.2486  0.4253
  631poe    c31 5412   1.267   3.304   1.612 -0.1413  0.0172  0.3052
  632poe    c31 5413   0.460   2.148   0.988 -0.1117 -0.2809 -0.0679
  632poe     o2 5414   0.445   2.069   0.872 -1.3487  0.0418 -0.1357
  632poe    c23 5415   0.459   1.932   0.905  0.0439  0.0753 -0.5197
  632poe    c23 5416   0.483   1.860   0.772 -0.6067  0.0736 -0.6423
  632poe     o2 5417   0.542   1.942   0.673  0.2806  0.4614  0.1954
  632poe    c23 5418   0.581   1.857   0.568  0.4215  0.1426  0.5035
  632poe    c23 5419   0.700   1.903   0.482  0.2605 -0.1057  0.1435
  632poe     o2 5420   0.670   2.031   0.432  0.6274 -0.0342  0.1015
  632poe    c23 5421   0.785   2.077   0.364  0.5205  0.0245 -0.0384
  632poe    c23 5422   0.788   2.219   0.305  1.3960  0.1011  0.1877
  632poe     o2 5423   0.802   2.324   0.397 -0.0690 -0.1803  0.7556
  632poe    c31 5424   0.890   2.426   0.353 -0.2295 -0.0773  0.6727
  633poe    c31 5425   1.369   1.007   1.050  0.2474 -0.4117  0.0905
  633poe     o2 5426   1.499   0.964   1.085  0.3122 -0.1973  0.1196
  633poe    c23 5427   1.496   0.862   1.182  0.2372  0.1343  0.4686
  633poe    c23 5428   1.644   0.842   1.220  0.3400 -0.0620 -0.0198
  633poe     o2 5429   1.721   0.839   1.102  0.4043  0.0313  0.0198
  633poe    c23 5430   1.857   0.848   1.140  0.2613 -0.1722  0.5908
  633poe    c23 5431   1.931   0.923   1.028 -0.3142 -0.2501  0.1517
  633poe     o2 5432   1.848   1.027   0.981  0.5828  0.4077 -0.0096
  633poe    c23 5433   1.880   1.087   0.858 -0.1695  0.1435 -0.3416
  633poe    c23 5434   1.771   1.193   0.834  0.3077  0.8169  0.3931
  633poe     o2 5435   1.645   1.129   0.826  0.3302  0.8377 -0.1814
  633poe    c31 5436   1.561   1.174   0.722 -0.2536 -0.0503 -0.1058
  634poe    c31 5437   3.916   5.952   0.004  0.3960  0.0960  0.1510
  634poe     o2 5438   3.919   6.026   0.125 -0.0419  0.6624 -0.1793
  634poe    c23 5439   4.042   6.094   0.116  0.1475  0.3644  0.1355
  634poe    c23 5440   4.163   6.025   0.181  0.1040  0.5223  0.3880
  634poe     o2 5441   4.163   6.003   0.320 -0.2078 -0.2397  0.2753
  634poe    c23 5442   4.260   5.910   0.364 -0.1430  0.0862  0.8435
  634poe    c23 5443   4.196   5.775   0.402 -0.0216 -0.2324 -0.0585
  634poe     o2 5444   4.093   5.825   0.484 -0.0115 -0.4341  0.0791
  634poe    c23 5445   4.089   5.752   0.604 -0.2274 -0.0797  0.2896
  634poe    c23 5446   3.940   5.765   0.643 -0.1341 -0.0777  0.6461
  634poe     o2 5447   3.893   5.891   0.601  0.2399 -0.2437 -0.3004
  634poe    c31 5448   3.764   5.922   0.647  0.1226 -0.7995 -0.2470
  635poe    c31 5449   0.465   3.862   2.552 -0.2589  0.1465  0.1558
  635poe     o2 5450   0.437   3.967   2.641 -0.5692  0.2167 -0.0226
  635poe    c23 5451   0.365   3.923   2.754 -0.6820 -0.2322 -0.2701
  635poe    c23 5452   0.322   4.055   2.820  0.0506  0.0010 -0.2552
  635poe     o2 5453   0.429   4.147   2.825  0.2438 -0.1807 -0.9183
  635poe    c23 5454   0.403   4.265   2.898  0.4070 -0.7423  0.0610
  635poe    c23 5455   0.521   4.363   2.885 -0.2004 -0.0054  0.0326
  635poe     o2 5456   0.572   4.371   2.753  0.3748  0.2656  0.2680
  635poe    c23 5457   0.686   4.453   2.738  0.2392  0.5250  0.6436
  635poe    c23 5458   0.636   4.540   2.621  0.5332 -0.0459  0.0858
  635poe     o2 5459   0.609   4.466   2.505  0.4531  0.2818 -0.1055
  635poe    c31 5460   0.524   4.528   2.411 -0.1858  0.3658  0.5171
  636poe    c31 5461   1.927   3.594   2.064 -0.0777  0.4137 -1.0407
  636poe     o2 5462   2.041   3.517   2.034 -0.0467  0.2468 -0.5025
  636poe    c23 5463   2.130   3.619   1.995  0.3345 -0.1682 -0.7264
  636poe    c23 5464   2.268   3.567   1.951  0.6568 -0.1675  0.2492
  636poe     o2 5465   2.284   3.459   2.040  0.0646 -0.3022  0.1957
  636poe    c23 5466   2.409   3.401   2.013 -0.2282 -0.6195 -0.5085
  636poe    c23 5467   2.415   3.291   2.121  0.1261  0.0201  0.1279
  636poe     o2 5468   2.286   3.234   2.115  0.4884 -0.7370 -0.6308
  636poe    c23 5469   2.246   3.138   2.211 -0.0481  0.1638  0.0583
  636poe    c23 5470   2.094   3.114   2.206  0.0062 -0.2273  0.2559
  636poe     o2 5471   2.040   3.240   2.173  0.0153 -0.2942 -0.0155
  636poe    c31 5472   1.912   3.240   2.232 -0.1209  0.3992 -0.2965
  637poe    c31 5473   3.700   6.645   2.589 -1.3600  0.3015  0.1686
  637poe     o2 5474   3.633   6.522   2.575 -0.4489 -0.1630 -0.1777
  637poe    c23 5475   3.517   6.555   2.502 -0.5280 -0.1622 -0.0517
  637poe    c23 5476   3.450   6.417   2.508 -0.0321 -0.4075 -0.0871
  637poe     o2 5477   3.529   6.326   2.435  0.6845  0.3652 -0.2901
  637poe    c23 5478   3.519   6.189   2.467  0.2174  0.5000  0.1522
  637poe    c23 5479   3.581   6.141   2.599  1.0580 -0.5106 -0.5983
  637poe     o2 5480   3.692   6.227   2.608  0.5040  0.1737 -0.2393
  637poe    c23 5481   3.765   6.210   2.728  0.2437  0.3323 -0.0586
  637poe    c23 5482   3.909   6.260   2.706  0.3359  0.3061  0.4678
  637poe     o2 5483   3.897   6.373   2.622  0.5124  0.0914  0.1520
  637poe    c31 5484   4.022   6.434   2.601  0.6834 -0.1873  0.3491
  638poe    c31 5485   3.880   3.278   1.778 -0.1644 -0.3142 -0.3295
  638poe     o2 5486   3.880   3.236   1.644 -0.9371  0.5093 -0.5950
  638poe    c23 5487   3.859   3.097   1.630  0.2490  0.2736 -0.0965
  638poe    c23 5488   3.933   3.044   1.506  0.0719  0.0599 -0.1118
  638poe     o2 5489   3.904   3.140   1.407  0.1989 -0.0355 -0.2427
  638poe    c23 5490   3.894   3.082   1.279  0.2597  0.1206 -0.3182
  638poe    c23 5491   3.886   3.194   1.173 -0.0276  0.0706 -0.3502
  638poe     o2 5492   3.758   3.250   1.186  0.1510  0.2954  0.5001
  638poe    c23 5493   3.716   3.331   1.079 -0.2396  0.1841  0.5673
  638poe    c23 5494   3.720   3.480   1.118 -0.5721  0.5131 -0.6095
  638poe     o2 5495   3.646   3.500   1.237  0.4955  0.0668  0.1421
  638poe    c31 5496   3.596   3.629   1.265  0.1915 -0.0428  0.1106
  639poe    c31 5497   0.061   4.127   1.283 -0.3813  0.2288  0.0504
  639poe     o2 5498   0.079   4.059   1.405  0.2484 -0.6998 -0.5478
  639poe    c23 5499  -0.044   4.006   1.450  0.2535 -0.1051  0.1946
  639poe    c23 5500  -0.015   3.880   1.533  0.1325 -0.0356  0.3411
  639poe     o2 5501   0.054   3.916   1.651  0.4044  0.3540  0.0652
  639poe    c23 5502   0.160   3.829   1.682 -0.0402 -0.1187  0.2625
  639poe    c23 5503   0.277   3.910   1.740  0.0970 -0.1859  0.0790
  639poe     o2 5504   0.328   3.980   1.629 -0.4774  0.6078  0.3099
  639poe    c23 5505   0.416   4.081   1.670 -0.3148  0.7771 -0.4438
  639poe    c23 5506   0.458   4.178   1.557  0.2543  0.6443 -0.3513
  639poe     o2 5507   0.337   4.208   1.491  0.0775  0.6009 -0.0492
  639poe    c31 5508   0.336   4.333   1.426  0.1067  0.6194 -0.0140
  640poe    c31 5509   0.360   3.232   1.255  0.0660 -0.7004  0.2290
  640poe     o2 5510   0.444   3.121   1.231  0.5146 -0.3667  0.2337
  640poe    c23 5511   0.354   3.035   1.166 -0.2403  0.2384  0.4662
  640poe    c23 5512   0.436   2.917   1.111 -0.9526 -0.0224 -0.0656
  640poe     o2 5513   0.504   2.868   1.225 -0.3461  0.4782 -0.2029
  640poe    c23 5514   0.611   2.784   1.188 -0.1719  0.4152  0.4362
  640poe    c23 5515   0.733   2.856   1.248  0.1259  0.0677  0.2548
  640poe     o2 5516   0.692   2.936   1.357  0.0752  0.2982  0.0658
  640poe    c23 5517   0.792   3.003   1.429 -0.2907  0.9605 -0.0268
  640poe    c23 5518   0.713   3.060   1.548 -0.7277  0.0380  0.1328
  640poe     o2 5519   0.603   3.123   1.485 -0.6699 -0.2767 -0.2851
  640poe    c31 5520   0.556   3.219   1.577  0.6495  0.5452 -0.4363
  641poe    c31 5521   5.645   4.333   4.539  0.3424  0.5659 -0.5376
  641poe     o2 5522   5.758   4.417   4.528  0.1126  0.9308 -0.1576
  641poe    c23 5523   5.819   4.406   4.401  0.6262 -0.0930  0.1658
  641poe    c23 5524   5.955   4.477   4.410  0.5745  0.0661 -0.2855
  641poe     o2 5525   6.016   4.432   4.529 -0.6425 -0.6359  0.0872
  641poe    c23 5526   6.138   4.499   4.551 -1.0389  0.2410 -0.3042
  641poe    c23 5527   6.163   4.518   4.702 -0.1235  1.1230 -0.5565
  641poe     o2 5528   6.032   4.513   4.753  0.1327 -0.4056  0.0181
  641poe    c23 5529   6.010   4.550   4.888  0.1893  0.3066 -0.1616
  641poe    c23 5530   5.865   4.604   4.890 -0.0162 -0.2580  0.5400
  641poe     o2 5531   5.782   4.535   4.800  0.0701 -0.4108  0.5771
  641poe    c31 5532   5.659   4.604   4.792  0.0725 -0.4574  0.0824
  642poe    c31 5533   0.615   5.277   1.198  0.0776  0.3714  0.3321
  642poe     o2 5534   0.626   5.156   1.127  0.1303 -0.0151  0.9964
  642poe    c23 5535   0.506   5.117   1.065  0.7157  0.1621 -0.2819
  642poe    c23 5536   0.516   4.968   1.031  0.4683 -0.1682  1.0405
  642poe     o2 5537   0.605   4.937   0.926 -0.1560 -0.1478  0.5035
  642poe    c23 5538   0.624   4.798   0.924  0.3597 -0.0752  0.0354
  642poe    c23 5539   0.718   4.765   0.806  0.3465 -0.8982  0.2494
  642poe     o2 5540   0.850   4.811   0.825 -0.0557  0.1150  0.6409
  642poe    c23 5541   0.937   4.761   0.726 -0.3020  0.1917  0.3795
  642poe    c23 5542   1.077   4.820   0.752 -0.1422  0.1090 -0.2842
  642poe     o2 5543   1.074   4.941   0.823 -0.5394 -0.3431  0.4843
  642poe    c31 5544   1.202   4.992   0.851 -0.2209 -0.4196 -0.7744
  643poe    c31 5545   3.362   4.710   3.608 -0.0959  0.2706 -0.0624
  643poe     o2 5546   3.331   4.655   3.734 -0.0217 -0.3361 -0.3028
  643poe    c23 5547   3.193   4.679   3.740  0.0621  0.0437  0.1912
  643poe    c23 5548   3.144   4.624   3.876  0.0298 -0.0772  0.1309
  643poe     o2 5549   3.221   4.507   3.892 -0.0328 -0.0619  0.5418
  643poe    c23 5550   3.189   4.426   4.003 -0.2351  0.1191  0.6157
  643poe    c23 5551   3.315   4.342   4.030  0.2788  0.7281  0.1344
  643poe     o2 5552   3.396   4.331   3.915  0.0089 -0.0318  0.0086
  643poe    c23 5553   3.526   4.277   3.928 -0.0480 -0.2957 -0.5053
  643poe    c23 5554   3.593   4.335   3.802  0.4519  0.1405 -0.0441
  643poe     o2 5555   3.559   4.469   3.770 -0.5714 -0.2463 -0.6263
  643poe    c31 5556   3.679   4.538   3.744 -0.4290  0.1928  1.0874
  644poe    c31 5557   5.753   6.480   1.128 -0.4817 -0.6528  0.3083
  644poe     o2 5558   5.615   6.454   1.146 -0.6688 -0.0715 -0.2102
  644poe    c23 5559   5.571   6.347   1.065 -0.0997 -0.3891 -0.1144
  644poe    c23 5560   5.417   6.356   1.057 -0.1032 -0.4286 -0.0984
  644poe     o2 5561   5.344   6.332   1.175 -0.2376  0.1629 -0.0544
  644poe    c23 5562   5.214   6.380   1.153 -0.3657 -0.1087  0.1048
  644poe    c23 5563   5.112   6.352   1.265 -0.2474 -0.1434  0.2041
  644poe     o2 5564   5.180   6.371   1.387  0.2154 -0.4390 -0.0035
  644poe    c23 5565   5.088   6.353   1.493  0.0107 -0.4530 -0.1830
  644poe    c23 5566   5.141   6.424   1.619  0.4096 -0.0912 -0.5514
  644poe     o2 5567   5.277   6.388   1.622  0.4901  0.2659  0.2016
  644poe    c31 5568   5.335   6.462   1.728 -0.4665  0.5143  0.5658
  645poe    c31 5569   1.345   2.736   2.596 -0.9441 -0.5599  0.0336
  645poe     o2 5570   1.412   2.613   2.582  0.1642  0.0143  0.1967
  645poe    c23 5571   1.551   2.616   2.607  0.2961  0.2881 -0.5384
  645poe    c23 5572   1.590   2.469   2.587 -0.5614  0.0069 -0.2319
  645poe     o2 5573   1.483   2.383   2.619 -0.2518 -0.3504 -0.1317
  645poe    c23 5574   1.506   2.244   2.623 -0.0115 -0.3088 -0.0916
  645poe    c23 5575   1.380   2.165   2.661 -0.0762  0.2297  0.8491
  645poe     o2 5576   1.265   2.223   2.604 -0.4797 -1.2388  0.1287
  645poe    c23 5577   1.244   2.194   2.467 -0.5338 -0.4745 -0.0261
  645poe    c23 5578   1.184   2.308   2.382 -0.3995 -0.2135  0.2250
  645poe     o2 5579   1.230   2.437   2.417 -0.9585  0.0221  0.0994
  645poe    c31 5580   1.268   2.504   2.299  0.1210 -0.1561  0.3348
  646poe    c31 5581   3.637   0.426   6.301 -0.2809  0.0737  0.2978
  646poe     o2 5582   3.623   0.562   6.269  0.1968  0.1657  0.4679
  646poe    c23 5583   3.570   0.635   6.378 -0.0271 -0.0546  0.5057
  646poe    c23 5584   3.583   0.788   6.370 -0.1332 -0.0850 -0.3740
  646poe     o2 5585   3.719   0.825   6.368 -0.1274 -0.1013 -0.3029
  646poe    c23 5586   3.734   0.953   6.311  0.3189  0.0080  0.0598
  646poe    c23 5587   3.881   0.968   6.268  0.3394 -0.4613 -0.0320
  646poe     o2 5588   3.952   0.963   6.390  0.2840 -0.2502  0.0079
  646poe    c23 5589   4.090   0.970   6.362  0.2328 -0.4176 -0.2981
  646poe    c23 5590   4.155   1.008   6.496  0.2603 -0.2906 -0.3478
  646poe     o2 5591   4.106   0.918   6.592  0.4784 -0.4178 -0.3553
  646poe    c31 5592   4.186   0.909   6.708 -0.0244  0.0187  0.0319
  647poe    c31 5593   2.176   5.603   2.088  0.2979  0.4522  0.1344
  647poe     o2 5594   2.098   5.688   2.168  0.2333 -0.0546  0.6167
  647poe    c23 5595   1.959   5.683   2.143  0.3913  0.1007 -0.3026
  647poe    c23 5596   1.896   5.752   2.265 -0.0721  0.1283 -0.5555
  647poe     o2 5597   1.963   5.876   2.274 -0.3603  0.2831 -0.5306
  647poe    c23 5598   1.903   5.974   2.356  0.4476  0.1246  0.2703
  647poe    c23 5599   2.018   6.053   2.422  0.6428  0.0267  0.0468
  647poe     o2 5600   2.093   6.100   2.312 -0.0772 -0.2320 -0.5680
  647poe    c23 5601   2.176   6.208   2.347  0.2253 -0.4588 -0.5797
  647poe    c23 5602   2.107   6.343   2.377  0.3746 -0.3834 -0.5754
  647poe     o2 5603   2.186   6.399   2.480 -0.3515 -0.2970 -0.0578
  647poe    c31 5604   2.117   6.507   2.538  0.1428  0.1564 -0.3012
  648poe    c31 5605   3.460   5.962   3.560 -0.2426  0.7338  0.6892
  648poe     o2 5606   3.503   5.991   3.691 -0.1061 -0.0715  0.8303
  648poe    c23 5607   3.643   5.998   3.680 -0.1720 -0.3629 -0.2389
  648poe    c23 5608   3.710   6.053   3.807 -0.8180  0.3431 -0.2003
  648poe     o2 5609   3.642   6.007   3.922 -0.3822  0.8352  0.2642
  648poe    c23 5610   3.687   6.076   4.036  0.4253 -0.0022  0.4678
  648poe    c23 5611   3.627   6.022   4.167 -0.3686 -0.9285 -0.2587
  648poe     o2 5612   3.495   5.988   4.133 -0.4637 -0.0842 -0.7623
  648poe    c23 5613   3.482   5.851   4.165 -0.3842  0.1362  0.2296
  648poe    c23 5614   3.366   5.794   4.083 -0.2958  0.1322  0.1069
  648poe     o2 5615   3.378   5.838   3.949  0.3122  0.0953  0.1493
  648poe    c31 5616   3.281   5.782   3.863 -0.1083 -0.2793  0.8587
  649poe    c31 5617   3.266   2.278   2.846  0.0333  0.1832  0.6589
  649poe     o2 5618   3.320   2.157   2.800  0.2419  0.3418  0.4841
  649poe    c23 5619   3.450   2.171   2.747  0.1037 -0.3962 -0.0732
  649poe    c23 5620   3.458   2.045   2.660  0.4330 -0.5973  0.2424
  649poe     o2 5621   3.396   1.935   2.723  0.1425  0.0123  1.0237
  649poe    c23 5622   3.381   1.828   2.633 -0.0107  0.7518  0.1564
  649poe    c23 5623   3.371   1.696   2.711  0.4642  0.5988 -0.0362
  649poe     o2 5624   3.241   1.696   2.767  0.1310 -1.0606 -0.7337
  649poe    c23 5625   3.214   1.583   2.846  0.0377 -0.4955  0.0560
  649poe    c23 5626   3.080   1.570   2.921  0.2001 -0.1743  0.4029
  649poe     o2 5627   3.040   1.442   2.962 -0.1115 -0.2131 -0.0106
  649poe    c31 5628   2.926   1.450   3.045  0.1900 -0.0678  0.3961
  650poe    c31 5629   4.099   2.214   5.809  0.4911  0.6099  0.3033
  650poe     o2 5630   4.020   2.097   5.794  0.6619  0.5126  0.1598
  650poe    c23 5631   3.957   2.072   5.918  0.2762 -0.4025 -0.2155
  650poe    c23 5632   3.831   1.989   5.891 -0.3277  0.2271  0.6182
  650poe     o2 5633   3.874   1.897   5.793 -0.8078  0.3534  0.2806
  650poe    c23 5634   3.767   1.816   5.750 -0.1002 -0.1256 -0.6071
  650poe    c23 5635   3.779   1.819   5.596  0.0446  0.1048 -0.5912
  650poe     o2 5636   3.916   1.797   5.574  0.1190 -0.0850  0.0362
  650poe    c23 5637   3.950   1.854   5.449 -0.4489  0.2087  0.0122
  650poe    c23 5638   4.102   1.881   5.444 -0.2912 -0.4527  0.9319
  650poe     o2 5639   4.134   1.960   5.556  0.2427 -0.0214  0.4774
  650poe    c31 5640   4.268   2.004   5.553  0.3071 -0.2328  0.1973
  651poe    c31 5641   5.744   2.244   5.030 -1.0073 -0.1122 -0.6169
  651poe     o2 5642   5.724   2.316   5.149  0.3162 -0.1506 -0.3656
  651poe    c23 5643   5.811   2.426   5.170  0.9265 -0.7456  0.2865
  651poe    c23 5644   5.789   2.505   5.301  0.3694 -0.2277 -0.1153
  651poe     o2 5645   5.656   2.482   5.343  0.3098  0.3757  0.0354
  651poe    c23 5646   5.644   2.496   5.482  0.5446 -0.9189  0.1942
  651poe    c23 5647   5.499   2.448   5.502  0.1446  0.2654  0.1667
  651poe     o2 5648   5.515   2.318   5.450  0.2143  0.5004 -0.4078
  651poe    c23 5649   5.388   2.258   5.435  0.3339  0.1409  0.0196
  651poe    c23 5650   5.427   2.116   5.388  0.6916  0.1590  0.2539
  651poe     o2 5651   5.541   2.118   5.306  0.3295 -0.4832 -0.2770
  651poe    c31 5652   5.579   1.987   5.269 -0.4866 -0.8961  0.3170
  652poe    c31 5653   1.681   5.185   5.989 -0.1034 -0.2171  0.0292
  652poe     o2 5654   1.555   5.158   6.045 -0.1754  0.3314  0.1417
  652poe    c23 5655   1.449   5.217   5.973 -0.4950  0.0822  0.4000
  652poe    c23 5656   1.316   5.160   6.025 -0.4909  0.1749  0.5118
  652poe     o2 5657   1.262   5.050   5.956  0.2341 -0.0900  0.3536
  652poe    c23 5658   1.317   4.926   5.993 -0.6117 -0.5653  0.0596
  652poe    c23 5659   1.300   4.837   5.868 -0.4659  0.0421 -0.3997
  652poe     o2 5660   1.164   4.859   5.838 -0.6878 -0.4495  0.2189
  652poe    c23 5661   1.120   4.807   5.715 -0.0703  0.4524 -0.3892
  652poe    c23 5662   0.971   4.841   5.697 -0.3413 -0.4609  0.1312
  652poe     o2 5663   0.955   4.976   5.735  0.4056 -0.3885  0.1950
  652poe    c31 5664   0.825   5.015   5.700  0.4557 -0.3751  0.0195
  653poe    c31 5665   5.635   5.630   2.301  0.3904 -0.2272  0.2593
  653poe     o2 5666   5.580   5.752   2.345  0.7059 -0.0467  0.1552
  653poe    c23 5667   5.528   5.761   2.475  0.4860  1.0557 -0.0024
  653poe    c23 5668   5.399   5.844   2.456 -0.0561  0.1225 -0.4363
  653poe     o2 5669   5.410   5.944   2.357  0.1602 -0.1302 -0.6704
  653poe    c23 5670   5.277   5.986   2.340  0.1405  0.0630 -0.0730
  653poe    c23 5671   5.266   6.069   2.211 -0.3243  0.0260 -0.0600
  653poe     o2 5672   5.352   6.003   2.121 -0.4165 -0.3393  0.1188
  653poe    c23 5673   5.407   6.090   2.024 -0.1227 -0.7781 -0.1108
  653poe    c23 5674   5.533   6.022   1.966  0.4451  0.2843 -0.1405
  653poe     o2 5675   5.590   5.934   2.060 -0.1748  0.1261  0.0947
  653poe    c31 5676   5.694   5.862   1.998  0.0245  0.7060 -0.2639
  654poe    c31 5677   5.164   2.917   0.726 -0.5385  0.2928 -0.1163
  654poe     o2 5678   5.034   2.909   0.672 -0.2716 -0.4367 -0.6653
  654poe    c23 5679   4.928   2.901   0.765 -0.0360 -0.2770 -0.3805
  654poe    c23 5680   4.794   2.955   0.712 -0.1169 -0.6995 -0.6073
  654poe     o2 5681   4.802   3.091   0.677  0.2408 -0.5227  0.1509
  654poe    c23 5682   4.671   3.139   0.692  0.2390 -0.3912 -0.2600
  654poe    c23 5683   4.618   3.245   0.594  0.5795 -0.5499 -0.6178
  654poe     o2 5684   4.728   3.332   0.574  0.3234 -0.2502 -0.7402
  654poe    c23 5685   4.698   3.438   0.487 -0.2184 -0.0084 -0.2677
  654poe    c23 5686   4.830   3.513   0.461 -0.3834  0.0709 -0.9029
  654poe     o2 5687   4.931   3.415   0.456  0.0572  0.4695 -0.1034
  654poe    c31 5688   5.051   3.470   0.406  0.1877  0.6604  0.4194
  655poe    c31 5689   6.607   2.211   1.585 -0.1229  0.7403  0.3511
  655poe     o2 5690   6.568   2.141   1.700 -0.3085  0.4030  0.0861
  655poe    c23 5691   6.541   2.231   1.806  0.0730  0.1997  0.3587
  655poe    c23 5692   6.481   2.130   1.906 -0.1491  0.0467  0.0760
  655poe     o2 5693   6.575   2.025   1.908 -0.2008  0.0062  0.4921
  655poe    c23 5694   6.513   1.934   1.996 -0.0553  0.1460  0.7439
  655poe    c23 5695   6.568   1.801   1.941 -0.3786  0.4229 -0.2785
  655poe     o2 5696   6.544   1.811   1.802 -0.8949  0.2932 -0.2006
  655poe    c23 5697   6.586   1.698   1.729 -0.1137  0.2065  0.3671
  655poe    c23 5698   6.588   1.731   1.579  0.6831  0.1261  0.3595
  655poe     o2 5699   6.626   1.865   1.561 -0.0622  0.3120  0.1703
  655poe    c31 5700   6.657   1.886   1.425  0.8469 -0.0343  0.3187
  656poe    c31 5701   4.260   0.032   0.351  0.6163  0.1897 -0.7814
  656poe     o2 5702   4.211  -0.039   0.239 -0.1771 -0.1546 -0.2240
  656poe    c23 5703   4.313  -0.039   0.142 -0.0439  0.5037 -0.0895
  656poe    c23 5704   4.276  -0.143   0.035 -0.3269  0.2408  0.2610
  656poe     o2 5705   4.140  -0.120   0.005 -0.3790 -0.4733 -0.0613
  656poe    c23 5706   4.073  -0.232  -0.049  0.2077 -0.2254 -1.3529
  656poe    c23 5707   3.922  -0.211  -0.030  0.4207 -0.0428  0.3232
  656poe     o2 5708   3.906  -0.172   0.104 -0.8244  0.7675 -0.0460
  656poe    c23 5709   3.780  -0.164   0.168 -0.7747  0.7522  0.0546
  656poe    c23 5710   3.816  -0.109   0.307  0.4125  0.1088  0.0163
  656poe     o2 5711   3.920  -0.015   0.293  0.5615 -0.0484  0.0674
  656poe    c31 5712   3.903   0.096   0.378  0.2195  0.0283 -0.1014
  657poe    c31 5713   2.842   0.631   4.994 -0.5331  0.2182  0.2098
  657poe     o2 5714   2.871   0.659   5.129 -0.0716 -0.0097  0.1581
  657poe    c23 5715   2.869   0.536   5.198  0.0771  0.1659  0.4777
  657poe    c23 5716   2.862   0.581   5.345  0.2134 -0.2674  0.6194
  657poe     o2 5717   2.960   0.680   5.365  0.5490 -0.4594 -0.0483
  657poe    c23 5718   2.932   0.763   5.476  0.4341  0.2001 -0.5598
  657poe    c23 5719   3.060   0.846   5.492  0.9248 -0.6580  0.0254
  657poe     o2 5720   3.167   0.784   5.423  0.7308 -0.2534 -0.6493
  657poe    c23 5721   3.293   0.826   5.471  0.6416 -0.4172 -0.2662
  657poe    c23 5722   3.344   0.961   5.417 -0.2342 -0.1604 -0.4642
  657poe     o2 5723   3.360   0.968   5.277 -0.2622  0.0971 -0.4556
  657poe    c31 5724   3.436   1.082   5.246  0.0477  0.2229  0.7309
  658poe    c31 5725   5.797   0.504   2.134 -0.2097  0.0296 -0.4472
  658poe     o2 5726   5.778   0.565   2.008 -0.4496  0.4768 -0.1971
  658poe    c23 5727   5.707   0.687   2.016 -0.5144  0.4339 -0.1262
  658poe    c23 5728   5.668   0.722   1.871 -0.5670 -0.0180 -0.2234
  658poe     o2 5729   5.793   0.704   1.810 -0.6787 -0.2423 -0.3913
  658poe    c23 5730   5.790   0.731   1.672  0.8408  0.0896 -0.3873
  658poe    c23 5731   5.930   0.701   1.617  0.6610 -0.2581 -0.6643
  658poe     o2 5732   5.957   0.575   1.674  0.0277  0.0187  0.2617
  658poe    c23 5733   5.948   0.470   1.581 -0.5451  0.0997  0.2198
  658poe    c23 5734   5.967   0.346   1.670  0.4142  0.0259 -0.0729
  658poe     o2 5735   5.889   0.357   1.787  0.7717 -0.7196  0.2441
  658poe    c31 5736   5.793   0.255   1.791 -0.1138  0.0977  0.2125
  659poe    c31 5737   5.167   0.022   0.461 -0.5755 -0.6782 -0.4008
  659poe     o2 5738   5.240  -0.078   0.394  0.3189  0.1523 -0.6818
  659poe    c23 5739   5.212  -0.196   0.466 -0.1590  0.3451 -0.5450
  659poe    c23 5740   5.185  -0.321   0.380 -0.2808 -0.2835  0.3927
  659poe     o2 5741   5.296  -0.356   0.300 -0.4260 -0.2697  0.1861
  659poe    c23 5742   5.254  -0.393   0.171 -0.6969  0.3804  0.0836
  659poe    c23 5743   5.370  -0.362   0.075 -0.2960 -0.0018  0.4449
  659poe     o2 5744   5.415  -0.230   0.098  0.6356 -0.2494  0.0986
  659poe    c23 5745   5.377  -0.148  -0.010  0.5698  0.1999  0.4596
  659poe    c23 5746   5.437  -0.013   0.033 -0.3164  0.7940 -0.1270
  659poe     o2 5747   5.410  -0.003   0.171 -0.3444 -1.2829  0.0385
  659poe    c31 5748   5.439   0.124   0.223  0.1976 -1.1160 -0.6415
  660poe    c31 5749   6.027   3.191   2.596  0.4206  0.2701 -0.3906
  660poe     o2 5750   6.077   3.294   2.678 -0.3596  0.1795  0.2113
  660poe    c23 5751   6.069   3.279   2.818  0.9840 -0.8987  0.1849
  660poe    c23 5752   6.128   3.405   2.884  0.0237 -0.3774  0.0536
  660poe     o2 5753   6.234   3.452   2.805 -0.3702  0.3600 -0.0434
  660poe    c23 5754   6.239   3.593   2.809  0.5186  0.3321 -0.0780
  660poe    c23 5755   6.271   3.648   2.668 -0.3892 -0.1131 -0.4620
  660poe     o2 5756   6.204   3.561   2.579 -0.1092 -0.8007 -0.0078
  660poe    c23 5757   6.200   3.603   2.445  0.0910 -0.7075  0.0147
  660poe    c23 5758   6.146   3.471   2.387  0.3885 -0.6335 -0.4384
  660poe     o2 5759   6.222   3.364   2.439  0.2946 -0.5585 -0.1424
  660poe    c31 5760   6.299   3.308   2.335  0.6615 -0.0327 -0.1576
  661poe    c31 5761   0.015   2.433   1.353 -0.3008  0.3198  0.7617
  661poe     o2 5762   0.128   2.455   1.434  0.4990  0.1263 -0.2780
  661poe    c23 5763   0.229   2.392   1.359  0.3910  0.2270 -0.5069
  661poe    c23 5764   0.362   2.450   1.412  0.3042 -0.6208  0.6771
  661poe     o2 5765   0.346   2.468   1.551  0.1809 -0.5101  0.6496
  661poe    c23 5766   0.444   2.548   1.612  0.0779  0.2352 -0.1390
  661poe    c23 5767   0.383   2.547   1.754  0.1072  0.0602 -0.1275
  661poe     o2 5768   0.244   2.571   1.744  0.1129  0.2411  0.2064
  661poe    c23 5769   0.167   2.519   1.850 -0.7194  0.3956 -0.3133
  661poe    c23 5770   0.019   2.536   1.811 -0.8874 -0.1798  0.0690
  661poe     o2 5771   0.010   2.531   1.671  0.7776  0.2134 -0.0740
  661poe    c31 5772  -0.107   2.600   1.634  0.2884 -0.5670 -0.0057
  662poe    c31 5773   2.401   6.482   2.810  0.3561 -0.2211 -0.2708
  662poe     o2 5774   2.294   6.571   2.836  0.6089  0.2023 -0.6534
  662poe    c23 5775   2.305   6.604   2.973  0.0264 -0.3558 -0.4681
  662poe    c23 5776   2.206   6.720   2.996  0.1988 -0.2438 -0.2957
  662poe     o2 5777   2.070   6.695   3.022  0.0712  0.1711 -0.5368
  662poe    c23 5778   1.998   6.656   2.908 -0.0321  0.0481 -0.4305
  662poe    c23 5779   1.850   6.659   2.949 -0.0140 -0.0412 -0.3574
  662poe     o2 5780   1.842   6.577   3.063 -0.0327  0.3962 -0.0426
  662poe    c23 5781   1.703   6.569   3.090 -0.0603 -0.3716 -0.3942
  662poe    c23 5782   1.695   6.544   3.241  0.2045 -0.0322 -0.3216
  662poe     o2 5783   1.775   6.645   3.298  0.1618 -0.0748 -0.1832
  662poe    c31 5784   1.757   6.644   3.437 -0.0481 -0.6099 -0.2124
  663poe    c31 5785   4.082   4.145   0.215 -0.1357  0.0881 -0.2071
  663poe     o2 5786   4.015   4.076   0.318 -0.3167  0.3692 -0.1352
  663poe    c23 5787   4.007   4.158   0.432  0.1597  0.0400  0.1401
  663poe    c23 5788   3.924   4.096   0.546 -0.2550 -0.0710 -0.2216
  663poe     o2 5789   3.820   4.025   0.482 -0.3347 -0.2314  0.0812
  663poe    c23 5790   3.738   3.967   0.581 -0.8351 -0.0057 -0.1958
  663poe    c23 5791   3.603   3.913   0.530 -0.7408 -0.0422 -0.4073
  663poe     o2 5792   3.653   3.800   0.462 -0.0803 -0.5853  0.9540
  663poe    c23 5793   3.563   3.714   0.395  0.2253 -0.3142  0.1817
  663poe    c23 5794   3.503   3.772   0.266  0.4385 -1.0528 -0.2558
  663poe     o2 5795   3.595   3.787   0.160  0.6426  0.4896  0.1188
  663poe    c31 5796   3.576   3.703   0.049  0.1537  0.5539  0.1499
  664poe    c31 5797   1.613   3.638   5.560  0.1486 -0.1077  0.4302
  664poe     o2 5798   1.615   3.510   5.620 -0.2759 -0.3732 -0.1164
  664poe    c23 5799   1.500   3.431   5.598 -0.5021  0.0056 -0.2999
  664poe    c23 5800   1.513   3.301   5.679  0.3598  0.3053  0.0622
  664poe     o2 5801   1.644   3.260   5.645  0.1658 -0.0118 -0.3192
  664poe    c23 5802   1.705   3.155   5.716  0.5629  0.2625 -0.2507
  664poe    c23 5803   1.849   3.144   5.661  0.5450  0.2927 -0.3040
  664poe     o2 5804   1.907   3.271   5.684  0.1798  0.4910 -0.4667
  664poe    c23 5805   2.042   3.263   5.644  0.1587 -0.0041 -0.4557
  664poe    c23 5806   2.098   3.397   5.697  0.1556 -0.2855  0.2646
  664poe     o2 5807   2.002   3.494   5.663  0.0362 -0.4493  0.1344
  664poe    c31 5808   2.063   3.619   5.644  0.0680 -0.4263  0.3932
  665poe    c31 5809   4.178   6.765   4.423 -0.2696 -0.0624 -0.5197
  665poe     o2 5810   4.091   6.855   4.489 -0.0984 -0.0433 -0.3203
  665poe    c23 5811   3.983   6.887   4.405 -0.0460 -0.5185 -0.5750
  665poe    c23 5812   3.864   6.958   4.472  0.1302 -0.7569 -0.0092
  665poe     o2 5813   3.872   6.924   4.609  0.3310 -0.2847  0.0966
  665poe    c23 5814   3.797   7.005   4.697  0.0332 -0.3959 -0.0540
  665poe    c23 5815   3.825   6.966   4.844  0.1915  0.3396  0.1156
  665poe     o2 5816   3.963   6.941   4.835  0.0817 -0.0277 -0.6790
  665poe    c23 5817   4.009   6.860   4.940  0.1512  0.3666 -0.4031
  665poe    c23 5818   4.161   6.858   4.912  0.3572 -1.0893  0.6744
  665poe     o2 5819   4.178   6.819   4.778  0.4012  0.6913  0.1363
  665poe    c31 5820   4.312   6.811   4.735  0.4754  0.0244  0.4867
  666poe    c31 5821   1.262   0.701   5.290 -0.3426  0.1540 -0.4542
  666poe     o2 5822   1.390   0.728   5.344 -0.2189 -1.1081 -0.0694
  666poe    c23 5823   1.411   0.660   5.465  0.0190 -0.1425  0.4382
  666poe    c23 5824   1.533   0.721   5.537  0.2702 -0.7074  0.4969
  666poe     o2 5825   1.630   0.735   5.435  0.1586 -0.0114  0.4792
  666poe    c23 5826   1.743   0.814   5.463 -0.3190  0.9046 -0.1093
  666poe    c23 5827   1.792   0.871   5.329  0.0069 -0.2720 -0.5121
  666poe     o2 5828   1.675   0.916   5.264 -0.0891 -0.1640 -0.2656
  666poe    c23 5829   1.684   0.999   5.150  0.4866 -0.1293 -0.1960
  666poe    c23 5830   1.538   1.037   5.118  0.3111 -0.4280  0.2372
  666poe     o2 5831   1.447   0.931   5.139 -0.0683 -0.0454  0.5375
  666poe    c31 5832   1.319   0.966   5.091  0.2882  0.5897  0.0380
  667poe    c31 5833   2.483   3.243   5.120  0.2137  0.3048 -0.2405
  667poe     o2 5834   2.447   3.367   5.176 -0.6145  0.0195 -0.1231
  667poe    c23 5835   2.506   3.389   5.302 -0.1092  0.2010 -0.3896
  667poe    c23 5836   2.436   3.511   5.366 -0.2065  0.0320 -0.1727
  667poe     o2 5837   2.421   3.611   5.268  0.1960 -0.1196 -0.3953
  667poe    c23 5838   2.336   3.719   5.301 -0.1521 -0.4353 -0.2448
  667poe    c23 5839   2.251   3.766   5.181  0.1645 -0.0296 -0.3169
  667poe     o2 5840   2.228   3.650   5.104  0.2071 -0.2261 -0.0350
  667poe    c23 5841   2.179   3.680   4.976  0.2589 -0.0715 -0.0186
  667poe    c23 5842   2.170   3.548   4.897 -0.2420  0.2864 -0.5767
  667poe     o2 5843   2.296   3.491   4.923 -0.2521  0.6170  0.2504
  667poe    c31 5844   2.317   3.397   4.820 -0.3609  0.2833  0.5300
  668poe    c31 5845   6.230   2.341   3.707 -0.2375 -0.0913 -0.3212
  668poe     o2 5846   6.229   2.448   3.615  0.0374  0.1468 -0.0501
  668poe    c23 5847   6.305   2.421   3.499  0.1672  0.4584 -0.0396
  668poe    c23 5848   6.265   2.516   3.384 -0.3244 -0.2576 -0.4732
  668poe     o2 5849   6.126   2.541   3.387 -0.2856 -0.1159  0.8789
  668poe    c23 5850   6.072   2.622   3.286  0.4991  0.1515  0.6650
  668poe    c23 5851   5.926   2.588   3.248  0.8375 -0.3834 -0.1739
  668poe     o2 5852   5.866   2.585   3.375  0.7333 -0.4772 -0.2253
  668poe    c23 5853   5.735   2.534   3.367  0.5327 -0.0562  0.3638
  668poe    c23 5854   5.643   2.544   3.491 -0.1196  0.2602 -0.1389
  668poe     o2 5855   5.685   2.473   3.605 -0.4094  0.0694 -0.1500
  668poe    c31 5856   5.579   2.499   3.694  0.0169 -0.3856  0.5032
  669poe    c31 5857   2.388   2.226   0.686  0.5302  0.6603 -0.2389
  669poe     o2 5858   2.474   2.319   0.748  0.4093  0.2325  0.5929
  669poe    c23 5859   2.578   2.246   0.810  0.1096 -0.3563  0.4104
  669poe    c23 5860   2.682   2.349   0.857  0.1059 -0.2148  0.1113
  669poe     o2 5861   2.620   2.462   0.913  0.9896 -0.1050  0.8898
  669poe    c23 5862   2.699   2.579   0.911  0.6030  0.1441  0.0084
  669poe    c23 5863   2.604   2.698   0.891  0.8585  0.3152 -0.1911
  669poe     o2 5864   2.519   2.648   0.791  0.6346  0.0729  0.1179
  669poe    c23 5865   2.444   2.748   0.725  0.0001 -0.2800  0.2919
  669poe    c23 5866   2.380   2.674   0.606 -0.6533  0.5393  0.1194
  669poe     o2 5867   2.318   2.562   0.664 -0.1618  0.4447  0.4750
  669poe    c31 5868   2.222   2.522   0.569  0.4340 -0.4983  0.2576
  670poe    c31 5869   1.838   3.892   4.798 -0.3142  0.1467  0.8209
  670poe     o2 5870   1.716   3.821   4.791 -0.0556 -0.2534  0.2957
  670poe    c23 5871   1.614   3.912   4.757  0.5246 -0.0154 -0.8473
  670poe    c23 5872   1.498   3.830   4.696  0.3470 -0.2266 -0.2357
  670poe     o2 5873   1.482   3.728   4.791  0.4681 -0.0570 -0.0341
  670poe    c23 5874   1.373   3.645   4.759  0.0597  0.4887 -0.0632
  670poe    c23 5875   1.373   3.522   4.851  0.3683 -0.0126 -0.7227
  670poe     o2 5876   1.495   3.460   4.818  0.8025  0.4688 -0.0626
  670poe    c23 5877   1.468   3.345   4.741  0.2566  0.5537  0.0019
  670poe    c23 5878   1.590   3.251   4.744  0.1137  0.3809  0.7628
  670poe     o2 5879   1.712   3.303   4.696  0.0318 -0.0116  0.1149
  670poe    c31 5880   1.824   3.224   4.729  0.3305  0.2547 -0.2469
  671poe    c31 5881   2.375   5.352   1.541  0.2435  0.4487 -0.3082
  671poe     o2 5882   2.238   5.349   1.573  0.2471  0.5019 -0.2873
  671poe    c23 5883   2.189   5.460   1.644  0.0045  0.0480  0.2676
  671poe    c23 5884   2.038   5.486   1.627  0.0120  0.1407  0.3376
  671poe     o2 5885   1.997   5.351   1.631  0.1199  0.1112  0.4789
  671poe    c23 5886   1.873   5.324   1.568  0.3345  0.2314  0.0018
  671poe    c23 5887   1.866   5.170   1.556 -0.1589  0.2275  0.3156
  671poe     o2 5888   1.994   5.139   1.506  0.0910  0.7887  0.5919
  671poe    c23 5889   2.002   4.999   1.487  0.2826  0.8003  0.5848
  671poe    c23 5890   2.153   4.973   1.470  0.0614 -0.6166  0.6509
  671poe     o2 5891   2.230   5.034   1.571 -0.1690  0.0387  0.4372
  671poe    c31 5892   2.359   4.983   1.548 -0.1479  0.2373  0.1087
  672poe    c31 5893   3.965   0.466   3.810 -0.9108  0.0648  0.6620
  672poe     o2 5894   3.841   0.532   3.802 -0.8382  0.1022 -0.2259
  672poe    c23 5895   3.814   0.619   3.909 -0.3736  0.0273 -0.0460
  672poe    c23 5896   3.728   0.745   3.883  0.1908  0.5132  0.4116
  672poe     o2 5897   3.593   0.710   3.866  0.2539  0.4632  0.0170
  672poe    c23 5898   3.519   0.814   3.806  0.2263  0.3987 -0.0620
  672poe    c23 5899   3.370   0.780   3.786  0.1476  0.6024  0.1612
  672poe     o2 5900   3.362   0.645   3.743  0.2241  0.7895 -0.4509
  672poe    c23 5901   3.243   0.619   3.673  0.0680  0.3039 -0.0104
  672poe    c23 5902   3.273   0.502   3.578 -0.3695  0.2768 -0.1175
  672poe     o2 5903   3.406   0.507   3.532 -0.1674 -0.0867  0.4184
  672poe    c31 5904   3.409   0.430   3.414  0.3612  0.2469  0.2128
  673poe    c31 5905   1.387   3.044   6.610 -0.1975 -0.0838  0.0578
  673poe     o2 5906   1.311   3.129   6.693 -0.0137  0.2213 -0.0862
  673poe    c23 5907   1.388   3.231   6.754  0.4801 -0.1430 -0.0938
  673poe    c23 5908   1.299   3.355   6.775  0.3752 -0.1411 -0.5461
  673poe     o2 5909   1.184   3.297   6.830  0.4862 -0.3004 -0.4810
  673poe    c23 5910   1.092   3.401   6.855  0.4002 -0.4115 -0.3304
  673poe    c23 5911   0.965   3.361   6.778  0.0640  0.3100 -0.1628
  673poe     o2 5912   0.974   3.221   6.763 -0.4570  0.2713 -0.1436
  673poe    c23 5913   0.880   3.168   6.672  0.0130 -0.5306 -0.1790
  673poe    c23 5914   0.901   3.016   6.674 -0.1983 -0.5543  0.2169
  673poe     o2 5915   1.038   3.004   6.645 -0.2212 -0.3483  0.0219
  673poe    c31 5916   1.052   2.882   6.576 -0.1330 -0.2415 -0.1490
  674poe    c31 5917   0.183   0.733   6.461 -0.8476 -0.1761  0.0428
  674poe     o2 5918   0.102   0.790   6.562 -0.8176  0.3900 -0.2505
  674poe    c23 5919   0.008   0.888   6.524 -0.3680  0.8227 -0.2657
  674poe    c23 5920  -0.118   0.879   6.613 -0.0696  0.0445  0.0875
  674poe     o2 5921  -0.068   0.849   6.742 -0.4808 -0.8738  0.0354
  674poe    c23 5922  -0.161   0.810   6.841 -0.5511 -0.2362  0.2259
  674poe    c23 5923  -0.078   0.760   6.960 -0.1744 -0.5218 -0.1540
  674poe     o2 5924   0.026   0.698   6.888  0.5318  0.2313  0.1986
  674poe    c23 5925   0.117   0.626   6.968 -0.5179 -1.0039  0.3110
  674poe    c23 5926   0.196   0.546   6.863  0.4769  0.2984  0.0367
  674poe     o2 5927   0.249   0.621   6.757 -0.7758  0.1604 -0.7038
  674poe    c31 5928   0.367   0.555   6.718 -0.1510  0.3347  0.8115
  675poe    c31 5929   0.880   2.956   0.904  0.0912  0.4818  0.2971
  675poe     o2 5930   0.817   2.895   0.793 -0.1384  0.4126  0.4626
  675poe    c23 5931   0.912   2.873   0.691 -0.0593  0.2355  0.5759
  675poe    c23 5932   0.847   2.759   0.609  0.9056  0.3504 -0.3806
  675poe     o2 5933   0.730   2.818   0.557  0.0808 -0.6378  0.3164
  675poe    c23 5934   0.645   2.734   0.482  0.0753 -0.1253 -0.2644
  675poe    c23 5935   0.541   2.838   0.436  0.5250  0.3526 -0.2100
  675poe     o2 5936   0.485   2.894   0.553 -0.5057 -0.1586 -0.4488
  675poe    c23 5937   0.384   2.986   0.517 -0.0627  0.2190 -0.7337
  675poe    c23 5938   0.254   2.953   0.591  0.3355 -0.1755 -0.1968
  675poe     o2 5939   0.284   2.929   0.727 -0.2024  1.0565  0.1555
  675poe    c31 5940   0.178   2.887   0.810  0.2284 -0.2256  0.0697
  676poe    c31 5941   4.602   0.281   6.209  0.0890 -0.3629  0.6177
  676poe     o2 5942   4.708   0.268   6.117  0.1186 -0.1258  0.6192
  676poe    c23 5943   4.695   0.151   6.039  0.3328 -0.1081  0.5569
  676poe    c23 5944   4.832   0.125   5.973  0.2781  0.1741  0.3300
  676poe     o2 5945   4.884   0.251   5.937  0.6548  0.0915  0.5846
  676poe    c23 5946   4.995   0.236   5.851  0.7560  0.1822  0.6970
  676poe    c23 5947   5.075   0.366   5.836  0.1688  0.5002  0.2649
  676poe     o2 5948   4.990   0.475   5.808 -0.0231  0.1697 -0.4571
  676poe    c23 5949   5.068   0.590   5.790  0.3656 -0.2107 -1.2377
  676poe    c23 5950   4.989   0.713   5.740  0.0352  0.0752 -0.0327
  676poe     o2 5951   4.903   0.752   5.845 -0.7772 -0.2570 -0.5748
  676poe    c31 5952   4.863   0.882   5.810  0.0161  0.1921  0.1795
  677poe    c31 5953   1.395   1.654   5.588 -0.9112  0.9508  0.1841
  677poe     o2 5954   1.513   1.656   5.510 -0.2204  0.1525  1.1704
  677poe    c23 5955   1.590   1.542   5.536  0.1451 -0.0675 -0.7370
  677poe    c23 5956   1.724   1.550   5.460  0.6497  0.3338  0.1790
  677poe     o2 5957   1.687   1.606   5.336  0.3104 -0.0289  0.1172
  677poe    c23 5958   1.791   1.611   5.241  0.3996  0.2339  0.2297
  677poe    c23 5959   1.741   1.688   5.118  0.0627 -0.1102  0.1522
  677poe     o2 5960   1.672   1.796   5.176  0.1962  0.3026 -0.4436
  677poe    c23 5961   1.576   1.851   5.089  0.1131  0.1102 -0.4727
  677poe    c23 5962   1.488   1.944   5.174  0.7541  0.1312  0.1771
  677poe     o2 5963   1.447   1.862   5.282  0.2305  0.5683  0.3152
  677poe    c31 5964   1.312   1.891   5.311 -0.0718 -0.1095 -0.3690
  678poe    c31 5965   0.359   0.500   4.369  0.2929 -0.0294  0.2566
  678poe     o2 5966   0.321   0.611   4.448 -0.1675  0.1840 -0.2529
  678poe    c23 5967   0.282   0.720   4.369  0.2743  0.4178 -0.1530
  678poe    c23 5968   0.175   0.803   4.443  0.3443  0.6157 -0.2714
  678poe     o2 5969   0.222   0.820   4.575 -0.0883 -0.4159  0.0263
  678poe    c23 5970   0.128   0.879   4.661  0.2329  0.3330 -0.1310
  678poe    c23 5971   0.174   0.833   4.800 -0.3211  0.2777  0.0388
  678poe     o2 5972   0.193   0.693   4.802 -0.2991  0.2688 -0.7603
  678poe    c23 5973   0.286   0.634   4.889 -0.4465  0.5094 -0.4401
  678poe    c23 5974   0.327   0.490   4.855 -0.5648  0.4119 -0.1733
  678poe     o2 5975   0.351   0.487   4.716  0.3971 -0.0818 -0.0085
  678poe    c31 5976   0.416   0.364   4.690  0.7586  0.2062 -0.4728
  679poe    c31 5977   6.734   3.786   6.129  0.1672 -0.1274 -0.3088
  679poe     o2 5978   6.711   3.925   6.118 -0.4033 -0.1539  0.4668
  679poe    c23 5979   6.754   3.997   6.231 -0.6421  0.2118  0.3248
  679poe    c23 5980   6.779   4.145   6.195 -0.0356  0.1802  0.5967
  679poe     o2 5981   6.856   4.154   6.077  0.2387  0.0866  0.7670
  679poe    c23 5982   6.847   4.283   6.021  0.0661 -0.4530 -0.4960
  679poe    c23 5983   6.874   4.285   5.869  0.5942 -0.3843 -0.4032
  679poe     o2 5984   6.854   4.150   5.835 -0.4308 -0.3440  0.0183
  679poe    c23 5985   6.815   4.112   5.705 -0.9379  0.1620  0.0174
  679poe    c23 5986   6.812   3.958   5.699 -0.1174  0.1418  0.0285
  679poe     o2 5987   6.752   3.915   5.819  0.1568 -0.7003 -0.1268
  679poe    c31 5988   6.700   3.785   5.804 -0.1167 -0.5648 -0.3441
  680poe    c31 5989   4.357   4.703   5.236  0.1723  0.5488  0.1875
  680poe     o2 5990   4.220   4.671   5.235  0.2407  0.2526  0.1988
  680poe    c23 5991   4.184   4.553   5.303  0.7088 -0.2055 -0.3377
  680poe    c23 5992   4.038   4.510   5.277  0.6406 -0.2166  0.0672
  680poe     o2 5993   3.941   4.592   5.338  0.2074 -0.5411 -0.1786
  680poe    c23 5994   3.894   4.530   5.455  0.6111 -0.2498  0.1383
  680poe    c23 5995   3.764   4.589   5.513  0.3201 -0.0208 -0.7306
  680poe     o2 5996   3.786   4.729   5.504  0.3771 -0.0007 -0.3366
  680poe    c23 5997   3.668   4.795   5.545  0.5645 -0.1441  0.4341
  680poe    c23 5998   3.669   4.949   5.543  0.7938 -0.1554 -0.5273
  680poe     o2 5999   3.691   5.005   5.415  0.1238 -0.1702 -0.6489
  680poe    c31 6000   3.646   5.138   5.398 -0.0038 -0.1255  0.0128
  681poe    c31 6001   4.513   6.644   2.213  0.5181 -0.1130 -0.4391
  681poe     o2 6002   4.455   6.757   2.153 -0.1848  0.0260  0.4913
  681poe    c23 6003   4.485   6.749   2.016  0.4216 -0.7460  0.6648
  681poe    c23 6004   4.474   6.895   1.966  0.2333 -0.5515  1.2716
  681poe     o2 6005   4.361   6.945   2.034 -0.1460 -0.4194  0.5456
  681poe    c23 6006   4.305   7.063   1.980 -0.8843 -0.9320  0.1714
  681poe    c23 6007   4.159   7.085   2.024 -0.6035  0.8731  0.2725
  681poe     o2 6008   4.149   7.068   2.163 -0.1662 -0.0956  0.1911
  681poe    c23 6009   4.175   7.178   2.247 -0.0701  0.1794 -0.1952
  681poe    c23 6010   4.223   7.106   2.374 -0.0566  0.5328  0.0022
  681poe     o2 6011   4.332   7.025   2.334 -0.2275  0.0079  0.5665
  681poe    c31 6012   4.383   6.958   2.447  0.4942 -0.3343  0.0443
  682poe    c31 6013   3.689   6.420   3.375  0.2047  0.6041  0.1297
  682poe     o2 6014   3.714   6.554   3.408  0.4237  0.6692 -0.2907
  682poe    c23 6015   3.591   6.611   3.448  0.0967 -0.2903  0.0979
  682poe    c23 6016   3.625   6.753   3.497 -0.1600 -0.2447  0.1404
  682poe     o2 6017   3.718   6.803   3.403  0.0743 -0.0620  0.4702
  682poe    c23 6018   3.754   6.935   3.435  0.4229 -0.1107  0.2829
  682poe    c23 6019   3.864   6.967   3.332  0.5639  0.0343  0.4775
  682poe     o2 6020   3.926   6.844   3.302 -0.3773 -0.2484 -0.3634
  682poe    c23 6021   3.986   6.829   3.175 -0.3313 -0.4574 -0.3176
  682poe    c23 6022   4.031   6.685   3.145 -0.3638 -0.4608 -0.3514
  682poe     o2 6023   3.958   6.602   3.233 -0.6390  0.3122  0.1528
  682poe    c31 6024   4.016   6.475   3.249 -0.2092  0.4233 -0.4923
  683poe    c31 6025   2.297   4.829   4.778  0.2952 -0.0744  0.6418
  683poe     o2 6026   2.305   4.841   4.638  0.2199 -0.5538  0.5951
  683poe    c23 6027   2.181   4.822   4.572  0.3328 -0.1847  0.2752
  683poe    c23 6028   2.196   4.779   4.425 -0.4644  0.0110  0.1331
  683poe     o2 6029   2.249   4.884   4.347 -0.3522  0.0909  0.3179
  683poe    c23 6030   2.315   4.807   4.249 -0.2605  0.4386  0.1041
  683poe    c23 6031   2.345   4.886   4.121 -0.5675  0.0127 -0.2321
  683poe     o2 6032   2.393   5.007   4.176 -0.5089 -0.0424 -0.1611
  683poe    c23 6033   2.410   5.115   4.086  0.2198  0.5960  0.7266
  683poe    c23 6034   2.495   5.211   4.171  1.3420 -0.0526  0.3578
  683poe     o2 6035   2.420   5.251   4.284  0.1073 -0.2183 -0.3896
  683poe    c31 6036   2.486   5.362   4.339 -0.8021  0.0603  0.1685
  684poe    c31 6037   2.488   0.275   4.599 -0.2785 -0.0573  0.5655
  684poe     o2 6038   2.406   0.163   4.623 -0.1161 -0.2386  0.2883
  684poe    c23 6039   2.347   0.122   4.502  0.2501  0.0193  0.0194
  684poe    c23 6040   2.298  -0.023   4.524 -0.0858  0.1580  0.1940
  684poe     o2 6041   2.192  -0.046   4.434  0.0663  0.2480 -0.0099
  684poe    c23 6042   2.111  -0.160   4.451  0.2535  0.0868 -0.2009
  684poe    c23 6043   1.986  -0.154   4.361  0.0806  0.3046  0.0541
  684poe     o2 6044   2.004  -0.131   4.223  0.0088 -0.3535 -0.0637
  684poe    c23 6045   2.049  -0.241   4.147  0.1099 -0.5442  0.2682
  684poe    c23 6046   2.032  -0.199   4.000  0.4025  0.0937  0.4158
  684poe     o2 6047   2.125  -0.107   3.947 -0.2249  0.2919 -0.3604
  684poe    c31 6048   2.099  -0.080   3.811 -0.9281 -0.2372 -0.3408
  685poe    c31 6049   3.687   5.495   0.669 -0.1643 -0.3654  0.0605
  685poe     o2 6050   3.611   5.424   0.574 -0.2917  0.0633 -0.1611
  685poe    c23 6051   3.494   5.367   0.630  0.1332 -0.2002  0.4677
  685poe    c23 6052   3.420   5.269   0.538 -0.0159  0.5459 -0.2187
  685poe     o2 6053   3.432   5.331   0.411 -0.2140  0.2684 -0.3748
  685poe    c23 6054   3.396   5.245   0.305  0.0405 -0.2826 -0.0196
  685poe    c23 6055   3.438   5.307   0.170  0.0464 -0.0675  0.0797
  685poe     o2 6056   3.565   5.364   0.190 -0.0431  0.1443  0.0429
  685poe    c23 6057   3.623   5.412   0.071 -0.1026 -0.1241 -0.0964
  685poe    c23 6058   3.701   5.317  -0.021 -0.1600  0.1208 -0.4007
  685poe     o2 6059   3.624   5.227  -0.098 -0.0830 -0.9017  0.6782
  685poe    c31 6060   3.553   5.283  -0.207  0.6423 -0.7521  0.2747
  686poe    c31 6061   2.465   0.031   3.854 -0.7596 -0.5621 -0.6447
  686poe     o2 6062   2.559  -0.068   3.890 -0.3702 -0.1621 -0.5577
  686poe    c23 6063   2.497  -0.158   3.978 -0.2994  0.2399 -0.0944
  686poe    c23 6064   2.606  -0.224   4.066 -0.3499 -0.0713 -0.2627
  686poe     o2 6065   2.682  -0.286   3.965  0.2401 -0.0702  0.1772
  686poe    c23 6066   2.799  -0.349   4.013 -0.0476 -0.2603  0.6367
  686poe    c23 6067   2.902  -0.336   3.899 -0.7409 -0.4376 -0.0213
  686poe     o2 6068   2.865  -0.224   3.822 -0.4121 -0.4396 -0.1837
  686poe    c23 6069   2.976  -0.201   3.739 -0.1973 -0.2416  0.1560
  686poe    c23 6070   2.954  -0.058   3.686  0.0853  0.0420  0.7924
  686poe     o2 6071   2.818  -0.035   3.658  0.1711 -0.3373  0.0279
  686poe    c31 6072   2.787   0.080   3.584  0.1190 -0.5280 -0.2487
  687poe    c31 6073   1.275   5.083   2.688  0.8943 -0.2563  1.0043
  687poe     o2 6074   1.196   5.181   2.752  0.6877  0.1572  0.1316
  687poe    c23 6075   1.158   5.125   2.875  0.0464 -0.2930 -0.2628
  687poe    c23 6076   1.099   5.248   2.947  0.3241 -0.1793 -0.2282
  687poe     o2 6077   1.160   5.370   2.914 -0.0893  0.0502 -0.1367
  687poe    c23 6078   1.161   5.472   3.012  0.2004  0.0830 -0.1748
  687poe    c23 6079   1.235   5.595   2.957  0.8212 -0.4186 -0.4812
  687poe     o2 6080   1.191   5.623   2.826  0.3868 -0.1096 -0.2723
  687poe    c23 6081   1.260   5.737   2.779  0.0891  0.1298 -0.1297
  687poe    c23 6082   1.220   5.785   2.638  0.2000  0.6344  0.0078
  687poe     o2 6083   1.297   5.719   2.540  0.0717  0.0781  0.2740
  687poe    c31 6084   1.290   5.778   2.412 -0.1841 -0.0465  0.2293
  688poe    c31 6085   4.085   1.633   3.947 -0.0525  0.3398  0.5079
  688poe     o2 6086   3.976   1.676   4.025 -0.4563  0.8202 -0.3026
  688poe    c23 6087   3.853   1.628   3.975 -0.1250 -0.1108 -0.2568
  688poe    c23 6088   3.744   1.721   4.032 -0.4894 -0.5979 -0.1595
  688poe     o2 6089   3.778   1.726   4.168 -0.4136 -0.0364 -0.1974
  688poe    c23 6090   3.676   1.802   4.228 -0.0775 -0.1716  0.5637
  688poe    c23 6091   3.737   1.821   4.368  0.2127 -0.2752  0.4503
  688poe     o2 6092   3.868   1.872   4.355 -0.0212  0.3986  0.6973
  688poe    c23 6093   3.954   1.846   4.464  0.2383  0.1895  0.4450
  688poe    c23 6094   4.004   1.702   4.442  0.0559  0.2382 -0.3387
  688poe     o2 6095   4.030   1.677   4.306 -0.7591  0.3411 -0.5202
  688poe    c31 6096   4.079   1.545   4.298 -0.9995  0.2141  0.0380
  689poe    c31 6097   6.231   4.812   6.260 -0.2560  0.2075 -0.4700
  689poe     o2 6098   6.171   4.706   6.332  0.4927 -0.1356 -0.3421
  689poe    c23 6099   6.185   4.722   6.471 -0.3666  0.1875 -0.2865
  689poe    c23 6100   6.137   4.590   6.534  0.4426 -0.0888 -0.2347
  689poe     o2 6101   6.018   4.554   6.468  0.0101  0.1212  0.4233
  689poe    c23 6102   5.975   4.423   6.498 -0.0220 -0.0790 -0.4711
  689poe    c23 6103   5.843   4.400   6.423 -0.5706  0.7787  0.2047
  689poe     o2 6104   5.900   4.422   6.295 -0.5053  0.3987  0.1652
  689poe    c23 6105   5.816   4.439   6.184 -0.0098  0.2140 -0.2390
  689poe    c23 6106   5.912   4.486   6.074  0.0426 -0.5128 -0.5092
  689poe     o2 6107   5.986   4.596   6.122  0.0922 -0.4987 -0.6171
  689poe    c31 6108   6.070   4.624   6.012  0.7588  0.0801  0.0260
  690poe    c31 6109   6.575   3.312   4.342 -0.8599 -0.1441  0.7273
  690poe     o2 6110   6.458   3.390   4.332 -0.0497  1.0098 -0.1010
  690poe    c23 6111   6.478   3.498   4.420  0.2176  0.5772  0.3793
  690poe    c23 6112   6.363   3.600   4.404 -0.0987  0.1665 -0.0216
  690poe     o2 6113   6.253   3.513   4.420  0.1742 -0.2709 -0.4947
  690poe    c23 6114   6.128   3.579   4.424  0.3087  0.0036 -0.7289
  690poe    c23 6115   6.039   3.456   4.453  0.4688  0.0870  0.1444
  690poe     o2 6116   6.093   3.348   4.380  0.6698  0.3039 -0.0307
  690poe    c23 6117   6.045   3.218   4.407  0.2874  0.4259 -0.1069
  690poe    c23 6118   6.104   3.117   4.306 -0.0490  0.4030 -0.2812
  690poe     o2 6119   6.232   3.171   4.280 -0.1346  0.4363 -0.6315
  690poe    c31 6120   6.296   3.109   4.171  0.4995  0.0106 -0.0220
  691poe    c31 6121   0.096   2.797   5.543  0.6533 -1.0162 -0.3509
  691poe     o2 6122   0.168   2.896   5.614 -0.3290 -0.4232 -0.1621
  691poe    c23 6123   0.299   2.849   5.639 -0.2138  0.1065  0.2447
  691poe    c23 6124   0.367   2.952   5.731 -0.9987  0.1323  0.8086
  691poe     o2 6125   0.324   3.073   5.672  0.4418  0.0975 -0.3791
  691poe    c23 6126   0.418   3.175   5.696  0.2451  0.2055 -0.0564
  691poe    c23 6127   0.369   3.309   5.636  0.0382  0.0721 -0.1855
  691poe     o2 6128   0.244   3.361   5.676  0.1852  0.1362  0.1972
  691poe    c23 6129   0.206   3.474   5.601  0.0234  0.2374  0.4339
  691poe    c23 6130   0.061   3.520   5.627  0.0235  0.6293 -0.2496
  691poe     o2 6131   0.019   3.547   5.759 -0.0115 -0.7114  0.0234
  691poe    c31 6132  -0.004   3.438   5.846  1.3343 -1.1062 -0.0911
  692poe    c31 6133   4.608   3.174   3.112  0.5112 -0.1337 -0.0706
  692poe     o2 6134   4.636   3.306   3.155  0.5750 -0.2313  0.1855
  692poe    c23 6135   4.719   3.306   3.269  0.2623  0.2669  0.4152
  692poe    c23 6136   4.689   3.439   3.341 -0.0333  0.2756  0.2769
  692poe     o2 6137   4.700   3.550   3.256 -0.2579 -0.0774 -0.2204
  692poe    c23 6138   4.655   3.673   3.308 -0.4454 -0.2861  0.1134
  692poe    c23 6139   4.579   3.746   3.196  0.1701  0.2673  0.0453
  692poe     o2 6140   4.568   3.657   3.087 -0.3391 -0.0062  0.3165
  692poe    c23 6141   4.460   3.689   3.002 -0.0552 -0.0398 -0.0600
  692poe    c23 6142   4.498   3.593   2.888 -0.1123  0.0180 -0.1274
  692poe     o2 6143   4.528   3.469   2.948 -0.3539  0.0895  0.1427
  692poe    c31 6144   4.525   3.377   2.841 -0.4899  0.2666 -0.0073
  693poe    c31 6145   0.917   5.966   2.927  0.1732 -1.2798 -0.0070
  693poe     o2 6146   0.878   6.033   3.045  0.4486 -0.0220 -0.6156
  693poe    c23 6147   0.770   6.117   3.011  0.4216  0.2461  0.1142
  693poe    c23 6148   0.710   6.163   3.145  0.4363  0.1628  0.1494
  693poe     o2 6149   0.822   6.221   3.207  0.2875  0.5563  0.0489
  693poe    c23 6150   0.792   6.273   3.335  0.0384 -0.5193  0.4340
  693poe    c23 6151   0.913   6.360   3.375 -0.3313  0.3656 -0.3634
  693poe     o2 6152   1.037   6.293   3.370 -0.1717  0.6209  0.0720
  693poe    c23 6153   1.119   6.366   3.282  0.1696  0.1268 -0.0215
  693poe    c23 6154   1.220   6.283   3.200  0.2880  0.0636  0.1878
  693poe     o2 6155   1.144   6.218   3.101 -0.0897  0.8320 -0.0320
  693poe    c31 6156   1.180   6.237   2.966 -0.4291  0.3460 -0.1932
  694poe    c31 6157   6.683   3.841   5.056 -0.3707 -0.6068 -0.2499
  694poe     o2 6158   6.631   3.940   4.970  0.3700 -0.4625 -0.5484
  694poe    c23 6159   6.739   3.988   4.893  0.6205  0.5635  0.4149
  694poe    c23 6160   6.686   4.094   4.796 -0.1348 -0.0991  0.0912
  694poe     o2 6161   6.595   4.170   4.873 -0.1368 -0.2409  0.2260
  694poe    c23 6162   6.520   4.264   4.800  0.2145 -0.1508 -0.0216
  694poe    c23 6163   6.417   4.321   4.899 -0.0537  0.2841 -0.5460
  694poe     o2 6164   6.372   4.209   4.973 -0.3587  0.4612 -0.4628
  694poe    c23 6165   6.292   4.234   5.087  0.1184  0.0929 -0.0416
  694poe    c23 6166   6.268   4.097   5.153 -0.0109 -0.0252 -0.3289
  694poe     o2 6167   6.383   4.017   5.138  0.3629  0.3145  0.6097
  694poe    c31 6168   6.382   3.937   5.253  0.2418  0.4829  0.7262
  695poe    c31 6169   3.330   6.119   6.290 -0.5644 -0.5423 -0.5765
  695poe     o2 6170   3.452   6.077   6.232  0.1045 -0.5564  0.7926
  695poe    c23 6171   3.418   6.008   6.114  0.0681  0.5397  0.1488
  695poe    c23 6172   3.518   6.006   5.997 -0.7025 -0.6392 -0.5113
  695poe     o2 6173   3.614   5.910   6.035  0.1215  0.4144  0.1051
  695poe    c23 6174   3.711   5.892   5.934  0.4334  0.0556  0.4667
  695poe    c23 6175   3.818   5.792   5.981  0.7477  0.0981 -0.1434
  695poe     o2 6176   3.858   5.833   6.110 -0.2334  0.4138  0.0702
  695poe    c23 6177   3.978   5.774   6.154 -0.1683  0.2045 -0.3775
  695poe    c23 6178   4.021   5.825   6.293 -0.3863 -0.1045 -0.1943
  695poe     o2 6179   3.907   5.861   6.367  0.3376  0.9951  0.4241
  695poe    c31 6180   3.946   5.887   6.500  0.5248  0.5331  0.4631
  696poe    c31 6181   2.230   6.554   0.329 -0.5430 -0.3085  0.0142
  696poe     o2 6182   2.169   6.650   0.245  0.2813  0.3834  0.1912
  696poe    c23 6183   2.039   6.672   0.294  0.2043  0.1609  0.0894
  696poe    c23 6184   1.992   6.785   0.201 -0.7506 -0.4535 -0.1864
  696poe     o2 6185   2.055   6.772   0.075  0.2393  0.3297  0.2134
  696poe    c23 6186   2.043   6.884  -0.009 -0.6528 -0.1503 -0.3248
  696poe    c23 6187   2.084   6.832  -0.148  0.8360  0.7508 -0.2505
  696poe     o2 6188   2.189   6.745  -0.112  0.2413 -0.0854 -0.5149
  696poe    c23 6189   2.205   6.648  -0.214  0.1064 -0.3883 -0.2509
  696poe    c23 6190   2.287   6.539  -0.144  0.1579  0.0481  0.3803
  696poe     o2 6191   2.236   6.506  -0.017  0.0024 -0.2943  0.2291
  696poe    c31 6192   2.186   6.375  -0.033 -0.7180 -0.0992  0.8041
  697poe    c31 6193   6.614   6.521   1.363  0.1893 -0.5881 -0.2640
  697poe     o2 6194   6.728   6.510   1.282  0.0980 -0.3521 -0.4254
  697poe    c23 6195   6.687   6.503   1.147 -0.2012  0.2263 -0.3657
  697poe    c23 6196   6.814   6.531   1.065  0.4101 -0.2611  0.4073
  697poe     o2 6197   6.918   6.465   1.135  0.1715 -0.3573  0.6739
  697poe    c23 6198   7.030   6.438   1.054 -0.3189 -0.3661 -0.0163
  697poe    c23 6199   7.129   6.382   1.158 -0.0266 -0.1793 -0.1905
  697poe     o2 6200   7.113   6.457   1.276  0.1984  0.0656 -0.3141
  697poe    c23 6201   7.171   6.376   1.376 -0.2363  0.2023  0.0533
  697poe    c23 6202   7.081   6.410   1.496 -0.1213 -0.9189  0.4731
  697poe     o2 6203   6.953   6.375   1.447  0.0792 -0.8477 -0.1120
  697poe    c31 6204   6.863   6.349   1.553 -0.0963  0.8206  0.1711
  698poe    c31 6205   2.643   4.831   6.250 -0.1839  0.3969 -0.5609
  698poe     o2 6206   2.667   4.770   6.125 -0.0209 -0.7243  0.0042
  698poe    c23 6207   2.562   4.688   6.079 -0.1256 -0.4199 -0.3006
  698poe    c23 6208   2.595   4.641   5.936 -0.3307  0.5820 -0.6857
  698poe     o2 6209   2.710   4.560   5.933 -0.5271  0.2847 -0.1887
  698poe    c23 6210   2.738   4.511   5.804  0.1477  0.1271  0.0132
  698poe    c23 6211   2.854   4.411   5.812  0.1538  0.0468 -0.9219
  698poe     o2 6212   2.965   4.479   5.867 -0.3450 -0.0573  0.2407
  698poe    c23 6213   3.079   4.398   5.851 -0.2552  0.1166 -0.0041
  698poe    c23 6214   3.186   4.459   5.944  0.4114 -0.2224 -0.5454
  698poe     o2 6215   3.113   4.476   6.063  0.3087  0.1003 -0.6550
  698poe    c31 6216   3.195   4.526   6.166  0.1091 -0.2538 -0.3211
  699poe    c31 6217   3.657   2.949   3.024  0.2341 -0.0439  0.1347
  699poe     o2 6218   3.652   2.840   2.934 -0.1825  0.2407 -0.1894
  699poe    c23 6219   3.580   2.738   3.001  0.6628 -0.0875  0.2273
  699poe    c23 6220   3.576   2.605   2.923 -0.2459 -0.2117  0.4813
  699poe     o2 6221   3.708   2.599   2.874 -0.6771 -0.1098 -0.7139
  699poe    c23 6222   3.717   2.529   2.752  0.1922  0.5959 -1.0694
  699poe    c23 6223   3.846   2.580   2.687  0.9469 -0.1562 -0.1866
  699poe     o2 6224   3.844   2.721   2.684 -0.7362 -0.1553  0.2967
  699poe    c23 6225   3.977   2.748   2.647 -0.8552  0.0172 -0.0063
  699poe    c23 6226   3.975   2.900   2.673 -0.2661  0.1089 -0.4806
  699poe     o2 6227   3.893   2.935   2.782  0.0962 -0.2248 -0.0966
  699poe    c31 6228   3.903   3.072   2.810 -0.4898 -0.1406 -0.2920
  700poe    c31 6229   1.131   6.069   5.172 -0.2444 -0.3468  0.0335
  700poe     o2 6230   1.203   5.990   5.080  0.4817 -0.0439  0.3414
  700poe    c23 6231   1.298   5.913   5.150  0.7371  0.1479  0.2083
  700poe    c23 6232   1.325   5.781   5.077 -0.5208 -0.0520  0.0866
  700poe     o2 6233   1.343   5.810   4.940 -0.0897 -0.1055  0.1300
  700poe    c23 6234   1.414   5.712   4.867 -0.0569  0.0258 -0.0142
  700poe    c23 6235   1.467   5.743   4.726  0.1339 -0.5218 -0.0665
  700poe     o2 6236   1.365   5.792   4.642  0.1352 -0.1180  0.1627
  700poe    c23 6237   1.374   5.768   4.503  0.1199  0.2989  0.0873
  700poe    c23 6238   1.247   5.805   4.425 -0.1256  0.1245  0.4036
  700poe     o2 6239   1.123   5.749   4.461 -0.3477  0.1558 -0.2970
  700poe    c31 6240   1.099   5.611   4.444  0.7542 -0.1750  0.6605
  701poe    c31 6241   1.362   2.400   6.087 -0.0160  0.3256 -0.0401
  701poe     o2 6242   1.405   2.314   5.983  0.0506  0.2035  0.0890
  701poe    c23 6243   1.305   2.216   5.967  0.2474  0.0648 -0.2889
  701poe    c23 6244   1.292   2.181   5.817 -0.5788 -0.0242 -0.2029
  701poe     o2 6245   1.418   2.127   5.784 -0.5749 -0.1755  0.0552
  701poe    c23 6246   1.434   2.100   5.646 -0.4675 -0.3130  0.0943
  701poe    c23 6247   1.466   2.230   5.571  0.4064 -0.4028  0.3054
  701poe     o2 6248   1.565   2.289   5.652  0.5686  0.0550 -0.2218
  701poe    c23 6249   1.580   2.429   5.642 -0.5656  0.1938 -0.0999
  701poe    c23 6250   1.667   2.473   5.761 -0.2192  0.9037 -0.6043
  701poe     o2 6251   1.631   2.422   5.888  0.6967  0.2075 -0.6073
  701poe    c31 6252   1.695   2.482   5.998  0.1511 -0.5967  0.1573
  702poe    c31 6253   4.942   4.874   4.529 -0.6047  0.0265 -0.1290
  702poe     o2 6254   4.991   4.742   4.530 -0.4742  0.0754  0.1270
  702poe    c23 6255   4.964   4.673   4.650 -0.1081  0.1110  0.2317
  702poe    c23 6256   5.035   4.537   4.639 -0.1335  0.1441 -0.3783
  702poe     o2 6257   4.979   4.478   4.524 -0.8542 -0.3068  0.1973
  702poe    c23 6258   5.034   4.352   4.493  0.3629  0.2023  0.2158
  702poe    c23 6259   4.971   4.304   4.361 -0.2858 -0.1109  0.6308
  702poe     o2 6260   4.966   4.428   4.294  0.8682 -0.4915 -0.1777
  702poe    c23 6261   4.874   4.425   4.187  0.5335 -0.3585  0.1056
  702poe    c23 6262   4.864   4.573   4.147  0.1316 -0.4465 -0.1240
  702poe     o2 6263   4.838   4.656   4.258 -0.2922 -0.2204 -0.3904
  702poe    c31 6264   4.809   4.786   4.212  0.2169  0.2250  0.5232
  703poe    c31 6265   6.016   6.693   2.303  0.4160  0.6522 -0.2824
  703poe     o2 6266   5.901   6.771   2.329  0.1138  0.1021  0.0396
  703poe    c23 6267   5.838   6.782   2.204  0.1658 -0.1619 -0.0113
  703poe    c23 6268   5.697   6.845   2.212  0.3400  0.1290  0.8559
  703poe     o2 6269   5.738   6.971   2.261  0.1730  0.7050 -0.4295
  703poe    c23 6270   5.641   7.043   2.333  0.0172 -0.1395  0.2298
  703poe    c23 6271   5.713   7.100   2.457 -0.0214  0.2345  0.0824
  703poe     o2 6272   5.724   6.984   2.536 -0.2838  0.1241 -0.0423
  703poe    c23 6273   5.786   7.007   2.661 -0.2887 -0.4883  0.0767
  703poe    c23 6274   5.808   6.871   2.731  0.4528 -0.2458  0.3257
  703poe     o2 6275   5.884   6.789   2.646  0.5722  0.2260 -0.0251
  703poe    c31 6276   5.969   6.712   2.728  0.4485 -0.2732 -0.3596
  704poe    c31 6277   3.582   4.187   2.023 -0.6476  0.4320 -0.0437
  704poe     o2 6278   3.609   4.106   1.911 -0.1845 -0.1496  0.4816
  704poe    c23 6279   3.698   4.169   1.821  0.0964 -0.6661  0.3927
  704poe    c23 6280   3.726   4.090   1.692 -0.1439 -0.4094  0.1840
  704poe     o2 6281   3.605   4.027   1.658 -0.4293 -0.1232  0.6589
  704poe    c23 6282   3.597   3.976   1.527  0.0203  0.0426  0.5683
  704poe    c23 6283   3.457   3.915   1.512 -0.1486  0.5736 -0.0830
  704poe     o2 6284   3.432   3.845   1.632  0.4775  0.2454 -0.1389
  704poe    c23 6285   3.299   3.815   1.669  0.7533 -0.4315  0.3252
  704poe    c23 6286   3.269   3.790   1.818 -0.4096 -0.3505  0.1143
  704poe     o2 6287   3.360   3.875   1.884  0.1771 -1.1213  0.3077
  704poe    c31 6288   3.311   3.913   2.011 -0.1337 -1.1326  0.1917
  705poe    c31 6289   6.031   3.105   0.928 -0.3004  0.2651 -0.2917
  705poe     o2 6290   6.165   3.062   0.928 -0.2271  0.4915 -0.0320
  705poe    c23 6291   6.241   3.153   1.004  0.4178  0.3306 -0.4729
  705poe    c23 6292   6.391   3.118   0.991  0.4027  0.0487  0.0638
  705poe     o2 6293   6.392   2.977   1.002  0.0036  0.0359 -0.0384
  705poe    c23 6294   6.524   2.930   1.001 -0.0616 -0.1727  0.5271
  705poe    c23 6295   6.510   2.809   0.906 -0.3700  0.1134  0.2057
  705poe     o2 6296   6.386   2.752   0.938 -0.1420 -0.4097  0.1586
  705poe    c23 6297   6.359   2.659   0.835 -0.0184 -0.4500  0.1618
  705poe    c23 6298   6.213   2.620   0.865 -0.1834  0.1633  0.1753
  705poe     o2 6299   6.141   2.740   0.885 -0.1793  0.2839 -0.4990
  705poe    c31 6300   6.004   2.708   0.876 -0.1800  0.2232 -0.2810
  706poe    c31 6301   3.890   1.123   2.170  0.5053 -0.0965 -0.1202
  706poe     o2 6302   3.831   1.029   2.084  0.3524  0.2574 -0.4031
  706poe    c23 6303   3.691   1.049   2.085  0.1969 -0.7923 -0.2683
  706poe    c23 6304   3.613   0.940   2.009 -0.7593  0.0994 -0.5938
  706poe     o2 6305   3.655   0.810   2.045  0.4265  0.2787 -1.2583
  706poe    c23 6306   3.561   0.711   2.010 -0.0550  0.1642  0.2485
  706poe    c23 6307   3.641   0.591   1.956 -0.4412  0.1622 -0.3360
  706poe     o2 6308   3.754   0.579   2.040 -0.7039 -0.3360 -0.0561
  706poe    c23 6309   3.795   0.445   2.062  0.6226  0.1170  0.3066
  706poe    c23 6310   3.731   0.366   2.177 -0.0365 -0.0163 -0.1482
  706poe     o2 6311   3.785   0.416   2.297  0.3589 -0.2793 -0.2171
  706poe    c31 6312   3.724   0.363   2.412  0.3044  0.3817  0.0660
  707poe    c31 6313   0.361   2.104   4.121 -0.4247 -0.1762 -0.1107
  707poe     o2 6314   0.337   2.143   4.255 -0.0299 -0.3701  0.0172
  707poe    c23 6315   0.216   2.215   4.262 -0.0001 -0.3766  0.6299
  707poe    c23 6316   0.208   2.282   4.400  0.2443  0.3376  0.3012
  707poe     o2 6317   0.241   2.191   4.503 -0.4690 -0.3165 -0.0395
  707poe    c23 6318   0.263   2.265   4.621 -0.4367 -0.4051  0.0096
  707poe    c23 6319   0.365   2.169   4.686  0.2876  0.5158  0.2514
  707poe     o2 6320   0.452   2.124   4.584 -0.3290 -0.5326  0.1683
  707poe    c23 6321   0.575   2.104   4.651 -0.0525 -0.1753 -0.2275
  707poe    c23 6322   0.663   2.034   4.546  0.5372  0.9765 -0.5244
  707poe     o2 6323   0.625   2.058   4.412 -0.4603 -0.3574 -0.5012
  707poe    c31 6324   0.746   2.036   4.343 -0.1708 -0.5007  0.0478
  708poe    c31 6325   3.072   6.066   0.197 -0.6513 -0.2383 -0.4543
  708poe     o2 6326   3.158   6.121   0.100  0.3285 -0.1479  0.4574
  708poe    c23 6327   3.094   6.127  -0.026  0.5972  0.2007  0.3346
  708poe    c23 6328   3.182   6.192  -0.134  0.4006 -0.7020 -0.3782
  708poe     o2 6329   3.306   6.124  -0.121  0.3440 -0.6723  0.3486
  708poe    c23 6330   3.384   6.175  -0.226 -0.6789  0.2942  0.0259
  708poe    c23 6331   3.537   6.178  -0.202 -0.7239 -0.4054  0.4133
  708poe     o2 6332   3.543   6.164  -0.062 -0.2314  0.3294  0.4685
  708poe    c23 6333   3.592   6.281  -0.000  0.4653  0.1400  0.2869
  708poe    c23 6334   3.611   6.254   0.150 -0.3353 -0.4236  0.2968
  708poe     o2 6335   3.496   6.188   0.198 -0.5585 -0.1259  0.1715
  708poe    c31 6336   3.491   6.138   0.329  0.4279  0.1937  0.3365
  709poe    c31 6337   5.347   2.081   3.711  0.3596 -0.1394  0.3947
  709poe     o2 6338   5.344   1.986   3.608 -0.1379  0.1925  0.0957
  709poe    c23 6339   5.217   1.928   3.589  0.0503 -0.0315 -0.4922
  709poe    c23 6340   5.224   1.836   3.465 -0.3804 -0.7019 -0.0240
  709poe     o2 6341   5.321   1.875   3.371 -0.4353  0.2527  0.3095
  709poe    c23 6342   5.278   1.886   3.238  0.0612 -0.4582  0.0843
  709poe    c23 6343   5.391   1.929   3.144  0.3022  0.2845  0.7088
  709poe     o2 6344   5.456   2.029   3.220  0.0005  0.6435  0.4996
  709poe    c23 6345   5.595   2.025   3.196 -0.1110 -0.1093 -0.0353
  709poe    c23 6346   5.649   2.116   3.307 -0.6935  0.0479  0.1250
  709poe     o2 6347   5.589   2.086   3.431 -0.7579  0.0650  0.0979
  709poe    c31 6348   5.651   2.151   3.541  0.2005 -0.5257 -0.0822
  710poe    c31 6349   3.135   2.974   4.365  0.3325 -0.4289  0.1976
  710poe     o2 6350   3.083   3.077   4.446  0.1925 -0.2991 -0.0539
  710poe    c23 6351   3.153   3.198   4.425  0.0195 -0.1618  0.1525
  710poe    c23 6352   3.123   3.289   4.545  0.4627  0.3795 -0.1421
  710poe     o2 6353   2.984   3.297   4.565  0.3838  0.4797 -0.7158
  710poe    c23 6354   2.945   3.386   4.667  0.2220 -0.4286  0.0366
  710poe    c23 6355   2.793   3.397   4.689  0.3029  0.3140  0.2819
  710poe     o2 6356   2.737   3.277   4.740 -0.0293  0.4043  0.1322
  710poe    c23 6357   2.763   3.261   4.878 -0.1311  0.0370  0.1090
  710poe    c23 6358   2.755   3.111   4.910  0.1535 -0.0794 -0.3668
  710poe     o2 6359   2.622   3.064   4.907  0.1885 -0.1543 -0.8304
  710poe    c31 6360   2.613   2.932   4.955  0.0820 -0.0898 -0.6758
  711poe    c31 6361   0.482   3.950   6.808 -0.4528  0.1368 -0.5819
  711poe     o2 6362   0.610   3.943   6.867 -0.6131  0.3495 -0.2063
  711poe    c23 6363   0.673   4.070   6.867 -0.1225  0.1180  1.3167
  711poe    c23 6364   0.821   4.048   6.900  0.1425 -0.8001 -0.3839
  711poe     o2 6365   0.848   3.963   7.009 -0.2735 -0.4615 -0.0169
  711poe    c23 6366   0.973   3.900   7.026  0.1365  0.3425 -0.0045
  711poe    c23 6367   0.941   3.792   7.131 -0.1721  0.5877  0.1551
  711poe     o2 6368   0.817   3.735   7.099  0.1164 -0.4803  0.8762
  711poe    c23 6369   0.788   3.607   7.149 -0.0646 -0.6395  0.3751
  711poe    c23 6370   0.637   3.580   7.135 -0.1455 -0.0605  0.0930
  711poe     o2 6371   0.602   3.634   7.010 -0.1031 -0.3825 -0.0593
  711poe    c31 6372   0.474   3.582   6.980 -0.1268 -0.1641 -0.3352
  712poe    c31 6373   2.315   6.184   4.811 -0.5009  0.5324 -0.0268
  712poe     o2 6374   2.278   6.167   4.946 -0.2006  0.0677 -0.0001
  712poe    c23 6375   2.354   6.069   5.012  0.3493  0.2710 -0.3281
  712poe    c23 6376   2.387   6.141   5.144  0.4368  0.7804 -0.6251
  712poe     o2 6377   2.261   6.187   5.188  0.6344  0.5675  0.1607
  712poe    c23 6378   2.275   6.249   5.314 -0.0668 -0.0799  0.5696
  712poe    c23 6379   2.137   6.283   5.373  0.2633  0.5318  0.9986
  712poe     o2 6380   2.074   6.349   5.266  0.0342 -0.5906  0.4236
  712poe    c23 6381   1.951   6.412   5.298  0.1105 -0.0701 -0.2747
  712poe    c23 6382   1.894   6.494   5.181  0.2221  0.0402 -0.2521
  712poe     o2 6383   1.836   6.412   5.083  0.5279 -0.3023 -0.1485
  712poe    c31 6384   1.797   6.483   4.968  0.4314  0.1385  0.1543
  713poe    c31 6385   5.199   6.854   2.799  0.0049  0.2242 -0.2672
  713poe     o2 6386   5.233   6.958   2.888 -0.6004  0.4463 -0.2872
  713poe    c23 6387   5.363   6.947   2.943 -0.6317  0.4010 -0.2232
  713poe    c23 6388   5.405   7.087   2.992  0.2832  0.1048 -0.1424
  713poe     o2 6389   5.297   7.124   3.075  0.2529 -0.4093  0.0492
  713poe    c23 6390   5.318   7.251   3.132 -0.1626 -0.6442  0.7396
  713poe    c23 6391   5.203   7.289   3.228 -0.4158  0.2434  0.0994
  713poe     o2 6392   5.083   7.268   3.156 -0.0535 -0.7160 -0.2514
  713poe    c23 6393   4.976   7.334   3.221  0.3856  0.1712 -0.4075
  713poe    c23 6394   4.840   7.296   3.159  0.2523 -0.3383  0.1816
  713poe     o2 6395   4.817   7.158   3.148 -0.0785 -0.2964  0.3362
  713poe    c31 6396   4.689   7.132   3.094  0.1280  0.1359 -0.3661
  714poe    c31 6397   6.751   4.417   0.278  0.3937  0.3561  0.2048
  714poe     o2 6398   6.720   4.402   0.415 -0.1778 -0.6695 -0.0241
  714poe    c23 6399   6.613   4.488   0.446  0.0786 -0.2996 -0.1574
  714poe    c23 6400   6.612   4.510   0.599 -0.5318  0.2278 -0.2343
  714poe     o2 6401   6.635   4.382   0.652  0.1479  0.4283 -0.0230
  714poe    c23 6402   6.630   4.359   0.791 -0.1465  0.2722 -0.0571
  714poe    c23 6403   6.728   4.248   0.834 -0.0717 -0.0445 -1.0230
  714poe     o2 6404   6.705   4.127   0.764 -0.7768 -0.3760 -0.2423
  714poe    c23 6405   6.757   4.018   0.836 -0.0118 -0.1996 -0.5181
  714poe    c23 6406   6.800   3.905   0.740  0.3159 -0.4879 -0.0383
  714poe     o2 6407   6.896   3.948   0.646 -0.0273 -0.0437 -0.1862
  714poe    c31 6408   6.957   3.832   0.595  0.8820  0.1936  0.3545
  715poe    c31 6409   4.027   5.010   3.024  0.0738 -0.4686 -0.0768
  715poe     o2 6410   3.950   4.919   2.949 -0.8094  0.1014  0.1179
  715poe    c23 6411   3.811   4.926   2.975 -0.9728 -0.0688 -0.6765
  715poe    c23 6412   3.770   4.814   3.072 -0.0605 -0.1129 -0.3293
  715poe     o2 6413   3.792   4.693   3.003  0.1554  0.0845 -0.6083
  715poe    c23 6414   3.806   4.583   3.090  0.9899  0.9097  0.3329
  715poe    c23 6415   3.913   4.488   3.031 -0.4209 -0.1301 -0.6208
  715poe     o2 6416   4.019   4.566   2.981  0.0810 -0.6131 -0.3123
  715poe    c23 6417   4.136   4.499   2.939  0.2546 -0.2310 -0.4418
  715poe    c23 6418   4.254   4.597   2.928 -0.3815  0.6675  0.5176
  715poe     o2 6419   4.200   4.711   2.866 -0.2938  0.5678  0.2562
  715poe    c31 6420   4.311   4.796   2.846 -0.3326  0.4763 -0.3683
  716poe    c31 6421   3.668   5.445   5.770 -0.8538  1.0106 -0.1478
  716poe     o2 6422   3.635   5.383   5.892  0.0496 -0.4481 -0.6159
  716poe    c23 6423   3.761   5.380   5.957 -0.2723 -1.2048 -0.0155
  716poe    c23 6424   3.716   5.371   6.104 -0.7052  0.5650 -0.0176
  716poe     o2 6425   3.640   5.253   6.119  0.1376  0.0700  0.3979
  716poe    c23 6426   3.573   5.234   6.242  0.9634 -0.4900  0.7734
  716poe    c23 6427   3.484   5.108   6.242 -0.2194  0.3278  0.3546
  716poe     o2 6428   3.419   5.110   6.117  0.3715 -0.3525  0.0302
  716poe    c23 6429   3.328   5.002   6.103 -0.1392  0.0592  0.1460
  716poe    c23 6430   3.392   4.870   6.058 -0.0218  0.2726 -0.3262
  716poe     o2 6431   3.454   4.889   5.933  0.7308 -0.2009 -0.0337
  716poe    c31 6432   3.540   4.782   5.899  0.6328 -0.4230  0.4066
  717poe    c31 6433   0.864   1.357   4.604  0.1314 -0.1794  0.1715
  717poe     o2 6434   0.750   1.295   4.660 -0.4100  0.7346  0.0941
  717poe    c23 6435   0.685   1.391   4.741 -0.3291  0.6804  0.2244
  717poe    c23 6436   0.546   1.330   4.766 -0.1696  0.0181 -0.4602
  717poe     o2 6437   0.501   1.288   4.639 -0.4854  0.1902 -0.4073
  717poe    c23 6438   0.365   1.255   4.630 -0.4333 -0.1090 -0.0897
  717poe    c23 6439   0.347   1.210   4.484 -0.3284 -0.0426 -0.1232
  717poe     o2 6440   0.447   1.112   4.465  0.0048  0.1439  0.6295
  717poe    c23 6441   0.458   1.078   4.329  0.2930 -0.2586  0.7514
  717poe    c23 6442   0.577   1.147   4.258 -0.0954 -0.1358  0.2084
  717poe     o2 6443   0.674   1.172   4.357  0.0663  0.0887 -0.0086
  717poe    c31 6444   0.795   1.187   4.286  0.0274 -0.1803 -0.1313
  718poe    c31 6445   3.270   2.506   4.390  0.1280 -0.4123  0.0948
  718poe     o2 6446   3.175   2.507   4.286  0.1462 -0.8166  0.0741
  718poe    c23 6447   3.239   2.553   4.169  0.1002  0.0514  0.3805
  718poe    c23 6448   3.173   2.499   4.041  0.3010  0.2221  0.2043
  718poe     o2 6449   3.032   2.505   4.042  0.2762 -0.1777 -0.1594
  718poe    c23 6450   2.974   2.384   3.998  0.2766 -0.3604  0.3362
  718poe    c23 6451   2.848   2.346   4.078  0.0682  0.1636  0.2653
  718poe     o2 6452   2.869   2.353   4.217 -0.3716 -0.6194  0.3783
  718poe    c23 6453   2.753   2.357   4.297 -0.5678 -0.2934  0.0737
  718poe    c23 6454   2.806   2.332   4.439  0.0528  0.0084 -0.0995
  718poe     o2 6455   2.887   2.444   4.467 -0.1587  0.1673 -0.1113
  718poe    c31 6456   2.926   2.455   4.602 -0.1593  0.0301 -0.0999
  719poe    c31 6457   5.672   1.568   0.990 -0.5010 -0.3539  0.1036
  719poe     o2 6458   5.543   1.620   1.010 -0.2301  0.1619  0.5256
  719poe    c23 6459   5.512   1.717   0.913 -0.6176 -0.1028  0.3806
  719poe    c23 6460   5.381   1.786   0.955 -0.6862  0.0818 -0.1263
  719poe     o2 6461   5.286   1.703   1.017 -0.4102 -0.3641 -0.2973
  719poe    c23 6462   5.187   1.769   1.093 -0.3283 -0.5089 -0.0599
  719poe    c23 6463   5.186   1.689   1.224 -0.1488 -0.3747  0.0231
  719poe     o2 6464   5.316   1.682   1.280 -0.1719  0.3480  0.1802
  719poe    c23 6465   5.314   1.626   1.409 -0.5836  0.0777  0.0588
  719poe    c23 6466   5.465   1.602   1.430 -0.6530 -0.5246 -0.1138
  719poe     o2 6467   5.519   1.547   1.312  0.1705 -0.0670  0.0469
  719poe    c31 6468   5.644   1.485   1.331  0.7125  0.9614 -0.0573
  720poe    c31 6469   2.834   6.345   0.172  0.5178  0.1503  0.1825
  720poe     o2 6470   2.821   6.420   0.291 -0.2320 -0.0924  0.2593
  720poe    c23 6471   2.947   6.475   0.324 -0.7388  0.3093  1.5614
  720poe    c23 6472   2.958   6.629   0.324 -0.2368  0.2834  0.5441
  720poe     o2 6473   2.868   6.683   0.418 -0.7403 -0.1242  0.2994
  720poe    c23 6474   2.895   6.820   0.434 -0.4275 -0.2383  0.8019
  720poe    c23 6475   2.876   6.850   0.583  0.4204 -0.0897  0.8856
  720poe     o2 6476   2.751   6.796   0.621  0.0834  0.7670  1.0257
  720poe    c23 6477   2.705   6.851   0.743 -0.0149  0.3817  1.1650
  720poe    c23 6478   2.573   6.775   0.763  0.1870 -0.2510  0.1738
  720poe     o2 6479   2.583   6.650   0.699 -0.4622 -0.0752 -0.2928
  720poe    c31 6480   2.469   6.574   0.733  0.0014 -0.4032  0.5751
  721poe    c31 6481   2.531   5.110   1.088  0.0371  0.4403  0.4599
  721poe     o2 6482   2.470   5.112   0.960  0.2860 -0.1672  0.3295
  721poe    c23 6483   2.487   5.238   0.900 -0.0764 -0.1042  0.3584
  721poe    c23 6484   2.401   5.236   0.773  0.4378 -0.2554  0.0106
  721poe     o2 6485   2.427   5.119   0.698  0.0778 -0.3067 -0.0384
  721poe    c23 6486   2.360   5.126   0.574  0.1958 -0.4947 -0.1121
  721poe    c23 6487   2.388   4.984   0.521  0.2838 -0.2904 -0.6228
  721poe     o2 6488   2.371   4.900   0.633  0.1642  0.8501  0.2310
  721poe    c23 6489   2.445   4.781   0.618 -0.5475  0.3460  0.6626
  721poe    c23 6490   2.525   4.751   0.746 -0.5066  0.0250  0.5649
  721poe     o2 6491   2.579   4.878   0.777 -0.0974 -0.0536  0.1800
  721poe    c31 6492   2.695   4.850   0.852 -0.0966 -0.0527  0.1792
  722poe    c31 6493   2.192   6.175   3.265 -0.0783 -0.4021  0.1900
  722poe     o2 6494   2.061   6.149   3.219 -0.0548 -0.1818 -0.0048
  722poe    c23 6495   2.057   6.175   3.081 -0.0547  0.5684  0.1333
  722poe    c23 6496   1.908   6.163   3.046 -0.0404  0.2657  0.1758
  722poe     o2 6497   1.868   6.036   3.092  0.1490  0.0295 -0.3010
  722poe    c23 6498   1.774   5.973   3.007 -0.2656 -0.1979  0.3146
  722poe    c23 6499   1.776   5.821   3.032 -0.2804 -0.2096  0.2472
  722poe     o2 6500   1.808   5.821   3.169  0.3573  0.1269  0.1008
  722poe    c23 6501   1.810   5.694   3.229 -0.2533 -0.1390 -0.4324
  722poe    c23 6502   1.871   5.727   3.366  0.1308 -0.0638 -0.6187
  722poe     o2 6503   1.955   5.840   3.350 -0.1210  0.1967 -0.1458
  722poe    c31 6504   2.048   5.837   3.456 -0.3291 -0.5013  0.0276
  723poe    c31 6505   5.677   1.741   1.825  0.2648 -0.0758 -0.0619
  723poe     o2 6506   5.627   1.644   1.915 -0.1277 -0.4848 -0.7076
  723poe    c23 6507   5.744   1.572   1.945  0.0226 -0.1003 -0.3547
  723poe    c23 6508   5.718   1.471   2.059 -0.5510  0.4861  0.0369
  723poe     o2 6509   5.640   1.540   2.155 -0.2857  0.0463  0.5711
  723poe    c23 6510   5.556   1.446   2.219 -0.0828 -0.4583  0.1056
  723poe    c23 6511   5.515   1.507   2.354  0.1079 -0.5374  0.2003
  723poe     o2 6512   5.449   1.627   2.317  0.0595 -0.7082 -0.2794
  723poe    c23 6513   5.393   1.687   2.431  0.4202 -0.2774 -0.3270
  723poe    c23 6514   5.279   1.785   2.397 -0.0170 -0.3543  0.8596
  723poe     o2 6515   5.170   1.711   2.347  0.3849 -0.2334 -0.2317
  723poe    c31 6516   5.059   1.793   2.317  0.1027 -0.7612 -0.6472
  724poe    c31 6517   6.254   1.617   6.133  0.7562  0.4182 -0.8467
  724poe     o2 6518   6.180   1.519   6.064  0.0723  0.3873 -0.0754
  724poe    c23 6519   6.158   1.585   5.941 -0.0388 -0.3220 -0.4450
  724poe    c23 6520   6.041   1.519   5.866 -0.4943  0.0060 -0.0322
  724poe     o2 6521   6.057   1.379   5.873 -0.6147  0.0044  0.2393
  724poe    c23 6522   5.951   1.306   5.815 -0.4720  0.4986 -0.6617
  724poe    c23 6523   6.007   1.179   5.749  0.1498 -0.0222  0.8256
  724poe     o2 6524   6.019   1.058   5.821 -0.1122 -0.1612  0.6403
  724poe    c23 6525   6.137   1.037   5.895  0.3896 -0.0826 -0.1218
  724poe    c23 6526   6.119   1.056   6.047  0.6907 -0.1946 -0.0716
  724poe     o2 6527   6.111   1.195   6.073  0.0499 -0.2661  0.1316
  724poe    c31 6528   6.012   1.223   6.169  0.0693  0.0680  0.0518
  725poe    c31 6529   0.878   0.504   6.546  0.2021  0.5348 -0.0213
  725poe     o2 6530   0.950   0.388   6.512 -0.0910  0.1702  0.5945
  725poe    c23 6531   0.879   0.271   6.479  0.3468  0.0322  0.1258
  725poe    c23 6532   0.976   0.154   6.503  0.3107  0.0796  0.5150
  725poe     o2 6533   1.096   0.205   6.449  0.1450 -0.3818 -0.3088
  725poe    c23 6534   1.194   0.104   6.463  0.1217 -0.3183  0.3387
  725poe    c23 6535   1.322   0.169   6.407 -0.0254 -0.4499 -0.1588
  725poe     o2 6536   1.354   0.287   6.477 -0.4436 -0.2360 -0.3218
  725poe    c23 6537   1.457   0.346   6.401  0.1779  0.2648  0.8800
  725poe    c23 6538   1.479   0.493   6.442 -0.6420  0.6411  0.0068
  725poe     o2 6539   1.368   0.577   6.423 -0.5877  0.7410  0.1289
  725poe    c31 6540   1.384   0.697   6.495 -0.0198  0.0452  1.1788
  726poe    c31 6541   6.120   3.745   0.166 -0.2364  0.1304  0.1872
  726poe     o2 6542   6.132   3.885   0.159 -0.2445  0.1281  0.1234
  726poe    c23 6543   6.017   3.964   0.138 -0.3313 -0.0725 -0.1546
  726poe    c23 6544   6.058   4.108   0.177  0.6714 -0.2758 -0.4133
  726poe     o2 6545   6.162   4.158   0.097  0.3444  0.7559 -0.2110
  726poe    c23 6546   6.135   4.276   0.024  0.1282  0.7707 -0.1063
  726poe    c23 6547   6.253   4.301  -0.072 -0.1046 -0.5878 -0.7774
  726poe     o2 6548   6.370   4.243  -0.019 -0.1461 -0.0489 -0.0791
  726poe    c23 6549   6.474   4.233  -0.113 -0.0516 -0.1801  0.0388
  726poe    c23 6550   6.603   4.195  -0.039  0.0745 -0.2564 -0.2169
  726poe     o2 6551   6.576   4.122   0.078 -0.4345  0.0720 -0.1266
  726poe    c31 6552   6.692   4.086   0.149 -0.2745 -0.2173 -0.5334
  727poe    c31 6553   5.734   1.819   4.436 -0.0847  0.1342 -0.7662
  727poe     o2 6554   5.766   1.749   4.318 -0.5969 -0.9284 -0.2888
  727poe    c23 6555   5.886   1.678   4.336 -0.0645  0.1495  0.5378
  727poe    c23 6556   5.883   1.536   4.276 -0.2429  0.1780  0.4805
  727poe     o2 6557   5.822   1.556   4.150 -0.1989 -0.6475  0.3201
  727poe    c23 6558   5.729   1.459   4.107 -0.3658 -0.2541 -0.2167
  727poe    c23 6559   5.591   1.445   4.174 -0.3340 -0.2224 -0.1441
  727poe     o2 6560   5.568   1.584   4.179 -0.3037 -0.2259  0.0972
  727poe    c23 6561   5.440   1.616   4.229 -0.4002  0.0938 -0.3454
  727poe    c23 6562   5.422   1.745   4.148 -0.4518  0.5325  0.3548
  727poe     o2 6563   5.539   1.823   4.148 -0.1385  0.0862 -0.9944
  727poe    c31 6564   5.512   1.959   4.168  0.5764  0.1871 -0.6839
  728poe    c31 6565   5.119   4.203   5.938 -0.0996 -0.1668  0.2437
  728poe     o2 6566   5.006   4.136   5.886  0.1724 -0.2430 -0.2553
  728poe    c23 6567   4.891   4.113   5.964 -0.3563  1.0811 -0.6053
  728poe    c23 6568   4.802   4.022   5.878  0.0307  0.0380  0.0658
  728poe     o2 6569   4.892   3.924   5.831 -0.1720 -0.0909 -0.0547
  728poe    c23 6570   4.853   3.800   5.884 -0.3061 -0.3465 -0.7340
  728poe    c23 6571   4.957   3.693   5.847  0.2246 -0.1249  0.0763
  728poe     o2 6572   5.084   3.724   5.900  0.2928 -0.5861  0.1933
  728poe    c23 6573   5.125   3.622   5.988  0.0828 -1.1307 -0.3338
  728poe    c23 6574   5.271   3.635   6.037 -0.0521 -0.3596 -0.1155
  728poe     o2 6575   5.372   3.654   5.941  0.0314  0.1756  0.0797
  728poe    c31 6576   5.497   3.665   6.007  0.4088 -0.3022 -0.5421
  729poe    c31 6577   0.440   5.843   0.363  0.9784 -0.2580  0.3812
  729poe     o2 6578   0.408   5.787   0.489  0.0529  0.1818  0.3462
  729poe    c23 6579   0.477   5.667   0.514 -0.2861  0.0093  0.4520
  729poe    c23 6580   0.428   5.626   0.654 -0.1666 -0.8371  0.2540
  729poe     o2 6581   0.289   5.649   0.663  0.0139  0.7649 -0.7098
  729poe    c23 6582   0.244   5.615   0.792 -0.1587  0.2326 -0.9114
  729poe    c23 6583   0.095   5.655   0.793 -0.1713  0.1949  0.1502
  729poe     o2 6584   0.091   5.763   0.702  0.3632  0.0726 -0.0225
  729poe    c23 6585  -0.037   5.793   0.652  0.4915  0.2100 -0.2728
  729poe    c23 6586  -0.034   5.931   0.585  0.4322  0.4432  0.1976
  729poe     o2 6587   0.080   5.939   0.502  0.2071 -0.2577 -0.1795
  729poe    c31 6588   0.082   6.053   0.419  0.0245  0.1216  0.3339
  730poe    c31 6589   1.619   2.639   1.416  0.2911  0.4274 -0.4690
  730poe     o2 6590   1.756   2.647   1.449  0.1276  0.3302  0.2335
  730poe    c23 6591   1.859   2.659   1.354 -0.1472  0.5044 -0.0411
  730poe    c23 6592   1.980   2.701   1.439  0.0121  0.0210 -0.0296
  730poe     o2 6593   1.986   2.612   1.548  0.4763  0.2140  0.1027
  730poe    c23 6594   2.099   2.650   1.623  0.3660  0.2043  0.2731
  730poe    c23 6595   2.094   2.552   1.742  0.1634 -0.1998 -0.0685
  730poe     o2 6596   1.957   2.545   1.775  0.2054 -0.5483  0.0324
  730poe    c23 6597   1.916   2.416   1.815 -0.4357 -0.5519 -0.6152
  730poe    c23 6598   1.776   2.382   1.761 -0.6628 -0.2912 -0.2030
  730poe     o2 6599   1.779   2.414   1.623 -0.5743 -0.0932 -0.1559
  730poe    c31 6600   1.846   2.333   1.529  0.2554  0.4746 -0.0633
  731poe    c31 6601   0.553   5.611   5.186  0.2557 -0.3767 -0.1089
  731poe     o2 6602   0.510   5.482   5.151  0.3547 -0.4628  0.0841
  731poe    c23 6603   0.403   5.488   5.058  0.2148 -0.1877  0.2614
  731poe    c23 6604   0.348   5.345   5.044  0.0959 -0.0870 -0.2974
  731poe     o2 6605   0.455   5.275   4.986  0.2795  0.0236 -0.0887
  731poe    c23 6606   0.407   5.162   4.917 -0.4940  0.3388 -0.0711
  731poe    c23 6607   0.528   5.085   4.861  0.2466  1.1897  0.3312
  731poe     o2 6608   0.623   5.092   4.964  0.5127 -0.4164  0.2256
  731poe    c23 6609   0.720   4.990   4.962  0.7048 -0.2305 -0.0448
  731poe    c23 6610   0.831   5.009   4.857  0.1380  0.2823 -0.5577
  731poe     o2 6611   0.925   5.098   4.913  0.6205 -0.5772  0.0306
  731poe    c31 6612   1.018   5.147   4.819 -0.2234  0.3130 -0.3664
  732poe    c31 6613   0.820   4.008   5.363  0.1357  0.4062 -0.3761
  732poe     o2 6614   0.691   4.054   5.329 -0.1549 -0.3868 -0.3709
  732poe    c23 6615   0.684   4.103   5.197  0.1912  0.5918 -0.0345
  732poe    c23 6616   0.594   4.227   5.203 -0.7140 -0.0434 -0.1692
  732poe     o2 6617   0.477   4.196   5.275 -0.8302 -0.0420 -0.3562
  732poe    c23 6618   0.389   4.306   5.277 -0.1048  0.5459  0.0954
  732poe    c23 6619   0.267   4.255   5.356  0.2750 -0.2244  0.1980
  732poe     o2 6620   0.309   4.177   5.466 -0.5864 -0.2738  0.5007
  732poe    c23 6621   0.359   4.231   5.586  0.9107  0.3033 -0.3445
  732poe    c23 6622   0.432   4.122   5.666  0.0821  0.2833  0.4047
  732poe     o2 6623   0.527   4.060   5.582 -0.4181 -0.2438  0.2153
  732poe    c31 6624   0.588   3.943   5.632  0.0941 -0.0477  0.0578
  733poe    c31 6625   2.469   1.206   1.486 -0.5752  0.1441  0.3098
  733poe     o2 6626   2.463   1.346   1.499 -0.1989  0.1796  0.1264
  733poe    c23 6627   2.428   1.419   1.383  0.3228  0.3276  0.0606
  733poe    c23 6628   2.393   1.565   1.417 -0.1642  0.2624 -0.1640
  733poe     o2 6629   2.496   1.639   1.476  0.3228 -0.3981 -0.1744
  733poe    c23 6630   2.437   1.760   1.520  0.3708 -0.3843 -0.1473
  733poe    c23 6631   2.497   1.813   1.651  0.2449 -0.5227 -0.0335
  733poe     o2 6632   2.636   1.813   1.628  0.2521  0.6830 -0.0387
  733poe    c23 6633   2.721   1.777   1.735  0.3166 -0.5446 -0.4846
  733poe    c23 6634   2.872   1.783   1.707  0.3758  0.1361 -0.0454
  733poe     o2 6635   2.897   1.671   1.625  0.0742  0.0270  0.0114
  733poe    c31 6636   3.025   1.684   1.568  0.0008  0.3188 -0.0913
  734poe    c31 6637   4.044   5.056   4.591  0.4916  0.8386  0.2475
  734poe     o2 6638   3.995   5.185   4.560 -0.1462  0.5701  0.1177
  734poe    c23 6639   4.110   5.247   4.507  0.1915 -0.2990 -0.1806
  734poe    c23 6640   4.085   5.397   4.534  0.0049 -0.4087  0.2586
  734poe     o2 6641   3.954   5.412   4.484  0.1419  0.3443  0.1249
  734poe    c23 6642   3.918   5.548   4.472  0.2826  0.3113 -0.7344
  734poe    c23 6643   3.768   5.559   4.440  0.1566  0.5090 -0.1004
  734poe     o2 6644   3.700   5.492   4.544 -0.3302  0.0289 -0.7184
  734poe    c23 6645   3.562   5.467   4.530 -0.4799  0.4040  0.0458
  734poe    c23 6646   3.507   5.390   4.651  0.6708  0.0452  0.3527
  734poe     o2 6647   3.510   5.249   4.644 -0.3591  0.0492 -0.3321
  734poe    c31 6648   3.405   5.206   4.727 -0.1962  0.4960  0.1084
  735poe    c31 6649   5.720   1.176   5.425  0.0188 -0.6100 -0.3729
  735poe     o2 6650   5.801   1.273   5.361 -0.3715 -0.0977 -0.0950
  735poe    c23 6651   5.743   1.332   5.247  0.0098 -0.2535 -0.3726
  735poe    c23 6652   5.853   1.395   5.161 -0.1995  0.6190 -0.0159
  735poe     o2 6653   5.966   1.311   5.151 -0.5272  0.2133 -0.3485
  735poe    c23 6654   6.065   1.367   5.068 -0.3217  0.3930  0.0164
  735poe    c23 6655   6.126   1.250   4.989  0.2785  0.5813  0.1924
  735poe     o2 6656   6.186   1.164   5.084  0.2075  0.0748 -0.2150
  735poe    c23 6657   6.267   1.058   5.038 -0.1164 -0.3146  0.1005
  735poe    c23 6658   6.329   0.987   5.160 -0.2518  0.2686  0.5127
  735poe     o2 6659   6.215   0.951   5.235 -0.5093  0.1691  0.0800
  735poe    c31 6660   6.253   0.886   5.354 -0.4322  0.2739  0.1127
  736poe    c31 6661   0.417   2.366   3.715  0.6945  0.0615 -0.8688
  736poe     o2 6662   0.363   2.282   3.615 -0.1671 -0.4317 -0.0075
  736poe    c23 6663   0.252   2.217   3.672 -0.1412 -0.0536  0.4818
  736poe    c23 6664   0.208   2.085   3.607  0.4988 -0.2130  0.3712
  736poe     o2 6665   0.335   2.024   3.592  0.7620  0.3788  0.1720
  736poe    c23 6666   0.334   1.926   3.491 -0.2575  0.4814  0.0661
  736poe    c23 6667   0.472   1.924   3.423 -0.3624 -0.6851 -0.1413
  736poe     o2 6668   0.498   2.048   3.361 -0.1488 -0.6242  0.0704
  736poe    c23 6669   0.616   2.061   3.286 -0.6939  0.0575 -0.6864
  736poe    c23 6670   0.633   2.212   3.261 -0.0247  0.1506  0.2651
  736poe     o2 6671   0.605   2.287   3.377 -0.6750  0.1461  0.1129
  736poe    c31 6672   0.706   2.382   3.402 -0.2312 -0.2313 -0.2363
  737poe    c31 6673   3.589   3.122   2.132  0.0543  0.4031  0.1979
  737poe     o2 6674   3.477   3.179   2.196  0.1498  0.6699  0.1262
  737poe    c23 6675   3.388   3.217   2.093 -0.5889  0.2845  0.6131
  737poe    c23 6676   3.244   3.177   2.130 -0.3660 -0.8745  0.2978
  737poe     o2 6677   3.237   3.200   2.269  0.0196 -0.2822  0.2245
  737poe    c23 6678   3.105   3.183   2.316 -0.2989 -0.1206 -0.6038
  737poe    c23 6679   3.071   3.261   2.444 -0.0482 -0.0239 -0.5966
  737poe     o2 6680   3.160   3.233   2.549 -0.1894 -0.0375 -0.4806
  737poe    c23 6681   3.201   3.350   2.617 -0.5193 -0.4261  0.3961
  737poe    c23 6682   3.290   3.340   2.743  0.1423 -0.5918 -0.0791
  737poe     o2 6683   3.260   3.240   2.838 -0.0650 -0.7173 -0.2759
  737poe    c31 6684   3.368   3.251   2.927  0.0015  0.0242 -0.4378
  738poe    c31 6685   5.014   2.797   4.782  0.4878 -0.0620  0.3281
  738poe     o2 6686   4.918   2.710   4.727  1.0334 -0.1729 -0.4637
  738poe    c23 6687   4.831   2.775   4.637 -0.6210 -0.7946  0.6302
  738poe    c23 6688   4.747   2.672   4.560 -0.1870 -0.6116 -0.0946
  738poe     o2 6689   4.675   2.604   4.660  0.5704 -0.5831  0.4745
  738poe    c23 6690   4.595   2.500   4.609  0.4571 -0.1284 -0.2976
  738poe    c23 6691   4.485   2.484   4.715 -0.0150  0.2598 -0.7271
  738poe     o2 6692   4.400   2.596   4.730 -0.0240  0.3045 -1.1014
  738poe    c23 6693   4.318   2.599   4.844  0.3056 -0.5088 -0.8343
  738poe    c23 6694   4.200   2.687   4.798  0.4213  0.5039  0.7038
  738poe     o2 6695   4.239   2.800   4.724  0.1090 -0.1361 -0.4785
  738poe    c31 6696   4.128   2.888   4.727  0.3013  0.0897  0.1949
  739poe    c31 6697   6.833   6.129   2.475  0.5366 -0.3130 -0.2857
  739poe     o2 6698   6.719   6.056   2.436  0.2631 -0.1751  0.2518
  739poe    c23 6699   6.603   6.092   2.509 -0.1115  0.2415 -0.5422
  739poe    c23 6700   6.487   6.038   2.424 -0.6281 -0.0472  0.3423
  739poe     o2 6701   6.525   5.905   2.395 -0.4305 -0.0543  0.6303
  739poe    c23 6702   6.409   5.825   2.384  0.1947 -0.9246  0.2394
  739poe    c23 6703   6.434   5.744   2.256 -0.0249 -0.6698  0.0339
  739poe     o2 6704   6.532   5.644   2.269  0.5059 -0.1428  0.1187
  739poe    c23 6705   6.579   5.581   2.152  0.2104  0.2862 -0.2358
  739poe    c23 6706   6.711   5.505   2.177  0.0510  0.0562 -0.0850
  739poe     o2 6707   6.835   5.569   2.161  0.1514 -0.0702  0.1771
  739poe    c31 6708   6.938   5.494   2.221  0.0055 -0.3101  0.1294
  740poe    c31 6709   4.981   5.091   5.506  0.1569 -0.2091  0.6846
  740poe     o2 6710   5.068   4.981   5.517  0.0668 -0.3842 -0.2674
  740poe    c23 6711   5.150   4.949   5.406 -0.0741 -0.4545 -0.3516
  740poe    c23 6712   5.143   4.796   5.389 -0.5644 -0.5062  0.2723
  740poe     o2 6713   5.148   4.741   5.519  0.0800 -0.2640  0.3548
  740poe    c23 6714   5.217   4.618   5.513  0.4022 -0.0664 -0.0883
  740poe    c23 6715   5.189   4.538   5.642  0.4580 -0.0639 -0.0745
  740poe     o2 6716   5.221   4.616   5.754 -0.3509 -0.1505  0.2275
  740poe    c23 6717   5.178   4.550   5.871  0.3096 -0.1272  0.4894
  740poe    c23 6718   5.220   4.635   5.993  0.9905  0.3878 -0.0940
  740poe     o2 6719   5.137   4.748   6.009  0.0048 -0.3327 -0.0298
  740poe    c31 6720   5.156   4.827   6.124 -0.0370  0.2501 -0.4187
  741poe    c31 6721   3.192   5.756   5.898  0.5332  0.2465 -0.2440
  741poe     o2 6722   3.166   5.894   5.892 -0.7614  0.0547  0.6078
  741poe    c23 6723   3.034   5.911   5.845 -0.6363 -0.3711  0.0874
  741poe    c23 6724   2.972   6.045   5.890 -0.7329 -0.4496  0.1907
  741poe     o2 6725   2.984   6.146   5.792  0.0646 -0.7013  0.0257
  741poe    c23 6726   3.111   6.177   5.738 -0.0748  0.1132  0.1621
  741poe    c23 6727   3.141   6.327   5.751  0.4317 -0.0017  0.3212
  741poe     o2 6728   3.026   6.382   5.691  0.4977 -0.3801 -0.1569
  741poe    c23 6729   3.013   6.515   5.737  0.3562 -0.1421 -0.8637
  741poe    c23 6730   2.899   6.573   5.652 -0.2958 -0.0170  0.0784
  741poe     o2 6731   2.811   6.464   5.650  0.2709 -0.4724 -0.4619
  741poe    c31 6732   2.690   6.515   5.599  0.1909 -0.5621 -0.3633
  742poe    c31 6733   4.521   0.087   1.470  0.2793 -0.0149 -0.1780
  742poe     o2 6734   4.658   0.068   1.444  0.2009 -0.4720 -0.2782
  742poe    c23 6735   4.741   0.076   1.558  0.1785  0.5628 -0.3237
  742poe    c23 6736   4.873   0.008   1.516 -0.4799 -0.2689 -1.0775
  742poe     o2 6737   4.951   0.078   1.422 -0.5573  0.2022 -0.7959
  742poe    c23 6738   5.061  -0.008   1.401 -0.2174  0.2739  0.6441
  742poe    c23 6739   5.155   0.043   1.291 -0.5831 -0.7051 -0.1444
  742poe     o2 6740   5.076   0.071   1.178 -0.3610  0.0684 -0.1199
  742poe    c23 6741   5.158   0.146   1.092 -0.0397 -0.3914 -0.2211
  742poe    c23 6742   5.080   0.205   0.973 -0.0218 -0.0772 -0.0786
  742poe     o2 6743   4.971   0.250   1.051  0.2525  0.1684  0.1639
  742poe    c31 6744   4.865   0.287   0.966  0.0927 -0.1421  0.2249
  743poe    c31 6745   3.124   2.172   6.522 -0.1484  0.1083  0.2365
  743poe     o2 6746   3.106   2.073   6.423  0.8612 -0.1654  0.3198
  743poe    c23 6747   3.075   1.947   6.477  0.1205  0.1100  0.5519
  743poe    c23 6748   3.119   1.838   6.377 -0.5309  0.6833 -0.3787
  743poe     o2 6749   3.043   1.821   6.260 -0.3821 -0.4079 -0.3292
  743poe    c23 6750   3.092   1.705   6.197  0.2164 -0.2839 -0.0895
  743poe    c23 6751   2.997   1.685   6.078  0.2538 -0.4542 -0.0909
  743poe     o2 6752   2.985   1.810   6.013  0.7129 -0.5113 -0.2871
  743poe    c23 6753   2.911   1.799   5.893  0.6298  0.0787 -0.2898
  743poe    c23 6754   2.917   1.942   5.836 -0.5074  0.2671  0.0325
  743poe     o2 6755   2.898   2.035   5.940  0.1135 -0.1129  0.4922
  743poe    c31 6756   2.909   2.159   5.875  0.5593 -0.8191 -0.8108
  744poe    c31 6757   4.382   0.576   6.555 -0.0155  0.1334  0.4174
  744poe     o2 6758   4.502   0.646   6.575  0.2102  0.0374 -0.5314
  744poe    c23 6759   4.616   0.585   6.518  0.4424 -0.2350  0.2167
  744poe    c23 6760   4.722   0.696   6.511  0.1412  0.0184 -0.4253
  744poe     o2 6761   4.707   0.805   6.424 -0.2044  0.3765  0.0741
  744poe    c23 6762   4.814   0.897   6.412 -0.3173  0.4559 -0.3642
  744poe    c23 6763   4.841   0.935   6.266 -0.3960 -0.1076 -0.5248
  744poe     o2 6764   4.726   1.009   6.234 -0.6503 -0.2435  0.0781
  744poe    c23 6765   4.745   1.055   6.102  0.5219  0.6336  0.5371
  744poe    c23 6766   4.621   1.137   6.066 -0.1387 -0.2122  0.8378
  744poe     o2 6767   4.509   1.062   6.105 -0.1009 -0.5054  0.3930
  744poe    c31 6768   4.384   1.124   6.080 -0.0097 -0.4327  0.1217
  745poe    c31 6769   6.539   2.272   5.539 -0.0081  0.0911  0.0447
  745poe     o2 6770   6.492   2.147   5.493  0.0544 -0.3142  1.0714
  745poe    c23 6771   6.598   2.059   5.465 -0.2061 -0.3171  0.0596
  745poe    c23 6772   6.539   1.918   5.485  0.1558 -0.4498  0.2048
  745poe     o2 6773   6.418   1.919   5.411 -0.3442  0.1490  1.0179
  745poe    c23 6774   6.343   1.801   5.431 -0.4112  0.0252  0.0646
  745poe    c23 6775   6.218   1.825   5.345  0.0048  0.0697 -0.5377
  745poe     o2 6776   6.172   1.949   5.392  0.3156  0.0095 -0.0676
  745poe    c23 6777   6.082   2.021   5.310  0.0270 -0.0887  0.1585
  745poe    c23 6778   6.052   2.158   5.375  0.1537  0.1718 -0.3297
  745poe     o2 6779   6.183   2.208   5.389  0.3276 -0.2393 -0.4604
  745poe    c31 6780   6.177   2.346   5.418 -0.0199 -0.4157  0.3469
  746poe    c31 6781   3.637   3.508   5.695 -0.0862  0.0022 -0.1548
  746poe     o2 6782   3.675   3.590   5.803 -0.4380 -0.3770  0.2626
  746poe    c23 6783   3.642   3.526   5.924  0.5417 -0.8353  0.2996
  746poe    c23 6784   3.643   3.638   6.030 -0.1196 -0.0177 -0.5436
  746poe     o2 6785   3.747   3.714   5.974  0.1647  0.3423  0.4464
  746poe    c23 6786   3.759   3.836   6.042  0.0163  0.3408  0.4752
  746poe    c23 6787   3.898   3.893   6.010 -0.1673  0.8964  0.6521
  746poe     o2 6788   3.919   3.955   5.885 -0.0068 -0.2948  0.0760
  746poe    c23 6789   4.046   4.009   5.855 -0.3234  0.2914 -0.2151
  746poe    c23 6790   4.057   4.077   5.716  0.0188  0.4883 -0.0929
  746poe     o2 6791   3.974   4.032   5.612 -0.3549 -0.2572  0.5123
  746poe    c31 6792   3.990   4.132   5.514  0.1075 -0.5103  0.3253
  747poe    c31 6793   0.369   5.035   6.153  0.0117 -0.1056  0.0611
  747poe     o2 6794   0.228   5.038   6.166 -0.0164 -0.5957 -0.0872
  747poe    c23 6795   0.171   5.007   6.291 -0.3546  0.3555  0.0016
  747poe    c23 6796   0.018   5.022   6.305 -0.3709  0.2637 -0.0752
  747poe     o2 6797  -0.022   4.951   6.190 -0.5531  0.0678  0.1089
  747poe    c23 6798  -0.161   4.939   6.166 -0.6264 -0.6672  0.8586
  747poe    c23 6799  -0.169   4.908   6.016  0.4743 -0.2393  0.7051
  747poe     o2 6800  -0.077   4.990   5.946  0.2778 -0.5237  0.1036
  747poe    c23 6801  -0.090   4.966   5.808 -0.6417  0.4154  0.0247
  747poe    c23 6802   0.024   5.058   5.761  0.1497 -0.6473 -0.1735
  747poe     o2 6803   0.133   5.045   5.850 -0.1692  0.1949  0.3557
  747poe    c31 6804   0.257   5.090   5.802  0.0124  0.2720  0.8947
  748poe    c31 6805   2.512   5.672   2.944 -0.0006  0.3594 -0.4916
  748poe     o2 6806   2.624   5.598   2.988 -0.4185 -0.1816 -0.3408
  748poe    c23 6807   2.732   5.595   2.898 -0.2935  0.8167 -0.2294
  748poe    c23 6808   2.847   5.522   2.969 -0.3384  0.7432 -0.2327
  748poe     o2 6809   2.813   5.480   3.099  0.3319  0.6719 -0.0726
  748poe    c23 6810   2.916   5.403   3.157 -0.2122 -0.1861 -0.2246
  748poe    c23 6811   2.893   5.396   3.309  0.1111 -0.4061 -0.1854
  748poe     o2 6812   2.782   5.322   3.355  0.0925  0.0171  0.4655
  748poe    c23 6813   2.772   5.320   3.496  0.4151  0.0452  0.4882
  748poe    c23 6814   2.626   5.314   3.543 -0.0249 -0.1738 -0.8515
  748poe     o2 6815   2.543   5.416   3.492  0.0636 -0.1737 -0.9961
  748poe    c31 6816   2.415   5.433   3.548  0.4588 -0.2640 -0.0303
  749poe    c31 6817   3.158   6.199   4.334  0.0241 -0.2383 -0.0132
  749poe     o2 6818   3.094   6.319   4.375 -0.5210 -0.5041 -0.0713
  749poe    c23 6819   3.034   6.338   4.501  0.2530 -0.0923  0.2411
  749poe    c23 6820   2.982   6.481   4.522 -0.0838 -0.0790 -0.6526
  749poe     o2 6821   3.076   6.587   4.523 -0.0336 -0.1226 -0.7897
  749poe    c23 6822   3.028   6.702   4.589  0.1920 -0.5551  0.1411
  749poe    c23 6823   3.145   6.800   4.567 -0.1362 -0.1603  0.1393
  749poe     o2 6824   3.173   6.826   4.432 -0.0316 -0.0922  0.1737
  749poe    c23 6825   3.308   6.860   4.412 -0.0890  0.2513  0.3613
  749poe    c23 6826   3.327   6.900   4.264 -0.4555  0.5526  0.3949
  749poe     o2 6827   3.259   6.805   4.185  0.0727  0.3472  0.1785
  749poe    c31 6828   3.271   6.828   4.047 -0.3871 -0.2427  0.0369
  750poe    c31 6829   2.163   3.955   3.788 -0.4332  0.7861  0.6171
  750poe     o2 6830   2.223   3.869   3.882 -0.7786 -0.5388 -0.3440
  750poe    c23 6831   2.168   3.883   4.011 -0.1236 -0.2598 -0.0939
  750poe    c23 6832   2.273   3.831   4.111  0.0096 -0.2377 -0.2217
  750poe     o2 6833   2.406   3.877   4.110 -0.1487  0.2578  0.6346
  750poe    c23 6834   2.491   3.807   4.197 -0.0024 -0.0017  0.2860
  750poe    c23 6835   2.615   3.898   4.204 -0.2373  0.3420 -0.0203
  750poe     o2 6836   2.653   3.917   4.069  0.1633  0.2853  0.0840
  750poe    c23 6837   2.782   3.974   4.065  0.2151  0.1852  0.3349
  750poe    c23 6838   2.816   3.946   3.918 -0.1231 -0.0408  0.2973
  750poe     o2 6839   2.716   3.984   3.827  0.3378 -0.4692 -0.3967
  750poe    c31 6840   2.748   3.998   3.690  0.1794 -0.6124 -0.4500
  751poe    c31 6841   2.947   3.969   2.078  0.1484 -0.2568 -0.2288
  751poe     o2 6842   2.836   3.988   1.992 -0.0463 -0.4026 -0.0105
  751poe    c23 6843   2.832   4.114   1.930  0.1600 -0.3644  0.0520
  751poe    c23 6844   2.705   4.143   1.847  0.2777 -0.7007 -0.2470
  751poe     o2 6845   2.599   4.103   1.930 -0.1287  0.4578 -0.1825
  751poe    c23 6846   2.491   4.193   1.917  0.1215  0.7660 -0.1372
  751poe    c23 6847   2.374   4.135   1.999  0.4036 -0.0405 -0.2955
  751poe     o2 6848   2.414   4.099   2.129  0.3178  0.0084 -0.2554
  751poe    c23 6849   2.310   4.060   2.215  0.2847  0.4069 -0.1113
  751poe    c23 6850   2.377   4.015   2.346  0.4916  0.5371 -0.1723
  751poe     o2 6851   2.444   3.891   2.339 -0.1869  0.1129  0.6797
  751poe    c31 6852   2.436   3.836   2.468  0.6236 -0.2117  0.5998
  752poe    c31 6853   3.494   3.514   5.354 -0.1862 -0.2019  0.2791
  752poe     o2 6854   3.370   3.557   5.407  0.0028  0.2715  0.3431
  752poe    c23 6855   3.358   3.695   5.433  0.3505  0.3094  0.3055
  752poe    c23 6856   3.252   3.732   5.538 -0.5015  0.0922 -0.4663
  752poe     o2 6857   3.284   3.661   5.655 -0.6846  0.3741 -0.2449
  752poe    c23 6858   3.209   3.700   5.768 -0.1366 -0.0852  0.2855
  752poe    c23 6859   3.073   3.628   5.770 -0.0744 -0.2097 -0.0048
  752poe     o2 6860   3.084   3.487   5.762  0.1777 -0.1942  0.0611
  752poe    c23 6861   2.961   3.427   5.729  0.2014 -0.4386  0.4170
  752poe    c23 6862   2.964   3.279   5.773  0.1171 -0.7066 -0.4509
  752poe     o2 6863   3.091   3.223   5.749  0.2457 -0.6411  0.0705
  752poe    c31 6864   3.082   3.095   5.807  0.7994 -0.7955 -0.1796
  753poe    c31 6865   2.134   0.208   1.327 -0.7326  0.5973 -0.2655
  753poe     o2 6866   2.205   0.303   1.251 -0.0027 -0.0392 -0.3892
  753poe    c23 6867   2.306   0.245   1.172  0.0816 -0.3562 -0.0523
  753poe    c23 6868   2.403   0.357   1.130 -0.1038 -0.2194 -0.1165
  753poe     o2 6869   2.313   0.440   1.061  0.1293  0.3249  0.2248
  753poe    c23 6870   2.364   0.569   1.039  0.3965  0.1466 -0.2138
  753poe    c23 6871   2.253   0.653   0.973  0.2990  0.0414 -0.1835
  753poe     o2 6872   2.136   0.613   1.041  0.4887  0.2175  0.2524
  753poe    c23 6873   2.060   0.546   0.944  0.0449  0.6783  0.2769
  753poe    c23 6874   1.932   0.480   0.999 -0.0183  0.0471 -0.6050
  753poe     o2 6875   1.965   0.402   1.112 -0.4167 -0.2613 -0.6982
  753poe    c31 6876   1.866   0.304   1.132 -0.1220 -0.2927  0.6938
  754poe    c31 6877   2.139   3.292   6.149  0.6533  0.0337 -0.1063
  754poe     o2 6878   2.185   3.180   6.078 -0.0716 -0.3113 -0.0493
  754poe    c23 6879   2.084   3.088   6.044 -0.3146 -0.1088  0.1203
  754poe    c23 6880   2.156   2.999   5.941 -0.5268  0.1972 -0.2949
  754poe     o2 6881   2.289   2.982   5.983 -0.6554 -0.0096  0.0318
  754poe    c23 6882   2.351   2.860   5.950  0.1034  0.3707  0.0245
  754poe    c23 6883   2.456   2.844   6.062  0.0142 -0.3248  0.0118
  754poe     o2 6884   2.556   2.943   6.048 -0.0450 -0.2252  0.2871
  754poe    c23 6885   2.647   2.944   6.156  0.1198 -0.4682  0.1522
  754poe    c23 6886   2.742   3.065   6.148 -0.3299 -0.0757  0.6433
  754poe     o2 6887   2.670   3.185   6.138 -0.3985 -0.1267  0.5242
  754poe    c31 6888   2.749   3.302   6.132 -0.2003 -0.3026 -0.5665
  755poe    c31 6889   5.550   5.442   4.534  0.0988  0.3058  0.7981
  755poe     o2 6890   5.429   5.497   4.487 -0.1424 -0.3967  0.5961
  755poe    c23 6891   5.445   5.636   4.474  0.2596 -0.4740  0.2426
  755poe    c23 6892   5.312   5.712   4.476  0.3988 -0.2112 -0.2382
  755poe     o2 6893   5.207   5.618   4.471  0.3555 -0.1434 -0.6054
  755poe    c23 6894   5.082   5.659   4.422  0.1815 -0.5404 -0.5014
  755poe    c23 6895   4.980   5.544   4.422 -0.9184  0.4072 -0.7450
  755poe     o2 6896   5.047   5.451   4.340 -0.2072 -0.3068  0.5980
  755poe    c23 6897   4.945   5.382   4.270  0.0435 -0.4250  0.3473
  755poe    c23 6898   4.953   5.372   4.116 -0.7255 -0.0746  0.2767
  755poe     o2 6899   5.037   5.270   4.067 -0.1669  0.5850 -0.1590
  755poe    c31 6900   4.980   5.212   3.952 -0.4355 -0.0192  0.2700
  756poe    c31 6901   4.665   5.597   3.040 -0.6485 -0.3497 -0.0611
  756poe     o2 6902   4.608   5.523   3.146  0.0135 -0.3250  0.3232
  756poe    c23 6903   4.540   5.597   3.244  0.0571 -0.1684  0.2359
  756poe    c23 6904   4.494   5.503   3.357  0.3875 -0.2382  0.3146
  756poe     o2 6905   4.481   5.376   3.295 -0.2006 -0.1366  0.2175
  756poe    c23 6906   4.456   5.274   3.389 -1.0125 -0.2011 -0.0607
  756poe    c23 6907   4.432   5.165   3.283 -0.4989  0.1008 -0.4959
  756poe     o2 6908   4.528   5.179   3.181 -0.3280  0.1963 -0.3232
  756poe    c23 6909   4.496   5.098   3.070 -0.3539 -0.2143 -0.0156
  756poe    c23 6910   4.594   5.152   2.965 -0.4580  0.5613  0.2829
  756poe     o2 6911   4.580   5.292   2.978 -0.1191  0.5919  0.3280
  756poe    c31 6912   4.518   5.354   2.867  0.0444 -0.7429 -0.5273
  757poe    c31 6913   2.605   2.989   3.497 -0.0556 -0.1185 -0.2122
  757poe     o2 6914   2.579   3.111   3.562 -0.1860  0.1005 -0.6716
  757poe    c23 6915   2.603   3.221   3.477 -0.1951  0.2136 -0.5283
  757poe    c23 6916   2.536   3.345   3.540 -0.4930 -0.4331  0.4391
  757poe     o2 6917   2.546   3.345   3.681  0.5619  0.1341  0.3768
  757poe    c23 6918   2.479   3.462   3.723  0.1223  0.0533 -0.0835
  757poe    c23 6919   2.513   3.465   3.873 -0.6143 -0.0765  0.0879
  757poe     o2 6920   2.473   3.337   3.917 -0.3380  0.0755  0.7947
  757poe    c23 6921   2.565   3.263   3.995  0.6587 -0.2837 -0.6830
  757poe    c23 6922   2.549   3.110   3.983  0.2291 -0.2882 -0.1026
  757poe     o2 6923   2.562   3.058   3.852 -0.0596  0.7999 -0.5736
  757poe    c31 6924   2.529   2.928   3.895  0.9371  0.5775 -0.4584
  758poe    c31 6925   5.161   3.850   1.254 -0.0283 -0.1448 -0.4590
  758poe     o2 6926   5.120   3.735   1.325 -0.1907  0.3609  0.2778
  758poe    c23 6927   5.237   3.656   1.332 -0.1297  0.4353  0.0944
  758poe    c23 6928   5.202   3.517   1.387 -0.3900  0.4117 -0.1228
  758poe     o2 6929   5.062   3.509   1.401 -0.3410  0.2085  0.2569
  758poe    c23 6930   5.021   3.431   1.512 -0.5776 -0.5761 -0.3728
  758poe    c23 6931   5.059   3.476   1.654 -0.1474  0.3289 -0.7626
  758poe     o2 6932   5.014   3.606   1.683 -0.7154 -0.1136  0.4103
  758poe    c23 6933   5.045   3.632   1.818 -0.4111  0.0980  0.3013
  758poe    c23 6934   5.025   3.782   1.847  0.8054  0.3172  0.0481
  758poe     o2 6935   5.048   3.774   1.986  0.0751 -0.2770  0.1397
  758poe    c31 6936   5.026   3.889   2.066 -0.0080  0.2116 -0.5785
  759poe    c31 6937   2.786   0.099   2.400  0.3702  0.2821  0.0429
  759poe     o2 6938   2.853   0.216   2.360  0.5802 -0.0126 -0.4805
  759poe    c23 6939   2.761   0.321   2.339  0.3152 -0.0797  0.3169
  759poe    c23 6940   2.851   0.442   2.309  0.0772  0.1160  0.3921
  759poe     o2 6941   2.948   0.432   2.410  0.1163  0.2648  0.3699
  759poe    c23 6942   3.025   0.550   2.414 -0.1800  0.4440  1.0105
  759poe    c23 6943   3.110   0.507   2.534  0.7182  0.0855  0.2603
  759poe     o2 6944   3.128   0.367   2.533  0.3091  0.0332  0.1521
  759poe    c23 6945   3.162   0.326   2.664  0.0526 -0.2124  0.1419
  759poe    c23 6946   3.187   0.174   2.658  0.0051 -0.2345  0.5036
  759poe     o2 6947   3.084   0.129   2.574 -0.1873  0.2056  0.4994
  759poe    c31 6948   3.055  -0.006   2.605  0.5659  0.0333  0.4519
  760poe    c31 6949   2.283   1.548   3.380 -0.0370  0.7024  0.3157
  760poe     o2 6950   2.156   1.507   3.426  0.1299  0.4084  0.5219
  760poe    c23 6951   2.196   1.418   3.527 -0.0795 -0.0523  0.2004
  760poe    c23 6952   2.076   1.322   3.543  0.1195 -0.1558  1.1023
  760poe     o2 6953   1.969   1.410   3.567  0.2352  0.2111  0.2946
  760poe    c23 6954   1.842   1.352   3.546  0.3936  0.2139 -0.7230
  760poe    c23 6955   1.749   1.460   3.488  0.0658  0.1711 -0.2836
  760poe     o2 6956   1.827   1.556   3.420  0.4684  0.0707  0.0318
  760poe    c23 6957   1.750   1.672   3.402  0.1829 -0.1152  0.0471
  760poe    c23 6958   1.830   1.769   3.313 -0.9528  0.4368 -0.4045
  760poe     o2 6959   1.961   1.766   3.366 -0.9086  0.1610 -0.5264
  760poe    c31 6960   2.051   1.854   3.301  0.2227 -0.2945  0.3880
  761poe    c31 6961   1.700   4.981   3.493  0.2298  0.5733  0.2121
  761poe     o2 6962   1.784   4.868   3.495 -0.3265  0.1450 -0.3442
  761poe    c23 6963   1.859   4.858   3.376  0.2229  0.3581 -0.0186
  761poe    c23 6964   1.960   4.741   3.369  0.0440  0.1963  0.0963
  761poe     o2 6965   2.055   4.728   3.472  0.0084  0.0639  0.1122
  761poe    c23 6966   2.141   4.623   3.435  0.3663  0.2826  0.3237
  761poe    c23 6967   2.227   4.599   3.561 -0.0753  0.9720  0.7628
  761poe     o2 6968   2.138   4.593   3.670 -0.3462 -0.3956  0.4853
  761poe    c23 6969   2.195   4.550   3.793  0.2194 -0.9555  0.0378
  761poe    c23 6970   2.098   4.597   3.903  0.3086 -0.3667 -0.1301
  761poe     o2 6971   2.078   4.731   3.865 -0.2364 -0.4876 -0.2720
  761poe    c31 6972   1.995   4.783   3.966  0.5972  0.4369 -0.0452
  762poe    c31 6973   3.559   2.500   5.126 -0.0444  0.6986 -0.2027
  762poe     o2 6974   3.447   2.434   5.072  0.2956  0.0884 -0.1706
  762poe    c23 6975   3.495   2.374   4.954  0.6714  0.2466 -0.1011
  762poe    c23 6976   3.372   2.309   4.888  0.6458  0.0111  0.1759
  762poe     o2 6977   3.294   2.249   4.989  0.1256  0.5114  0.0771
  762poe    c23 6978   3.161   2.245   4.945  0.2517  0.5498 -0.3099
  762poe    c23 6979   3.090   2.186   5.068  0.1674  0.6331 -0.3184
  762poe     o2 6980   3.127   2.263   5.180  0.5921 -0.0476  0.0185
  762poe    c23 6981   3.103   2.180   5.291 -0.1834 -0.1163 -0.1933
  762poe    c23 6982   3.061   2.275   5.405  0.0594 -0.2563  0.0145
  762poe     o2 6983   3.136   2.389   5.442 -0.5044  0.1741 -0.1544
  762poe    c31 6984   3.111   2.437   5.573  0.1238 -0.1066  0.0733
  763poe    c31 6985   3.168   0.579   0.373  0.0399 -0.6318 -0.8247
  763poe     o2 6986   3.308   0.562   0.384  0.0209 -0.4857 -0.3129
  763poe    c23 6987   3.355   0.573   0.516 -0.4072 -0.3974 -0.1665
  763poe    c23 6988   3.478   0.665   0.524 -0.7605  0.0426  0.2487
  763poe     o2 6989   3.561   0.613   0.423 -0.5730  0.1587  0.3414
  763poe    c23 6990   3.671   0.694   0.392 -0.0818 -0.4646  0.4300
  763poe    c23 6991   3.751   0.606   0.295 -0.3873 -0.3940  0.1114
  763poe     o2 6992   3.659   0.530   0.219 -0.2222 -0.4743 -0.0112
  763poe    c23 6993   3.668   0.392   0.246  0.1465 -0.3400  0.6007
  763poe    c23 6994   3.548   0.329   0.171  0.3945 -0.0470 -0.0528
  763poe     o2 6995   3.423   0.367   0.224  0.6052 -0.3422  0.6663
  763poe    c31 6996   3.325   0.270   0.196  0.6244 -0.2510  0.2847
  764poe    c31 6997   4.529   6.561   3.317  0.5543 -0.2449  0.5089
  764poe     o2 6998   4.527   6.421   3.304  0.0446 -0.1841 -0.1609
  764poe    c23 6999   4.429   6.364   3.389  0.3279 -0.2344  0.1332
  764poe    c23 7000   4.414   6.212   3.373  0.6631 -0.2830  0.2561
  764poe     o2 7001   4.418   6.185   3.234 -0.1788  0.0304  0.1614
  764poe    c23 7002   4.473   6.055   3.233  0.2158  0.1938  0.2357
  764poe    c23 7003   4.434   5.999   3.094  0.0192  0.5130  0.1627
  764poe     o2 7004   4.502   6.090   3.010 -0.4061  0.5615 -0.1296
  764poe    c23 7005   4.555   6.031   2.893  0.3261  0.0470  0.4581
  764poe    c23 7006   4.586   6.156   2.810 -0.6574  0.2998  0.4553
  764poe     o2 7007   4.478   6.238   2.772 -0.4608  0.3956  0.0947
  764poe    c31 7008   4.481   6.278   2.637 -0.5628 -0.0031 -0.0290
  765poe    c31 7009   4.878   1.523   3.401 -0.4126 -0.6024 -0.0458
  765poe     o2 7010   4.764   1.582   3.342  0.0768  0.6218  0.2033
  765poe    c23 7011   4.705   1.494   3.249  1.0210  0.7629 -0.5468
  765poe    c23 7012   4.598   1.567   3.165  0.2659  0.2732 -0.0280
  765poe     o2 7013   4.479   1.588   3.237  0.2496  0.7036 -0.1794
  765poe    c23 7014   4.362   1.618   3.164  0.0554 -0.2803 -0.2820
  765poe    c23 7015   4.249   1.682   3.246  0.0235 -0.2391 -0.3579
  765poe     o2 7016   4.286   1.801   3.311  0.0197 -0.4354  0.0046
  765poe    c23 7017   4.182   1.843   3.397  0.4195 -0.3294  0.4423
  765poe    c23 7018   4.251   1.935   3.499 -0.4079  0.1340  0.5920
  765poe     o2 7019   4.357   1.848   3.530 -0.2603 -0.0243 -0.3352
  765poe    c31 7020   4.407   1.879   3.658 -0.5854 -0.6675 -0.0473
  766poe    c31 7021   2.699   4.782   2.014 -0.0772 -0.2437 -0.3401
  766poe     o2 7022   2.803   4.726   1.936  0.0730  0.5354 -0.7194
  766poe    c23 7023   2.920   4.797   1.968  0.2142 -0.0431  0.0875
  766poe    c23 7024   3.038   4.752   1.880  0.2063 -0.1430  0.1278
  766poe     o2 7025   2.972   4.734   1.756 -0.3310  0.2951  0.3477
  766poe    c23 7026   3.057   4.665   1.667  0.0287  1.3136 -0.1188
  766poe    c23 7027   2.981   4.617   1.542 -0.3473  0.2952  0.4839
  766poe     o2 7028   2.857   4.579   1.597 -0.4908 -0.1099 -0.1099
  766poe    c23 7029   2.752   4.605   1.507  0.0966  0.0867 -0.7476
  766poe    c23 7030   2.635   4.550   1.590  0.8431 -0.3412  0.0317
  766poe     o2 7031   2.621   4.630   1.705 -0.3317 -0.0255 -0.3199
  766poe    c31 7032   2.484   4.656   1.728 -0.1857  0.1750  0.3497
  767poe    c31 7033   0.355   4.619   6.396 -0.6489 -0.1754  0.2198
  767poe     o2 7034   0.412   4.565   6.279 -0.0514 -0.1015  0.4744
  767poe    c23 7035   0.321   4.475   6.219 -0.2277  0.3255  0.0997
  767poe    c23 7036   0.382   4.409   6.093 -0.2094 -0.0134  0.2853
  767poe     o2 7037   0.511   4.373   6.138 -0.2341 -0.5346 -0.0594
  767poe    c23 7038   0.596   4.318   6.039  0.5591  0.2570  0.1706
  767poe    c23 7039   0.731   4.265   6.089  0.6376  0.4216  0.1335
  767poe     o2 7040   0.768   4.374   6.170 -0.1145  0.5604  0.2967
  767poe    c23 7041   0.892   4.365   6.237  0.1288  0.4702 -0.1526
  767poe    c23 7042   1.028   4.358   6.166  0.2285  0.3145  0.0511
  767poe     o2 7043   1.050   4.234   6.102  0.6347  0.2970  0.2237
  767poe    c31 7044   1.142   4.261   5.998  0.1247 -0.2159 -0.3685
  768poe    c31 7045   2.504   3.976   0.736  0.3000 -0.0662 -0.1259
  768poe     o2 7046   2.553   3.916   0.618 -0.3216 -0.7929 -0.0183
  768poe    c23 7047   2.462   3.944   0.514 -0.6177 -0.1794  0.4028
  768poe    c23 7048   2.508   3.869   0.388  0.0166  0.1526  0.4342
  768poe     o2 7049   2.529   3.734   0.423 -0.0952  0.0148 -0.0266
  768poe    c23 7050   2.582   3.665   0.312  0.8170 -0.0127  0.4164
  768poe    c23 7051   2.615   3.526   0.369 -0.2115 -0.4264  0.0196
  768poe     o2 7052   2.661   3.548   0.500  0.4910  0.4740 -0.3669
  768poe    c23 7053   2.744   3.441   0.539 -0.4027 -0.2828 -0.4923
  768poe    c23 7054   2.790   3.448   0.685  0.0070 -0.2594 -0.6203
  768poe     o2 7055   2.886   3.538   0.737  0.1209 -0.1763 -0.9701
  768poe    c31 7056   3.010   3.476   0.761  0.4615  0.8392 -0.0248
  769poe    c31 7057   6.187   5.016   0.010 -0.0495  0.4745  0.2967
  769poe     o2 7058   6.281   5.047   0.110  0.0686  1.0502  0.0086
  769poe    c23 7059   6.219   4.991   0.224 -0.0016  0.1017 -0.4892
  769poe    c23 7060   6.300   4.981   0.354  0.1575 -0.2678 -0.6151
  769poe     o2 7061   6.424   4.938   0.303  0.1580 -0.3858 -0.5140
  769poe    c23 7062   6.523   4.977   0.395 -0.3612  0.5195 -0.3275
  769poe    c23 7063   6.660   4.977   0.323 -0.0048  0.2303  0.3430
  769poe     o2 7064   6.612   5.043   0.208  0.1073  0.0581  0.1974
  769poe    c23 7065   6.719   5.102   0.139 -0.1956  0.0389 -0.2929
  769poe    c23 7066   6.659   5.211   0.048  0.2708  0.1621 -0.4593
  769poe     o2 7067   6.543   5.148  -0.002 -0.0671  0.5031 -0.1082
  769poe    c31 7068   6.516   5.214  -0.123  0.2492  0.3391 -0.2696
  770poe    c31 7069   1.723   4.772   6.128  0.0644  0.5200 -0.0970
  770poe     o2 7070   1.738   4.859   6.238  0.4888  0.2734  0.0402
  770poe    c23 7071   1.849   4.943   6.214  0.2789  0.4353 -0.3705
  770poe    c23 7072   1.872   5.043   6.328 -0.0491  0.0647  0.0206
  770poe     o2 7073   1.772   5.143   6.335 -0.3007 -0.2285  0.8537
  770poe    c23 7074   1.814   5.246   6.421  0.2709  0.4773 -0.2390
  770poe    c23 7075   1.709   5.353   6.458 -0.1347  0.0884 -0.2633
  770poe     o2 7076   1.598   5.268   6.477  0.2127 -0.2007  0.5580
  770poe    c23 7077   1.488   5.346   6.518 -0.0962 -0.0519 -0.5070
  770poe    c23 7078   1.360   5.262   6.500  0.1834 -0.4942 -0.4260
  770poe     o2 7079   1.374   5.122   6.516  0.2959 -0.4728 -0.3365
  770poe    c31 7080   1.257   5.056   6.559  0.1136  0.2188  0.2631
  771poe    c31 7081   2.805   1.273   0.725  0.7528 -0.2995 -0.0174
  771poe     o2 7082   2.915   1.358   0.747  0.2112  0.3753  0.1210
  771poe    c23 7083   2.945   1.350   0.884  0.0649 -0.3597  0.1137
  771poe    c23 7084   3.066   1.440   0.918 -0.1750  0.1136 -0.2831
  771poe     o2 7085   3.183   1.391   0.856  0.2907  1.0319 -0.1496
  771poe    c23 7086   3.290   1.477   0.885  0.7727  0.2531  0.4234
  771poe    c23 7087   3.429   1.431   0.837  0.5004  0.0268 -0.1484
  771poe     o2 7088   3.408   1.410   0.699 -0.5161 -0.1888  0.0318
  771poe    c23 7089   3.531   1.374   0.642 -0.2427 -0.8153  0.9952
  771poe    c23 7090   3.496   1.324   0.500 -0.1549 -0.0721  0.7059
  771poe     o2 7091   3.376   1.249   0.502 -0.3593  0.2435  0.3256
  771poe    c31 7092   3.344   1.205   0.372  0.3131  0.2642  0.1514
  772poe    c31 7093   2.972   4.541   0.115  0.4788  0.3435  0.4592
  772poe     o2 7094   3.094   4.480   0.148  0.5213 -0.1152 -0.4786
  772poe    c23 7095   3.083   4.422   0.276  0.1374  0.9554 -0.0173
  772poe    c23 7096   3.177   4.303   0.301 -0.4984  0.4810  0.1123
  772poe     o2 7097   3.311   4.340   0.324 -0.4039  0.1511  0.0977
  772poe    c23 7098   3.381   4.217   0.332 -0.5369  0.1115  0.7320
  772poe    c23 7099   3.530   4.250   0.347 -0.3436 -0.2362 -0.3428
  772poe     o2 7100   3.565   4.347   0.251 -0.1022 -0.2419 -0.2625
  772poe    c23 7101   3.703   4.362   0.228 -0.0094 -0.0179  0.4023
  772poe    c23 7102   3.720   4.512   0.198 -0.1080 -0.0149  0.3605
  772poe     o2 7103   3.602   4.556   0.133 -0.0568  0.2828  0.4673
  772poe    c31 7104   3.619   4.687   0.084  0.1129 -0.0099 -0.2701
  773poe    c31 7105   2.017   0.766   3.080  0.1397  0.0891  0.4074
  773poe     o2 7106   2.023   0.824   2.951 -0.4346 -0.1526  0.2671
  773poe    c23 7107   2.053   0.720   2.861 -0.0608  0.2452 -0.0697
  773poe    c23 7108   2.171   0.767   2.773 -0.0129  0.4007  0.0776
  773poe     o2 7109   2.132   0.886   2.709 -0.2873  0.4022  0.2446
  773poe    c23 7110   2.213   0.916   2.597 -0.1700  0.0591  0.2371
  773poe    c23 7111   2.147   1.047   2.549  0.0060  0.0489 -0.0334
  773poe     o2 7112   2.128   1.127   2.663 -0.1933  0.0499 -0.0677
  773poe    c23 7113   2.112   1.263   2.628 -0.5828 -0.0639 -0.3303
  773poe    c23 7114   2.065   1.360   2.738 -0.0541  0.0191 -0.1752
  773poe     o2 7115   1.952   1.314   2.809 -0.2161  0.4552 -0.1517
  773poe    c31 7116   1.912   1.399   2.914  0.0261 -0.1326  0.4201
  774poe    c31 7117   5.112   2.491   2.823 -0.0458 -0.4224  0.5089
  774poe     o2 7118   4.972   2.494   2.808  0.0437  0.3785 -0.2788
  774poe    c23 7119   4.903   2.540   2.922  0.0814  0.0922 -0.1404
  774poe    c23 7120   4.760   2.559   2.868  0.3229  0.3003 -0.7044
  774poe     o2 7121   4.725   2.443   2.796  0.2862  0.0763 -0.3233
  774poe    c23 7122   4.606   2.449   2.721  0.0620 -0.4951 -0.0255
  774poe    c23 7123   4.633   2.349   2.607 -0.2212 -0.1207 -0.4238
  774poe     o2 7124   4.761   2.393   2.569  0.1361 -0.4840  0.3529
  774poe    c23 7125   4.792   2.332   2.446 -0.2059 -0.6492  0.3464
  774poe    c23 7126   4.936   2.376   2.411 -0.5013 -0.2797 -0.4348
  774poe     o2 7127   5.016   2.361   2.526 -0.4085  0.1059 -0.4486
  774poe    c31 7128   5.152   2.364   2.489 -0.2882  0.1805 -0.0074
  775poe    c31 7129   5.998   1.854   3.453 -0.1956 -0.0777  0.0945
  775poe     o2 7130   5.916   1.775   3.370 -0.5535  0.5665 -0.1753
  775poe    c23 7131   5.976   1.743   3.246 -0.8437 -0.5225 -0.0452
  775poe    c23 7132   5.875   1.674   3.152 -0.6107 -0.2787 -0.4767
  775poe     o2 7133   5.759   1.647   3.227 -0.1200  0.2554  0.4856
  775poe    c23 7134   5.701   1.535   3.165  0.6085 -0.0643  0.3682
  775poe    c23 7135   5.566   1.527   3.239  0.1625 -0.2705 -0.4477
  775poe     o2 7136   5.574   1.516   3.380 -0.1913  0.1873 -0.3928
  775poe    c23 7137   5.449   1.481   3.434 -0.0753  0.3966  0.0149
  775poe    c23 7138   5.465   1.473   3.587 -0.6475  0.0228  0.0602
  775poe     o2 7139   5.489   1.607   3.626  0.4269 -0.0992 -0.1495
  775poe    c31 7140   5.509   1.632   3.764  0.3175  0.1127 -0.1715
  776poe    c31 7141   5.405   2.855   3.917 -0.2080 -0.1731 -0.2355
  776poe     o2 7142   5.358   2.986   3.935 -0.2991 -0.2145 -0.1732
  776poe    c23 7143   5.370   3.069   3.821  0.0189 -0.4563 -0.3184
  776poe    c23 7144   5.453   3.196   3.848  0.2031 -0.7878  0.7114
  776poe     o2 7145   5.394   3.280   3.945 -1.0043 -0.7478 -0.0342
  776poe    c23 7146   5.373   3.407   3.887 -0.6511 -0.5251  0.3104
  776poe    c23 7147   5.320   3.494   4.002  0.4041  0.0891  0.3387
  776poe     o2 7148   5.377   3.448   4.122  0.1434 -0.4467  0.2628
  776poe    c23 7149   5.316   3.514   4.232  0.2592  0.7764 -0.3850
  776poe    c23 7150   5.406   3.510   4.356  0.0412  0.1649 -0.2415
  776poe     o2 7151   5.459   3.379   4.367 -0.0773  0.1488  0.1724
  776poe    c31 7152   5.572   3.399   4.448  0.5675 -0.0843 -0.6640
  777poe    c31 7153   0.054   0.906   1.555  0.6673 -0.2587 -0.4889
  777poe     o2 7154   0.037   0.920   1.415 -0.5594  0.3791 -0.2843
  777poe    c23 7155  -0.082   0.853   1.377 -0.1835 -0.5881  0.1981
  777poe    c23 7156  -0.085   0.840   1.224  0.3169  0.0091  0.1300
  777poe     o2 7157  -0.052   0.970   1.183 -0.1060  0.0461 -0.0945
  777poe    c23 7158  -0.109   0.999   1.057  0.2199  0.1666 -0.2168
  777poe    c23 7159  -0.061   1.140   1.017 -0.3970  0.4038 -0.1282
  777poe     o2 7160   0.067   1.180   1.058 -0.1104 -0.5830 -0.0180
  777poe    c23 7161   0.108   1.294   0.986  0.2878 -0.6219  0.1460
  777poe    c23 7162   0.262   1.295   0.998  0.3065  0.5496 -0.0513
  777poe     o2 7163   0.314   1.332   1.124 -0.1601 -0.2322  0.3793
  777poe    c31 7164   0.454   1.317   1.122 -0.2048 -0.5814 -0.2160
  778poe    c31 7165   3.961   0.596   6.458  0.4920 -0.2970 -0.1387
  778poe     o2 7166   3.938   0.696   6.555  0.0360 -0.3669 -0.1720
  778poe    c23 7167   3.861   0.655   6.666  0.5090  0.0114  0.3011
  778poe    c23 7168   3.828   0.771   6.761  0.9784  0.1645  0.2815
  778poe     o2 7169   3.815   0.885   6.678 -0.2558 -0.2836 -0.1669
  778poe    c23 7170   3.776   1.001   6.747  0.1499 -0.2802  0.0571
  778poe    c23 7171   3.705   1.094   6.647 -0.1236 -0.8593 -0.2860
  778poe     o2 7172   3.790   1.167   6.563 -0.3355 -0.3257 -0.0392
  778poe    c23 7173   3.709   1.264   6.500 -0.0863  0.1086  0.3046
  778poe    c23 7174   3.799   1.365   6.425  0.2042 -0.1840  0.2573
  778poe     o2 7175   3.809   1.322   6.291  0.5414 -0.2813  0.3133
  778poe    c31 7176   3.927   1.379   6.239  0.1415  0.4000  0.1351
  779poe    c31 7177   3.600   6.561   5.879  0.0923  0.2126  0.5633
  779poe     o2 7178   3.612   6.606   6.013  0.1881  0.4088  0.4884
  779poe    c23 7179   3.518   6.532   6.086  0.0990  0.2713  0.2348
  779poe    c23 7180   3.502   6.573   6.233 -0.0799 -0.0278  0.3006
  779poe     o2 7181   3.549   6.706   6.230  0.3659 -0.1849  0.3012
  779poe    c23 7182   3.568   6.767   6.355 -0.6949  0.0972  0.3395
  779poe    c23 7183   3.717   6.755   6.393 -0.4092  0.6798 -0.5688
  779poe     o2 7184   3.784   6.804   6.279  0.4637  0.2654 -0.2431
  779poe    c23 7185   3.922   6.773   6.282  0.2412 -0.7209  0.3660
  779poe    c23 7186   3.964   6.786   6.135 -0.2031 -0.4250  0.2635
  779poe     o2 7187   3.870   6.724   6.049 -0.6103  0.4615  0.0577
  779poe    c31 7188   3.919   6.737   5.917  0.1088  0.1147  0.2838
  780poe    c31 7189   1.632   6.164   2.257 -0.2276 -1.1731 -0.4847
  780poe     o2 7190   1.516   6.197   2.185 -0.2991 -0.9382 -0.2596
  780poe    c23 7191   1.415   6.192   2.283  0.5248 -0.2230  0.6381
  780poe    c23 7192   1.292   6.238   2.203  0.6582 -0.6806  0.1703
  780poe     o2 7193   1.311   6.171   2.080 -0.1523 -0.2414 -0.2046
  780poe    c23 7194   1.199   6.176   1.994  0.0558  0.7730 -0.4372
  780poe    c23 7195   1.229   6.072   1.884  0.0757 -0.1076  0.3816
  780poe     o2 7196   1.369   6.087   1.869  0.0412  0.3050  0.4421
  780poe    c23 7197   1.433   5.975   1.811 -0.1206 -0.0023  0.8528
  780poe    c23 7198   1.584   5.990   1.838  0.1022  0.8607 -0.7583
  780poe     o2 7199   1.606   6.055   1.962 -0.0689  0.3993 -0.4828
  780poe    c31 7200   1.744   6.083   1.967 -0.0420  0.1571  0.1536
  781poe    c31 7201   5.179   1.282   1.401 -0.1996 -0.4201 -0.8352
  781poe     o2 7202   5.228   1.151   1.411 -0.0912 -0.3038  0.4021
  781poe    c23 7203   5.216   1.073   1.294 -0.4265 -0.1444  0.3289
  781poe    c23 7204   5.283   0.936   1.317  0.3524  0.1389 -0.2202
  781poe     o2 7205   5.225   0.887   1.436 -0.1535 -0.5352 -0.7378
  781poe    c23 7206   5.280   0.759   1.460 -0.2350 -0.4838 -0.2689
  781poe    c23 7207   5.240   0.712   1.601 -0.2256 -0.2958 -0.2025
  781poe     o2 7208   5.288   0.801   1.699 -0.6603  0.1939 -0.4248
  781poe    c23 7209   5.273   0.750   1.829 -0.9627  0.5256 -0.3291
  781poe    c23 7210   5.303   0.852   1.940 -0.0308 -0.0506 -0.0398
  781poe     o2 7211   5.417   0.929   1.908 -0.1275  0.1018 -0.0201
  781poe    c31 7212   5.425   1.035   2.001 -0.3580 -0.2073  0.3540
  782poe    c31 7213   1.757   2.416   0.780  0.1584 -0.6325  0.0918
  782poe     o2 7214   1.628   2.373   0.819 -0.2433  0.1441 -0.3561
  782poe    c23 7215   1.606   2.394   0.957  0.0109 -0.0019 -0.2919
  782poe    c23 7216   1.555   2.258   1.008  0.2674  0.0551  0.1231
  782poe     o2 7217   1.442   2.231   0.927  0.6469 -0.0904 -0.3591
  782poe    c23 7218   1.369   2.114   0.957  0.0350  0.2879 -0.3646
  782poe    c23 7219   1.244   2.148   0.874 -0.4271  0.1788  0.2804
  782poe     o2 7220   1.292   2.179   0.745  0.0201 -0.3200  0.3249
  782poe    c23 7221   1.194   2.246   0.668  0.2543 -0.2182  0.1155
  782poe    c23 7222   1.269   2.311   0.550 -0.2171  0.2331  0.0617
  782poe     o2 7223   1.387   2.373   0.597 -0.1223  0.1065 -0.0077
  782poe    c31 7224   1.427   2.481   0.515 -0.0671  0.1356  0.0574
  783poe    c31 7225   0.225   0.535   5.589 -0.1123  0.0777  0.2546
  783poe     o2 7226   0.214   0.674   5.567  0.3891  0.1347  0.3558
  783poe    c23 7227   0.307   0.731   5.478  0.0748 -0.4392 -0.3509
  783poe    c23 7228   0.236   0.844   5.402 -0.2823 -0.3153  0.1619
  783poe     o2 7229   0.189   0.930   5.503 -0.1019  0.0667 -0.0759
  783poe    c23 7230   0.108   1.039   5.469 -0.0527  0.1028 -0.0773
  783poe    c23 7231  -0.030   1.021   5.535  0.1297 -0.4601  0.1490
  783poe     o2 7232  -0.007   0.971   5.664  0.3088 -0.6249  0.0538
  783poe    c23 7233  -0.098   0.868   5.696  0.4286 -0.8477 -0.3171
  783poe    c23 7234  -0.042   0.785   5.813  0.0067 -0.3099  0.2718
  783poe     o2 7235   0.091   0.747   5.785  0.1829  0.2412  0.3593
  783poe    c31 7236   0.150   0.670   5.887 -0.9157 -0.5435  0.4191
  784poe    c31 7237   4.815   4.509   6.241  0.2335 -0.6443 -0.7171
  784poe     o2 7238   4.685   4.564   6.245  0.7603  0.5760  0.4295
  784poe    c23 7239   4.683   4.697   6.292  0.1943  0.6597  0.1809
  784poe    c23 7240   4.541   4.730   6.340  0.0677 -0.4318  0.5835
  784poe     o2 7241   4.452   4.683   6.241 -0.0089  0.1133  0.3884
  784poe    c23 7242   4.320   4.686   6.290 -0.1594 -0.3643  0.0080
  784poe    c23 7243   4.224   4.625   6.185 -0.1916 -0.4463  0.0850
  784poe     o2 7244   4.295   4.528   6.111  0.5117  0.3314 -0.2691
  784poe    c23 7245   4.201   4.457   6.034  0.1800  0.1725  0.2769
  784poe    c23 7246   4.275   4.354   5.947  0.9528  0.2353  0.8427
  784poe     o2 7247   4.366   4.405   5.853 -0.0037 -0.0732 -0.2813
  784poe    c31 7248   4.359   4.317   5.742 -0.1940 -0.0579 -0.2799
  785poe    c31 7249   3.518   1.436   1.681 -0.0491 -0.7784 -0.7717
  785poe     o2 7250   3.479   1.536   1.589 -0.0502  0.1298  0.1899
  785poe    c23 7251   3.387   1.466   1.507 -0.3539  0.3162  0.3705
  785poe    c23 7252   3.355   1.552   1.383 -0.7683  0.0425  0.2849
  785poe     o2 7253   3.328   1.680   1.434 -0.2859 -0.0825  0.8630
  785poe    c23 7254   3.322   1.782   1.337  0.3884 -0.3609  0.5239
  785poe    c23 7255   3.461   1.841   1.309  0.5104 -0.7314  0.3389
  785poe     o2 7256   3.540   1.827   1.425  0.1258 -1.0883  0.5587
  785poe    c23 7257   3.678   1.849   1.406 -0.0892 -0.1040  0.0722
  785poe    c23 7258   3.751   1.835   1.541 -0.3950  0.5595  0.3101
  785poe     o2 7259   3.692   1.732   1.617 -0.4318  0.4768  0.1706
  785poe    c31 7260   3.756   1.713   1.742 -0.2982 -0.8803 -0.0932
  786poe    c31 7261   5.318   0.055   6.555 -0.8769 -0.7666  0.5343
  786poe     o2 7262   5.302   0.014   6.421  0.0853 -0.0228  0.1827
  786poe    c23 7263   5.297  -0.126   6.428  0.6476 -0.0961 -0.6910
  786poe    c23 7264   5.223  -0.162   6.298 -0.3394  0.4883 -0.3061
  786poe     o2 7265   5.295  -0.101   6.193 -0.4203  0.5864 -0.3046
  786poe    c23 7266   5.254  -0.144   6.065  0.7245  0.0903 -0.5171
  786poe    c23 7267   5.328  -0.040   5.979 -0.2533  0.4551 -0.9404
  786poe     o2 7268   5.290   0.085   6.032 -0.0870  0.1180 -0.0018
  786poe    c23 7269   5.370   0.193   5.989 -0.2397  0.1298 -0.2584
  786poe    c23 7270   5.477   0.228   6.094 -0.2256  0.6408 -0.4390
  786poe     o2 7271   5.433   0.195   6.224  0.4137  0.7562 -0.1856
  786poe    c31 7272   5.528   0.252   6.311  0.9029 -0.7243  0.2731
  787poe    c31 7273   1.449   0.401   3.181  0.1644 -0.8401  0.6675
  787poe     o2 7274   1.412   0.472   3.298 -0.2682 -0.6009  0.3878
  787poe    c23 7275   1.286   0.530   3.274  0.0331 -0.1286 -0.0887
  787poe    c23 7276   1.219   0.560   3.410 -0.1495  0.2528 -0.2617
  787poe     o2 7277   1.312   0.646   3.472  0.3006 -0.2251 -0.2640
  787poe    c23 7278   1.279   0.689   3.602  0.2713 -0.4435 -0.1990
  787poe    c23 7279   1.400   0.760   3.666  0.1569 -0.0012 -0.4666
  787poe     o2 7280   1.514   0.686   3.627  0.3706  0.3758 -0.5533
  787poe    c23 7281   1.636   0.757   3.628  0.4214  0.2829 -0.2150
  787poe    c23 7282   1.739   0.670   3.554  0.1226 -0.1668 -0.1071
  787poe     o2 7283   1.691   0.604   3.440  0.3162 -0.6356  0.0771
  787poe    c31 7284   1.797   0.560   3.359 -0.0336  0.0099 -0.7551
  788poe    c31 7285   0.872   4.749   2.203 -0.6721  0.0672  0.4549
  788poe     o2 7286   0.925   4.710   2.328  0.5005  0.1491 -0.0028
  788poe    c23 7287   0.891   4.802   2.429  0.2006  0.1623 -0.1156
  788poe    c23 7288   0.971   4.783   2.559 -0.4666  0.2852  0.3169
  788poe     o2 7289   0.994   4.644   2.569  0.2746  0.3711 -0.1532
  788poe    c23 7290   1.097   4.609   2.659  0.2420  0.0767 -0.2300
  788poe    c23 7291   1.108   4.456   2.676 -0.5510  0.0864  0.4522
  788poe     o2 7292   1.131   4.406   2.546 -0.2482  0.1900  0.4645
  788poe    c23 7293   1.055   4.289   2.527 -0.2955  0.3836 -0.6203
  788poe    c23 7294   0.983   4.292   2.391 -0.1783 -0.3566 -0.7069
  788poe     o2 7295   0.918   4.416   2.369 -0.4601 -0.2908  0.4291
  788poe    c31 7296   0.869   4.402   2.238  0.8087  0.2584 -0.1171
  789poe    c31 7297   3.236   5.672   0.733  0.5608 -1.0713  0.5103
  789poe     o2 7298   3.262   5.766   0.834  0.1454 -0.1985 -0.1868
  789poe    c23 7299   3.355   5.701   0.917 -0.5167 -0.6045  0.2476
  789poe    c23 7300   3.438   5.819   0.973 -0.8036 -0.1386 -0.2988
  789poe     o2 7301   3.437   5.931   0.888 -0.1651  0.2483  0.1957
  789poe    c23 7302   3.471   6.042   0.968 -0.0868 -0.3524  1.0093
  789poe    c23 7303   3.431   6.171   0.894  0.3646 -0.7379  0.0632
  789poe     o2 7304   3.315   6.140   0.820  0.2083  0.0447 -0.0298
  789poe    c23 7305   3.347   6.134   0.683  0.2153 -0.3761 -0.0088
  789poe    c23 7306   3.214   6.092   0.617 -0.3120  0.4712  0.4956
  789poe     o2 7307   3.168   5.965   0.658  0.2334 -0.0111 -0.3319
  789poe    c31 7308   3.054   5.920   0.589  0.0762 -0.6656  0.3444
  790poe    c31 7309   1.932   4.401   2.084 -0.2609 -0.6215 -0.3731
  790poe     o2 7310   1.868   4.425   2.208 -0.1235  0.4282 -0.4961
  790poe    c23 7311   1.763   4.516   2.190 -0.8317 -0.2033  0.3620
  790poe    c23 7312   1.689   4.519   2.325 -0.1690  0.5657  0.7152
  790poe     o2 7313   1.607   4.412   2.367  0.2265 -0.0789 -0.1315
  790poe    c23 7314   1.598   4.412   2.508  0.3855 -0.8130 -0.1181
  790poe    c23 7315   1.486   4.313   2.542 -0.2271 -0.1178 -0.0937
  790poe     o2 7316   1.513   4.208   2.452 -0.3626  0.0313 -0.3102
  790poe    c23 7317   1.452   4.085   2.487 -0.2605  0.0312 -0.1306
  790poe    c23 7318   1.497   3.983   2.382  0.4474 -0.2303  0.4197
  790poe     o2 7319   1.492   4.021   2.246 -0.4732 -0.4347  0.3921
  790poe    c31 7320   1.540   3.923   2.156 -0.3878 -0.2401  0.2251
  791poe    c31 7321   6.283   1.693   2.795 -0.4241 -0.5449  0.6469
  791poe     o2 7322   6.367   1.659   2.903  0.1966  0.4515  0.4887
  791poe    c23 7323   6.361   1.520   2.925  0.3606  0.3060 -0.3675
  791poe    c23 7324   6.452   1.486   3.044 -0.3538  0.5578  0.2581
  791poe     o2 7325   6.572   1.560   3.031 -0.3026  0.3637 -0.3939
  791poe    c23 7326   6.665   1.520   3.129  0.1451  0.1140 -0.9148
  791poe    c23 7327   6.798   1.593   3.105  0.4793 -0.2539 -0.2037
  791poe     o2 7328   6.770   1.727   3.069  0.6553 -0.1860 -0.0881
  791poe    c23 7329   6.871   1.825   3.059 -0.0080  0.4194 -0.9375
  791poe    c23 7330   6.939   1.856   2.924  0.8220 -0.2759 -0.6894
  791poe     o2 7331   6.860   1.894   2.813  0.4647  0.1180 -0.3013
  791poe    c31 7332   6.911   1.969   2.705  0.3238  0.0209 -0.4343
  792poe    c31 7333   1.672   4.246   6.097 -0.6012 -0.0525 -0.0657
  792poe     o2 7334   1.610   4.129   6.146 -0.6045  0.0733  0.2269
  792poe    c23 7335   1.474   4.143   6.179 -0.6039  0.3406  0.1198
  792poe    c23 7336   1.420   4.011   6.237  0.3574  0.1906  0.6834
  792poe     o2 7337   1.523   3.958   6.317  0.2801 -0.2160  0.5156
  792poe    c23 7338   1.466   3.846   6.382 -0.2699 -0.2806 -0.0690
  792poe    c23 7339   1.570   3.781   6.475 -0.0347 -0.1795 -0.2612
  792poe     o2 7340   1.695   3.776   6.410  0.0534 -0.9114 -0.0386
  792poe    c23 7341   1.789   3.700   6.485  0.2456 -0.0982  0.5556
  792poe    c23 7342   1.916   3.659   6.409 -0.1844 -0.3421 -0.0445
  792poe     o2 7343   2.016   3.759   6.414 -0.5683  0.0211  0.4850
  792poe    c31 7344   2.095   3.771   6.298 -0.2320  0.5500  0.7645
  793poe    c31 7345   1.634   6.544   6.155  0.5745  0.0252  0.2016
  793poe     o2 7346   1.700   6.421   6.167  0.4877 -0.0387  0.0276
  793poe    c23 7347   1.694   6.374   6.299  0.1881 -0.2061 -0.0451
  793poe    c23 7348   1.728   6.224   6.306  0.6785 -0.0825  0.2992
  793poe     o2 7349   1.840   6.214   6.221 -0.2624  0.0571 -0.9897
  793poe    c23 7350   1.895   6.084   6.212  0.0747  0.1753 -0.6543
  793poe    c23 7351   2.016   6.101   6.118  0.1026  0.6373 -0.5379
  793poe     o2 7352   1.984   6.095   5.981  0.0251 -0.3191 -0.4834
  793poe    c23 7353   2.090   6.142   5.901  0.1404 -0.4400 -0.4017
  793poe    c23 7354   2.058   6.137   5.751  0.1515  0.1227 -0.4254
  793poe     o2 7355   2.061   6.017   5.677  0.4876 -0.0684 -0.1023
  793poe    c31 7356   2.185   5.950   5.681  0.6705  0.2482 -0.4746
  794poe    c31 7357   1.288   3.703   3.004  0.5141 -0.2516 -0.3195
  794poe     o2 7358   1.306   3.566   2.974  0.3229 -0.3562  0.0343
  794poe    c23 7359   1.308   3.555   2.833  0.0707  0.1581 -0.0145
  794poe    c23 7360   1.374   3.419   2.804  0.0992  0.0632  0.4780
  794poe     o2 7361   1.307   3.309   2.862 -0.6211  0.0831 -0.2882
  794poe    c23 7362   1.345   3.182   2.812 -0.6106 -0.2019  0.4206
  794poe    c23 7363   1.229   3.089   2.850 -0.7989 -0.1995 -0.1396
  794poe     o2 7364   1.204   3.082   2.988  0.4103  0.1205  0.1014
  794poe    c23 7365   1.197   2.949   3.037 -0.8256 -0.0169 -0.4173
  794poe    c23 7366   1.116   2.927   3.166 -0.4077 -0.0154 -0.1516
  794poe     o2 7367   1.172   3.024   3.251 -0.4608 -0.2594  0.1620
  794poe    c31 7368   1.128   2.995   3.382 -0.8162 -0.5677 -0.0225
  795poe    c31 7369   6.774   3.204   0.882  0.4213  0.0148  0.2542
  795poe     o2 7370   6.860   3.283   0.802 -0.2542  0.2649 -0.2384
  795poe    c23 7371   6.995   3.253   0.827 -0.2506 -0.3532 -0.9443
  795poe    c23 7372   7.073   3.365   0.756  0.0884  0.0078 -0.0230
  795poe     o2 7373   7.016   3.400   0.631  0.2846 -0.0791 -0.1364
  795poe    c23 7374   7.094   3.479   0.544 -0.0307  0.3382 -0.0418
  795poe    c23 7375   7.024   3.487   0.407  0.4236  0.2405 -0.2800
  795poe     o2 7376   6.888   3.520   0.423  0.4495  0.3409 -0.2667
  795poe    c23 7377   6.813   3.532   0.304 -0.4579  0.2296  0.2806
  795poe    c23 7378   6.715   3.649   0.315 -0.1908  0.4754  0.0806
  795poe     o2 7379   6.634   3.628   0.429  0.2322  0.0231  0.3020
  795poe    c31 7380   6.509   3.693   0.414  0.0779 -0.2993  0.1660
  796poe    c31 7381   3.271   4.174   2.445 -0.4268 -0.2807  0.3373
  796poe     o2 7382   3.288   4.302   2.503  0.3452 -0.1402 -0.1692
  796poe    c23 7383   3.166   4.373   2.495  0.0818 -0.5332  0.2536
  796poe    c23 7384   3.211   4.520   2.487 -0.2117 -0.4294  0.5234
  796poe     o2 7385   3.287   4.539   2.604 -0.6071  0.0067  0.7155
  796poe    c23 7386   3.224   4.626   2.696 -0.5333  0.3334  0.4582
  796poe    c23 7387   3.297   4.596   2.828  0.3762  0.8156  0.0744
  796poe     o2 7388   3.353   4.470   2.796 -0.5945  0.2039  0.7279
  796poe    c23 7389   3.416   4.412   2.908 -0.1955 -0.6341  0.0771
  796poe    c23 7390   3.421   4.261   2.877 -0.4518 -0.6188 -0.0413
  796poe     o2 7391   3.452   4.233   2.742  0.4061  0.3915 -0.0628
  796poe    c31 7392   3.550   4.132   2.748 -0.1077 -0.1400 -0.5930
  797poe    c31 7393   6.212   2.260   4.092  0.0379  0.3896  0.1555
  797poe     o2 7394   6.265   2.179   4.195 -0.5398  0.6635  0.6822
  797poe    c23 7395   6.220   2.046   4.190 -0.0944  0.5215  0.2848
  797poe    c23 7396   6.251   1.991   4.331  0.6948 -0.2231 -0.1692
  797poe     o2 7397   6.379   2.025   4.380  0.5292 -0.0933  0.1728
  797poe    c23 7398   6.376   2.007   4.520  0.2043  0.5419  0.2515
  797poe    c23 7399   6.500   2.050   4.601  0.0400  0.4259  0.5660
  797poe     o2 7400   6.545   2.181   4.577 -0.3227  0.5006  0.2728
  797poe    c23 7401   6.680   2.191   4.617 -0.0357 -0.0421 -0.5419
  797poe    c23 7402   6.750   2.317   4.562  0.5052  0.1355  0.5364
  797poe     o2 7403   6.715   2.433   4.635 -0.0792  0.5257 -0.3394
  797poe    c31 7404   6.827   2.518   4.643  0.2705  0.0399  0.0806
  798poe    c31 7405   3.350   3.371   1.233 -0.0696 -0.1808  0.2607
  798poe     o2 7406   3.264   3.277   1.294 -0.2717  0.0239  0.2934
  798poe    c23 7407   3.198   3.327   1.408 -0.4927  0.2599  0.0612
  798poe    c23 7408   3.074   3.236   1.422 -0.2139 -0.1754 -0.2507
  798poe     o2 7409   3.128   3.107   1.434 -0.3835 -0.1891  0.4301
  798poe    c23 7410   3.021   3.020   1.464 -0.5671  0.0201  0.3885
  798poe    c23 7411   3.082   2.882   1.497 -0.8109 -0.1678  0.0646
  798poe     o2 7412   3.140   2.831   1.379  0.3457  0.4428  0.3539
  798poe    c23 7413   3.162   2.692   1.390 -0.3250  0.2469 -0.6440
  798poe    c23 7414   3.216   2.624   1.263 -0.1764 -0.3372 -0.2706
  798poe     o2 7415   3.121   2.595   1.163 -0.1348 -0.1984 -0.3502
  798poe    c31 7416   3.168   2.603   1.030 -0.2650  0.0361 -0.3833
  799poe    c31 7417   5.969   0.784   2.779 -0.4518  0.7902 -0.4723
  799poe     o2 7418   5.890   0.845   2.879 -0.6306 -0.6071  0.2641
  799poe    c23 7419   5.966   0.911   2.977 -0.2242 -0.5207 -0.1096
  799poe    c23 7420   5.864   1.002   3.047  0.1091 -0.3195  0.1216
  799poe     o2 7421   5.765   0.938   3.125  0.0955 -0.3599  0.0718
  799poe    c23 7422   5.699   1.038   3.200  0.4589 -0.2890  0.2969
  799poe    c23 7423   5.559   0.992   3.244  0.1817 -0.1800 -0.4638
  799poe     o2 7424   5.585   0.861   3.288 -0.1862 -0.1714 -0.2169
  799poe    c23 7425   5.456   0.805   3.303 -0.1256 -0.2331  0.0903
  799poe    c23 7426   5.458   0.688   3.403 -0.5779  0.2217  0.6352
  799poe     o2 7427   5.557   0.594   3.366 -0.1007  0.8558  0.2909
  799poe    c31 7428   5.532   0.480   3.444 -0.7104  0.5544 -0.3351
  800poe    c31 7429   1.354   0.781   2.189  0.2562 -0.0866 -0.4993
  800poe     o2 7430   1.402   0.816   2.317  0.0695  0.8200 -0.6728
  800poe    c23 7431   1.318   0.914   2.376 -0.1197  0.1446  0.1984
  800poe    c23 7432   1.370   0.934   2.520  0.4825 -0.0967  0.0174
  800poe     o2 7433   1.511   0.925   2.521  0.5084  0.2818 -0.1525
  800poe    c23 7434   1.575   0.946   2.645  0.6367 -0.2412 -0.1301
  800poe    c23 7435   1.684   0.837   2.639  0.7486 -0.1484  0.2015
  800poe     o2 7436   1.724   0.834   2.504  0.1522 -0.2328  0.0208
  800poe    c23 7437   1.796   0.716   2.476 -0.8448 -0.7377 -0.4558
  800poe    c23 7438   1.815   0.681   2.327 -0.3562  0.2442 -0.6354
  800poe     o2 7439   1.686   0.694   2.272 -0.6521  0.1796  0.0316
  800poe    c31 7440   1.694   0.648   2.139 -0.9180  0.0254  0.0673
  801poe    c31 7441   1.808   1.510   2.041  0.1008  0.3933 -0.1693
  801poe     o2 7442   1.733   1.588   1.951  0.0261 -0.0712 -0.5190
  801poe    c23 7443   1.595   1.556   1.948 -0.0739  0.3609 -0.7062
  801poe    c23 7444   1.539   1.647   1.837 -0.4115  0.0331 -0.8050
  801poe     o2 7445   1.592   1.776   1.859 -0.4870 -0.1723  0.7293
  801poe    c23 7446   1.539   1.860   1.759 -0.3917 -0.0965  0.7428
  801poe    c23 7447   1.618   1.987   1.796 -0.3044 -0.0635  0.4457
  801poe     o2 7448   1.749   1.948   1.827 -0.1467 -0.2375 -0.4040
  801poe    c23 7449   1.836   1.953   1.716 -0.1685  0.2730 -0.4008
  801poe    c23 7450   1.969   1.896   1.768 -0.3665  0.0966 -0.0790
  801poe     o2 7451   1.937   1.775   1.832  0.5040  0.2510  0.6671
  801poe    c31 7452   2.042   1.680   1.834  0.1642 -0.1781 -0.6002
  802poe    c31 7453   5.915   3.347   1.724  0.1039  0.3201  0.9539
  802poe     o2 7454   5.978   3.409   1.613  0.6192 -0.3254  0.8810
  802poe    c23 7455   6.035   3.534   1.641  0.0254  0.1199  0.1404
  802poe    c23 7456   6.072   3.587   1.501  0.1777 -0.5384 -0.0681
  802poe     o2 7457   5.967   3.586   1.407 -0.1032  0.1718  0.2370
  802poe    c23 7458   6.004   3.600   1.272 -0.5997 -0.4382  0.0333
  802poe    c23 7459   5.875   3.603   1.189 -0.1547  0.1170 -0.6524
  802poe     o2 7460   5.782   3.499   1.211 -0.0373  0.1814  0.1764
  802poe    c23 7461   5.666   3.524   1.134 -0.1047  0.2873  0.3117
  802poe    c23 7462   5.568   3.406   1.149 -0.1026  0.2057 -0.2806
  802poe     o2 7463   5.522   3.398   1.283 -0.1589  0.3602 -0.2897
  802poe    c31 7464   5.459   3.275   1.308 -0.0226  0.2870 -0.3018
  803poe    c31 7465   0.190   2.630   3.631 -0.1464  0.4355  0.2373
  803poe     o2 7466   0.058   2.596   3.665 -0.1413  0.3386  0.1600
  803poe    c23 7467   0.045   2.595   3.806 -0.2166  0.2976  0.1530
  803poe    c23 7468  -0.104   2.570   3.836 -0.2860 -0.1733 -0.5574
  803poe     o2 7469  -0.178   2.659   3.755 -0.0172  0.4169 -0.1610
  803poe    c23 7470  -0.314   2.658   3.791 -0.0288 -0.3072 -0.2084
  803poe    c23 7471  -0.372   2.765   3.695  0.4837 -0.1807 -0.3771
  803poe     o2 7472  -0.312   2.741   3.570 -0.0166 -0.1048 -0.6303
  803poe    c23 7473  -0.308   2.871   3.516 -0.2882  0.0021 -0.3983
  803poe    c23 7474  -0.192   2.873   3.414 -0.2124  0.0851 -0.3101
  803poe     o2 7475  -0.079   2.830   3.487 -0.4992 -0.4561 -0.1739
  803poe    c31 7476   0.033   2.904   3.444 -0.1214 -1.0968 -0.3054
  804poe    c31 7477   4.240   1.124   3.035 -0.2306  0.3575 -0.5658
  804poe     o2 7478   4.109   1.125   2.981 -0.3227  0.1347 -0.3471
  804poe    c23 7479   4.033   1.179   3.086  0.4654  0.3312  0.1350
  804poe    c23 7480   3.894   1.114   3.076  0.7317 -0.1418 -0.5495
  804poe     o2 7481   3.868   1.124   2.938 -0.0945 -0.6498 -0.4380
  804poe    c23 7482   3.748   1.064   2.892 -0.6548  0.3470 -0.2948
  804poe    c23 7483   3.711   1.141   2.764  0.1802 -0.2085 -0.8816
  804poe     o2 7484   3.834   1.133   2.697  0.1734 -0.0663 -0.9103
  804poe    c23 7485   3.859   1.245   2.615  0.2494  0.5911 -0.0031
  804poe    c23 7486   4.010   1.272   2.600  0.3363  0.1926  0.1453
  804poe     o2 7487   4.064   1.275   2.730 -0.0308  0.6283  0.2883
  804poe    c31 7488   4.190   1.338   2.732  0.0934  0.3725  0.4156
  805poe    c31 7489   4.671   6.445   4.796 -0.0765 -0.2040  0.1221
  805poe     o2 7490   4.791   6.374   4.779  0.1817  0.2892 -0.1509
  805poe    c23 7491   4.862   6.353   4.899 -0.4130 -0.4360  0.0797
  805poe    c23 7492   4.972   6.251   4.866 -0.0850 -0.1169  0.1751
  805poe     o2 7493   4.916   6.148   4.787 -0.5352 -0.0995  0.4650
  805poe    c23 7494   5.005   6.072   4.709 -0.6428  0.5639 -0.3182
  805poe    c23 7495   4.939   5.987   4.599 -0.8931 -0.2164  0.4311
  805poe     o2 7496   4.871   6.090   4.531 -0.7854 -0.3904  0.0547
  805poe    c23 7497   4.820   6.039   4.411  0.2920  0.2645 -0.6977
  805poe    c23 7498   4.754   6.161   4.344  0.0325  0.3976 -0.1992
  805poe     o2 7499   4.689   6.230   4.449  0.3685  0.5033 -0.0587
  805poe    c31 7500   4.593   6.317   4.393 -0.2045  0.3470  0.6691
  806poe    c31 7501   2.594   6.476   4.721 -0.5076  0.7132 -0.5466
  806poe     o2 7502   2.675   6.589   4.695  0.1215  0.2543 -0.6148
  806poe    c23 7503   2.608   6.713   4.694  0.9493  0.7098 -0.2193
  806poe    c23 7504   2.588   6.780   4.831 -0.4538 -0.2608  0.0670
  806poe     o2 7505   2.591   6.921   4.841 -0.5295 -0.2462 -0.1007
  806poe    c23 7506   2.630   6.978   4.964 -0.5351 -0.6697  0.1011
  806poe    c23 7507   2.569   7.118   4.980 -0.2963 -0.5575  0.0320
  806poe     o2 7508   2.434   7.116   4.938  0.2461 -0.1275 -1.8475
  806poe    c23 7509   2.395   7.252   4.933 -0.2150 -0.2051 -0.7138
  806poe    c23 7510   2.245   7.252   4.900 -0.1419  0.5667 -1.0601
  806poe     o2 7511   2.234   7.151   4.802  0.4226 -0.4795 -0.0692
  806poe    c31 7512   2.125   7.186   4.720  0.5562  0.2206  0.0469
  807poe    c31 7513   0.088   1.875   3.963  0.0088 -0.2707  0.2760
  807poe     o2 7514   0.163   1.759   3.990  0.5974  0.0809  0.1763
  807poe    c23 7515   0.195   1.694   3.869  0.0201  0.5691 -0.2451
  807poe    c23 7516   0.255   1.561   3.919 -0.4206  0.1436 -0.8455
  807poe     o2 7517   0.181   1.508   4.027  0.6434  0.2210 -0.0663
  807poe    c23 7518   0.223   1.388   4.087 -0.7863 -0.4410 -0.3654
  807poe    c23 7519   0.132   1.364   4.209  0.2339 -0.1164  0.4653
  807poe     o2 7520   0.101   1.490   4.266  0.0593 -0.0546  0.2337
  807poe    c23 7521  -0.007   1.460   4.351  0.0617 -0.8763 -0.0400
  807poe    c23 7522  -0.077   1.597   4.356  0.9263 -0.4270  0.0102
  807poe     o2 7523  -0.108   1.637   4.225 -0.5850 -0.0638  0.4570
  807poe    c31 7524  -0.232   1.704   4.222 -0.4540  0.1500 -0.5971
  808poe    c31 7525   5.422   6.356   3.134 -0.3899  0.2456 -0.0660
  808poe     o2 7526   5.368   6.393   3.009 -0.4462  0.0085 -0.1129
  808poe    c23 7527   5.255   6.477   3.023  0.0044  0.6691 -0.3715
  808poe    c23 7528   5.168   6.469   2.896  0.0466  0.4294 -0.3859
  808poe     o2 7529   5.261   6.460   2.791  0.2955 -0.7489 -0.0805
  808poe    c23 7530   5.201   6.387   2.687  0.5555 -0.2469 -0.5870
  808poe    c23 7531   5.273   6.251   2.682 -0.0936 -0.6506  0.5626
  808poe     o2 7532   5.401   6.290   2.726 -0.1829  0.0838  0.1884
  808poe    c23 7533   5.501   6.196   2.757 -0.0170  0.2239  0.0801
  808poe    c23 7534   5.637   6.261   2.788  0.1395  0.1244 -0.3932
  808poe     o2 7535   5.611   6.393   2.830  0.0277 -0.0098 -0.0414
  808poe    c31 7536   5.710   6.465   2.899 -0.1917  0.0034  0.2630
  809poe    c31 7537   4.499   3.333   6.017  0.0865 -0.1614 -1.2592
  809poe     o2 7538   4.359   3.339   5.996 -0.1645 -0.4044  0.1917
  809poe    c23 7539   4.320   3.209   5.958 -0.0384 -0.2466 -0.5057
  809poe    c23 7540   4.167   3.194   5.965 -0.0753  0.1996 -0.3217
  809poe     o2 7541   4.109   3.288   6.052  0.7976  0.1552  0.3239
  809poe    c23 7542   3.968   3.291   6.054  0.7870  0.1144 -0.2583
  809poe    c23 7543   3.941   3.372   6.182  0.1416  0.3367 -0.5308
  809poe     o2 7544   4.011   3.494   6.165 -0.9770  0.9527 -0.8618
  809poe    c23 7545   4.040   3.543   6.294 -0.3426 -0.8729 -0.2740
  809poe    c23 7546   4.170   3.623   6.276 -0.1225 -1.0232  0.5874
  809poe     o2 7547   4.266   3.546   6.207  0.1327 -0.4081  0.2377
  809poe    c31 7548   4.388   3.609   6.236 -0.1756  0.3083  0.0060
  810poe    c31 7549   1.403   0.493   3.966  0.6190 -0.6934 -0.0068
  810poe     o2 7550   1.313   0.597   3.997 -0.1555 -1.2111 -0.4863
  810poe    c23 7551   1.206   0.558   4.079 -0.3772 -0.1503 -0.2648
  810poe    c23 7552   1.126   0.661   4.162  0.2282  0.4650 -0.4293
  810poe     o2 7553   1.190   0.717   4.275 -0.2485 -0.1173  0.1433
  810poe    c23 7554   1.096   0.783   4.357 -0.4367 -0.4603  0.2058
  810poe    c23 7555   1.159   0.804   4.496  0.7237 -0.2594 -0.3353
  810poe     o2 7556   1.282   0.871   4.479  0.8306 -0.4503 -0.3196
  810poe    c23 7557   1.300   0.936   4.603 -0.0562 -0.2029 -0.3093
  810poe    c23 7558   1.451   0.921   4.630 -0.1122 -0.4990 -0.1569
  810poe     o2 7559   1.522   1.007   4.544 -0.3518 -0.2318 -0.0850
  810poe    c31 7560   1.656   0.994   4.585 -0.3795 -0.4029 -0.0506
  811lim     li 7561   2.676   6.255   1.794 -0.1377 -0.4811 -0.5970
  812lim     li 7562   5.444   1.607   1.165  0.2466 -0.9845  0.9041
  813lim     li 7563   4.174   3.463   5.267 -0.7367  0.1122  0.0952
  814lim     li 7564   4.436   1.742   3.417  0.4322 -0.2773 -0.2633
  815lim     li 7565   2.220   6.674   0.050 -0.3841 -0.6875 -0.0121
  816lim     li 7566   1.086   0.005   2.629  0.5440  0.3142  0.2301
  817lim     li 7567   0.138   1.673   4.150 -0.0712  0.2832 -0.1631
  818lim     li 7568   3.300   2.320   5.152  0.8298 -0.2979 -0.3812
  819lim     li 7569   2.455   1.081   0.248 -0.1038 -0.2036  0.0695
  820lim     li 7570   5.019   0.230   2.147  1.1852  0.2412  0.3515
  821lim     li 7571   5.552   0.624   0.867 -0.0359 -1.0294  0.2190
  822lim     li 7572   6.093   0.223   3.794  0.6232  0.4064  1.2591
  823lim     li 7573   4.572   6.603   5.487 -0.6497 -0.4238  0.5191
  824lim     li 7574   4.653   2.976   1.400 -0.2566 -0.0323  0.6219
  825lim     li 7575   6.825   4.239   4.241  0.2313  1.0435 -0.0646
  826lim     li 7576   6.250   2.864   0.999  1.3154 -0.7704 -0.6784
  827lim     li 7577   1.211   6.443   3.900  1.0957  1.6254 -0.0170
  828lim     li 7578   2.164   6.263   5.074  0.1405 -0.2877 -0.3445
  829lim     li 7579   1.769   3.406   5.640  0.7976  0.8300  0.5736
  830lim     li 7580   3.448   0.540   0.276  1.7690 -0.9489 -0.4636
  831lim     li 7581   4.795   4.324   5.059 -0.0730  0.0559  0.7838
  832lim     li 7582   3.807   3.697   5.793  0.4803  0.5547  0.2665
  833lim     li 7583   2.947   4.536   6.026 -1.2012 -1.4961 -1.0838
  834lim     li 7584   4.028   1.931   5.704 -0.9829  1.0485 -0.6116
  835lim     li 7585   1.744   4.407   1.506 -0.4817 -0.2430  0.2716
  836lim     li 7586   1.857   0.519   0.227  1.5031  0.2425 -1.1833
  837lim     li 7587   3.842   0.541   5.492 -0.4117 -0.0536 -0.5184
  838lim     li 7588   0.947   1.119   5.415  0.2213 -2.1125 -0.5658
  839lim     li 7589   2.598   5.748   5.362  0.0057  0.1300  1.1192
  840lim     li 7590   6.824   4.021   5.960 -0.2688  0.4301  0.5963
  841lim     li 7591   0.627   3.497   2.937  0.8840 -0.3219 -0.0019
  842lim     li 7592   0.702   2.941   2.259 -0.7303 -0.3837 -0.1438
  843lim     li 7593   0.679   1.883   6.180  0.6130  1.2005  0.2995
  844lim     li 7594   0.863   3.759   1.987 -0.3901 -0.0086 -0.0434
  845lim     li 7595   5.100   1.379   2.762  0.2272 -0.0076  0.3146
  846lim     li 7596   0.105   0.760   6.749 -0.4099 -0.1741 -0.3397
  847lim     li 7597   5.776   1.682   3.403  0.1229 -0.3226  0.3846
  848lim     li 7598   2.183   1.436   5.994 -0.1942 -0.8767  0.2024
  849lim     li 7599   2.833   0.708   0.958 -0.3904 -0.0713  0.9642
  850lim     li 7600   5.676   3.952   2.878 -0.6986  0.2299  0.2641
  851lim     li 7601   3.783   5.944   6.265 -0.3029  1.0416 -0.0337
  852lim     li 7602   0.061   0.318   0.703 -0.6270 -0.0112  0.6838
  853lim     li 7603   1.677   3.965   6.223  1.0812  0.2881  0.3187
  854lim     li 7604   6.635   3.883   2.199 -0.4265  0.3165  0.8768
  855lim     li 7605   2.453   3.323   1.035 -0.4673  0.2883  0.9981
  856lim     li 7606   3.323   4.113   6.453  0.0198  0.6199  0.1577
  857lim     li 7607   1.194   2.385   3.247 -0.1036  0.0210 -0.5078
  858lim     li 7608   5.487   2.110   0.049 -0.2401 -0.4672  0.7092
  859lim     li 7609   6.188   3.487   3.504 -0.1714 -0.5402 -0.2588
  860lim     li 7610   5.300   0.078   6.234 -0.1284 -0.3430 -0.0898
  861lim     li 7611   0.171   0.849   5.671  0.1505  0.2032 -0.1661
  862lim     li 7612   5.998   6.050   0.201  0.8749 -0.5134 -0.1603
  863lim     li 7613   1.767   6.454   1.441 -0.2697  0.3905  0.0860
  864lim     li 7614   4.574   6.295   0.098 -0.9411  0.5491 -0.8609
  865lim     li 7615   5.552   1.685   2.100  0.4941 -1.8769  0.6413
  866lim     li 7616   3.289   5.725   2.014  0.5828  0.0010 -0.6758
  867lim     li 7617   4.000   1.639   4.990 -0.4961 -0.3030 -1.4800
  868lim     li 7618   2.155   3.344   2.065  0.2838  0.9078  0.5196
  869lim     li 7619   2.399   5.825   0.273 -0.3972 -0.0963  0.3549
  870lim     li 7620   0.699   4.105   0.852  0.4070  0.3615 -0.5891
  871lim     li 7621   5.386   0.444   4.549  0.1316 -0.5118  0.1976
  872lim     li 7622   5.027   4.009   5.742 -0.2281 -0.0945  0.5795
  873lim     li 7623   4.826   2.056   1.665  0.3836 -0.9715  0.2021
  874lim     li 7624   3.506   3.966   1.816  0.5129 -0.9344  0.9129
  875lim     li 7625   0.202   6.176   6.606  0.0564  0.6672  0.9004
  876lim     li 7626   4.609   1.781   0.083  0.6495  0.3643  0.0001
  877lim     li 7627   2.820   4.996   0.157 -0.7670  0.3793 -0.2758
  878lim     li 7628   1.573   4.390   5.332  0.6033 -0.9643 -1.0602
  879lim     li 7629   1.566   4.267   4.252 -0.0663  1.2110  0.1417
  880lim     li 7630   6.831   1.512   5.153  0.0089  0.7219  0.4142
  881lim     li 7631   2.614   4.961   5.562 -0.2222  0.3287 -0.8089
  882lim     li 7632   5.270   5.477   6.703  0.4418 -1.3060 -0.5226
  883lim     li 7633   1.610   3.240   4.062  0.6884  1.5650 -0.5374
  884lim     li 7634   4.927   0.175   1.218 -0.3851 -1.1502  0.1461
  885lim     li 7635   5.912   5.302   1.390  0.7120  0.3704 -0.3189
  886lim     li 7636   1.732   6.570   0.862 -0.3609  0.1151  0.4895
  887lim     li 7637   2.113   0.888   6.360  1.0131  0.0968  0.9917
  888lim     li 7638   2.448   0.791   5.323  0.2013  0.2991  0.0211
  889lim     li 7639   4.075   2.774   5.293  1.1196  0.4286  0.3702
  890lim     li 7640   3.664   6.511   1.915 -0.3302  0.5047  0.5654
  891lim     li 7641   0.904   4.979   0.889 -0.5466 -0.3330 -1.1435
  892lim     li 7642   5.230   1.023   1.543 -1.1895 -0.0759 -0.2319
  893lim     li 7643   4.396   2.763   4.651  0.5282 -1.3343  0.1733
  894lim     li 7644   3.935   5.780   5.140 -0.0260  0.4663 -0.9549
  895lim     li 7645   1.263   3.182   3.174 -0.1717 -0.4686  2.0210
  896lim     li 7646   5.889   4.440   4.672 -0.3338 -0.8506 -1.4364
  897lim     li 7647   2.646   1.371   2.680  1.0106 -0.0211 -0.7022
  898lim     li 7648   3.385   6.402   4.981 -1.5156  0.3646  1.0572
  899lim     li 7649   4.852   2.609   5.728  0.5270 -0.0597  0.4770
  900lim     li 7650   0.323   0.039   6.010  0.7789  0.3359  0.2512
  901lim     li 7651   5.440   6.431   2.833  0.7487  0.2836 -0.7380
  902lim     li 7652   4.472   6.269   3.057  0.0876 -1.0316 -1.9256
  903lim     li 7653   2.090   0.022   2.348  0.4819 -0.1822  0.1458
  904lim     li 7654   0.670   0.643   2.483 -0.4297 -0.1109  0.0973
  905lim     li 7655   0.736   5.294   6.748  0.3731  0.5497  0.3893
  906lim     li 7656   6.348   4.125   0.111  0.5944  0.0851  0.2083
  907lim     li 7657   2.877   0.236   6.693 -1.0053 -0.2931  0.4371
  908lim     li 7658   3.095   2.151   0.589 -0.2672  0.5655  0.5307
  909lim     li 7659   4.964   3.659   1.352 -1.2401  0.5632 -0.2444
  910lim     li 7660   6.838   4.858   1.461  0.1889 -0.0262  0.4703
  911lim     li 7661   3.218   3.352   5.726 -1.0105  0.4462  0.9960
  912lim     li 7662   2.741   3.764   6.440  0.1090  0.5095 -0.3544
  913lim     li 7663   3.348   1.563   3.294  0.2744  0.0507  0.0303
  914lim     li 7664   0.849   3.926   3.493 -0.2986  0.4042 -0.4807
  915lim     li 7665   6.663   1.950   0.972 -0.4021  0.2007  1.2462
  916lim     li 7666   4.164   5.132   0.903  0.9650  0.0015 -0.7034
  917lim     li 7667   6.285   5.529   6.355  0.6113  0.9751 -1.0466
  918lim     li 7668   4.239   5.691   3.825 -0.9499 -0.2815  0.5672
  919lim     li 7669   2.885   1.785   4.448 -0.3270 -0.5997 -0.4277
  920lim     li 7670   6.209   6.483   5.783  0.2335 -0.7531 -0.5794
  921lim     li 7671   4.061   2.243   1.963  0.4817 -0.8668  1.0199
  922lim     li 7672   2.131   5.212   1.598  0.8354 -0.6788  0.1832
  923lim     li 7673   0.922   5.706   3.895 -0.0792  0.4601  0.0257
  924lim     li 7674   5.783   5.642   5.291 -0.6745 -0.5956  0.4287
  925lim     li 7675   5.793   4.052   1.794 -0.3391 -0.6644 -0.7962
  926lim     li 7676   3.075   0.623   4.371  0.7039 -0.7033 -0.7686
  927lim     li 7677   5.655   5.366   3.262 -1.4161 -0.5694 -0.8475
  928lim     li 7678   6.073   4.510   2.898 -0.4175  0.4351  0.1271
  929lim     li 7679   4.359   0.846   3.505  0.0977 -0.7901  0.1569
  930lim     li 7680   5.164   5.277   1.673  0.6474 -0.2386  0.9842
  931lim     li 7681   2.611   2.343   2.975 -0.3479 -0.1003  0.4829
  932lim     li 7682   5.051   6.034   3.549  0.1251 -0.8122 -0.1914
  933lim     li 7683   5.482   3.049   4.895 -1.1760  1.0660  0.2699
  934lim     li 7684   1.583   0.825   2.384  0.7144  0.9458  0.5278
  935lim     li 7685   3.249   0.345   5.973 -0.2558  0.2511 -0.0635
  936lim     li 7686   4.884   2.395   2.688 -0.5450 -0.7562 -0.1063
  937lim     li 7687   1.448   5.196   2.124  0.4926  0.3797  1.3781
  938lim     li 7688   3.512   5.283   5.962  0.2493 -0.0019  0.5358
  939lim     li 7689   1.467   1.550   4.479  0.4222 -1.9783  0.8431
  940lim     li 7690   6.502   0.428   2.556  0.0633  1.4163 -0.1400
  941lim     li 7691   0.791   6.512   1.930  0.3240 -0.6678  0.3708
  942lim     li 7692   0.978   2.331   1.630 -0.1230  0.9413 -0.3372
  943lim     li 7693   6.776   5.900   1.385  0.6899 -0.5914  1.2836
  944lim     li 7694   0.630   4.522   4.450  0.6228  0.2151 -0.3344
  945lim     li 7695   1.615   2.100   0.222 -0.1689  0.5409 -1.1169
  946lim     li 7696   2.555   3.929   3.925 -0.4409 -1.0050  0.6218
  947lim     li 7697   4.495   3.793   0.705  0.3909  1.0417 -0.9404
  948lim     li 7698   3.696   4.889   1.946  0.4869 -0.4984 -1.1411
  949lim     li 7699   2.874   6.289   5.672 -0.2860  0.4319  1.1338
  950lim     li 7700   5.501   5.868   2.214  0.2331  1.3497  0.2818
  951lim     li 7701   6.696   3.299   1.592  0.2579 -0.2518 -0.2909
  952lim     li 7702   1.021   4.631   5.152  1.1046 -1.0765  0.3299
  953lim     li 7703   5.804   2.439   4.241  0.6356 -0.7058 -0.1566
  954lim     li 7704   3.086   5.299   1.491 -1.0804 -0.4766 -0.2871
  955lim     li 7705   1.062   3.244   5.283 -1.5215  1.5938  0.6040
  956lim     li 7706   4.666   1.010   1.304  0.5380 -0.1034  1.0575
  957lim     li 7707   5.188   6.496   5.468  0.0277  0.2752  0.1839
  958lim     li 7708   5.715   0.777   3.186  0.1610  0.0852  0.9675
  959lim     li 7709   2.554   1.908   6.701  1.0835  0.8281  0.2106
  960lim     li 7710   6.217   3.390   2.625 -0.4025  1.0253 -0.4892
  961lim     li 7711   5.568   2.122   6.108 -0.9093 -0.2374  0.3032
  962lim     li 7712   3.839   4.312   4.661  0.3470  0.1745  0.5920
  963lim     li 7713   5.062   1.494   5.531  0.9677  0.0482  0.6094
  964lim     li 7714   3.172   4.006   4.881  1.8183  0.6263 -0.7129
  965lim     li 7715   3.752   2.460   3.853  0.2223 -0.2511 -0.6016
  966lim     li 7716   1.952   2.676   5.091 -0.0729  0.8788  1.2727
  967lim     li 7717   4.351   4.430   2.219 -0.6120 -0.0243  0.2609
  968lim     li 7718   3.412   2.498   2.083 -0.4178  1.0104  0.1366
  969lim     li 7719   4.886   6.012   6.149  0.0899 -0.6138 -0.7112
  970lim     li 7720   1.361   5.577   1.236  0.8630 -0.0811  0.4217
  971lim     li 7721   3.504   0.545   3.685  1.0538  0.1386 -0.3089
  972lim     li 7722   0.601   6.791   4.569  0.3616  0.8522 -0.1899
  973lim     li 7723   6.216   1.326   5.990 -0.9656  0.5363 -0.4459
  974lim     li 7724   2.876   5.472   6.280  0.2933  0.2132 -0.2392
  975lim     li 7725   1.818   2.577   1.619 -0.7355 -0.4912  0.2679
  976lim     li 7726   4.505   5.049   4.763 -1.5138  0.2393 -0.7838
  977lim     li 7727   5.813   4.897   3.804 -0.2391  0.6110 -0.5262
  978lim     li 7728   5.715   3.756   6.423  0.0540  0.9169  0.1363
  979lim     li 7729   5.128   0.238   3.002 -0.6280 -0.0516 -1.0254
  980lim     li 7730   2.018   0.272   4.069  0.0248  0.4133 -0.3078
  981lim     li 7731   4.039   0.013   4.672  0.5447 -0.6039 -0.8969
  982lim     li 7732   1.238   0.414   0.918 -0.5341  0.7527 -0.5880
  983lim     li 7733   6.508   0.436   6.153 -0.2038  0.4583  0.7856
  984lim     li 7734   4.904   0.062   4.654 -1.0020 -0.4894 -0.1179
  985lim     li 7735   5.694   1.718   4.170 -0.0898  0.3856  0.2887
  986lim     li 7736   0.725   0.144   0.199 -0.2024  0.1951 -0.0589
  987lim     li 7737   5.023   2.273   4.989 -0.1579  0.0849  1.2603
  988lim     li 7738   0.512   1.021   0.677 -0.2273  0.3310  0.2144
  989lim     li 7739   5.799   5.583   6.105  0.0688  0.3097 -0.1927
  990lim     li 7740   5.009   2.467   0.635 -0.5373 -0.1165 -1.0739
  991lim     li 7741   3.460   2.449   6.236 -0.2114  0.5853 -0.2940
  992lim     li 7742   4.018   1.138   1.250  0.0961  0.5706 -0.0782
  993lim     li 7743   0.224   2.018   2.123 -0.0879  0.4428  0.1030
  994lim     li 7744   1.769   5.813   6.688  0.5145  0.9534 -0.3157
  995lim     li 7745   1.547   2.261   5.855 -0.7698 -0.3407  0.7729
  996lim     li 7746   2.976   1.225   2.065 -0.7366  1.1078  0.5797
  997lim     li 7747   0.493   0.029   3.373 -0.0855  0.8277  0.2902
  998lim     li 7748   0.687   3.863   4.729 -0.4315 -0.0641 -0.6569
  999lim     li 7749   4.268   5.144   6.323  0.2514 -0.0603 -0.0560
 1000lim     li 7750   3.383   4.494   3.782 -0.5830  0.5637 -0.0746
 1001lim     li 7751   1.137   3.129   6.749  0.8591 -0.2207  0.5457
 1002lim     li 7752   3.838   6.673   3.352  0.6257  0.9081  0.3054
 1003lim     li 7753   4.334   0.980   0.523 -0.7387 -1.0545  0.4105
 1004lim     li 7754   5.833   3.467   1.413 -0.3885 -0.7513 -0.0199
 1005lim     li 7755   0.615   1.187   4.544  1.0995 -0.0956 -0.8558
 1006lim     li 7756   3.984   2.430   1.056 -0.5163  0.3021  0.2283
 1007lim     li 7757   5.727   6.431   5.103  0.2683 -0.0024 -0.8668
 1008lim     li 7758   1.375   3.436   1.856 -0.5849 -0.4378 -0.7322
 1009lim     li 7759   0.341   1.515   1.640  1.4369  0.0760  0.7910
 1010lim     li 7760   5.189   2.927   6.445  0.3785 -0.1700 -1.0492
 1011lim     li 7761   3.470   5.982   3.918  0.0123 -0.4614 -0.5706
 1012lim     li 7762   1.253   2.636   4.692  0.3307 -0.1511 -0.5517
 1013lim     li 7763   6.802   2.463   6.193 -1.2435 -1.1752 -0.2543
 1014lim     li 7764   4.556   0.971   6.251  1.6747  0.0241  0.4845
 1015lim     li 7765   0.238   6.781   2.526 -0.3475 -0.9452  1.0981
 1016lim     li 7766   5.126   3.353   2.525  0.9080 -0.2567  0.6603
 1017lim     li 7767   5.852   6.373   6.358  0.4140 -0.2358  0.0065
 1018lim     li 7768   6.801   3.124   2.758  1.1383 -0.2156  0.0429
 1019lim     li 7769   3.985   5.964   0.447  0.6652  0.6633 -1.0745
 1020lim     li 7770   4.778   1.876   4.193 -0.4681 -0.3013  0.2388
 1021lim     li 7771   1.368   1.517   2.846 -0.7830  0.7297  0.4671
 1022lim     li 7772   1.230   5.374   2.752  0.7626 -0.1260 -0.6550
 1023lim     li 7773   4.642   3.698   6.764  0.1905 -1.3132  0.0017
 1024lim     li 7774   6.212   3.732   5.976  0.5696 -0.3787 -0.1192
 1025lim     li 7775   5.590   2.324   5.265 -0.4624 -0.2690 -0.7863
 1026lim     li 7776   6.176   6.709   4.469 -0.5024 -1.9969 -1.3531
 1027lim     li 7777   2.477   5.772   3.891  0.1744  0.3606  0.8225
 1028lim     li 7778   2.589   0.169   1.799 -0.5720 -0.0175 -1.8671
 1029lim     li 7779   0.339   0.638   4.621 -1.1784 -1.8208  0.5155
 1030lim     li 7780   6.509   5.755   5.641  0.5666  0.6242  0.6916
 1031lim     li 7781   5.174   1.362   0.376  1.0390 -0.1213  0.0230
 1032lim     li 7782   2.634   4.505   4.941 -0.9097 -1.0859  0.1092
 1033lim     li 7783   4.957   4.603   4.389 -0.2244 -0.9544  0.3236
 1034lim     li 7784   5.399   6.698   0.251 -0.5227  0.0171  1.0262
 1035lim     li 7785   1.144   6.453   6.641 -0.4653  0.6303 -0.6368
 1036lim     li 7786   2.634   3.723   0.569 -0.1456 -0.6591  0.4259
 1037lim     li 7787   6.471   5.011   0.116 -0.5890  0.3585  0.6136
 1038lim     li 7788   4.534   2.639   3.593  0.5672 -0.3217  1.1317
 1039lim     li 7789   5.677   0.529   6.813  0.0913 -0.0840 -0.7180
 1040lim     li 7790   2.693   1.640   1.507  0.0867 -0.3329  0.7660
 1041lim     li 7791   6.290   6.816   0.783 -0.5290  0.5778 -0.2787
 1042lim     li 7792   1.595   4.253   2.295 -1.1209  0.1250 -1.5104
 1043lim     li 7793   3.238   5.951   0.839 -0.9662  0.4062 -0.6981
 1044lim     li 7794   6.018   4.612   6.302 -0.5512  0.0293  0.4721
 1045lim     li 7795   1.496   0.605   3.429 -0.3137 -0.0168 -0.5647
 1046lim     li 7796   2.264   1.697   5.089 -0.6907  0.4961  0.3497
 1047lim     li 7797   6.534   3.159   6.472  0.3105 -0.2533  0.6270
 1048lim     li 7798   1.293   1.238   0.154  0.5357  0.4109  0.9496
 1049lim     li 7799   4.861   0.371   6.069 -0.1091  0.5850  0.3887
 1050lim     li 7800   1.478   6.169   2.009  0.4778  1.3893 -0.3615
 1051lim     li 7801   0.784   4.619   1.502 -0.2118 -0.4341  0.0657
 1052lim     li 7802   6.530   1.741   2.944 -0.1922  0.5847  0.2160
 1053lim     li 7803   2.145   0.999   1.721 -0.5910 -0.4578  1.1045
 1054lim     li 7804   2.432   4.979   0.805  0.3302 -0.3521 -0.2227
 1055lim     li 7805   2.692   6.672   3.824 -0.7629 -0.0445 -0.2947
 1056lim     li 7806   6.458   4.059   4.988  0.9852 -0.0103 -0.2496
 1057lim     li 7807   6.543   0.620   3.341  0.6824 -0.4705 -0.7101
 1058lim     li 7808   2.517   3.176   3.726 -0.5043 -0.7275  0.5542
 1059lim     li 7809   2.372   2.526   2.302  1.3919 -0.0305 -0.8502
 1060lim     li 7810   0.426   3.433   6.287  0.1615 -0.6167 -0.5179
 1061lim     li 7811   1.558   1.741   5.347 -0.6073 -0.1021 -1.4447
 1062lim     li 7812   3.877   0.874   6.514 -0.1847  1.3372 -0.0268
 1063lim     li 7813   6.019   5.227   4.418  0.8476  0.4142  0.3028
 1064lim     li 7814   1.035   1.403   1.835 -0.9871  0.2614 -0.0246
 1065lim     li 7815   3.941   1.780   4.184  0.9049 -0.8951  0.5486
 1066lim     li 7816   2.185   4.294   2.767  0.2471 -0.6592 -0.4521
 1067lim     li 7817   6.281   5.034   2.131  0.2847 -1.6507 -0.5332
 1068lim     li 7818   2.779   4.630   1.785  0.0843  0.4807 -0.0201
 1069lim     li 7819   5.525   1.406   5.940 -0.8996 -0.6521 -0.2192
 1070lim     li 7820   6.297   1.327   3.862  1.6537  0.2671  0.3804
 1071lim     li 7821   6.023   1.202   1.271  1.3553 -0.3880  0.8462
 1072lim     li 7822   6.085   1.160   0.262 -0.3724  0.0943  0.6943
 1073lim     li 7823   3.397   6.100   0.043 -0.3595 -1.0607 -0.0978
 1074lim     li 7824   4.030   6.795   0.149 -0.7358 -0.0423  0.4107
 1075lim     li 7825   4.023   2.091   2.712 -0.1550  0.3540 -0.4912
 1076lim     li 7826   2.176   3.905   1.263  0.3488 -0.6912  0.2204
 1077lim     li 7827   6.080   4.724   1.527 -0.8905 -0.6063  0.8235
 1078lim     li 7828   1.662   0.965   0.989  0.3784  0.2473 -0.5855
 1079lim     li 7829   5.450   3.293   4.170  0.1125  1.0588 -0.5795
 1080lim     li 7830   4.535   4.703   0.206 -0.1979 -0.4914  0.5490
 1081lim     li 7831   3.281   6.498   3.093 -0.0609  0.8844  0.0484
 1082lim     li 7832   6.737   4.425   3.338  0.2697 -0.8148 -1.0438
 1083lim     li 7833   4.781   6.223   4.653 -0.1042 -0.3072  0.6025
 1084lim     li 7834   2.513   2.477   5.745 -0.3833 -0.2408 -1.0804
 1085lim     li 7835   1.137   0.381   6.477  0.2840 -0.8465 -0.4485
 1086lim     li 7836   2.386   0.140   4.799 -0.9647 -1.1968 -0.1095
 1087lim     li 7837   5.324   4.917   0.835 -0.9859  0.3543  0.3165
 1088lim     li 7838   5.593   3.939   0.640 -0.5574  0.6885 -0.9338
 1089lim     li 7839   6.113   6.344   1.695 -0.1281  0.2522 -0.1995
 1090lim     li 7840   3.686   6.753   6.117 -0.0298  0.4587  0.0983
 1091lim     li 7841   6.693   4.249   0.548  0.6132  0.1696 -0.1787
 1092lim     li 7842   3.253   0.072   1.399 -0.3499  1.4678 -0.0962
 1093lim     li 7843   3.798   0.737   2.113  0.5178 -0.6988  0.4935
 1094lim     li 7844   6.058   2.733   2.077 -0.2099  0.8401 -0.6502
 1095lim     li 7845   2.008   1.621   0.882 -1.0683  0.1162 -0.8652
 1096lim     li 7846   5.176   4.507   6.724 -0.3511  0.0571  0.0481
 1097lim     li 7847   1.063   5.952   0.515  0.2145  0.4860 -0.6288
 1098lim     li 7848   5.524   2.266   1.761  0.2508 -0.6357 -0.9315
 1099lim     li 7849   3.206   3.963   1.070 -0.1376  0.4535  0.1513
 1100lim     li 7850   5.041   4.235   1.097 -0.5761 -0.9889 -0.5658
 1101lim     li 7851   3.230   1.334   0.658  0.0416 -0.5061  0.6721
 1102lim     li 7852   0.971   6.151   3.181 -0.2925 -0.3828 -0.5103
 1103lim     li 7853   6.410   5.553   3.872 -1.0656 -0.7407 -0.5022
 1104lim     li 7854   2.655   3.210   1.787 -1.0510 -1.1283  0.6948
 1105lim     li 7855   4.062   4.377   6.509  0.7620 -0.2839 -0.3560
 1106lim     li 7856   4.282   0.055   2.215  0.1599  0.4447 -0.4501
 1107lim     li 7857   0.345   5.563   4.200  1.2356  1.1135  0.6036
 1108lim     li 7858   1.209   5.942   4.898  0.3400  0.1299 -0.7416
 1109lim     li 7859   0.474   2.717   6.788  0.4097  1.0997 -0.5595
 1110lim     li 7860   3.507   1.709   1.562 -0.4581  0.8682  0.5383
 1111lim     li 7861   2.841   5.170   2.475 -1.2558 -0.2915  0.0584
 1112lim     li 7862   6.005   2.545   3.500  0.3217  1.6229 -0.1419
 1113lim     li 7863   4.682   0.362   0.271 -0.7891  0.6328  0.5339
 1114lim     li 7864   3.596   3.820   3.288  0.2083 -0.2792 -0.6566
 1115lim     li 7865   5.910   0.591   1.845 -0.0073  0.1953 -0.0361
 1116lim     li 7866   4.254   0.644   4.999 -0.3540  0.5269  1.5319
 1117lim     li 7867   2.083   1.009   2.808  0.1555  1.0245 -1.4448
 1118lim     li 7868   2.138   0.443   1.162  0.5153 -0.4003 -1.1728
 1119lim     li 7869   1.814   5.579   5.598  0.8541  1.3176 -1.2039
 1120lim     li 7870   6.161   1.011   4.573 -0.4793  0.0703  1.2106
 1121lim     li 7871   0.511   0.552   1.571  0.1691  0.4277 -0.3221
 1122lim     li 7872   0.680   0.617   3.710  0.3637 -0.1510  0.6550
 1123lim     li 7873   5.485   6.342   4.021  0.0458 -0.3905 -1.1347
 1124lim     li 7874   1.353   0.789   4.335 -0.8446 -1.2610  0.2156
 1125lim     li 7875   0.806   2.790   5.908  0.4741 -0.5922 -1.3206
 1126lim     li 7876   0.982   5.807   5.721  0.3398  0.1332 -0.1820
 1127lim     li 7877   0.084   5.019   6.030  0.5314  0.1103  0.4600
 1128lim     li 7878   2.251   3.390   3.043  1.2202  0.0997  0.9694
 1129lim     li 7879   0.661   0.936   6.170  0.5563 -0.3771  1.0902
 1130lim     li 7880   3.391   3.199   2.351 -0.8613 -0.6213  0.2152
 1131lim     li 7881   1.991   1.564   3.482  0.7145  2.1812  1.0308
 1132lim     li 7882   1.368   4.440   6.783  0.0979  0.6592  0.3552
 1133lim     li 7883   4.460   1.431   2.197  0.2841  0.1355  0.4991
 1134lim     li 7884   2.293   1.253   4.429 -0.0906 -0.8588 -0.4916
 1135lim     li 7885   0.443   3.287   4.593 -1.4353 -0.0332 -0.8196
 1136lim     li 7886   1.970   6.629   3.179 -0.5644 -1.0598  0.2560
 1137lim     li 7887   0.603   4.461   6.253  0.3646 -0.5997 -0.8700
 1138lim     li 7888   5.338   0.832   3.888  0.5750  1.3155 -0.0823
 1139lim     li 7889   0.804   2.966   3.882 -0.8109 -1.2015  0.6424
 1140lim     li 7890   1.071   3.724   6.006 -0.4406 -0.1077 -0.7542
 1141lim     li 7891   4.981   4.159   2.611 -0.3242 -0.9802 -0.3434
 1142lim     li 7892   2.666   5.537   3.156  0.4014  0.5720 -0.7907
 1143lim     li 7893   3.408   4.792   0.880  0.0466 -1.0310  0.1533
 1144lim     li 7894   0.253   2.727   2.754  0.4721 -0.3219  1.7920
 1145lim     li 7895   1.975   2.581   3.725  0.1923  0.8537 -0.6657
 1146lim     li 7896   2.073   5.888   1.041  1.4760  0.4350  0.3767
 1147lim     li 7897   1.804   0.331   5.536  0.2370  0.5732 -0.1169
 1148lim     li 7898   6.610   1.972   1.740  0.3517  0.5754 -0.4152
 1149lim     li 7899   5.364   3.332   5.494 -1.7102 -0.7556  0.2143
 1150lim     li 7900   4.515   4.546   6.156  0.2321 -0.5698  0.5259
 1151lim     li 7901   6.070   5.781   2.815 -0.1004 -0.0983 -0.0504
 1152lim     li 7902   3.887   3.954   0.331 -0.0262  0.2015 -1.4802
 1153lim     li 7903   4.234   4.521   3.640  1.0225  0.2791 -0.4298
 1154lim     li 7904   4.059   5.519   2.440 -0.3728 -1.0718 -0.5213
 1155lim     li 7905   0.845   2.162   5.162 -0.2255  0.1047 -0.4332
 1156lim     li 7906   2.626   3.993   2.078 -0.4589  1.5441  1.0647
 1157lim     li 7907   4.429   0.188   3.939 -0.4601 -0.3830  0.4260
 1158lim     li 7908   1.082   1.585   3.457 -0.4107  1.5714 -1.0990
 1159lim     li 7909   4.007   4.736   2.896 -0.1246 -0.6955 -0.1027
 1160lim     li 7910   4.960   4.050   3.733  0.4906  0.7348 -0.2278
 1161lim     li 7911   1.136   1.510   1.076  0.3862 -0.5320  0.1217
 1162lim     li 7912   2.980   2.480   4.323 -0.2337 -1.4693 -0.3620
 1163lim     li 7913   1.469   2.266   0.749 -0.2580 -0.9161  0.2343
 1164lim     li 7914   6.478   3.002   5.380  1.4309  0.2028  0.1283
 1165lim     li 7915   5.267   5.444   4.409  0.3132  0.9265  0.6379
 1166lim     li 7916   1.879   3.177   0.278 -0.4049 -0.8399 -0.2974
 1167lim     li 7917   1.230   6.780   5.566 -0.2701  1.3564  0.3375
 1168lim     li 7918   4.223   3.433   6.067  1.5280  0.1098  0.6348
 1169lim     li 7919   3.858   4.751   5.345  0.5953 -0.2153  0.2732
 1170lim     li 7920   4.615   5.330   3.163 -0.2183 -1.2625 -0.6974
 1171lim     li 7921   6.718   2.677   3.574  0.1583  0.6360  0.1657
 1172lim     li 7922   5.087   0.035   3.679  1.3420  0.4455  0.4567
 1173lim     li 7923   3.250   0.720   2.965  0.6213  0.4003 -0.0489
 1174lim     li 7924   2.039   2.400   6.468 -0.4278  0.9987 -0.8236
 1175lim     li 7925   4.594   1.277   4.395  0.4632 -0.8556  0.8218
 1176lim     li 7926   4.783   5.644   5.405 -0.3964 -0.2321 -0.1581
 1177lim     li 7927   1.540   3.203   1.095 -0.2293  0.3546 -0.0110
 1178lim     li 7928   4.978   4.693   3.533  0.7760  0.1623  0.0834
 1179lim     li 7929   4.902   3.262   0.574 -1.6613  0.3433  0.1290
 1180lim     li 7930   0.635   2.923   0.688 -1.5545 -0.7229  1.1609
 1181lim     li 7931   5.713   1.075   6.589  0.3658  0.4391  0.1539
 1182lim     li 7932   5.444   3.131   3.317 -0.7265  0.5578  0.6192
 1183lim     li 7933   0.049   1.085   1.278 -1.6175  0.2178  0.1178
 1184lim     li 7934   2.092   3.890   0.164 -0.3648 -0.3397  1.0160
 1185lim     li 7935   3.990   3.756   2.426  0.7395 -0.6205  0.2277
 1186lim     li 7936   6.754   5.853   3.213  0.4025 -1.0112  1.1862
 1187lim     li 7937   6.593   5.117   5.030 -0.4289  0.0374 -0.1030
 1188lim     li 7938   5.624   3.914   5.028 -0.1323  0.5498 -0.0267
 1189lim     li 7939   6.726   2.011   0.373  0.2972  0.1576  0.5951
 1190lim     li 7940   0.532   3.027   1.358 -0.3770 -0.5119 -0.9434
 1191lim     li 7941   0.582   4.803   3.537  0.0819  0.3525 -0.5534
 1192lim     li 7942   1.639   3.656   4.809  0.4555 -0.1673  0.2587
 1193lim     li 7943   6.241   3.159   0.307  0.8362  0.7113 -0.5817
 1194lim     li 7944   2.335   5.079   4.327  0.5622 -0.0082  0.8081
 1195lim     li 7945   2.602   2.401   1.457 -0.2022  0.1213  0.3568
 1196lim     li 7946   4.773   5.472   0.439 -0.6889  0.9839  0.0539
 1197lim     li 7947   3.242   3.456   3.656  1.2213 -0.9781 -1.0708
 1198lim     li 7948   2.409   4.162   5.537  0.7453  0.0955  0.5103
 1199lim     li 7949   0.564   5.871   6.343 -0.5148 -0.2850  0.9174
 1200lim     li 7950   6.589   6.855   1.888 -0.3476 -0.7425  0.1379
 1201lim     li 7951   6.329   2.105   5.426  0.5282 -0.1882 -1.2898
 1202lim     li 7952   2.707   6.221   2.880  0.5918 -0.0500 -1.7036
 1203lim     li 7953   3.135   2.641   3.444 -0.3923  0.2177  0.0947
 1204lim     li 7954   0.162   2.568   1.584 -0.0589  0.5796 -0.2244
 1205lim     li 7955   4.634   3.496   3.091 -0.0414  0.6530  0.7365
 1206lim     li 7956   4.779   0.644   2.676 -0.0106 -0.7452 -0.2883
 1207lim     li 7957   5.280   5.937   0.798  0.0094  0.8547 -1.4252
 1208lim     li 7958   5.130   5.231   2.531  0.7971  0.3709  0.1579
 1209lim     li 7959   2.245   4.712   6.745  1.0650 -0.5005  1.7256
 1210lim     li 7960   0.667   3.820   0.138  0.5083  0.8370 -0.1540
 1211lim     li 7961   0.134   6.495   4.024 -0.1960 -0.3602 -0.3145
 1212lim     li 7962   4.367   5.294   1.612  0.0830  0.7838  0.1803
 1213lim     li 7963   6.095   1.112   5.234  1.5376 -0.8821 -0.7691
 1214lim     li 7964   2.713   4.663   3.558  0.1287  0.2348  0.0504
 1215lim     li 7965   2.187   0.187   6.189 -0.1123  0.8081 -1.2319
 1216lim     li 7966   0.458   2.208   3.444 -1.4898  0.0636 -1.4987
 1217lim     li 7967   1.562   5.092   6.438  0.0363 -0.4272  0.4455
 1218lim     li 7968   5.286   1.111   4.805 -1.1610  0.1252  0.2262
 1219lim     li 7969   0.034   5.997   4.776 -1.0988  0.1573 -1.0328
 1220lim     li 7970   3.267   3.086   1.335  0.9327 -0.0605 -0.4657
 1221lim     li 7971   4.448   1.797   6.137 -0.4815 -0.2690 -0.1065
 1222lim     li 7972   0.439   4.704   0.287  0.3920  1.3680 -0.0004
 1223lim     li 7973   3.851   3.249   4.236  0.2179  0.1409  1.1563
 1224lim     li 7974   1.822   6.325   6.076 -0.2744 -0.0724  1.1831
 1225lim     li 7975   0.307   4.939   2.226 -0.8299 -1.0809  0.1490
 1226lim     li 7976   6.234   0.261   5.029 -0.1223  0.4862  0.6992
 1227lim     li 7977   3.102   0.742   5.251  0.6204  0.5718  0.3511
 1228lim     li 7978   6.357   6.715   0.239 -0.4130 -0.0860  0.7308
 1229lim     li 7979   0.065   0.053   5.186  0.1724  0.0718 -0.7234
 1230lim     li 7980   3.445   4.490   0.191  0.1414 -0.0678  0.0090
 1231lim     li 7981   0.781   6.698   1.132 -0.4430  1.5768 -0.8052
 1232lim     li 7982   0.224   5.804   0.578 -0.6944  0.9930  0.5135
 1233lim     li 7983   3.155   1.562   5.396  0.5410 -0.2664  0.4224
 1234lim     li 7984   3.508   1.170   4.038 -0.1162  0.2548  0.4492
 1235lim     li 7985   4.379   2.964   6.410 -0.0276  0.0697 -0.6554
 1236lim     li 7986   2.087   1.961   2.364 -0.4895  0.1886  0.4235
 1237lim     li 7987   0.148   3.083   5.613 -0.0967 -0.2595  0.0583
 1238lim     li 7988   3.024   0.253   2.449  1.1538 -0.2147  0.8665
 1239lim     li 7989   5.341   6.359   1.439  0.0268 -1.3124 -0.7123
 1240lim     li 7990   2.388   3.531   5.105 -0.4458 -0.6169  0.6684
 1241lim     li 7991   3.802   6.426   4.344 -0.5352 -1.4948  0.4220
 1242lim     li 7992   0.433   6.512   5.234 -0.3308  0.3873 -0.0720
 1243lim     li 7993   3.374   4.374   2.648 -0.2189  1.3545  0.5855
 1244lim     li 7994   4.167   4.380   1.321  0.5978  0.6966  0.2497
 1245lim     li 7995   3.913   3.305   1.485 -0.6083  0.8950  1.1995
 1246lim     li 7996   5.760   4.931   0.406 -0.4789  0.5824  1.0481
 1247lim     li 7997   1.366   6.820   4.659  0.3769  0.3483  0.0768
 1248lim     li 7998   1.112   2.245   4.088  0.0819 -1.1744  0.3643
 1249lim     li 7999   2.431   2.495   0.805 -0.4887 -0.4899 -0.3439
 1250lim     li 8000   5.432   2.023   3.397 -0.1944  0.2848 -1.3029
 1251lim     li 8001   2.655   6.145   6.233  1.2464  0.0214 -0.4157
 1252lim     li 8002   4.274   6.261   6.063 -0.4729  0.4123 -0.7263
 1253lim     li 8003   0.179   1.148   2.554  0.4542  0.7003  0.3833
 1254lim     li 8004   2.928   5.726   4.859  0.6480  0.6760 -1.2490
 1255lim     li 8005   5.260   2.881   1.871 -0.2442  0.1033 -0.4962
 1256lim     li 8006   2.933   3.050   4.541  0.3239  1.6319 -1.1230
 1257lim     li 8007   2.075   5.125   2.746 -0.1138  0.9080 -0.3321
 1258lim     li 8008   4.860   3.507   4.830  1.0300 -0.7193 -1.1231
 1259lim     li 8009   0.124   1.359   6.836  0.0834  0.1888 -0.0097
 1260lim     li 8010   4.293   1.772   0.946  0.1470  0.4462 -0.1619
 1261lim     li 8011   2.688   1.258   3.822  0.7153 -0.1841  0.1318
 1262lim     li 8012   3.097   3.166   2.847 -0.7679  0.3119 -0.9466
 1263lim     li 8013   4.076   6.759   1.295 -0.2930 -0.1877 -0.8729
 1264lim     li 8014   0.236   4.067   1.492  0.5183 -0.8205  0.3728
 1265lim     li 8015   3.732   6.378   2.518  0.0073 -0.2316 -0.1461
 1266lim     li 8016   2.348   3.120   6.081  0.3781  0.1687  0.0820
 1267lim     li 8017   4.006   1.135   2.829  0.0496  0.5414 -1.3925
 1268lim     li 8018   1.901   5.953   3.237  0.0390  0.2985 -1.0611
 1269lim     li 8019   4.905   2.749   4.055  0.4655 -0.6336  0.9394
 1270lim     li 8020   1.477   4.170   0.619 -0.5717 -0.2182 -0.0888
 1271lim     li 8021   3.597   5.416   0.379  0.8501  0.0924  0.4259
 1272lim     li 8022   3.314   1.985   2.864 -0.2404  2.2564  1.0113
 1273lim     li 8023   6.845   3.388   0.625 -0.1470 -0.3596  0.5904
 1274lim     li 8024   6.668   0.257   4.159 -1.3926 -0.0417 -0.0563
 1275lim     li 8025   1.339   4.507   3.194  1.3827 -0.9390 -0.7401
 1276lim     li 8026   3.380   5.461   3.103  1.3517 -0.1938 -1.6438
 1277lim     li 8027   5.067   4.842   5.627 -0.6835  0.1801 -0.2787
 1278lim     li 8028   6.530   6.684   3.267  0.6024 -0.0460 -0.4176
 1279lim     li 8029   3.068   5.014   4.335  0.0078 -0.0383  1.2373
 1280lim     li 8030   0.475   5.462   3.011 -0.3718  0.0305  0.8160
 1281lim     li 8031   5.765   4.796   5.527  0.3074  0.8328  0.3532
 1282lim     li 8032   5.804   6.828   2.469  0.1543  0.3171  0.1163
 1283lim     li 8033   0.529   4.129   2.677 -0.0725 -0.8754  0.2559
 1284lim     li 8034   1.350   0.382   1.826  0.9074 -0.3943  0.3888
 1285lim     li 8035   5.735   4.204   3.744  0.0379  1.1244 -0.4818
 1286lim     li 8036   6.393   2.191   4.316 -0.0230  0.4929  0.1730
 1287lim     li 8037   0.773   1.769   2.675  1.0801 -0.1995 -0.4026
 1288lim     li 8038   0.546   5.711   1.946 -0.5787  0.6672 -0.7013
 1289lim     li 8039   0.098   3.350   3.782  0.5211 -1.0839  0.5313
 1290lim     li 8040   0.620   5.254   5.043  0.0871  0.1611 -0.0814
 1291lim     li 8041   0.421   2.106   4.413  1.6492 -0.1997  1.5748
 1292lim     li 8042   3.841   5.292   4.555  0.2052  0.0854 -0.1090
 1293lim     li 8043   1.713   3.703   3.416 -0.3312 -1.0629  0.1097
 1294lim     li 8044   3.791   2.770   2.847  1.0125  0.0038  0.5296
 1295lim     li 8045   4.242   3.808   4.445 -0.2271  0.6405 -0.5382
 1296lim     li 8046   3.050   2.874   6.795  0.1262 -0.2287 -0.4238
 1297lim     li 8047   5.099   0.651   5.256 -0.7195  0.5134 -0.4956
 1298lim     li 8048   6.256   5.930   3.880  0.2572 -0.0623 -1.4795
 1299lim     li 8049   2.816   4.046   3.020 -0.2902 -1.3037 -0.1226
 1300lim     li 8050   0.280   1.252   3.222  0.2426 -0.3189  0.4558
 1301lim     li 8051   6.059   2.656   6.021  1.5826 -0.2196 -0.2343
 1302lim     li 8052   1.799   5.175   0.575 -1.2225 -0.1079 -0.6647
 1303lim     li 8053   1.523   0.809   5.251  0.6051  0.8149 -1.0894
 1304lim     li 8054   1.514   6.432   0.245  0.1025 -0.0658  1.0631
 1305lim     li 8055   6.284   1.252   2.096 -0.5279 -0.6263  0.4159
 1306lim     li 8056   1.309   2.464   2.596 -0.2653  0.6532 -0.7748
 1307lim     li 8057   4.682   6.219   1.923 -0.4020  1.3904  0.4104
 1308lim     li 8058   6.629   4.958   4.131  0.1630  0.3599 -1.1159
 1309lim     li 8059   0.504   2.138   0.726 -0.7922  0.8035 -0.4073
 1310lim     li 8060   4.461   2.994   2.210 -1.1781  1.2239  0.7785
 1311lim     li 8061   5.727   2.198   1.039  0.8769  0.6546  1.0839
 1312lim     li 8062   3.119   6.710   4.285 -0.9670 -0.5211  0.0231
 1313lim     li 8063   5.463   3.161   0.179  0.1913  0.5619 -0.4065
 1314lim     li 8064   5.530   4.744   2.261  0.1359 -0.2095 -0.5759
 1315lim     li 8065   0.067   6.491   1.295  0.6774  0.3665 -0.1258
 1316lim     li 8066   3.778   2.137   0.249 -1.0975 -0.3215  0.4880
 1317lim     li 8067   2.184   2.146   4.228  0.8317  1.4562  0.4574
 1318lim     li 8068   6.387   2.342   2.746  0.1085 -0.1220  0.5701
 1319lim     li 8069   1.463   5.215   3.836 -0.1051  0.1215 -0.0410
 1320lim     li 8070   1.862   6.042   4.260  0.4383  0.3118  0.0816
 1321lim     li 8071   0.485   4.081   5.409  0.0242  1.8215  0.3804
 1322lim     li 8072   4.304   3.681   1.865  0.4107  0.4378 -0.8158
 1323lim     li 8073   6.590   2.462   4.770  0.6084 -0.1877 -0.8311
 1324lim     li 8074   0.060   1.701   5.952 -0.9606 -0.2909 -0.3440
 1325lim     li 8075   1.364   1.167   6.130 -1.1718 -0.9895 -0.6813
 1326lim     li 8076   6.702   5.883   2.376 -0.3627  0.9445  0.4134
 1327lim     li 8077   1.209   1.943   6.430  0.5064  0.5226  1.3606
 1328lim     li 8078   2.965   1.967   6.102  0.9224 -0.8705  0.1826
 1329lim     li 8079   3.052   1.137   6.273  0.4065 -0.0637 -1.0132
 1330lim     li 8080   5.849   0.527   5.846  0.4920 -0.0298  0.4599
 1331lim     li 8081   3.825   0.451   0.913  0.5182  1.1597  0.3460
 1332lim     li 8082   3.996   3.400   3.470  0.0578 -0.4165 -0.4058
 1333lim     li 8083   6.495   5.399   0.822 -0.3814  1.0049  0.8022
 1334lim     li 8084   2.136   5.860   2.208 -0.7188 -0.7646  0.9283
 1335lim     li 8085   6.262   3.356   4.305 -0.5365  0.0347 -0.2754
 1336lim     li 8086   1.765   1.780   1.928  0.9842 -0.7060 -0.0160
 1337lim     li 8087   6.585   3.247   4.877  0.1856  1.1751 -0.2615
 1338lim     li 8088   2.501   0.537   3.424 -0.1809  0.8471  0.0436
 1339lim     li 8089   3.515   3.133   0.250  0.2343 -0.5608  0.3945
 1340lim     li 8090   1.001   4.575   2.406  0.0116 -0.7513  0.4086
 1341lim     li 8091   2.714   6.621   0.586  0.2590 -0.6499  0.6272
 1342lim     li 8092   1.768   5.034   4.706  0.2913 -0.4339  0.6785
 1343lim     li 8093   3.542   1.201   4.767  0.7299  0.4865 -0.2315
 1344lim     li 8094   3.786   4.988   3.979  0.5236 -0.5365 -0.0173
 1345lim     li 8095   4.445   6.114   1.147 -0.9457 -0.6382  0.2372
 1346lim     li 8096   6.288   4.032   1.171 -1.2597 -0.3804  1.0607
 1347lim     li 8097   1.092   5.041   5.835 -0.2671  1.5317  0.0152
 1348lim     li 8098   2.012   4.740   3.645  0.5095  0.3395  0.2242
 1349lim     li 8099   4.164   2.661   0.244 -1.2425  0.0009  0.7383
 1350lim     li 8100   6.149   2.168   6.819 -0.0955 -0.1545  0.4263
 1351ntf    cn1 8101   5.719   1.217   0.850 -0.2194  0.1956  0.3652
 1351ntf    sn2 8102   5.606   1.114   0.949 -0.0586  0.0490  0.3965
 1351ntf    nn3 8103   5.707   1.085   1.065  0.2694  0.0779  0.1191
 1351ntf    sn2 8104   5.701   1.089   1.222  0.2497 -0.0432  0.1218
 1351ntf    cn1 8105   5.664   0.918   1.269 -0.0351  0.0673  0.3039
 1351ntf    fn4 8106   5.813   1.144   0.792  0.1669 -0.0099  1.2335
 1351ntf    fn4 8107   5.653   1.282   0.755 -0.0375  0.4227  0.3936
 1351ntf    fn4 8108   5.782   1.305   0.926 -0.0661  0.2977  0.1216
 1351ntf    on5 8109   5.492   1.198   0.977  0.0206  0.3195 -0.0692
 1351ntf    on5 8110   5.584   1.005   0.857  0.2579  0.3879 -0.0832
 1351ntf    on5 8111   5.589   1.164   1.274  0.1426 -0.0147 -0.1481
 1351ntf    on5 8112   5.833   1.119   1.272  0.2416 -0.0024  0.1192
 1351ntf    fn4 8113   5.543   0.882   1.229  0.1021 -0.2193  0.1399
 1351ntf    fn4 8114   5.753   0.834   1.218 -0.1016  0.1020  0.1273
 1351ntf    fn4 8115   5.655   0.892   1.398  0.2584 -0.2491  0.2633
 1352ntf    cn1 8116   3.640   3.825   4.123  0.2535 -0.0706  0.5187
 1352ntf    sn2 8117   3.692   3.831   3.948 -0.1577 -0.2161  0.3905
 1352ntf    nn3 8118   3.842   3.866   3.977 -0.0224 -0.2425 -0.2710
 1352ntf    sn2 8119   3.927   3.995   3.948 -0.2998  0.0164  0.0542
 1352ntf    cn1 8120   4.034   3.940   3.812 -0.0203  0.2376  0.1820
 1352ntf    fn4 8121   3.603   3.945   4.164  0.1418  0.0012  0.2109
 1352ntf    fn4 8122   3.533   3.751   4.146  0.0524  0.1836  0.4073
 1352ntf    fn4 8123   3.733   3.780   4.205  0.8588 -0.3040 -0.2787
 1352ntf    on5 8124   3.675   3.691   3.917 -0.4781 -0.0714 -0.0902
 1352ntf    on5 8125   3.614   3.929   3.877  0.2530 -0.2446 -0.1021
 1352ntf    on5 8126   4.025   4.028   4.049 -0.5471 -0.2088  0.3678
 1352ntf    on5 8127   3.875   4.111   3.880  0.4002  0.3485  0.0690
 1352ntf    fn4 8128   3.968   3.887   3.709 -0.3923  0.5202  0.2756
 1352ntf    fn4 8129   4.115   4.033   3.763 -0.2927  0.3963  0.0304
 1352ntf    fn4 8130   4.107   3.842   3.864  0.2200  0.1448 -0.3212
 1353ntf    cn1 8131   3.125   4.141   5.474 -0.3347 -0.3054  0.3658
 1353ntf    sn2 8132   2.997   4.228   5.378 -0.0258 -0.3769 -0.1141
 1353ntf    nn3 8133   2.862   4.203   5.453  0.1206 -0.6998  0.0431
 1353ntf    sn2 8134   2.730   4.130   5.409 -0.2027 -0.1219  0.0510
 1353ntf    cn1 8135   2.753   3.950   5.413  0.0833 -0.0877 -0.0194
 1353ntf    fn4 8136   3.096   4.012   5.474 -0.1144 -0.3547  0.3799
 1353ntf    fn4 8137   3.247   4.160   5.425 -0.3860 -0.2347  0.2628
 1353ntf    fn4 8138   3.129   4.184   5.599  0.2349  0.2407  0.1655
 1353ntf    on5 8139   3.038   4.367   5.377  0.4019 -0.4999  0.0589
 1353ntf    on5 8140   3.007   4.159   5.251  0.3974  0.3437 -0.4804
 1353ntf    on5 8141   2.697   4.156   5.271 -0.4745  0.3513  0.2034
 1353ntf    on5 8142   2.621   4.157   5.499 -0.2106  0.1735 -0.0444
 1353ntf    fn4 8143   2.872   3.908   5.373  0.3212  0.2227  0.3514
 1353ntf    fn4 8144   2.745   3.905   5.537  0.0079  0.1888  0.0767
 1353ntf    fn4 8145   2.661   3.877   5.353  0.3621  0.0530 -0.6250
 1354ntf    cn1 8146   3.769   6.343   6.459 -0.2173 -0.5962 -0.1333
 1354ntf    sn2 8147   3.938   6.354   6.392 -0.0891 -0.7531  0.1609
 1354ntf    nn3 8148   3.907   6.351   6.238 -0.4494 -0.3108  0.2228
 1354ntf    sn2 8149   3.923   6.230   6.140 -0.0546 -0.0008 -0.1002
 1354ntf    cn1 8150   3.835   6.291   5.994  0.1163  0.2991 -0.0803
 1354ntf    fn4 8151   3.768   6.340   6.592 -0.5943 -0.1979 -0.1236
 1354ntf    fn4 8152   3.694   6.442   6.414  0.6644  0.0879 -0.1455
 1354ntf    fn4 8153   3.716   6.234   6.408  0.5088 -0.8707 -0.3151
 1354ntf    on5 8154   3.988   6.485   6.427 -0.6907 -0.3999 -0.2717
 1354ntf    on5 8155   4.009   6.242   6.449  0.3746 -0.2732  0.5325
 1354ntf    on5 8156   3.852   6.112   6.181 -0.2603  0.2580  0.2955
 1354ntf    on5 8157   4.060   6.211   6.097  0.0241  0.0825  0.1099
 1354ntf    fn4 8158   3.877   6.234   5.882 -0.0757 -0.4131  0.1991
 1354ntf    fn4 8159   3.703   6.277   5.996  0.1907 -0.4717 -0.1288
 1354ntf    fn4 8160   3.857   6.421   5.989  0.0942  0.2820 -0.7751
 1355ntf    cn1 8161   0.952   2.621   2.667  0.2387 -0.0897 -0.3183
 1355ntf    sn2 8162   1.018   2.493   2.778  0.1685  0.2703  0.1394
 1355ntf    nn3 8163   0.994   2.564   2.916  0.4907 -0.0862  0.3804
 1355ntf    sn2 8164   0.914   2.519   3.044  0.1344 -0.3708  0.0616
 1355ntf    cn1 8165   0.808   2.664   3.072  0.0501 -0.5214  0.5305
 1355ntf    fn4 8166   0.976   2.746   2.702 -0.2051 -0.0551 -0.1292
 1355ntf    fn4 8167   1.007   2.612   2.547  0.2742 -0.5735 -0.2702
 1355ntf    fn4 8168   0.821   2.605   2.662  0.2022  0.0585  0.1444
 1355ntf    on5 8169   0.946   2.371   2.752  0.0675  0.2777  0.3799
 1355ntf    on5 8170   1.159   2.491   2.748  0.2616  0.8933  0.5177
 1355ntf    on5 8171   1.006   2.511   3.155 -0.4640 -0.8449  0.5287
 1355ntf    on5 8172   0.813   2.418   3.030 -0.3767  0.2695 -0.9457
 1355ntf    fn4 8173   0.732   2.693   2.967  1.1125  0.1947 -0.0660
 1355ntf    fn4 8174   0.727   2.653   3.176 -0.6862 -1.0172 -0.0808
 1355ntf    fn4 8175   0.879   2.773   3.096  0.0219 -0.2197 -0.7022
 1356ntf    cn1 8176   6.629   3.304   3.108 -0.0423 -0.1542 -0.0335
 1356ntf    sn2 8177   6.643   3.128   3.065  0.0593 -0.0819 -0.2992
 1356ntf    nn3 8178   6.498   3.075   3.092  0.0097  0.3402  0.2804
 1356ntf    sn2 8179   6.377   3.077   2.992  0.0240 -0.2747  0.2482
 1356ntf    cn1 8180   6.338   2.899   2.996 -0.5953 -0.1452  0.1705
 1356ntf    fn4 8181   6.735   3.371   3.063  0.0665 -0.2366  0.0989
 1356ntf    fn4 8182   6.517   3.356   3.060 -0.1379 -0.0019  0.3552
 1356ntf    fn4 8183   6.628   3.323   3.238 -0.1971 -0.4869  0.0143
 1356ntf    on5 8184   6.687   3.130   2.927 -0.0049  0.2315 -0.3174
 1356ntf    on5 8185   6.730   3.075   3.167 -0.3912 -0.0587  0.0990
 1356ntf    on5 8186   6.401   3.111   2.854  0.1047  0.5020  0.4495
 1356ntf    on5 8187   6.256   3.127   3.052  0.1418  0.2132  0.0812
 1356ntf    fn4 8188   6.334   2.854   3.121  0.6297 -0.0064  0.2721
 1356ntf    fn4 8189   6.221   2.873   2.941 -0.4346  0.2921 -0.3926
 1356ntf    fn4 8190   6.427   2.830   2.926 -0.4238  0.2998 -0.0532
 1357ntf    cn1 8191   3.775   4.279   6.035 -0.4915 -0.1674 -0.0496
 1357ntf    sn2 8192   3.662   4.340   5.906 -0.0854 -0.1272 -0.3848
 1357ntf    nn3 8193   3.652   4.214   5.813  0.6694 -0.3622 -0.1549
 1357ntf    sn2 8194   3.541   4.104   5.820  0.0624  0.2594  0.0591
 1357ntf    cn1 8195   3.423   4.172   5.699  0.1191  0.2954  0.0249
 1357ntf    fn4 8196   3.757   4.338   6.153  0.1844 -0.0494 -0.0048
 1357ntf    fn4 8197   3.753   4.153   6.070 -0.0574 -0.1652  0.2386
 1357ntf    fn4 8198   3.903   4.285   6.004 -0.3700 -0.1476  0.4393
 1357ntf    on5 8199   3.541   4.377   5.974  0.2674 -0.3054  0.3576
 1357ntf    on5 8200   3.733   4.452   5.848 -0.6632  0.2640 -0.3450
 1357ntf    on5 8201   3.463   4.083   5.939  0.4144  0.0349  0.2519
 1357ntf    on5 8202   3.602   3.988   5.760 -0.1450 -0.3450  0.9900
 1357ntf    fn4 8203   3.326   4.096   5.652  0.0458  0.1687  0.3750
 1357ntf    fn4 8204   3.358   4.277   5.746 -0.2320 -0.2440  0.7669
 1357ntf    fn4 8205   3.495   4.210   5.595 -0.1155 -0.7751 -0.5415
 1358ntf    cn1 8206   6.100   0.771   6.820  0.0784  0.5334  0.2920
 1358ntf    sn2 8207   5.970   0.761   6.947  0.0110 -0.0148  0.1827
 1358ntf    nn3 8208   5.870   0.873   6.901  0.3241  0.1198 -0.1773
 1358ntf    sn2 8209   5.717   0.863   6.866  0.1765  0.1286  0.4557
 1358ntf    cn1 8210   5.641   0.889   7.029 -0.0125  0.0636  0.3778
 1358ntf    fn4 8211   6.210   0.733   6.883  0.1117  0.6711  0.3187
 1358ntf    fn4 8212   6.092   0.696   6.712  0.1526  0.3580  0.4071
 1358ntf    fn4 8213   6.132   0.891   6.773 -0.4424  0.6315  0.1811
 1358ntf    on5 8214   5.929   0.623   6.946 -0.2634  0.0655  0.2800
 1358ntf    on5 8215   6.051   0.802   7.060  0.1879 -0.2160  0.1287
 1358ntf    on5 8216   5.671   0.733   6.825  0.6147  0.1125  0.0044
 1358ntf    on5 8217   5.670   0.975   6.788  0.8012  0.0126 -0.0934
 1358ntf    fn4 8218   5.673   0.794   7.116 -0.0331  0.0890  0.4134
 1358ntf    fn4 8219   5.666   1.001   7.095 -0.0687 -0.0913  0.6624
 1358ntf    fn4 8220   5.509   0.881   7.026 -0.0148  0.2015 -0.0113
 1359ntf    cn1 8221   3.393   1.756   2.257  0.0203 -0.1066  0.0102
 1359ntf    sn2 8222   3.561   1.824   2.238 -0.1459  0.2081 -0.3579
 1359ntf    nn3 8223   3.632   1.716   2.328 -0.0707  0.4780 -0.0936
 1359ntf    sn2 8224   3.780   1.664   2.339 -0.3523 -0.3377 -0.1177
 1359ntf    cn1 8225   3.756   1.508   2.248 -0.2096 -0.2138 -0.3681
 1359ntf    fn4 8226   3.347   1.764   2.380 -0.1457 -0.0004 -0.0582
 1359ntf    fn4 8227   3.308   1.839   2.199  0.1296  0.0993  0.1463
 1359ntf    fn4 8228   3.375   1.632   2.213 -0.0527 -0.0420 -0.1420
 1359ntf    on5 8229   3.591   1.814   2.098 -0.0421 -0.7774 -0.2784
 1359ntf    on5 8230   3.543   1.956   2.293 -0.0409  0.2361 -0.3914
 1359ntf    on5 8231   3.831   1.628   2.469  0.7953  0.1007 -0.4337
 1359ntf    on5 8232   3.879   1.736   2.264  0.6889 -1.2419  0.3659
 1359ntf    fn4 8233   3.698   1.420   2.328 -0.3222  0.0803 -0.1217
 1359ntf    fn4 8234   3.679   1.519   2.141  0.2967 -0.4097 -0.7536
 1359ntf    fn4 8235   3.870   1.453   2.209  0.2478  0.5632 -0.1571
 1360ntf    cn1 8236   3.023   3.874   0.340  0.2132  0.1623 -0.2424
 1360ntf    sn2 8237   3.132   3.747   0.412 -0.1746  0.1699  0.3659
 1360ntf    nn3 8238   3.171   3.672   0.280 -0.0054 -0.1645  0.6055
 1360ntf    sn2 8239   3.118   3.534   0.227 -0.0641  0.2447 -0.4435
 1360ntf    cn1 8240   3.158   3.558   0.052 -0.3015  0.3058 -0.4896
 1360ntf    fn4 8241   2.906   3.828   0.299 -0.0360  0.4111  0.1876
 1360ntf    fn4 8242   2.986   3.963   0.431  0.0651 -0.0042 -0.1404
 1360ntf    fn4 8243   3.082   3.944   0.244 -0.1863  0.6314 -0.1493
 1360ntf    on5 8244   3.237   3.829   0.466  0.3849 -0.6704  0.5684
 1360ntf    on5 8245   3.051   3.677   0.508  0.1898  0.1635  0.6715
 1360ntf    on5 8246   2.975   3.523   0.213 -0.0616 -0.5647  0.0602
 1360ntf    on5 8247   3.197   3.422   0.273 -0.0234  0.4019 -0.1245
 1360ntf    fn4 8248   3.094   3.666   0.010 -0.3563  0.4284 -0.0982
 1360ntf    fn4 8249   3.288   3.580   0.040 -0.1611 -0.1724  0.1211
 1360ntf    fn4 8250   3.120   3.457  -0.024 -0.1029 -0.1590  0.0267
 1361ntf    cn1 8251   5.329   0.564   6.101  0.1866  0.7795 -0.2003
 1361ntf    sn2 8252   5.241   0.612   6.252  0.2150  0.0260  0.0618
 1361ntf    nn3 8253   5.225   0.467   6.309  0.3707  0.2886  0.7889
 1361ntf    sn2 8254   5.110   0.360   6.302 -0.0955  0.8344 -0.0254
 1361ntf    cn1 8255   5.038   0.368   6.469 -0.3835  0.5270 -0.1326
 1361ntf    fn4 8256   5.442   0.499   6.125 -0.0946  0.0937 -0.7042
 1361ntf    fn4 8257   5.251   0.499   6.016  0.3624  0.1576  0.1006
 1361ntf    fn4 8258   5.377   0.665   6.030  0.7646  0.6162 -0.0522
 1361ntf    on5 8259   5.330   0.701   6.323  0.0082  0.2667  0.0189
 1361ntf    on5 8260   5.123   0.669   6.194  0.2240  0.1577  0.1713
 1361ntf    on5 8261   5.156   0.225   6.283 -0.4437  0.6641  0.3273
 1361ntf    on5 8262   5.003   0.394   6.212 -0.0169  0.3766 -0.2944
 1361ntf    fn4 8263   4.947   0.274   6.480 -0.1352  0.2659 -0.2887
 1361ntf    fn4 8264   5.133   0.356   6.561 -0.3968  0.1981 -0.1606
 1361ntf    fn4 8265   4.988   0.490   6.483  0.8228  0.9865  0.3181
 1362ntf    cn1 8266   4.707   6.229   5.802 -0.4614 -0.0758 -0.0398
 1362ntf    sn2 8267   4.711   6.258   5.982  0.2083  0.1660 -0.0901
 1362ntf    nn3 8268   4.825   6.363   6.007  0.4562  0.0107 -0.5487
 1362ntf    sn2 8269   4.816   6.520   6.015  0.2404 -0.0181 -0.1904
 1362ntf    cn1 8270   4.791   6.558   6.191  0.3817 -0.3433 -0.0990
 1362ntf    fn4 8271   4.648   6.329   5.738 -0.7622  0.0676  0.4542
 1362ntf    fn4 8272   4.822   6.215   5.739 -0.4866 -0.3874 -0.0156
 1362ntf    fn4 8273   4.647   6.120   5.759 -0.6857  0.1656 -0.3421
 1362ntf    on5 8274   4.578   6.293   6.024 -0.2634 -1.1780 -0.4153
 1362ntf    on5 8275   4.756   6.126   6.020 -0.1007  0.0100 -0.2624
 1362ntf    on5 8276   4.702   6.583   5.955  0.1999  0.1497  0.0595
 1362ntf    on5 8277   4.947   6.575   5.989 -0.1090  1.0229  0.2039
 1362ntf    fn4 8278   4.687   6.495   6.242  0.3791  0.2389  0.6226
 1362ntf    fn4 8279   4.888   6.523   6.274  0.1242  0.4421  0.5417
 1362ntf    fn4 8280   4.757   6.683   6.216  0.6757 -0.2370 -0.2200
 1363ntf    cn1 8281   5.705   4.373   0.017  0.0293  0.4777  0.2363
 1363ntf    sn2 8282   5.669   4.211  -0.058 -0.2440  0.4771  0.3696
 1363ntf    nn3 8283   5.513   4.211  -0.074 -0.2014  0.4120 -0.0493
 1363ntf    sn2 8284   5.419   4.131  -0.172  0.2199 -0.2193  0.0586
 1363ntf    cn1 8285   5.323   4.053  -0.039  0.0564 -0.1457 -0.0165
 1363ntf    fn4 8286   5.664   4.466  -0.068 -0.6732 -0.6623 -0.7088
 1363ntf    fn4 8287   5.647   4.397   0.134  0.0068 -0.3281  0.3937
 1363ntf    fn4 8288   5.835   4.390   0.037  0.0640  0.6022 -0.0909
 1363ntf    on5 8289   5.746   4.213  -0.180 -0.2149  0.0883  0.3815
 1363ntf    on5 8290   5.710   4.119   0.045 -0.1604  0.4579  0.3189
 1363ntf    on5 8291   5.487   4.018  -0.230  0.0094 -0.2334 -0.1603
 1363ntf    on5 8292   5.338   4.226  -0.243  0.4556 -0.3440 -0.3826
 1363ntf    fn4 8293   5.223   3.979  -0.083 -0.5914  0.2707  0.7234
 1363ntf    fn4 8294   5.393   3.974   0.041 -0.2641  0.1816  0.5979
 1363ntf    fn4 8295   5.269   4.147   0.038  0.3301  0.0572 -0.0701
 1364ntf    cn1 8296   6.851   2.952   1.265  0.1392  0.2449 -0.2786
 1364ntf    sn2 8297   6.856   3.005   1.439 -0.1367  0.0132 -0.1993
 1364ntf    nn3 8298   7.010   2.999   1.466 -0.3665 -0.1336  1.1410
 1364ntf    sn2 8299   7.097   2.880   1.521  0.4112 -0.0495  0.1114
 1364ntf    cn1 8300   7.115   2.938   1.692  0.1986 -0.0219  0.1245
 1364ntf    fn4 8301   6.910   3.045   1.191  0.1540  0.3468 -0.1399
 1364ntf    fn4 8302   6.913   2.838   1.237 -0.2380  0.0829 -0.4678
 1364ntf    fn4 8303   6.728   2.940   1.218  0.1208  0.2833 -0.2400
 1364ntf    on5 8304   6.807   3.141   1.445 -0.4576 -0.0709 -0.8136
 1364ntf    on5 8305   6.781   2.897   1.497  0.7167 -0.2818  0.3611
 1364ntf    on5 8306   7.234   2.889   1.475  0.3991 -0.1191  0.0604
 1364ntf    on5 8307   7.034   2.751   1.529 -0.1335  0.2016 -0.1302
 1364ntf    fn4 8308   7.178   2.861   1.779 -0.2473 -0.0218  0.4477
 1364ntf    fn4 8309   7.192   3.046   1.687  0.0146  0.1088  0.1318
 1364ntf    fn4 8310   7.001   2.969   1.751  0.2736 -0.0645  0.2938
 1365ntf    cn1 8311   5.122   5.808   1.385 -0.1170  0.0201 -0.2756
 1365ntf    sn2 8312   5.176   5.979   1.412  0.1397 -0.1091  0.0363
 1365ntf    nn3 8313   5.331   5.958   1.410  0.1884  0.2602 -0.2366
 1365ntf    sn2 8314   5.438   6.048   1.481  0.1790 -0.0220  0.1424
 1365ntf    cn1 8315   5.589   5.966   1.420  0.3804  0.3338  0.1548
 1365ntf    fn4 8316   5.173   5.739   1.284 -0.0611 -0.1839 -0.1090
 1365ntf    fn4 8317   5.148   5.737   1.494 -0.2421  0.2861 -0.0721
 1365ntf    fn4 8318   4.991   5.795   1.374 -0.0835  0.0713 -0.7693
 1365ntf    on5 8319   5.125   6.038   1.291  0.1785  0.4075  0.2694
 1365ntf    on5 8320   5.115   6.013   1.538  0.0988 -0.0856  0.0101
 1365ntf    on5 8321   5.439   6.031   1.624  0.5565  0.2444  0.1750
 1365ntf    on5 8322   5.443   6.184   1.432  0.4601 -0.2970 -0.6123
 1365ntf    fn4 8323   5.576   5.939   1.291  0.1043 -0.2541  0.3012
 1365ntf    fn4 8324   5.697   6.041   1.424  0.2746  0.5028 -0.1260
 1365ntf    fn4 8325   5.610   5.847   1.475  0.1328  0.0422 -0.3709
 1366ntf    cn1 8326   2.008   0.057   5.025 -0.2353  0.2259 -0.6131
 1366ntf    sn2 8327   2.062  -0.034   4.877  0.0608  0.0031 -0.3706
 1366ntf    nn3 8328   2.084  -0.168   4.955 -0.1371  0.3767  0.3378
 1366ntf    sn2 8329   2.218  -0.251   4.965 -0.2362  0.1695 -0.0223
 1366ntf    cn1 8330   2.320  -0.169   5.091 -0.1600  0.0920 -0.0340
 1366ntf    fn4 8331   1.884   0.019   5.055  0.0124  0.1023  0.2711
 1366ntf    fn4 8332   2.091   0.034   5.125 -1.1383 -0.4167  0.0132
 1366ntf    fn4 8333   2.000   0.187   5.005  0.0170  0.4445  0.6247
 1366ntf    on5 8334   1.953  -0.033   4.782 -0.4266  0.3903  0.1868
 1366ntf    on5 8335   2.186   0.034   4.850  0.3007 -0.0312  0.6319
 1366ntf    on5 8336   2.293  -0.249   4.842  0.1236 -0.4233  0.1887
 1366ntf    on5 8337   2.190  -0.382   5.018  0.3143  0.0670  0.0184
 1366ntf    fn4 8338   2.411  -0.254   5.135 -0.0388  0.0127 -0.4295
 1366ntf    fn4 8339   2.379  -0.061   5.041 -0.0740 -0.0933 -0.3359
 1366ntf    fn4 8340   2.249  -0.123   5.193  0.2343 -0.0054  0.2884
 1367ntf    cn1 8341   2.145   4.323   0.661  0.2774  0.4463  0.1500
 1367ntf    sn2 8342   2.000   4.414   0.724 -0.1021  0.1023 -0.2166
 1367ntf    nn3 8343   1.889   4.314   0.674 -0.0073  0.1149 -0.4570
 1367ntf    sn2 8344   1.788   4.231   0.761  0.4204 -0.0287 -0.0939
 1367ntf    cn1 8345   1.855   4.062   0.757  0.0825 -0.1702  0.2137
 1367ntf    fn4 8346   2.263   4.370   0.695  0.5715 -0.1191 -0.0785
 1367ntf    fn4 8347   2.147   4.197   0.701 -0.2971  0.2075 -0.5353
 1367ntf    fn4 8348   2.133   4.314   0.529  0.0130  0.3153  0.1815
 1367ntf    on5 8349   2.031   4.423   0.864  0.1011 -0.4180 -0.2244
 1367ntf    on5 8350   2.011   4.539   0.653  1.0776 -0.1684 -0.5318
 1367ntf    on5 8351   1.658   4.225   0.701  0.2396 -0.4655  0.3346
 1367ntf    on5 8352   1.782   4.255   0.903  0.0402  0.6336 -0.2199
 1367ntf    fn4 8353   1.796   3.978   0.841 -0.2265 -0.0600  0.1067
 1367ntf    fn4 8354   1.851   4.007   0.637  0.2131 -0.0674  0.1619
 1367ntf    fn4 8355   1.982   4.067   0.794  0.2577 -0.1635 -0.3864
 1368ntf    cn1 8356   3.122   2.680   2.471 -0.1315 -0.2882 -0.2396
 1368ntf    sn2 8357   3.274   2.674   2.570 -0.1325  0.0478 -0.2162
 1368ntf    nn3 8358   3.325   2.822   2.556  0.0469 -0.0116 -0.1945
 1368ntf    sn2 8359   3.420   2.891   2.452  0.4143 -0.2229 -0.0035
 1368ntf    cn1 8360   3.581   2.869   2.533  0.4339 -0.0812 -0.0033
 1368ntf    fn4 8361   3.144   2.692   2.341  0.3288 -0.3516 -0.1700
 1368ntf    fn4 8362   3.065   2.562   2.488 -0.0920 -0.2294  0.3188
 1368ntf    fn4 8363   3.041   2.782   2.495 -0.0853 -0.3125  0.0225
 1368ntf    on5 8364   3.237   2.618   2.698 -0.0825 -0.2067 -0.3121
 1368ntf    on5 8365   3.360   2.588   2.493  0.0845  0.1004 -0.0341
 1368ntf    on5 8366   3.410   3.035   2.452  0.1746 -0.2358  0.6570
 1368ntf    on5 8367   3.435   2.824   2.325 -0.3252 -0.3988 -0.0055
 1368ntf    fn4 8368   3.580   2.910   2.659 -0.8942  0.0089 -0.0210
 1368ntf    fn4 8369   3.616   2.742   2.530  0.1496 -0.1654  0.1628
 1368ntf    fn4 8370   3.673   2.946   2.477  0.1700  0.2903  0.0642
 1369ntf    cn1 8371   6.244   6.466   4.763  0.2103 -0.2510 -0.1277
 1369ntf    sn2 8372   6.079   6.535   4.728  0.3251  0.0187 -0.1386
 1369ntf    nn3 8373   6.018   6.427   4.632  0.0313  0.0837 -0.0247
 1369ntf    sn2 8374   5.980   6.434   4.480 -0.2598  0.0593  0.0457
 1369ntf    cn1 8375   6.074   6.292   4.417  0.1655  0.3479  0.0221
 1369ntf    fn4 8376   6.330   6.554   4.812 -0.0520 -0.1576  0.1711
 1369ntf    fn4 8377   6.241   6.366   4.849 -0.1653 -0.5234 -0.4536
 1369ntf    fn4 8378   6.303   6.410   4.658 -0.5015 -1.2756  0.0011
 1369ntf    on5 8379   6.018   6.540   4.858  0.5373 -0.1934 -0.0312
 1369ntf    on5 8380   6.107   6.660   4.661  0.7374 -0.0105 -0.0237
 1369ntf    on5 8381   6.035   6.545   4.407 -0.1139 -0.3137 -0.4154
 1369ntf    on5 8382   5.848   6.385   4.447 -0.0228 -0.0352 -0.7833
 1369ntf    fn4 8383   6.054   6.186   4.495  0.5088  0.5892  0.4420
 1369ntf    fn4 8384   6.054   6.261   4.290 -0.2151  0.1892  0.1172
 1369ntf    fn4 8385   6.204   6.311   4.428  0.1913  0.6088 -0.7409
 1370ntf    cn1 8386   1.574   1.863   4.213 -0.6421 -0.7205  0.4608
 1370ntf    sn2 8387   1.506   1.990   4.325  0.2887  0.1399  0.0680
 1370ntf    nn3 8388   1.572   1.975   4.467  0.3249  0.2854  0.0659
 1370ntf    sn2 8389   1.618   1.836   4.524  0.1197  0.2102  0.0508
 1370ntf    cn1 8390   1.600   1.859   4.703  0.1974 -0.2238  0.1128
 1370ntf    fn4 8391   1.527   1.740   4.230  0.5983 -1.2149  0.3840
 1370ntf    fn4 8392   1.542   1.889   4.088  0.2994  0.2436  0.4053
 1370ntf    fn4 8393   1.706   1.860   4.218 -0.5596  0.1046 -0.8917
 1370ntf    on5 8394   1.551   2.107   4.255  0.1596  0.1035 -0.0772
 1370ntf    on5 8395   1.366   1.955   4.319  0.4594 -0.5174 -0.2409
 1370ntf    on5 8396   1.754   1.797   4.497 -0.0098  0.5413 -1.1352
 1370ntf    on5 8397   1.521   1.732   4.502  0.1452  0.0638  0.6147
 1370ntf    fn4 8398   1.473   1.845   4.738  0.2499  0.1804  0.4711
 1370ntf    fn4 8399   1.656   1.763   4.775  0.0404  0.1537  0.7475
 1370ntf    fn4 8400   1.638   1.975   4.754 -0.1903 -0.0933  0.1089
 1371ntf    cn1 8401   3.746   1.591   1.040 -0.0340  0.2151 -0.1841
 1371ntf    sn2 8402   3.808   1.753   0.987 -0.0499  0.1917 -0.2739
 1371ntf    nn3 8403   3.674   1.835   0.987 -0.4177 -0.4019 -0.2943
 1371ntf    sn2 8404   3.558   1.819   0.882 -0.1533 -0.2172 -0.6175
 1371ntf    cn1 8405   3.524   1.994   0.846  0.8844  0.0538 -0.3240
 1371ntf    fn4 8406   3.693   1.597   1.161  0.2126  0.5710 -0.0937
 1371ntf    fn4 8407   3.651   1.539   0.964 -0.0065 -0.2469  0.0891
 1371ntf    fn4 8408   3.841   1.499   1.052 -0.0683  0.1753 -0.2206
 1371ntf    on5 8409   3.888   1.785   1.102 -0.1456  1.3774 -0.5213
 1371ntf    on5 8410   3.892   1.750   0.870  0.5072 -0.6509  0.1424
 1371ntf    on5 8411   3.439   1.767   0.945 -0.0169 -0.5675 -0.6438
 1371ntf    on5 8412   3.599   1.758   0.758 -0.3553 -0.7366 -0.4335
 1371ntf    fn4 8413   3.485   2.058   0.955 -0.0650  0.5743 -0.9609
 1371ntf    fn4 8414   3.628   2.064   0.805  1.1171 -0.4545 -0.6080
 1371ntf    fn4 8415   3.422   2.014   0.765  0.9769 -0.1128 -0.4835
 1372ntf    cn1 8416   5.846   1.809   2.355  0.1731 -0.3297  0.2848
 1372ntf    sn2 8417   5.821   1.877   2.188  0.6393 -0.2922  0.2267
 1372ntf    nn3 8418   5.805   2.028   2.227 -0.0374 -0.3343  0.1313
 1372ntf    sn2 8419   5.671   2.104   2.257  0.0742  0.0826 -0.4220
 1372ntf    cn1 8420   5.744   2.245   2.344 -0.1227 -0.1562  0.1336
 1372ntf    fn4 8421   5.956   1.860   2.409  0.1011  0.0761  0.0534
 1372ntf    fn4 8422   5.739   1.828   2.429  0.4505  0.2023  0.5579
 1372ntf    fn4 8423   5.861   1.678   2.354  0.1900 -0.3271  0.1176
 1372ntf    on5 8424   5.942   1.844   2.118  0.5692 -0.6357  0.2628
 1372ntf    on5 8425   5.700   1.813   2.141  0.5950  0.0717 -0.1532
 1372ntf    on5 8426   5.582   2.053   2.359  0.3623  0.3849 -0.0180
 1372ntf    on5 8427   5.606   2.165   2.143  0.3486  0.2621 -0.4808
 1372ntf    fn4 8428   5.643   2.318   2.387 -0.4355 -0.5016 -0.0123
 1372ntf    fn4 8429   5.818   2.212   2.449 -0.4582 -0.4678  0.2724
 1372ntf    fn4 8430   5.812   2.320   2.259  0.2014 -0.5396  0.0519
 1373ntf    cn1 8431   3.387   1.860   4.744  0.0633 -0.2585  0.3732
 1373ntf    sn2 8432   3.210   1.823   4.733  0.0848 -0.3354  0.2801
 1373ntf    nn3 8433   3.152   1.968   4.726  0.6169 -0.1665 -0.7500
 1373ntf    sn2 8434   3.051   2.036   4.627 -0.0445  0.4196  0.3042
 1373ntf    cn1 8435   3.168   2.113   4.512 -0.2540 -0.0599 -0.2381
 1373ntf    fn4 8436   3.425   1.960   4.821 -0.0216  0.3819 -0.4007
 1373ntf    fn4 8437   3.456   1.752   4.779  0.7012 -0.0453 -0.1832
 1373ntf    fn4 8438   3.436   1.897   4.626 -0.1293 -0.3069  0.2779
 1373ntf    on5 8439   3.207   1.758   4.604  0.4878  0.6724 -0.2463
 1373ntf    on5 8440   3.194   1.749   4.856  0.3237 -0.0126  0.5045
 1373ntf    on5 8441   2.976   2.144   4.687 -0.2172  0.1181  0.6369
 1373ntf    on5 8442   2.974   1.952   4.538  0.2819 -0.0942  0.4999
 1373ntf    fn4 8443   3.239   2.203   4.579 -0.2374 -0.2751  0.0349
 1373ntf    fn4 8444   3.251   2.035   4.444 -0.3346 -0.0238 -0.3792
 1373ntf    fn4 8445   3.117   2.185   4.414  0.0763 -0.0382 -0.3972
 1374ntf    cn1 8446   6.755   1.665   3.538  0.1832  0.2763 -0.5836
 1374ntf    sn2 8447   6.861   1.519   3.559 -0.3438 -0.1182 -0.6333
 1374ntf    nn3 8448   6.990   1.596   3.512 -0.2244 -0.0658 -0.2221
 1374ntf    sn2 8449   7.113   1.540   3.432 -0.0428  0.0992 -0.0590
 1374ntf    cn1 8450   7.235   1.519   3.565 -0.4123 -0.0006  0.2676
 1374ntf    fn4 8451   6.761   1.751   3.638 -0.6208 -0.1708 -0.1435
 1374ntf    fn4 8452   6.778   1.742   3.432 -0.0210 -0.2043 -0.9852
 1374ntf    fn4 8453   6.627   1.631   3.522 -0.0291  0.3278  0.9311
 1374ntf    on5 8454   6.857   1.482   3.698  0.2177 -0.6453 -0.7544
 1374ntf    on5 8455   6.800   1.427   3.466 -0.1204 -0.0839 -0.8127
 1374ntf    on5 8456   7.164   1.643   3.345  0.2643  0.3556  0.4241
 1374ntf    on5 8457   7.107   1.409   3.373  0.4573  0.3764 -0.7385
 1374ntf    fn4 8458   7.179   1.451   3.663 -0.8183 -0.3146 -0.1767
 1374ntf    fn4 8459   7.342   1.456   3.519 -0.0628  0.6784  0.1281
 1374ntf    fn4 8460   7.273   1.636   3.615 -0.2856  0.3778 -0.6950
 1375ntf    cn1 8461   1.792   2.409   4.735 -0.1035  0.1250 -0.4156
 1375ntf    sn2 8462   1.709   2.557   4.801 -0.3082 -0.0893 -0.1935
 1375ntf    nn3 8463   1.686   2.649   4.677 -0.2740 -0.1834 -0.2693
 1375ntf    sn2 8464   1.762   2.783   4.647  0.2100 -0.3621  0.1583
 1375ntf    cn1 8465   1.750   2.801   4.467 -0.2028 -0.0358  0.2181
 1375ntf    fn4 8466   1.803   2.309   4.821  0.1375  0.2439 -0.3057
 1375ntf    fn4 8467   1.739   2.358   4.626  0.0446 -0.1829 -0.3452
 1375ntf    fn4 8468   1.919   2.436   4.709  0.0582 -0.0652  0.1617
 1375ntf    on5 8469   1.584   2.504   4.851 -0.3515 -0.1565 -0.3749
 1375ntf    on5 8470   1.802   2.601   4.902 -0.3120 -0.3527 -0.0719
 1375ntf    on5 8471   1.901   2.779   4.685  0.4955  0.0791 -0.8112
 1375ntf    on5 8472   1.679   2.894   4.685 -0.3577 -0.5916 -0.3929
 1375ntf    fn4 8473   1.807   2.913   4.427 -0.3864 -0.0855 -0.1871
 1375ntf    fn4 8474   1.806   2.696   4.410 -0.5050 -0.2187  0.2514
 1375ntf    fn4 8475   1.628   2.806   4.415 -0.0989  0.1141 -0.0122
 1376ntf    cn1 8476   3.021   6.050   3.449  0.0473  0.5664  0.1650
 1376ntf    sn2 8477   2.983   5.967   3.292 -0.0199  0.1160  0.4183
 1376ntf    nn3 8478   2.833   5.924   3.310 -0.0347 -0.1459 -0.3003
 1376ntf    sn2 8479   2.784   5.785   3.363  0.1754 -0.0505  0.1491
 1376ntf    cn1 8480   2.661   5.848   3.481  0.1814 -0.1083  0.1870
 1376ntf    fn4 8481   3.130   6.123   3.434  0.2961 -0.0514 -1.1655
 1376ntf    fn4 8482   2.926   6.137   3.482 -0.2432  0.4281 -0.2897
 1376ntf    fn4 8483   3.029   5.969   3.553 -0.2802  0.0223 -0.2280
 1376ntf    on5 8484   2.991   6.074   3.196 -0.4685 -0.3152 -0.1093
 1376ntf    on5 8485   3.079   5.861   3.272  0.1751  0.2844  0.4530
 1376ntf    on5 8486   2.873   5.723   3.458 -0.2491 -0.7418  0.1082
 1376ntf    on5 8487   2.712   5.696   3.275  0.3575  0.4060 -0.4656
 1376ntf    fn4 8488   2.598   5.959   3.445 -0.0121 -0.3313 -0.1635
 1376ntf    fn4 8489   2.564   5.761   3.504  0.5288 -0.4570  0.3344
 1376ntf    fn4 8490   2.723   5.872   3.595  0.0758 -0.0345  0.2290
 1377ntf    cn1 8491   6.558   5.137   1.638 -0.0967 -0.4534 -0.4612
 1377ntf    sn2 8492   6.647   4.997   1.714  0.1755  0.0198  0.1009
 1377ntf    nn3 8493   6.782   5.062   1.761  0.1499  0.0055  0.1973
 1377ntf    sn2 8494   6.840   5.070   1.906  0.1666 -0.1235  0.1979
 1377ntf    cn1 8495   6.931   5.227   1.901  0.0856 -0.0799  0.0848
 1377ntf    fn4 8496   6.502   5.214   1.730 -0.4983 -0.6302 -0.5547
 1377ntf    fn4 8497   6.629   5.209   1.553  0.3283 -0.0420  0.2260
 1377ntf    fn4 8498   6.458   5.101   1.560 -0.1518  0.3223 -0.7473
 1377ntf    on5 8499   6.568   4.956   1.827 -0.1358  0.0082 -0.1205
 1377ntf    on5 8500   6.675   4.902   1.609  0.5762  0.3486 -0.0911
 1377ntf    on5 8501   6.941   4.969   1.930 -0.2603 -0.6525 -0.1975
 1377ntf    on5 8502   6.744   5.085   2.012  0.1242  0.0596  0.1332
 1377ntf    fn4 8503   6.861   5.317   1.834 -0.2013 -0.0920  0.3704
 1377ntf    fn4 8504   6.949   5.270   2.025  0.3417  0.1805 -0.0400
 1377ntf    fn4 8505   7.054   5.218   1.853 -0.1012 -0.7688 -0.2832
 1378ntf    cn1 8506   0.546   3.822   1.282  0.0379  0.3810  0.0790
 1378ntf    sn2 8507   0.366   3.806   1.307 -0.0306  0.1025 -0.5721
 1378ntf    nn3 8508   0.311   3.785   1.162  0.0756 -0.9714 -0.4633
 1378ntf    sn2 8509   0.162   3.762   1.118 -0.1665 -0.4983  0.1056
 1378ntf    cn1 8510   0.176   3.630   0.994 -0.2581 -0.6279  0.2335
 1378ntf    fn4 8511   0.575   3.921   1.201 -0.0183  0.3895  0.0692
 1378ntf    fn4 8512   0.609   3.845   1.396 -0.1242  0.2818  0.1903
 1378ntf    fn4 8513   0.600   3.713   1.229  0.1797  0.3796  0.2240
 1378ntf    on5 8514   0.339   3.698   1.399  0.3711  0.3065 -0.2076
 1378ntf    on5 8515   0.334   3.939   1.353 -0.1480  0.1290 -0.7294
 1378ntf    on5 8516   0.117   3.882   1.051  0.2824 -0.4630 -0.1303
 1378ntf    on5 8517   0.070   3.712   1.218 -1.0732  0.0885 -0.4249
 1378ntf    fn4 8518   0.068   3.612   0.920 -0.2963 -0.7791  0.3242
 1378ntf    fn4 8519   0.272   3.644   0.905 -0.4833 -0.5165  0.0085
 1378ntf    fn4 8520   0.192   3.509   1.047  0.0366 -0.7703 -0.1799
 1379ntf    cn1 8521   0.703   2.458   0.888 -0.2391 -0.2792  0.0934
 1379ntf    sn2 8522   0.831   2.364   0.977 -0.0416  0.0013  0.1052
 1379ntf    nn3 8523   0.963   2.437   0.932 -0.1460  0.0483 -0.1236
 1379ntf    sn2 8524   1.029   2.572   0.975 -0.2668  0.0735 -0.0152
 1379ntf    cn1 8525   1.166   2.496   1.067 -0.2330  0.2546  0.0844
 1379ntf    fn4 8526   0.735   2.471   0.761 -0.4836  0.6173  0.1231
 1379ntf    fn4 8527   0.581   2.408   0.901 -0.5520  0.6619  0.8831
 1379ntf    fn4 8528   0.687   2.581   0.933  0.3398 -0.3308  0.4528
 1379ntf    on5 8529   0.789   2.366   1.115  0.0639 -0.5589  0.1492
 1379ntf    on5 8530   0.828   2.238   0.908 -0.4145  0.2774 -0.3876
 1379ntf    on5 8531   0.961   2.649   1.076  0.2314  0.2987  0.1552
 1379ntf    on5 8532   1.104   2.635   0.868  0.3379 -0.5841  0.0129
 1379ntf    fn4 8533   1.219   2.414   0.978 -0.3202  0.3906 -0.0940
 1379ntf    fn4 8534   1.258   2.586   1.098  0.0998  0.0449 -0.2789
 1379ntf    fn4 8535   1.137   2.432   1.179 -0.7182  0.0803 -0.1412
 1380ntf    cn1 8536   4.865   1.475   1.002 -0.0381  0.0139  0.1068
 1380ntf    sn2 8537   4.974   1.329   0.994  0.2324  0.2159  0.0834
 1380ntf    nn3 8538   4.975   1.297   0.841  0.0935  0.0032  0.1258
 1380ntf    sn2 8539   4.901   1.187   0.757  0.3115 -0.2575  0.2744
 1380ntf    cn1 8540   5.014   1.045   0.756  0.3838 -0.1996  0.1966
 1380ntf    fn4 8541   4.743   1.448   1.044 -0.2285  0.2674 -0.2780
 1380ntf    fn4 8542   4.901   1.559   1.098 -0.1284  0.6503 -0.4143
 1380ntf    fn4 8543   4.863   1.548   0.892  0.0216  0.3437  0.3229
 1380ntf    on5 8544   5.101   1.370   1.049  0.4768 -0.3218 -0.0733
 1380ntf    on5 8545   4.905   1.242   1.087  0.1406 -0.1176 -0.2959
 1380ntf    on5 8546   4.899   1.230   0.619  0.4554 -0.8085  0.0986
 1380ntf    on5 8547   4.782   1.124   0.810 -0.1262  0.2363 -0.1036
 1380ntf    fn4 8548   5.138   1.085   0.731  0.2952  0.0751  0.1978
 1380ntf    fn4 8549   5.009   0.982   0.872 -0.2026  0.1733  0.3809
 1380ntf    fn4 8550   4.981   0.961   0.659  0.5134  0.0188 -0.0380
 1381ntf    cn1 8551   1.020   5.329   4.113 -0.0542 -0.1644  0.2658
 1381ntf    sn2 8552   1.108   5.450   4.011 -0.1147  0.0167  0.4291
 1381ntf    nn3 8553   1.238   5.470   4.097 -0.0685  0.8659  0.1688
 1381ntf    sn2 8554   1.391   5.448   4.068 -0.2597  0.2487 -0.3835
 1381ntf    cn1 8555   1.438   5.367   4.225 -0.5114  0.0619 -0.4036
 1381ntf    fn4 8556   0.997   5.363   4.239 -0.1695  0.2964  0.1195
 1381ntf    fn4 8557   0.903   5.303   4.057  0.2034  0.2219 -0.4510
 1381ntf    fn4 8558   1.089   5.216   4.118  0.0706 -0.0765  0.5817
 1381ntf    on5 8559   1.113   5.388   3.882  0.0788 -0.1603  0.5218
 1381ntf    on5 8560   1.011   5.557   4.023  0.1712  0.1979  1.2492
 1381ntf    on5 8561   1.473   5.566   4.071 -0.1953  0.1991 -0.0541
 1381ntf    on5 8562   1.420   5.354   3.963  0.0850 -0.0493 -0.0277
 1381ntf    fn4 8563   1.399   5.431   4.334  0.2532  0.6903 -0.4881
 1381ntf    fn4 8564   1.394   5.243   4.232 -0.0655 -0.0714  0.0431
 1381ntf    fn4 8565   1.569   5.350   4.232 -0.5508  0.1807  0.7528
 1382ntf    cn1 8566   0.192   4.164   3.601  0.1321 -0.4872 -0.2485
 1382ntf    sn2 8567   0.130   4.209   3.436  0.1771 -0.1491 -0.1741
 1382ntf    nn3 8568   0.116   4.061   3.387 -0.3113 -0.1380 -0.0774
 1382ntf    sn2 8569   0.225   3.975   3.313 -0.1436 -0.0838  0.1041
 1382ntf    cn1 8570   0.114   3.900   3.190  0.2759 -0.3514 -0.1127
 1382ntf    fn4 8571   0.129   4.064   3.660  0.1639 -0.6465 -0.4864
 1382ntf    fn4 8572   0.317   4.122   3.594  0.4877  0.4649  0.1952
 1382ntf    fn4 8573   0.203   4.259   3.693  0.6549 -0.7208 -0.0622
 1382ntf    on5 8574  -0.003   4.264   3.450  0.2125  0.0063 -0.4445
 1382ntf    on5 8575   0.240   4.285   3.382  0.2840  0.1784  0.4848
 1382ntf    on5 8576   0.275   3.861   3.386  0.8582  0.0516 -0.3526
 1382ntf    on5 8577   0.324   4.041   3.233 -0.0511 -0.1669  0.1499
 1382ntf    fn4 8578   0.049   3.993   3.123  0.3962 -0.3073 -0.1687
 1382ntf    fn4 8579   0.188   3.829   3.106  0.4132  0.4108 -0.6362
 1382ntf    fn4 8580   0.024   3.813   3.235 -0.1356  0.1221 -0.0192
 1383ntf    cn1 8581   5.028   3.547   3.129  0.1186 -0.0368 -0.4029
 1383ntf    sn2 8582   4.975   3.467   2.975  0.3559 -0.2741 -0.3622
 1383ntf    nn3 8583   5.049   3.556   2.869  0.2015  0.8599  0.4717
 1383ntf    sn2 8584   5.196   3.535   2.818 -0.0391  0.0853  0.0911
 1383ntf    cn1 8585   5.245   3.708   2.797 -0.0347  0.0292 -0.3747
 1383ntf    fn4 8586   5.147   3.603   3.119 -0.0262  0.3122 -0.1978
 1383ntf    fn4 8587   4.951   3.646   3.170  0.1295 -0.1157 -0.1859
 1383ntf    fn4 8588   5.030   3.458   3.227 -0.1762  0.4418  0.0446
 1383ntf    on5 8589   5.016   3.330   2.997  0.9872 -0.0572 -0.1818
 1383ntf    on5 8590   4.836   3.491   3.004  0.4718  0.4800 -0.4258
 1383ntf    on5 8591   5.192   3.482   2.684  0.3118 -0.0677  0.1393
 1383ntf    on5 8592   5.286   3.475   2.913 -0.3000  0.1783  0.4006
 1383ntf    fn4 8593   5.371   3.731   2.762  0.0331  0.3865  0.0942
 1383ntf    fn4 8594   5.165   3.774   2.715 -0.1173 -0.0652 -0.3708
 1383ntf    fn4 8595   5.226   3.777   2.909  0.2362 -0.8446  0.2143
 1384ntf    cn1 8596   3.883   1.375   5.318 -0.0841 -0.6127  0.2157
 1384ntf    sn2 8597   3.778   1.460   5.196  0.2145 -0.0595  0.3396
 1384ntf    nn3 8598   3.727   1.329   5.125 -0.2679  0.2813  0.0508
 1384ntf    sn2 8599   3.768   1.271   4.985  0.0790  0.3155  0.1355
 1384ntf    cn1 8600   3.886   1.143   5.037 -0.1221  0.2743  0.5015
 1384ntf    fn4 8601   3.822   1.275   5.380 -0.0364 -0.8689 -0.1496
 1384ntf    fn4 8602   3.991   1.331   5.256  0.3877  0.2777  0.3836
 1384ntf    fn4 8603   3.933   1.453   5.412 -0.1897 -0.0123 -0.2165
 1384ntf    on5 8604   3.684   1.535   5.276  0.1463  0.6769 -0.4200
 1384ntf    on5 8605   3.875   1.544   5.129  0.1383  0.0627  0.3819
 1384ntf    on5 8606   3.846   1.350   4.893 -0.1454  0.1285 -0.2172
 1384ntf    on5 8607   3.660   1.190   4.933 -0.5766  0.7230  0.8317
 1384ntf    fn4 8608   3.998   1.182   5.097  0.2532 -0.1686  0.1021
 1384ntf    fn4 8609   3.824   1.054   5.112 -0.1873 -0.5333 -0.4806
 1384ntf    fn4 8610   3.928   1.066   4.937 -0.3714 -0.0271  0.6300
 1385ntf    cn1 8611   6.095   5.081   5.494 -0.1507 -0.3130  0.0302
 1385ntf    sn2 8612   6.008   5.042   5.649 -0.2414 -0.1493  0.0218
 1385ntf    nn3 8613   6.123   4.996   5.746 -0.4457  0.2300  0.4494
 1385ntf    sn2 8614   6.222   5.085   5.829  0.1178 -0.0485  0.0924
 1385ntf    cn1 8615   6.300   4.971   5.947 -0.4216 -0.2751  0.2320
 1385ntf    fn4 8616   6.010   5.109   5.396  0.0355  0.1444 -0.0027
 1385ntf    fn4 8617   6.181   5.180   5.510 -0.3950 -0.0892 -0.0257
 1385ntf    fn4 8618   6.161   4.978   5.445 -0.5238 -0.5651  0.0518
 1385ntf    on5 8619   5.934   5.159   5.686 -0.7939 -0.2383 -0.7956
 1385ntf    on5 8620   5.917   4.936   5.613 -0.0128 -0.1613 -0.5354
 1385ntf    on5 8621   6.151   5.173   5.920 -0.0253 -0.1752  0.1032
 1385ntf    on5 8622   6.330   5.144   5.755  0.2407  0.5576  0.7342
 1385ntf    fn4 8623   6.221   4.888   6.014 -0.5669 -0.3264 -0.0005
 1385ntf    fn4 8624   6.391   4.897   5.885  0.3665  0.4078  0.5603
 1385ntf    fn4 8625   6.368   5.032   6.043 -0.2595  0.2672 -0.2235
 1386ntf    cn1 8626   2.064   3.454   3.993 -0.2044 -0.3261  0.1246
 1386ntf    sn2 8627   1.920   3.550   4.048  0.0249  0.0020  0.1528
 1386ntf    nn3 8628   1.965   3.601   4.190  0.1444  0.5963 -0.0937
 1386ntf    sn2 8629   1.931   3.557   4.337  0.1642 -0.2263 -0.3316
 1386ntf    cn1 8630   2.080   3.610   4.427 -0.1889 -0.4114  0.3691
 1386ntf    fn4 8631   2.174   3.528   3.999 -0.2494 -0.2480 -0.0132
 1386ntf    fn4 8632   2.071   3.345   4.068 -0.0799 -0.3437  0.0878
 1386ntf    fn4 8633   2.052   3.413   3.868  0.1400  0.1121 -0.0557
 1386ntf    on5 8634   1.899   3.656   3.952  0.2163  0.3659  0.5082
 1386ntf    on5 8635   1.815   3.453   4.057  0.2742 -0.2709  0.1359
 1386ntf    on5 8636   1.927   3.414   4.354 -0.0845 -0.1940 -0.1090
 1386ntf    on5 8637   1.826   3.626   4.407  0.5731 -0.1625  0.2284
 1386ntf    fn4 8638   2.067   3.590   4.557  0.1908 -0.0051  0.4722
 1386ntf    fn4 8639   2.191   3.553   4.383  0.0862  0.2430  0.2007
 1386ntf    fn4 8640   2.101   3.741   4.423 -0.1211 -0.4173  0.5406
 1387ntf    cn1 8641   0.336   5.598   1.265  0.2990 -0.1642 -0.4096
 1387ntf    sn2 8642   0.172   5.527   1.232  0.2297 -0.0697 -0.2697
 1387ntf    nn3 8643   0.110   5.528   1.376 -0.2768 -0.6386 -0.4786
 1387ntf    sn2 8644  -0.039   5.564   1.410 -0.0608 -0.0440 -0.1424
 1387ntf    cn1 8645  -0.042   5.541   1.590  0.3344 -0.0041 -0.1309
 1387ntf    fn4 8646   0.407   5.522   1.347 -0.0093 -0.0941 -0.0760
 1387ntf    fn4 8647   0.413   5.617   1.159  0.1546 -0.4566 -0.5688
 1387ntf    fn4 8648   0.331   5.716   1.324 -0.3431 -0.4757  0.1791
 1387ntf    on5 8649   0.119   5.623   1.139 -0.6185  0.2620  0.5384
 1387ntf    on5 8650   0.205   5.393   1.189 -0.3982 -0.2260 -0.2752
 1387ntf    on5 8651  -0.133   5.463   1.367 -0.3126  0.3922 -0.6259
 1387ntf    on5 8652  -0.064   5.704   1.386 -0.4674 -0.1304 -0.2286
 1387ntf    fn4 8653  -0.050   5.414   1.626  0.6052  0.0597  0.1628
 1387ntf    fn4 8654   0.067   5.582   1.653  0.2680  0.3223 -0.2273
 1387ntf    fn4 8655  -0.144   5.600   1.650  0.3413 -0.1654  0.0424
 1388ntf    cn1 8656   3.786   4.631   6.633 -0.4358  0.0955 -0.1599
 1388ntf    sn2 8657   3.952   4.686   6.584 -0.1501 -0.2621  0.4003
 1388ntf    nn3 8658   3.905   4.768   6.459  0.3440 -0.1049  0.3166
 1388ntf    sn2 8659   3.891   4.732   6.306  0.2206  0.2797  0.2355
 1388ntf    cn1 8660   3.714   4.756   6.273  0.2955  0.0305 -0.3481
 1388ntf    fn4 8661   3.785   4.558   6.743  0.3746  0.1187 -0.1338
 1388ntf    fn4 8662   3.710   4.736   6.659 -0.2443  0.1945 -0.0033
 1388ntf    fn4 8663   3.729   4.562   6.536 -0.2882  0.2101 -0.3292
 1388ntf    on5 8664   4.001   4.774   6.688  0.6756 -0.1329 -0.0876
 1388ntf    on5 8665   4.033   4.571   6.553  0.4192  0.1804  0.2207
 1388ntf    on5 8666   3.909   4.598   6.258 -0.3418  0.4069 -0.3357
 1388ntf    on5 8667   3.949   4.841   6.232  0.4613 -0.3777 -0.5498
 1388ntf    fn4 8668   3.677   4.881   6.294  0.1732  0.0157 -0.4738
 1388ntf    fn4 8669   3.685   4.721   6.149  0.2241  0.4203 -0.4452
 1388ntf    fn4 8670   3.634   4.684   6.349 -0.0695  0.3285 -0.4463
 1389ntf    cn1 8671   5.961   1.914   3.860 -0.0027  0.1204 -0.3487
 1389ntf    sn2 8672   5.792   1.922   3.926  0.0889 -0.2534 -0.0663
 1389ntf    nn3 8673   5.796   2.044   4.025  0.5080 -0.2291 -0.1125
 1389ntf    sn2 8674   5.817   2.195   3.989  0.4217 -0.1695  0.0843
 1389ntf    cn1 8675   5.645   2.254   3.982  0.5468  0.2373  0.4146
 1389ntf    fn4 8676   6.055   1.901   3.952 -0.3377 -0.3503 -0.0676
 1389ntf    fn4 8677   5.984   1.812   3.779 -0.2956 -0.0248 -0.2509
 1389ntf    fn4 8678   6.000   2.014   3.783  0.1414  0.0656 -0.3483
 1389ntf    on5 8679   5.711   1.937   3.808  0.2200  0.1579 -0.1058
 1389ntf    on5 8680   5.776   1.801   4.003  0.3432  0.0432  0.4654
 1389ntf    on5 8681   5.872   2.225   3.859  0.0596  0.5379  0.0899
 1389ntf    on5 8682   5.854   2.275   4.103  0.0850  0.2157 -0.0728
 1389ntf    fn4 8683   5.564   2.181   3.908  0.1198  0.6233  0.4958
 1389ntf    fn4 8684   5.583   2.262   4.099  0.2868  0.3445  0.2695
 1389ntf    fn4 8685   5.631   2.375   3.932 -0.0769 -0.0374 -0.0798
 1390ntf    cn1 8686   3.956   6.281   3.795  0.1263  0.0448  0.2962
 1390ntf    sn2 8687   4.112   6.359   3.746  0.1656 -0.2128  0.0037
 1390ntf    nn3 8688   4.062   6.449   3.628 -0.2062 -0.0967  0.2481
 1390ntf    sn2 8689   4.015   6.598   3.641 -0.0649  0.0014 -0.3153
 1390ntf    cn1 8690   4.172   6.689   3.644 -0.0505 -0.0249 -0.2986
 1390ntf    fn4 8691   3.985   6.170   3.860 -0.0466 -0.0836  0.1562
 1390ntf    fn4 8692   3.884   6.358   3.875 -0.3539  0.3446 -0.4092
 1390ntf    fn4 8693   3.887   6.244   3.688 -0.1359 -0.2423  0.5643
 1390ntf    on5 8694   4.152   6.430   3.865  0.3830  0.0430 -0.2191
 1390ntf    on5 8695   4.185   6.242   3.704 -0.3042 -0.2752 -0.6438
 1390ntf    on5 8696   3.952   6.624   3.768  0.3742 -0.4640  0.0025
 1390ntf    on5 8697   3.951   6.645   3.521 -0.3624  0.3616 -0.0199
 1390ntf    fn4 8698   4.151   6.813   3.683  0.4395 -0.2001  0.5463
 1390ntf    fn4 8699   4.255   6.632   3.730  0.1498  0.1484 -0.3764
 1390ntf    fn4 8700   4.233   6.669   3.528  0.1913 -1.1198  0.0021
 1391ntf    cn1 8701   0.291   0.304   3.608 -0.1191 -0.0825  0.0965
 1391ntf    sn2 8702   0.455   0.239   3.651 -0.0792  0.0214  0.1010
 1391ntf    nn3 8703   0.428   0.141   3.770 -0.1011  0.2861  0.3160
 1391ntf    sn2 8704   0.449   0.143   3.926  0.6133  0.1527  0.2213
 1391ntf    cn1 8705   0.622   0.086   3.914  0.5612 -0.0506  0.4286
 1391ntf    fn4 8706   0.297   0.405   3.523  1.0280 -0.1163  0.1313
 1391ntf    fn4 8707   0.214   0.217   3.544 -0.4071  0.3467 -0.1545
 1391ntf    fn4 8708   0.223   0.342   3.715 -0.2611 -0.1569  0.0328
 1391ntf    on5 8709   0.475   0.164   3.530  0.5817  0.0425  0.1946
 1391ntf    on5 8710   0.535   0.358   3.672  0.3989 -0.2773 -0.0280
 1391ntf    on5 8711   0.375   0.042   3.997  0.3315 -0.1399 -0.4727
 1391ntf    on5 8712   0.457   0.275   3.984  1.0165 -0.2448  1.0973
 1391ntf    fn4 8713   0.705   0.187   3.893  0.6611 -0.2475 -0.1237
 1391ntf    fn4 8714   0.667   0.038   4.029  0.5946  0.0474  0.4566
 1391ntf    fn4 8715   0.641  -0.013   3.829  0.3997  0.1449  0.1629
 1392ntf    cn1 8716   0.146   4.952   0.824 -0.3972 -0.4495 -0.0641
 1392ntf    sn2 8717   0.152   4.776   0.777  0.2602 -0.4814  0.1293
 1392ntf    nn3 8718   0.112   4.705   0.911 -0.0792  0.5562  0.5895
 1392ntf    sn2 8719   0.181   4.580   0.977  0.3260  0.3496 -0.2172
 1392ntf    cn1 8720   0.121   4.588   1.148  0.2994 -0.2073 -0.1999
 1392ntf    fn4 8721   0.203   5.024   0.729 -0.6065 -0.0486  0.1140
 1392ntf    fn4 8722   0.018   4.978   0.842 -0.4653 -0.5603 -0.3776
 1392ntf    fn4 8723   0.211   4.995   0.931  0.4064  0.0214 -0.7303
 1392ntf    on5 8724   0.052   4.772   0.674 -0.2645 -0.7603  0.6447
 1392ntf    on5 8725   0.285   4.756   0.727  0.0632 -0.4775 -0.3967
 1392ntf    on5 8726   0.323   4.595   0.998  0.4974 -1.0795 -0.2733
 1392ntf    on5 8727   0.135   4.453   0.927 -0.5124  0.6300 -0.1770
 1392ntf    fn4 8728   0.178   4.494   1.222  0.1916 -0.4109 -0.3760
 1392ntf    fn4 8729   0.147   4.703   1.207 -0.6585 -0.0105 -0.1385
 1392ntf    fn4 8730  -0.010   4.576   1.159  0.3155  0.0873  0.3619
 1393ntf    cn1 8731   0.738   3.640   5.681 -0.0104  0.3929 -0.3040
 1393ntf    sn2 8732   0.860   3.516   5.736 -0.3403  0.1872 -0.0330
 1393ntf    nn3 8733   0.922   3.468   5.600  0.4597 -0.1327  0.4392
 1393ntf    sn2 8734   1.069   3.430   5.559  0.4712  0.0470  0.3174
 1393ntf    cn1 8735   1.130   3.597   5.517 -0.1617  0.2311  0.1102
 1393ntf    fn4 8736   0.802   3.747   5.637  0.1979  0.4494  0.1226
 1393ntf    fn4 8737   0.654   3.591   5.592 -0.1731  0.0775  0.0182
 1393ntf    fn4 8738   0.673   3.689   5.785 -0.5110  0.1837 -0.5174
 1393ntf    on5 8739   0.953   3.591   5.816  0.1087  0.1689 -0.5332
 1393ntf    on5 8740   0.783   3.412   5.799  0.5752  0.1379  1.0289
 1393ntf    on5 8741   1.082   3.357   5.436 -0.5785  0.4575 -0.0556
 1393ntf    on5 8742   1.151   3.390   5.669  0.2361 -0.2470  0.3871
 1393ntf    fn4 8743   1.049   3.686   5.571  0.5165  0.4865  0.7207
 1393ntf    fn4 8744   1.251   3.621   5.564 -0.1604  0.6138 -0.0869
 1393ntf    fn4 8745   1.137   3.615   5.386 -0.4201 -0.5748 -0.0217
 1394ntf    cn1 8746   0.915   3.940   2.654 -0.0678  0.0523 -0.0162
 1394ntf    sn2 8747   0.836   4.031   2.789 -0.0554  0.0775 -0.0259
 1394ntf    nn3 8748   0.836   3.916   2.896  0.0008 -0.1522 -0.2737
 1394ntf    sn2 8749   0.724   3.852   2.986  0.1049 -0.1020 -0.1077
 1394ntf    cn1 8750   0.810   3.846   3.146 -0.2908  0.4726  0.1276
 1394ntf    fn4 8751   0.857   3.822   2.642 -0.0162  0.0444 -0.2054
 1394ntf    fn4 8752   0.897   4.018   2.548  0.6476  0.2997  0.0386
 1394ntf    fn4 8753   1.045   3.920   2.673 -0.0775 -0.2995 -0.3115
 1394ntf    on5 8754   0.917   4.142   2.833  0.3154 -0.1138 -0.2250
 1394ntf    on5 8755   0.705   4.054   2.734 -0.0195 -0.3036 -0.2674
 1394ntf    on5 8756   0.710   3.713   2.949  0.3645 -0.0945 -0.2401
 1394ntf    on5 8757   0.604   3.926   3.013 -0.3518 -0.7642 -0.2887
 1394ntf    fn4 8758   0.913   3.763   3.153 -0.2531  0.5215  0.1560
 1394ntf    fn4 8759   0.864   3.965   3.170  0.8010  0.1053 -0.4089
 1394ntf    fn4 8760   0.735   3.799   3.244 -0.1530  0.4250  0.2117
 1395ntf    cn1 8761   1.846   2.791   0.938 -0.0668 -0.3271 -0.2933
 1395ntf    sn2 8762   1.779   2.860   0.784 -0.1061  0.1541 -0.0626
 1395ntf    nn3 8763   1.881   2.801   0.681  0.1240  0.4850 -0.0270
 1395ntf    sn2 8764   1.909   2.856   0.537  0.1175  0.3187 -0.0921
 1395ntf    cn1 8765   1.863   2.719   0.426  0.4531  0.0737  0.0699
 1395ntf    fn4 8766   1.871   2.661   0.931  0.9679 -0.1402 -0.2545
 1395ntf    fn4 8767   1.958   2.852   0.975 -0.4237 -0.0791  0.4140
 1395ntf    fn4 8768   1.767   2.812   1.043  0.3892 -0.0870  0.0069
 1395ntf    on5 8769   1.645   2.806   0.787 -0.4144  0.9145  0.1209
 1395ntf    on5 8770   1.793   3.003   0.800  0.7084  0.1839 -0.9761
 1395ntf    on5 8771   2.051   2.865   0.516  0.0573  0.8213 -0.3081
 1395ntf    on5 8772   1.827   2.967   0.495 -0.4020  0.0025  0.0649
 1395ntf    fn4 8773   1.734   2.687   0.429  0.4364  0.1976  0.9870
 1395ntf    fn4 8774   1.888   2.757   0.302 -0.4117 -0.0543 -0.1519
 1395ntf    fn4 8775   1.934   2.612   0.455  0.6268  0.1091 -0.2228
 1396ntf    cn1 8776   1.203   1.859   2.903 -0.1610 -0.1730  0.2324
 1396ntf    sn2 8777   1.101   1.710   2.928 -0.2525 -0.1191  0.1825
 1396ntf    nn3 8778   1.079   1.733   3.082 -0.0883  0.2765  0.1495
 1396ntf    sn2 8779   0.955   1.692   3.168  0.2249 -0.0486  0.4505
 1396ntf    cn1 8780   0.867   1.851   3.180  0.0879 -0.0960  0.1019
 1396ntf    fn4 8781   1.248   1.878   2.780  0.4577  0.1947  0.5100
 1396ntf    fn4 8782   1.131   1.968   2.924 -0.0665 -0.2430  0.9328
 1396ntf    fn4 8783   1.297   1.857   2.996 -0.5304 -0.5043  0.6036
 1396ntf    on5 8784   0.983   1.731   2.848  0.0760  0.6468 -0.1179
 1396ntf    on5 8785   1.192   1.602   2.898 -0.2144  0.0590 -0.3668
 1396ntf    on5 8786   0.980   1.672   3.308  0.7188 -0.2018  0.3416
 1396ntf    on5 8787   0.864   1.594   3.112  0.3160 -0.1564  0.4908
 1396ntf    fn4 8788   0.899   1.935   3.083 -0.5503  0.1239  0.0775
 1396ntf    fn4 8789   0.735   1.852   3.176  0.0796  0.4917  0.4601
 1396ntf    fn4 8790   0.900   1.921   3.287 -0.6673  0.0678  0.2344
 1397ntf    cn1 8791   2.134   1.401   2.209  0.3258  0.0482  0.0347
 1397ntf    sn2 8792   2.281   1.433   2.309  0.3083 -0.2959  0.1729
 1397ntf    nn3 8793   2.371   1.498   2.197 -0.4810 -0.0494 -0.3237
 1397ntf    sn2 8794   2.448   1.635   2.203  0.0571 -0.3627  0.0145
 1397ntf    cn1 8795   2.521   1.656   2.038  0.2729 -0.1024  0.1432
 1397ntf    fn4 8796   2.035   1.330   2.261  0.1340 -0.4095 -0.9218
 1397ntf    fn4 8797   2.078   1.515   2.172  0.3485 -0.0663 -0.3662
 1397ntf    fn4 8798   2.169   1.339   2.097  0.3124  0.1586 -0.0308
 1397ntf    on5 8799   2.228   1.530   2.402  0.2094  0.4256 -0.6181
 1397ntf    on5 8800   2.321   1.302   2.355 -0.0617 -0.4662  0.0097
 1397ntf    on5 8801   2.560   1.643   2.293  0.3548  0.6805 -0.4429
 1397ntf    on5 8802   2.356   1.745   2.189 -0.0021 -0.4115  0.0202
 1397ntf    fn4 8803   2.432   1.635   1.943 -0.0625  0.2683  0.3745
 1397ntf    fn4 8804   2.580   1.773   2.018  0.0345  0.0378  0.2555
 1397ntf    fn4 8805   2.614   1.563   2.023  0.3119 -0.1360  0.5674
 1398ntf    cn1 8806   5.821   3.001   6.001 -0.4667  0.0509 -0.2998
 1398ntf    sn2 8807   5.746   2.839   5.968 -0.0473 -0.2392  0.1505
 1398ntf    nn3 8808   5.672   2.869   5.833  0.2046  0.0972  0.0863
 1398ntf    sn2 8809   5.529   2.819   5.791  0.3953 -0.0187 -0.4341
 1398ntf    cn1 8810   5.506   2.662   5.881  0.6934 -0.0166 -0.3517
 1398ntf    fn4 8811   5.876   3.055   5.893  0.3749  0.2184  0.1975
 1398ntf    fn4 8812   5.745   3.095   6.055 -0.0455  0.3173 -0.1573
 1398ntf    fn4 8813   5.928   2.991   6.079 -0.4815  0.1504 -0.2670
 1398ntf    on5 8814   5.853   2.743   5.960 -0.6970 -0.9179 -0.5209
 1398ntf    on5 8815   5.663   2.826   6.085 -0.0679  0.4344  0.2162
 1398ntf    on5 8816   5.530   2.771   5.655  0.4977 -0.4140 -0.2966
 1398ntf    on5 8817   5.424   2.911   5.827  0.4917  0.0635 -0.3618
 1398ntf    fn4 8818   5.412   2.590   5.822 -0.3364  0.7897  0.2624
 1398ntf    fn4 8819   5.611   2.583   5.888  0.4926 -0.2872 -0.3824
 1398ntf    fn4 8820   5.466   2.662   6.007 -0.1060 -0.3522 -0.5937
 1399ntf    cn1 8821   2.277   4.120   6.151  0.2371 -0.4188 -0.5829
 1399ntf    sn2 8822   2.116   4.184   6.096  0.1724  0.1191  0.2254
 1399ntf    nn3 8823   2.153   4.324   6.035 -0.2888 -0.0224 -0.3806
 1399ntf    sn2 8824   2.092   4.466   6.068 -0.2964 -0.0878 -0.1066
 1399ntf    cn1 8825   2.095   4.544   5.904  0.3548 -0.0047 -0.0558
 1399ntf    fn4 8826   2.377   4.191   6.101 -0.0810  0.2438 -0.2895
 1399ntf    fn4 8827   2.290   4.116   6.283 -0.0922 -0.6493 -0.5548
 1399ntf    fn4 8828   2.300   3.997   6.107 -0.6815 -0.9404  0.3399
 1399ntf    on5 8829   2.077   4.095   5.990 -0.4993  0.2008  0.3982
 1399ntf    on5 8830   2.045   4.184   6.222  0.0433  0.3160  0.1533
 1399ntf    on5 8831   2.181   4.548   6.145 -0.6202  0.0741  0.0945
 1399ntf    on5 8832   1.950   4.462   6.093 -0.2246  0.4867  0.3938
 1399ntf    fn4 8833   2.211   4.524   5.843  0.1530  0.0140 -0.4511
 1399ntf    fn4 8834   2.011   4.478   5.826  0.3133  0.1065 -0.1052
 1399ntf    fn4 8835   2.077   4.675   5.896  0.7558  0.0700  0.2163
 1400ntf    cn1 8836   0.389   6.654   6.614 -0.2225  0.0508 -0.0699
 1400ntf    sn2 8837   0.562   6.706   6.635 -0.2410  0.0559  0.0706
 1400ntf    nn3 8838   0.537   6.832   6.726  0.1470 -0.0415  0.3156
 1400ntf    sn2 8839   0.511   6.978   6.674  0.3341 -0.0742  0.1276
 1400ntf    cn1 8840   0.339   7.008   6.724  0.2951 -0.0959  0.0054
 1400ntf    fn4 8841   0.314   6.754   6.572 -0.5129 -0.1235  0.0300
 1400ntf    fn4 8842   0.383   6.559   6.522  0.1515 -0.3207  0.2860
 1400ntf    fn4 8843   0.343   6.600   6.726 -0.1586  0.4913  0.1692
 1400ntf    on5 8844   0.623   6.598   6.710 -0.2456  0.1392  0.1941
 1400ntf    on5 8845   0.625   6.730   6.507  0.1068  0.2106  0.2679
 1400ntf    on5 8846   0.511   6.998   6.531  0.0424  0.8390  0.2536
 1400ntf    on5 8847   0.579   7.082   6.747  0.1655 -0.0651  0.2702
 1400ntf    fn4 8848   0.311   6.954   6.841  0.3560  0.2561  0.1818
 1400ntf    fn4 8849   0.309   7.135   6.740 -0.7686 -0.2365 -0.7323
 1400ntf    fn4 8850   0.253   6.968   6.631  0.2111 -0.3625  0.1961
 1401ntf    cn1 8851   0.929   4.165   1.413 -0.1895 -0.1954  0.1078
 1401ntf    sn2 8852   0.808   4.265   1.323 -0.0030  0.0757  0.1588
 1401ntf    nn3 8853   0.919   4.334   1.236  0.2106 -0.2752  0.1568
 1401ntf    sn2 8854   0.965   4.483   1.244 -0.4621 -0.0402 -0.2681
 1401ntf    cn1 8855   1.143   4.462   1.276 -0.4414  0.2587 -0.1836
 1401ntf    fn4 8856   1.011   4.107   1.327 -0.4819 -0.4255 -0.0182
 1401ntf    fn4 8857   0.991   4.238   1.504  0.2765 -0.2464 -0.1630
 1401ntf    fn4 8858   0.890   4.057   1.480 -0.3654 -0.3512 -0.2412
 1401ntf    on5 8859   0.727   4.167   1.254  0.1845  0.2825 -0.3639
 1401ntf    on5 8860   0.741   4.346   1.422 -0.3151  0.3197 -0.2421
 1401ntf    on5 8861   0.909   4.564   1.350  0.3956  0.0060  0.1637
 1401ntf    on5 8862   0.979   4.551   1.118 -0.5805  0.0289 -0.2447
 1401ntf    fn4 8863   1.165   4.464   1.407 -0.0233  0.5025 -0.2574
 1401ntf    fn4 8864   1.194   4.350   1.229  0.0716 -0.0133  0.9856
 1401ntf    fn4 8865   1.219   4.561   1.233 -0.0996  0.1616  0.1888
 1402ntf    cn1 8866   0.626   4.089   0.415  0.0864 -0.1802  0.1254
 1402ntf    sn2 8867   0.483   3.998   0.350  0.0929 -0.1878  0.1225
 1402ntf    nn3 8868   0.424   4.100   0.247 -0.2567 -0.6898 -0.1824
 1402ntf    sn2 8869   0.272   4.129   0.217 -0.0778  0.4687 -0.0315
 1402ntf    cn1 8870   0.304   4.259   0.095 -0.3621  0.4427 -0.1321
 1402ntf    fn4 8871   0.675   4.173   0.325 -0.3619  0.0624  0.1025
 1402ntf    fn4 8872   0.594   4.167   0.517  0.0746  0.0645 -0.0645
 1402ntf    fn4 8873   0.721   4.005   0.452  0.5075  0.1579 -0.1729
 1402ntf    on5 8874   0.544   3.884   0.284  0.0526 -0.5392  0.6849
 1402ntf    on5 8875   0.394   3.981   0.462  0.2813 -0.0351  0.2966
 1402ntf    on5 8876   0.194   4.201   0.314 -0.0970  0.2304  0.1319
 1402ntf    on5 8877   0.207   4.023   0.144 -0.4463  0.2320  0.6344
 1402ntf    fn4 8878   0.184   4.294   0.051 -0.4817  0.1506 -0.0426
 1402ntf    fn4 8879   0.365   4.363   0.148  0.5318 -0.3907  0.4964
 1402ntf    fn4 8880   0.371   4.216  -0.011 -0.0435 -0.1155  0.2945
 1403ntf    cn1 8881   0.232   3.397   2.247 -0.1484  0.4900 -0.1992
 1403ntf    sn2 8882   0.376   3.507   2.254  0.1613  0.0809 -0.1151
 1403ntf    nn3 8883   0.434   3.473   2.112  0.4871 -0.4820  0.1517
 1403ntf    sn2 8884   0.431   3.571   1.989  0.3189  0.2112  0.6996
 1403ntf    cn1 8885   0.439   3.452   1.852 -0.0109  0.5980  0.3459
 1403ntf    fn4 8886   0.149   3.425   2.148 -0.6557  0.0119  0.0797
 1403ntf    fn4 8887   0.262   3.270   2.232 -0.0266  0.4801  0.1270
 1403ntf    fn4 8888   0.164   3.406   2.361  0.0963 -0.5152  0.0352
 1403ntf    on5 8889   0.316   3.638   2.267  0.7266  0.2775  0.5871
 1403ntf    on5 8890   0.471   3.464   2.353 -0.0815 -0.3013 -0.0489
 1403ntf    on5 8891   0.554   3.646   1.979  0.6874 -0.5592 -0.7493
 1403ntf    on5 8892   0.305   3.630   1.955  0.5700  0.1083 -0.4309
 1403ntf    fn4 8893   0.568   3.423   1.847  0.0108  0.7182  0.1933
 1403ntf    fn4 8894   0.365   3.344   1.872 -0.0656  0.4129 -0.7683
 1403ntf    fn4 8895   0.408   3.498   1.731  0.0780  0.0266  0.1042
 1404ntf    cn1 8896   2.188   5.923   1.783  0.1688 -0.3657  0.0043
 1404ntf    sn2 8897   2.170   6.048   1.913  0.0465 -0.3324 -0.0448
 1404ntf    nn3 8898   2.310   6.118   1.922 -0.0533 -0.1554  0.1370
 1404ntf    sn2 8899   2.341   6.253   1.847  0.0455 -0.1688  0.1534
 1404ntf    cn1 8900   2.282   6.387   1.954 -0.1050 -0.5009  0.4920
 1404ntf    fn4 8901   2.287   5.836   1.797  0.4034 -0.0225  0.4918
 1404ntf    fn4 8902   2.081   5.845   1.775 -0.1902  0.1436 -0.1770
 1404ntf    fn4 8903   2.208   5.981   1.666  0.8060  0.0738  0.3261
 1404ntf    on5 8904   2.053   6.126   1.879 -0.0575 -0.3760  0.2128
 1404ntf    on5 8905   2.153   5.961   2.027  0.5787 -0.9075 -0.4006
 1404ntf    on5 8906   2.283   6.274   1.717  0.4210  0.0485  0.0201
 1404ntf    on5 8907   2.483   6.275   1.853 -0.0043  0.0637  0.4926
 1404ntf    fn4 8908   2.154   6.373   1.983 -0.2139  0.0163  0.2724
 1404ntf    fn4 8909   2.343   6.405   2.070 -0.3096 -0.2761  0.5661
 1404ntf    fn4 8910   2.296   6.506   1.896  0.1385 -0.4875  0.5791
 1405ntf    cn1 8911   0.955   1.979   5.847  0.3971  0.3946  0.0297
 1405ntf    sn2 8912   0.980   1.891   6.004  0.0604  0.2749  0.0169
 1405ntf    nn3 8913   1.028   1.754   5.944 -0.4520 -0.0276  0.2826
 1405ntf    sn2 8914   0.954   1.646   5.858  0.0842 -0.2905  0.1425
 1405ntf    cn1 8915   1.035   1.669   5.698 -0.0345  0.1172  0.1411
 1405ntf    fn4 8916   0.926   2.107   5.863  0.4532  0.4098  0.0083
 1405ntf    fn4 8917   1.053   1.965   5.760 -0.0869 -0.1711 -0.4425
 1405ntf    fn4 8918   0.847   1.935   5.784  0.3629  0.1057  0.2908
 1405ntf    on5 8919   1.088   1.964   6.064  0.2160 -0.0181  0.0910
 1405ntf    on5 8920   0.851   1.887   6.069  0.3201 -0.1466  0.5136
 1405ntf    on5 8921   0.820   1.672   5.810 -0.0119 -1.2509 -0.1354
 1405ntf    on5 8922   0.991   1.509   5.886  0.6386 -0.3901 -1.0580
 1405ntf    fn4 8923   1.012   1.575   5.608 -0.2094  0.1590  0.1407
 1405ntf    fn4 8924   0.997   1.781   5.637 -0.2396  0.1844  0.3901
 1405ntf    fn4 8925   1.164   1.678   5.724 -0.0565  0.1272  0.2472
 1406ntf    cn1 8926   4.508   4.267   2.725  0.4230  0.2271 -0.0433
 1406ntf    sn2 8927   4.472   4.118   2.823 -0.1473  0.2491 -0.2122
 1406ntf    nn3 8928   4.347   4.171   2.901 -0.3560 -0.5529  0.0096
 1406ntf    sn2 8929   4.233   4.095   2.978 -0.5431  0.0955  0.3813
 1406ntf    cn1 8930   4.289   4.092   3.150  0.1512  0.6407  0.1701
 1406ntf    fn4 8931   4.511   4.377   2.799 -0.0069  0.3686 -0.2285
 1406ntf    fn4 8932   4.628   4.256   2.672  0.1997 -0.0899 -0.4877
 1406ntf    fn4 8933   4.417   4.290   2.632  0.2154 -0.6350 -0.0613
 1406ntf    on5 8934   4.448   4.013   2.727  0.6687  0.0282 -0.1833
 1406ntf    on5 8935   4.584   4.107   2.914 -0.1773  0.0505 -0.1998
 1406ntf    on5 8936   4.214   3.954   2.954 -0.4045  0.2890 -0.9408
 1406ntf    on5 8937   4.115   4.178   2.968 -0.4395  0.1373 -0.6240
 1406ntf    fn4 8938   4.224   4.007   3.227 -0.3315 -0.0747 -1.0079
 1406ntf    fn4 8939   4.413   4.049   3.166 -0.1052 -0.1674  0.0153
 1406ntf    fn4 8940   4.270   4.213   3.201 -0.1808  0.6223  0.0910
 1407ntf    cn1 8941   0.810   0.376   5.951 -0.0404 -0.1336  0.5309
 1407ntf    sn2 8942   0.822   0.527   6.051  0.3254 -0.0551  0.3686
 1407ntf    nn3 8943   0.687   0.517   6.131  0.1444 -0.2204  0.0443
 1407ntf    sn2 8944   0.561   0.610   6.137  0.1761 -0.1568 -0.2675
 1407ntf    cn1 8945   0.473   0.526   6.272 -0.2121 -0.0474 -0.4525
 1407ntf    fn4 8946   0.695   0.373   5.886  0.2948 -0.1558 -0.0672
 1407ntf    fn4 8947   0.907   0.363   5.863  0.0406  0.7122  0.4848
 1407ntf    fn4 8948   0.815   0.270   6.030 -0.2559 -0.3688  0.2291
 1407ntf    on5 8949   0.939   0.510   6.134  0.5774 -0.3955 -0.0525
 1407ntf    on5 8950   0.829   0.631   5.952  1.1760 -0.0782  0.3966
 1407ntf    on5 8951   0.462   0.607   6.032 -0.2717 -0.7792  0.1687
 1407ntf    on5 8952   0.592   0.745   6.179 -0.0623 -0.2195  0.1079
 1407ntf    fn4 8953   0.493   0.396   6.259 -0.3321 -0.0982 -0.1301
 1407ntf    fn4 8954   0.497   0.563   6.397 -0.8795 -0.3501 -0.2342
 1407ntf    fn4 8955   0.346   0.555   6.250 -0.1105  0.6568 -0.1634
 1408ntf    cn1 8956   0.358   3.008   3.878 -0.0878  0.1103  0.1099
 1408ntf    sn2 8957   0.487   3.130   3.841  0.0968 -0.1011  0.0581
 1408ntf    nn3 8958   0.474   3.144   3.686  0.1984  0.1881  0.0748
 1408ntf    sn2 8959   0.388   3.251   3.608 -0.0531 -0.1056 -0.0510
 1408ntf    cn1 8960   0.314   3.127   3.498  0.4566 -0.2349 -0.2510
 1408ntf    fn4 8961   0.234   3.034   3.837 -0.1171 -0.5703 -0.2538
 1408ntf    fn4 8962   0.390   2.890   3.827 -0.3885  0.0460  0.0678
 1408ntf    fn4 8963   0.341   2.994   4.008 -0.0267  0.0382  0.1101
 1408ntf    on5 8964   0.450   3.251   3.909 -0.7635 -0.1526 -0.3148
 1408ntf    on5 8965   0.606   3.067   3.893  0.0343  0.0865  0.4322
 1408ntf    on5 8966   0.458   3.340   3.519 -0.3530  0.4196  0.2346
 1408ntf    on5 8967   0.268   3.303   3.670  0.2954  0.1436  0.4171
 1408ntf    fn4 8968   0.263   3.020   3.558  0.4980 -0.3090 -0.3474
 1408ntf    fn4 8969   0.219   3.177   3.420  0.3833  0.1677  0.0964
 1408ntf    fn4 8970   0.402   3.064   3.421  0.5162 -0.4057 -0.0443
 1409ntf    cn1 8971   5.579   4.765   3.077 -0.1405  0.2174 -0.1380
 1409ntf    sn2 8972   5.592   4.597   3.146  0.1819  0.2286 -0.1727
 1409ntf    nn3 8973   5.446   4.549   3.116  0.1161 -0.0759  0.6265
 1409ntf    sn2 8974   5.321   4.518   3.207 -0.3222  0.0215  0.0638
 1409ntf    cn1 8975   5.255   4.372   3.121 -0.2871  0.2313 -0.3223
 1409ntf    fn4 8976   5.695   4.828   3.083  0.1378 -0.3421  0.5904
 1409ntf    fn4 8977   5.550   4.758   2.949  0.4798  0.0940 -0.2751
 1409ntf    fn4 8978   5.484   4.833   3.139 -0.4043 -0.4737  0.2306
 1409ntf    on5 8979   5.685   4.528   3.060  0.0035 -0.6669  0.3510
 1409ntf    on5 8980   5.627   4.627   3.283 -0.0214 -0.3165 -0.0007
 1409ntf    on5 8981   5.221   4.622   3.203  0.3511  0.6940  0.2936
 1409ntf    on5 8982   5.355   4.477   3.341 -0.1639 -0.3103 -0.0745
 1409ntf    fn4 8983   5.334   4.266   3.131 -0.3496  0.1677 -0.4963
 1409ntf    fn4 8984   5.131   4.342   3.154 -0.1780  0.3240  0.1854
 1409ntf    fn4 8985   5.247   4.385   2.990 -0.5535 -0.0633 -0.3343
 1410ntf    cn1 8986   1.671   0.159   5.199  0.3772  0.3595 -0.2501
 1410ntf    sn2 8987   1.615   0.319   5.265 -0.1490  0.0542  0.0520
 1410ntf    nn3 8988   1.690   0.429   5.181  0.1323  0.1477  0.4246
 1410ntf    sn2 8989   1.634   0.534   5.079  0.0982 -0.1742  0.1116
 1410ntf    cn1 8990   1.787   0.582   4.993 -0.0782 -0.2134 -0.2271
 1410ntf    fn4 8991   1.675   0.166   5.067  0.1368  0.3825 -0.2566
 1410ntf    fn4 8992   1.791   0.129   5.246 -0.0110 -0.3317  0.3117
 1410ntf    fn4 8993   1.594   0.057   5.231  0.5075  0.2119 -0.4087
 1410ntf    on5 8994   1.471   0.319   5.252 -0.1263 -0.5047 -0.2118
 1410ntf    on5 8995   1.661   0.317   5.401 -0.3728 -0.0794  0.1268
 1410ntf    on5 8996   1.590   0.661   5.131 -0.0491 -0.0204 -0.3804
 1410ntf    on5 8997   1.562   0.471   4.970 -0.6911  0.1301  0.4512
 1410ntf    fn4 8998   1.817   0.484   4.909 -0.2343 -0.4541 -0.0053
 1410ntf    fn4 8999   1.761   0.692   4.924  0.5844  0.1758  0.1330
 1410ntf    fn4 9000   1.882   0.602   5.083 -0.6518  0.2344  0.2810
 1411ntf    cn1 9001   1.375   4.627   3.709  0.5863  0.5324 -0.6307
 1411ntf    sn2 9002   1.512   4.578   3.817  0.1960  0.3669 -0.2080
 1411ntf    nn3 9003   1.573   4.462   3.730 -0.2382 -0.2918  0.3565
 1411ntf    sn2 9004   1.692   4.365   3.764  0.1542 -0.0079 -0.1976
 1411ntf    cn1 9005   1.582   4.233   3.821  0.2586 -0.2094 -0.4611
 1411ntf    fn4 9006   1.288   4.701   3.776  0.3199 -0.3397 -0.0045
 1411ntf    fn4 9007   1.425   4.705   3.614  1.1011  0.6822 -0.2396
 1411ntf    fn4 9008   1.305   4.537   3.641  0.7357  0.0676 -0.1711
 1411ntf    on5 9009   1.600   4.692   3.824  0.1259  0.4176 -0.1469
 1411ntf    on5 9010   1.428   4.534   3.925  0.4174  0.3538 -0.0395
 1411ntf    on5 9011   1.775   4.396   3.878  0.0320  0.7600 -0.3054
 1411ntf    on5 9012   1.763   4.308   3.652 -0.4749 -0.6842 -0.2551
 1411ntf    fn4 9013   1.496   4.278   3.912  0.3636  0.4148 -0.6701
 1411ntf    fn4 9014   1.511   4.176   3.726 -0.3923 -0.1705 -0.0081
 1411ntf    fn4 9015   1.635   4.133   3.890 -0.2032  0.1515  0.4471
 1412ntf    cn1 9016   3.971   2.544   3.161  0.1515 -0.0289 -0.2864
 1412ntf    sn2 9017   4.037   2.699   3.095  0.1216  0.0817 -0.0593
 1412ntf    nn3 9018   4.191   2.673   3.083  0.0244 -0.5526  0.0926
 1412ntf    sn2 9019   4.265   2.607   2.961  0.1742 -0.1474 -0.0354
 1412ntf    cn1 9020   4.311   2.762   2.877 -0.0259 -0.0994 -0.0585
 1412ntf    fn4 9021   3.844   2.574   3.182 -0.0002 -0.1906 -0.9626
 1412ntf    fn4 9022   3.959   2.444   3.075 -0.6196 -0.3632  0.1906
 1412ntf    fn4 9023   4.027   2.497   3.272 -0.4837 -0.1354 -0.0070
 1412ntf    on5 9024   3.956   2.703   2.975  0.3867  0.7710 -0.2225
 1412ntf    on5 9025   4.001   2.802   3.190  0.8607  0.2035  0.0939
 1412ntf    on5 9026   4.184   2.533   2.868  0.3517 -0.5491  0.1271
 1412ntf    on5 9027   4.393   2.556   3.002  0.5190  0.4577 -0.3489
 1412ntf    fn4 9028   4.215   2.852   2.881  0.1649  0.1236 -0.5014
 1412ntf    fn4 9029   4.420   2.816   2.929 -0.2247 -0.1685  0.4394
 1412ntf    fn4 9030   4.339   2.748   2.749  0.0180 -0.1869 -0.0396
 1413ntf    cn1 9031   6.511   2.096   6.635 -0.1781  0.1354  0.4089
 1413ntf    sn2 9032   6.459   2.019   6.791  0.0475 -0.4100  0.2144
 1413ntf    nn3 9033   6.437   1.871   6.743 -0.3064 -0.0685 -0.7019
 1413ntf    sn2 9034   6.545   1.756   6.744 -0.0894  0.1383  0.1452
 1413ntf    cn1 9035   6.505   1.676   6.586  0.1468  0.0109  0.1505
 1413ntf    fn4 9036   6.413   2.086   6.547 -0.3677  0.8351  0.5338
 1413ntf    fn4 9037   6.550   2.222   6.651  0.6204 -0.0466 -0.0411
 1413ntf    fn4 9038   6.621   2.050   6.578 -0.4166 -0.1856  0.2127
 1413ntf    on5 9039   6.565   2.051   6.882 -0.2154  0.0687  0.3544
 1413ntf    on5 9040   6.327   2.069   6.820  0.2444  0.3008 -0.0956
 1413ntf    on5 9041   6.517   1.661   6.850 -0.2359 -0.0577 -0.0685
 1413ntf    on5 9042   6.685   1.781   6.721  0.0999 -0.9570  0.0684
 1413ntf    fn4 9043   6.603   1.595   6.548  0.2209  0.2531 -0.1806
 1413ntf    fn4 9044   6.390   1.611   6.581  0.1462  0.0822 -0.8273
 1413ntf    fn4 9045   6.498   1.760   6.485 -0.1299  0.2914  0.4015
 1414ntf    cn1 9046   2.009   6.703   1.193 -0.1151 -0.4515 -0.0860
 1414ntf    sn2 9047   1.899   6.565   1.147 -0.2789 -0.2909 -0.1786
 1414ntf    nn3 9048   2.000   6.469   1.074 -0.1647 -0.2292 -0.1020
 1414ntf    sn2 9049   2.090   6.354   1.130 -0.2727 -0.0942  0.3570
 1414ntf    cn1 9050   2.234   6.374   1.020 -0.5565  0.1834  0.0369
 1414ntf    fn4 9051   2.078   6.667   1.300  0.3585 -0.0187 -0.2434
 1414ntf    fn4 9052   2.102   6.731   1.103 -0.0291 -0.6678 -0.0650
 1414ntf    fn4 9053   1.944   6.815   1.220  0.5912 -0.0327 -0.1078
 1414ntf    on5 9054   1.849   6.517   1.274 -0.0687  0.5279  0.2227
 1414ntf    on5 9055   1.807   6.623   1.053 -0.0507  0.5206  0.0925
 1414ntf    on5 9056   2.026   6.234   1.083 -0.1081 -0.1805  0.3523
 1414ntf    on5 9057   2.139   6.360   1.266  0.4836  0.0754  0.0831
 1414ntf    fn4 9058   2.337   6.300   1.055 -0.1898  0.6081 -0.1389
 1414ntf    fn4 9059   2.199   6.328   0.901  0.2962 -0.2455 -0.0525
 1414ntf    fn4 9060   2.283   6.497   1.016 -0.7616  0.2723  0.2069
 1415ntf    cn1 9061   2.274   2.976   6.511  0.0521  0.0480 -0.6664
 1415ntf    sn2 9062   2.183   2.828   6.565  0.1784  0.2420  0.0948
 1415ntf    nn3 9063   2.073   2.825   6.453  0.2141 -0.1070  0.0691
 1415ntf    sn2 9064   2.062   2.721   6.336  0.2248 -0.0383  0.0067
 1415ntf    cn1 9065   1.915   2.777   6.246  0.2932  0.5819  0.2729
 1415ntf    fn4 9066   2.383   2.948   6.441  0.3267 -0.3094 -0.1106
 1415ntf    fn4 9067   2.200   3.064   6.447 -0.4465  0.2691  0.1971
 1415ntf    fn4 9068   2.315   3.039   6.620 -0.0498 -0.4612 -0.3259
 1415ntf    on5 9069   2.280   2.723   6.552  0.1833  0.2191  0.3190
 1415ntf    on5 9070   2.139   2.867   6.697  0.5419  0.2359  0.2189
 1415ntf    on5 9071   2.017   2.590   6.376  0.0474 -0.2278 -0.8014
 1415ntf    on5 9072   2.172   2.722   6.243  0.3524  0.5667  0.1618
 1415ntf    fn4 9073   1.920   2.900   6.199 -0.2764  0.5991  0.2425
 1415ntf    fn4 9074   1.899   2.693   6.144 -0.7702  0.4291  0.5518
 1415ntf    fn4 9075   1.806   2.771   6.321  0.2047 -0.2263  0.0983
 1416ntf    cn1 9076   4.950   3.923   4.468 -0.1555 -0.3889 -0.1858
 1416ntf    sn2 9077   5.126   3.915   4.510 -0.1459 -0.1893 -0.1866
 1416ntf    nn3 9078   5.202   3.944   4.376  0.1978 -0.7229 -0.1092
 1416ntf    sn2 9079   5.357   3.956   4.356  0.1286  0.1222 -0.1809
 1416ntf    cn1 9080   5.359   4.126   4.292  0.0092  0.1350 -0.1502
 1416ntf    fn4 9081   4.926   4.039   4.409  0.0980 -0.1166  0.2437
 1416ntf    fn4 9082   4.903   3.825   4.393 -0.3185 -0.0374 -0.5484
 1416ntf    fn4 9083   4.873   3.932   4.576  0.0707  0.1485 -0.0663
 1416ntf    on5 9084   5.137   4.019   4.610 -0.2425 -0.3971  0.0425
 1416ntf    on5 9085   5.130   3.776   4.546 -0.9474 -0.1091  0.2161
 1416ntf    on5 9086   5.408   3.878   4.246  0.1958  0.8757 -0.6938
 1416ntf    on5 9087   5.442   3.965   4.473  0.1748  0.3613 -0.2341
 1416ntf    fn4 9088   5.300   4.213   4.373  0.7577  0.4547  0.0578
 1416ntf    fn4 9089   5.482   4.172   4.274  0.2142 -0.2692  0.2055
 1416ntf    fn4 9090   5.298   4.145   4.176 -0.0029 -0.0467 -0.1733
 1417ntf    cn1 9091   5.791   5.577   0.658  0.1608  0.5003  0.0024
 1417ntf    sn2 9092   5.632   5.551   0.741  0.3802 -0.2223  0.1969
 1417ntf    nn3 9093   5.561   5.668   0.664 -0.0799 -1.0194 -0.6101
 1417ntf    sn2 9094   5.408   5.680   0.631 -0.2026 -0.4999  0.1431
 1417ntf    cn1 9095   5.425   5.682   0.450 -0.2292 -0.3595  0.1417
 1417ntf    fn4 9096   5.861   5.466   0.642  0.3931  0.6563 -0.0846
 1417ntf    fn4 9097   5.777   5.620   0.533 -0.0715  0.2088 -0.0734
 1417ntf    fn4 9098   5.876   5.654   0.724 -0.1333  0.7855  0.0509
 1417ntf    on5 9099   5.593   5.421   0.692  0.0822 -0.0277 -0.0855
 1417ntf    on5 9100   5.665   5.569   0.880 -0.0796  0.5471  0.2112
 1417ntf    on5 9101   5.347   5.807   0.662  0.4384 -0.2010  0.2006
 1417ntf    on5 9102   5.336   5.556   0.645  0.3335 -0.8051  0.2481
 1417ntf    fn4 9103   5.489   5.578   0.401  0.2220  0.2849 -0.6559
 1417ntf    fn4 9104   5.305   5.680   0.395 -0.0656 -0.2288 -0.2223
 1417ntf    fn4 9105   5.478   5.794   0.404 -0.3491 -0.2820  0.1915
 1418ntf    cn1 9106   6.207   3.771   4.761 -0.0546 -0.1508 -0.0496
 1418ntf    sn2 9107   6.248   3.947   4.778 -0.0652 -0.1354 -0.1810
 1418ntf    nn3 9108   6.262   3.986   4.627  0.3902  0.3343 -0.0224
 1418ntf    sn2 9109   6.176   4.077   4.532 -0.2457 -0.5000 -0.2605
 1418ntf    cn1 9110   6.152   3.985   4.377 -0.1006 -0.3615 -0.3656
 1418ntf    fn4 9111   6.084   3.747   4.719 -0.1373  0.1502  0.0133
 1418ntf    fn4 9112   6.291   3.707   4.683 -0.0445 -0.2257  0.0225
 1418ntf    fn4 9113   6.215   3.716   4.881 -0.6331  0.4428  0.2707
 1418ntf    on5 9114   6.142   4.004   4.859  0.3254 -0.1025  0.3124
 1418ntf    on5 9115   6.374   3.941   4.847 -0.3181 -0.4909  0.2611
 1418ntf    on5 9116   6.259   4.187   4.489 -0.2598 -0.2558  0.3261
 1418ntf    on5 9117   6.042   4.110   4.572  0.3071  0.3635  0.9124
 1418ntf    fn4 9118   6.116   4.067   4.279 -0.2655  0.2196  0.1737
 1418ntf    fn4 9119   6.260   3.916   4.344  0.1786  0.0448 -0.3086
 1418ntf    fn4 9120   6.053   3.897   4.383 -0.2090 -0.2134  0.0347
 1419ntf    cn1 9121   3.282   0.387   6.656  0.2952 -0.0347  0.5372
 1419ntf    sn2 9122   3.169   0.501   6.741  0.3988  0.3863  0.1124
 1419ntf    nn3 9123   3.260   0.562   6.853  0.8807 -0.6547  0.2971
 1419ntf    sn2 9124   3.342   0.695   6.866 -0.0339 -0.0315 -0.1860
 1419ntf    cn1 9125   3.217   0.816   6.920  0.1673  0.0175  0.1762
 1419ntf    fn4 9126   3.234   0.332   6.545  0.1887 -0.0497  0.5901
 1419ntf    fn4 9127   3.397   0.441   6.619  0.2681  0.0391  0.5617
 1419ntf    fn4 9128   3.319   0.281   6.726  0.2887 -0.4075 -0.0181
 1419ntf    on5 9129   3.130   0.586   6.631 -0.9339 -0.5941 -0.1945
 1419ntf    on5 9130   3.071   0.411   6.796  0.0931  0.7059  0.0936
 1419ntf    on5 9131   3.405   0.748   6.748 -0.2211 -0.2511 -0.3831
 1419ntf    on5 9132   3.422   0.682   6.985 -0.4283  0.4168  0.1319
 1419ntf    fn4 9133   3.104   0.816   6.851  0.3460  0.1549 -0.1181
 1419ntf    fn4 9134   3.177   0.800   7.045  0.6250  0.2865  0.3607
 1419ntf    fn4 9135   3.261   0.941   6.918  0.6688 -0.1618 -0.3792
 1420ntf    cn1 9136   0.396   1.037   5.057  0.0695  0.0898 -0.1292
 1420ntf    sn2 9137   0.288   1.173   5.112  0.2271  0.1785 -0.0380
 1420ntf    nn3 9138   0.149   1.101   5.104  0.2794  0.0420  0.2596
 1420ntf    sn2 9139   0.008   1.171   5.106 -0.0062 -0.5216 -0.0031
 1420ntf    cn1 9140  -0.054   1.136   4.939  0.0755  0.0907 -0.1633
 1420ntf    fn4 9141   0.521   1.078   5.040 -0.0644  0.3384 -0.5312
 1420ntf    fn4 9142   0.395   0.937   5.143 -0.1024 -0.0362 -0.2773
 1420ntf    fn4 9143   0.361   0.989   4.939  0.4631  0.5909 -0.4557
 1420ntf    on5 9144   0.348   1.189   5.242  0.5412 -0.3619 -0.1103
 1420ntf    on5 9145   0.316   1.277   5.016 -0.0597  0.2527 -0.0417
 1420ntf    on5 9146   0.019   1.314   5.114 -0.1610 -0.5231  0.2434
 1420ntf    on5 9147  -0.079   1.108   5.203  0.3080 -0.1930  0.4977
 1420ntf    fn4 9148  -0.091   1.009   4.927 -0.1168  0.0755  0.5381
 1420ntf    fn4 9149  -0.156   1.204   4.891  0.4446  0.1765 -0.8408
 1420ntf    fn4 9150   0.046   1.149   4.852  0.0936 -0.6327 -0.2568
 1421ntf    cn1 9151   5.588   6.209   0.215 -0.1514  0.1022  0.2309
 1421ntf    sn2 9152   5.758   6.266   0.243 -0.1600  0.1178  0.2488
 1421ntf    nn3 9153   5.779   6.259   0.398  0.4334 -0.2327  0.1545
 1421ntf    sn2 9154   5.731   6.352   0.515  0.2538  0.0791 -0.1663
 1421ntf    cn1 9155   5.885   6.437   0.558  0.0332  0.2187  0.3533
 1421ntf    fn4 9156   5.534   6.242   0.099 -0.6238 -0.2698  0.3401
 1421ntf    fn4 9157   5.573   6.079   0.238 -0.2183  0.1993  0.7580
 1421ntf    fn4 9158   5.507   6.266   0.303 -0.1615  0.2089  0.1525
 1421ntf    on5 9159   5.836   6.159   0.187 -0.6166  0.0654 -0.3050
 1421ntf    on5 9160   5.775   6.393   0.175  0.4162 -0.1442 -0.1085
 1421ntf    on5 9161   5.707   6.273   0.633  0.0916  0.0881 -0.1926
 1421ntf    on5 9162   5.632   6.451   0.478 -0.0626 -0.2813 -0.2948
 1421ntf    fn4 9163   5.918   6.457   0.685 -0.0854  0.3719  0.3608
 1421ntf    fn4 9164   5.989   6.371   0.511 -0.1614  0.3938 -0.3336
 1421ntf    fn4 9165   5.877   6.558   0.504 -0.1075  0.2856  0.5252
 1422ntf    cn1 9166   2.354   1.698   3.792  0.1699  0.0298  0.2044
 1422ntf    sn2 9167   2.286   1.585   3.917 -0.0031 -0.2972 -0.1817
 1422ntf    nn3 9168   2.321   1.446   3.852  0.1430 -0.2079 -0.2948
 1422ntf    sn2 9169   2.364   1.310   3.916 -0.0931 -0.0758  0.1526
 1422ntf    cn1 9170   2.221   1.212   3.861  0.1006 -0.1724 -0.1857
 1422ntf    fn4 9171   2.482   1.674   3.770 -0.0208  0.0297 -0.9694
 1422ntf    fn4 9172   2.310   1.677   3.669  0.3440  0.3133  0.0941
 1422ntf    fn4 9173   2.344   1.825   3.826 -0.3647 -0.0025  0.1814
 1422ntf    on5 9174   2.367   1.612   4.034 -0.2193 -0.1653 -0.0628
 1422ntf    on5 9175   2.145   1.615   3.915  0.0443  0.1343  1.4651
 1422ntf    on5 9176   2.359   1.295   4.059 -0.5210  0.5131  0.1990
 1422ntf    on5 9177   2.478   1.253   3.848  0.1725  0.6507 -0.0204
 1422ntf    fn4 9178   2.216   1.094   3.921 -0.0492 -0.2166 -0.2843
 1422ntf    fn4 9179   2.106   1.273   3.885 -0.3746 -0.6701 -1.1369
 1422ntf    fn4 9180   2.221   1.198   3.730 -0.0310 -0.4268 -0.1583
 1423ntf    cn1 9181   1.225   3.501   1.046 -0.0385 -0.1397  0.1057
 1423ntf    sn2 9182   1.303   3.429   1.194  0.1191  0.0513  0.1166
 1423ntf    nn3 9183   1.355   3.565   1.252 -0.0781  0.0396  0.3246
 1423ntf    sn2 9184   1.489   3.642   1.221 -0.0068 -0.0641  0.3714
 1423ntf    cn1 9185   1.418   3.795   1.152 -0.0094 -0.2513 -0.0495
 1423ntf    fn4 9186   1.307   3.580   0.979 -0.5793  0.0618 -0.3219
 1423ntf    fn4 9187   1.178   3.421   0.951 -0.9108  0.4830  0.0021
 1423ntf    fn4 9188   1.123   3.577   1.079 -0.5468 -0.4702 -0.6641
 1423ntf    on5 9189   1.195   3.370   1.269 -0.0623  0.0356 -0.1545
 1423ntf    on5 9190   1.404   3.341   1.141  0.0951 -0.5123  0.9958
 1423ntf    on5 9191   1.563   3.603   1.104  0.0137  1.5193 -0.1732
 1423ntf    on5 9192   1.563   3.684   1.337  0.5843  0.3593 -0.1532
 1423ntf    fn4 9193   1.337   3.771   1.050 -0.3664  0.5383  0.0392
 1423ntf    fn4 9194   1.347   3.851   1.249 -0.2303 -0.0294 -0.3395
 1423ntf    fn4 9195   1.509   3.880   1.107 -0.3558  0.1311 -0.0339
 1424ntf    cn1 9196   2.340   0.499   2.396  0.0453  0.3216 -0.1531
 1424ntf    sn2 9197   2.284   0.452   2.229 -0.2058  0.0685  0.0013
 1424ntf    nn3 9198   2.128   0.460   2.235 -0.2035  0.5614 -0.5290
 1424ntf    sn2 9199   2.029   0.339   2.223 -0.1410  0.4268  0.2594
 1424ntf    cn1 9200   1.964   0.362   2.055  0.0108  0.4011  0.1978
 1424ntf    fn4 9201   2.276   0.422   2.482 -0.4537  0.6456 -0.2328
 1424ntf    fn4 9202   2.471   0.483   2.409  0.1133  0.2193 -0.9079
 1424ntf    fn4 9203   2.300   0.621   2.427 -0.2730  0.1322  0.1872
 1424ntf    on5 9204   2.348   0.547   2.141  0.3551 -0.0804  0.2394
 1424ntf    on5 9205   2.335   0.318   2.218  0.5823  0.3710 -0.1099
 1424ntf    on5 9206   1.908   0.366   2.297 -0.4492 -0.3703  0.0506
 1424ntf    on5 9207   2.076   0.203   2.223 -0.3624  0.3494  0.4483
 1424ntf    fn4 9208   2.060   0.337   1.967 -0.6307 -0.5391 -0.2524
 1424ntf    fn4 9209   1.874   0.277   2.009  0.1961  0.3190 -0.0143
 1424ntf    fn4 9210   1.917   0.483   2.029 -0.3079  0.1393 -0.4755
 1425ntf    cn1 9211   1.812   3.880   5.812 -0.4842 -0.0675 -0.1415
 1425ntf    sn2 9212   1.669   3.832   5.914 -0.4592 -0.3647 -0.2462
 1425ntf    nn3 9213   1.658   3.677   5.888 -0.1741 -0.3832 -0.2624
 1425ntf    sn2 9214   1.748   3.569   5.957 -0.0315 -0.1401 -0.0655
 1425ntf    cn1 9215   1.629   3.517   6.084  0.3063  0.0866  0.3476
 1425ntf    fn4 9216   1.804   3.838   5.687  0.0076 -0.1032 -0.1630
 1425ntf    fn4 9217   1.834   4.010   5.813  0.2378 -0.1801 -0.5014
 1425ntf    fn4 9218   1.922   3.819   5.854 -0.6038 -0.5754 -0.5545
 1425ntf    on5 9219   1.704   3.863   6.050  0.1013 -0.2409 -0.4131
 1425ntf    on5 9220   1.560   3.903   5.854  0.0598  0.1214 -0.6265
 1425ntf    on5 9221   1.861   3.610   6.038  0.1940  0.1459 -0.5205
 1425ntf    on5 9222   1.766   3.458   5.867  0.1330 -0.3633  0.2389
 1425ntf    fn4 9223   1.620   3.608   6.180  0.0948 -0.0122  0.4233
 1425ntf    fn4 9224   1.511   3.482   6.036  0.2770  0.2383  0.3100
 1425ntf    fn4 9225   1.679   3.415   6.152  0.4063 -0.0616  0.0538
 1426ntf    cn1 9226   0.493   6.184   2.500  0.4079  0.5282 -0.3372
 1426ntf    sn2 9227   0.559   6.016   2.483 -0.2905  0.2132  0.0490
 1426ntf    nn3 9228   0.703   6.051   2.535 -0.1571  0.4987 -0.5037
 1426ntf    sn2 9229   0.847   6.000   2.497 -0.0695  0.3687 -0.0112
 1426ntf    cn1 9230   0.946   6.135   2.568 -0.0854  0.5556 -0.3428
 1426ntf    fn4 9231   0.513   6.222   2.625 -0.1596 -0.2506 -0.0021
 1426ntf    fn4 9232   0.561   6.269   2.424  0.4282  0.3655 -0.5005
 1426ntf    fn4 9233   0.364   6.202   2.478  0.3075 -0.2178 -0.3725
 1426ntf    on5 9234   0.483   5.929   2.570 -0.0655 -0.3850 -0.3447
 1426ntf    on5 9235   0.552   5.984   2.343 -0.5179 -0.3192  0.1797
 1426ntf    on5 9236   0.888   5.994   2.359 -0.0373 -0.3519  0.0282
 1426ntf    on5 9237   0.879   5.884   2.577 -0.0556  0.4332  0.0760
 1426ntf    fn4 9238   0.896   6.256   2.548  0.1612  0.6638 -0.3090
 1426ntf    fn4 9239   0.926   6.133   2.699 -0.0765 -0.3203 -0.3542
 1426ntf    fn4 9240   1.076   6.134   2.546  0.0040 -0.7394  0.1844
 1427ntf    cn1 9241   2.738   0.540   6.090  0.3438 -0.1059  0.0875
 1427ntf    sn2 9242   2.815   0.608   5.940 -0.1754  0.4084  0.0499
 1427ntf    nn3 9243   2.781   0.760   5.962  0.2409  0.5132 -0.0287
 1427ntf    sn2 9244   2.653   0.841   5.923 -0.0271  0.3237  0.4530
 1427ntf    cn1 9245   2.690   0.878   5.749 -0.1386  0.1201  0.3851
 1427ntf    fn4 9246   2.746   0.627   6.190  0.3550  0.3610 -0.3151
 1427ntf    fn4 9247   2.610   0.506   6.080  0.4609 -0.7847  0.7517
 1427ntf    fn4 9248   2.804   0.431   6.126 -0.3209 -0.2746  0.8486
 1427ntf    on5 9249   2.956   0.583   5.960 -0.2471  0.0566  0.1208
 1427ntf    on5 9250   2.749   0.536   5.834 -0.2045 -0.1958  0.4754
 1427ntf    on5 9251   2.650   0.968   5.991  0.6212  0.6690 -0.1468
 1427ntf    on5 9252   2.530   0.766   5.916  0.2753 -0.1420  0.0710
 1427ntf    fn4 9253   2.596   0.954   5.696 -0.2594 -0.4187 -0.1849
 1427ntf    fn4 9254   2.806   0.941   5.737 -0.2963  0.4188  0.4238
 1427ntf    fn4 9255   2.696   0.777   5.664 -0.2608  0.3301  0.1237
 1428ntf    cn1 9256   3.744   2.984   5.098  0.2539  0.1546  0.4075
 1428ntf    sn2 9257   3.906   3.025   5.170  0.4771 -0.0963  0.0505
 1428ntf    nn3 9258   3.876   3.098   5.305  0.3776  0.1567 -0.1076
 1428ntf    sn2 9259   3.945   3.215   5.384  0.2042  0.2324 -0.0655
 1428ntf    cn1 9260   3.808   3.331   5.412 -0.0625 -0.0906 -0.0180
 1428ntf    fn4 9261   3.697   3.082   5.023  0.6334  0.4189  0.5109
 1428ntf    fn4 9262   3.745   2.878   5.019  0.3892  0.5885 -0.1760
 1428ntf    fn4 9263   3.653   2.967   5.193 -0.4392 -0.6424 -0.3816
 1428ntf    on5 9264   3.962   2.897   5.203  0.0571 -0.3530 -0.2256
 1428ntf    on5 9265   3.974   3.104   5.070  0.1282 -0.4649 -0.4857
 1428ntf    on5 9266   4.036   3.293   5.304  0.0646  0.5833  0.1136
 1428ntf    on5 9267   3.995   3.163   5.509  0.0322 -0.5010 -0.3000
 1428ntf    fn4 9268   3.707   3.290   5.487 -0.1616  0.0510 -0.0729
 1428ntf    fn4 9269   3.852   3.439   5.476 -0.2433  0.2119 -0.3981
 1428ntf    fn4 9270   3.759   3.380   5.299  0.5470  0.0279 -0.2360
 1429ntf    cn1 9271   5.409   5.514   5.826  0.4463 -0.1598  0.0656
 1429ntf    sn2 9272   5.237   5.515   5.886  0.2217 -0.3441 -0.5580
 1429ntf    nn3 9273   5.202   5.363   5.902 -0.0716 -0.2315 -0.1090
 1429ntf    sn2 9274   5.084   5.293   5.977  0.0246  0.0477  0.3096
 1429ntf    cn1 9275   5.137   5.271   6.150  0.2608  0.1076  0.2448
 1429ntf    fn4 9276   5.408   5.465   5.703 -0.6841 -0.5170  0.2042
 1429ntf    fn4 9277   5.462   5.635   5.825 -0.5679  0.3021  0.0297
 1429ntf    fn4 9278   5.483   5.436   5.902  0.9412 -0.0875 -0.3362
 1429ntf    on5 9279   5.239   5.575   6.018 -0.3397 -0.5355 -0.4634
 1429ntf    on5 9280   5.163   5.582   5.782 -0.0150  0.5499  0.1711
 1429ntf    on5 9281   5.066   5.154   5.940 -0.1153  0.1206  0.1076
 1429ntf    on5 9282   4.956   5.359   5.987 -0.0680 -0.0413 -0.2593
 1429ntf    fn4 9283   5.148   5.385   6.216  0.5154  0.0700  0.2675
 1429ntf    fn4 9284   5.057   5.186   6.213 -0.0702 -0.1231 -0.4693
 1429ntf    fn4 9285   5.261   5.225   6.159  0.4050  0.4872  0.2125
 1430ntf    cn1 9286   2.090   5.559   1.276  0.3287  0.2407 -0.2604
 1430ntf    sn2 9287   2.116   5.549   1.096 -0.1808 -0.0368 -0.3175
 1430ntf    nn3 9288   2.000   5.448   1.064  0.3119 -0.7343  0.0705
 1430ntf    sn2 9289   1.976   5.352   0.942 -0.0667 -0.6004  0.0373
 1430ntf    cn1 9290   1.987   5.195   1.031 -0.1839 -0.6300 -0.0003
 1430ntf    fn4 9291   2.038   5.450   1.329  0.2417  0.4343  0.0503
 1430ntf    fn4 9292   2.197   5.599   1.343 -0.1992  0.5972  0.3688
 1430ntf    fn4 9293   1.999   5.654   1.291  0.7140  0.5668  0.0359
 1430ntf    on5 9294   2.084   5.683   1.053  0.4555  0.3846  0.4912
 1430ntf    on5 9295   2.255   5.513   1.090 -0.2048 -0.1776 -0.0218
 1430ntf    on5 9296   2.082   5.341   0.845 -0.1591 -0.0515 -0.1306
 1430ntf    on5 9297   1.840   5.355   0.893 -0.0708 -0.4669  0.0561
 1430ntf    fn4 9298   1.939   5.089   0.968 -0.6350 -0.4471  0.0340
 1430ntf    fn4 9299   2.114   5.166   1.056  0.0053 -0.1577 -0.4081
 1430ntf    fn4 9300   1.919   5.205   1.144  0.3891  0.0425  0.2952
 1431ntf    cn1 9301   2.949   1.599   0.455  0.2245 -0.0731 -0.1737
 1431ntf    sn2 9302   3.126   1.617   0.491  0.1673  0.1814 -0.0167
 1431ntf    nn3 9303   3.182   1.623   0.344  0.2897 -0.1380  0.0146
 1431ntf    sn2 9304   3.217   1.738   0.243 -0.0103  0.2107  0.3038
 1431ntf    cn1 9305   3.364   1.672   0.159 -0.2430  0.2134 -0.1048
 1431ntf    fn4 9306   2.895   1.713   0.415  0.3708 -0.0484 -0.3022
 1431ntf    fn4 9307   2.921   1.515   0.356 -0.2311  0.1838 -0.2627
 1431ntf    fn4 9308   2.888   1.555   0.564  0.1747  0.3086 -0.0471
 1431ntf    on5 9309   3.135   1.733   0.575 -0.1553  0.1242  0.0981
 1431ntf    on5 9310   3.163   1.492   0.554 -0.9435  0.1441  0.5751
 1431ntf    on5 9311   3.262   1.861   0.305  0.1601  0.5403 -0.4604
 1431ntf    on5 9312   3.116   1.744   0.141 -0.1311 -0.8695  0.3490
 1431ntf    fn4 9313   3.416   1.761   0.077  0.7022 -0.2925 -0.0724
 1431ntf    fn4 9314   3.457   1.658   0.252 -0.2890 -0.3761 -0.1401
 1431ntf    fn4 9315   3.354   1.552   0.103 -0.4894  0.1901 -0.0112
 1432ntf    cn1 9316   2.923   4.827   6.499 -0.1221 -0.1262  0.0201
 1432ntf    sn2 9317   3.084   4.881   6.435 -0.1485  0.0470  0.0982
 1432ntf    nn3 9318   3.187   4.790   6.511  0.0758  0.4548  0.2926
 1432ntf    sn2 9319   3.244   4.802   6.656  0.0132 -0.1808  0.3729
 1432ntf    cn1 9320   3.403   4.890   6.661 -0.1604  0.1446  0.1211
 1432ntf    fn4 9321   2.928   4.789   6.626  0.3742 -0.1678 -0.0111
 1432ntf    fn4 9322   2.835   4.926   6.491  0.0807  0.0494 -0.0508
 1432ntf    fn4 9323   2.867   4.724   6.439 -0.3048  0.0639 -0.1391
 1432ntf    on5 9324   3.073   4.844   6.296 -0.5210 -0.3261  0.2277
 1432ntf    on5 9325   3.091   5.023   6.461 -0.5851 -0.0417  0.7069
 1432ntf    on5 9326   3.281   4.672   6.707 -0.0741 -0.3222  0.0777
 1432ntf    on5 9327   3.158   4.872   6.748 -0.1313 -0.4303  0.4307
 1432ntf    fn4 9328   3.385   5.013   6.614 -0.3565  0.0290 -0.1070
 1432ntf    fn4 9329   3.461   4.899   6.779 -0.3436  0.6186  0.1769
 1432ntf    fn4 9330   3.493   4.841   6.577 -0.2838 -0.1006  0.1337
 1433ntf    cn1 9331   5.571   6.824   1.494 -0.5598 -0.9640  0.1623
 1433ntf    sn2 9332   5.484   6.943   1.600  0.3313 -0.1017 -0.0618
 1433ntf    nn3 9333   5.540   7.077   1.538  0.5667 -0.1374  0.0704
 1433ntf    sn2 9334   5.475   7.218   1.557 -0.1133 -0.4650  0.2414
 1433ntf    cn1 9335   5.387   7.240   1.400  0.0919  0.5742  0.2645
 1433ntf    fn4 9336   5.613   6.889   1.386 -0.3901  0.0236  0.8139
 1433ntf    fn4 9337   5.679   6.769   1.547 -0.2648 -0.2984  0.2623
 1433ntf    fn4 9338   5.495   6.727   1.446 -0.2693 -1.0135 -0.2078
 1433ntf    on5 9339   5.349   6.906   1.568  0.4101 -0.3307 -0.1331
 1433ntf    on5 9340   5.533   6.907   1.731 -0.9173 -0.1709  0.3943
 1433ntf    on5 9341   5.587   7.309   1.543 -0.3724 -0.2329 -0.3674
 1433ntf    on5 9342   5.383   7.236   1.667 -0.2211  0.2593  0.0418
 1433ntf    fn4 9343   5.375   7.366   1.359  0.3854  0.4185 -0.3046
 1433ntf    fn4 9344   5.459   7.189   1.302  0.1517  1.0078  0.0805
 1433ntf    fn4 9345   5.273   7.173   1.389  0.7197 -0.4597 -0.0096
 1434ntf    cn1 9346   1.087   1.770   0.485 -0.3825 -0.0601  0.1216
 1434ntf    sn2 9347   1.034   1.640   0.370 -0.2730  0.0948 -0.1053
 1434ntf    nn3 9348   0.921   1.714   0.290  0.3464  1.2272  0.0419
 1434ntf    sn2 9349   0.881   1.700   0.138 -0.2711 -0.0046  0.3075
 1434ntf    cn1 9350   0.744   1.581   0.153  0.1868 -0.5688  0.0269
 1434ntf    fn4 9351   1.159   1.728   0.587 -0.0446  0.5658  0.1505
 1434ntf    fn4 9352   1.171   1.848   0.418  0.0811 -0.5207  0.1647
 1434ntf    fn4 9353   0.986   1.836   0.539 -0.4263 -0.0030 -0.0298
 1434ntf    on5 9354   1.157   1.610   0.300 -0.1974 -0.1489  0.1323
 1434ntf    on5 9355   0.990   1.538   0.461  0.4260  0.3073  0.4755
 1434ntf    on5 9356   0.973   1.635   0.049 -0.2397  0.6669 -0.1485
 1434ntf    on5 9357   0.810   1.814   0.085  0.1855 -0.0716 -0.4532
 1434ntf    fn4 9358   0.681   1.564   0.038 -0.8295 -0.4494  0.5526
 1434ntf    fn4 9359   0.775   1.457   0.189  0.5197 -0.4663  0.0934
 1434ntf    fn4 9360   0.648   1.622   0.234  0.1998 -0.0755 -0.2053
 1435ntf    cn1 9361   2.257   0.092   0.612 -0.1459 -0.3901  0.4020
 1435ntf    sn2 9362   2.194   0.228   0.716  0.2286  0.0488  0.0570
 1435ntf    nn3 9363   2.268   0.345   0.642  0.0729  0.4623  0.5510
 1435ntf    sn2 9364   2.409   0.412   0.659  0.3778 -0.0937  0.2711
 1435ntf    cn1 9365   2.482   0.400   0.494 -0.4589  0.2454 -0.1329
 1435ntf    fn4 9366   2.238   0.125   0.486 -0.1454  0.2137  0.5563
 1435ntf    fn4 9367   2.384   0.062   0.632  0.0776  0.3712  0.1600
 1435ntf    fn4 9368   2.184  -0.017   0.628 -0.1122 -0.4807 -0.0632
 1435ntf    on5 9369   2.054   0.224   0.685  0.3222 -0.3116 -0.3420
 1435ntf    on5 9370   2.242   0.206   0.850  0.1370 -0.3946  0.0189
 1435ntf    on5 9371   2.505   0.341   0.740  0.8742  0.5435  0.2496
 1435ntf    on5 9372   2.408   0.555   0.680  0.4937  0.0005 -0.3657
 1435ntf    fn4 9373   2.610   0.432   0.504 -0.2965 -0.1581 -0.8012
 1435ntf    fn4 9374   2.474   0.275   0.450  0.2307  0.1338  0.0410
 1435ntf    fn4 9375   2.434   0.478   0.399 -0.1374  0.6581  0.0411
 1436ntf    cn1 9376   5.970   5.846   3.569  0.0135 -0.1949 -0.0065
 1436ntf    sn2 9377   6.126   5.939   3.577  0.0889 -0.2915 -0.2986
 1436ntf    nn3 9378   6.084   6.076   3.513  0.2574 -0.2613 -0.3424
 1436ntf    sn2 9379   6.169   6.201   3.470 -0.1622 -0.0338 -0.5079
 1436ntf    cn1 9380   6.137   6.217   3.291 -0.4472  0.0173 -0.4526
 1436ntf    fn4 9381   5.986   5.738   3.643  0.2507 -0.2365 -0.1163
 1436ntf    fn4 9382   5.872   5.911   3.629  0.1583 -0.4273  0.4881
 1436ntf    fn4 9383   5.924   5.807   3.451 -0.1262 -0.8640  0.2629
 1436ntf    on5 9384   6.154   5.956   3.718 -0.4132  0.7413 -0.3123
 1436ntf    on5 9385   6.217   5.860   3.499  0.3363 -0.4893  0.1836
 1436ntf    on5 9386   6.310   6.176   3.481 -0.0966  0.4691 -0.1834
 1436ntf    on5 9387   6.116   6.323   3.527  0.1815  0.0416 -0.3497
 1436ntf    fn4 9388   6.218   6.304   3.234 -0.2547 -0.0261 -0.2439
 1436ntf    fn4 9389   6.160   6.104   3.227  0.6460  0.1907 -0.3760
 1436ntf    fn4 9390   6.014   6.253   3.258 -0.4111  0.7478  0.1760
 1437ntf    cn1 9391   2.774   3.673   1.592  0.2038 -0.1989 -0.0581
 1437ntf    sn2 9392   2.889   3.547   1.655  0.2688 -0.0438  0.1333
 1437ntf    nn3 9393   2.871   3.569   1.810 -0.1796  0.5868 -0.0044
 1437ntf    sn2 9394   2.785   3.498   1.920  0.0958  0.4595  0.1281
 1437ntf    cn1 9395   2.910   3.433   2.035  0.3088  0.3131 -0.1846
 1437ntf    fn4 9396   2.822   3.794   1.613 -0.4688  0.1334 -0.4140
 1437ntf    fn4 9397   2.756   3.664   1.461  0.6972 -0.0871 -0.1351
 1437ntf    fn4 9398   2.657   3.675   1.654  0.3238 -0.6785  0.1915
 1437ntf    on5 9399   2.835   3.420   1.615 -0.2899  0.1853  0.1519
 1437ntf    on5 9400   3.018   3.583   1.602  0.2559 -0.2346 -0.0260
 1437ntf    on5 9401   2.715   3.380   1.876  0.3214  0.6557 -0.7751
 1437ntf    on5 9402   2.708   3.588   2.003 -0.4001  0.2561 -0.1086
 1437ntf    fn4 9403   2.858   3.383   2.146 -0.2363  1.0990 -0.0772
 1437ntf    fn4 9404   2.981   3.338   1.976  0.4535  0.3143 -0.0138
 1437ntf    fn4 9405   2.994   3.529   2.070  0.3415  0.1753  0.1259
 1438ntf    cn1 9406   0.695   0.418   5.459 -0.3360 -0.3493  0.1378
 1438ntf    sn2 9407   0.585   0.354   5.329  0.0754 -0.4747 -0.1505
 1438ntf    nn3 9408   0.657   0.404   5.199 -0.6982  0.2385 -0.3075
 1438ntf    sn2 9409   0.706   0.320   5.076 -0.0886 -0.1894  0.2243
 1438ntf    cn1 9410   0.886   0.339   5.095 -0.0833 -0.0150  0.0050
 1438ntf    fn4 9411   0.662   0.368   5.577  0.1656 -0.2987  0.3007
 1438ntf    fn4 9412   0.817   0.372   5.436 -0.1595  0.0010  0.3550
 1438ntf    fn4 9413   0.711   0.549   5.462 -0.0877 -0.3756  0.0112
 1438ntf    on5 9414   0.582   0.211   5.351  0.7708 -0.3554  0.7620
 1438ntf    on5 9415   0.467   0.431   5.359  0.4699 -0.0448  0.3254
 1438ntf    on5 9416   0.687   0.392   4.953 -0.1534  0.0542  0.3772
 1438ntf    on5 9417   0.685   0.177   5.085 -0.4001 -0.1382  0.3001
 1438ntf    fn4 9418   0.943   0.271   5.193  0.2260  0.1128 -0.0869
 1438ntf    fn4 9419   0.951   0.290   4.990 -0.6406  0.0371 -0.3700
 1438ntf    fn4 9420   0.920   0.465   5.111 -0.3222  0.0904 -0.3096
 1439ntf    cn1 9421   1.398   1.250   5.436 -0.2422 -0.2458 -0.1379
 1439ntf    sn2 9422   1.234   1.301   5.376 -0.2591 -0.0123  0.1037
 1439ntf    nn3 9423   1.274   1.318   5.225 -0.0233  0.0898  0.1781
 1439ntf    sn2 9424   1.315   1.454   5.157 -0.0319  0.0203  0.0352
 1439ntf    cn1 9425   1.171   1.489   5.052 -0.1313  0.0599  0.1839
 1439ntf    fn4 9426   1.421   1.137   5.371  0.1213 -0.0682 -0.3199
 1439ntf    fn4 9427   1.498   1.330   5.403 -0.5447  0.1808 -0.0303
 1439ntf    fn4 9428   1.404   1.231   5.567  0.3800  0.1981 -0.0997
 1439ntf    on5 9429   1.144   1.193   5.406 -0.5419  0.1395 -0.1956
 1439ntf    on5 9430   1.201   1.422   5.447 -0.4429 -0.0108  0.0155
 1439ntf    on5 9431   1.418   1.435   5.057 -0.0216 -0.1622  0.0787
 1439ntf    on5 9432   1.324   1.576   5.233  0.1448  0.1949 -0.2628
 1439ntf    fn4 9433   1.198   1.592   4.973 -0.5893  0.4736  0.5651
 1439ntf    fn4 9434   1.140   1.392   4.968  0.1834  0.2361 -0.1370
 1439ntf    fn4 9435   1.063   1.515   5.123  0.2320 -0.0472  0.7830
 1440ntf    cn1 9436   2.443   6.297   5.668 -0.0513  0.4549 -0.1399
 1440ntf    sn2 9437   2.553   6.153   5.682 -0.2872  0.3311  0.4552
 1440ntf    nn3 9438   2.493   6.096   5.816 -0.3371 -0.4455  0.1033
 1440ntf    sn2 9439   2.563   6.009   5.926 -0.2329 -0.0811  0.3263
 1440ntf    cn1 9440   2.431   5.889   5.960 -0.0671 -0.2915  0.2369
 1440ntf    fn4 9441   2.316   6.261   5.673  0.1358 -0.1566  0.3404
 1440ntf    fn4 9442   2.470   6.389   5.759 -0.1953  0.2451  0.1148
 1440ntf    fn4 9443   2.444   6.355   5.549  0.1882 -0.4456 -0.5872
 1440ntf    on5 9444   2.519   6.073   5.567 -0.3655  0.0991  0.6389
 1440ntf    on5 9445   2.690   6.198   5.689 -0.3709  0.6470  0.0633
 1440ntf    on5 9446   2.579   6.082   6.049  0.1441  0.4288 -0.0212
 1440ntf    on5 9447   2.669   5.922   5.880 -0.1663  0.2339 -0.1248
 1440ntf    fn4 9448   2.405   5.810   5.857 -0.7498  0.2004  0.0232
 1440ntf    fn4 9449   2.456   5.806   6.059  0.2194 -0.6887 -0.1668
 1440ntf    fn4 9450   2.313   5.943   5.987 -0.1907 -0.3813 -0.1148
 1441ntf    cn1 9451   5.487   4.249   5.849  0.2941  0.2118 -0.1633
 1441ntf    sn2 9452   5.622   4.130   5.870  0.1634  0.1012  0.0591
 1441ntf    nn3 9453   5.652   4.102   5.719 -0.8146  0.3362 -0.1815
 1441ntf    sn2 9454   5.592   3.987   5.629 -0.5822 -0.0063  0.0989
 1441ntf    cn1 9455   5.695   3.840   5.654 -0.2175  0.2501  0.1142
 1441ntf    fn4 9456   5.450   4.301   5.965 -0.2182  0.2834 -0.3554
 1441ntf    fn4 9457   5.524   4.353   5.776  0.8740  0.2657  0.2046
 1441ntf    fn4 9458   5.376   4.198   5.798  0.3396 -0.0738  0.0247
 1441ntf    on5 9459   5.725   4.198   5.946 -0.0074 -0.1309  0.4984
 1441ntf    on5 9460   5.546   4.029   5.938  0.1518  0.0906  0.0305
 1441ntf    on5 9461   5.608   4.013   5.489  0.1668 -0.1939  0.1478
 1441ntf    on5 9462   5.460   3.941   5.666 -0.4600  0.0316  0.5927
 1441ntf    fn4 9463   5.638   3.725   5.623  0.0008  0.2876 -0.4352
 1441ntf    fn4 9464   5.815   3.854   5.599 -0.1379 -0.4506  0.0995
 1441ntf    fn4 9465   5.734   3.833   5.781 -0.7289 -0.4926  0.2366
 1442ntf    cn1 9466   0.996   4.610   4.516  0.2579 -0.1844  0.2542
 1442ntf    sn2 9467   0.861   4.720   4.569  0.0456 -0.1575 -0.3332
 1442ntf    nn3 9468   0.928   4.850   4.511  0.3753  0.0075  0.3963
 1442ntf    sn2 9469   0.853   4.979   4.464  0.1614 -0.2976 -0.1092
 1442ntf    cn1 9470   0.858   4.964   4.283 -0.0871  0.0475 -0.1470
 1442ntf    fn4 9471   1.113   4.673   4.520  0.0413  0.2250  0.1749
 1442ntf    fn4 9472   0.999   4.509   4.602 -0.2328  0.1087  0.6209
 1442ntf    fn4 9473   0.978   4.555   4.397  0.3011 -0.2210  0.2646
 1442ntf    on5 9474   0.751   4.665   4.494 -0.8087  0.3530  0.5195
 1442ntf    on5 9475   0.855   4.719   4.714 -0.1524 -0.2598 -0.3420
 1442ntf    on5 9476   0.936   5.093   4.493  0.0631 -0.3205  0.2657
 1442ntf    on5 9477   0.714   4.995   4.501  0.3862  0.0763  0.5925
 1442ntf    fn4 9478   0.976   4.998   4.235 -0.1239  0.3904  0.0058
 1442ntf    fn4 9479   0.829   4.841   4.242 -0.4674 -0.0285  0.3350
 1442ntf    fn4 9480   0.781   5.051   4.220  0.3155  0.1501 -0.4997
 1443ntf    cn1 9481   4.287   0.514   0.912 -0.0737 -0.3138  0.2605
 1443ntf    sn2 9482   4.134   0.589   0.848 -0.0541 -0.3664  0.1530
 1443ntf    nn3 9483   4.170   0.599   0.696 -0.3608  0.3059  0.1228
 1443ntf    sn2 9484   4.089   0.539   0.576 -0.0175 -0.0460  0.0643
 1443ntf    cn1 9485   4.132   0.363   0.585 -0.6480 -0.1933  0.2416
 1443ntf    fn4 9486   4.389   0.597   0.899 -0.5212  0.1318 -0.4620
 1443ntf    fn4 9487   4.273   0.466   1.035  0.3317  0.4562  0.6107
 1443ntf    fn4 9488   4.310   0.404   0.842  0.7621  0.2888 -0.4121
 1443ntf    on5 9489   4.025   0.505   0.890 -0.1351 -0.4981 -0.3145
 1443ntf    on5 9490   4.134   0.715   0.918  0.4270 -0.2552 -0.0410
 1443ntf    on5 9491   4.149   0.588   0.454  0.0114 -0.3491 -0.0455
 1443ntf    on5 9492   3.946   0.550   0.592 -0.0305  0.1151 -0.1609
 1443ntf    fn4 9493   4.260   0.343   0.613 -0.5653  0.7916  0.5912
 1443ntf    fn4 9494   4.060   0.292   0.671 -0.0132 -0.7019  0.3678
 1443ntf    fn4 9495   4.111   0.306   0.468 -0.1467 -0.0967  0.1015
 1444ntf    cn1 9496   1.403   2.012   1.369 -0.1065  0.2658  0.4673
 1444ntf    sn2 9497   1.546   2.124   1.355  0.0042  0.0830  0.1072
 1444ntf    nn3 9498   1.627   2.066   1.234 -0.3178 -0.3403  0.0909
 1444ntf    sn2 9499   1.737   1.955   1.239 -0.0301 -0.0606 -0.0174
 1444ntf    cn1 9500   1.878   2.060   1.193 -0.0850  0.1190  0.2228
 1444ntf    fn4 9501   1.332   2.006   1.257 -0.3606 -0.2093  0.6506
 1444ntf    fn4 9502   1.429   1.889   1.408 -0.4248 -0.0930 -0.4137
 1444ntf    fn4 9503   1.312   2.055   1.455 -0.3285  0.1592  0.2878
 1444ntf    on5 9504   1.486   2.253   1.332 -1.0781 -0.3468  0.4188
 1444ntf    on5 9505   1.605   2.102   1.485 -0.5480 -0.1684  0.3193
 1444ntf    on5 9506   1.729   1.859   1.132  1.0171  0.1685 -0.3121
 1444ntf    on5 9507   1.780   1.907   1.368  0.1059 -0.2394 -0.1283
 1444ntf    fn4 9508   1.898   2.152   1.286 -0.6511  0.1554  0.3146
 1444ntf    fn4 9509   1.985   1.982   1.190 -0.1124  0.0764  0.3449
 1444ntf    fn4 9510   1.867   2.121   1.076  0.8324 -0.0030  0.0599
 1445ntf    cn1 9511   6.306   0.269   2.864  0.1332  0.2562  0.2175
 1445ntf    sn2 9512   6.149   0.358   2.849 -0.0287 -0.0089  0.3211
 1445ntf    nn3 9513   6.096   0.314   2.708  0.4548 -0.3931  0.2573
 1445ntf    sn2 9514   6.166   0.311   2.567  0.2438  0.3068  0.1319
 1445ntf    cn1 9515   6.070   0.435   2.474 -0.5505 -0.2709  0.1737
 1445ntf    fn4 9516   6.295   0.156   2.795  0.0353  0.3926  0.0075
 1445ntf    fn4 9517   6.410   0.337   2.819  0.6894 -0.6932  0.0301
 1445ntf    fn4 9518   6.342   0.239   2.988 -0.3876  0.0214  0.3138
 1445ntf    on5 9519   6.073   0.305   2.959 -0.4809  0.1826  0.1077
 1445ntf    on5 9520   6.181   0.498   2.861  0.3490 -0.0348 -0.3499
 1445ntf    on5 9521   6.146   0.198   2.480 -0.1882  0.2126  0.3464
 1445ntf    on5 9522   6.297   0.372   2.568  0.3783  0.0170  0.3489
 1445ntf    fn4 9523   6.127   0.473   2.361 -0.1164 -0.6809  0.2522
 1445ntf    fn4 9524   5.954   0.385   2.432 -0.6511  0.1862 -0.0902
 1445ntf    fn4 9525   6.051   0.544   2.546  0.1245 -0.2308  0.2960
 1446ntf    cn1 9526   4.180   1.003   4.475  0.4388 -0.1345 -0.1743
 1446ntf    sn2 9527   4.108   1.104   4.342  0.0486 -0.0190  0.1246
 1446ntf    nn3 9528   4.085   0.983   4.245  0.2060 -0.2464  0.3672
 1446ntf    sn2 9529   4.157   0.942   4.111  0.1692  0.3414  0.1632
 1446ntf    cn1 9530   4.150   0.762   4.134 -0.4207  0.3212 -0.1474
 1446ntf    fn4 9531   4.173   1.066   4.592  0.9874 -0.5158  0.0691
 1446ntf    fn4 9532   4.136   0.880   4.495  0.1979 -0.0247 -0.0238
 1446ntf    fn4 9533   4.311   0.991   4.455  0.4848 -0.1482  0.1163
 1446ntf    on5 9534   3.990   1.166   4.399  0.0514  0.1388 -0.0428
 1446ntf    on5 9535   4.211   1.197   4.305 -0.2895  0.2240 -0.2131
 1446ntf    on5 9536   4.298   0.971   4.106  0.2991 -0.3481 -0.2726
 1446ntf    on5 9537   4.079   0.968   3.992  0.3022 -0.3723 -0.0825
 1446ntf    fn4 9538   4.207   0.701   4.031  0.1310 -0.3335  0.5327
 1446ntf    fn4 9539   4.207   0.717   4.244 -0.3719 -0.0227 -0.3104
 1446ntf    fn4 9540   4.026   0.717   4.141 -0.2258 -0.1195  0.5422
 1447ntf    cn1 9541   0.777   0.747   1.136 -0.3183  0.1783  0.2545
 1447ntf    sn2 9542   0.697   0.778   0.976  0.2530  0.1958 -0.0306
 1447ntf    nn3 9543   0.555   0.803   1.038  0.3132  0.1494  0.1268
 1447ntf    sn2 9544   0.451   0.909   0.988 -0.0564 -0.3043 -0.0698
 1447ntf    cn1 9545   0.308   0.803   0.947  0.0181 -0.4866  0.1419
 1447ntf    fn4 9546   0.896   0.689   1.124 -0.5874 -0.1997 -0.6362
 1447ntf    fn4 9547   0.793   0.859   1.205 -0.3469 -0.0841  0.6947
 1447ntf    fn4 9548   0.704   0.666   1.212  0.0874 -0.5274 -0.0975
 1447ntf    on5 9549   0.765   0.901   0.944 -0.0756  0.1810 -0.7991
 1447ntf    on5 9550   0.709   0.657   0.898  0.5813  0.6233 -0.6472
 1447ntf    on5 9551   0.484   0.967   0.860  0.0015  0.2128  0.1769
 1447ntf    on5 9552   0.400   1.000   1.087 -0.0993 -0.1828 -0.2038
 1447ntf    fn4 9553   0.247   0.766   1.059 -0.0709 -0.3020  0.1553
 1447ntf    fn4 9554   0.224   0.871   0.872  0.2151  0.1438  0.4773
 1447ntf    fn4 9555   0.354   0.695   0.885 -0.1081 -0.5541  0.1665
 1448ntf    cn1 9556   4.993   4.255   1.729  0.1750 -0.2495 -0.0404
 1448ntf    sn2 9557   4.931   4.119   1.626  0.2908 -0.3947  0.0800
 1448ntf    nn3 9558   4.909   4.203   1.495 -0.0097 -0.5339  0.0403
 1448ntf    sn2 9559   4.843   4.146   1.364  0.0738  0.1751 -0.3158
 1448ntf    cn1 9560   4.691   4.245   1.369 -0.2724 -0.3755  0.3730
 1448ntf    fn4 9561   4.908   4.356   1.732  0.3916 -0.0801  0.5386
 1448ntf    fn4 9562   5.002   4.205   1.852 -0.3442 -0.1291  0.0488
 1448ntf    fn4 9563   5.111   4.308   1.701 -0.0753  0.5364  0.3634
 1448ntf    on5 9564   5.040   4.025   1.622  0.3471 -0.3375  0.2613
 1448ntf    on5 9565   4.806   4.071   1.681  0.5744 -0.4983  0.6391
 1448ntf    on5 9566   4.788   4.013   1.367  0.5007  0.0050  0.6145
 1448ntf    on5 9567   4.911   4.183   1.243  0.6548 -0.3797 -0.1701
 1448ntf    fn4 9568   4.710   4.376   1.366 -0.2764 -0.3689  0.6222
 1448ntf    fn4 9569   4.612   4.204   1.271  0.5904  0.2902 -0.6277
 1448ntf    fn4 9570   4.620   4.222   1.478 -0.1448 -1.0147  0.3249
 1449ntf    cn1 9571   2.300   5.729   4.290  0.1712  0.0761  0.0253
 1449ntf    sn2 9572   2.381   5.874   4.217 -0.2245  0.2736 -0.0254
 1449ntf    nn3 9573   2.488   5.911   4.326 -0.0788 -0.4683  0.0862
 1449ntf    sn2 9574   2.540   6.052   4.371 -0.8055 -0.1099 -0.1834
 1449ntf    cn1 9575   2.718   6.023   4.346 -0.6903  0.4162  0.0199
 1449ntf    fn4 9576   2.233   5.759   4.401 -0.0788 -0.3868  0.0000
 1449ntf    fn4 9577   2.211   5.667   4.215 -0.1170  0.0714  0.3675
 1449ntf    fn4 9578   2.385   5.633   4.322  0.4645  0.1976 -0.3930
 1449ntf    on5 9579   2.445   5.826   4.096 -0.1856  0.1755  0.0346
 1449ntf    on5 9580   2.276   5.972   4.201 -0.5647 -0.0016  0.5130
 1449ntf    on5 9581   2.532   6.081   4.512 -0.0706 -0.1528 -0.1279
 1449ntf    on5 9582   2.505   6.159   4.282 -0.0527  0.1238 -0.2003
 1449ntf    fn4 9583   2.783   6.112   4.274  0.2694  0.1772  0.5747
 1449ntf    fn4 9584   2.776   6.020   4.464 -0.1842  0.0976 -0.2374
 1449ntf    fn4 9585   2.740   5.902   4.298  0.5960  0.6676 -0.0448
 1450ntf    cn1 9586   1.427   5.180   3.194 -0.2409 -0.1999  0.2557
 1450ntf    sn2 9587   1.572   5.169   3.085 -0.3240  0.1257  0.1124
 1450ntf    nn3 9588   1.527   5.286   2.990 -0.0300  0.2406  0.1129
 1450ntf    sn2 9589   1.539   5.305   2.834 -0.2538  0.0099  0.0666
 1450ntf    cn1 9590   1.665   5.436   2.834  0.0910 -0.3188 -0.1711
 1450ntf    fn4 9591   1.314   5.179   3.125 -0.0962  0.5063 -0.0030
 1450ntf    fn4 9592   1.434   5.079   3.279  0.3655 -0.4508 -0.0849
 1450ntf    fn4 9593   1.428   5.288   3.271 -0.1066  0.2286 -0.3448
 1450ntf    on5 9594   1.685   5.203   3.167 -0.3651  0.3363  0.0830
 1450ntf    on5 9595   1.553   5.038   3.029 -0.5946  0.2505 -0.0898
 1450ntf    on5 9596   1.423   5.365   2.773 -0.5836 -0.7520 -0.0752
 1450ntf    on5 9597   1.610   5.201   2.763 -0.4406 -0.0662 -0.0086
 1450ntf    fn4 9598   1.619   5.540   2.902  0.6947  0.0921 -0.3873
 1450ntf    fn4 9599   1.783   5.399   2.883  0.3602  0.2062 -0.4182
 1450ntf    fn4 9600   1.692   5.476   2.712  0.3181  0.2657  0.0684
 1451ntf    cn1 9601   3.015   3.496   3.162 -0.0846  0.5503  0.1667
 1451ntf    sn2 9602   2.893   3.377   3.226  0.3707 -0.0133 -0.0101
 1451ntf    nn3 9603   2.981   3.260   3.282  0.1199 -0.1569  0.0852
 1451ntf    sn2 9604   3.034   3.137   3.198 -0.0330 -0.0941 -0.1032
 1451ntf    cn1 9605   2.892   3.024   3.195  0.1379 -0.3080 -0.1422
 1451ntf    fn4 9606   3.086   3.440   3.065 -0.6816 -0.1839  0.1468
 1451ntf    fn4 9607   2.951   3.603   3.117 -0.4379  0.0578 -0.5292
 1451ntf    fn4 9608   3.096   3.542   3.255 -0.0225 -0.4688  0.6255
 1451ntf    on5 9609   2.831   3.452   3.332 -0.3285  0.2160 -0.5741
 1451ntf    on5 9610   2.809   3.342   3.114 -0.5773  0.2889  0.5970
 1451ntf    on5 9611   3.133   3.066   3.274 -0.0017  0.5457  0.4697
 1451ntf    on5 9612   3.061   3.165   3.060  0.1411  0.0210 -0.0464
 1451ntf    fn4 9613   2.920   2.907   3.140 -0.8400 -0.4856 -0.2943
 1451ntf    fn4 9614   2.844   2.999   3.316 -0.7272 -0.7002 -0.5554
 1451ntf    fn4 9615   2.789   3.066   3.123  0.4118  0.1400 -0.2726
 1452ntf    cn1 9616   3.111   5.823   4.470 -0.1514  0.0515 -0.2298
 1452ntf    sn2 9617   3.182   5.729   4.609 -0.1422  0.0362 -0.2450
 1452ntf    nn3 9618   3.277   5.839   4.669 -0.3904  0.0372  0.1444
 1452ntf    sn2 9619   3.429   5.850   4.630 -0.3846  0.2351  0.2192
 1452ntf    cn1 9620   3.444   6.030   4.647  0.3560  0.2308 -0.3338
 1452ntf    fn4 9621   3.037   5.748   4.391 -0.4258 -0.2533  0.3092
 1452ntf    fn4 9622   3.028   5.919   4.507 -0.0298  0.0935 -0.0592
 1452ntf    fn4 9623   3.210   5.878   4.401  0.2316  0.0765  0.3214
 1452ntf    on5 9624   3.069   5.705   4.694  0.2388  0.1033  0.2883
 1452ntf    on5 9625   3.254   5.620   4.548 -0.2907 -0.1191 -0.1409
 1452ntf    on5 9626   3.459   5.835   4.490 -1.1268  0.2468  0.0519
 1452ntf    on5 9627   3.517   5.789   4.726 -0.1634 -0.1613 -0.2290
 1452ntf    fn4 9628   3.557   6.089   4.612  0.5573 -0.0384 -0.1383
 1452ntf    fn4 9629   3.352   6.083   4.568 -0.1095  0.6431  0.4733
 1452ntf    fn4 9630   3.433   6.074   4.771 -0.4441  0.1060 -0.3554
 1453ntf    cn1 9631   6.535   4.284   1.681 -0.1414  0.0872  0.1535
 1453ntf    sn2 9632   6.415   4.374   1.580 -0.1539 -0.0752  0.0247
 1453ntf    nn3 9633   6.458   4.306   1.445 -0.2115  0.0357 -0.0502
 1453ntf    sn2 9634   6.390   4.288   1.305  0.0486  0.6070 -0.2524
 1453ntf    cn1 9635   6.482   4.391   1.187  0.1638 -0.0017 -0.6990
 1453ntf    fn4 9636   6.659   4.302   1.639 -0.1460 -0.0536  0.0811
 1453ntf    fn4 9637   6.533   4.330   1.806 -0.0419 -0.2065  0.2631
 1453ntf    fn4 9638   6.521   4.153   1.692 -0.9208  0.1956  0.4660
 1453ntf    on5 9639   6.291   4.328   1.639 -0.0666 -0.7611 -0.3222
 1453ntf    on5 9640   6.455   4.512   1.591 -0.0486 -0.0786 -0.2955
 1453ntf    on5 9641   6.251   4.328   1.298 -0.2605 -0.2596  0.7310
 1453ntf    on5 9642   6.423   4.158   1.252 -0.2702  0.3146  0.2564
 1453ntf    fn4 9643   6.452   4.515   1.223  0.2584 -0.1192 -0.2049
 1453ntf    fn4 9644   6.614   4.385   1.196  0.1102 -0.2282 -0.0026
 1453ntf    fn4 9645   6.454   4.371   1.059 -0.2372  0.3205 -0.6633
 1454ntf    cn1 9646   4.939   2.132   1.050 -0.0202  0.4092 -0.1030
 1454ntf    sn2 9647   4.942   2.100   0.871 -0.0731 -0.1796 -0.0014
 1454ntf    nn3 9648   4.826   1.996   0.849 -0.4556  0.1076  0.6465
 1454ntf    sn2 9649   4.750   1.957   0.718  0.2104  0.7067  0.0718
 1454ntf    cn1 9650   4.629   2.092   0.702 -0.1219  0.3953 -0.0494
 1454ntf    fn4 9651   4.995   2.040   1.127  0.0977  0.2121 -0.4218
 1454ntf    fn4 9652   5.009   2.240   1.080  0.1080  0.4006 -0.3623
 1454ntf    fn4 9653   4.819   2.145   1.103 -0.0866 -0.3098 -0.0654
 1454ntf    on5 9654   4.916   2.236   0.829 -0.0186 -0.1842 -0.0508
 1454ntf    on5 9655   5.073   2.047   0.843 -0.1808 -0.1905 -0.5053
 1454ntf    on5 9656   4.670   1.839   0.741  0.6063  0.1976 -1.0833
 1454ntf    on5 9657   4.828   1.963   0.597  0.2928 -0.1782  0.0720
 1454ntf    fn4 9658   4.548   2.063   0.600  0.2237  0.2592 -0.2883
 1454ntf    fn4 9659   4.559   2.113   0.812 -0.3412  0.1017 -0.1315
 1454ntf    fn4 9660   4.691   2.204   0.670  0.0775  0.2841 -0.0541
 1455ntf    cn1 9661   2.240   6.617   6.239 -0.3369  0.2527  0.0806
 1455ntf    sn2 9662   2.094   6.715   6.192 -0.6986 -0.2449  0.1627
 1455ntf    nn3 9663   2.087   6.673   6.041  0.1654 -0.2830  0.1248
 1455ntf    sn2 9664   1.987   6.577   5.968  0.0146 -0.1306  0.1303
 1455ntf    cn1 9665   2.081   6.529   5.820 -0.1746  0.2165 -0.1024
 1455ntf    fn4 9666   2.357   6.678   6.222 -0.2572 -0.0480 -0.4801
 1455ntf    fn4 9667   2.239   6.584   6.367  0.4994  0.3452  0.1216
 1455ntf    fn4 9668   2.240   6.504   6.170 -0.4128  0.4413 -0.2293
 1455ntf    on5 9669   1.993   6.667   6.283 -0.9635  0.4971  0.2631
 1455ntf    on5 9670   2.143   6.849   6.214 -0.2978 -0.3880  0.1653
 1455ntf    on5 9671   1.870   6.649   5.922  0.2742  0.2491  0.0627
 1455ntf    on5 9672   1.960   6.451   6.033 -0.4586 -0.0671  0.0653
 1455ntf    fn4 9673   2.022   6.435   5.748  0.1279 -0.1294  0.1044
 1455ntf    fn4 9674   2.107   6.626   5.733  0.0440  0.0675 -0.2032
 1455ntf    fn4 9675   2.197   6.477   5.854 -0.4843 -0.5535 -0.2040
 1456ntf    cn1 9676   4.528   3.420   2.333  0.1191 -0.4618  0.4597
 1456ntf    sn2 9677   4.544   3.254   2.406  0.0974 -0.6607  0.0217
 1456ntf    nn3 9678   4.691   3.261   2.462  0.0806  0.0394 -0.0116
 1456ntf    sn2 9679   4.821   3.180   2.426  0.0032  0.0578 -0.3343
 1456ntf    cn1 9680   4.805   3.058   2.560  0.2089 -0.1905 -0.5357
 1456ntf    fn4 9681   4.441   3.423   2.234 -0.0536 -0.5247  0.6105
 1456ntf    fn4 9682   4.502   3.508   2.428  0.3615  0.0880  0.0260
 1456ntf    fn4 9683   4.639   3.472   2.283 -0.1823  0.3005  0.5756
 1456ntf    on5 9684   4.443   3.254   2.509 -0.1048 -0.4377 -0.1764
 1456ntf    on5 9685   4.512   3.164   2.299 -0.1549 -0.4253 -0.1033
 1456ntf    on5 9686   4.942   3.255   2.447  0.3108 -0.5509  0.0810
 1456ntf    on5 9687   4.804   3.102   2.306  0.0613 -0.5159  0.0277
 1456ntf    fn4 9688   4.753   3.124   2.662 -0.1715  0.5288 -1.1751
 1456ntf    fn4 9689   4.715   2.965   2.531  0.1393 -0.2687 -0.0786
 1456ntf    fn4 9690   4.911   3.000   2.612 -0.0832  0.3121  0.6485
 1457ntf    cn1 9691   5.438   5.605   2.976 -0.1198  0.0911 -0.0331
 1457ntf    sn2 9692   5.617   5.574   2.984 -0.0877  0.2360 -0.1845
 1457ntf    nn3 9693   5.675   5.719   3.005 -0.6853  0.5695 -0.8187
 1457ntf    sn2 9694   5.764   5.815   2.919  0.1964  0.3096 -0.2092
 1457ntf    cn1 9695   5.748   5.966   3.018 -0.0351  0.1778 -0.0446
 1457ntf    fn4 9696   5.392   5.663   3.085 -0.5971  0.3574 -0.3716
 1457ntf    fn4 9697   5.408   5.680   2.871  0.1070 -0.3965 -0.4511
 1457ntf    fn4 9698   5.365   5.495   2.966  0.0180 -0.0557  0.5413
 1457ntf    on5 9699   5.629   5.481   3.094 -0.0629  0.2315 -0.1910
 1457ntf    on5 9700   5.640   5.520   2.852  0.7369  0.0569  0.0247
 1457ntf    on5 9701   5.706   5.860   2.795  0.0493 -0.1789 -0.3233
 1457ntf    on5 9702   5.905   5.784   2.924  0.1290  0.0419  0.0992
 1457ntf    fn4 9703   5.824   6.065   2.974  0.3317 -0.2338 -0.3413
 1457ntf    fn4 9704   5.625   6.016   3.019 -0.1265 -0.0505  0.3682
 1457ntf    fn4 9705   5.780   5.958   3.146 -0.3630  0.6050  0.0683
 1458ntf    cn1 9706   1.340   5.580   1.954  0.1318 -0.3519  0.1727
 1458ntf    sn2 9707   1.477   5.524   2.060  0.0900 -0.2012  0.3060
 1458ntf    nn3 9708   1.600   5.585   1.983 -0.4189  0.2496 -0.1550
 1458ntf    sn2 9709   1.686   5.527   1.866 -0.2891 -0.1752  0.1470
 1458ntf    cn1 9710   1.737   5.682   1.784  0.0083 -0.3962 -0.0876
 1458ntf    fn4 9711   1.219   5.561   2.003  0.0574  0.2081  0.2147
 1458ntf    fn4 9712   1.346   5.709   1.925  0.5640 -0.4742 -0.3004
 1458ntf    fn4 9713   1.349   5.520   1.836  0.3269 -0.1004  0.0586
 1458ntf    on5 9714   1.443   5.580   2.188 -0.2558  0.3422 -0.0176
 1458ntf    on5 9715   1.453   5.382   2.048  0.1527 -0.1783 -0.1176
 1458ntf    on5 9716   1.616   5.451   1.765 -0.4766 -0.3761  0.4292
 1458ntf    on5 9717   1.809   5.469   1.915 -0.1054 -0.0738 -0.1924
 1458ntf    fn4 9718   1.643   5.736   1.709  0.3773  0.5370  0.1073
 1458ntf    fn4 9719   1.770   5.781   1.865 -0.2589 -0.3831  0.0073
 1458ntf    fn4 9720   1.848   5.665   1.714  0.3012  0.4362  0.1676
 1459ntf    cn1 9721   2.508   2.672   4.592  0.1937 -0.0809 -0.0406
 1459ntf    sn2 9722   2.538   2.763   4.438  0.1424 -0.0089 -0.0083
 1459ntf    nn3 9723   2.669   2.693   4.388  0.2053 -0.0388  0.2021
 1459ntf    sn2 9724   2.809   2.758   4.361  0.1169  0.0650 -0.0013
 1459ntf    cn1 9725   2.758   2.855   4.215  0.0375 -0.0654 -0.0615
 1459ntf    fn4 9726   2.588   2.706   4.691 -0.1122 -0.3736  0.3099
 1459ntf    fn4 9727   2.386   2.687   4.642  0.6839 -0.3029  1.2420
 1459ntf    fn4 9728   2.522   2.544   4.561  0.3533 -0.0979  0.1009
 1459ntf    on5 9729   2.417   2.725   4.368  0.0638 -0.0454  0.1483
 1459ntf    on5 9730   2.547   2.899   4.486  0.1618  0.0485 -0.1716
 1459ntf    on5 9731   2.907   2.666   4.308 -0.0570  0.1051 -0.3999
 1459ntf    on5 9732   2.855   2.859   4.453 -0.0107  0.1390 -0.0194
 1459ntf    fn4 9733   2.857   2.891   4.135  0.0530 -0.2558 -0.1281
 1459ntf    fn4 9734   2.677   2.775   4.149 -0.3638  0.1132  0.2081
 1459ntf    fn4 9735   2.691   2.967   4.234 -0.1458 -0.1128 -0.4211
 1460ntf    cn1 9736   0.620   6.546   3.927  0.3411 -0.0850  0.0701
 1460ntf    sn2 9737   0.690   6.381   3.962  0.3767 -0.0962 -0.0509
 1460ntf    nn3 9738   0.577   6.279   3.923  0.0994  0.3594 -0.4494
 1460ntf    sn2 9739   0.581   6.146   3.839 -0.4078  0.2476 -0.2961
 1460ntf    cn1 9740   0.513   6.221   3.688 -0.1884  0.2595 -0.3880
 1460ntf    fn4 9741   0.625   6.567   3.797 -0.0426 -0.3612  0.0094
 1460ntf    fn4 9742   0.492   6.546   3.959  0.1482 -0.3229 -0.7070
 1460ntf    fn4 9743   0.691   6.642   3.983 -0.0761  0.0190  0.4253
 1460ntf    on5 9744   0.800   6.375   3.869  0.2292  0.1554 -0.2440
 1460ntf    on5 9745   0.714   6.391   4.103  0.0600  1.0019 -0.0613
 1460ntf    on5 9746   0.481   6.056   3.891 -0.2888  0.1924 -0.1618
 1460ntf    on5 9747   0.709   6.094   3.800 -0.5582  0.2518 -0.7994
 1460ntf    fn4 9748   0.488   6.131   3.595  0.4121 -0.4123  0.0853
 1460ntf    fn4 9749   0.420   6.313   3.704 -0.3098 -0.0968  1.0575
 1460ntf    fn4 9750   0.604   6.299   3.630 -0.2606  0.9700  0.4310
 1461ntf    cn1 9751   1.111   3.469   4.427  0.1021  0.2290  0.1687
 1461ntf    sn2 9752   1.054   3.360   4.561 -0.2326  0.1192 -0.0622
 1461ntf    nn3 9753   0.901   3.357   4.526 -0.2784  0.1219  0.1375
 1461ntf    sn2 9754   0.782   3.259   4.557 -0.1959 -0.1075 -0.2660
 1461ntf    cn1 9755   0.801   3.148   4.414 -0.1362  0.1078 -0.4259
 1461ntf    fn4 9756   1.240   3.493   4.440  0.1355  0.1201  0.0390
 1461ntf    fn4 9757   1.100   3.409   4.310 -0.0459  0.4565  0.0657
 1461ntf    fn4 9758   1.058   3.590   4.415 -0.0291  0.1729  0.1833
 1461ntf    on5 9759   1.127   3.236   4.549  0.1323  0.3224  0.0370
 1461ntf    on5 9760   1.076   3.441   4.678 -0.3917 -0.4481  0.3665
 1461ntf    on5 9761   0.651   3.317   4.543 -0.5838 -0.7349  0.6501
 1461ntf    on5 9762   0.792   3.164   4.665 -0.2700  0.0140 -0.1527
 1461ntf    fn4 9763   0.921   3.093   4.417 -0.0807  0.2441 -0.1658
 1461ntf    fn4 9764   0.713   3.049   4.421  0.1142 -0.1010 -0.2190
 1461ntf    fn4 9765   0.774   3.208   4.300 -0.0248  0.2649 -0.3689
 1462ntf    cn1 9766   6.251   1.947   1.319 -0.2282  0.2260 -0.0524
 1462ntf    sn2 9767   6.103   1.883   1.404 -0.0217  0.1379  0.2452
 1462ntf    nn3 9768   6.172   1.791   1.511  0.1240 -0.2718 -0.1958
 1462ntf    sn2 9769   6.142   1.640   1.541 -0.2817 -0.1428  0.0569
 1462ntf    cn1 9770   6.052   1.671   1.696 -0.3625 -0.0680 -0.0054
 1462ntf    fn4 9771   6.342   1.998   1.400  0.3963 -0.2869 -0.4299
 1462ntf    fn4 9772   6.319   1.852   1.258 -0.3686 -0.0508  0.2161
 1462ntf    fn4 9773   6.216   2.039   1.231 -0.4743 -0.2551 -0.4646
 1462ntf    on5 9774   6.029   1.991   1.465 -0.4064  0.0830 -0.1189
 1462ntf    on5 9775   6.034   1.814   1.297  0.2583  0.7046 -0.3110
 1462ntf    on5 9776   6.258   1.562   1.577 -0.1921  0.2130  0.5572
 1462ntf    on5 9777   6.049   1.565   1.461 -0.2755  0.2620 -0.3293
 1462ntf    fn4 9778   5.979   1.565   1.727 -0.1724 -0.2527 -0.1894
 1462ntf    fn4 9779   6.138   1.687   1.795  0.1971  0.2390 -0.5336
 1462ntf    fn4 9780   5.968   1.774   1.692 -0.0436  0.1815 -0.3228
 1463ntf    cn1 9781   4.160   6.558   0.576 -0.0066  0.0998  0.2204
 1463ntf    sn2 9782   4.093   6.452   0.444  0.1534  0.3424 -0.0587
 1463ntf    nn3 9783   3.961   6.395   0.508  0.3824 -0.1809 -0.0505
 1463ntf    sn2 9784   3.916   6.253   0.558 -0.2967  0.1501  0.2892
 1463ntf    cn1 9785   3.913   6.277   0.738 -0.1028  0.4157  0.2572
 1463ntf    fn4 9786   4.238   6.496   0.662 -0.3040 -0.5750  0.0124
 1463ntf    fn4 9787   4.235   6.654   0.524 -0.4631  0.3420 -0.0055
 1463ntf    fn4 9788   4.063   6.617   0.644 -0.3517 -0.1972 -0.0094
 1463ntf    on5 9789   4.068   6.538   0.331  0.0976  1.1372  0.5523
 1463ntf    on5 9790   4.198   6.355   0.423 -0.4338 -0.1899 -0.5634
 1463ntf    on5 9791   4.007   6.149   0.515 -0.0974  0.6754 -0.5865
 1463ntf    on5 9792   3.779   6.218   0.529 -0.1411 -0.1106 -0.1347
 1463ntf    fn4 9793   3.884   6.167   0.806 -0.1137 -0.1290 -0.6198
 1463ntf    fn4 9794   4.036   6.313   0.772  0.2320 -0.1521 -0.3301
 1463ntf    fn4 9795   3.842   6.379   0.783 -0.4500  0.1797  0.2398
 1464ntf    cn1 9796   3.668   3.549   1.964  0.4725  0.0035  0.0683
 1464ntf    sn2 9797   3.698   3.675   1.836 -0.1540 -0.0881 -0.1774
 1464ntf    nn3 9798   3.848   3.709   1.867 -0.1525  0.0622 -0.3472
 1464ntf    sn2 9799   3.983   3.687   1.789  0.0997  0.0682  0.0847
 1464ntf    cn1 9800   3.991   3.839   1.689 -0.1882  0.0987  0.1078
 1464ntf    fn4 9801   3.562   3.473   1.938  0.3462  0.2342 -0.1062
 1464ntf    fn4 9802   3.766   3.460   1.959  0.1690 -0.3398  0.1697
 1464ntf    fn4 9803   3.658   3.595   2.087  0.5695 -0.0855  0.1090
 1464ntf    on5 9804   3.671   3.613   1.709 -0.3581 -0.7527  0.1832
 1464ntf    on5 9805   3.616   3.789   1.866  0.3044  0.1526  0.1808
 1464ntf    on5 9806   3.979   3.584   1.689 -0.2086  0.3849 -0.2289
 1464ntf    on5 9807   4.099   3.695   1.875 -0.0829  0.2360  0.3184
 1464ntf    fn4 9808   3.993   3.953   1.756  0.9284  0.1352  0.0236
 1464ntf    fn4 9809   4.092   3.838   1.605 -0.5814 -0.6354 -0.3739
 1464ntf    fn4 9810   3.889   3.856   1.606  0.1527 -0.3128 -0.4018
 1465ntf    cn1 9811   4.103   1.664   6.023  0.0256  0.1059  0.5563
 1465ntf    sn2 9812   4.216   1.730   5.898 -0.3627  0.0257  0.1620
 1465ntf    nn3 9813   4.231   1.602   5.809  0.2224  0.0518  0.2182
 1465ntf    sn2 9814   4.339   1.488   5.811  0.2961  0.1148 -0.0802
 1465ntf    cn1 9815   4.272   1.362   5.698  0.1965 -0.1125  0.2286
 1465ntf    fn4 9816   4.154   1.628   6.140  0.1816 -0.1401  0.4129
 1465ntf    fn4 9817   4.006   1.746   6.061 -0.0124  0.1916  0.2761
 1465ntf    fn4 9818   4.030   1.563   5.978 -0.0960  0.5412 -0.2278
 1465ntf    on5 9819   4.146   1.834   5.826 -0.1863 -0.5166 -0.8115
 1465ntf    on5 9820   4.331   1.765   5.977 -0.1432 -0.1383 -0.0846
 1465ntf    on5 9821   4.334   1.418   5.937 -0.0541  0.1999 -0.0469
 1465ntf    on5 9822   4.469   1.515   5.756  0.4745 -0.3130  0.1262
 1465ntf    fn4 9823   4.142   1.342   5.712  0.2535 -0.6867 -0.0775
 1465ntf    fn4 9824   4.285   1.410   5.575  0.2767 -0.4618  0.1014
 1465ntf    fn4 9825   4.342   1.251   5.687 -0.1274 -0.3066  0.1223
 1466ntf    cn1 9826   0.205   5.421   6.196  0.0786 -0.0812  0.3841
 1466ntf    sn2 9827   0.043   5.387   6.122  0.0789 -0.0351  0.3614
 1466ntf    nn3 9828  -0.051   5.399   6.248 -0.3446 -0.1724  0.0614
 1466ntf    sn2 9829  -0.092   5.527   6.328 -0.0414  0.0675 -0.1611
 1466ntf    cn1 9830  -0.020   5.498   6.493 -0.2948  0.2030 -0.0249
 1466ntf    fn4 9831   0.191   5.521   6.282 -0.0305 -0.0716  0.3550
 1466ntf    fn4 9832   0.253   5.318   6.264 -0.6413 -0.7877 -0.1694
 1466ntf    fn4 9833   0.297   5.449   6.106  0.0120 -0.7213  0.1112
 1466ntf    on5 9834   0.038   5.501   6.034  0.3576 -0.2623  0.0512
 1466ntf    on5 9835   0.068   5.255   6.071 -0.8936 -0.1537  0.1662
 1466ntf    on5 9836  -0.233   5.516   6.356 -0.0675  0.1212 -0.2724
 1466ntf    on5 9837  -0.042   5.655   6.284 -0.1081  0.1244 -0.0732
 1466ntf    fn4 9838   0.111   5.492   6.504 -0.3295 -0.0927  0.2473
 1466ntf    fn4 9839  -0.066   5.591   6.575 -0.1577 -0.0217  0.3106
 1466ntf    fn4 9840  -0.059   5.382   6.543  0.8663 -0.2328 -0.1082
 1467ntf    cn1 9841   1.553   2.121   6.282 -0.0397  0.2016 -0.2254
 1467ntf    sn2 9842   1.651   2.128   6.435 -0.1254  0.0640 -0.1647
 1467ntf    nn3 9843   1.596   2.006   6.518  0.8244  0.2306  0.7265
 1467ntf    sn2 9844   1.480   1.997   6.624  0.0221 -0.3246 -0.1820
 1467ntf    cn1 9845   1.528   1.839   6.701  0.1292 -0.2248 -0.0427
 1467ntf    fn4 9846   1.562   2.222   6.197  0.3684  0.2224 -0.1586
 1467ntf    fn4 9847   1.577   2.017   6.203 -0.0258  0.0915 -0.0759
 1467ntf    fn4 9848   1.423   2.118   6.302  0.0245  0.6383  0.2634
 1467ntf    on5 9849   1.787   2.122   6.388 -0.1446  0.0454 -0.2174
 1467ntf    on5 9850   1.609   2.254   6.491 -0.7722 -0.1479 -0.1567
 1467ntf    on5 9851   1.354   1.980   6.555  0.0277  0.1187 -0.3093
 1467ntf    on5 9852   1.478   2.096   6.729 -0.2907 -0.5027 -0.0201
 1467ntf    fn4 9853   1.437   1.794   6.786  0.2834 -0.1720  0.1497
 1467ntf    fn4 9854   1.534   1.748   6.605  0.0499  0.0391 -0.3039
 1467ntf    fn4 9855   1.645   1.841   6.762  0.3918 -0.0889 -0.5469
 1468ntf    cn1 9856   6.539   1.267   5.662  0.3015  0.2539 -0.2831
 1468ntf    sn2 9857   6.380   1.350   5.691  0.2165 -0.0325  0.0850
 1468ntf    nn3 9858   6.282   1.281   5.589  0.0805 -0.0413  0.2218
 1468ntf    sn2 9859   6.246   1.335   5.446 -0.2356  0.3168  0.4361
 1468ntf    cn1 9860   6.109   1.451   5.472  0.0097  0.5930  0.5081
 1468ntf    fn4 9861   6.544   1.141   5.623  0.2619  0.2287 -0.2049
 1468ntf    fn4 9862   6.620   1.343   5.589 -0.2829  1.0852 -0.0764
 1468ntf    fn4 9863   6.608   1.265   5.775  0.1342  0.3124 -0.1803
 1468ntf    on5 9864   6.342   1.323   5.827 -0.0881  0.1104  0.0295
 1468ntf    on5 9865   6.407   1.489   5.664 -0.4783  0.1314  0.2259
 1468ntf    on5 9866   6.180   1.229   5.374  0.3775 -0.0830  0.4523
 1468ntf    on5 9867   6.342   1.412   5.370 -0.1771 -0.4873 -0.3160
 1468ntf    fn4 9868   6.002   1.379   5.503  0.6920 -0.6171  0.1134
 1468ntf    fn4 9869   6.134   1.537   5.569  0.1109  0.6014  0.4743
 1468ntf    fn4 9870   6.071   1.514   5.361 -0.3267  0.1001  0.3384
 1469ntf    cn1 9871   3.729   6.242   1.366 -0.1647 -0.2262  0.7059
 1469ntf    sn2 9872   3.588   6.356   1.379  0.0225  0.0637  0.1840
 1469ntf    nn3 9873   3.541   6.346   1.528 -0.6406 -0.2439 -0.0408
 1469ntf    sn2 9874   3.477   6.452   1.625 -0.0847  0.0185  0.0428
 1469ntf    cn1 9875   3.315   6.379   1.661  0.2236 -0.6292  0.1321
 1469ntf    fn4 9876   3.694   6.117   1.338 -0.3548  0.0260 -0.2065
 1469ntf    fn4 9877   3.804   6.279   1.264 -0.3423 -0.2350  0.5698
 1469ntf    fn4 9878   3.801   6.230   1.476  0.1107 -0.0485  0.5455
 1469ntf    on5 9879   3.639   6.480   1.325 -0.4228  0.2970  0.2962
 1469ntf    on5 9880   3.493   6.293   1.291  0.0664 -0.6189  0.6189
 1469ntf    on5 9881   3.438   6.581   1.575 -0.5832  0.2276  0.9472
 1469ntf    on5 9882   3.538   6.454   1.756  0.7503 -0.1424 -0.3319
 1469ntf    fn4 9883   3.322   6.253   1.700 -0.4297 -0.5835  0.4149
 1469ntf    fn4 9884   3.249   6.456   1.746 -0.0063 -0.1159 -0.5015
 1469ntf    fn4 9885   3.245   6.379   1.548  0.0356 -0.0261  0.2457
 1470ntf    cn1 9886   0.201   6.248   2.009  0.4881 -0.1546  0.1178
 1470ntf    sn2 9887   0.118   6.086   2.007 -0.1382  0.1636  0.0196
 1470ntf    nn3 9888   0.004   6.100   1.900 -0.3643 -0.4968  0.1714
 1470ntf    sn2 9889  -0.138   6.158   1.934 -0.3207 -0.2859 -0.0022
 1470ntf    cn1 9890  -0.211   6.013   2.017 -0.0201 -0.3808  0.0984
 1470ntf    fn4 9891   0.240   6.278   1.886  0.1665 -0.2421 -0.0068
 1470ntf    fn4 9892   0.117   6.345   2.043  0.2490 -0.2103 -0.3065
 1470ntf    fn4 9893   0.312   6.251   2.080  0.3866  0.2472  0.2649
 1470ntf    on5 9894   0.222   5.995   1.966  0.0204  0.4784 -0.2802
 1470ntf    on5 9895   0.068   6.068   2.141 -0.0471  0.3948  0.0849
 1470ntf    on5 9896  -0.226   6.168   1.821  0.5426 -0.4123 -0.6949
 1470ntf    on5 9897  -0.144   6.265   2.030  0.0521 -0.3733  0.1202
 1470ntf    fn4 9898  -0.191   6.017   2.148  0.5225  0.1611  0.0075
 1470ntf    fn4 9899  -0.342   6.006   2.004 -0.0453  0.2914 -0.0917
 1470ntf    fn4 9900  -0.158   5.900   1.974 -0.1691 -0.2203 -0.5132
 1471ntf    cn1 9901   3.043   4.023   6.097  0.0279  0.6701 -0.1312
 1471ntf    sn2 9902   3.038   4.074   6.272  0.1922 -0.0431  0.0850
 1471ntf    nn3 9903   2.993   4.223   6.251  0.0003 -0.2411 -0.9732
 1471ntf    sn2 9904   2.849   4.283   6.235  0.1370  0.3260 -0.1617
 1471ntf    cn1 9905   2.823   4.362   6.396  0.0669  0.0106 -0.0171
 1471ntf    fn4 9906   3.119   4.093   6.015  0.5172  0.3094  0.0101
 1471ntf    fn4 9907   3.078   3.896   6.088 -1.0449  0.3702 -0.2467
 1471ntf    fn4 9908   2.921   4.021   6.045 -0.1840  0.1170  0.3668
 1471ntf    on5 9909   2.953   3.987   6.349 -0.4766  0.4161 -0.1248
 1471ntf    on5 9910   3.178   4.065   6.307  0.2860 -0.0736 -0.2856
 1471ntf    on5 9911   2.745   4.183   6.236  0.2828  0.1761 -0.0347
 1471ntf    on5 9912   2.844   4.397   6.147  0.9907  0.2440 -0.3272
 1471ntf    fn4 9913   2.934   4.401   6.457  0.2338 -0.4646 -0.0096
 1471ntf    fn4 9914   2.740   4.465   6.388 -0.2555 -0.1813  0.7597
 1471ntf    fn4 9915   2.765   4.276   6.479 -0.0893  0.2977  0.1734
 1472ntf    cn1 9916   5.981   1.638   0.438  0.2896 -0.1869  0.1514
 1472ntf    sn2 9917   5.867   1.772   0.486  0.1533 -0.4061  0.4372
 1472ntf    nn3 9918   5.962   1.869   0.565  0.0503  0.0457  0.0099
 1472ntf    sn2 9919   6.044   1.990   0.509  0.3204 -0.0767  0.1358
 1472ntf    cn1 9920   5.940   2.130   0.562  0.0666 -0.1515 -0.1590
 1472ntf    fn4 9921   6.079   1.674   0.356 -0.0180 -0.4036 -0.3187
 1472ntf    fn4 9922   6.040   1.596   0.548  0.3657 -0.3804  0.0363
 1472ntf    fn4 9923   5.921   1.535   0.381  0.5680 -0.3463  0.1428
 1472ntf    on5 9924   5.810   1.820   0.363  0.2115 -0.5649  0.3479
 1472ntf    on5 9925   5.775   1.701   0.572  0.0742  0.0982  0.7725
 1472ntf    on5 9926   6.063   1.990   0.366  0.2527  0.5331  0.1243
 1472ntf    on5 9927   6.160   2.005   0.593  0.3482  0.3809  0.0186
 1472ntf    fn4 9928   5.815   2.128   0.521  0.1675  0.1352 -0.4876
 1472ntf    fn4 9929   5.934   2.139   0.694  0.4140 -0.2434 -0.1340
 1472ntf    fn4 9930   6.001   2.243   0.531  0.1901 -0.0180  0.5637
 1473ntf    cn1 9931   3.728   5.232   4.987  0.0004 -0.5434  0.2097
 1473ntf    sn2 9932   3.878   5.287   4.900 -0.3945 -0.2103 -0.2643
 1473ntf    nn3 9933   3.902   5.412   4.991  0.4872 -0.5945  0.0373
 1473ntf    sn2 9934   4.038   5.478   5.031  0.0482  0.0276  0.5210
 1473ntf    cn1 9935   4.090   5.398   5.186  0.0011 -0.2952  0.3691
 1473ntf    fn4 9936   3.632   5.323   4.991  0.3353 -0.1953  0.3637
 1473ntf    fn4 9937   3.688   5.124   4.922  0.1602 -0.3726 -0.1745
 1473ntf    fn4 9938   3.756   5.203   5.113 -0.0038 -0.5511  0.2087
 1473ntf    on5 9939   3.967   5.176   4.923 -0.2366  0.0930  0.5950
 1473ntf    on5 9940   3.833   5.315   4.765 -0.3251 -0.1982 -0.2850
 1473ntf    on5 9941   4.027   5.620   5.055  0.2297  0.1026  0.1568
 1473ntf    on5 9942   4.144   5.441   4.941  0.1776  0.5994  0.4279
 1473ntf    fn4 9943   4.002   5.413   5.283  0.3230 -0.1286  0.6370
 1473ntf    fn4 9944   4.122   5.270   5.180  0.6389 -0.1447  0.4820
 1473ntf    fn4 9945   4.198   5.461   5.228 -0.0715 -0.1196  0.2932
 1474ntf    cn1 9946   1.876   1.098   5.779 -0.1665 -0.3378 -0.1456
 1474ntf    sn2 9947   1.722   1.181   5.827  0.2142  0.0697  0.3886
 1474ntf    nn3 9948   1.776   1.324   5.862  0.2333  0.0898  0.2767
 1474ntf    sn2 9949   1.852   1.381   5.987  0.1459  0.2734  0.2466
 1474ntf    cn1 9950   1.769   1.542   6.006 -0.2523  0.0789  0.1669
 1474ntf    fn4 9951   1.855   0.972   5.744  0.4576 -0.4226 -0.2304
 1474ntf    fn4 9952   1.946   1.148   5.678  0.6451  0.1881  0.6626
 1474ntf    fn4 9953   1.969   1.090   5.873  0.1495 -0.3454 -0.4571
 1474ntf    on5 9954   1.661   1.175   5.696 -0.0588  0.2741  0.5074
 1474ntf    on5 9955   1.673   1.097   5.934  0.3886 -0.4094  0.0974
 1474ntf    on5 9956   1.988   1.421   5.958  0.3008 -0.1271  0.4238
 1474ntf    on5 9957   1.828   1.321   6.116 -0.7929  0.9443  0.3976
 1474ntf    fn4 9958   1.765   1.599   5.887  0.0081  0.3860  0.3044
 1474ntf    fn4 9959   1.651   1.535   6.066 -0.4169 -0.4994 -0.2083
 1474ntf    fn4 9960   1.831   1.634   6.078  0.2749 -0.3668  0.2882
 1475ntf    cn1 9961   6.192   0.059   1.414 -0.3445 -0.1063 -0.1626
 1475ntf    sn2 9962   6.261  -0.093   1.486  0.1419  0.1723 -0.0338
 1475ntf    nn3 9963   6.225  -0.074   1.638  0.1623  0.1474 -0.0259
 1475ntf    sn2 9964   6.140  -0.171   1.728  0.4653  0.3333  0.4610
 1475ntf    cn1 9965   5.970  -0.121   1.688  0.5730  0.2806 -0.0699
 1475ntf    fn4 9966   6.192   0.064   1.282 -0.3150  0.3127 -0.1484
 1475ntf    fn4 9967   6.070   0.072   1.463 -0.2506 -0.4866  0.1733
 1475ntf    fn4 9968   6.258   0.169   1.446  0.2244 -0.3264 -0.5508
 1475ntf    on5 9969   6.194  -0.199   1.415 -0.4711  0.1777  0.5300
 1475ntf    on5 9970   6.403  -0.073   1.470  0.0630  0.0522 -0.9413
 1475ntf    on5 9971   6.154  -0.144   1.869 -0.4283 -0.0224  0.6230
 1475ntf    on5 9972   6.140  -0.312   1.696  0.2147  0.5536 -0.5341
 1475ntf    fn4 9973   5.944   0.001   1.730 -0.3655 -0.1804  0.7402
 1475ntf    fn4 9974   5.943  -0.117   1.558  0.0359 -0.3277  0.0174
 1475ntf    fn4 9975   5.878  -0.202   1.739  0.4382  0.1156 -0.5621
 1476ntf    cn1 9976   4.689   4.900   5.159  0.3081 -0.3448 -0.2818
 1476ntf    sn2 9977   4.726   4.998   5.011  0.1307  0.0087 -0.0908
 1476ntf    nn3 9978   4.853   4.914   4.975 -0.1901 -0.4138 -0.2326
 1476ntf    sn2 9979   5.003   4.942   5.014 -0.3036  0.2649 -0.2805
 1476ntf    cn1 9980   5.054   5.046   4.874 -0.0482  0.0980 -0.3114
 1476ntf    fn4 9981   4.581   4.939   5.224  0.4038 -1.0657  0.3381
 1476ntf    fn4 9982   4.655   4.774   5.137 -0.0104 -0.3380  0.1498
 1476ntf    fn4 9983   4.782   4.905   5.254  0.1452 -0.1874 -0.1308
 1476ntf    on5 9984   4.619   4.978   4.918  0.4363 -0.5262 -0.3276
 1476ntf    on5 9985   4.751   5.135   5.050  0.8821 -0.0284 -0.4185
 1476ntf    on5 9986   5.085   4.825   4.995 -0.4182  0.1752 -0.2291
 1476ntf    on5 9987   5.043   5.033   5.118 -0.1262 -0.3604  0.2042
 1476ntf    fn4 9988   5.185   5.060   4.867 -0.0550  0.2480 -0.1346
 1476ntf    fn4 9989   5.019   4.981   4.763 -0.4904 -0.1140 -0.0514
 1476ntf    fn4 9990   4.994   5.164   4.879 -0.0162  0.0948  0.1825
 1477ntf    cn1 9991   4.632   0.509   3.433 -0.1314 -0.2717  0.2301
 1477ntf    sn2 9992   4.514   0.540   3.567 -0.0986 -0.1964  0.2424
 1477ntf    nn3 9993   4.495   0.388   3.602  0.7766 -0.4768 -0.4772
 1477ntf    sn2 9994   4.372   0.302   3.649  0.3045  0.4310 -0.0224
 1477ntf    cn1 9995   4.326   0.200   3.505  0.2365  0.0522  0.2678
 1477ntf    fn4 9996   4.707   0.612   3.397 -0.1112 -0.2461  0.3475
 1477ntf    fn4 9997   4.713   0.407   3.456  0.5870  0.3443  0.5032
 1477ntf    fn4 9998   4.561   0.486   3.324  0.1832 -0.1408 -0.0037
 1477ntf    on5 9999   4.594   0.612   3.662 -0.3859 -0.0459  0.3733
 1477ntf    on510000   4.402   0.615   3.517  0.3637  0.0421 -0.4471
 1477ntf    on510001   4.254   0.380   3.676 -0.1700 -0.1628 -0.3524
 1477ntf    on510002   4.414   0.203   3.745 -0.2374 -0.2726 -0.5003
 1477ntf    fn410003   4.207   0.142   3.508  0.2042  0.0674 -0.5109
 1477ntf    fn410004   4.320   0.267   3.391 -0.5117 -0.6422 -0.1112
 1477ntf    fn410005   4.411   0.101   3.484  0.1461 -0.0635  0.4366
 1478ntf    cn110006   3.239   2.886   4.751 -0.2887 -0.0486  0.3929
 1478ntf    sn210007   3.075   2.913   4.823 -0.4575 -0.3692  0.1326
 1478ntf    nn310008   3.026   2.765   4.839  0.1121 -0.6327 -0.5060
 1478ntf    sn210009   3.013   2.682   4.973 -0.1119  0.2714  0.0397
 1478ntf    cn110010   2.850   2.602   4.962  0.0061  0.0530 -0.1236
 1478ntf    fn410011   3.330   2.852   4.841 -0.2502  0.2347  0.4617
 1478ntf    fn410012   3.230   2.793   4.657  0.4707  0.0340  0.2280
 1478ntf    fn410013   3.277   2.997   4.689 -0.5867 -0.1279  0.0628
 1478ntf    on510014   3.099   2.985   4.946 -0.3723 -0.5391  0.2147
 1478ntf    on510015   3.002   2.982   4.719  0.0158 -0.2154 -0.0982
 1478ntf    on510016   2.997   2.763   5.091  0.8719 -0.1657  0.4789
 1478ntf    on510017   3.111   2.577   4.981 -0.1773  0.2080  0.0087
 1478ntf    fn410018   2.811   2.564   4.841 -0.1486  0.1814 -0.1148
 1478ntf    fn410019   2.828   2.504   5.048 -0.1297  0.3194  0.1440
 1478ntf    fn410020   2.757   2.687   5.000 -0.0352 -0.0186 -0.0649
 1479ntf    cn110021   0.366   1.038   6.580 -0.1429 -0.1795 -0.2740
 1479ntf    sn210022   0.318   1.031   6.755  0.1265  0.0310 -0.1905
 1479ntf    nn310023   0.459   1.028   6.822 -0.0046  1.4159  0.1801
 1479ntf    sn210024   0.479   1.001   6.975 -0.4005 -0.1421 -0.0274
 1479ntf    cn110025   0.529   0.827   6.963  0.2850  0.0190  0.4124
 1479ntf    fn410026   0.477   0.972   6.552  0.0918  0.1004 -0.0174
 1479ntf    fn410027   0.276   1.007   6.487 -0.0894 -0.0074 -0.3850
 1479ntf    fn410028   0.392   1.166   6.555  0.1016 -0.1441  0.1528
 1479ntf    on510029   0.251   1.158   6.773  0.2806  0.0851 -0.0015
 1479ntf    on510030   0.236   0.914   6.770  0.6109 -0.2383  0.3801
 1479ntf    on510031   0.362   0.997   7.059 -0.2956 -0.7909  0.0908
 1479ntf    on510032   0.598   1.061   7.031 -0.4920 -0.7921  0.8866
 1479ntf    fn410033   0.648   0.808   6.908  0.0073 -0.6252  0.0238
 1479ntf    fn410034   0.533   0.760   7.077 -0.4103 -0.5664  0.1015
 1479ntf    fn410035   0.446   0.760   6.884  0.4768 -0.1956  0.3938
 1480ntf    cn110036   3.547   1.034   5.957 -0.0175  0.0355 -0.2505
 1480ntf    sn210037   3.430   1.167   5.915 -0.0395  0.1369  0.1313
 1480ntf    nn310038   3.395   1.217   6.060  0.0191  0.1660  0.1356
 1480ntf    sn210039   3.287   1.323   6.101 -0.0887  0.0033  0.2720
 1480ntf    cn110040   3.386   1.433   6.206  0.2225  0.0024 -0.0201
 1480ntf    fn410041   3.510   0.958   6.059 -0.1510 -0.1611 -0.4430
 1480ntf    fn410042   3.572   0.964   5.847  0.2166  0.4101 -0.4340
 1480ntf    fn410043   3.668   1.077   5.985  0.1366 -0.2618 -0.4553
 1480ntf    on510044   3.506   1.260   5.835 -0.6160  0.7914  0.3387
 1480ntf    on510045   3.324   1.096   5.850 -0.3785  0.5904  0.1836
 1480ntf    on510046   3.198   1.256   6.193  0.5051 -0.3184  0.6222
 1480ntf    on510047   3.244   1.402   5.989  0.1813  0.1909  0.3000
 1480ntf    fn410048   3.463   1.352   6.277  0.1214  0.0105  0.0995
 1480ntf    fn410049   3.460   1.520   6.139 -0.0175 -0.1383 -0.4686
 1480ntf    fn410050   3.309   1.503   6.288  0.7797 -0.2080  0.6932
 1481ntf    cn110051   0.733   1.631   0.931  0.1580  0.3984 -0.1633
 1481ntf    sn210052   0.841   1.589   1.071 -0.0180 -0.1347 -0.1825
 1481ntf    nn310053   0.837   1.719   1.159 -0.8405 -0.3651  0.1214
 1481ntf    sn210054   0.736   1.761   1.272 -0.4428  0.2096  0.2650
 1481ntf    cn110055   0.727   1.941   1.246  0.2829  0.2198  0.0635
 1481ntf    fn410056   0.613   1.576   0.937  0.3364  0.0221  0.0196
 1481ntf    fn410057   0.702   1.759   0.941  0.4247  0.4577 -0.0983
 1481ntf    fn410058   0.791   1.612   0.813 -0.2938  0.5314 -0.4093
 1481ntf    on510059   0.792   1.471   1.136  0.1253 -0.1751 -0.1468
 1481ntf    on510060   0.969   1.582   1.005 -0.2273  0.1956 -0.6309
 1481ntf    on510061   0.801   1.739   1.399 -0.3342 -0.0465  0.1663
 1481ntf    on510062   0.597   1.725   1.257 -0.2982 -0.2942  0.1169
 1481ntf    fn410063   0.633   1.990   1.325  0.1381 -0.0354  0.0505
 1481ntf    fn410064   0.842   2.002   1.269  0.3437  0.0612  0.1869
 1481ntf    fn410065   0.705   1.974   1.120  0.6172  0.1165 -0.0225
 1482ntf    cn110066   6.555   1.277   0.684  0.2495  0.3167 -0.0342
 1482ntf    sn210067   6.677   1.185   0.584 -0.0150 -0.0728  0.0025
 1482ntf    nn310068   6.588   1.060   0.551 -0.0348 -0.1446  0.3167
 1482ntf    sn210069   6.576   0.982   0.414 -0.0697  0.0755  0.1945
 1482ntf    cn110070   6.549   0.813   0.475  0.6097 -0.1669 -0.1696
 1482ntf    fn410071   6.506   1.385   0.627  0.2770  0.2393 -0.2057
 1482ntf    fn410072   6.460   1.193   0.720 -0.0346  0.7711  0.2810
 1482ntf    fn410073   6.606   1.315   0.800  0.5576 -0.6922  0.1717
 1482ntf    on510074   6.701   1.271   0.472 -0.4601 -0.3540 -0.3132
 1482ntf    on510075   6.778   1.163   0.685  0.0741  0.1804 -0.0332
 1482ntf    on510076   6.700   0.970   0.342  0.0059  0.5344  0.2434
 1482ntf    on510077   6.454   1.015   0.344  0.0330  0.0582  0.0084
 1482ntf    fn410078   6.430   0.794   0.531  0.7701  0.1827  0.2947
 1482ntf    fn410079   6.564   0.728   0.375  0.0497 -0.3522 -0.0994
 1482ntf    fn410080   6.643   0.786   0.564  0.2800  0.2641  0.3182
 1483ntf    cn110081   2.876   0.097   1.174 -0.4514 -0.0304  0.3804
 1483ntf    sn210082   2.933   0.143   1.341 -0.0589 -0.0524  0.2541
 1483ntf    nn310083   2.818   0.079   1.428 -0.2201  0.1352  0.1805
 1483ntf    sn210084   2.678   0.144   1.456 -0.2733  0.0268  0.1632
 1483ntf    cn110085   2.563   0.012   1.404  0.1771 -0.1805 -0.3205
 1483ntf    fn410086   2.886  -0.033   1.154 -0.3932 -0.0689  0.6499
 1483ntf    fn410087   2.762   0.138   1.123 -0.2020 -0.5789 -0.6377
 1483ntf    fn410088   2.948   0.146   1.075 -0.8449 -0.2523 -0.0207
 1483ntf    on510089   3.059   0.073   1.349  0.0379  0.0528 -0.2887
 1483ntf    on510090   2.939   0.287   1.340 -0.2331 -0.0443  0.2467
 1483ntf    on510091   2.636   0.245   1.362  0.2308  0.5238  0.4679
 1483ntf    on510092   2.645   0.154   1.596 -0.4635 -0.1171  0.1292
 1483ntf    fn410093   2.440   0.042   1.443  0.1992  0.1804 -0.5164
 1483ntf    fn410094   2.545  -0.001   1.274  0.0008  0.9957 -0.4296
 1483ntf    fn410095   2.591  -0.108   1.451 -0.3277 -0.1053  0.1930
 1484ntf    cn110096   4.784   2.036   3.815 -0.2104 -0.1335 -0.0951
 1484ntf    sn210097   4.808   1.874   3.736  0.1388 -0.1689  0.0822
 1484ntf    nn310098   4.950   1.826   3.785  0.2563  0.0970  0.0023
 1484ntf    sn210099   4.982   1.744   3.915 -0.2094 -0.4449 -0.2198
 1484ntf    cn110100   4.961   1.572   3.860  0.1327 -0.5876  0.0935
 1484ntf    fn410101   4.780   2.143   3.737 -0.2737  0.0915  0.2148
 1484ntf    fn410102   4.671   2.045   3.883  0.1421 -0.3042  0.5236
 1484ntf    fn410103   4.876   2.067   3.905 -0.3282  0.0296 -0.0319
 1484ntf    on510104   4.698   1.794   3.784  0.1490 -0.0818  0.2512
 1484ntf    on510105   4.805   1.907   3.596  0.2495 -0.3889  0.0267
 1484ntf    on510106   4.889   1.765   4.024  0.3103 -0.7790  0.2931
 1484ntf    on510107   5.119   1.755   3.956 -0.3642  0.3977  0.1004
 1484ntf    fn410108   5.031   1.552   3.749 -0.3912  0.1644 -0.3870
 1484ntf    fn410109   4.999   1.485   3.951 -0.8524 -0.5697  0.5318
 1484ntf    fn410110   4.835   1.550   3.826  0.0112  0.2749 -0.0562
 1485ntf    cn110111   3.571   6.788   5.567 -0.3320 -0.1888 -0.1554
 1485ntf    sn210112   3.467   6.883   5.683  0.0570 -0.0077  0.0470
 1485ntf    nn310113   3.571   6.900   5.800  0.1605 -0.1199 -0.0280
 1485ntf    sn210114   3.569   7.002   5.918  0.1848 -0.0156 -0.1177
 1485ntf    cn110115   3.715   7.103   5.876 -0.0865  0.5042  0.1808
 1485ntf    fn410116   3.655   6.703   5.623  0.1010  0.3149 -0.0296
 1485ntf    fn410117   3.502   6.720   5.477 -0.4222 -0.1326 -0.1295
 1485ntf    fn410118   3.659   6.867   5.506  0.1035  0.1641  0.8971
 1485ntf    on510119   3.443   7.014   5.630 -0.6266 -0.0829  0.1689
 1485ntf    on510120   3.356   6.794   5.706  0.1096 -0.1008 -0.0523
 1485ntf    on510121   3.614   6.937   6.039 -0.3853 -0.5403 -0.1885
 1485ntf    on510122   3.462   7.098   5.926  0.3442  0.1137  0.6056
 1485ntf    fn410123   3.832   7.043   5.890 -0.2253  0.1773 -0.0499
 1485ntf    fn410124   3.724   7.133   5.748  0.2101 -0.3197  0.0072
 1485ntf    fn410125   3.723   7.219   5.939  0.2459  0.5539  0.0448
 1486ntf    cn110126   6.445   4.347   6.371 -0.1207 -0.7718 -0.1014
 1486ntf    sn210127   6.295   4.313   6.273 -0.2793  0.2822 -0.2372
 1486ntf    nn310128   6.366   4.248   6.149  0.5105  0.1036  0.2962
 1486ntf    sn210129   6.391   4.317   6.010  0.0670  0.0010  0.1647
 1486ntf    cn110130   6.431   4.170   5.911 -0.1405  0.1855 -0.1953
 1486ntf    fn410131   6.504   4.233   6.402  0.1846 -0.5514  0.1326
 1486ntf    fn410132   6.528   4.425   6.302 -0.0237 -0.5088  0.3124
 1486ntf    fn410133   6.424   4.417   6.481  0.6652 -0.4507 -0.1482
 1486ntf    on510134   6.216   4.223   6.352  0.3298  0.0747  0.1479
 1486ntf    on510135   6.248   4.449   6.268  0.7907  0.6588 -0.4302
 1486ntf    on510136   6.510   4.398   6.018  0.0576  0.0388 -0.0835
 1486ntf    on510137   6.271   4.365   5.944  0.0954  0.7124  0.6165
 1486ntf    fn410138   6.323   4.105   5.874 -0.1756 -0.0404  0.2936
 1486ntf    fn410139   6.509   4.199   5.807 -0.1258 -0.3363 -0.3299
 1486ntf    fn410140   6.489   4.080   5.988 -0.0780  0.4152  0.0284
 1487ntf    cn110141   4.334   2.417   5.286  0.0828  0.0650 -0.0311
 1487ntf    sn210142   4.155   2.447   5.296  0.0603 -0.1032  0.0724
 1487ntf    nn310143   4.091   2.369   5.176  0.3857 -0.2830  0.0135
 1487ntf    sn210144   3.984   2.404   5.067  0.0697  0.3598  0.5234
 1487ntf    cn110145   3.874   2.271   5.126  0.3600 -0.1970 -0.1857
 1487ntf    fn410146   4.370   2.290   5.291 -0.0916  0.0099 -0.1892
 1487ntf    fn410147   4.395   2.478   5.186 -0.5263  0.0973 -0.3840
 1487ntf    fn410148   4.393   2.464   5.395 -0.0585  0.5587 -0.1681
 1487ntf    on510149   4.108   2.396   5.423 -0.6701  0.0471 -0.1339
 1487ntf    on510150   4.155   2.590   5.280 -0.4061 -0.0256  0.7155
 1487ntf    on510151   4.016   2.364   4.932  0.2275  0.0633  0.6481
 1487ntf    on510152   3.900   2.520   5.084 -0.2986  0.1929 -0.1245
 1487ntf    fn410153   3.769   2.245   5.051  0.0797  0.5889 -0.0700
 1487ntf    fn410154   3.951   2.163   5.132  0.9311  0.2198  0.1155
 1487ntf    fn410155   3.830   2.303   5.246 -0.3632 -0.4199 -0.3894
 1488ntf    cn110156   5.838   1.318   3.465  0.3513  0.3618  0.2014
 1488ntf    sn210157   5.920   1.439   3.573  0.2695  0.4949  0.1153
 1488ntf    nn310158   6.063   1.437   3.506  0.2597  0.3333  0.0983
 1488ntf    sn210159   6.189   1.347   3.529  0.0227  0.0620  0.3482
 1488ntf    cn110160   6.302   1.442   3.423 -0.3092  0.5930  0.4661
 1488ntf    fn410161   5.903   1.203   3.465 -0.1903  0.0407 -0.5415
 1488ntf    fn410162   5.723   1.289   3.524  0.4680 -0.1793  0.1666
 1488ntf    fn410163   5.830   1.355   3.338 -0.5272 -0.0958  0.1166
 1488ntf    on510164   5.844   1.558   3.548 -0.6171 -0.1890 -0.5099
 1488ntf    on510165   5.914   1.395   3.710  0.0060  0.0845 -0.0244
 1488ntf    on510166   6.177   1.219   3.463 -0.0408  0.4300 -0.3615
 1488ntf    on510167   6.259   1.354   3.655  0.1700  0.1154  0.2631
 1488ntf    fn410168   6.257   1.441   3.299  1.3849  0.2935 -0.1683
 1488ntf    fn410169   6.315   1.572   3.444 -0.1371  0.5730  0.4836
 1488ntf    fn410170   6.421   1.384   3.417 -0.6952 -0.1829  0.2595
 1489ntf    cn110171   0.626   1.222   3.880 -0.5278 -0.0865 -0.2440
 1489ntf    sn210172   0.619   1.059   3.802  0.0942 -0.0170 -0.4482
 1489ntf    nn310173   0.749   1.052   3.713  0.4694  0.3572  0.0652
 1489ntf    sn210174   0.822   0.922   3.663 -0.0200  0.1222 -0.0542
 1489ntf    cn110175   0.970   0.937   3.768 -0.0449 -0.1222  0.0152
 1489ntf    fn410176   0.643   1.318   3.791  0.2424 -0.1827 -0.2125
 1489ntf    fn410177   0.515   1.247   3.947 -0.3535  0.3622 -0.1152
 1489ntf    fn410178   0.730   1.240   3.960 -0.1094  0.4771 -0.8989
 1489ntf    on510179   0.618   0.980   3.923 -0.1384 -0.0857 -0.4942
 1489ntf    on510180   0.492   1.059   3.733 -0.1060 -0.6797 -0.0938
 1489ntf    on510181   0.867   0.918   3.526  0.0466  0.1984 -0.0348
 1489ntf    on510182   0.766   0.800   3.715 -0.1989  0.1035 -0.2910
 1489ntf    fn410183   1.017   1.060   3.760 -0.1296 -0.0924 -0.0280
 1489ntf    fn410184   0.956   0.902   3.895 -0.0284  0.0160  0.0553
 1489ntf    fn410185   1.069   0.861   3.725  0.1579 -0.1767  0.5619
 1490ntf    cn110186   6.484   5.652   0.233  0.1943  0.0037 -0.2627
 1490ntf    sn210187   6.312   5.675   0.287  0.2680  0.0105 -0.0293
 1490ntf    nn310188   6.270   5.525   0.301 -0.4484  0.2217  0.1345
 1490ntf    sn210189   6.224   5.431   0.183 -0.1632 -0.1078  0.2837
 1490ntf    cn110190   6.068   5.364   0.247 -0.3457  0.3543  0.3235
 1490ntf    fn410191   6.562   5.755   0.259  0.2410 -0.0819 -0.0640
 1490ntf    fn410192   6.548   5.548   0.284  0.2357 -0.0358 -0.3941
 1490ntf    fn410193   6.488   5.640   0.101 -0.2003  0.0650 -0.2800
 1490ntf    on510194   6.338   5.732   0.417 -0.7520  0.1079  0.1380
 1490ntf    on510195   6.244   5.764   0.195 -0.3840 -0.1612  0.2827
 1490ntf    on510196   6.310   5.316   0.175 -0.3740 -0.2352 -0.1677
 1490ntf    on510197   6.194   5.486   0.053 -0.5119  0.0935  0.4488
 1490ntf    fn410198   5.970   5.452   0.266  0.0316  0.7375  0.5106
 1490ntf    fn410199   6.013   5.267   0.176 -0.3321  0.5597  0.0300
 1490ntf    fn410200   6.091   5.312   0.366 -0.0343 -0.3122 -0.0248
 1491ntf    cn110201   3.806   4.542   4.102 -0.2522 -0.4749 -0.2930
 1491ntf    sn210202   3.685   4.678   4.108  0.2439 -0.0478  0.1357
 1491ntf    nn310203   3.687   4.698   4.264  0.3396 -0.6864  0.2215
 1491ntf    sn210204   3.763   4.806   4.349 -0.3275  0.0281 -0.0714
 1491ntf    cn110205   3.791   4.730   4.512 -0.2454  0.4464  0.1106
 1491ntf    fn410206   3.885   4.553   4.207 -0.2527 -0.0002 -0.3399
 1491ntf    fn410207   3.752   4.422   4.092  0.0699 -0.6358 -0.1140
 1491ntf    fn410208   3.884   4.551   3.995 -0.0248 -0.0653 -0.0945
 1491ntf    on510209   3.755   4.786   4.044 -0.4559  0.1616 -0.2843
 1491ntf    on510210   3.559   4.639   4.050  0.0035  0.4641  0.3087
 1491ntf    on510211   3.688   4.924   4.383  0.1665  0.3955 -0.2524
 1491ntf    on510212   3.899   4.829   4.308 -0.2475 -0.8789 -0.3414
 1491ntf    fn410213   3.872   4.798   4.591  0.4209  0.2821 -0.4274
 1491ntf    fn410214   3.684   4.720   4.590 -0.2090  0.0947  0.1171
 1491ntf    fn410215   3.837   4.606   4.504 -0.8425  0.2587 -0.4694
 1492ntf    cn110216   0.557   3.899   3.904 -0.2762 -0.2262  0.0417
 1492ntf    sn210217   0.632   3.946   4.063 -0.3686 -0.0681  0.0384
 1492ntf    nn310218   0.741   3.836   4.086  0.1095  0.2905 -0.4823
 1492ntf    sn210219   0.895   3.826   4.058  0.1521 -0.0520 -0.1389
 1492ntf    cn110220   0.916   3.647   4.078 -0.0750 -0.0694 -0.0527
 1492ntf    fn410221   0.440   3.958   3.888  0.0444  0.2967 -0.4240
 1492ntf    fn410222   0.645   3.924   3.809 -0.3222 -0.3213 -0.0259
 1492ntf    fn410223   0.538   3.768   3.909  0.1239 -0.2958 -0.2011
 1492ntf    on510224   0.688   4.076   4.036 -0.0793 -0.1540  0.2209
 1492ntf    on510225   0.521   3.947   4.155  0.3005  0.6507  0.8529
 1492ntf    on510226   0.966   3.875   4.174  0.2257 -0.1055 -0.1612
 1492ntf    on510227   0.938   3.848   3.922  0.3170 -0.2518 -0.1193
 1492ntf    fn410228   1.033   3.602   4.036 -0.0105  0.0737 -0.0262
 1492ntf    fn410229   0.911   3.599   4.201  0.7121 -0.3794 -0.1379
 1492ntf    fn410230   0.823   3.580   4.011  0.1572  0.1492 -0.6025
 1493ntf    cn110231   6.660   5.508   2.632  0.0751  0.0739  0.2356
 1493ntf    sn210232   6.785   5.640   2.632  0.1641 -0.0112  0.2029
 1493ntf    nn310233   6.782   5.679   2.784  0.0018  0.2619  0.1299
 1493ntf    sn210234   6.719   5.806   2.852 -0.3371 -0.0108  0.3308
 1493ntf    cn110235   6.857   5.917   2.813 -0.1841 -0.3565 -0.1188
 1493ntf    fn410236   6.542   5.554   2.671 -0.0165 -0.0906  0.1557
 1493ntf    fn410237   6.646   5.453   2.513  0.2328  0.1484  0.1824
 1493ntf    fn410238   6.681   5.410   2.719 -0.0730 -0.3710 -0.2224
 1493ntf    on510239   6.910   5.578   2.598  0.1344  0.1651 -0.2234
 1493ntf    on510240   6.733   5.732   2.535  0.0521 -0.1517  0.1293
 1493ntf    on510241   6.723   5.801   2.996  0.1476 -0.0432  0.3156
 1493ntf    on510242   6.602   5.865   2.792  0.2331 -0.4522 -1.2831
 1493ntf    fn410243   6.834   6.046   2.828  0.7587 -0.2383  0.3667
 1493ntf    fn410244   6.969   5.886   2.876 -0.1136 -0.4482 -0.2888
 1493ntf    fn410245   6.882   5.907   2.683 -0.1413 -0.5079 -0.0996
 1494ntf    cn110246   1.219   6.493   0.593 -0.1127  0.2995  0.2869
 1494ntf    sn210247   1.251   6.665   0.545  0.1389  0.2532  0.2895
 1494ntf    nn310248   1.402   6.674   0.588  0.1206 -0.3446  0.4887
 1494ntf    sn210249   1.529   6.647   0.501 -0.0640  0.3152  0.0009
 1494ntf    cn110250   1.572   6.811   0.435 -0.0839  0.1779 -0.3559
 1494ntf    fn410251   1.253   6.477   0.720  0.3306 -0.0404  0.1261
 1494ntf    fn410252   1.096   6.444   0.588  0.2191 -0.4771 -0.5922
 1494ntf    fn410253   1.288   6.410   0.517  0.0659  0.7627 -0.0612
 1494ntf    on510254   1.223   6.666   0.403  0.2739  0.4290  0.2628
 1494ntf    on510255   1.163   6.731   0.638 -0.2801 -0.5080  0.4443
 1494ntf    on510256   1.508   6.569   0.381  0.3321 -0.1097  0.2061
 1494ntf    on510257   1.639   6.612   0.588 -0.1490  0.3613  0.1255
 1494ntf    fn410258   1.658   6.805   0.334 -0.0274 -0.4134 -0.2779
 1494ntf    fn410259   1.465   6.869   0.384 -0.2740  0.6656  0.5801
 1494ntf    fn410260   1.622   6.890   0.528 -0.2207 -0.2006  0.0408
 1495ntf    cn110261   1.970   6.334   3.775  0.1628  0.1853  0.0009
 1495ntf    sn210262   2.011   6.248   3.620 -0.1071  0.3751 -0.1761
 1495ntf    nn310263   1.888   6.158   3.584  0.2741 -0.3937  0.4147
 1495ntf    sn210264   1.774   6.172   3.477  0.4085 -0.2652  0.2894
 1495ntf    cn110265   1.640   6.085   3.563 -0.2027 -0.4023 -0.7829
 1495ntf    fn410266   2.064   6.423   3.807  0.4551 -0.3035  0.5261
 1495ntf    fn410267   1.861   6.405   3.754  0.2801  0.2297 -0.4749
 1495ntf    fn410268   1.953   6.266   3.887  0.1043  0.4809  0.1727
 1495ntf    on510269   2.043   6.354   3.528 -0.0348  0.6479  0.1611
 1495ntf    on510270   2.118   6.164   3.668  0.3822  0.7524 -0.6023
 1495ntf    on510271   1.796   6.097   3.355  0.1597 -0.4531  0.3589
 1495ntf    on510272   1.703   6.297   3.464  0.7364 -0.1463 -0.4050
 1495ntf    fn410273   1.632   5.955   3.543  0.1721 -0.6177  0.3851
 1495ntf    fn410274   1.644   6.100   3.694  0.0750 -0.2072 -0.8134
 1495ntf    fn410275   1.520   6.128   3.526 -0.1416 -0.3347 -0.9020
 1496ntf    cn110276   2.058   5.323   4.194  0.1768 -0.2447 -0.0795
 1496ntf    sn210277   2.027   5.217   4.338 -0.0466 -0.2333 -0.1182
 1496ntf    nn310278   1.913   5.119   4.292 -0.5090  0.2822 -0.0729
 1496ntf    sn210279   1.796   5.051   4.371 -0.1747 -0.4114 -0.1737
 1496ntf    cn110280   1.791   4.884   4.299 -0.5535 -0.2643 -0.4922
 1496ntf    fn410281   2.128   5.256   4.106  0.6357  0.5504 -0.3304
 1496ntf    fn410282   1.949   5.378   4.143 -0.1036 -0.4859  0.2478
 1496ntf    fn410283   2.151   5.411   4.227 -0.4788  0.5191 -0.2282
 1496ntf    on510284   2.156   5.154   4.352 -0.0256 -0.1313  0.1584
 1496ntf    on510285   1.994   5.322   4.431 -0.1603 -0.4024  0.0332
 1496ntf    on510286   1.668   5.108   4.340 -0.0886 -0.2513 -0.2365
 1496ntf    on510287   1.815   5.027   4.512  0.6022  0.6650 -0.0803
 1496ntf    fn410288   1.902   4.812   4.306 -0.2169  0.3064  0.2352
 1496ntf    fn410289   1.700   4.816   4.367 -0.6962  0.8331  0.4411
 1496ntf    fn410290   1.765   4.893   4.170  0.4858  0.1118 -0.6875
 1497ntf    cn110291   6.318   4.017   0.482  0.7259  0.2057  0.0972
 1497ntf    sn210292   6.379   4.185   0.447  0.2227  0.3470 -0.1245
 1497ntf    nn310293   6.271   4.270   0.523 -0.0491  0.0722 -0.2053
 1497ntf    sn210294   6.144   4.346   0.471 -0.2256 -0.1374 -0.0812
 1497ntf    cn110295   6.128   4.471   0.602 -0.3880 -0.0548 -0.1798
 1497ntf    fn410296   6.336   3.980   0.608 -0.0823  0.3613  0.2674
 1497ntf    fn410297   6.188   4.000   0.467  0.7754 -0.2808  0.2230
 1497ntf    fn410298   6.376   3.929   0.403  0.4980 -0.4150  0.6175
 1497ntf    on510299   6.512   4.178   0.504 -0.4208  0.1417  1.3843
 1497ntf    on510300   6.369   4.196   0.303  0.9172 -0.0838 -0.2142
 1497ntf    on510301   6.019   4.273   0.480 -0.0582 -0.3676  0.4214
 1497ntf    on510302   6.157   4.425   0.352  0.2524 -0.6637 -0.3829
 1497ntf    fn410303   6.106   4.431   0.726  0.3158 -0.0220 -0.0435
 1497ntf    fn410304   6.225   4.560   0.592 -0.2882 -0.1685 -0.2271
 1497ntf    fn410305   6.022   4.544   0.572 -0.3769  0.0181 -0.0423
 1498ntf    cn110306   6.548   2.714   5.691  0.1630 -0.0838  0.5611
 1498ntf    sn210307   6.597   2.888   5.672 -0.0603 -0.0552  0.2339
 1498ntf    nn310308   6.475   2.958   5.742 -0.2000 -0.5741  0.5182
 1498ntf    sn210309   6.473   3.111   5.778  0.0602 -0.4073 -0.1532
 1498ntf    cn110310   6.388   3.166   5.627  0.4468  0.3179 -0.1117
 1498ntf    fn410311   6.434   2.692   5.628  0.4038 -0.1247  0.1333
 1498ntf    fn410312   6.631   2.622   5.644 -0.3137 -0.2332  0.0019
 1498ntf    fn410313   6.524   2.694   5.820  0.2104  0.4828  0.6606
 1498ntf    on510314   6.722   2.888   5.745  0.0909 -0.7254 -0.0207
 1498ntf    on510315   6.602   2.915   5.531 -0.6230 -0.9560  0.0371
 1498ntf    on510316   6.595   3.186   5.768 -0.1498  0.0334  0.5215
 1498ntf    on510317   6.389   3.150   5.889 -0.1752 -0.1511 -0.4186
 1498ntf    fn410318   6.257   3.149   5.637  0.4554  0.5211  0.3756
 1498ntf    fn410319   6.403   3.294   5.599 -0.3944  0.4752  0.1157
 1498ntf    fn410320   6.430   3.094   5.524  0.2381  0.1256 -0.0625
 1499ntf    cn110321   3.520   6.457   3.927 -0.2602 -0.0267 -0.3772
 1499ntf    sn210322   3.411   6.421   3.786 -0.3829 -0.1115 -0.2612
 1499ntf    nn310323   3.286   6.398   3.878 -0.4867  0.4767 -0.2530
 1499ntf    sn210324   3.240   6.252   3.911  0.0422  0.3310 -0.1443
 1499ntf    cn110325   3.168   6.204   3.751  0.4361 -0.1372 -0.1842
 1499ntf    fn410326   3.482   6.567   3.990  0.1633 -0.3712  0.5011
 1499ntf    fn410327   3.508   6.360   4.015  0.2122  0.4038  0.1692
 1499ntf    fn410328   3.648   6.477   3.900 -0.2145  0.3124  0.0686
 1499ntf    on510329   3.396   6.549   3.722  0.5233  0.0898 -0.0972
 1499ntf    on510330   3.481   6.320   3.710 -0.0449  0.2994 -0.4995
 1499ntf    on510331   3.134   6.255   4.009  0.2018 -0.2100  0.0496
 1499ntf    on510332   3.341   6.149   3.926 -0.4563 -0.0136  0.9484
 1499ntf    fn410333   3.043   6.242   3.729  0.3505 -0.4807 -0.2898
 1499ntf    fn410334   3.243   6.238   3.647  0.7380  0.3967  0.2035
 1499ntf    fn410335   3.175   6.072   3.747 -0.1585 -0.1981  0.6221
 1500ntf    cn110336   1.568   1.129   2.010 -0.1553 -0.2232  0.1750
 1500ntf    sn210337   1.698   1.102   2.134 -0.1122  0.0102  0.1825
 1500ntf    nn310338   1.683   1.237   2.212 -0.4296 -0.0582  0.2456
 1500ntf    sn210339   1.680   1.254   2.368  0.2636 -0.1663  0.2760
 1500ntf    cn110340   1.715   1.430   2.394 -0.1279 -0.0924  0.3135
 1500ntf    fn410341   1.543   1.027   1.930  0.2044 -0.3053  0.1663
 1500ntf    fn410342   1.454   1.155   2.072 -0.1825 -0.0732  0.0632
 1500ntf    fn410343   1.593   1.235   1.934 -0.5779  0.0299  0.3801
 1500ntf    on510344   1.652   0.985   2.205  1.0251 -0.0316  0.8689
 1500ntf    on510345   1.812   1.080   2.050 -0.4709  0.1872 -0.3518
 1500ntf    on510346   1.782   1.182   2.441  0.1945 -0.2659  0.2749
 1500ntf    on510347   1.549   1.245   2.429  0.2883 -0.3207  0.3062
 1500ntf    fn410348   1.833   1.461   2.342 -0.5569  0.1123 -0.5394
 1500ntf    fn410349   1.635   1.522   2.342  0.4857  0.3377  0.1195
 1500ntf    fn410350   1.727   1.455   2.524 -0.3217  0.1713  0.2814
 1501ntf    cn110351   1.813   1.222   0.393 -0.2157 -0.4653 -0.0423
 1501ntf    sn210352   1.703   1.273   0.258  0.3041  0.0231 -0.2865
 1501ntf    nn310353   1.814   1.307   0.153  0.8286  0.7470  0.4840
 1501ntf    sn210354   1.839   1.440   0.075  0.3560  0.4110 -0.2522
 1501ntf    cn110355   1.941   1.371  -0.059 -0.0931 -0.2509 -0.2568
 1501ntf    fn410356   1.883   1.317   0.454 -0.5029 -0.2119 -0.1043
 1501ntf    fn410357   1.737   1.179   0.493 -0.5784  0.2841  0.0131
 1501ntf    fn410358   1.892   1.122   0.359  0.2266 -0.3437  0.5996
 1501ntf    on510359   1.627   1.153   0.234  0.6325 -0.4379  0.8917
 1501ntf    on510360   1.630   1.385   0.313  0.3473  0.1099 -0.4076
 1501ntf    on510361   1.926   1.528   0.149 -0.7169  0.8404  0.5324
 1501ntf    on510362   1.721   1.502   0.018 -0.1809 -0.7245 -0.3935
 1501ntf    fn410363   1.930   1.438  -0.172  0.6954 -0.2526 -0.3382
 1501ntf    fn410364   2.071   1.375  -0.037 -0.1636  0.3351  0.0763
 1501ntf    fn410365   1.901   1.246  -0.074 -0.3475 -0.1358 -0.5464
 1502ntf    cn110366   1.606   5.807   6.271  0.2074  0.1466  0.0307
 1502ntf    sn210367   1.514   5.820   6.428 -0.1303 -0.1522 -0.1429
 1502ntf    nn310368   1.418   5.700   6.397  0.2458 -0.3690 -0.4803
 1502ntf    sn210369   1.261   5.692   6.387  0.2300 -0.2781 -0.3002
 1502ntf    cn110370   1.205   5.686   6.560  0.3747 -0.1914 -0.2496
 1502ntf    fn410371   1.685   5.912   6.254 -0.6855  0.8467  0.0904
 1502ntf    fn410372   1.679   5.698   6.288 -0.0182 -0.0395 -0.1989
 1502ntf    fn410373   1.540   5.795   6.157 -0.1431  0.4703  0.1956
 1502ntf    on510374   1.610   5.796   6.533 -0.0437  0.3357 -0.1122
 1502ntf    on510375   1.460   5.953   6.418 -0.4870 -0.2620  0.3055
 1502ntf    on510376   1.217   5.564   6.337  0.0733 -0.3844  0.1100
 1502ntf    on510377   1.194   5.801   6.322 -0.4550 -0.6073 -0.1580
 1502ntf    fn410378   1.249   5.788   6.632 -0.2942 -0.0258 -0.0596
 1502ntf    fn410379   1.072   5.688   6.563  0.3779 -0.0599 -0.2079
 1502ntf    fn410380   1.251   5.582   6.628 -0.1716 -0.2067  0.1018
 1503ntf    cn110381   2.420   3.103   2.605 -0.0527 -0.1757 -0.2669
 1503ntf    sn210382   2.253   3.035   2.618 -0.1671  0.1456 -0.0391
 1503ntf    nn310383   2.274   2.977   2.763 -0.4231 -0.0832 -0.0920
 1503ntf    sn210384   2.330   2.840   2.814  0.0847  0.0307 -0.3360
 1503ntf    cn110385   2.174   2.778   2.885  0.2038  0.1744  0.0522
 1503ntf    fn410386   2.513   3.022   2.654  0.0376  0.0941  0.0140
 1503ntf    fn410387   2.453   3.132   2.480 -0.2338  0.2430 -0.2185
 1503ntf    fn410388   2.430   3.216   2.675  0.3720 -0.2158 -0.2566
 1503ntf    on510389   2.162   3.148   2.615 -0.1125  0.1894 -0.0363
 1503ntf    on510390   2.266   2.941   2.510 -0.0338  0.1872 -0.0589
 1503ntf    on510391   2.415   2.856   2.930  0.2490 -0.1610 -0.4291
 1503ntf    on510392   2.372   2.744   2.715 -0.2108  0.1221 -0.5498
 1503ntf    fn410393   2.073   2.775   2.800  0.0532 -0.5027  0.2565
 1503ntf    fn410394   2.193   2.654   2.927 -0.1890  0.0256 -0.2035
 1503ntf    fn410395   2.136   2.844   2.993 -0.3081 -0.0109 -0.0155
 1504ntf    cn110396   0.341   1.798   5.624  0.3393  0.1341 -0.0446
 1504ntf    sn210397   0.203   1.875   5.714  0.0535  0.0816 -0.4359
 1504ntf    nn310398   0.262   2.019   5.733  0.1530 -0.0564  0.3111
 1504ntf    sn210399   0.186   2.139   5.802  0.0318 -0.1075  0.2676
 1504ntf    cn110400   0.191   2.251   5.659 -0.3650  0.1584  0.4633
 1504ntf    fn410401   0.330   1.667   5.613 -0.8062  0.2252 -0.0881
 1504ntf    fn410402   0.377   1.839   5.503  0.0612  0.0278 -0.1656
 1504ntf    fn410403   0.449   1.817   5.698  0.5415  0.0853 -0.3214
 1504ntf    on510404   0.086   1.861   5.631 -0.1373 -0.2299 -0.1160
 1504ntf    on510405   0.202   1.798   5.835  0.0053  0.4206 -0.2198
 1504ntf    on510406   0.271   2.207   5.896  0.2038  0.4940 -0.3113
 1504ntf    on510407   0.049   2.115   5.840 -0.0869  0.2130  0.0451
 1504ntf    fn410408   0.109   2.355   5.675 -0.3379  0.1939  0.3726
 1504ntf    fn410409   0.310   2.302   5.631  0.1148 -0.8456  0.6481
 1504ntf    fn410410   0.154   2.184   5.551 -0.5315  0.3010  0.4309
 1505ntf    cn110411   5.089   3.145   4.828  0.1911 -0.0659 -0.1882
 1505ntf    sn210412   4.999   3.214   4.970 -0.1303  0.0122 -0.4288
 1505ntf    nn310413   4.925   3.083   5.015  0.5586 -0.4251 -0.5603
 1505ntf    sn210414   4.772   3.061   5.045  0.6436 -0.0887  0.1293
 1505ntf    cn110415   4.794   2.912   5.147  0.1589 -0.3285 -0.1176
 1505ntf    fn410416   5.145   3.027   4.851  0.4352 -0.0862 -0.8665
 1505ntf    fn410417   5.003   3.127   4.729 -0.2708  0.1499  0.1655
 1505ntf    fn410418   5.177   3.229   4.777  0.0456  0.0646 -0.2255
 1505ntf    on510419   5.099   3.263   5.061 -0.7308 -0.3628  0.4535
 1505ntf    on510420   4.924   3.306   4.888 -0.3768 -0.5050 -0.7927
 1505ntf    on510421   4.698   3.015   4.930  0.0254  0.4081  0.3239
 1505ntf    on510422   4.707   3.157   5.131  0.9126  0.1909  0.0231
 1505ntf    fn410423   4.692   2.879   5.225  0.1782  0.2106  0.1445
 1505ntf    fn410424   4.818   2.803   5.076 -0.1371 -0.5807  0.1685
 1505ntf    fn410425   4.894   2.941   5.228 -0.0303 -0.3035  0.1116
 1506ntf    cn110426   6.410   1.312   1.100  0.1413  0.6267 -0.1057
 1506ntf    sn210427   6.519   1.381   1.228  0.0846  0.1355  0.2073
 1506ntf    nn310428   6.499   1.279   1.346 -0.0892  0.1726  0.2093
 1506ntf    sn210429   6.616   1.214   1.427 -0.2658 -0.1141  0.2345
 1506ntf    cn110430   6.636   1.348   1.548  0.4454 -0.1190  0.1244
 1506ntf    fn410431   6.294   1.294   1.159 -0.0033 -0.0522 -0.5831
 1506ntf    fn410432   6.406   1.379   0.986 -0.0903  0.6457 -0.0865
 1506ntf    fn410433   6.445   1.189   1.066 -0.4381  0.4804 -0.1751
 1506ntf    on510434   6.645   1.380   1.157  0.3028 -0.6348  0.5913
 1506ntf    on510435   6.450   1.504   1.256  0.4706  0.2028  0.8867
 1506ntf    on510436   6.745   1.186   1.370 -0.1345 -0.5725  0.7415
 1506ntf    on510437   6.580   1.099   1.507 -0.0584 -0.7119 -0.5211
 1506ntf    fn410438   6.728   1.324   1.641  0.2939  0.0916  0.3283
 1506ntf    fn410439   6.667   1.462   1.488  0.2424 -0.2424 -0.2145
 1506ntf    fn410440   6.522   1.366   1.612 -0.0091 -0.5815 -0.5481
 1507ntf    cn110441   3.938   4.547   0.577  0.1399  0.2691  0.1298
 1507ntf    sn210442   4.088   4.556   0.474 -0.1671 -0.0372 -0.3469
 1507ntf    nn310443   4.164   4.427   0.520 -0.2603  0.1958  0.4778
 1507ntf    sn210444   4.257   4.403   0.645 -0.2089 -0.3460  0.3413
 1507ntf    cn110445   4.423   4.424   0.575 -0.2228 -0.5999  0.2351
 1507ntf    fn410446   3.868   4.659   0.580 -0.1838  0.0648  0.2362
 1507ntf    fn410447   3.855   4.455   0.530 -0.1244  0.2126  0.7003
 1507ntf    fn410448   3.956   4.526   0.707  0.1768 -0.9228 -0.0566
 1507ntf    on510449   4.039   4.545   0.339  0.3175 -0.1443 -0.5160
 1507ntf    on510450   4.155   4.679   0.509 -0.3514 -0.0833  0.1752
 1507ntf    on510451   4.258   4.266   0.687 -1.1470 -0.5664 -0.3136
 1507ntf    on510452   4.254   4.510   0.742  0.5651 -0.0810  0.0798
 1507ntf    fn410453   4.463   4.320   0.503  0.1777 -0.2188 -0.1004
 1507ntf    fn410454   4.437   4.526   0.492 -0.6751 -0.0079  0.8836
 1507ntf    fn410455   4.508   4.447   0.673  0.4426 -0.2245 -0.4182
 1508ntf    cn110456   3.854   2.474   0.476 -0.2520 -0.0171 -0.2247
 1508ntf    sn210457   3.949   2.413   0.334 -0.0380 -0.0624 -0.0627
 1508ntf    nn310458   4.072   2.349   0.407 -0.3565  0.0003  0.5314
 1508ntf    sn210459   4.171   2.234   0.366 -0.3358  0.2266 -0.0650
 1508ntf    cn110460   4.085   2.090   0.434  0.4051 -0.2059 -0.0365
 1508ntf    fn410461   3.742   2.540   0.448 -0.0669  0.1423 -0.5979
 1508ntf    fn410462   3.821   2.374   0.556  0.1657 -0.1831 -0.2570
 1508ntf    fn410463   3.931   2.553   0.549 -0.4682  0.0183 -0.0344
 1508ntf    on510464   3.860   2.316   0.275 -0.1386 -0.0652  0.0948
 1508ntf    on510465   3.990   2.536   0.269 -0.0104 -0.0788 -0.0761
 1508ntf    on510466   4.295   2.237   0.439 -0.1687  0.8369 -0.3636
 1508ntf    on510467   4.168   2.196   0.227 -0.5479 -0.1388  0.0383
 1508ntf    fn410468   4.060   2.098   0.564 -0.1186 -0.2634 -0.1304
 1508ntf    fn410469   3.970   2.081   0.369  0.3520  0.0292  0.0243
 1508ntf    fn410470   4.146   1.972   0.427 -0.4160 -0.6604  0.2535
 1509ntf    cn110471   6.497   1.933   3.890 -0.2102 -0.2004 -0.2325
 1509ntf    sn210472   6.593   2.086   3.917 -0.3540 -0.1299 -0.1178
 1509ntf    nn310473   6.642   2.037   4.057 -0.4402  0.0107 -0.0389
 1509ntf    sn210474   6.685   2.129   4.177  0.0312  0.0551 -0.2409
 1509ntf    cn110475   6.786   2.259   4.100  0.0178  0.2119  0.0050
 1509ntf    fn410476   6.578   1.834   3.857  0.3485  0.0616  0.3174
 1509ntf    fn410477   6.435   1.884   3.996  0.2622  0.2690  0.2709
 1509ntf    fn410478   6.418   1.939   3.785 -0.2679  0.4383 -0.1557
 1509ntf    on510479   6.704   2.092   3.825 -0.2297  0.4459  0.0722
 1509ntf    on510480   6.489   2.185   3.906  0.1698  0.5043  0.5839
 1509ntf    on510481   6.776   2.061   4.266  0.2516  0.4718 -0.1421
 1509ntf    on510482   6.576   2.190   4.248  0.3104  0.3297 -0.0426
 1509ntf    fn410483   6.876   2.208   4.018 -0.5574 -0.4859 -0.1968
 1509ntf    fn410484   6.717   2.346   4.028 -0.0190 -0.1790 -0.4336
 1509ntf    fn410485   6.851   2.327   4.193 -0.2165  0.4000  0.0315
 1510ntf    cn110486   6.485   3.458   1.089  0.1042 -0.1914 -0.1156
 1510ntf    sn210487   6.463   3.518   0.919  0.1902 -0.3919 -0.1980
 1510ntf    nn310488   6.352   3.625   0.945 -0.0039 -0.5904 -0.2093
 1510ntf    sn210489   6.196   3.619   0.929 -0.0628  0.1298  0.0316
 1510ntf    cn110490   6.190   3.676   0.757 -0.5736 -0.6982 -0.2333
 1510ntf    fn410491   6.596   3.393   1.120  0.2568  0.1307  0.0087
 1510ntf    fn410492   6.490   3.554   1.179  0.0819 -0.2751 -0.0245
 1510ntf    fn410493   6.383   3.381   1.124 -0.0233 -0.0145 -0.0955
 1510ntf    on510494   6.589   3.582   0.888 -0.0430  0.1363 -0.0632
 1510ntf    on510495   6.436   3.395   0.849 -0.5192 -0.6014  0.4238
 1510ntf    on510496   6.119   3.716   1.003  0.0962  0.0957  0.2440
 1510ntf    on510497   6.149   3.483   0.913  0.4574 -0.0043 -0.3726
 1510ntf    fn410498   6.231   3.799   0.729 -0.3711 -0.6792  0.1391
 1510ntf    fn410499   6.262   3.591   0.685  0.0344  0.0779 -0.5548
 1510ntf    fn410500   6.071   3.665   0.699 -0.9368  0.0196  0.3568
 1511ntf    cn110501   5.829   1.678   6.441 -0.0415  0.5263 -0.0034
 1511ntf    sn210502   5.747   1.578   6.313  0.1832 -0.1792  0.3975
 1511ntf    nn310503   5.608   1.650   6.301  0.1542 -0.2840  0.0991
 1511ntf    sn210504   5.501   1.641   6.186  0.1537 -0.4708  0.1130
 1511ntf    cn110505   5.351   1.649   6.288 -0.0075  0.0870 -0.1632
 1511ntf    fn410506   5.839   1.802   6.397  0.5942  0.6009  0.3375
 1511ntf    fn410507   5.746   1.688   6.542  0.2964  0.2305  0.3068
 1511ntf    fn410508   5.946   1.631   6.480 -0.3580 -0.1797  0.1114
 1511ntf    on510509   5.832   1.605   6.199  0.1552 -0.4942  0.3000
 1511ntf    on510510   5.744   1.444   6.364  0.5917 -0.3235  0.0502
 1511ntf    on510511   5.491   1.518   6.111 -0.1110 -0.0221 -0.6024
 1511ntf    on510512   5.487   1.766   6.114 -0.3391 -0.4430  0.2594
 1511ntf    fn410513   5.330   1.539   6.357 -0.7998  0.5362  0.3173
 1511ntf    fn410514   5.368   1.744   6.379  0.6147 -0.2560  0.0823
 1511ntf    fn410515   5.242   1.689   6.224  0.1573  0.0894 -0.4438
 1512ntf    cn110516   4.932   0.595   1.393  0.2447  0.2840  0.3054
 1512ntf    sn210517   4.961   0.494   1.244 -0.2419  0.4724  0.0799
 1512ntf    nn310518   4.867   0.559   1.137 -0.3016 -0.0808 -0.2058
 1512ntf    sn210519   4.906   0.669   1.032 -0.0343  0.2925  0.2851
 1512ntf    cn110520   4.741   0.739   1.005 -0.1819 -0.0388  0.3370
 1512ntf    fn410521   4.817   0.569   1.452 -0.0861  0.1369 -0.3865
 1512ntf    fn410522   5.027   0.563   1.479  0.2814 -0.4882 -0.0132
 1512ntf    fn410523   4.944   0.724   1.367  0.1146  0.2512  0.0783
 1512ntf    on510524   5.103   0.507   1.225 -0.1833 -0.5877 -0.2743
 1512ntf    on510525   4.910   0.364   1.280  0.3938 -0.0478 -0.8591
 1512ntf    on510526   4.946   0.624   0.901 -0.1491  0.1080  0.3144
 1512ntf    on510527   4.972   0.787   1.083  0.6686 -0.0084  0.0835
 1512ntf    fn410528   4.749   0.830   0.910 -0.7331 -0.2180  0.1116
 1512ntf    fn410529   4.661   0.643   0.961  0.2359 -0.1663 -0.1471
 1512ntf    fn410530   4.684   0.776   1.119 -0.7375 -0.6793  0.2767
 1513ntf    cn110531   4.429   4.204   6.667  0.0802  0.1927 -0.0565
 1513ntf    sn210532   4.387   4.300   6.519 -0.4742 -0.1663 -0.1370
 1513ntf    nn310533   4.406   4.189   6.410  0.1992 -0.6314  0.4469
 1513ntf    sn210534   4.495   4.189   6.281 -0.0626 -0.3193  0.2648
 1513ntf    cn110535   4.406   4.081   6.164  0.0011  0.2652 -0.3302
 1513ntf    fn410536   4.465   4.278   6.770  0.5517  0.0352 -0.1077
 1513ntf    fn410537   4.335   4.122   6.712 -0.1386  0.2171 -0.4653
 1513ntf    fn410538   4.540   4.134   6.648 -0.0001  0.1247 -0.2734
 1513ntf    on510539   4.250   4.343   6.533 -0.3175  0.2883  0.0043
 1513ntf    on510540   4.489   4.401   6.508 -0.0957 -0.5698 -0.3767
 1513ntf    on510541   4.622   4.121   6.295 -0.0358 -0.4707 -0.6226
 1513ntf    on510542   4.501   4.313   6.208  0.2664 -0.3668  0.2111
 1513ntf    fn410543   4.276   4.105   6.162  0.0798  0.6764 -0.6801
 1513ntf    fn410544   4.436   4.107   6.038  0.3087  0.4932 -0.2114
 1513ntf    fn410545   4.418   3.951   6.187  0.0634  0.2336 -0.5354
 1514ntf    cn110546   3.807   5.781   1.270  0.3887  0.3278  0.2679
 1514ntf    sn210547   3.829   5.670   1.128 -0.0612  0.4328  0.1128
 1514ntf    nn310548   3.830   5.527   1.192 -0.7666  0.4540  0.1781
 1514ntf    sn210549   3.732   5.405   1.179  0.0193 -0.1851  0.1545
 1514ntf    cn110550   3.768   5.295   1.319  0.0466 -0.3259  0.0377
 1514ntf    fn410551   3.899   5.765   1.364  0.4028 -0.1174  0.1768
 1514ntf    fn410552   3.819   5.907   1.229  0.4203  0.2509  0.0409
 1514ntf    fn410553   3.686   5.762   1.320  0.1876  0.0968 -0.2995
 1514ntf    on510554   3.726   5.697   1.032  0.0165 -0.5489 -0.2601
 1514ntf    on510555   3.964   5.713   1.101 -0.0433  0.1028 -0.3388
 1514ntf    on510556   3.759   5.323   1.063 -0.4021 -0.3808  0.1928
 1514ntf    on510557   3.593   5.440   1.195  0.2480  0.5644  0.5316
 1514ntf    fn410558   3.702   5.181   1.306  0.5043 -0.5189 -0.6221
 1514ntf    fn410559   3.897   5.267   1.314  0.1701  0.2522 -0.0665
 1514ntf    fn410560   3.738   5.353   1.435  0.4607 -0.2648  0.1152
 1515ntf    cn110561   1.458   1.168   1.489  0.3084 -0.1063  0.5495
 1515ntf    sn210562   1.497   1.342   1.457 -0.2605 -0.1849 -0.6493
 1515ntf    nn310563   1.596   1.335   1.336  0.5859  0.8421 -0.0386
 1515ntf    sn210564   1.580   1.337   1.180  0.4266  0.1031 -0.0349
 1515ntf    cn110565   1.612   1.509   1.132 -0.2311  0.1630 -0.2718
 1515ntf    fn410566   1.357   1.123   1.415  0.3830  1.2180 -0.3954
 1515ntf    fn410567   1.568   1.100   1.462  0.1702  0.0332 -0.4012
 1515ntf    fn410568   1.434   1.145   1.617 -0.1736 -0.3323  0.4258
 1515ntf    on510569   1.364   1.396   1.442 -0.1124  0.2894 -0.2877
 1515ntf    on510570   1.567   1.384   1.576 -0.7426 -0.5988 -0.2126
 1515ntf    on510571   1.445   1.309   1.137  0.2314  0.0448  0.6070
 1515ntf    on510572   1.689   1.273   1.111  0.5332 -0.0522  0.2782
 1515ntf    fn410573   1.610   1.529   1.001  0.0467  0.1543 -0.2771
 1515ntf    fn410574   1.521   1.586   1.190 -0.1676  0.0745 -0.0566
 1515ntf    fn410575   1.734   1.543   1.169 -0.3642  0.5157 -0.1475
 1516ntf    cn110576   1.384   1.179   3.666  0.5287  0.2614 -0.1303
 1516ntf    sn210577   1.375   1.355   3.710 -0.0110  0.2344 -0.1190
 1516ntf    nn310578   1.510   1.376   3.788  0.2715 -0.2509 -0.4678
 1516ntf    sn210579   1.531   1.360   3.943 -0.0506  0.0993 -0.3841
 1516ntf    cn110580   1.654   1.493   3.956  0.1537 -0.1681  0.4396
 1516ntf    fn410581   1.294   1.142   3.576  0.5215 -0.2777  0.0926
 1516ntf    fn410582   1.501   1.129   3.631  0.1839 -0.5980 -0.0976
 1516ntf    fn410583   1.348   1.111   3.774 -0.0404  0.3576 -0.2561
 1516ntf    on510584   1.383   1.410   3.577  0.0609  0.5508  0.0160
 1516ntf    on510585   1.253   1.374   3.783 -0.1710 -0.0060 -0.3208
 1516ntf    on510586   1.609   1.243   3.976 -0.4155 -0.1540 -0.4132
 1516ntf    on510587   1.440   1.408   4.043  0.1637  0.1636 -0.2204
 1516ntf    fn410588   1.752   1.482   3.868  0.1880 -0.0638  0.4637
 1516ntf    fn410589   1.608   1.617   3.960 -0.2374 -0.3182  0.6524
 1516ntf    fn410590   1.722   1.488   4.070 -0.0219 -0.0594  0.5494
 1517ntf    cn110591   5.870   3.630   0.366 -0.0232 -0.0010  0.2858
 1517ntf    sn210592   5.799   3.505   0.254  0.0856  0.1460  0.0514
 1517ntf    nn310593   5.645   3.538   0.261  0.0527 -0.0797  0.4227
 1517ntf    sn210594   5.522   3.459   0.318  0.1674 -0.5936 -0.0381
 1517ntf    cn110595   5.389   3.534   0.219  0.2120 -0.0659  0.2970
 1517ntf    fn410596   5.859   3.754   0.321 -0.4657 -0.1094  0.0895
 1517ntf    fn410597   5.813   3.640   0.485 -0.4744  0.0938  0.0620
 1517ntf    fn410598   6.000   3.604   0.376 -0.1130 -0.3360  0.6248
 1517ntf    on510599   5.838   3.548   0.122  0.3281  0.6596  0.2858
 1517ntf    on510600   5.832   3.378   0.314 -0.9402 -0.0060  0.3230
 1517ntf    on510601   5.496   3.500   0.454  0.1868  0.3520 -0.3120
 1517ntf    on510602   5.512   3.321   0.278  0.6778 -0.6704  0.0924
 1517ntf    fn410603   5.404   3.532   0.088 -0.1658  0.0829  0.2516
 1517ntf    fn410604   5.263   3.500   0.242  0.1485 -0.1404 -0.1572
 1517ntf    fn410605   5.394   3.663   0.245  0.0344 -0.0585  0.2921
 1518ntf    cn110606   6.709   0.195   6.672  0.1180  0.5193 -0.0897
 1518ntf    sn210607   6.709   0.352   6.764 -0.0007  0.3429  0.2122
 1518ntf    nn310608   6.553   0.368   6.769  0.0067  0.3554  0.4013
 1518ntf    sn210609   6.442   0.333   6.875  0.0995 -0.1226  0.3378
 1518ntf    cn110610   6.438   0.475   6.987  0.2406 -0.2261  0.4743
 1518ntf    fn410611   6.642   0.104   6.740  0.0996  0.4373 -0.2173
 1518ntf    fn410612   6.653   0.196   6.553  0.0248  0.1383 -0.0498
 1518ntf    fn410613   6.830   0.143   6.657 -0.1241 -0.2067  0.4266
 1518ntf    on510614   6.771   0.317   6.889  0.2550  0.4048  0.1035
 1518ntf    on510615   6.775   0.442   6.673 -0.1433  0.1151 -0.1169
 1518ntf    on510616   6.479   0.227   6.966 -0.0596 -0.4297  0.0508
 1518ntf    on510617   6.308   0.318   6.823  0.1361  0.0501  0.1929
 1518ntf    fn410618   6.419   0.587   6.919  0.8446 -0.0670  0.5559
 1518ntf    fn410619   6.338   0.475   7.073 -0.5414  0.5699 -0.4072
 1518ntf    fn410620   6.549   0.493   7.058  0.1351  0.4039  0.4871
 1519ntf    cn110621   3.610   0.418   4.977 -0.0719  0.2001 -0.3171
 1519ntf    sn210622   3.608   0.594   5.022 -0.3686  0.1513 -0.1419
 1519ntf    nn310623   3.700   0.583   5.149 -0.4705  0.2059 -0.0626
 1519ntf    sn210624   3.804   0.686   5.205 -0.3574 -0.0332  0.1690
 1519ntf    cn110625   3.694   0.830   5.224 -0.3619 -0.0104 -0.0362
 1519ntf    fn410626   3.578   0.405   4.849  0.1946  0.1991 -0.3845
 1519ntf    fn410627   3.738   0.383   4.984 -0.0101  0.5625  0.4978
 1519ntf    fn410628   3.537   0.340   5.055 -0.0680  0.2407 -0.2729
 1519ntf    on510629   3.657   0.654   4.901 -0.6867 -0.5511 -0.6208
 1519ntf    on510630   3.474   0.622   5.070 -0.2220  0.5220  0.0591
 1519ntf    on510631   3.904   0.724   5.109 -0.9649  0.2357 -0.3653
 1519ntf    on510632   3.853   0.662   5.339  0.1954  0.2034  0.0088
 1519ntf    fn410633   3.573   0.802   5.269 -0.2967 -0.2951 -0.0392
 1519ntf    fn410634   3.744   0.928   5.298 -0.1643 -0.2561  0.1577
 1519ntf    fn410635   3.670   0.890   5.108  0.2946  0.5671  0.1212
 1520ntf    cn110636   0.206   4.455   3.970 -0.0351  0.0632 -0.1663
 1520ntf    sn210637   0.025   4.458   3.970 -0.0350  0.0387  0.2008
 1520ntf    nn310638   0.013   4.614   3.985  0.0823  0.0341  0.3447
 1520ntf    sn210639   0.005   4.708   4.110  0.2758  0.2095  0.2255
 1520ntf    cn110640   0.148   4.819   4.092  0.2101  0.2495 -0.0470
 1520ntf    fn410641   0.266   4.473   4.087  0.1793 -0.3537 -0.2102
 1520ntf    fn410642   0.261   4.345   3.922 -0.6604 -0.2451 -0.1797
 1520ntf    fn410643   0.259   4.550   3.894  0.0383  0.2627  0.1324
 1520ntf    on510644  -0.007   4.396   3.844  0.2865  0.2585  0.0108
 1520ntf    on510645  -0.008   4.381   4.088  0.0446  0.4610  0.5032
 1520ntf    on510646   0.020   4.636   4.234 -1.3157 -0.7750 -0.1292
 1520ntf    on510647  -0.103   4.803   4.104  0.0405 -0.1016 -0.6391
 1520ntf    fn410648   0.262   4.754   4.109 -0.0824 -0.2079  0.1727
 1520ntf    fn410649   0.157   4.878   3.973 -0.1285  0.4781  0.0415
 1520ntf    fn410650   0.153   4.916   4.181 -0.3452  0.3365 -0.1084
 1521ntf    cn110651   1.224   3.834   6.734  0.5438 -0.0872 -0.1658
 1521ntf    sn210652   1.118   3.776   6.598  0.0983  0.1177  0.0916
 1521ntf    nn310653   0.975   3.806   6.656  0.0886  0.0047  0.1269
 1521ntf    sn210654   0.843   3.722   6.662  0.1529 -0.1239 -0.2107
 1521ntf    cn110655   0.731   3.824   6.561 -0.5404 -0.5513  0.1200
 1521ntf    fn410656   1.347   3.846   6.688  0.5426  0.1924 -0.0963
 1521ntf    fn410657   1.194   3.949   6.792 -0.4528 -0.6717  0.5105
 1521ntf    fn410658   1.238   3.749   6.834  0.0901  0.2566  0.1924
 1521ntf    on510659   1.150   3.866   6.490 -0.0194  0.2717  0.1858
 1521ntf    on510660   1.153   3.637   6.581  0.3293  0.1304  0.4637
 1521ntf    on510661   0.776   3.717   6.790  0.4708 -0.4724 -0.0580
 1521ntf    on510662   0.834   3.602   6.584 -0.1987 -0.3824  0.2211
 1521ntf    fn410663   0.772   3.829   6.436  0.2928  0.1239  0.4075
 1521ntf    fn410664   0.605   3.782   6.553 -0.6014 -0.2654 -0.4898
 1521ntf    fn410665   0.723   3.951   6.597 -0.5740 -0.5251  0.0203
 1522ntf    cn110666   4.387   3.819   5.894 -0.2133 -0.5824 -0.1802
 1522ntf    sn210667   4.393   3.717   5.743 -0.0561 -0.3202 -0.3526
 1522ntf    nn310668   4.245   3.681   5.705 -0.1556 -0.1560 -0.1240
 1522ntf    sn210669   4.144   3.590   5.784 -0.0073 -0.0186  0.2257
 1522ntf    cn110670   4.148   3.446   5.672 -0.3130  0.1809 -0.0440
 1522ntf    fn410671   4.508   3.824   5.948 -0.2057 -0.7024 -0.1857
 1522ntf    fn410672   4.347   3.942   5.865  0.2575 -0.3380  0.1909
 1522ntf    fn410673   4.307   3.772   5.989 -0.2152 -1.0345 -0.4036
 1522ntf    on510674   4.448   3.810   5.647 -0.6449  0.3328 -0.0681
 1522ntf    on510675   4.473   3.604   5.784  0.3889  0.0392 -0.2254
 1522ntf    on510676   4.005   3.628   5.788 -0.1013 -0.3513  0.1278
 1522ntf    on510677   4.206   3.537   5.903  0.0252  0.2119  0.3124
 1522ntf    fn410678   4.052   3.363   5.707  0.0481 -0.0237  0.4672
 1522ntf    fn410679   4.125   3.480   5.547 -0.2925  0.0704 -0.0779
 1522ntf    fn410680   4.262   3.378   5.671 -0.4286 -0.0112 -0.0428
 1523ntf    cn110681   3.492   0.900   1.594 -0.0964  0.1755 -0.2230
 1523ntf    sn210682   3.634   1.013   1.602  0.1921 -0.2015  0.0372
 1523ntf    nn310683   3.631   1.079   1.459 -0.2280 -0.2180  0.0372
 1523ntf    sn210684   3.710   1.195   1.390 -0.3251  0.0235  0.3282
 1523ntf    cn110685   3.580   1.233   1.270  0.2128  0.1111 -0.2344
 1523ntf    fn410686   3.379   0.963   1.562 -0.5259 -0.4687  0.0004
 1523ntf    fn410687   3.505   0.800   1.509 -0.0597 -0.1155  0.1219
 1523ntf    fn410688   3.477   0.835   1.708  0.4906  0.3817 -0.0255
 1523ntf    on510689   3.599   1.100   1.711  0.1623  0.1216 -0.2271
 1523ntf    on510690   3.749   0.929   1.620 -0.0597 -0.4797  0.3451
 1523ntf    on510691   3.827   1.160   1.313 -0.7406  0.1174 -0.3491
 1523ntf    on510692   3.715   1.318   1.464 -0.1605  0.1043  0.1830
 1523ntf    fn410693   3.574   1.145   1.171 -0.0852 -0.5468  0.3630
 1523ntf    fn410694   3.457   1.229   1.319  0.2704  0.6406 -0.0410
 1523ntf    fn410695   3.603   1.350   1.212  0.1430  0.1378 -0.2087
 1524ntf    cn110696   5.377   0.134   5.629 -0.0562 -0.3988 -0.0885
 1524ntf    sn210697   5.321   0.226   5.483 -0.3245  0.0593  0.2990
 1524ntf    nn310698   5.461   0.235   5.412 -0.2863  0.3828  0.4166
 1524ntf    sn210699   5.588   0.320   5.447 -0.0125  0.0531  0.2262
 1524ntf    cn110700   5.644   0.356   5.278 -0.2435  0.1023  0.1603
 1524ntf    fn410701   5.463   0.040   5.594  0.2668  0.0056 -0.3817
 1524ntf    fn410702   5.447   0.207   5.715  0.3059  0.0662 -0.7736
 1524ntf    fn410703   5.282   0.062   5.687 -0.4459 -0.0339 -0.2690
 1524ntf    on510704   5.232   0.132   5.418 -0.0419  0.4549 -0.6761
 1524ntf    on510705   5.260   0.340   5.547 -0.1031  0.4727 -0.2226
 1524ntf    on510706   5.709   0.258   5.495 -0.2055 -0.5145 -0.0087
 1524ntf    on510707   5.553   0.448   5.504  0.1585 -0.1256  0.7423
 1524ntf    fn410708   5.544   0.403   5.204  0.2319  0.2117 -0.4242
 1524ntf    fn410709   5.741   0.445   5.263 -0.2502  0.0690 -0.0824
 1524ntf    fn410710   5.695   0.246   5.227  0.4568  0.5435 -0.1108
 1525ntf    cn110711   0.573   2.571   4.245 -0.0719  1.1098  0.3941
 1525ntf    sn210712   0.530   2.508   4.410 -0.2765  0.4303  0.0830
 1525ntf    nn310713   0.651   2.563   4.494 -0.1586  0.3095 -0.0080
 1525ntf    sn210714   0.646   2.593   4.648  0.2101 -0.1657  0.0989
 1525ntf    cn110715   0.588   2.765   4.635 -0.2258 -0.2793  0.5233
 1525ntf    fn410716   0.687   2.518   4.205 -0.7236  0.1929 -0.2879
 1525ntf    fn410717   0.478   2.540   4.159  0.4735  0.4097  0.0436
 1525ntf    fn410718   0.592   2.701   4.230  0.3164  0.9549 -0.4769
 1525ntf    on510719   0.404   2.573   4.436 -0.5112 -0.0974  0.2884
 1525ntf    on510720   0.521   2.364   4.403  0.3430  0.3781  0.3163
 1525ntf    on510721   0.780   2.606   4.699  0.1462 -0.2259  0.2828
 1525ntf    on510722   0.554   2.522   4.733  0.3157 -0.0898  0.2749
 1525ntf    fn410723   0.667   2.843   4.563 -0.7241 -0.2839 -0.0313
 1525ntf    fn410724   0.470   2.779   4.577 -0.0485  0.3177  0.2962
 1525ntf    fn410725   0.584   2.832   4.749  0.6749  0.5920  0.0653
 1526ntf    cn110726   5.116   4.957   0.288 -0.4082 -0.0087 -0.2272
 1526ntf    sn210727   5.171   4.870   0.438 -0.4702  0.1214 -0.1285
 1526ntf    nn310728   5.325   4.861   0.409 -0.4117  0.2146  0.1497
 1526ntf    sn210729   5.451   4.857   0.503 -0.0272  0.0541 -0.3684
 1526ntf    cn110730   5.491   4.680   0.495 -0.0058  0.0358  0.1257
 1526ntf    fn410731   5.176   4.913   0.178 -0.0686  0.0419 -0.0631
 1526ntf    fn410732   4.985   4.952   0.271 -0.4222 -0.7190  0.0538
 1526ntf    fn410733   5.137   5.087   0.297  0.6842 -0.1893 -0.0154
 1526ntf    on510734   5.132   4.964   0.540 -0.3734 -0.4144  0.4103
 1526ntf    on510735   5.094   4.749   0.424 -0.2263 -0.0757  0.2116
 1526ntf    on510736   5.410   4.884   0.638  0.6395 -0.2713 -0.0965
 1526ntf    on510737   5.569   4.918   0.446  0.4744  0.2390  0.8461
 1526ntf    fn410738   5.607   4.655   0.552  0.1432 -0.1509 -0.2510
 1526ntf    fn410739   5.403   4.602   0.555 -0.2152  0.2757  0.1322
 1526ntf    fn410740   5.499   4.645   0.367  0.1937  0.0100  0.1448
 1527ntf    cn110741   3.982   5.770   4.139 -0.1294  0.1025  0.4257
 1527ntf    sn210742   3.989   5.622   4.035  0.0475  0.5573 -0.2186
 1527ntf    nn310743   3.871   5.658   3.938  0.0417 -0.1450 -0.4783
 1527ntf    sn210744   3.729   5.592   3.929 -0.1144  0.0387  0.5153
 1527ntf    cn110745   3.753   5.452   3.815 -0.1416  0.3343  0.1456
 1527ntf    fn410746   3.987   5.882   4.069  0.6451  0.1404  0.5243
 1527ntf    fn410747   3.871   5.769   4.211  0.1136  0.1320  0.8023
 1527ntf    fn410748   4.090   5.773   4.216  0.0956  0.0344  0.1127
 1527ntf    on510749   4.117   5.636   3.971  0.3443 -0.0526  0.2347
 1527ntf    on510750   3.964   5.509   4.121  0.7937 -0.0297 -0.7597
 1527ntf    on510751   3.649   5.678   3.845 -0.1726 -0.5986 -0.0992
 1527ntf    on510752   3.670   5.551   4.054 -0.3786 -0.1034  0.3456
 1527ntf    fn410753   3.840   5.364   3.863 -0.8225 -0.1062  0.5783
 1527ntf    fn410754   3.646   5.378   3.794 -0.0673  0.3284 -0.2216
 1527ntf    fn410755   3.798   5.484   3.694  0.1262  0.6681  0.3311
 1528ntf    cn110756   3.132   6.546   6.400 -0.0953  0.0505 -0.4439
 1528ntf    sn210757   3.044   6.459   6.268 -0.3207 -0.1374 -0.1698
 1528ntf    nn310758   2.968   6.578   6.199  0.5015  0.5592  0.1111
 1528ntf    sn210759   2.836   6.577   6.114  0.3821  0.2967  0.2998
 1528ntf    cn110760   2.725   6.667   6.227 -0.2567  0.1111 -0.1691
 1528ntf    fn410761   3.047   6.613   6.476 -0.0178 -0.0328 -0.2834
 1528ntf    fn410762   3.184   6.459   6.486 -0.8357  0.1760  0.1416
 1528ntf    fn410763   3.227   6.628   6.357 -0.3255  0.3972 -0.3011
 1528ntf    on510764   3.137   6.400   6.175 -0.2428 -0.5360  0.1583
 1528ntf    on510765   2.961   6.371   6.347  0.0573  0.2670  0.6934
 1528ntf    on510766   2.767   6.450   6.118 -0.0317  0.5027 -0.1419
 1528ntf    on510767   2.842   6.653   5.992  0.0251  0.3085  0.2868
 1528ntf    fn410768   2.764   6.788   6.265  0.6086 -0.1141 -0.3056
 1528ntf    fn410769   2.605   6.682   6.174 -0.3903  0.1350  0.1378
 1528ntf    fn410770   2.716   6.609   6.346  0.2489 -0.0476 -0.2034
 1529ntf    cn110771   2.991   4.949   3.062  0.0098 -0.0679 -0.8711
 1529ntf    sn210772   3.172   4.928   3.061 -0.0078 -0.3428  0.2409
 1529ntf    nn310773   3.223   5.075   3.081  0.0929 -0.3976  0.3886
 1529ntf    sn210774   3.290   5.135   3.209  0.1377 -0.1674  0.2583
 1529ntf    cn110775   3.439   5.031   3.204  0.2041 -0.0512 -0.2800
 1529ntf    fn410776   2.928   4.833   3.060 -0.0774 -0.0568  0.4730
 1529ntf    fn410777   2.949   5.001   3.176  0.2200 -0.1815 -0.7410
 1529ntf    fn410778   2.943   5.015   2.958  0.2034  0.3189 -0.7164
 1529ntf    on510779   3.199   4.843   3.174 -0.4835 -0.2956  0.3955
 1529ntf    on510780   3.185   4.877   2.927 -0.3665 -0.2983  0.1867
 1529ntf    on510781   3.222   5.115   3.335 -0.2554 -0.1342  0.0518
 1529ntf    on510782   3.329   5.270   3.174 -0.2581 -0.1412 -0.0881
 1529ntf    fn410783   3.538   5.080   3.277  0.2589 -0.1288 -0.3023
 1529ntf    fn410784   3.419   4.904   3.237 -0.5242  0.2017  0.2880
 1529ntf    fn410785   3.475   5.030   3.077  0.1501 -0.4656 -0.2960
 1530ntf    cn110786   5.224   5.779   6.462  0.2789  0.4564  0.3291
 1530ntf    sn210787   5.094   5.702   6.563  0.2948 -0.1250 -0.0862
 1530ntf    nn310788   5.113   5.782   6.697 -0.0049 -0.0273 -0.1010
 1530ntf    sn210789   5.026   5.899   6.755  0.2307  0.0400  0.1158
 1530ntf    cn110790   5.145   6.036   6.761  0.0053  0.2510 -0.2278
 1530ntf    fn410791   5.196   5.908   6.447 -0.1405  0.2648 -0.6361
 1530ntf    fn410792   5.344   5.781   6.516  0.5931  0.3833 -0.3480
 1530ntf    fn410793   5.233   5.723   6.342  0.4484 -0.0605  0.5809
 1530ntf    on510794   4.975   5.724   6.484 -0.1005 -0.4753  0.4056
 1530ntf    on510795   5.144   5.569   6.582  0.3521 -0.0646  0.1823
 1530ntf    on510796   4.998   5.881   6.896  0.2314 -0.8473  0.0060
 1530ntf    on510797   4.924   5.958   6.672 -0.3284 -0.8606  0.1465
 1530ntf    fn410798   5.096   6.155   6.793  0.2040  0.3611 -0.3314
 1530ntf    fn410799   5.240   6.004   6.848  0.1037 -0.2793 -0.5275
 1530ntf    fn410800   5.206   6.051   6.645  0.6189  0.7470  0.1490
 1531ntf    cn110801   5.530   6.041   5.577  0.1765 -0.0746 -0.3454
 1531ntf    sn210802   5.603   6.178   5.672 -0.1018 -0.2522  0.1271
 1531ntf    nn310803   5.535   6.302   5.604  0.1447 -0.0099  0.3227
 1531ntf    sn210804   5.421   6.391   5.666  0.3667  0.2735  0.3244
 1531ntf    cn110805   5.526   6.492   5.775  0.2092  0.2371  0.5102
 1531ntf    fn410806   5.568   6.026   5.451  0.2817  0.4090 -0.3703
 1531ntf    fn410807   5.559   5.924   5.632  0.3995  0.1708  0.0672
 1531ntf    fn410808   5.398   6.054   5.581  0.1889 -0.1375  0.4477
 1531ntf    on510809   5.586   6.153   5.813 -0.9802 -0.2894  0.0222
 1531ntf    on510810   5.738   6.165   5.623 -0.1027 -0.1478  0.0968
 1531ntf    on510811   5.333   6.326   5.760 -0.1770  0.1654 -0.2608
 1531ntf    on510812   5.357   6.481   5.573  0.0593  0.0221  0.2917
 1531ntf    fn410813   5.454   6.588   5.829  0.2291  0.4160  0.2182
 1531ntf    fn410814   5.592   6.424   5.868 -0.1240  0.0756  0.6299
 1531ntf    fn410815   5.628   6.545   5.710 -0.0775  0.7126  0.4492
 1532ntf    cn110816   1.226   4.628   6.382 -0.3668 -0.3919 -0.0609
 1532ntf    sn210817   1.377   4.544   6.324 -0.2055 -0.0752 -0.1061
 1532ntf    nn310818   1.482   4.630   6.401  0.1871 -0.1929 -0.5053
 1532ntf    sn210819   1.557   4.603   6.537 -0.5240  0.0991 -0.0502
 1532ntf    cn110820   1.712   4.541   6.464 -0.1620  0.3712  0.4828
 1532ntf    fn410821   1.200   4.622   6.511  0.4684  0.5265  0.1621
 1532ntf    fn410822   1.230   4.752   6.334 -0.0119 -0.2519  0.3267
 1532ntf    fn410823   1.122   4.567   6.328  0.1147 -0.5668 -0.8214
 1532ntf    on510824   1.348   4.412   6.376 -0.3777 -0.3366 -0.8461
 1532ntf    on510825   1.363   4.558   6.181  0.7873 -0.2991 -0.2271
 1532ntf    on510826   1.495   4.498   6.615  0.5064 -0.3284  0.2044
 1532ntf    on510827   1.597   4.723   6.607  0.0776 -0.2014  0.1227
 1532ntf    fn410828   1.769   4.622   6.376  0.2083  0.1603  0.5286
 1532ntf    fn410829   1.798   4.509   6.559  0.5132 -0.2615 -0.3317
 1532ntf    fn410830   1.689   4.426   6.403 -0.0175  0.4352  0.3075
 1533ntf    cn110831   5.057   3.050   1.411  0.0100 -0.2003  0.1462
 1533ntf    sn210832   4.954   3.015   1.556 -0.1215 -0.0258  0.0953
 1533ntf    nn310833   5.048   2.906   1.618 -0.1203  0.0667  0.2564
 1533ntf    sn210834   5.007   2.778   1.699  0.2207 -0.4184 -0.3361
 1533ntf    cn110835   5.033   2.645   1.577  0.0159 -0.0982 -0.7294
 1533ntf    fn410836   4.981   3.138   1.348  0.2994 -0.0658 -0.0193
 1533ntf    fn410837   5.176   3.100   1.442  0.1857 -0.2737 -0.3956
 1533ntf    fn410838   5.078   2.942   1.338  0.2627 -0.3431  0.4272
 1533ntf    on510839   4.949   3.139   1.630  0.1426  0.1400 -0.1636
 1533ntf    on510840   4.826   2.976   1.504  0.0240 -0.3880  0.0080
 1533ntf    on510841   4.871   2.764   1.746  0.0654  0.6814 -0.4416
 1533ntf    on510842   5.121   2.751   1.782 -0.4017 -0.4151  0.5294
 1533ntf    fn410843   5.157   2.654   1.533  0.1505  0.7515 -0.2123
 1533ntf    fn410844   5.026   2.525   1.631 -0.1738  0.2840  0.1229
 1533ntf    fn410845   4.950   2.655   1.474 -0.7525  0.2362 -0.0959
 1534ntf    cn110846   5.528   3.942   1.418  0.1510  0.0286 -0.1268
 1534ntf    sn210847   5.684   3.890   1.497  0.2469 -0.4140 -0.6012
 1534ntf    nn310848   5.616   3.788   1.595 -0.0848  0.0255 -0.3659
 1534ntf    sn210849   5.606   3.631   1.594 -0.1566  0.0293 -0.2915
 1534ntf    cn110850   5.635   3.586   1.768 -0.5291  0.3408 -0.1490
 1534ntf    fn410851   5.500   3.852   1.326  0.0343  0.4413 -0.4978
 1534ntf    fn410852   5.426   3.960   1.500  0.0790 -0.0164 -0.2058
 1534ntf    fn410853   5.540   4.059   1.357 -0.5255  0.2626  0.1783
 1534ntf    on510854   5.768   3.839   1.392  0.4980 -0.6160 -0.3043
 1534ntf    on510855   5.742   3.995   1.577 -0.6258 -0.1571 -0.2957
 1534ntf    on510856   5.716   3.566   1.527 -0.4418 -0.8369  0.0685
 1534ntf    on510857   5.471   3.594   1.561 -0.2358 -0.0260  0.0916
 1534ntf    fn410858   5.534   3.620   1.846 -0.2298 -0.2103  0.4866
 1534ntf    fn410859   5.639   3.455   1.782 -0.1992  0.3987  0.2876
 1534ntf    fn410860   5.745   3.637   1.821 -0.3285 -0.5213  0.2777
 1535ntf    cn110861   6.188   0.308   3.420  0.1190 -0.0152  0.2648
 1535ntf    sn210862   6.313   0.314   3.551 -0.0353  0.0644  0.4085
 1535ntf    nn310863   6.394   0.181   3.535 -0.3844 -0.2124  0.9221
 1535ntf    sn210864   6.521   0.137   3.454 -0.6918 -0.1520  0.4056
 1535ntf    cn110865   6.652   0.138   3.580 -0.2764 -0.1916 -0.0236
 1535ntf    fn410866   6.213   0.382   3.313 -0.0230 -0.6149 -0.1969
 1535ntf    fn410867   6.160   0.185   3.378 -0.0444  0.0975  0.0401
 1535ntf    fn410868   6.073   0.351   3.470  0.0591  0.0020  0.1160
 1535ntf    on510869   6.379   0.440   3.523  0.2369 -0.0570  0.4983
 1535ntf    on510870   6.231   0.307   3.670  0.0107  0.7034  0.4797
 1535ntf    on510871   6.575   0.232   3.359  0.4171 -0.3384  0.8298
 1535ntf    on510872   6.522  -0.001   3.413  0.5345 -0.1657  0.4413
 1535ntf    fn410873   6.692   0.259   3.616  0.4483 -0.5347  0.3417
 1535ntf    fn410874   6.616   0.084   3.695 -0.4118 -0.5389 -0.2274
 1535ntf    fn410875   6.754   0.060   3.548  0.1011  0.2635  0.0616
 1536ntf    cn110876   2.672   6.261   1.095 -0.3092  0.1499 -0.2806
 1536ntf    sn210877   2.731   6.193   0.937 -0.2801 -0.1623 -0.1359
 1536ntf    nn310878   2.783   6.324   0.869 -0.2025 -0.1142  0.0140
 1536ntf    sn210879   2.831   6.354   0.722 -0.1392 -0.2152  0.0137
 1536ntf    cn110880   3.008   6.336   0.758  0.0182 -0.1914 -0.7318
 1536ntf    fn410881   2.607   6.166   1.161 -0.3309  0.0141 -0.4981
 1536ntf    fn410882   2.762   6.300   1.184 -0.4180 -0.1625 -0.0320
 1536ntf    fn410883   2.590   6.365   1.095 -0.1025  0.3155  0.2025
 1536ntf    on510884   2.841   6.107   0.977 -0.1110  0.2170  0.2239
 1536ntf    on510885   2.612   6.142   0.873 -0.2063 -0.1910 -0.2518
 1536ntf    on510886   2.817   6.493   0.685 -0.4917 -0.2958 -0.1621
 1536ntf    on510887   2.806   6.257   0.618  0.2180  0.0249 -0.2983
 1536ntf    fn410888   3.019   6.227   0.831 -0.7035  0.0887 -0.1966
 1536ntf    fn410889   3.091   6.325   0.655  0.1152 -0.2130 -0.6518
 1536ntf    fn410890   3.047   6.437   0.835  0.4969 -0.4314 -0.6575
 1537ntf    cn110891   2.603   3.146   5.760  0.2646  0.2466  0.5098
 1537ntf    sn210892   2.470   3.267   5.786  0.3273  0.4474 -0.0944
 1537ntf    nn310893   2.558   3.396   5.802  0.4734  0.3551 -0.1517
 1537ntf    sn210894   2.520   3.543   5.760  0.5961  0.4165 -0.0475
 1537ntf    cn110895   2.625   3.624   5.885  0.7395 -0.2927  0.3008
 1537ntf    fn410896   2.619   3.143   5.629 -0.2388 -0.0605  0.4515
 1537ntf    fn410897   2.720   3.170   5.817  0.5252  0.6367 -0.1723
 1537ntf    fn410898   2.561   3.025   5.792  0.2475  0.2097  0.3478
 1537ntf    on510899   2.404   3.272   5.657 -0.1614 -0.2945  0.1243
 1537ntf    on510900   2.394   3.234   5.903  0.0543 -0.3979 -0.5027
 1537ntf    on510901   2.385   3.583   5.791  0.4934  0.0149  0.0290
 1537ntf    on510902   2.586   3.580   5.638  0.5084 -0.0216 -0.2310
 1537ntf    fn410903   2.622   3.753   5.857  0.6838 -0.2388  0.5529
 1537ntf    fn410904   2.581   3.607   6.008  0.0094  0.2169  0.1198
 1537ntf    fn410905   2.748   3.579   5.874  0.7132 -0.2898 -0.0240
 1538ntf    cn110906   2.065   3.101   3.653  0.0378  0.0660 -0.4375
 1538ntf    sn210907   2.222   3.025   3.705 -0.0801 -0.0221 -0.2057
 1538ntf    nn310908   2.234   2.938   3.574 -0.3885  0.3046 -0.4522
 1538ntf    sn210909   2.185   2.792   3.547  0.0480  0.0714  0.0120
 1538ntf    cn110910   2.343   2.701   3.545  0.1836  0.2956  0.4317
 1538ntf    fn410911   1.969   3.016   3.622  0.6676 -0.7180 -0.2892
 1538ntf    fn410912   2.027   3.180   3.753  0.0799 -0.3144 -0.1165
 1538ntf    fn410913   2.071   3.185   3.551  0.1831  0.4850 -0.0892
 1538ntf    on510914   2.315   3.135   3.698 -0.0813 -0.0211 -0.2054
 1538ntf    on510915   2.207   2.953   3.828  0.4182  0.0886 -0.0754
 1538ntf    on510916   2.150   2.782   3.408  0.1296  0.3780 -0.0303
 1538ntf    on510917   2.102   2.731   3.648 -0.2708  0.5523  0.0399
 1538ntf    fn410918   2.320   2.575   3.513  0.0749  0.3551  0.2769
 1538ntf    fn410919   2.441   2.745   3.468  0.2761  0.1067  0.4417
 1538ntf    fn410920   2.389   2.688   3.669  0.1233 -0.4298  0.3831
 1539ntf    cn110921   2.013   5.109   0.123 -0.2270  0.3135  0.3310
 1539ntf    sn210922   2.193   5.126   0.104 -0.1615 -0.4145  0.2564
 1539ntf    nn310923   2.212   5.152  -0.049 -0.2954 -0.4145  0.2393
 1539ntf    sn210924   2.273   5.060  -0.160  0.0992  0.0441  0.0691
 1539ntf    cn110925   2.134   5.052  -0.278  0.0168  0.0594  0.1649
 1539ntf    fn410926   1.954   5.043   0.024  0.2853  0.2826  0.0416
 1539ntf    fn410927   1.982   5.051   0.238  0.1459 -0.1134  0.2216
 1539ntf    fn410928   1.966   5.232   0.124 -0.1876  0.3338 -0.1678
 1539ntf    on510929   2.230   5.245   0.178  0.6270 -0.1706 -0.5204
 1539ntf    on510930   2.230   5.001   0.167  0.0646 -0.6201 -0.2795
 1539ntf    on510931   2.292   4.922  -0.123  0.2436 -0.0973 -0.5212
 1539ntf    on510932   2.371   5.140  -0.228 -0.0432  0.1081 -0.0620
 1539ntf    fn410933   2.034   4.973  -0.241 -0.0788  0.1496  0.0983
 1539ntf    fn410934   2.090   5.172  -0.312  0.2664 -0.0460 -0.5386
 1539ntf    fn410935   2.172   4.994  -0.391  0.1284 -0.0735  0.2701
 1540ntf    cn110936   2.481   0.112   0.190  0.1147  0.3102 -0.3038
 1540ntf    sn210937   2.529  -0.057   0.142  0.2414  0.3359 -0.2680
 1540ntf    nn310938   2.633  -0.024   0.029  0.7464 -0.4978 -0.0486
 1540ntf    sn210939   2.625  -0.009  -0.127 -0.0407  0.0123  0.0369
 1540ntf    cn110940   2.665  -0.178  -0.182 -0.0684  0.0887 -0.2144
 1540ntf    fn410941   2.576   0.187   0.245  0.4557 -0.4015  0.1050
 1540ntf    fn410942   2.436   0.178   0.085 -0.4591  0.0875 -0.1998
 1540ntf    fn410943   2.383   0.114   0.278  0.6294  0.2368  0.2820
 1540ntf    on510944   2.580  -0.116   0.263  0.0928  0.5461 -0.1013
 1540ntf    on510945   2.403  -0.113   0.099  0.1859  0.2498  0.0052
 1540ntf    on510946   2.731   0.080  -0.164 -0.0995  0.1828  0.2758
 1540ntf    on510947   2.494   0.008  -0.186 -0.3288 -1.5389  0.1813
 1540ntf    fn410948   2.669  -0.183  -0.314  0.3758 -0.0911 -0.1949
 1540ntf    fn410949   2.782  -0.226  -0.142  0.1921  0.6452 -0.2976
 1540ntf    fn410950   2.571  -0.266  -0.154  0.6338 -0.6212 -0.0529
 1541ntf    cn110951   0.569   6.271   6.479  0.1079  0.1018  0.0867
 1541ntf    sn210952   0.520   6.128   6.580  0.0695  0.0160 -0.0528
 1541ntf    nn310953   0.626   6.138   6.696  0.1940 -0.4412 -0.1267
 1541ntf    sn210954   0.665   6.027   6.800 -0.0401 -0.1991  0.2168
 1541ntf    cn110955   0.845   6.045   6.788 -0.1021  0.1521 -0.1844
 1541ntf    fn410956   0.566   6.387   6.541  0.7733 -0.0118  0.3329
 1541ntf    fn410957   0.687   6.261   6.420  0.0042 -0.4003 -0.0409
 1541ntf    fn410958   0.480   6.281   6.381 -0.3856 -0.0365  0.5154
 1541ntf    on510959   0.395   6.179   6.630  0.0202  0.2068 -0.3704
 1541ntf    on510960   0.526   6.017   6.488 -0.8908 -0.0733 -0.0116
 1541ntf    on510961   0.641   5.888   6.771  0.2860 -0.2366  0.1243
 1541ntf    on510962   0.637   6.077   6.933 -0.6550 -0.6798  0.2729
 1541ntf    fn410963   0.889   6.154   6.849  0.5973 -0.4399  0.3823
 1541ntf    fn410964   0.911   5.950   6.852 -0.0318  0.0474 -0.4112
 1541ntf    fn410965   0.885   6.045   6.662  0.4663  0.1235 -0.0060
 1542ntf    cn110966   4.373   3.418   4.363 -0.0795 -0.2883  0.0843
 1542ntf    sn210967   4.267   3.469   4.501 -0.1732  0.0276 -0.1039
 1542ntf    nn310968   4.135   3.400   4.450  0.1534 -0.0236 -0.8902
 1542ntf    sn210969   4.064   3.266   4.488  0.2712  0.2944  0.5237
 1542ntf    cn110970   3.949   3.339   4.608  0.1858  0.1826  0.5099
 1542ntf    fn410971   4.354   3.293   4.322  0.4935 -0.3126 -0.1148
 1542ntf    fn410972   4.343   3.493   4.258  0.2222 -0.1874  0.0706
 1542ntf    fn410973   4.501   3.431   4.392  0.1344 -0.2969 -0.8306
 1542ntf    on510974   4.336   3.412   4.613  0.2488  0.2386 -0.2547
 1542ntf    on510975   4.255   3.613   4.496  0.2771  0.0799  0.2672
 1542ntf    on510976   4.134   3.165   4.563 -0.2893 -0.9556 -0.5759
 1542ntf    on510977   3.967   3.225   4.389  0.4346 -0.1164  0.5290
 1542ntf    fn410978   4.007   3.386   4.716  0.3527  0.1215  0.4476
 1542ntf    fn410979   3.887   3.439   4.548  0.3039 -0.0640 -0.0267
 1542ntf    fn410980   3.854   3.259   4.653  0.2730 -0.0030  0.3669
 1543ntf    cn110981   5.660   1.055   3.687  0.6302  0.3963  0.2103
 1543ntf    sn210982   5.653   0.918   3.806 -0.2570  0.1076 -0.1695
 1543ntf    nn310983   5.754   0.964   3.917 -0.6827  0.0651  0.2373
 1543ntf    sn210984   5.719   1.000   4.066  0.0401 -0.2900  0.4942
 1543ntf    cn110985   5.752   0.836   4.136 -0.3639 -0.7294 -0.3299
 1543ntf    fn410986   5.754   1.046   3.593  0.1268  0.0331 -0.2652
 1543ntf    fn410987   5.550   1.046   3.614  0.5798 -0.2123  0.3533
 1543ntf    fn410988   5.653   1.178   3.735  0.4954  0.2930  0.4557
 1543ntf    on510989   5.515   0.919   3.847 -0.3682  0.3893 -0.5463
 1543ntf    on510990   5.696   0.802   3.732  0.3618  0.4155 -0.2980
 1543ntf    on510991   5.590   1.047   4.107 -0.0298  0.3981 -0.4626
 1543ntf    on510992   5.828   1.084   4.110 -0.0134  0.3846 -0.6241
 1543ntf    fn410993   5.699   0.738   4.065 -1.3181 -0.5463  0.1235
 1543ntf    fn410994   5.884   0.819   4.134 -0.2198  0.1797  0.5744
 1543ntf    fn410995   5.713   0.809   4.259  0.3717  0.0932  0.0987
 1544ntf    cn110996   5.296   3.782   3.350  0.2430  0.3608  0.2603
 1544ntf    sn210997   5.382   3.856   3.492  0.1125  0.2146  0.4151
 1544ntf    nn310998   5.500   3.755   3.518  0.1232  0.1564  0.1443
 1544ntf    sn210999   5.483   3.622   3.600 -0.1274  0.0242 -0.1184
 1544ntf    cn111000   5.520   3.695   3.763 -0.1204 -0.2371 -0.0012
 1544ntf    fn411001   5.376   3.742   3.253 -0.1543  0.1545  0.0159
 1544ntf    fn411002   5.214   3.680   3.368  0.3513  0.2530  0.1368
 1544ntf    fn411003   5.216   3.876   3.302  0.1909  0.0121 -0.3376
 1544ntf    on511004   5.433   3.985   3.454 -0.2534  0.1151 -0.4158
 1544ntf    on511005   5.289   3.859   3.602 -0.4326 -0.1898 -0.0337
 1544ntf    on511006   5.605   3.552   3.570  0.2040  0.3918  0.3469
 1544ntf    on511007   5.359   3.549   3.612 -0.2053  0.1418 -0.2044
 1544ntf    fn411008   5.605   3.797   3.763 -0.5382  0.1100  0.5765
 1544ntf    fn411009   5.410   3.731   3.826 -0.0960 -0.2085  0.0252
 1544ntf    fn411010   5.578   3.601   3.835  0.2084 -0.3643 -0.4235
 1545ntf    cn111011   5.934   2.668   0.496 -0.3731  0.2841  0.3034
 1545ntf    sn211012   5.785   2.670   0.392  0.2381 -0.1497 -0.5940
 1545ntf    nn311013   5.690   2.604   0.499  0.3682  0.1839 -0.2706
 1545ntf    sn211014   5.534   2.619   0.505  0.3768  0.2064 -0.1008
 1545ntf    cn111015   5.525   2.723   0.653  0.2125  0.1615 -0.0790
 1545ntf    fn411016   6.039   2.658   0.415 -0.6000 -0.1739  0.0671
 1545ntf    fn411017   5.947   2.783   0.560  0.0532  0.2968  0.2009
 1545ntf    fn411018   5.930   2.581   0.596 -0.6977 -0.3824 -0.2838
 1545ntf    on511019   5.764   2.811   0.371  0.9763  0.1215  0.3957
 1545ntf    on511020   5.821   2.577   0.287 -0.0792 -0.0078 -0.8283
 1545ntf    on511021   5.464   2.498   0.542  0.2019  0.2852 -0.1750
 1545ntf    on511022   5.483   2.699   0.397 -0.1107  0.0027 -0.0236
 1545ntf    fn411023   5.404   2.756   0.694  0.3906  0.5869  0.1175
 1545ntf    fn411024   5.597   2.670   0.751  0.1662  0.4943  0.1352
 1545ntf    fn411025   5.577   2.844   0.641  0.4508  0.0764  0.0856
 1546ntf    cn111026   0.561   6.002   0.799 -0.0900  0.0721 -0.1225
 1546ntf    sn211027   0.415   6.093   0.740 -0.1366  0.3459  0.4084
 1546ntf    nn311028   0.476   6.206   0.649 -0.5144  0.0658 -0.1968
 1546ntf    sn211029   0.477   6.361   0.671  0.5750  0.0229  0.1176
 1546ntf    cn111030   0.335   6.406   0.567  0.3899 -0.2921  0.2330
 1546ntf    fn411031   0.661   5.997   0.713 -0.1490 -0.0421 -0.1853
 1546ntf    fn411032   0.611   6.068   0.902 -0.5648  0.4555 -0.1364
 1546ntf    fn411033   0.527   5.881   0.841 -0.3802  0.1294 -0.1955
 1546ntf    on511034   0.330   5.998   0.673  0.1100 -0.1974  0.8495
 1546ntf    on511035   0.354   6.140   0.862 -0.6830  0.6431  0.0176
 1546ntf    on511036   0.589   6.419   0.602  0.6551  0.5626  0.6926
 1546ntf    on511037   0.444   6.420   0.799  0.4911  0.3927 -0.0731
 1546ntf    fn411038   0.365   6.402   0.438  0.2465 -0.1846  0.1955
 1546ntf    fn411039   0.228   6.329   0.576  0.1856 -0.0679 -0.2742
 1546ntf    fn411040   0.291   6.530   0.578 -0.0073 -0.2976 -1.1632
 1547ntf    cn111041   1.315   0.400   5.930  0.4439  0.4040 -0.1100
 1547ntf    sn211042   1.384   0.565   5.962  0.1563  0.4262  0.4209
 1547ntf    nn311043   1.535   0.547   5.922  0.0071  0.0475  0.0186
 1547ntf    sn211044   1.657   0.495   6.006 -0.1157 -0.5733 -0.1785
 1547ntf    cn111045   1.711   0.655   6.076 -0.7829 -0.3343 -0.2041
 1547ntf    fn411046   1.363   0.344   5.820 -0.0001 -0.4282  0.1088
 1547ntf    fn411047   1.347   0.324   6.034 -0.3958 -0.1246 -0.2312
 1547ntf    fn411048   1.184   0.399   5.917  0.4534  0.0174 -0.1903
 1547ntf    on511049   1.301   0.643   5.874  0.3981 -0.0648 -0.2531
 1547ntf    on511050   1.363   0.591   6.102  0.2586  0.3465  0.4517
 1547ntf    on511051   1.760   0.456   5.913  0.1612 -0.2943  0.0079
 1547ntf    on511052   1.635   0.404   6.116 -0.0947 -0.2724  0.0772
 1547ntf    fn411053   1.797   0.625   6.172 -0.2155  0.7662 -0.3506
 1547ntf    fn411054   1.760   0.741   5.988 -0.4629 -0.3965 -0.0875
 1547ntf    fn411055   1.616   0.719   6.143  0.3002  1.1160 -0.0131
 1548ntf    cn111056   6.396   5.680   5.180  0.2434  0.0439 -0.3455
 1548ntf    sn211057   6.512   5.777   5.281 -0.0169  0.0334 -0.0350
 1548ntf    nn311058   6.643   5.711   5.226  0.0326  0.1766 -0.0875
 1548ntf    sn211059   6.718   5.582   5.274 -0.1708  0.0525 -0.1050
 1548ntf    cn111060   6.841   5.665   5.378 -0.0614 -0.1847 -0.0441
 1548ntf    fn411061   6.280   5.692   5.244  0.2950  0.8884 -0.4056
 1548ntf    fn411062   6.378   5.732   5.060 -0.3575  0.4560 -0.0803
 1548ntf    fn411063   6.419   5.550   5.178  0.2037  0.0368 -0.3276
 1548ntf    on511064   6.501   5.909   5.224 -0.1714 -0.0782 -0.2676
 1548ntf    on511065   6.487   5.750   5.421  0.2827 -0.0283  0.0058
 1548ntf    on511066   6.797   5.531   5.164 -0.1806 -0.3300  0.0629
 1548ntf    on511067   6.648   5.492   5.362 -0.5280  0.2747 -0.1574
 1548ntf    fn411068   6.787   5.723   5.485 -0.1374 -0.1051 -0.1246
 1548ntf    fn411069   6.936   5.587   5.426 -0.3344 -0.2608  0.3720
 1548ntf    fn411070   6.904   5.769   5.325 -0.2733 -0.0045  0.0509
 1549ntf    cn111071   0.135   4.791   5.464 -0.2149 -0.0878 -0.1844
 1549ntf    sn211072   0.083   4.671   5.590  0.0497 -0.4926 -0.4567
 1549ntf    nn311073   0.124   4.750   5.719 -0.3988 -0.7127 -0.1736
 1549ntf    sn211074   0.203   4.694   5.842 -0.3118 -0.0940  0.0591
 1549ntf    cn111075   0.373   4.735   5.793 -0.3651 -0.0557 -0.0946
 1549ntf    fn411076   0.092   4.767   5.341 -0.4357  0.0545 -0.1343
 1549ntf    fn411077   0.075   4.905   5.493 -0.2285 -0.1443  0.0104
 1549ntf    fn411078   0.265   4.818   5.462 -0.1353 -0.4481 -0.0960
 1549ntf    on511079  -0.061   4.658   5.578 -0.0694 -0.2799  0.6598
 1549ntf    on511080   0.154   4.551   5.553  0.2354 -0.5861  0.1975
 1549ntf    on511081   0.202   4.550   5.857  0.2207 -0.1427 -0.3562
 1549ntf    on511082   0.183   4.774   5.960 -0.3463 -0.0399  0.0165
 1549ntf    fn411083   0.412   4.862   5.801 -0.6395  0.0258 -0.0470
 1549ntf    fn411084   0.462   4.651   5.843  0.1198  0.1320 -0.6374
 1549ntf    fn411085   0.382   4.712   5.664 -0.3414 -0.3076 -0.0491
 1550ntf    cn111086   1.312   4.614   2.073 -0.0006 -0.2426 -0.1179
 1550ntf    sn211087   1.311   4.550   2.243 -0.2159  0.3211  0.0945
 1550ntf    nn311088   1.422   4.644   2.303 -0.0918  0.1722  0.0969
 1550ntf    sn211089   1.417   4.794   2.349 -0.3090  0.1353  0.1969
 1550ntf    cn111090   1.500   4.769   2.509 -0.6160 -0.3384  0.2857
 1550ntf    fn411091   1.431   4.622   2.015 -0.2716 -0.5775 -0.7241
 1550ntf    fn411092   1.249   4.533   1.990 -0.2760 -0.1556  0.0089
 1550ntf    fn411093   1.257   4.734   2.069  0.3363 -0.0580  0.5076
 1550ntf    on511094   1.174   4.568   2.284 -0.3488 -0.0482 -0.1847
 1550ntf    on511095   1.359   4.414   2.235 -0.1759  0.3284  0.2050
 1550ntf    on511096   1.287   4.848   2.380 -0.2910  0.1731  0.2059
 1550ntf    on511097   1.521   4.876   2.292  0.2870 -0.4523  0.4131
 1550ntf    fn411098   1.476   4.877   2.582 -0.5021  0.1165 -0.3481
 1550ntf    fn411099   1.449   4.663   2.569 -0.6087 -0.2491  0.4520
 1550ntf    fn411100   1.631   4.751   2.514 -0.5549 -0.0306 -0.1742
 1551ntf    cn111101   6.190   2.054   6.163 -0.0791  0.0213 -0.3967
 1551ntf    sn211102   6.275   2.081   6.005  0.3529 -0.1223 -0.1908
 1551ntf    nn311103   6.149   2.045   5.917  0.3581 -0.3894 -0.0882
 1551ntf    sn211104   6.137   2.061   5.762  0.3075 -0.1159 -0.0561
 1551ntf    cn111105   6.094   1.888   5.725 -0.2565 -0.0551  0.3022
 1551ntf    fn411106   6.260   2.097   6.267  0.2582 -1.2579 -0.0699
 1551ntf    fn411107   6.071   2.112   6.168 -0.1897 -0.1836 -0.6305
 1551ntf    fn411108   6.175   1.926   6.192  0.1933  0.1529  0.3500
 1551ntf    on511109   6.313   2.220   6.004 -0.4234  0.0976  0.0557
 1551ntf    on511110   6.381   1.984   6.011  0.0927 -0.3721  0.4688
 1551ntf    on511111   6.260   2.098   5.697 -0.0627  0.5505 -0.3914
 1551ntf    on511112   6.027   2.139   5.711 -0.1979 -0.4452  0.5116
 1551ntf    fn411113   6.078   1.868   5.596  0.2890 -0.6388  0.3172
 1551ntf    fn411114   6.197   1.818   5.770  0.3749  0.2032 -0.7269
 1551ntf    fn411115   5.984   1.845   5.784  0.0641 -0.5430  0.5558
 1552ntf    cn111116   4.470   6.588   1.297 -0.0130 -0.1515 -0.0046
 1552ntf    sn211117   4.352   6.556   1.432  0.2149  0.1085  0.2572
 1552ntf    nn311118   4.347   6.399   1.432  0.2824  0.1058  0.1927
 1552ntf    sn211119   4.263   6.302   1.342  0.1866  0.1307  0.2564
 1552ntf    cn111120   4.132   6.242   1.454 -0.0990 -0.1277 -0.2100
 1552ntf    fn411121   4.426   6.528   1.188  0.5066 -0.5680  0.0128
 1552ntf    fn411122   4.480   6.717   1.267  0.0941 -0.2220 -0.2716
 1552ntf    fn411123   4.590   6.540   1.322  0.1313  0.1330 -0.1469
 1552ntf    on511124   4.418   6.610   1.548  0.7679  0.0631 -0.0319
 1552ntf    on511125   4.232   6.620   1.384 -0.3071 -0.8028  0.3277
 1552ntf    on511126   4.335   6.182   1.305  0.5753  0.4316  0.0315
 1552ntf    on511127   4.187   6.374   1.243 -0.2215 -0.2133  0.3131
 1552ntf    fn411128   4.070   6.137   1.403 -0.8628  0.0466  0.3435
 1552ntf    fn411129   4.188   6.208   1.569 -0.0977 -0.2988 -0.2616
 1552ntf    fn411130   4.036   6.328   1.483  0.0655 -0.3055  0.8826
 1553ntf    cn111131   4.512   5.561   6.474  0.3260  0.0383  0.0938
 1553ntf    sn211132   4.458   5.729   6.520 -0.1163 -0.1397  0.2274
 1553ntf    nn311133   4.319   5.684   6.579 -0.0247 -0.8136 -0.0571
 1553ntf    sn211134   4.279   5.669   6.730  0.5234  0.6754  0.2576
 1553ntf    cn111135   4.138   5.555   6.715  0.5847  0.5898  0.3317
 1553ntf    fn411136   4.407   5.499   6.422  0.3708  0.8070 -0.9473
 1553ntf    fn411137   4.597   5.571   6.373 -0.1820  0.2432 -0.3214
 1553ntf    fn411138   4.575   5.493   6.568  0.4542  0.2708  0.1773
 1553ntf    on511139   4.556   5.787   6.608  0.1465 -0.2072 -0.0166
 1553ntf    on511140   4.444   5.796   6.393  0.9521  0.4900  0.4321
 1553ntf    on511141   4.213   5.790   6.772  0.4340  0.4693  0.7243
 1553ntf    on511142   4.361   5.588   6.817  0.5834 -0.2417 -0.6282
 1553ntf    fn411143   4.176   5.447   6.648 -0.1751  0.2269  0.4741
 1553ntf    fn411144   4.089   5.519   6.832 -0.1287 -0.3083 -0.2281
 1553ntf    fn411145   4.041   5.611   6.644  0.4389 -0.0182  0.0366
 1554ntf    cn111146   6.800   3.817   6.641 -0.0111 -0.5465 -0.3085
 1554ntf    sn211147   6.669   3.742   6.539 -0.1454  0.0573 -0.5805
 1554ntf    nn311148   6.631   3.621   6.631  0.1777  0.1710 -0.2931
 1554ntf    sn211149   6.535   3.613   6.755 -0.1253  0.4401 -0.5099
 1554ntf    cn111150   6.380   3.562   6.674 -0.0560 -0.1505 -0.2777
 1554ntf    fn411151   6.767   3.839   6.767 -0.1988 -0.1318 -0.4303
 1554ntf    fn411152   6.915   3.751   6.649  0.0593 -0.4227 -0.3009
 1554ntf    fn411153   6.832   3.937   6.597  0.0330 -0.1474  0.7744
 1554ntf    on511154   6.566   3.843   6.527 -0.3377 -0.0821 -0.1423
 1554ntf    on511155   6.744   3.695   6.426  0.3823 -0.7739  0.0980
 1554ntf    on511156   6.502   3.731   6.831  0.5115  0.9619 -1.0396
 1554ntf    on511157   6.559   3.493   6.832 -0.3211  0.9588  0.3722
 1554ntf    fn411158   6.278   3.558   6.759  0.1784  1.0669  0.0857
 1554ntf    fn411159   6.336   3.647   6.582 -0.0510  0.3547  0.1824
 1554ntf    fn411160   6.392   3.445   6.613 -0.0248 -0.0461 -0.4706
 1555ntf    cn111161   0.397   1.206   5.704 -0.0597 -0.2365 -0.4580
 1555ntf    sn211162   0.405   1.058   5.809 -0.1191  0.1193  0.0506
 1555ntf    nn311163   0.351   1.132   5.937 -0.1034  0.4363 -0.1255
 1555ntf    sn211164   0.429   1.162   6.070  0.3608 -0.6224 -0.1495
 1555ntf    cn111165   0.297   1.154   6.194  0.1903 -0.0831 -0.2978
 1555ntf    fn411166   0.467   1.310   5.747 -0.5362  0.0120 -0.2759
 1555ntf    fn411167   0.437   1.174   5.582 -0.0033  0.5110 -0.6388
 1555ntf    fn411168   0.274   1.252   5.687 -0.3086 -0.5918  0.3226
 1555ntf    on511169   0.326   0.955   5.747 -0.2080 -0.0230  0.3956
 1555ntf    on511170   0.547   1.031   5.801 -0.1357 -0.0115  0.1943
 1555ntf    on511171   0.477   1.297   6.080  0.7254 -0.7336 -0.3757
 1555ntf    on511172   0.526   1.064   6.113  0.7208 -0.3460 -0.3299
 1555ntf    fn411173   0.347   1.177   6.314  0.4710 -0.3106 -0.3721
 1555ntf    fn411174   0.193   1.234   6.174  0.4545  0.3170 -0.0808
 1555ntf    fn411175   0.238   1.036   6.192 -0.0666  0.0366  0.1518
 1556ntf    cn111176   1.588   0.344   0.643  0.1378  0.2684 -0.2309
 1556ntf    sn211177   1.563   0.420   0.806  0.2128  0.1300 -0.1541
 1556ntf    nn311178   1.658   0.546   0.804  0.0778  0.2245 -0.5911
 1556ntf    sn211179   1.620   0.689   0.750  0.0413  0.3962 -0.1151
 1556ntf    cn111180   1.755   0.705   0.629  0.1873  0.1290  0.0113
 1556ntf    fn411181   1.557   0.215   0.643 -0.3040  0.3718 -0.3387
 1556ntf    fn411182   1.510   0.403   0.554  0.0744  0.2706 -0.1747
 1556ntf    fn411183   1.713   0.359   0.604  0.3833 -0.3726  0.2883
 1556ntf    on511184   1.421   0.436   0.825  0.3699  0.8335  0.4898
 1556ntf    on511185   1.615   0.317   0.891 -0.0258  0.0382 -0.1198
 1556ntf    on511186   1.658   0.786   0.849 -0.0331  0.2592  0.0493
 1556ntf    on511187   1.502   0.710   0.671 -0.3485  0.2281  0.4172
 1556ntf    fn411188   1.750   0.814   0.554  1.0292  0.3958  0.3329
 1556ntf    fn411189   1.868   0.699   0.697  0.1998  0.5960  0.0323
 1556ntf    fn411190   1.753   0.607   0.540 -0.2735  0.2129 -0.0726
 1557ntf    cn111191   5.726   6.551   3.230  0.7196 -0.1177  0.0267
 1557ntf    sn211192   5.625   6.700   3.214  0.2086 -0.4603  0.0582
 1557ntf    nn311193   5.738   6.805   3.188 -0.2215  0.0330  0.1519
 1557ntf    sn211194   5.799   6.906   3.292 -0.1236 -0.1839  0.3054
 1557ntf    cn111195   5.896   7.025   3.194 -0.3660 -0.1923  0.0562
 1557ntf    fn411196   5.654   6.441   3.245 -0.2013  0.4209 -0.3590
 1557ntf    fn411197   5.817   6.544   3.133  0.1079  0.2931 -0.5873
 1557ntf    fn411198   5.801   6.558   3.339 -0.4177  0.1765  0.7993
 1557ntf    on511199   5.555   6.696   3.088 -0.0137 -0.0870  0.1643
 1557ntf    on511200   5.546   6.702   3.335  0.4997  0.9408  0.2483
 1557ntf    on511201   5.902   6.840   3.369 -0.2947 -0.3152  0.4213
 1557ntf    on511202   5.712   6.997   3.362 -0.3006  0.1837 -0.3816
 1557ntf    fn411203   6.011   6.972   3.155 -0.4669 -0.3663 -0.0088
 1557ntf    fn411204   5.834   7.082   3.091  0.0924 -0.1006 -0.1684
 1557ntf    fn411205   5.933   7.130   3.265 -0.6469 -0.0425 -0.0172
 1558ntf    cn111206   5.572   5.532   3.845  0.0279 -0.1586  0.1220
 1558ntf    sn211207   5.709   5.415   3.874  0.2171  0.0096 -0.0858
 1558ntf    nn311208   5.700   5.355   3.729  0.6160  0.2028 -0.1891
 1558ntf    sn211209   5.664   5.210   3.681 -0.3722  0.3622  0.0530
 1558ntf    cn111210   5.486   5.188   3.710 -0.2451 -0.2774  0.3590
 1558ntf    fn411211   5.453   5.475   3.855  0.1426 -0.3533  0.4164
 1558ntf    fn411212   5.577   5.618   3.945  0.5024  0.4575 -0.4238
 1558ntf    fn411213   5.579   5.612   3.740 -0.2913  0.0666  0.2709
 1558ntf    on511214   5.826   5.491   3.910 -0.2667  0.6476  0.1715
 1558ntf    on511215   5.651   5.327   3.973  0.0200 -0.0966 -0.2948
 1558ntf    on511216   5.729   5.106   3.757 -0.0150  0.7377  0.2653
 1558ntf    on511217   5.670   5.197   3.538 -0.4266  0.0235  0.0828
 1558ntf    fn411218   5.415   5.291   3.667  0.7164  0.4663  0.5230
 1558ntf    fn411219   5.444   5.072   3.663 -0.2618  0.2667 -1.0124
 1558ntf    fn411220   5.467   5.173   3.840  0.0266  0.0018  0.4324
 1559ntf    cn111221   2.066   3.686   2.423 -0.0678  0.1063 -0.4712
 1559ntf    sn211222   1.988   3.846   2.463 -0.1806 -0.0569 -0.0257
 1559ntf    nn311223   1.864   3.794   2.544 -0.3210 -0.1000 -0.2672
 1559ntf    sn211224   1.825   3.823   2.693  0.4414 -0.1521 -0.0570
 1559ntf    cn111225   1.740   3.669   2.738  0.1175  0.0339 -0.0326
 1559ntf    fn411226   2.096   3.658   2.298  0.1083 -0.9295 -0.2077
 1559ntf    fn411227   2.176   3.665   2.492 -0.3117 -0.3730 -0.2245
 1559ntf    fn411228   1.991   3.585   2.465  0.3444 -0.0893 -0.1944
 1559ntf    on511229   2.088   3.920   2.535 -0.2690  0.2705 -0.2338
 1559ntf    on511230   1.950   3.892   2.331 -0.0781  0.3384  0.0813
 1559ntf    on511231   1.720   3.921   2.704  0.6251  0.0028  0.3724
 1559ntf    on511232   1.935   3.826   2.788  0.4039  0.2914 -0.0235
 1559ntf    fn411233   1.688   3.686   2.858 -0.5216  0.4242 -0.3577
 1559ntf    fn411234   1.645   3.639   2.650  0.6325  0.1681 -0.6430
 1559ntf    fn411235   1.824   3.567   2.747 -0.1813 -0.1602  0.6045
 1560ntf    cn111236   6.395   1.680   2.286  0.1433  0.1881 -0.0066
 1560ntf    sn211237   6.544   1.708   2.387 -0.0958  0.3354  0.3096
 1560ntf    nn311238   6.649   1.631   2.299 -0.7712 -0.2575  0.0104
 1560ntf    sn211239   6.693   1.481   2.305  0.0907 -0.0101  0.0354
 1560ntf    cn111240   6.705   1.464   2.124 -0.2393 -0.3291  0.0423
 1560ntf    fn411241   6.393   1.739   2.168  0.1556 -0.6525 -0.4273
 1560ntf    fn411242   6.377   1.551   2.268  0.0779  0.0991  0.6563
 1560ntf    fn411243   6.286   1.720   2.351 -0.1396 -0.5493 -0.0200
 1560ntf    on511244   6.563   1.851   2.399  0.3461  0.2859  0.2123
 1560ntf    on511245   6.523   1.639   2.512 -0.2005  0.4343  0.3474
 1560ntf    on511246   6.589   1.385   2.334  0.1834  0.0830  0.6862
 1560ntf    on511247   6.829   1.454   2.344  0.2456 -0.2963 -0.6843
 1560ntf    fn411248   6.773   1.560   2.064 -0.4353 -0.5313 -0.5085
 1560ntf    fn411249   6.761   1.350   2.084 -0.3463 -0.3869  0.0567
 1560ntf    fn411250   6.582   1.474   2.077 -0.3092  0.2712  0.3439
 1561ntf    cn111251   6.198   0.684   6.301 -0.2949  0.0158  0.2248
 1561ntf    sn211252   6.169   0.582   6.154  0.2793 -0.3088  0.3318
 1561ntf    nn311253   6.057   0.483   6.202 -0.4577  0.5833  0.4745
 1561ntf    sn211254   5.963   0.388   6.120  0.2280  0.1310  0.2106
 1561ntf    cn111255   6.076   0.245   6.125  0.2925  0.1715 -0.0944
 1561ntf    fn411256   6.288   0.780   6.289 -0.3693  0.0493 -0.0575
 1561ntf    fn411257   6.087   0.741   6.346 -0.6160 -0.5044  0.1044
 1561ntf    fn411258   6.252   0.611   6.397 -0.2054 -0.3044 -0.0680
 1561ntf    on511259   6.106   0.673   6.061  0.5317 -0.1346  0.3309
 1561ntf    on511260   6.298   0.527   6.122  0.6516  0.7181  0.0405
 1561ntf    on511261   5.941   0.409   5.979  0.1821  0.4440  0.2623
 1561ntf    on511262   5.841   0.356   6.189  0.1806 -0.2024 -0.0280
 1561ntf    fn411263   6.189   0.257   6.058  0.2485  0.3119 -0.1458
 1561ntf    fn411264   6.109   0.227   6.252  0.4298 -0.1790 -0.1811
 1561ntf    fn411265   6.027   0.133   6.074  0.1662 -0.1315  0.6804
 1562ntf    cn111266   2.098   0.427   6.717 -0.0908 -0.0669  0.2450
 1562ntf    sn211267   1.921   0.470   6.724 -0.0124  0.2848  0.0824
 1562ntf    nn311268   1.911   0.563   6.598 -0.0701 -0.0783 -0.1797
 1562ntf    sn211269   1.968   0.709   6.599  0.1436 -0.1614  0.0805
 1562ntf    cn111270   1.818   0.805   6.633  0.1442  0.0629 -0.5301
 1562ntf    fn411271   2.174   0.492   6.631  0.1661  0.1055  0.5960
 1562ntf    fn411272   2.165   0.443   6.830 -0.6124  0.2773  0.5141
 1562ntf    fn411273   2.115   0.299   6.688  0.4651  0.1119 -0.2327
 1562ntf    on511274   1.866   0.339   6.701  0.3527  0.1952 -0.2884
 1562ntf    on511275   1.892   0.523   6.855  0.2381  0.8398 -0.0816
 1562ntf    on511276   2.009   0.752   6.467 -0.2671 -0.4753 -0.1537
 1562ntf    on511277   2.068   0.741   6.698 -0.0451  0.5216  0.0577
 1562ntf    fn411278   1.760   0.739   6.732  0.6242 -0.0351 -0.3165
 1562ntf    fn411279   1.855   0.926   6.673  0.0032 -0.0571 -0.0228
 1562ntf    fn411280   1.733   0.826   6.534 -0.1991  0.3011 -0.1919
 1563ntf    cn111281   2.886   5.603   0.357  0.4050 -0.2272 -0.7284
 1563ntf    sn211282   2.882   5.496   0.504 -0.3353  0.2295 -0.4079
 1563ntf    nn311283   2.868   5.609   0.612  0.4097  0.2431 -0.3216
 1563ntf    sn211284   2.800   5.591   0.752  0.2401 -0.1250 -0.4521
 1563ntf    cn111285   2.876   5.733   0.835 -0.0687 -0.0513 -0.2918
 1563ntf    fn411286   2.914   5.546   0.241 -0.0409 -1.0849 -0.4294
 1563ntf    fn411287   2.772   5.669   0.342  0.0765 -0.2758  1.2528
 1563ntf    fn411288   2.974   5.698   0.381  0.1869 -0.1889 -0.0434
 1563ntf    on511289   2.767   5.412   0.480  0.1125 -0.6471  0.4232
 1563ntf    on511290   3.015   5.439   0.499 -0.3834  0.1498 -0.7508
 1563ntf    on511291   2.840   5.475   0.827  0.8616  0.3509 -0.0390
 1563ntf    on511292   2.660   5.625   0.749  0.1922 -0.3254 -0.5322
 1563ntf    fn411293   2.817   5.756   0.951  0.5111 -0.4695  0.0936
 1563ntf    fn411294   3.005   5.712   0.862 -0.1282 -0.6473 -0.4574
 1563ntf    fn411295   2.875   5.852   0.778 -0.0232  0.2670  0.3606
 1564ntf    cn111296   3.533   3.479   6.499 -0.2975 -0.1417  0.2584
 1564ntf    sn211297   3.473   3.353   6.382 -0.2102  0.2269 -0.1883
 1564ntf    nn311298   3.376   3.437   6.293  0.4278  0.4545 -0.6764
 1564ntf    sn211299   3.280   3.382   6.182  0.2841  0.3009 -0.4765
 1564ntf    cn111300   3.145   3.331   6.294  0.7547 -0.3601 -0.2099
 1564ntf    fn411301   3.429   3.544   6.549 -0.0095 -0.0142  0.7005
 1564ntf    fn411302   3.607   3.439   6.601  0.3536  0.6114  0.0825
 1564ntf    fn411303   3.606   3.572   6.440 -0.4842 -0.1207  0.0578
 1564ntf    on511304   3.592   3.315   6.310  0.3331  0.2931  0.6550
 1564ntf    on511305   3.425   3.254   6.476  0.3216 -0.1094 -0.2630
 1564ntf    on511306   3.340   3.271   6.114 -0.6364 -0.4414 -0.1016
 1564ntf    on511307   3.233   3.494   6.104 -0.0753  0.1017 -0.5493
 1564ntf    fn411308   3.136   3.404   6.403 -0.3297 -0.0057 -0.5303
 1564ntf    fn411309   3.036   3.341   6.220  0.1796 -0.0547  0.6659
 1564ntf    fn411310   3.150   3.203   6.327  0.0874 -0.5050 -0.6484
 1565ntf    cn111311   1.609   4.964   5.102  0.1308  0.0471  0.0306
 1565ntf    sn211312   1.597   4.856   5.248 -0.0083  0.3634  0.2547
 1565ntf    nn311313   1.539   4.956   5.354 -1.1100  0.2640 -0.2457
 1565ntf    sn211314   1.481   4.910   5.492  0.2664 -0.2229  0.1880
 1565ntf    cn111315   1.636   4.914   5.587  0.2248  0.4294  0.2344
 1565ntf    fn411316   1.726   4.949   5.042 -0.0371  0.0282 -0.2942
 1565ntf    fn411317   1.512   4.935   5.017 -0.6060 -0.2219  0.9423
 1565ntf    fn411318   1.602   5.091   5.138 -0.0430 -0.0547  0.3642
 1565ntf    on511319   1.514   4.747   5.204 -0.3738  0.8277 -0.2147
 1565ntf    on511320   1.735   4.824   5.274 -0.1189 -0.2140  0.1506
 1565ntf    on511321   1.450   4.769   5.489 -0.1758 -0.1413  0.6519
 1565ntf    on511322   1.393   5.012   5.545 -0.2314 -0.8280  0.5411
 1565ntf    fn411323   1.701   4.799   5.594 -0.0761  0.2542  0.1733
 1565ntf    fn411324   1.725   5.002   5.545  0.7748 -0.2241  0.0225
 1565ntf    fn411325   1.615   4.945   5.714  0.4253  0.1777  0.3307
 1566ntf    cn111326   3.254   4.907   2.271  0.6007 -0.2057  0.1770
 1566ntf    sn211327   3.241   5.024   2.133 -0.0517 -0.0698  0.3460
 1566ntf    nn311328   3.358   5.122   2.169  0.2879 -0.2387 -0.2682
 1566ntf    sn211329   3.497   5.141   2.099  0.2899  0.0955 -0.1771
 1566ntf    cn111330   3.577   5.252   2.218  0.5253  0.0574 -0.2984
 1566ntf    fn411331   3.137   4.845   2.279  0.0977  0.6510 -0.3919
 1566ntf    fn411332   3.344   4.811   2.262  0.0493 -0.6621 -0.5530
 1566ntf    fn411333   3.289   4.963   2.386  0.3032 -0.0654  0.2009
 1566ntf    on511334   3.272   4.950   2.013 -0.3883  0.5660 -0.1418
 1566ntf    on511335   3.114   5.089   2.153  0.1119  0.2406  0.3776
 1566ntf    on511336   3.491   5.223   1.981  0.0598 -0.0926 -0.2968
 1566ntf    on511337   3.580   5.023   2.088  0.3115  0.0971 -0.0372
 1566ntf    fn411338   3.696   5.303   2.191  0.3919  0.7217  0.3296
 1566ntf    fn411339   3.501   5.357   2.243 -0.2157 -0.4809 -0.2757
 1566ntf    fn411340   3.594   5.191   2.334  0.7223  0.7667  0.0523
 1567ntf    cn111341   4.776   1.422   1.406  0.1085 -0.2016 -0.0732
 1567ntf    sn211342   4.626   1.325   1.439 -0.2267  0.2872 -0.1586
 1567ntf    nn311343   4.589   1.377   1.582 -0.3162 -0.3145  0.0397
 1567ntf    sn211344   4.538   1.298   1.708 -0.3432 -0.0556  0.1933
 1567ntf    cn111345   4.679   1.226   1.797  0.0319  0.1844 -0.2040
 1567ntf    fn411346   4.883   1.357   1.451 -0.1581 -0.5056  0.1234
 1567ntf    fn411347   4.797   1.443   1.277 -0.0898 -0.0863 -0.0876
 1567ntf    fn411348   4.785   1.540   1.466  0.3709 -0.0615 -0.3835
 1567ntf    on511349   4.534   1.366   1.336 -0.1323  0.1800 -0.2853
 1567ntf    on511350   4.678   1.191   1.433  0.2367  0.4786 -0.5259
 1567ntf    on511351   4.464   1.176   1.686  0.1764 -0.3822  0.2442
 1567ntf    on511352   4.476   1.394   1.796 -0.3940  0.0804  0.0094
 1567ntf    fn411353   4.761   1.166   1.713 -0.3337  0.1549 -0.5441
 1567ntf    fn411354   4.752   1.320   1.855 -0.0571  0.3209 -0.3129
 1567ntf    fn411355   4.657   1.138   1.893  0.6357  0.0715 -0.1655
 1568ntf    cn111356   4.010   3.454   6.735  0.1311  0.1637  0.0226
 1568ntf    sn211357   4.077   3.478   6.902  0.3368  0.0670 -0.0450
 1568ntf    nn311358   4.068   3.334   6.963 -0.2240 -0.0323 -0.3490
 1568ntf    sn211359   4.148   3.202   6.931  0.1279  0.0626  0.1353
 1568ntf    cn111360   4.266   3.217   7.069  0.1987  0.0035  0.0811
 1568ntf    fn411361   4.096   3.414   6.642  0.2137  0.1935  0.0859
 1568ntf    fn411362   3.913   3.364   6.741 -0.1086  0.4289  0.1354
 1568ntf    fn411363   3.952   3.562   6.685  0.3863  0.0931 -0.4360
 1568ntf    on511364   4.212   3.523   6.877  0.3705 -0.1058 -0.1761
 1568ntf    on511365   3.989   3.575   6.963 -0.1965 -0.0633 -0.5939
 1568ntf    on511366   4.235   3.204   6.816  0.1029  0.0576  0.1164
 1568ntf    on511367   4.078   3.080   6.963  0.7599 -0.1704  0.6496
 1568ntf    fn411368   4.219   3.273   7.179  0.0925  0.1573 -0.0410
 1568ntf    fn411369   4.326   3.106   7.108  0.1388  0.0911  0.4226
 1568ntf    fn411370   4.359   3.304   7.029  0.2364  0.0374  0.2398
 1569ntf    cn111371   5.187   1.212   4.159  0.4737 -0.2646 -0.2923
 1569ntf    sn211372   5.189   1.121   4.316 -0.1114 -0.1846 -0.2350
 1569ntf    nn311373   5.331   1.156   4.372 -0.1752 -0.9796  0.4394
 1569ntf    sn211374   5.369   1.232   4.504 -0.0533 -0.1679 -0.0562
 1569ntf    cn111375   5.536   1.166   4.532  0.0146 -0.1003 -0.3070
 1569ntf    fn411376   5.302   1.271   4.131  0.4717 -0.2311 -0.2309
 1569ntf    fn411377   5.156   1.129   4.061 -0.0898  0.0865 -0.4217
 1569ntf    fn411378   5.092   1.305   4.168  0.2386 -0.5051 -0.2575
 1569ntf    on511379   5.078   1.172   4.394 -0.0248 -0.1811 -0.1135
 1569ntf    on511380   5.187   0.982   4.279  0.5095 -0.1925 -0.2485
 1569ntf    on511381   5.299   1.193   4.625 -0.7711  0.1399 -0.3670
 1569ntf    on511382   5.391   1.373   4.483  0.2129 -0.1908  0.0583
 1569ntf    fn411383   5.533   1.034   4.529 -0.2732 -0.0976 -0.1816
 1569ntf    fn411384   5.628   1.216   4.450 -0.3045  0.1991 -0.4872
 1569ntf    fn411385   5.588   1.203   4.647 -0.7109  0.3237 -0.1119
 1570ntf    cn111386   3.126   5.348   3.956 -0.0519  0.6219 -0.3570
 1570ntf    sn211387   2.951   5.309   3.926  0.0808 -0.1818 -0.1128
 1570ntf    nn311388   2.956   5.160   3.877 -0.4188 -0.1170 -0.3750
 1570ntf    sn211389   2.972   5.034   3.970 -0.1128  0.0156 -0.2470
 1570ntf    cn111390   2.798   5.009   4.017  0.0084 -0.2997  0.0381
 1570ntf    fn411391   3.137   5.451   4.038 -0.2683  0.4274 -0.0785
 1570ntf    fn411392   3.193   5.251   4.017  0.2443  0.8761 -0.2762
 1570ntf    fn411393   3.187   5.371   3.841  0.6617  0.4402 -0.0175
 1570ntf    on511394   2.883   5.320   4.053  0.5177 -0.0807  0.1142
 1570ntf    on511395   2.923   5.404   3.821  0.2522 -0.3722 -0.3331
 1570ntf    on511396   3.044   5.057   4.093 -0.1096 -0.0210 -0.2418
 1570ntf    on511397   3.003   4.914   3.897 -0.4440 -0.1011 -0.1958
 1570ntf    fn411398   2.757   5.095   4.108 -0.0794 -0.2422 -0.0557
 1570ntf    fn411399   2.723   5.032   3.910 -0.3998  0.1168  0.4120
 1570ntf    fn411400   2.770   4.885   4.053  0.4355 -0.5439 -0.4479
 1571ntf    cn111401   5.362   5.692   5.173 -0.1268  0.0615 -0.3653
 1571ntf    sn211402   5.527   5.766   5.158  0.0377 -0.1457  0.3804
 1571ntf    nn311403   5.507   5.817   5.011 -0.6091 -0.0443  0.5009
 1571ntf    sn211404   5.437   5.941   4.944  0.2816  0.1341 -0.1198
 1571ntf    cn111405   5.315   5.855   4.841  0.1404  0.2921 -0.0846
 1571ntf    fn411406   5.350   5.626   5.287 -0.3204 -0.0154 -0.4300
 1571ntf    fn411407   5.260   5.777   5.177  0.3588  0.6130  0.6743
 1571ntf    fn411408   5.340   5.592   5.089 -0.3800  0.1426 -0.3961
 1571ntf    on511409   5.525   5.867   5.261  0.7180  0.3884 -0.1092
 1571ntf    on511410   5.618   5.655   5.176 -0.0348 -0.3319 -0.3534
 1571ntf    on511411   5.516   6.002   4.839 -0.1890 -0.2685 -0.7139
 1571ntf    on511412   5.361   6.021   5.037 -0.4044 -0.4921 -0.1309
 1571ntf    fn411413   5.374   5.772   4.756  0.1992  0.2876 -0.0388
 1571ntf    fn411414   5.236   5.775   4.911 -0.3527  0.4819 -0.4205
 1571ntf    fn411415   5.235   5.932   4.769  0.2540 -0.0229 -0.5570
 1572ntf    cn111416   1.168   4.122   1.799  0.7478  0.2984  0.0969
 1572ntf    sn211417   1.158   4.186   1.969 -0.0442 -0.1846  0.2345
 1572ntf    nn311418   1.095   4.063   2.043  0.2119 -0.3610  0.1595
 1572ntf    sn211419   1.152   3.919   2.067  0.3125 -0.2922  0.3436
 1572ntf    cn111420   1.155   3.923   2.248  0.3435  0.0470  0.3348
 1572ntf    fn411421   1.204   4.215   1.712  0.0403  0.2549 -0.2499
 1572ntf    fn411422   1.243   4.015   1.781 -0.3492 -0.5514  0.4606
 1572ntf    fn411423   1.045   4.092   1.761  0.6148  0.4276  0.4190
 1572ntf    on511424   1.294   4.208   2.011  0.2246 -0.5803 -0.4215
 1572ntf    on511425   1.064   4.295   1.952 -0.1757 -0.2707  0.4142
 1572ntf    on511426   1.280   3.873   2.020  0.1478 -0.1155 -0.2881
 1572ntf    on511427   1.039   3.831   2.045 -0.1728  0.3627  0.1788
 1572ntf    fn411428   1.207   4.045   2.262  0.6022  0.0165 -0.3472
 1572ntf    fn411429   1.035   3.932   2.303  0.1252  0.6151 -0.2204
 1572ntf    fn411430   1.233   3.834   2.308  0.3022 -0.2743 -0.0888
 1573ntf    cn111431   2.195   2.241   1.902  0.3516 -0.1717  0.1642
 1573ntf    sn211432   2.275   2.101   1.986  0.3464 -0.1128  0.2664
 1573ntf    nn311433   2.340   2.178   2.106 -0.2013  0.1931  0.3691
 1573ntf    sn211434   2.281   2.208   2.249  0.0953  0.1085  0.5086
 1573ntf    cn111435   2.413   2.158   2.364  0.1392 -0.2984  0.2851
 1573ntf    fn411436   2.142   2.318   1.995  0.6975  0.0728  0.1613
 1573ntf    fn411437   2.279   2.310   1.827  0.0321  0.3961  0.3303
 1573ntf    fn411438   2.099   2.216   1.814  0.1751 -0.5295  0.4540
 1573ntf    on511439   2.169   2.012   2.029  0.1368 -0.0635 -0.1435
 1573ntf    on511440   2.371   2.053   1.890  0.1979 -0.4683  0.2906
 1573ntf    on511441   2.168   2.127   2.288 -0.0801 -0.1695 -0.5312
 1573ntf    on511442   2.277   2.351   2.268  0.4080  0.1790  0.0598
 1573ntf    fn411443   2.370   2.160   2.489 -0.1953  0.6173  0.1647
 1573ntf    fn411444   2.442   2.032   2.338  0.1741 -0.1175 -0.5653
 1573ntf    fn411445   2.527   2.224   2.352 -0.4105  0.6119 -0.0107
 1574ntf    cn111446   1.298   0.026   3.318 -0.3901 -0.2166 -0.1822
 1574ntf    sn211447   1.175   0.125   3.408 -0.1562 -0.0217 -0.0765
 1574ntf    nn311448   1.269   0.234   3.471 -0.0930 -0.3972  0.4879
 1574ntf    sn211449   1.341   0.225   3.610  0.2180 -0.2460  0.3372
 1574ntf    cn111450   1.494   0.318   3.574 -0.0596 -0.0114 -0.2562
 1574ntf    fn411451   1.243  -0.036   3.215  0.1981 -0.2904 -0.4527
 1574ntf    fn411452   1.392   0.100   3.262 -0.5893 -0.1194 -0.3902
 1574ntf    fn411453   1.359  -0.064   3.394 -0.7555  0.2615  0.6919
 1574ntf    on511454   1.099   0.186   3.301  0.2640 -0.1585 -0.4557
 1574ntf    on511455   1.111   0.026   3.491  0.2255 -0.5023 -0.3557
 1574ntf    on511456   1.391   0.096   3.649 -0.0422 -0.5079 -0.1846
 1574ntf    on511457   1.275   0.308   3.708 -0.4046  0.0603 -0.3275
 1574ntf    fn411458   1.577   0.304   3.676 -0.6242 -0.2716  0.1738
 1574ntf    fn411459   1.554   0.277   3.464  0.2099  0.1205 -0.1571
 1574ntf    fn411460   1.480   0.449   3.562  0.2602  0.0665  0.2107
 1575ntf    cn111461   1.966   0.858   3.966  0.2184  0.2782 -0.7786
 1575ntf    sn211462   1.947   0.681   4.002  0.0948  0.3680 -0.4005
 1575ntf    nn311463   1.985   0.680   4.155 -0.0141  0.2399 -0.3744
 1575ntf    sn211464   2.080   0.583   4.233 -0.1193  0.5374  0.1276
 1575ntf    cn111465   2.019   0.586   4.404 -0.2430 -0.2978  0.1021
 1575ntf    fn411466   1.929   0.896   3.844 -0.0698  0.7553 -0.5440
 1575ntf    fn411467   1.903   0.941   4.047  0.4659 -0.2417 -0.0488
 1575ntf    fn411468   2.091   0.895   3.985  0.2560  0.0886 -0.6589
 1575ntf    on511469   1.808   0.653   3.975 -0.0003  0.4105  0.0412
 1575ntf    on511470   2.039   0.612   3.915  0.1692  0.3813 -0.3332
 1575ntf    on511471   2.214   0.637   4.231  0.0687  0.0771  0.1018
 1575ntf    on511472   2.062   0.442   4.207 -0.0523  0.4297  0.6625
 1575ntf    fn411473   2.088   0.497   4.474  0.2018  0.0758  0.1436
 1575ntf    fn411474   2.038   0.697   4.473  0.3804 -0.2739 -0.1002
 1575ntf    fn411475   1.893   0.548   4.411 -0.2613 -0.2655 -0.0526
 1576ntf    cn111476   1.089   0.761   0.107  0.4022  0.0875 -0.2280
 1576ntf    sn211477   1.226   0.642   0.124  0.0067 -0.3375  0.0263
 1576ntf    nn311478   1.167   0.508   0.068 -0.7887  0.1485 -0.3222
 1576ntf    sn211479   1.249   0.406  -0.018 -0.0231  0.1809  0.3574
 1576ntf    cn111480   1.188   0.244   0.038  0.0905  0.0613  0.1374
 1576ntf    fn411481   1.032   0.763  -0.012  0.0290  0.7223 -0.0436
 1576ntf    fn411482   0.997   0.729   0.197  0.9925 -0.7510  0.0981
 1576ntf    fn411483   1.127   0.885   0.132 -0.5927  0.4270 -0.3748
 1576ntf    on511484   1.339   0.703   0.059 -0.3986  0.1805 -0.1989
 1576ntf    on511485   1.242   0.640   0.267 -0.5374 -0.4393  0.0862
 1576ntf    on511486   1.389   0.381   0.007  0.0076  0.0007  0.0093
 1576ntf    on511487   1.212   0.413  -0.157  0.3121 -0.0425  0.2552
 1576ntf    fn411488   1.059   0.229   0.013  0.2541 -0.3467 -0.4989
 1576ntf    fn411489   1.251   0.149  -0.030  0.2569  0.8425 -0.8269
 1576ntf    fn411490   1.201   0.211   0.166 -0.1188  0.5036  0.2727
 1577ntf    cn111491   2.842   0.163   4.107 -0.2232  0.4586  0.2350
 1577ntf    sn211492   2.889   0.089   4.266 -0.4114 -0.1406  0.0175
 1577ntf    nn311493   2.968   0.208   4.331 -0.4387 -0.1023 -0.0187
 1577ntf    sn211494   2.900   0.321   4.416  0.1527  0.3111 -0.0834
 1577ntf    cn111495   2.911   0.265   4.589  0.2687  0.2972 -0.0954
 1577ntf    fn411496   2.758   0.083   4.043 -0.5495  0.7481  0.3001
 1577ntf    fn411497   2.795   0.286   4.112 -0.1224  0.5045  0.0847
 1577ntf    fn411498   2.949   0.170   4.029 -0.0755 -0.0829  0.3854
 1577ntf    on511499   2.767   0.057   4.337 -0.3354 -0.2440  0.1002
 1577ntf    on511500   2.969  -0.024   4.228 -0.2121 -0.1357  0.4115
 1577ntf    on511501   2.758   0.337   4.398 -0.0512 -1.0857  0.1895
 1577ntf    on511502   2.976   0.444   4.416  0.7010 -0.0246 -0.1559
 1577ntf    fn411503   3.030   0.290   4.641  0.4264  0.0232 -0.3181
 1577ntf    fn411504   2.826   0.333   4.664 -0.1063 -0.7226  0.4140
 1577ntf    fn411505   2.893   0.135   4.606 -0.3679  0.3108 -0.6291
 1578ntf    cn111506   2.770   6.566   5.122  0.1275  0.2236  0.1869
 1578ntf    sn211507   2.726   6.397   5.171 -0.2488  0.2818  0.0524
 1578ntf    nn311508   2.839   6.370   5.277  0.1120  0.3935 -0.2985
 1578ntf    sn211509   2.881   6.229   5.332 -0.2290  0.3058 -0.2583
 1578ntf    cn111510   3.052   6.240   5.273 -0.0328  0.4834  0.3410
 1578ntf    fn411511   2.886   6.566   5.058  0.0996  0.4694  0.1337
 1578ntf    fn411512   2.681   6.629   5.047  0.0737  0.0050  0.0637
 1578ntf    fn411513   2.788   6.637   5.232  0.2028  0.1365  0.2317
 1578ntf    on511514   2.591   6.406   5.220 -0.4869 -0.3093 -0.4857
 1578ntf    on511515   2.739   6.319   5.050 -0.0424  0.3015  0.0620
 1578ntf    on511516   2.822   6.110   5.274 -0.2640 -0.1176  0.6190
 1578ntf    on511517   2.896   6.225   5.475  0.5683  0.3819 -0.3342
 1578ntf    fn411518   3.128   6.320   5.346  0.7305 -0.1633  0.2734
 1578ntf    fn411519   3.109   6.120   5.271 -0.0681  0.4717  0.0300
 1578ntf    fn411520   3.057   6.281   5.148  0.0393 -0.1276  0.1366
 1579ntf    cn111521   3.216   0.314   0.804 -0.2127 -0.3152  0.0531
 1579ntf    sn211522   3.217   0.189   0.672  0.0433 -0.2936  0.0344
 1579ntf    nn311523   3.351   0.216   0.595 -0.1493 -0.0411 -0.2142
 1579ntf    sn211524   3.495   0.167   0.634 -0.2666  0.0531  0.3455
 1579ntf    cn111525   3.505   0.028   0.518  0.0309  0.1958  0.1983
 1579ntf    fn411526   3.271   0.428   0.766 -0.3541 -0.1246  0.4130
 1579ntf    fn411527   3.101   0.356   0.855 -0.0856  0.4776 -0.3033
 1579ntf    fn411528   3.285   0.282   0.913 -0.3302  0.1797  0.2744
 1579ntf    on511529   3.205   0.064   0.743  0.3267 -0.1982  0.2491
 1579ntf    on511530   3.107   0.236   0.591 -0.0086 -0.3147  0.0926
 1579ntf    on511531   3.510   0.102   0.762  0.1928 -0.7821 -0.1317
 1579ntf    on511532   3.603   0.255   0.595 -0.4242  0.3322  0.5317
 1579ntf    fn411533   3.610  -0.045   0.550 -0.3949 -0.2074  0.7095
 1579ntf    fn411534   3.399  -0.049   0.541  0.0692  0.1534  0.2336
 1579ntf    fn411535   3.505   0.061   0.390 -0.0027  0.0336  0.1557
 1580ntf    cn111536   5.900   1.034   2.075 -0.4492  0.2291 -0.5170
 1580ntf    sn211537   6.063   1.018   1.996 -0.0980  0.3722  0.1695
 1580ntf    nn311538   6.087   0.869   2.038  0.0915  0.1972 -0.5440
 1580ntf    sn211539   6.161   0.759   1.953  0.0545 -0.0772 -0.2271
 1580ntf    cn111540   6.290   0.695   2.064 -0.1734  0.0119  0.0902
 1580ntf    fn411541   5.867   1.162   2.085 -0.0215  0.3684 -0.8604
 1580ntf    fn411542   5.807   0.978   1.999 -0.5604 -0.3111  0.0107
 1580ntf    fn411543   5.898   0.965   2.188  0.2603  0.7740 -0.1662
 1580ntf    on511544   6.024   1.055   1.862  0.2763  0.8618  0.1932
 1580ntf    on511545   6.147   1.111   2.067 -0.0782  0.1741  0.4072
 1580ntf    on511546   6.232   0.816   1.841 -0.1402  0.2952 -0.1626
 1580ntf    on511547   6.078   0.645   1.924  0.3433 -0.1331 -0.8660
 1580ntf    fn411548   6.371   0.789   2.111  0.0575 -0.2177  0.1562
 1580ntf    fn411549   6.238   0.644   2.175 -0.0737 -0.4649 -0.0785
 1580ntf    fn411550   6.359   0.591   2.019  0.1623  0.1714  0.2385
 1581ntf    cn111551   5.661   2.845   1.317  0.0573 -0.0079 -0.0402
 1581ntf    sn211552   5.833   2.863   1.375 -0.0998  0.0889  0.3958
 1581ntf    nn311553   5.829   3.013   1.422  0.6563  0.0512  0.5953
 1581ntf    sn211554   5.870   3.143   1.345  0.2408 -0.1635  0.0040
 1581ntf    cn111555   6.050   3.150   1.371  0.2072  0.0029  0.2007
 1581ntf    fn411556   5.614   2.724   1.338 -0.1033 -0.0190 -0.4522
 1581ntf    fn411557   5.584   2.933   1.379  0.0722 -0.2042  0.2544
 1581ntf    fn411558   5.639   2.864   1.188  0.3338  0.0800 -0.0767
 1581ntf    on511559   5.840   2.766   1.481 -0.5289  0.1000  0.4372
 1581ntf    on511560   5.911   2.832   1.258 -0.5724 -0.1946  0.1519
 1581ntf    on511561   5.822   3.268   1.399 -0.0683 -0.0732 -0.4730
 1581ntf    on511562   5.840   3.127   1.205  0.4233 -0.4109 -0.0069
 1581ntf    fn411563   6.110   3.243   1.298  0.5471  0.0018  0.4790
 1581ntf    fn411564   6.085   3.177   1.495  0.0286  0.0737  0.2362
 1581ntf    fn411565   6.103   3.031   1.349  0.0976  0.0957 -0.6016
 1582ntf    cn111566   3.511   6.823   6.738  0.2886  0.3380 -0.0515
 1582ntf    sn211567   3.497   6.642   6.735 -0.0042  0.3613 -0.1200
 1582ntf    nn311568   3.469   6.609   6.886  0.2023 -0.0736 -0.1760
 1582ntf    sn211569   3.332   6.568   6.950  0.0539  0.0659 -0.4016
 1582ntf    cn111570   3.389   6.543   7.121 -0.2333  0.4086 -0.2556
 1582ntf    fn411571   3.401   6.883   6.783 -0.0999 -0.3608 -0.0526
 1582ntf    fn411572   3.613   6.852   6.817  0.0411  0.5377  0.2004
 1582ntf    fn411573   3.531   6.880   6.620 -0.2642  0.4134 -0.1143
 1582ntf    on511574   3.390   6.608   6.644  0.0961  0.1647 -0.1626
 1582ntf    on511575   3.629   6.597   6.699 -0.1497 -0.0071 -0.1958
 1582ntf    on511576   3.279   6.438   6.918  0.5272 -0.0829 -0.5953
 1582ntf    on511577   3.245   6.682   6.959  0.2343  0.1285  0.7541
 1582ntf    fn411578   3.294   6.522   7.211 -0.1822 -0.0402 -0.3081
 1582ntf    fn411579   3.473   6.443   7.140 -0.1706  0.4009 -0.5657
 1582ntf    fn411580   3.448   6.657   7.155  0.6948 -0.1818  0.1509
 1583ntf    cn111581   6.058   2.766   4.414 -0.3780  0.2259  0.4557
 1583ntf    sn211582   6.017   2.594   4.455 -0.1170  0.0017 -0.2131
 1583ntf    nn311583   5.964   2.612   4.602 -0.0147  0.2709 -0.2076
 1583ntf    sn211584   6.051   2.618   4.732 -0.1163 -0.0632 -0.1205
 1583ntf    cn111585   5.931   2.563   4.856 -0.1885 -0.2585 -0.2763
 1583ntf    fn411586   6.110   2.823   4.522  0.4375 -0.2673  0.3311
 1583ntf    fn411587   6.142   2.791   4.315 -0.2621  0.4140  0.6002
 1583ntf    fn411588   5.944   2.823   4.377 -0.5329  0.0254  0.6180
 1583ntf    on511589   5.914   2.557   4.361  0.0392 -0.9183 -0.0390
 1583ntf    on511590   6.140   2.520   4.440 -0.2567 -0.3769  0.4509
 1583ntf    on511591   6.086   2.756   4.759 -0.2633 -0.0745  0.1221
 1583ntf    on511592   6.151   2.515   4.737 -0.2276 -0.1763 -0.2221
 1583ntf    fn411593   5.808   2.605   4.829 -0.1338  0.0083 -0.1244
 1583ntf    fn411594   5.912   2.433   4.866 -0.2167 -0.1953  0.5474
 1583ntf    fn411595   5.967   2.599   4.978 -0.1764 -0.3217 -0.2610
 1584ntf    cn111596   3.778   4.784   3.440 -0.2597  0.1369  0.1079
 1584ntf    sn211597   3.949   4.829   3.482 -0.2788  0.2573  0.0553
 1584ntf    nn311598   3.936   4.962   3.564 -0.4082 -0.2686  0.8967
 1584ntf    sn211599   4.046   5.074   3.568 -0.0924 -0.5504  0.2934
 1584ntf    cn111600   3.952   5.209   3.491  0.5448 -0.1486  0.2060
 1584ntf    fn411601   3.772   4.692   3.345  0.0254 -0.0279  0.2493
 1584ntf    fn411602   3.718   4.745   3.551 -0.0748 -0.2865  0.0642
 1584ntf    fn411603   3.708   4.891   3.405  0.6892  0.5073 -0.6996
 1584ntf    on511604   3.991   4.715   3.560 -0.7931  0.0545  0.0431
 1584ntf    on511605   4.021   4.841   3.358 -0.0448 -0.6177  0.0959
 1584ntf    on511606   4.165   5.061   3.487 -0.1497  0.0662  0.1030
 1584ntf    on511607   4.067   5.133   3.699  0.6363  0.4647 -0.2667
 1584ntf    fn411608   3.960   5.207   3.359 -0.2207  0.1151  0.1515
 1584ntf    fn411609   3.822   5.208   3.519  0.4107  0.1083 -0.3905
 1584ntf    fn411610   4.001   5.321   3.539 -0.0679  0.1594  0.1201
 1585ntf    cn111611   0.571   6.671   2.953 -0.3330  0.2459 -0.0340
 1585ntf    sn211612   0.624   6.514   3.029  0.1866  0.2130 -0.4564
 1585ntf    nn311613   0.530   6.402   2.973  0.2574 -0.0732 -0.0039
 1585ntf    sn211614   0.405   6.346   3.050  0.1170  0.1120 -0.0951
 1585ntf    cn111615   0.315   6.254   2.922  0.1492  0.1460 -0.1416
 1585ntf    fn411616   0.468   6.723   3.017  0.1358  0.3204  0.6636
 1585ntf    fn411617   0.664   6.764   2.957  0.1396 -0.2315  0.2610
 1585ntf    fn411618   0.535   6.661   2.826  0.4488  0.4406 -0.2762
 1585ntf    on511619   0.755   6.488   2.977  0.2101 -0.4004 -0.0927
 1585ntf    on511620   0.608   6.553   3.167 -0.6783  1.0735 -0.7823
 1585ntf    on511621   0.303   6.446   3.070  0.1188  0.1233 -0.1436
 1585ntf    on511622   0.423   6.248   3.155 -0.4429  0.3923  0.2651
 1585ntf    fn411623   0.290   6.339   2.823 -0.6597  0.0228 -0.0490
 1585ntf    fn411624   0.387   6.155   2.874 -1.0804 -0.7044 -0.2801
 1585ntf    fn411625   0.195   6.204   2.949 -0.0386  0.2353 -0.7995
 1586ntf    cn111626   6.652   4.754   2.705 -0.1760 -0.0642  0.2924
 1586ntf    sn211627   6.772   4.630   2.646 -0.1106 -0.0885  0.4771
 1586ntf    nn311628   6.898   4.718   2.619 -0.0712 -0.1749  0.3773
 1586ntf    sn211629   7.027   4.739   2.707  0.2946 -0.3129 -0.1216
 1586ntf    cn111630   7.106   4.577   2.685  0.1946 -0.3999  0.1576
 1586ntf    fn411631   6.554   4.690   2.766 -0.0565 -0.1837  0.3587
 1586ntf    fn411632   6.705   4.844   2.786 -0.2553  0.1102  0.1509
 1586ntf    fn411633   6.600   4.813   2.599  0.4229  0.2004  0.1378
 1586ntf    on511634   6.782   4.541   2.759  0.3141 -0.4010  0.1936
 1586ntf    on511635   6.699   4.584   2.531  0.1701 -0.3717  0.4107
 1586ntf    on511636   6.995   4.753   2.846  0.0593 -0.6133 -0.1445
 1586ntf    on511637   7.131   4.824   2.653  0.1519  0.0310  0.1407
 1586ntf    fn411638   7.230   4.589   2.727  0.2967 -0.1933 -0.1997
 1586ntf    fn411639   7.045   4.484   2.756  0.3329 -0.4595  0.1978
 1586ntf    fn411640   7.111   4.534   2.559 -0.2424 -0.5108  0.1754
 1587ntf    cn111641   0.118   2.160   1.681 -0.1907  0.1163 -0.1499
 1587ntf    sn211642   0.102   2.013   1.788  0.3984 -0.0395 -0.2737
 1587ntf    nn311643   0.227   1.938   1.729  0.5997  0.8631 -1.0298
 1587ntf    sn211644   0.234   1.831   1.615 -0.1583  0.0713 -0.3527
 1587ntf    cn111645   0.397   1.894   1.565  0.0379  0.0287  0.2246
 1587ntf    fn411646   0.235   2.219   1.696  0.1372 -0.8655  1.4829
 1587ntf    fn411647   0.102   2.138   1.552  0.0004  0.0174 -0.1563
 1587ntf    fn411648   0.029   2.254   1.708 -0.6110 -0.3178  0.0078
 1587ntf    on511649   0.127   2.064   1.921 -0.1129 -0.4935 -0.0048
 1587ntf    on511650  -0.034   1.977   1.760  0.3280  0.2896 -0.3692
 1587ntf    on511651   0.149   1.835   1.498 -0.4017  0.3770 -0.1655
 1587ntf    on511652   0.266   1.700   1.666 -1.0407  0.1753  0.4985
 1587ntf    fn411653   0.488   1.890   1.661  0.1093  0.6688  0.1873
 1587ntf    fn411654   0.451   1.824   1.466 -0.5548 -0.0683 -0.0325
 1587ntf    fn411655   0.393   2.018   1.521 -0.5080 -0.2110 -0.4097
 1588ntf    cn111656   1.459   6.267   5.961  0.1481 -0.1237  0.1228
 1588ntf    sn211657   1.602   6.169   5.906 -0.0707 -0.1806 -0.3491
 1588ntf    nn311658   1.578   6.168   5.751 -0.3507 -0.1833 -0.3071
 1588ntf    sn211659   1.553   6.292   5.657 -0.1486  0.3138  0.2894
 1588ntf    cn111660   1.710   6.283   5.565 -0.1973  0.2902  0.2090
 1588ntf    fn411661   1.432   6.245   6.089  0.0413  0.1707  0.1507
 1588ntf    fn411662   1.468   6.398   5.951 -1.4764 -0.0237 -0.2840
 1588ntf    fn411663   1.348   6.244   5.892  0.1714 -0.0027  0.0463
 1588ntf    on511664   1.716   6.249   5.942 -0.4408  0.0284  0.3822
 1588ntf    on511665   1.584   6.045   5.977  0.3400  0.0169  0.1075
 1588ntf    on511666   1.549   6.420   5.723 -0.4245  0.4248  0.0541
 1588ntf    on511667   1.455   6.256   5.558 -0.6724  0.6188  0.6954
 1588ntf    fn411668   1.812   6.280   5.650 -0.0212 -0.1994 -0.0175
 1588ntf    fn411669   1.715   6.188   5.474  0.3807  0.0567  0.4831
 1588ntf    fn411670   1.722   6.400   5.503  0.1940 -0.0743 -0.4101
 1589ntf    cn111671   6.052   5.321   5.084  0.4599 -0.5875 -0.0548
 1589ntf    sn211672   5.890   5.384   5.136  0.6572 -0.0163 -0.1192
 1589ntf    nn311673   5.823   5.417   4.998 -0.2737 -0.0506  0.3187
 1589ntf    sn211674   5.751   5.324   4.894 -0.3274  0.2091  0.1223
 1589ntf    cn111675   5.577   5.377   4.898 -0.3552  0.1339 -0.1084
 1589ntf    fn411676   6.107   5.416   5.011  0.1629 -0.3958 -0.0296
 1589ntf    fn411677   6.139   5.301   5.182  0.1647  0.0363  0.3360
 1589ntf    fn411678   6.048   5.208   5.016 -0.3700 -0.5308 -0.1069
 1589ntf    on511679   5.842   5.275   5.219 -0.0345 -0.0898 -0.6053
 1589ntf    on511680   5.908   5.507   5.209  0.0757  0.4562 -0.7548
 1589ntf    on511681   5.752   5.182   4.922  0.6342  0.1658 -0.0976
 1589ntf    on511682   5.778   5.357   4.757  0.0666  0.4245  0.2509
 1589ntf    fn411683   5.529   5.394   5.019 -0.1566 -0.2143  0.0221
 1589ntf    fn411684   5.546   5.487   4.830  0.3477  0.7524  0.5655
 1589ntf    fn411685   5.500   5.278   4.856  0.2512 -0.1823 -0.4880
 1590ntf    cn111686   1.267   6.151   1.111 -0.2686 -0.2090  0.3408
 1590ntf    sn211687   1.400   6.028   1.114  0.0500  0.1209 -0.2070
 1590ntf    nn311688   1.411   6.013   1.269 -0.3597  0.3561 -0.1531
 1590ntf    sn211689   1.369   5.896   1.365 -0.0338  0.1276 -0.2880
 1590ntf    cn111690   1.201   5.948   1.413 -0.0061 -0.1427  0.1059
 1590ntf    fn411691   1.155   6.089   1.144 -0.1200 -0.4405  0.4057
 1590ntf    fn411692   1.282   6.256   1.191 -0.0468 -0.0929  0.1463
 1590ntf    fn411693   1.242   6.200   0.991 -1.0333  0.2485  0.6722
 1590ntf    on511694   1.352   5.924   1.026  0.7705 -0.6209  0.2590
 1590ntf    on511695   1.511   6.107   1.067  0.4957 -0.4928 -0.1981
 1590ntf    on511696   1.443   5.893   1.488 -0.9524 -1.1175  0.2638
 1590ntf    on511697   1.351   5.771   1.294 -0.9977  0.0135  0.1440
 1590ntf    fn411698   1.110   5.937   1.317  0.1985  0.0714 -0.1140
 1590ntf    fn411699   1.154   5.872   1.510 -0.4130  0.3864  0.3251
 1590ntf    fn411700   1.202   6.077   1.440  0.9238  0.0044 -0.5759
 1591ntf    cn111701   5.409   2.437   4.873  0.4868 -0.0253  0.0380
 1591ntf    sn211702   5.334   2.379   5.028 -0.0548  0.2923 -0.1022
 1591ntf    nn311703   5.249   2.506   5.065 -0.2394  0.1785 -0.1377
 1591ntf    sn211704   5.306   2.633   5.137 -0.1884  0.2221 -0.2550
 1591ntf    cn111705   5.207   2.627   5.289  0.1919  0.0833 -0.0122
 1591ntf    fn411706   5.468   2.555   4.885  0.0104  0.2157  0.0462
 1591ntf    fn411707   5.499   2.348   4.833 -0.0564 -0.4701 -0.2015
 1591ntf    fn411708   5.312   2.440   4.783  0.4302 -0.0527  0.0983
 1591ntf    on511709   5.240   2.278   4.989  0.7439 -0.2081 -0.7622
 1591ntf    on511710   5.440   2.346   5.120 -0.2436  0.7807  0.2952
 1591ntf    on511711   5.258   2.755   5.077 -0.5187  0.1661 -0.1076
 1591ntf    on511712   5.445   2.630   5.178 -0.3761  0.1744  0.3873
 1591ntf    fn411713   5.220   2.517   5.361 -0.0412 -0.1535 -0.3306
 1591ntf    fn411714   5.243   2.727   5.368 -0.0749  0.0926  0.0960
 1591ntf    fn411715   5.077   2.648   5.285  0.1979  0.1436  0.0882
 1592ntf    cn111716   2.601   6.324   3.577  0.1821  0.0995  0.1445
 1592ntf    sn211717   2.652   6.496   3.544 -0.2412  0.2254  0.1416
 1592ntf    nn311718   2.544   6.529   3.435 -0.4020 -0.3792  0.1117
 1592ntf    sn211719   2.450   6.654   3.418  0.0976 -0.0107  0.0628
 1592ntf    cn111720   2.533   6.735   3.278 -0.2145  0.2769  0.0429
 1592ntf    fn411721   2.599   6.251   3.467  0.5777 -0.4615  0.5043
 1592ntf    fn411722   2.683   6.272   3.667 -0.0203 -0.2331  0.1388
 1592ntf    fn411723   2.480   6.309   3.628  0.1757 -0.4282 -0.0197
 1592ntf    on511724   2.628   6.568   3.666 -0.3334  0.4859 -0.0280
 1592ntf    on511725   2.784   6.479   3.488 -0.0434 -0.1388  0.7159
 1592ntf    on511726   2.448   6.756   3.520  0.1398 -0.3027  0.3575
 1592ntf    on511727   2.325   6.615   3.358 -0.0886  0.2334  0.2865
 1592ntf    fn411728   2.550   6.652   3.177  0.2447  0.4671 -0.0409
 1592ntf    fn411729   2.469   6.842   3.233 -0.3221  0.2160  0.0500
 1592ntf    fn411730   2.657   6.774   3.304 -0.1232  0.2799 -0.3905
 1593ntf    cn111731   3.824   1.622   2.774  0.0447 -0.4686  0.3488
 1593ntf    sn211732   3.824   1.642   2.954  0.1757 -0.1239  0.3119
 1593ntf    nn311733   3.903   1.777   2.958  0.5207 -0.3281  0.4560
 1593ntf    sn211734   3.838   1.920   2.952 -0.0165 -0.5891 -0.0418
 1593ntf    cn111735   3.856   1.991   3.119  0.1307 -0.2933 -0.1820
 1593ntf    fn411736   3.764   1.725   2.717 -0.1995 -0.8548 -0.1021
 1593ntf    fn411737   3.940   1.615   2.711 -0.2288 -0.0308 -0.2162
 1593ntf    fn411738   3.753   1.518   2.734 -0.0673 -0.4879  0.5990
 1593ntf    on511739   3.683   1.659   2.981  0.1435  0.4604 -0.1983
 1593ntf    on511740   3.884   1.523   3.009 -0.6342 -0.4268  0.5443
 1593ntf    on511741   3.697   1.931   2.923  0.1087  0.3717 -0.3211
 1593ntf    on511742   3.913   1.996   2.855 -0.2006 -0.3999 -0.0365
 1593ntf    fn411743   3.868   2.122   3.121 -0.3255 -0.2528  0.1567
 1593ntf    fn411744   3.765   1.961   3.210  0.4771  0.3546  0.3857
 1593ntf    fn411745   3.972   1.942   3.160  0.0227 -0.3213  0.0947
 1594ntf    cn111746   4.427   3.775   1.434 -0.3498  0.0277 -0.1624
 1594ntf    sn211747   4.383   3.650   1.559 -0.2743  0.1585 -0.0034
 1594ntf    nn311748   4.237   3.609   1.518 -0.0277 -0.2426 -0.4847
 1594ntf    sn211749   4.192   3.506   1.408 -0.1750 -0.0570 -0.5992
 1594ntf    cn111750   4.090   3.631   1.325 -0.4724  0.0831 -0.0225
 1594ntf    fn411751   4.332   3.867   1.445 -0.2551  0.1499 -0.3601
 1594ntf    fn411752   4.546   3.833   1.447 -0.2700 -0.0174 -0.6868
 1594ntf    fn411753   4.417   3.729   1.311 -0.0190 -0.2154 -0.0999
 1594ntf    on511754   4.491   3.557   1.543 -0.2918  0.0894  0.2779
 1594ntf    on511755   4.380   3.720   1.685 -0.3636 -0.5289  0.3798
 1594ntf    on511756   4.096   3.409   1.452 -0.0799  0.1463  0.0673
 1594ntf    on511757   4.288   3.463   1.308  0.1899  0.3530 -0.4283
 1594ntf    fn411758   4.005   3.692   1.407 -0.4230 -0.5092  0.4755
 1594ntf    fn411759   4.173   3.725   1.283 -0.2715 -0.3021 -0.4908
 1594ntf    fn411760   4.017   3.577   1.229 -0.1986  0.3719 -0.3966
 1595ntf    cn111761   5.985   2.818   6.755  0.0171  0.2849 -0.1943
 1595ntf    sn211762   5.826   2.763   6.686 -0.1848  0.2721  0.2811
 1595ntf    nn311763   5.852   2.609   6.678 -0.3463  0.2639 -0.0929
 1595ntf    sn211764   5.743   2.499   6.652  0.1781 -0.2718 -0.0572
 1595ntf    cn111765   5.755   2.393   6.799  0.0482  0.1375  0.2508
 1595ntf    fn411766   6.002   2.788   6.882 -0.2315 -0.8165 -0.4160
 1595ntf    fn411767   6.087   2.764   6.689 -0.1885 -0.6537  0.2428
 1595ntf    fn411768   6.002   2.950   6.750 -0.2673  0.3228 -0.1661
 1595ntf    on511769   5.730   2.819   6.778  0.4792  0.0540  1.1246
 1595ntf    on511770   5.825   2.828   6.557  0.1991 -0.0095  0.1341
 1595ntf    on511771   5.797   2.413   6.549 -0.0525 -0.1954 -0.2447
 1595ntf    on511772   5.602   2.531   6.650  0.3021  0.3310  0.6571
 1595ntf    fn411773   5.652   2.310   6.810  0.3172 -0.1839  0.3669
 1595ntf    fn411774   5.864   2.319   6.794 -0.2626 -0.2688 -0.8739
 1595ntf    fn411775   5.775   2.462   6.909  0.1114  0.2129  0.1925
 1596ntf    cn111776   5.641   4.714   1.575 -0.2670  0.2664 -0.2155
 1596ntf    sn211777   5.753   4.834   1.496  0.0633 -0.0092 -0.1715
 1596ntf    nn311778   5.711   4.955   1.587 -0.5273 -0.0702 -0.3551
 1596ntf    sn211779   5.719   5.112   1.583 -0.1451 -0.0769  0.0194
 1596ntf    cn111780   5.548   5.156   1.539 -0.1220 -0.1418 -0.1349
 1596ntf    fn411781   5.656   4.592   1.525  0.6752  0.1897  0.2288
 1596ntf    fn411782   5.672   4.701   1.703  0.2530  0.6237 -0.2987
 1596ntf    fn411783   5.517   4.752   1.553 -0.4232 -0.1896 -0.1281
 1596ntf    on511784   5.888   4.790   1.516  0.0619  0.0062 -0.1251
 1596ntf    on511785   5.700   4.844   1.362 -0.0254 -0.1870 -0.1500
 1596ntf    on511786   5.798   5.160   1.473  0.6986 -0.7165  0.3377
 1596ntf    on511787   5.742   5.167   1.714 -0.2150  0.2944 -0.1228
 1596ntf    fn411788   5.538   5.283   1.504  0.4691  0.1178  0.6162
 1596ntf    fn411789   5.499   5.086   1.438  0.6583 -0.1753 -0.4994
 1596ntf    fn411790   5.461   5.143   1.638 -0.1885  0.2484 -0.1394
 1597ntf    cn111791   3.449   2.902   4.221 -0.2231 -0.5118 -0.0148
 1597ntf    sn211792   3.488   2.897   4.043 -0.2922 -0.1186 -0.0406
 1597ntf    nn311793   3.595   3.011   4.026  0.1317 -0.5759 -0.4755
 1597ntf    sn211794   3.750   2.990   4.040  0.1056 -0.4717 -0.0105
 1597ntf    cn111795   3.789   2.979   3.863  0.0360  0.6271 -0.1000
 1597ntf    fn411796   3.543   2.866   4.307  0.0475 -0.0810 -0.1307
 1597ntf    fn411797   3.414   3.022   4.263  0.5477 -0.1175 -0.4671
 1597ntf    fn411798   3.347   2.820   4.240 -0.6894 -0.0093 -0.3496
 1597ntf    on511799   3.538   2.763   4.025  0.2619 -0.0271  0.7545
 1597ntf    on511800   3.365   2.931   3.976  0.0611 -0.0627 -0.6628
 1597ntf    on511801   3.795   2.864   4.095 -0.1358 -0.3293  0.5205
 1597ntf    on511802   3.806   3.115   4.084 -0.0156 -0.4956  0.2119
 1597ntf    fn411803   3.753   3.090   3.801 -0.1917  0.4638 -0.2644
 1597ntf    fn411804   3.917   2.951   3.844 -0.0908 -0.0192 -0.0194
 1597ntf    fn411805   3.722   2.882   3.803  1.0712 -0.5448  0.5891
 1598ntf    cn111806   5.351   6.702   2.507 -0.4440 -0.5567 -0.5247
 1598ntf    sn211807   5.506   6.609   2.528 -0.0254  0.1411 -0.4572
 1598ntf    nn311808   5.493   6.481   2.437 -0.0396 -0.2582  0.1025
 1598ntf    sn211809   5.581   6.427   2.319 -0.1647 -0.1221 -0.0515
 1598ntf    cn111810   5.477   6.478   2.178 -0.2176 -0.2268 -0.0509
 1598ntf    fn411811   5.314   6.693   2.380 -0.7769  0.4980 -0.5151
 1598ntf    fn411812   5.259   6.662   2.592 -0.2192 -0.6294 -0.3149
 1598ntf    fn411813   5.383   6.829   2.530  1.1402 -1.0704  0.2133
 1598ntf    on511814   5.613   6.693   2.481  0.6403 -0.1187  0.5706
 1598ntf    on511815   5.507   6.587   2.670  0.5345 -0.1955 -0.5135
 1598ntf    on511816   5.581   6.284   2.301 -0.8652 -0.1439  0.0831
 1598ntf    on511817   5.709   6.488   2.293 -0.0499 -0.4926 -0.3748
 1598ntf    fn411818   5.501   6.400   2.074  0.0073  0.3761 -0.4574
 1598ntf    fn411819   5.349   6.465   2.205 -0.4175  0.8326 -0.4336
 1598ntf    fn411820   5.487   6.604   2.137  0.5662 -0.3151 -0.1465
 1599ntf    cn111821   2.498   1.465   3.080 -0.2636 -0.0214  0.0450
 1599ntf    sn211822   2.550   1.317   2.988 -0.0078  0.0858  0.0168
 1599ntf    nn311823   2.408   1.253   2.970 -0.0498  0.0902  0.3306
 1599ntf    sn211824   2.366   1.103   2.983  0.2121 -0.0083  0.0507
 1599ntf    cn111825   2.342   1.095   3.163 -0.3106 -0.0916 -0.0212
 1599ntf    fn411826   2.422   1.439   3.185  0.1960 -0.2251  0.3343
 1599ntf    fn411827   2.596   1.538   3.131 -0.2022  0.2675 -0.4890
 1599ntf    fn411828   2.418   1.543   3.009  0.5594  0.2728 -0.5742
 1599ntf    on511829   2.594   1.375   2.863  0.5238  0.8783  0.5668
 1599ntf    on511830   2.642   1.254   3.079 -0.1261 -0.0977  0.0093
 1599ntf    on511831   2.461   0.999   2.949 -0.1516 -0.1637 -0.4954
 1599ntf    on511832   2.235   1.084   2.928  0.3433  0.5354 -0.4540
 1599ntf    fn411833   2.246   1.007   3.186 -0.2055 -0.0323  0.6828
 1599ntf    fn411834   2.455   1.060   3.223  0.0321  0.3844 -0.3806
 1599ntf    fn411835   2.301   1.209   3.216 -0.4155 -0.0759 -0.1365
 1600ntf    cn111836   1.389   2.303   5.151 -0.2504  0.3380 -0.2431
 1600ntf    sn211837   1.287   2.442   5.209  0.2093  0.6362 -0.1437
 1600ntf    nn311838   1.145   2.375   5.218  0.4484  0.2162  0.6057
 1600ntf    sn211839   1.084   2.305   5.345 -0.0644  0.0069  0.2483
 1600ntf    cn111840   0.993   2.450   5.407 -0.0149  0.1107  0.0790
 1600ntf    fn411841   1.320   2.191   5.140 -0.4275  0.4134  0.0882
 1600ntf    fn411842   1.431   2.326   5.027 -0.0790 -0.0315 -0.2531
 1600ntf    fn411843   1.496   2.278   5.224 -0.2190  0.3529 -0.2841
 1600ntf    on511844   1.349   2.467   5.337 -0.6660  0.3605  0.3427
 1600ntf    on511845   1.293   2.547   5.111 -0.5127  0.4248 -0.4209
 1600ntf    on511846   1.172   2.261   5.450 -0.3975  0.1517  0.5896
 1600ntf    on511847   0.982   2.214   5.300  0.6033 -0.4973 -0.2642
 1600ntf    fn411848   0.884   2.414   5.473  0.1206 -0.0264  0.2296
 1600ntf    fn411849   1.063   2.535   5.480  0.3391 -0.0553 -0.0596
 1600ntf    fn411850   0.957   2.519   5.300  0.9144  0.2974 -0.1250
 1601ntf    cn111851   3.720   0.500   1.634 -0.1294  0.0818 -0.2705
 1601ntf    sn211852   3.768   0.329   1.597  0.0595  0.0407  0.1534
 1601ntf    nn311853   3.922   0.350   1.618  0.0380 -0.0129  0.3650
 1601ntf    sn211854   4.039   0.404   1.528  0.1537 -0.5894  0.1640
 1601ntf    cn111855   4.143   0.486   1.653  0.1920  0.1284 -0.3347
 1601ntf    fn411856   3.788   0.560   1.730 -0.1433  0.2604 -0.3723
 1601ntf    fn411857   3.738   0.572   1.524  0.1243  0.0198 -0.2686
 1601ntf    fn411858   3.596   0.535   1.666 -0.1235 -0.1052 -0.0418
 1601ntf    on511859   3.694   0.246   1.689  0.3277  0.2516  0.5578
 1601ntf    on511860   3.741   0.297   1.459 -0.2180  0.0642  0.2014
 1601ntf    on511861   4.016   0.516   1.440  0.2235 -0.1697  0.6725
 1601ntf    on511862   4.129   0.304   1.477 -0.0228 -0.6281 -0.0715
 1601ntf    fn411863   4.192   0.400   1.741  0.3645  0.3677 -0.1969
 1601ntf    fn411864   4.247   0.543   1.594  0.0885  0.4518 -0.2066
 1601ntf    fn411865   4.079   0.574   1.728  0.5994  0.1194  0.0272
 1602ntf    cn111866   4.885   2.728   3.362 -0.7491  0.0753 -0.1244
 1602ntf    sn211867   4.854   2.594   3.482 -0.4563 -0.0054 -0.1397
 1602ntf    nn311868   4.955   2.633   3.596  0.1199 -0.8507 -0.3498
 1602ntf    sn211869   5.089   2.560   3.632  0.2282 -0.3979  0.1707
 1602ntf    cn111870   5.019   2.427   3.735 -0.5933 -0.1482 -0.0614
 1602ntf    fn411871   4.880   2.847   3.419 -0.3752 -0.2014  0.4993
 1602ntf    fn411872   4.994   2.719   3.288 -0.2622  0.2464  0.5614
 1602ntf    fn411873   4.785   2.717   3.276 -0.4311 -0.1850 -0.4601
 1602ntf    on511874   4.717   2.610   3.524 -0.7259  0.1389 -1.0539
 1602ntf    on511875   4.883   2.474   3.407 -0.1446  0.3428 -0.5878
 1602ntf    on511876   5.166   2.634   3.729 -0.0811 -0.0846  0.1813
 1602ntf    on511877   5.165   2.500   3.526 -0.0554 -0.0391 -0.2421
 1602ntf    fn411878   4.910   2.373   3.682 -0.4561 -0.7479  0.2685
 1602ntf    fn411879   5.104   2.330   3.761 -0.3003  0.0620 -0.2253
 1602ntf    fn411880   4.986   2.476   3.853 -0.0128  0.6670 -0.2258
 1603ntf    cn111881   5.980   4.788   2.310  0.4102  0.1659  0.4149
 1603ntf    sn211882   6.005   4.968   2.320 -0.2414  0.2625  0.4174
 1603ntf    nn311883   6.051   4.983   2.469  0.6651 -0.0515  0.1828
 1603ntf    sn211884   5.970   5.038   2.592  0.2532  0.0225 -0.1174
 1603ntf    cn111885   5.998   5.214   2.558  0.1114  0.1328  0.3259
 1603ntf    fn411886   6.086   4.723   2.356  0.2554  0.0639  0.6335
 1603ntf    fn411887   5.877   4.769   2.391  0.1885  0.1547  0.1314
 1603ntf    fn411888   5.950   4.754   2.186  0.0377  0.6481  0.3681
 1603ntf    on511889   6.115   4.994   2.229 -0.4674  0.0346  0.0754
 1603ntf    on511890   5.884   5.028   2.271 -0.1393  0.1930  0.0775
 1603ntf    on511891   6.028   5.003   2.720 -0.8968 -0.1917  0.3618
 1603ntf    on511892   5.826   5.026   2.591  0.2358  0.2467 -0.1946
 1603ntf    fn411893   5.956   5.283   2.663 -0.1789 -0.6972  0.7699
 1603ntf    fn411894   6.123   5.239   2.526 -0.1396  0.1049 -0.7091
 1603ntf    fn411895   5.924   5.257   2.457  0.0437  0.6610  0.5962
 1604ntf    cn111896   0.311   1.702   4.569  0.2048 -0.2459  0.0662
 1604ntf    sn211897   0.355   1.772   4.407  0.0824 -0.1552  0.0722
 1604ntf    nn311898   0.507   1.735   4.417  0.0318 -0.2208  0.6402
 1604ntf    sn211899   0.572   1.598   4.378  0.0201 -0.0306 -0.0568
 1604ntf    cn111900   0.657   1.648   4.225  0.3535 -0.0338  0.1244
 1604ntf    fn411901   0.372   1.777   4.659 -0.4822 -0.3069  0.5909
 1604ntf    fn411902   0.183   1.721   4.598  0.3755  0.0373  0.6480
 1604ntf    fn411903   0.346   1.577   4.591  0.0135 -0.1859  0.7287
 1604ntf    on511904   0.270   1.710   4.309 -0.4231  0.1434  0.3165
 1604ntf    on511905   0.340   1.915   4.418 -0.7059 -0.2434  0.1765
 1604ntf    on511906   0.488   1.485   4.347 -0.0543 -0.0882  0.3435
 1604ntf    on511907   0.683   1.564   4.464 -0.0762  0.4257  0.2461
 1604ntf    fn411908   0.744   1.742   4.256  0.0527  0.3371 -0.1392
 1604ntf    fn411909   0.717   1.551   4.159  0.2763  0.1511 -0.2193
 1604ntf    fn411910   0.577   1.699   4.132  0.0686 -0.4728  0.1278
 1605ntf    cn111911   5.380   3.996   2.655 -0.1034  0.2336 -0.0805
 1605ntf    sn211912   5.311   4.151   2.589 -0.2728  0.1346 -0.1368
 1605ntf    nn311913   5.390   4.151   2.453 -0.4875  0.2872 -0.2613
 1605ntf    sn211914   5.373   4.077   2.316 -0.0986 -0.7126  0.2245
 1605ntf    cn111915   5.548   4.033   2.293 -0.0447 -0.4523  0.1313
 1605ntf    fn411916   5.511   4.007   2.672 -0.1273  0.0208  0.2299
 1605ntf    fn411917   5.335   3.971   2.776  0.6547  0.1471  0.1903
 1605ntf    fn411918   5.354   3.891   2.578 -0.1483  0.6573 -0.6540
 1605ntf    on511919   5.169   4.132   2.573 -0.3331  0.3059  0.1913
 1605ntf    on511920   5.359   4.254   2.678 -0.2335 -0.1111  0.1280
 1605ntf    on511921   5.346   4.161   2.202 -0.0359 -1.0556 -0.0459
 1605ntf    on511922   5.312   3.946   2.325 -0.7877 -0.3946  0.2480
 1605ntf    fn411923   5.585   3.955   2.394  0.3172 -0.3304  0.0925
 1605ntf    fn411924   5.578   3.970   2.181  0.1515 -0.1260  0.0005
 1605ntf    fn411925   5.636   4.132   2.287 -0.4717 -0.1251 -0.8339
 1606ntf    cn111926   0.242   4.991   3.625  0.2280  0.4074 -0.1256
 1606ntf    sn211927   0.226   5.138   3.730  0.2425  0.1795  0.1965
 1606ntf    nn311928   0.308   5.242   3.647  0.1136 -0.1145 -0.2997
 1606ntf    sn211929   0.272   5.329   3.521 -0.2121  0.1442 -0.0298
 1606ntf    cn111930   0.248   5.489   3.603 -0.5079 -0.0084  0.1839
 1606ntf    fn411931   0.211   4.879   3.688 -0.1795  0.2131 -0.6618
 1606ntf    fn411932   0.171   5.003   3.514  0.1095  0.0765 -0.0891
 1606ntf    fn411933   0.365   4.962   3.586 -0.0708 -0.4264 -0.4720
 1606ntf    on511934   0.083   5.156   3.736  0.2603  0.1970  0.5840
 1606ntf    on511935   0.288   5.109   3.857  0.0629 -1.0489  0.0123
 1606ntf    on511936   0.154   5.286   3.449 -0.3616  0.0945  0.2437
 1606ntf    on511937   0.389   5.339   3.437 -0.2553 -0.0552 -0.1162
 1606ntf    fn411938   0.127   5.506   3.654 -0.7073 -0.6622 -0.0576
 1606ntf    fn411939   0.328   5.501   3.707  0.1895 -0.3581 -0.3031
 1606ntf    fn411940   0.269   5.593   3.523  0.2130 -0.0138  0.3580
 1607ntf    cn111941   2.485   1.292   6.617 -0.2340  0.1275 -0.2468
 1607ntf    sn211942   2.576   1.142   6.571 -0.2205  0.1210 -0.1992
 1607ntf    nn311943   2.553   1.056   6.700  0.0969  0.2341 -0.0677
 1607ntf    sn211944   2.648   1.044   6.825  0.2544 -0.3884 -0.2438
 1607ntf    cn111945   2.754   0.900   6.792  0.4874 -0.1433 -0.5645
 1607ntf    fn411946   2.464   1.319   6.745 -0.2097  0.0225 -0.2208
 1607ntf    fn411947   2.529   1.404   6.562 -0.2240  0.4734  0.4543
 1607ntf    fn411948   2.364   1.278   6.564 -0.1746  0.0059 -0.3521
 1607ntf    on511949   2.507   1.080   6.460 -0.1654 -0.3650  0.0344
 1607ntf    on511950   2.714   1.182   6.552 -0.5299  1.1620 -0.3123
 1607ntf    on511951   2.573   0.999   6.940  0.4766 -0.4254 -0.1122
 1607ntf    on511952   2.739   1.153   6.850  0.5690 -0.8148  0.5088
 1607ntf    fn411953   2.823   0.913   6.680  0.6511 -0.0585 -0.4546
 1607ntf    fn411954   2.829   0.866   6.895 -0.5015  0.6389  0.4430
 1607ntf    fn411955   2.680   0.794   6.766 -0.1611  0.1416  0.0608
 1608ntf    cn111956   3.011   2.517   6.333  0.2025  0.2356  0.0771
 1608ntf    sn211957   3.120   2.490   6.190  0.2404  0.0680  0.1374
 1608ntf    nn311958   3.104   2.633   6.127 -0.8261 -0.2587 -0.3705
 1608ntf    sn211959   3.210   2.708   6.038 -0.1681  0.1160  0.7119
 1608ntf    cn111960   3.125   2.700   5.878  0.2560  0.4246  0.4693
 1608ntf    fn411961   2.968   2.400   6.376  0.4452  0.2745  0.4298
 1608ntf    fn411962   3.072   2.562   6.442  0.4405 -0.5942  0.2980
 1608ntf    fn411963   2.904   2.591   6.309 -0.0475 -0.3541 -0.6630
 1608ntf    on511964   3.249   2.461   6.246  0.0919  0.2224  0.5634
 1608ntf    on511965   3.063   2.380   6.115  0.1703 -0.0925  0.4239
 1608ntf    on511966   3.336   2.646   6.007 -0.2498  0.1751  0.2536
 1608ntf    on511967   3.224   2.848   6.070  0.4913  0.2293 -0.0314
 1608ntf    fn411968   3.181   2.777   5.785 -0.6348  0.1211 -0.3333
 1608ntf    fn411969   3.122   2.578   5.827 -0.3674  0.3969  0.5677
 1608ntf    fn411970   2.995   2.722   5.886  0.0749 -0.2860 -0.3100
 1609ntf    cn111971   0.575   5.319   5.929 -0.2222 -0.2612 -0.2109
 1609ntf    sn211972   0.676   5.382   6.067 -0.0737 -0.2477 -0.3243
 1609ntf    nn311973   0.817   5.328   6.026 -0.1197 -0.3939 -0.2919
 1609ntf    sn211974   0.908   5.214   6.085 -0.0979  0.0026  0.4601
 1609ntf    cn111975   1.043   5.304   6.168 -0.0828  0.3941  0.0154
 1609ntf    fn411976   0.447   5.345   5.949  0.0140  0.3359  0.5940
 1609ntf    fn411977   0.600   5.382   5.815 -1.0165  0.0653 -0.2095
 1609ntf    fn411978   0.589   5.188   5.916 -0.1192 -0.3709  0.9438
 1609ntf    on511979   0.673   5.525   6.055  0.0071 -0.2033  0.1802
 1609ntf    on511980   0.620   5.312   6.181 -0.0809 -0.1983 -0.2971
 1609ntf    on511981   0.964   5.150   5.968  0.1302  0.1847  0.4678
 1609ntf    on511982   0.850   5.133   6.188 -0.1911  0.1573  0.5286
 1609ntf    fn411983   1.102   5.383   6.080 -0.3362  0.3312 -0.2133
 1609ntf    fn411984   0.993   5.383   6.262  0.0299  0.2977  0.1552
 1609ntf    fn411985   1.130   5.216   6.214  0.0500  0.6198  0.1993
 1610ntf    cn111986   6.798   3.775   4.214  0.1392 -0.1362  0.0948
 1610ntf    sn211987   6.813   3.862   4.373  0.0606  0.1973 -0.0788
 1610ntf    nn311988   6.942   3.794   4.432 -0.1687  0.0638  0.2763
 1610ntf    sn211989   6.961   3.724   4.571  0.1142  0.1989  0.3063
 1610ntf    cn111990   6.939   3.547   4.535 -0.2474  0.2705  0.1753
 1610ntf    fn411991   6.701   3.827   4.140  0.3014 -0.0204 -0.0362
 1610ntf    fn411992   6.901   3.791   4.133  0.1113 -0.1845  0.0497
 1610ntf    fn411993   6.763   3.648   4.215  0.5857 -0.2610 -0.2600
 1610ntf    on511994   6.818   4.002   4.338  0.0975  0.0861 -0.5137
 1610ntf    on511995   6.691   3.808   4.429  0.2498 -0.1660 -0.0164
 1610ntf    on511996   6.867   3.755   4.676 -0.5082 -0.4153 -0.0605
 1610ntf    on511997   7.101   3.722   4.607  0.1997 -0.4153 -0.0456
 1610ntf    fn411998   6.994   3.479   4.634  0.2487  0.6947  0.1951
 1610ntf    fn411999   6.813   3.508   4.533 -0.1332 -0.0885 -0.2114
 1610ntf    fn412000   6.991   3.512   4.418  0.5757 -0.0610  0.6345
 1611ntf    cn112001   5.617   6.786   0.851  0.1593 -0.0063 -0.1423
 1611ntf    sn212002   5.515   6.872   0.728  0.1265 -0.3157 -0.3319
 1611ntf    nn312003   5.546   7.016   0.781 -0.4079 -0.2202 -0.2665
 1611ntf    sn212004   5.569   7.142   0.690 -0.3547 -0.0839 -0.0669
 1611ntf    cn112005   5.743   7.115   0.646 -0.2507  0.6793 -0.1466
 1611ntf    fn412006   5.746   6.814   0.860  0.2674 -0.5165 -0.1047
 1611ntf    fn412007   5.571   6.793   0.975 -0.0117 -0.0675 -0.2018
 1611ntf    fn412008   5.631   6.658   0.821  0.2725 -0.0880  0.2569
 1611ntf    on512009   5.565   6.831   0.599  0.0322 -0.8807 -0.1899
 1611ntf    on512010   5.383   6.820   0.756  0.0212  0.0863 -0.0673
 1611ntf    on512011   5.564   7.268   0.759  1.2699 -0.0067 -0.0574
 1611ntf    on512012   5.504   7.134   0.561 -0.3522  0.0387 -0.0761
 1611ntf    fn412013   5.784   7.204   0.557  0.0115  0.5166 -0.1911
 1611ntf    fn412014   5.821   7.122   0.752 -0.3429  0.1318 -0.0380
 1611ntf    fn412015   5.759   7.002   0.578 -0.3343  0.3924  0.3029
 1612ntf    cn112016   4.753   2.730   0.235  0.4166 -0.4604 -0.3030
 1612ntf    sn212017   4.901   2.835   0.250  0.1096 -0.0572 -0.0779
 1612ntf    nn312018   4.845   2.982   0.245 -0.6027 -0.3325 -0.2679
 1612ntf    sn212019   4.782   3.069   0.131 -0.3106 -0.1259 -0.2732
 1612ntf    cn112020   4.612   3.083   0.195 -0.1865  0.2960 -0.0353
 1612ntf    fn412021   4.797   2.606   0.222  0.1662 -0.5626 -0.1799
 1612ntf    fn412022   4.665   2.737   0.333  0.6920 -0.0536 -0.0815
 1612ntf    fn412023   4.684   2.756   0.125 -0.2113 -0.4599  0.0863
 1612ntf    on512024   4.945   2.810   0.385  0.0989 -0.0862 -0.0798
 1612ntf    on512025   4.981   2.789   0.139  0.4054 -0.7821  0.4233
 1612ntf    on512026   4.753   3.006   0.004 -0.7580 -0.0868 -0.1903
 1612ntf    on512027   4.837   3.202   0.127  0.3789 -0.4164 -0.6377
 1612ntf    fn412028   4.542   3.135   0.096 -0.1324  0.0452 -0.2068
 1612ntf    fn412029   4.564   2.961   0.215  0.3380  0.0368 -0.3429
 1612ntf    fn412030   4.601   3.154   0.306  0.7582 -0.2600  0.4330
 1613ntf    cn112031   0.093   6.538   4.966  0.1745  0.1426  0.0185
 1613ntf    sn212032   0.220   6.663   5.002 -0.1432  0.3846  0.3103
 1613ntf    nn312033   0.285   6.679   4.860 -0.3135  0.6388  0.2613
 1613ntf    sn212034   0.337   6.803   4.779  0.4049  0.0769 -0.1415
 1613ntf    cn112035   0.203   6.834   4.660 -0.1822 -0.3258  0.4104
 1613ntf    fn412036   0.017   6.531   5.075 -0.0574  0.3845 -0.1289
 1613ntf    fn412037   0.012   6.577   4.869 -0.1374 -0.0191  0.2072
 1613ntf    fn412038   0.137   6.417   4.936 -0.7072 -0.2430  0.2333
 1613ntf    on512039   0.141   6.773   5.052  0.0699  0.7561 -0.1660
 1613ntf    on512040   0.310   6.602   5.097 -0.0488  0.0726  0.0225
 1613ntf    on512041   0.443   6.766   4.687  0.2467  0.3421 -0.4316
 1613ntf    on512042   0.341   6.932   4.843 -0.0695  0.1165 -0.1864
 1613ntf    fn412043   0.096   6.860   4.732 -0.3760  0.1361 -0.0378
 1613ntf    fn412044   0.232   6.940   4.586 -0.2538 -0.4972  0.1354
 1613ntf    fn412045   0.186   6.738   4.570  0.0918  0.1894 -0.2010
 1614ntf    cn112046   2.671   5.372   1.853 -0.1298 -0.0761 -0.1504
 1614ntf    sn212047   2.793   5.506   1.858 -0.0688 -0.1261 -0.2883
 1614ntf    nn312048   2.795   5.534   1.704 -0.0061 -0.1499 -0.2916
 1614ntf    sn212049   2.917   5.565   1.610  0.3955 -0.1090  0.2381
 1614ntf    cn112050   2.837   5.646   1.468  0.4983 -0.2402  0.1044
 1614ntf    fn412051   2.558   5.417   1.801  0.2911  0.4670 -0.6087
 1614ntf    fn412052   2.708   5.272   1.774 -0.5076 -0.0861 -0.3212
 1614ntf    fn412053   2.652   5.320   1.973  0.2042  0.4781  0.1459
 1614ntf    on512054   2.725   5.612   1.930 -0.2296 -0.4117 -0.0174
 1614ntf    on512055   2.907   5.448   1.924 -0.1590 -0.3405 -0.3201
 1614ntf    on512056   2.972   5.449   1.545  0.0077 -0.6598  0.8846
 1614ntf    on512057   3.005   5.669   1.658  0.0562  0.2576  0.0790
 1614ntf    fn412058   2.743   5.735   1.495  0.1812 -0.5869  0.1447
 1614ntf    fn412059   2.922   5.698   1.382 -0.0588  0.4309 -0.0527
 1614ntf    fn412060   2.768   5.559   1.396  0.7733 -0.2476 -0.1507
 1615ntf    cn112061   1.370   6.812   1.928  0.4584  0.5327  0.0038
 1615ntf    sn212062   1.540   6.769   1.979  0.4971  0.4045 -0.2312
 1615ntf    nn312063   1.526   6.613   1.991 -0.2106  0.4438 -0.4952
 1615ntf    sn212064   1.584   6.497   1.904  0.0171 -0.0970  0.3651
 1615ntf    cn112065   1.755   6.497   1.965  0.0675 -0.0332  0.2252
 1615ntf    fn412066   1.320   6.704   1.870  0.2716  0.4709  0.2806
 1615ntf    fn412067   1.291   6.831   2.032  0.2625  0.2550 -0.0950
 1615ntf    fn412068   1.364   6.916   1.847 -0.1748 -0.0503 -0.7119
 1615ntf    on512069   1.616   6.814   1.865  0.5353  0.7286 -0.0805
 1615ntf    on512070   1.562   6.843   2.101 -0.5297  0.1341  0.1306
 1615ntf    on512071   1.604   6.526   1.764 -0.2858 -0.4371  0.2479
 1615ntf    on512072   1.544   6.360   1.924 -0.2224 -0.0916 -0.0603
 1615ntf    fn412073   1.835   6.425   1.888 -0.4729 -0.1515 -0.2365
 1615ntf    fn412074   1.806   6.619   1.958  0.3049 -0.1409  0.0749
 1615ntf    fn412075   1.766   6.451   2.089  0.1240  0.3430  0.3621
 1616ntf    cn112076   3.457   3.516   0.765  0.0668 -0.0577 -0.1952
 1616ntf    sn212077   3.543   3.360   0.728  0.4097  0.0922 -0.0259
 1616ntf    nn312078   3.690   3.409   0.760  0.3833 -0.0803  0.3701
 1616ntf    sn212079   3.817   3.429   0.670 -0.0147  0.4468 -0.0870
 1616ntf    cn112080   3.873   3.588   0.739  0.2907  0.4130 -0.2539
 1616ntf    fn412081   3.509   3.617   0.697 -0.5584  0.0271 -0.5557
 1616ntf    fn412082   3.328   3.522   0.735  0.0003 -0.4148  0.0176
 1616ntf    fn412083   3.454   3.543   0.895 -0.7696 -0.1543 -0.1875
 1616ntf    on512084   3.505   3.266   0.830  0.8649  0.0449  0.1040
 1616ntf    on512085   3.502   3.339   0.592 -0.0299 -0.8516  0.2435
 1616ntf    on512086   3.794   3.475   0.536  0.3854 -0.0483 -0.3259
 1616ntf    on512087   3.922   3.334   0.696 -0.1952  0.5571  1.1244
 1616ntf    fn412088   3.805   3.685   0.679  0.1627  0.5520  0.1122
 1616ntf    fn412089   3.857   3.604   0.869  0.2974  0.4684 -0.2597
 1616ntf    fn412090   4.001   3.608   0.714  0.3757 -0.3576 -0.4580
 1617ntf    cn112091   4.053   5.102   2.606  0.1380 -0.3170  0.2002
 1617ntf    sn212092   4.212   5.187   2.629  0.1285 -0.2294 -0.0583
 1617ntf    nn312093   4.303   5.083   2.554  0.4740 -0.0100  0.0538
 1617ntf    sn212094   4.454   5.094   2.511  0.4630  0.1402  0.0525
 1617ntf    cn112095   4.441   5.061   2.333  0.3743 -0.2202  0.1260
 1617ntf    fn412096   4.066   4.972   2.632  0.5580 -0.4506 -0.6354
 1617ntf    fn412097   3.961   5.157   2.683 -0.1240  0.0789 -0.3940
 1617ntf    fn412098   4.006   5.108   2.483  0.1245 -0.1881  0.2123
 1617ntf    on512099   4.186   5.312   2.560 -0.6611 -0.0917  0.4805
 1617ntf    on512100   4.225   5.182   2.772  0.7877 -0.3326 -0.1188
 1617ntf    on512101   4.536   4.991   2.568  0.3498 -0.0436 -0.1157
 1617ntf    on512102   4.504   5.229   2.512  0.3307  0.1955 -0.5829
 1617ntf    fn412103   4.369   5.153   2.272 -0.4607 -0.8164  0.1870
 1617ntf    fn412104   4.556   5.055   2.269  0.2489 -0.5066 -0.0768
 1617ntf    fn412105   4.383   4.944   2.313  0.4434 -0.0897 -0.8844
 1618ntf    cn112106   5.668   2.841   2.732 -0.1038  0.0963 -0.0265
 1618ntf    sn212107   5.597   2.753   2.874  0.2621  0.2805  0.2703
 1618ntf    nn312108   5.519   2.864   2.954 -0.5699  0.1568 -0.3600
 1618ntf    sn212109   5.446   2.843   3.091  0.2884  0.0010  0.0839
 1618ntf    cn112110   5.269   2.837   3.051  0.2509  0.3257  0.2001
 1618ntf    fn412111   5.744   2.940   2.774  0.1110 -0.0461 -0.0811
 1618ntf    fn412112   5.733   2.760   2.651 -0.1051 -0.1414  0.2088
 1618ntf    fn412113   5.568   2.895   2.663  0.1006  0.4938 -0.0129
 1618ntf    on512114   5.501   2.673   2.803  0.2190  0.5768 -0.0070
 1618ntf    on512115   5.705   2.684   2.941  0.4643  0.0177 -0.3267
 1618ntf    on512116   5.461   2.965   3.166  0.5231 -0.0934  0.1904
 1618ntf    on512117   5.459   2.718   3.161 -0.4055 -0.0862  0.0658
 1618ntf    fn412118   5.193   2.822   3.159  0.0212  0.0298 -0.0033
 1618ntf    fn412119   5.229   2.953   2.999  0.3051  0.2762  0.0487
 1618ntf    fn412120   5.229   2.743   2.967  0.1813 -0.4429  1.0761
 1619ntf    cn112121   6.612   6.648   2.410 -0.2325 -0.1377 -0.1105
 1619ntf    sn212122   6.664   6.671   2.583 -0.1662 -0.0177 -0.1469
 1619ntf    nn312123   6.671   6.519   2.621 -0.5180 -0.0032 -0.0257
 1619ntf    sn212124   6.650   6.449   2.760  0.0440 -0.1190  0.0018
 1619ntf    cn112125   6.483   6.379   2.748  0.1617 -0.3451 -0.2945
 1619ntf    fn412126   6.695   6.565   2.348  0.1630  0.3645 -0.2606
 1619ntf    fn412127   6.488   6.604   2.397 -0.4054  0.2970  0.0587
 1619ntf    fn412128   6.628   6.755   2.335 -0.0999 -0.4610 -0.5508
 1619ntf    on512129   6.796   6.730   2.578 -0.0480 -0.3068 -0.5124
 1619ntf    on512130   6.561   6.745   2.651  0.2788  0.4021  0.0802
 1619ntf    on512131   6.653   6.543   2.870 -0.0004  0.0783 -0.1637
 1619ntf    on512132   6.730   6.330   2.767  0.4288  0.1543  0.3478
 1619ntf    fn412133   6.398   6.443   2.826  0.5066 -0.1272 -0.0926
 1619ntf    fn412134   6.434   6.393   2.626 -0.1651 -0.2607 -0.1546
 1619ntf    fn412135   6.479   6.252   2.785  0.2680  0.0191  1.0188
 1620ntf    cn112136   3.105   1.252   3.715  0.9231 -0.1266  0.3425
 1620ntf    sn212137   3.179   1.409   3.660  0.0270  0.1144 -0.2013
 1620ntf    nn312138   3.299   1.430   3.760  0.0443 -0.6477 -0.0549
 1620ntf    sn212139   3.291   1.479   3.909  0.0561  0.0944 -0.2902
 1620ntf    cn112140   3.368   1.644   3.906 -0.2448  0.2427  0.1168
 1620ntf    fn412141   3.083   1.176   3.609 -0.3024  0.4610  0.1521
 1620ntf    fn412142   3.193   1.194   3.794  0.5646 -1.1314  0.0142
 1620ntf    fn412143   2.989   1.257   3.777  0.6510 -0.0299 -0.1662
 1620ntf    on512144   3.211   1.380   3.523 -0.4006  0.2163 -0.3240
 1620ntf    on512145   3.077   1.512   3.666  0.4778  0.5409  0.2485
 1620ntf    on512146   3.375   1.402   3.998 -0.1008  0.0491 -0.1809
 1620ntf    on512147   3.165   1.512   3.969  0.0391 -0.1377 -0.1970
 1620ntf    fn412148   3.315   1.725   3.816 -0.3165 -0.3496 -0.3792
 1620ntf    fn412149   3.353   1.712   4.018  0.4333  0.0098  0.3544
 1620ntf    fn412150   3.499   1.643   3.888 -0.2703  0.6992 -0.1049
 1621ntf    cn112151   6.841   6.563   4.410 -0.1215  0.0529  0.1191
 1621ntf    sn212152   6.740   6.541   4.261 -0.1404  0.3447  0.0891
 1621ntf    nn312153   6.668   6.680   4.257 -0.3952  0.2187  0.2720
 1621ntf    sn212154   6.623   6.765   4.132  0.0436 -0.2240 -0.1901
 1621ntf    cn112155   6.443   6.753   4.158 -0.0116  0.1551 -0.3928
 1621ntf    fn412156   6.954   6.625   4.382 -0.1008  0.2487  0.6154
 1621ntf    fn412157   6.786   6.643   4.499 -0.3522  0.0698 -0.0404
 1621ntf    fn412158   6.869   6.451   4.476  0.6707  0.5397  0.6435
 1621ntf    on512159   6.837   6.514   4.158 -0.2756 -0.3395  0.1388
 1621ntf    on512160   6.649   6.437   4.302 -0.5520  0.6796  0.0316
 1621ntf    on512161   6.655   6.702   4.006  0.4462 -0.2319 -0.0844
 1621ntf    on512162   6.650   6.906   4.146  0.0634 -0.2446 -0.0136
 1621ntf    fn412163   6.418   6.771   4.287 -0.1128 -0.5142 -0.3128
 1621ntf    fn412164   6.381   6.856   4.103 -0.4795 -0.0673 -0.2910
 1621ntf    fn412165   6.390   6.640   4.114 -0.0005 -0.1040  0.2494
 1622ntf    cn112166   3.679   2.539   1.447  0.2926  0.1683 -0.0107
 1622ntf    sn212167   3.759   2.690   1.385 -0.4271  0.6512  0.2152
 1622ntf    nn312168   3.682   2.698   1.249  0.1777 -0.3147 -0.1924
 1622ntf    sn212169   3.739   2.682   1.103 -0.0950  0.2691 -0.3653
 1622ntf    cn112170   3.589   2.616   1.024 -0.0759  0.0276 -0.2015
 1622ntf    fn412171   3.550   2.536   1.418  0.2132 -0.2499  0.3796
 1622ntf    fn412172   3.744   2.431   1.409  0.1618  0.1798 -0.2696
 1622ntf    fn412173   3.683   2.544   1.579  0.0491  0.3659 -0.0086
 1622ntf    on512174   3.719   2.791   1.480 -0.8981  0.6509  0.0156
 1622ntf    on512175   3.897   2.646   1.381 -0.6668 -0.2006  1.0718
 1622ntf    on512176   3.836   2.575   1.099  0.4846  0.8055 -0.9286
 1622ntf    on512177   3.760   2.807   1.034 -0.5527  0.6113  0.1107
 1622ntf    fn412178   3.495   2.706   0.998 -0.7568 -0.7988 -0.6571
 1622ntf    fn412179   3.613   2.559   0.907 -0.0068  0.2898 -0.3158
 1622ntf    fn412180   3.535   2.525   1.103 -0.5831  0.7747  0.3241
 1623ntf    cn112181   2.779   5.187   5.093 -0.2615 -0.1982  0.3591
 1623ntf    sn212182   2.659   5.317   5.050  0.1107 -0.0357 -0.2040
 1623ntf    nn312183   2.642   5.284   4.898 -0.1512 -0.3143 -0.1140
 1623ntf    sn212184   2.547   5.181   4.827 -0.4863 -0.1554  0.1027
 1623ntf    cn112185   2.440   5.307   4.751 -0.1956  0.0186 -0.0181
 1623ntf    fn412186   2.745   5.063   5.059 -0.5250  0.0381 -0.2640
 1623ntf    fn412187   2.900   5.203   5.041 -0.2387 -0.2491  0.3965
 1623ntf    fn412188   2.804   5.173   5.222  0.3047  0.3188  0.3099
 1623ntf    on512189   2.543   5.305   5.134  0.4688 -0.2284  0.2691
 1623ntf    on512190   2.729   5.442   5.070  0.9140 -0.4559 -0.3590
 1623ntf    on512191   2.456   5.101   4.905 -0.5786  0.0498  0.2070
 1623ntf    on512192   2.612   5.118   4.715  0.0637 -0.2695  0.4841
 1623ntf    fn412193   2.374   5.375   4.843  0.0572 -0.0558  0.2207
 1623ntf    fn412194   2.509   5.398   4.684 -0.3034  0.5295  0.5551
 1623ntf    fn412195   2.347   5.258   4.671  0.2480 -0.3934 -0.2901
 1624ntf    cn112196   0.014   3.496   2.581 -0.5332  0.0908 -0.4391
 1624ntf    sn212197  -0.114   3.442   2.698  0.0409 -0.4092 -0.0422
 1624ntf    nn312198  -0.065   3.522   2.824 -0.1892  0.3662 -0.4377
 1624ntf    sn212199  -0.062   3.676   2.853  0.1689  0.1758  0.6028
 1624ntf    cn112200  -0.186   3.690   2.984 -0.1136  0.2014  0.3321
 1624ntf    fn412201   0.113   3.411   2.563 -0.6394 -0.0363 -0.4277
 1624ntf    fn412202  -0.036   3.512   2.459 -0.7333 -0.0295 -0.3735
 1624ntf    fn412203   0.070   3.612   2.609  0.0470 -0.3827  0.3896
 1624ntf    on512204  -0.240   3.478   2.638  0.2295 -0.0941 -0.2500
 1624ntf    on512205  -0.086   3.300   2.700  0.3123 -0.3524  0.2855
 1624ntf    on512206  -0.124   3.760   2.754  0.7066 -0.2874 -0.1395
 1624ntf    on512207   0.064   3.725   2.903  0.1657  0.2458  0.5438
 1624ntf    fn412208  -0.205   3.813   3.030 -0.3732  0.1893  0.2639
 1624ntf    fn412209  -0.305   3.659   2.935  0.1617 -0.2076 -0.0800
 1624ntf    fn412210  -0.174   3.609   3.088 -0.3139  0.0134  0.2098
 1625ntf    cn112211   6.191   6.049   0.915  0.2522 -0.1599 -0.0057
 1625ntf    sn212212   6.140   6.089   1.085 -0.2397 -0.0938 -0.1657
 1625ntf    nn312213   6.080   5.949   1.123 -0.0597 -0.3043 -0.6502
 1625ntf    sn212214   6.125   5.835   1.221 -0.1454  0.2822  0.0780
 1625ntf    cn112215   6.020   5.871   1.365 -0.1235 -0.1519  0.2029
 1625ntf    fn412216   6.117   5.950   0.868 -0.3320  0.2307  0.0763
 1625ntf    fn412217   6.190   6.153   0.834  0.1769 -0.2615 -0.1360
 1625ntf    fn412218   6.317   6.008   0.915  0.4296  0.3797 -0.2121
 1625ntf    on512219   6.271   6.115   1.139 -0.1986 -0.1794 -0.2249
 1625ntf    on512220   6.050   6.200   1.063 -0.0657  0.1878  0.5166
 1625ntf    on512221   6.259   5.840   1.274  0.0870  0.0665 -0.4895
 1625ntf    on512222   6.076   5.705   1.185 -0.6062  0.6150 -0.5091
 1625ntf    fn412223   6.050   5.986   1.423 -0.3837  0.3090 -0.5661
 1625ntf    fn412224   5.894   5.873   1.324  0.0503 -0.5012 -0.3569
 1625ntf    fn412225   6.024   5.792   1.471 -0.1007 -0.0238  0.2983
 1626ntf    cn112226   5.673   3.015   2.226 -0.0418  0.2319 -0.2222
 1626ntf    sn212227   5.628   3.129   2.092  0.1151  0.1853 -0.3152
 1626ntf    nn312228   5.634   3.263   2.174  0.3115 -0.2306  0.3608
 1626ntf    sn212229   5.763   3.353   2.184  0.3112 -0.2038  0.1302
 1626ntf    cn112230   5.765   3.367   2.365 -0.3534  0.2937  0.1041
 1626ntf    fn412231   5.797   3.046   2.260  0.0818 -0.5657  0.0717
 1626ntf    fn412232   5.596   3.031   2.332 -0.1598 -0.5201 -0.1864
 1626ntf    fn412233   5.679   2.888   2.187 -0.5537  0.2929 -0.5029
 1626ntf    on512234   5.733   3.109   1.995  0.1479  0.5505 -0.3570
 1626ntf    on512235   5.499   3.071   2.070  0.1843 -0.4377  0.8199
 1626ntf    on512236   5.736   3.488   2.143  0.8724  0.0383  0.5521
 1626ntf    on512237   5.895   3.297   2.168  0.6946  0.8184 -0.4045
 1626ntf    fn412238   5.813   3.258   2.423 -0.4556 -0.3746 -1.0279
 1626ntf    fn412239   5.846   3.461   2.409 -0.0690  0.3003 -0.4261
 1626ntf    fn412240   5.644   3.391   2.413 -0.2817  0.4966  0.1840
 1627ntf    cn112241   5.819   4.504   4.023 -0.2839  0.3198 -0.3100
 1627ntf    sn212242   5.889   4.481   3.857 -0.2866 -0.2429 -0.2358
 1627ntf    nn312243   6.022   4.408   3.900 -0.1697  0.2461  0.2406
 1627ntf    sn212244   6.164   4.473   3.907 -0.0540  0.0061  0.1404
 1627ntf    cn112245   6.242   4.349   4.013  0.1572  0.2344  0.2537
 1627ntf    fn412246   5.909   4.553   4.107  0.0331 -0.2412 -0.3133
 1627ntf    fn412247   5.705   4.571   4.012 -0.2162  0.3840 -0.6263
 1627ntf    fn412248   5.798   4.387   4.083 -0.2120  0.1822 -0.5523
 1627ntf    on512249   5.785   4.399   3.800 -0.1394 -0.3840 -0.3066
 1627ntf    on512250   5.904   4.609   3.793  0.8507 -0.0666  0.3496
 1627ntf    on512251   6.167   4.599   3.977  0.0463  0.0200  0.1114
 1627ntf    on512252   6.250   4.469   3.791  0.4766  0.4942  0.5093
 1627ntf    fn412253   6.359   4.386   4.063  0.1408  0.1381  0.3676
 1627ntf    fn412254   6.171   4.318   4.120  0.4681 -0.1955  0.3399
 1627ntf    fn412255   6.264   4.236   3.948 -0.0544  0.6059 -0.4678
 1628ntf    cn112256   5.108   1.448   1.754 -0.0468 -0.1822  0.1884
 1628ntf    sn212257   5.259   1.413   1.849  0.1797  0.0664 -0.0793
 1628ntf    nn312258   5.211   1.292   1.936  0.5458 -0.1361 -0.1538
 1628ntf    sn212259   5.168   1.299   2.087  0.1557  0.0831 -0.2726
 1628ntf    cn112260   5.033   1.179   2.110  0.3215 -0.0492  0.0150
 1628ntf    fn412261   5.065   1.344   1.685 -0.0715  0.0976 -0.2253
 1628ntf    fn412262   5.014   1.486   1.838  0.1061 -0.0446  0.2993
 1628ntf    fn412263   5.127   1.541   1.661  0.1681 -0.2553  0.1570
 1628ntf    on512264   5.345   1.354   1.750  0.0821  0.3800 -0.3515
 1628ntf    on512265   5.294   1.538   1.913 -0.2428  0.1777 -0.0638
 1628ntf    on512266   5.104   1.419   2.135  0.5120 -0.0175  0.4688
 1628ntf    on512267   5.264   1.244   2.179 -0.2725  0.4809  0.4209
 1628ntf    fn412268   4.975   1.191   2.228  0.3643 -0.6523  0.1047
 1628ntf    fn412269   4.941   1.190   2.016  0.0332  0.2020  0.3225
 1628ntf    fn412270   5.074   1.053   2.100 -0.0520 -0.2150  0.5245
 1629ntf    cn112271   3.311   4.638   4.515 -0.0362 -0.1607 -0.0421
 1629ntf    sn212272   3.189   4.641   4.649 -0.0277  0.0162 -0.0383
 1629ntf    nn312273   3.203   4.794   4.685 -0.9463  0.0307  0.2858
 1629ntf    sn212274   3.095   4.880   4.759 -0.8292  0.1504  0.3183
 1629ntf    cn112275   3.143   4.879   4.935  0.0405 -0.0302  0.0858
 1629ntf    fn412276   3.437   4.663   4.549  0.1441  0.1368 -0.8984
 1629ntf    fn412277   3.312   4.518   4.460 -0.2754  0.0215 -0.4485
 1629ntf    fn412278   3.289   4.728   4.420  0.4518  0.4534  0.4146
 1629ntf    on512279   3.073   4.579   4.591  0.0927 -0.1530 -0.1002
 1629ntf    on512280   3.252   4.565   4.754  0.4155  0.6569  0.1689
 1629ntf    on512281   2.961   4.826   4.753 -0.4516 -0.7680 -0.0264
 1629ntf    on512282   3.096   5.015   4.710 -0.1842 -0.1445 -0.4871
 1629ntf    fn412283   3.128   4.759   4.987 -0.2470 -0.0578 -0.0591
 1629ntf    fn412284   3.269   4.906   4.962  0.1365 -0.2313 -0.1588
 1629ntf    fn412285   3.069   4.962   5.007  0.5170  0.1040  0.4261
 1630ntf    cn112286   4.005   1.407   3.454  0.2985  0.1659 -0.1466
 1630ntf    sn212287   4.061   1.438   3.624 -0.0734  0.2134 -0.0312
 1630ntf    nn312288   4.215   1.409   3.612 -0.0418  0.3134  0.1332
 1630ntf    sn212289   4.344   1.493   3.644 -0.1327  0.3167  0.4966
 1630ntf    cn112290   4.464   1.359   3.620 -0.2188  0.2154  0.6279
 1630ntf    fn412291   4.068   1.306   3.395  0.2021 -0.3239  0.5719
 1630ntf    fn412292   3.879   1.368   3.444  0.3351 -0.0519  0.2098
 1630ntf    fn412293   4.000   1.507   3.368  0.9267  0.2459 -0.0957
 1630ntf    on512294   4.034   1.576   3.653  0.4141  0.2061  0.4860
 1630ntf    on512295   4.012   1.330   3.706  0.0229  0.2357  0.0564
 1630ntf    on512296   4.358   1.528   3.783 -0.0190 -0.0915  0.5885
 1630ntf    on512297   4.388   1.587   3.544 -0.0600  0.3283  0.5398
 1630ntf    fn412298   4.411   1.240   3.644 -0.2344  0.0042 -0.4300
 1630ntf    fn412299   4.501   1.349   3.494 -0.5193  0.2215  0.5398
 1630ntf    fn412300   4.576   1.360   3.691  0.0393  0.1032  0.2204
 1631ntf    cn112301   5.230   3.357   6.350  0.3167 -0.3520 -0.4860
 1631ntf    sn212302   5.119   3.265   6.460  0.3948 -0.0001 -0.1093
 1631ntf    nn312303   4.997   3.250   6.362 -0.0731  0.5926  0.3699
 1631ntf    sn212304   4.874   3.341   6.326 -0.5667 -0.1652  0.1202
 1631ntf    cn112305   4.912   3.358   6.149  0.2184 -0.3163  0.2676
 1631ntf    fn412306   5.349   3.370   6.406  0.0532 -0.8113  0.1969
 1631ntf    fn412307   5.240   3.290   6.236 -0.3905 -0.9066 -0.2319
 1631ntf    fn412308   5.183   3.479   6.329  0.8167 -0.0880 -0.0858
 1631ntf    on512309   5.178   3.135   6.480  0.2741 -0.0216  0.1166
 1631ntf    on512310   5.096   3.345   6.578 -0.2086 -0.4543  0.0883
 1631ntf    on512311   4.868   3.476   6.376  0.4955 -0.1017  0.0959
 1631ntf    on512312   4.748   3.270   6.320 -0.1220 -0.9689  0.0838
 1631ntf    fn412313   4.960   3.243   6.106  0.0322 -0.1699 -0.3421
 1631ntf    fn412314   4.815   3.390   6.065  0.2893  0.1629  0.3651
 1631ntf    fn412315   5.013   3.443   6.134  0.0527 -0.1511  0.0761
 1632ntf    cn112316   4.715   4.559   5.574 -0.0521  0.0938  0.1508
 1632ntf    sn212317   4.797   4.650   5.708  0.1561 -0.2192  0.2373
 1632ntf    nn312318   4.669   4.712   5.775  0.2554  0.3727 -0.1123
 1632ntf    sn212319   4.623   4.860   5.795 -0.3593  0.1580  0.0795
 1632ntf    cn112320   4.451   4.842   5.736 -0.2080  0.1215 -0.3558
 1632ntf    fn412321   4.637   4.639   5.504  0.0249 -0.2099 -0.2882
 1632ntf    fn412322   4.790   4.482   5.496 -0.2253  0.5035 -0.4297
 1632ntf    fn412323   4.633   4.470   5.627 -0.4361 -0.1115 -0.7695
 1632ntf    on512324   4.851   4.548   5.795  0.0291 -0.1094  0.4453
 1632ntf    on512325   4.894   4.738   5.648 -0.3337 -0.0366 -0.2925
 1632ntf    on512326   4.674   4.952   5.697 -0.2066  0.1561  0.1584
 1632ntf    on512327   4.599   4.891   5.934 -0.5017 -0.3612  0.1714
 1632ntf    fn412328   4.397   4.958   5.703 -0.5959  0.1949  0.5030
 1632ntf    fn412329   4.428   4.764   5.632  0.0960  0.1828 -0.4692
 1632ntf    fn412330   4.381   4.787   5.834  0.4654  0.2904  0.2304
 1633ntf    cn112331   2.076   4.003   1.877 -0.0913 -0.4665  0.5856
 1633ntf    sn212332   1.898   4.020   1.912 -0.0983  0.3990  0.1611
 1633ntf    nn312333   1.856   4.123   1.802 -0.5828  0.0929  0.0606
 1633ntf    sn212334   1.815   4.095   1.653 -0.1022 -0.2176 -0.0138
 1633ntf    cn112335   1.648   4.029   1.677 -0.2617  0.2069  0.0424
 1633ntf    fn412336   2.111   3.919   1.781 -0.0929  0.1288  0.0590
 1633ntf    fn412337   2.144   4.115   1.858  0.0016 -0.5740  0.2783
 1633ntf    fn412338   2.136   3.946   1.981 -0.2790 -0.7268  0.5504
 1633ntf    on512339   1.849   3.885   1.903 -0.1641  0.4591 -0.3957
 1633ntf    on512340   1.903   4.080   2.043 -0.1335  0.2374  0.2367
 1633ntf    on512341   1.888   3.984   1.595 -0.4900 -0.2134 -0.5213
 1633ntf    on512342   1.795   4.214   1.574 -0.4085  0.1144  0.5588
 1633ntf    fn412343   1.597   3.979   1.565  0.0121 -0.3560  0.1706
 1633ntf    fn412344   1.633   3.938   1.771  0.0489 -0.2468 -0.3417
 1633ntf    fn412345   1.558   4.119   1.715 -0.3551 -0.0247  0.3751
 1634ntf    cn112346   3.233   6.017   2.668  0.2575 -0.4307 -0.0242
 1634ntf    sn212347   3.166   5.849   2.685 -0.4057 -0.1632  0.0206
 1634ntf    nn312348   3.047   5.864   2.583 -0.3118 -0.1537 -0.0874
 1634ntf    sn212349   2.891   5.854   2.599 -0.3666  0.3640 -0.2616
 1634ntf    cn112350   2.876   5.674   2.575 -0.0920  0.3698 -0.4867
 1634ntf    fn412351   3.349   6.037   2.729  0.0048  0.5440  0.1454
 1634ntf    fn412352   3.261   6.060   2.546 -0.6749  0.4536  0.0665
 1634ntf    fn412353   3.159   6.110   2.726 -0.0836 -0.9287  0.3416
 1634ntf    on512354   3.275   5.771   2.632 -0.1944 -0.1567  0.4485
 1634ntf    on512355   3.129   5.830   2.823  0.1292 -0.0716  0.1787
 1634ntf    on512356   2.827   5.906   2.481 -0.5319 -0.5826 -0.6021
 1634ntf    on512357   2.831   5.890   2.725 -0.5481 -0.3617 -0.1325
 1634ntf    fn412358   2.757   5.624   2.603  0.1608  0.0185 -0.0286
 1634ntf    fn412359   2.906   5.646   2.449 -0.4494 -0.4467 -0.3936
 1634ntf    fn412360   2.952   5.602   2.656 -0.9148  0.2231  0.1691
 1635ntf    cn112361   4.160   6.694   5.375  0.1974 -0.5626 -0.1092
 1635ntf    sn212362   4.297   6.803   5.423 -0.2336  0.0144 -0.1802
 1635ntf    nn312363   4.229   6.888   5.536  0.0612  0.1452 -0.1013
 1635ntf    sn212364   4.234   6.874   5.693 -0.1846 -0.1174 -0.1174
 1635ntf    cn112365   4.388   6.967   5.715  0.0406 -0.5026 -0.0469
 1635ntf    fn412366   4.186   6.638   5.258  0.0734  0.3824 -0.6045
 1635ntf    fn412367   4.145   6.596   5.462  0.5410 -0.2550  0.3031
 1635ntf    fn412368   4.043   6.755   5.381  0.4617  0.0012 -0.5518
 1635ntf    on512369   4.398   6.710   5.466  0.0474  0.6447  0.5573
 1635ntf    on512370   4.321   6.875   5.300  0.2503 -0.1903 -0.2059
 1635ntf    on512371   4.260   6.738   5.732  0.2158  0.0250  0.1157
 1635ntf    on512372   4.145   6.954   5.774 -0.5865 -0.1584 -0.5089
 1635ntf    fn412373   4.437   6.959   5.837 -0.4053  0.4503  0.2096
 1635ntf    fn412374   4.483   6.920   5.636  0.0928 -0.3850 -0.0558
 1635ntf    fn412375   4.379   7.096   5.686  0.2415 -0.5096 -0.1429
 1636ntf    cn112376   1.180   3.920   5.055 -0.2936 -0.0194  0.1473
 1636ntf    sn212377   1.029   3.838   4.995 -0.1156 -0.2171 -0.0331
 1636ntf    nn312378   1.023   3.869   4.841  0.4297 -0.1660 -0.0468
 1636ntf    sn212379   0.972   4.010   4.795  0.0788 -0.1897  0.2630
 1636ntf    cn112380   1.065   4.030   4.640  0.1111  0.1022  0.3202
 1636ntf    fn412381   1.267   3.934   4.955  0.0632 -0.3330  0.4104
 1636ntf    fn412382   1.158   4.043   5.098 -0.3165  0.3377 -0.8455
 1636ntf    fn412383   1.231   3.852   5.156  0.6793  0.1287 -0.2263
 1636ntf    on512384   1.042   3.696   5.015  0.4413 -0.2063 -0.2753
 1636ntf    on512385   0.923   3.900   5.070  0.0212 -0.0415  0.0178
 1636ntf    on512386   1.023   4.124   4.867 -0.5973  0.0995  0.2870
 1636ntf    on512387   0.834   3.998   4.755  0.1036 -0.7150  0.3304
 1636ntf    fn412388   1.197   4.020   4.650  0.0742 -0.5807  0.1323
 1636ntf    fn412389   1.020   3.944   4.550  0.1844 -0.5277  0.8815
 1636ntf    fn412390   1.042   4.153   4.595  0.4879 -0.0117 -0.1984
 1637ntf    cn112391   5.860   0.753   5.229  0.1040 -0.4412 -0.4566
 1637ntf    sn212392   5.862   0.895   5.115  0.3060 -0.2378 -0.1997
 1637ntf    nn312393   5.934   0.819   4.998  0.3053 -0.4418 -0.0682
 1637ntf    sn212394   5.887   0.797   4.850 -0.1296  0.1487 -0.0220
 1637ntf    cn112395   5.780   0.652   4.874  0.0547 -0.0237 -0.2363
 1637ntf    fn412396   5.832   0.788   5.353  0.4932  0.0364 -0.5023
 1637ntf    fn412397   5.774   0.657   5.200  0.0635 -0.5077 -0.1203
 1637ntf    fn412398   5.975   0.688   5.234  0.5064  0.3383  0.7547
 1637ntf    on512399   5.725   0.938   5.099  0.5760  0.4588 -0.6328
 1637ntf    on512400   5.946   0.990   5.183  0.1804  0.0175 -0.4017
 1637ntf    on512401   6.000   0.756   4.770 -0.3259 -0.0582 -0.1974
 1637ntf    on512402   5.793   0.892   4.796 -0.0772  0.2235  0.0176
 1637ntf    fn412403   5.784   0.565   4.774 -0.1289 -0.6175  0.2632
 1637ntf    fn412404   5.812   0.580   4.980  0.2465  0.2277 -0.1234
 1637ntf    fn412405   5.653   0.686   4.886  0.1272  0.3243 -0.4414
 1638ntf    cn112406   2.329   5.967   6.493  0.1190 -0.3166  0.2039
 1638ntf    sn212407   2.511   5.974   6.495  0.1048  0.0328  0.3128
 1638ntf    nn312408   2.537   6.049   6.631 -0.1643 -0.1225  0.4525
 1638ntf    sn212409   2.593   6.195   6.649 -0.1778 -0.1006  0.3151
 1638ntf    cn112410   2.759   6.154   6.708 -0.0107  0.4692  0.2433
 1638ntf    fn412411   2.280   5.912   6.603 -0.2894 -0.3875 -0.0122
 1638ntf    fn412412   2.281   6.090   6.502  0.6991 -0.0451 -0.3785
 1638ntf    fn412413   2.267   5.909   6.392  0.2676  0.0047 -0.0714
 1638ntf    on512414   2.548   5.836   6.507 -0.8204 -0.1971  0.6133
 1638ntf    on512415   2.545   6.047   6.376 -0.2555  0.1546  0.2835
 1638ntf    on512416   2.539   6.268   6.761  0.0362  0.0066  0.3483
 1638ntf    on512417   2.611   6.270   6.527 -0.1550  0.0108  0.3869
 1638ntf    fn412418   2.829   6.262   6.742  0.6376 -0.0523  0.5854
 1638ntf    fn412419   2.769   6.066   6.805 -0.3487  0.1196 -0.0403
 1638ntf    fn412420   2.825   6.099   6.608 -0.3076 -0.0605  0.3382
 1639ntf    cn112421   1.578   0.743   1.727  0.1845 -0.0365  0.3081
 1639ntf    sn212422   1.412   0.688   1.676  0.3527 -0.0966 -0.1852
 1639ntf    nn312423   1.327   0.808   1.733  0.2760 -0.4381  0.4292
 1639ntf    sn212424   1.180   0.807   1.787  0.1733 -0.5225  0.1479
 1639ntf    cn112425   1.119   0.904   1.645 -0.0470 -0.3630  0.3505
 1639ntf    fn412426   1.608   0.852   1.659 -0.4115  0.3644  0.6716
 1639ntf    fn412427   1.580   0.791   1.850 -0.1103  0.1391  0.2472
 1639ntf    fn412428   1.678   0.658   1.712 -0.2445 -0.3961 -0.5785
 1639ntf    on512429   1.422   0.677   1.533  0.9159  0.3473 -0.1848
 1639ntf    on512430   1.388   0.568   1.753  0.0314  0.0065 -0.1225
 1639ntf    on512431   1.155   0.897   1.897 -0.1978  0.3762 -0.6507
 1639ntf    on512432   1.105   0.684   1.778 -0.4555 -0.1512  0.1785
 1639ntf    fn412433   1.171   1.025   1.630 -1.2021  0.1035  0.0014
 1639ntf    fn412434   1.144   0.854   1.526 -0.3841  0.1934  0.0412
 1639ntf    fn412435   0.989   0.928   1.647  0.0682  0.2895  0.2611
 1640ntf    cn112436   4.964   6.388   6.693 -0.1038 -0.3265 -0.1399
 1640ntf    sn212437   4.940   6.558   6.752 -0.3573 -0.4552  0.1369
 1640ntf    nn312438   4.799   6.583   6.688 -0.2152 -0.0542 -0.0231
 1640ntf    sn212439   4.661   6.586   6.762 -0.1507  0.1169  0.0926
 1640ntf    cn112440   4.572   6.588   6.604 -0.0484 -0.2888  0.0274
 1640ntf    fn412441   5.084   6.352   6.651  0.4934  0.1655  1.0800
 1640ntf    fn412442   4.908   6.294   6.768 -0.1646  0.0361  0.2764
 1640ntf    fn412443   4.876   6.379   6.595 -0.4524  0.0845  0.1297
 1640ntf    on512444   4.953   6.540   6.895  0.6471  0.4249  0.1733
 1640ntf    on512445   5.046   6.629   6.684 -0.0238 -1.1523 -0.0716
 1640ntf    on512446   4.614   6.708   6.822  0.4410 -0.0111  0.8352
 1640ntf    on512447   4.627   6.455   6.812 -0.1188 -0.2966 -0.9445
 1640ntf    fn412448   4.451   6.535   6.604 -0.4752  0.6536  0.4133
 1640ntf    fn412449   4.556   6.713   6.563  0.8039 -0.2746 -0.2882
 1640ntf    fn412450   4.637   6.519   6.512 -0.0291 -0.1370 -0.0740
 1641ntf    cn112451   2.514   2.109   5.157  0.1834  0.4245  0.1477
 1641ntf    sn212452   2.632   1.998   5.240  0.0368  0.0454 -0.1451
 1641ntf    nn312453   2.529   1.955   5.350  0.3475 -0.0451  0.1142
 1641ntf    sn212454   2.508   2.011   5.495 -0.3963  0.0344 -0.0207
 1641ntf    cn112455   2.666   1.958   5.566 -0.3392 -0.0455 -0.2070
 1641ntf    fn412456   2.399   2.050   5.129  0.1709  0.6733 -0.3259
 1641ntf    fn412457   2.484   2.215   5.231 -0.5444  0.0210  0.4435
 1641ntf    fn412458   2.561   2.149   5.040  0.7655  0.1987  0.2981
 1641ntf    on512459   2.659   1.897   5.141 -0.2136 -0.3861  0.2220
 1641ntf    on512460   2.747   2.076   5.280 -0.2849  0.2349  0.4268
 1641ntf    on512461   2.404   1.944   5.569 -0.0395 -0.4386  0.0542
 1641ntf    on512462   2.524   2.155   5.496  0.5492 -0.0662 -0.0699
 1641ntf    fn412463   2.655   1.865   5.659 -0.5866  0.4374  0.2523
 1641ntf    fn412464   2.753   1.897   5.487 -0.0969  0.0893 -0.0466
 1641ntf    fn412465   2.721   2.061   5.628  0.1566 -0.2122 -0.3626
 1642ntf    cn112466   2.406   3.524   6.601 -0.3120 -0.4801 -0.0746
 1642ntf    sn212467   2.530   3.488   6.473 -0.1825  0.1777 -0.1369
 1642ntf    nn312468   2.571   3.345   6.525  0.2027  0.3883  0.1439
 1642ntf    sn212469   2.698   3.302   6.606  0.1212 -0.3333 -0.1098
 1642ntf    cn112470   2.627   3.224   6.754  0.5475 -0.4344  0.0431
 1642ntf    fn412471   2.450   3.488   6.720 -0.2051 -0.0657  0.0126
 1642ntf    fn412472   2.373   3.650   6.621  0.4138 -0.2627 -0.2042
 1642ntf    fn412473   2.296   3.452   6.587 -0.5770 -0.1350  0.2142
 1642ntf    on512474   2.444   3.473   6.358 -0.4745 -0.8237  0.2055
 1642ntf    on512475   2.626   3.595   6.470 -0.1035  0.1382  0.8379
 1642ntf    on512476   2.769   3.410   6.669 -0.3287 -0.4658  0.6367
 1642ntf    on512477   2.770   3.192   6.547 -0.3658 -0.3889 -0.6183
 1642ntf    fn412478   2.554   3.298   6.835 -0.1410  0.0052 -0.9595
 1642ntf    fn412479   2.547   3.124   6.720 -0.2209 -0.0415  0.6664
 1642ntf    fn412480   2.723   3.174   6.830  0.4435 -0.6829  0.0134
 1643ntf    cn112481   1.425   4.446   4.621 -0.0224  0.3146 -0.0460
 1643ntf    sn212482   1.551   4.328   4.565 -0.1874  0.2336 -0.2506
 1643ntf    nn312483   1.683   4.414   4.566  0.1245 -0.2398  0.5507
 1643ntf    sn212484   1.769   4.463   4.688  0.4792  0.4184  0.0448
 1643ntf    cn112485   1.926   4.496   4.602  0.3260 -0.3107 -0.5291
 1643ntf    fn412486   1.435   4.488   4.746  0.6219  0.9487 -0.3042
 1643ntf    fn412487   1.412   4.549   4.538  0.1720 -0.2423 -0.7786
 1643ntf    fn412488   1.304   4.393   4.623  0.1011  0.0457  0.2898
 1643ntf    on512489   1.547   4.232   4.672 -0.0292  0.4184 -0.0773
 1643ntf    on512490   1.514   4.287   4.432  0.0271 -0.5626 -0.0688
 1643ntf    on512491   1.811   4.374   4.793 -0.3042 -0.1379 -0.0984
 1643ntf    on512492   1.733   4.597   4.727  0.3027  0.5918 -0.6960
 1643ntf    fn412493   1.918   4.594   4.514  0.0698  0.0717 -0.0816
 1643ntf    fn412494   2.027   4.520   4.685 -0.1696  0.0928 -0.0350
 1643ntf    fn412495   1.957   4.388   4.532  0.0579 -0.1732 -0.8611
 1644ntf    cn112496   4.931   2.121   6.274 -0.2913 -0.1518  0.1591
 1644ntf    sn212497   5.095   2.186   6.318 -0.2177 -0.2656  0.0509
 1644ntf    nn312498   5.065   2.339   6.328  0.4646 -0.1451  0.3588
 1644ntf    sn212499   5.015   2.419   6.454  0.1853 -0.0932  0.2158
 1644ntf    cn112500   5.169   2.481   6.528  0.1213  0.1316  0.1611
 1644ntf    fn412501   4.842   2.124   6.372 -0.1298  0.0670  0.2990
 1644ntf    fn412502   4.874   2.182   6.172  0.0978 -0.0854 -0.0201
 1644ntf    fn412503   4.936   1.994   6.237  0.3963 -0.0055 -0.2753
 1644ntf    on512504   5.125   2.119   6.443 -0.5570 -0.1214  0.2096
 1644ntf    on512505   5.174   2.149   6.203  0.1413 -0.2767  0.2970
 1644ntf    on512506   4.952   2.346   6.561 -0.6624 -0.3326 -0.4267
 1644ntf    on512507   4.949   2.539   6.409  0.4136 -0.3953 -0.9709
 1644ntf    fn412508   5.156   2.518   6.655 -0.0429  0.5281  0.0328
 1644ntf    fn412509   5.253   2.380   6.533  0.0527  0.0624 -0.0596
 1644ntf    fn412510   5.228   2.578   6.460  0.1645 -0.2036 -0.2818
 1645ntf    cn112511   2.162   4.548   5.434  0.2567  0.6188  0.3406
 1645ntf    sn212512   2.341   4.518   5.445  0.1921  0.1139  0.0687
 1645ntf    nn312513   2.404   4.535   5.302  0.4138 -0.3875  0.1062
 1645ntf    sn212514   2.394   4.457   5.166  0.0386 -0.4479  0.1665
 1645ntf    cn112515   2.254   4.543   5.088  0.3031  0.0404  0.2211
 1645ntf    fn412516   2.098   4.537   5.549 -0.3842  0.7298 -0.0007
 1645ntf    fn412517   2.125   4.666   5.387 -0.3878  0.4351  0.3707
 1645ntf    fn412518   2.104   4.456   5.359  0.8417 -0.2220  0.9066
 1645ntf    on512519   2.379   4.624   5.536  0.2759  0.2639 -0.1382
 1645ntf    on512520   2.344   4.383   5.495 -0.4556 -0.0550 -0.3324
 1645ntf    on512521   2.346   4.322   5.158 -0.2007 -0.3406 -0.2084
 1645ntf    on512522   2.511   4.475   5.085 -0.0270 -0.4559  0.0709
 1645ntf    fn412523   2.252   4.674   5.103 -0.6593  0.0460  0.0810
 1645ntf    fn412524   2.251   4.529   4.956 -0.4790  0.4264  0.1891
 1645ntf    fn412525   2.138   4.490   5.123  0.0079  0.4202 -0.1615
 1646ntf    cn112526   1.919   4.826   2.035  0.4075 -0.3091  0.3655
 1646ntf    sn212527   2.008   4.913   1.902 -0.5056 -0.1962 -0.1774
 1646ntf    nn312528   2.105   5.002   1.987 -0.0609 -0.3251 -0.5440
 1646ntf    sn212529   2.177   5.134   1.944  0.1184 -0.1815  0.1733
 1646ntf    cn112530   2.352   5.086   1.944  0.1392 -0.1210 -0.3826
 1646ntf    fn412531   1.997   4.800   2.139  0.3928  0.3078  0.5389
 1646ntf    fn412532   1.822   4.894   2.094  0.3420  0.0472 -0.1494
 1646ntf    fn412533   1.868   4.715   1.986 -0.8923 -0.0167  1.0151
 1646ntf    on512534   2.073   4.810   1.825  0.3709 -0.0937  0.4206
 1646ntf    on512535   1.904   4.988   1.836 -0.3114  0.4131  0.2076
 1646ntf    on512536   2.161   5.231   2.049  0.3654 -0.4289  0.4405
 1646ntf    on512537   2.167   5.180   1.807  0.3284 -0.7483 -0.0370
 1646ntf    fn412538   2.382   4.981   1.870  0.5929  0.0592 -0.4580
 1646ntf    fn412539   2.436   5.180   1.905 -0.1512 -0.1264 -1.0281
 1646ntf    fn412540   2.395   5.060   2.067  0.4328 -0.0946 -0.4790
 1647ntf    cn112541   2.757   2.097   3.738 -0.1814  0.2380 -0.1676
 1647ntf    sn212542   2.685   2.257   3.691 -0.4131  0.1817 -0.0030
 1647ntf    nn312543   2.696   2.236   3.536  0.0149  0.5575 -0.0243
 1647ntf    sn212544   2.593   2.197   3.424  0.4236 -0.0025 -0.2151
 1647ntf    cn112545   2.566   2.018   3.439 -0.3410  0.1304  0.0841
 1647ntf    fn412546   2.721   2.060   3.859 -0.1603 -0.0551 -0.2497
 1647ntf    fn412547   2.718   1.994   3.664 -0.2244  0.1033  0.0424
 1647ntf    fn412548   2.888   2.107   3.725 -0.1611  0.2554  0.0556
 1647ntf    on512549   2.554   2.264   3.751 -0.2292  0.3222  0.3797
 1647ntf    on512550   2.790   2.341   3.742 -0.1089 -0.0957 -0.1727
 1647ntf    on512551   2.662   2.213   3.299  0.0010  0.3442 -0.4065
 1647ntf    on512552   2.462   2.257   3.437  0.3675 -0.2569  0.4644
 1647ntf    fn412553   2.678   1.954   3.469 -0.1901  0.3548 -0.0020
 1647ntf    fn412554   2.494   1.980   3.543  0.3455 -0.3011  0.4148
 1647ntf    fn412555   2.514   1.966   3.329  0.0974 -0.1464  0.0025
 1648ntf    cn112556   4.957   0.465   4.672  0.3135 -0.1555 -0.3337
 1648ntf    sn212557   5.098   0.391   4.585  0.4482 -0.2142 -0.0666
 1648ntf    nn312558   5.068   0.450   4.443  0.7725 -0.8372 -0.3990
 1648ntf    sn212559   4.990   0.386   4.322 -0.1723  0.2434 -0.3800
 1648ntf    cn112560   4.930   0.532   4.231 -0.0477  0.4201 -0.1814
 1648ntf    fn412561   4.836   0.459   4.618  0.2352 -0.9537 -0.0840
 1648ntf    fn412562   4.939   0.408   4.790 -0.1430 -0.4212 -0.5289
 1648ntf    fn412563   4.977   0.595   4.692  0.0970 -0.1433 -0.1929
 1648ntf    on512564   5.222   0.441   4.637  0.6625 -0.1159 -0.6701
 1648ntf    on512565   5.071   0.250   4.600 -0.1114 -0.1157 -0.1271
 1648ntf    on512566   4.878   0.303   4.357  0.0034  0.0231 -0.3421
 1648ntf    on512567   5.069   0.329   4.216 -0.3312 -0.6339 -0.0294
 1648ntf    fn412568   4.877   0.625   4.308 -0.3955 -0.1658  0.2913
 1648ntf    fn412569   5.021   0.602   4.166 -0.1657  0.3083 -0.4713
 1648ntf    fn412570   4.847   0.506   4.131  0.3902 -0.4699 -0.3286
 1649ntf    cn112571   2.306   4.268   4.105 -0.0029  0.1707 -0.2288
 1649ntf    sn212572   2.468   4.244   4.025 -0.2086 -0.4467 -0.4633
 1649ntf    nn312573   2.542   4.226   4.163 -0.0358  0.8132 -0.3799
 1649ntf    sn212574   2.642   4.323   4.235  0.2057  0.2035  0.1172
 1649ntf    cn112575   2.555   4.335   4.394  0.1637  0.2359  0.0914
 1649ntf    fn412576   2.208   4.277   4.018 -0.0769  0.2564 -0.1375
 1649ntf    fn412577   2.284   4.173   4.195  0.3285  0.2430 -0.0671
 1649ntf    fn412578   2.302   4.376   4.181 -0.3425 -0.1028  0.1484
 1649ntf    on512579   2.450   4.124   3.946 -0.1354 -0.5990 -0.2514
 1649ntf    on512580   2.494   4.367   3.955 -0.6047 -0.1550 -0.1022
 1649ntf    on512581   2.649   4.463   4.199  0.3490  0.1924  0.1004
 1649ntf    on512582   2.768   4.260   4.263  0.3685  0.3911 -0.1849
 1649ntf    fn412583   2.432   4.384   4.387  0.1691  0.2226 -0.1049
 1649ntf    fn412584   2.546   4.218   4.456 -0.1973 -0.0198 -0.4276
 1649ntf    fn412585   2.612   4.421   4.476  0.2506 -0.0959  0.3806
 1650ntf    cn112586   1.005   1.825   4.924 -0.3463 -0.1566 -0.3882
 1650ntf    sn212587   0.851   1.915   4.955 -0.0424  0.2658 -0.1005
 1650ntf    nn312588   0.751   1.813   5.020 -0.2481  0.5555  0.0413
 1650ntf    sn212589   0.596   1.808   4.998 -0.2876 -0.0029  0.4252
 1650ntf    cn112590   0.587   1.653   4.905  0.2459  0.1427  0.1294
 1650ntf    fn412591   0.994   1.719   4.844  0.3839 -0.4401 -0.1235
 1650ntf    fn412592   1.091   1.908   4.868 -0.1005  0.0666  0.3088
 1650ntf    fn412593   1.066   1.779   5.032 -0.1870  0.6402 -0.1357
 1650ntf    on512594   0.905   2.018   5.041  0.3646  0.0735 -0.1240
 1650ntf    on512595   0.803   1.956   4.825  0.0708  0.4343 -0.0890
 1650ntf    on512596   0.534   1.905   4.911  0.2486  0.6592  0.7777
 1650ntf    on512597   0.528   1.783   5.123 -0.3717 -0.3043  0.3184
 1650ntf    fn412598   0.692   1.647   4.825  0.2156  0.0477  0.0959
 1650ntf    fn412599   0.597   1.552   4.991  0.4018  0.1747  0.1492
 1650ntf    fn412600   0.478   1.634   4.833  0.0538  0.1867  0.4078
 1651ntf    cn112601   6.749   2.718   0.526  0.4809  0.5803 -0.1490
 1651ntf    sn212602   6.645   2.846   0.450  0.1971  0.1802 -0.4404
 1651ntf    nn312603   6.638   2.786   0.306 -0.0558  0.3798 -0.5121
 1651ntf    sn212604   6.523   2.710   0.230 -0.2530  0.1203  0.0431
 1651ntf    cn112605   6.627   2.618   0.112 -0.0852  0.3105  0.0425
 1651ntf    fn412606   6.868   2.709   0.467  0.5723 -0.2782  0.1446
 1651ntf    fn412607   6.776   2.734   0.654  0.0354 -0.8378  0.1420
 1651ntf    fn412608   6.682   2.604   0.514  0.1326  0.7737 -0.0368
 1651ntf    on512609   6.522   2.846   0.526  0.4184 -0.5027 -0.0677
 1651ntf    on512610   6.728   2.963   0.460  0.2240  0.1210  0.1114
 1651ntf    on512611   6.454   2.807   0.149 -0.0984 -0.0346 -0.2750
 1651ntf    on512612   6.450   2.607   0.300  0.5492 -0.3817  0.1580
 1651ntf    fn412613   6.680   2.513   0.172 -0.1748  0.0032 -0.4129
 1651ntf    fn412614   6.559   2.582   0.004  0.0398 -0.4167  0.2049
 1651ntf    fn412615   6.734   2.686   0.072  0.1285  0.1075  0.2745
 1652ntf    cn112616   3.985   3.114   2.227 -0.1895 -0.1250 -0.3242
 1652ntf    sn212617   4.012   2.977   2.110  0.1907 -0.2126 -0.1317
 1652ntf    nn312618   4.085   3.042   1.987  0.2101  0.4595  0.2292
 1652ntf    sn212619   4.221   3.121   1.997  0.4638  0.0557 -0.0243
 1652ntf    cn112620   4.271   3.057   1.834  0.0531 -0.0498 -0.1109
 1652ntf    fn412621   3.901   3.080   2.323 -0.0233 -0.0858 -0.1654
 1652ntf    fn412622   4.103   3.149   2.274 -0.4216 -0.0294  0.1962
 1652ntf    fn412623   3.938   3.222   2.166 -0.0298  0.2277  0.1719
 1652ntf    on512624   4.092   2.893   2.197 -0.4637 -0.7023 -0.0003
 1652ntf    on512625   3.882   2.928   2.075  0.2466 -0.2194 -0.3324
 1652ntf    on512626   4.323   3.066   2.083 -0.2764 -0.7850  0.3295
 1652ntf    on512627   4.209   3.263   1.976 -0.2318  0.0042 -0.0080
 1652ntf    fn412628   4.376   3.117   1.780  0.0690 -0.1956 -0.2444
 1652ntf    fn412629   4.300   2.929   1.854  0.2189  0.0249  0.1376
 1652ntf    fn412630   4.169   3.062   1.750 -0.5628 -0.2877  0.6149
 1653ntf    cn112631   1.045   3.987   0.610  0.1193 -0.0656  0.4775
 1653ntf    sn212632   0.974   4.154   0.609 -0.0269 -0.1289 -0.3609
 1653ntf    nn312633   0.966   4.179   0.454 -0.2135  0.6097 -0.2360
 1653ntf    sn212634   1.018   4.302   0.371  0.3932  0.4827 -0.0491
 1653ntf    cn112635   0.967   4.441   0.477  0.4442  0.1376  0.4282
 1653ntf    fn412636   1.141   3.972   0.519  0.0120 -0.0540  0.3615
 1653ntf    fn412637   1.105   3.964   0.725  0.2943 -0.0574  0.3878
 1653ntf    fn412638   0.959   3.887   0.594 -0.2118  0.2026  0.5672
 1653ntf    on512639   0.843   4.138   0.667  0.1710  0.4968  0.2709
 1653ntf    on512640   1.057   4.240   0.689 -0.7729  0.4910 -0.2334
 1653ntf    on512641   0.959   4.320   0.240  0.0877  0.5272  0.0930
 1653ntf    on512642   1.161   4.314   0.377  0.4626 -0.5228  0.5880
 1653ntf    fn412643   0.873   4.402   0.562 -0.2292 -0.5071 -0.6012
 1653ntf    fn412644   1.061   4.474   0.564  1.1444  0.0255 -0.2762
 1653ntf    fn412645   0.927   4.546   0.408 -0.2092 -0.1377  0.3854
 1654ntf    cn112646   4.608   5.495   1.347 -0.3897  0.1903 -0.1279
 1654ntf    sn212647   4.641   5.473   1.524  0.0835  0.0761 -0.2296
 1654ntf    nn312648   4.676   5.625   1.546 -0.0065  0.0959 -0.2233
 1654ntf    sn212649   4.630   5.733   1.650  0.0884  0.3364 -0.4324
 1654ntf    cn112650   4.772   5.717   1.761  0.1679 -0.3855 -0.6310
 1654ntf    fn412651   4.707   5.546   1.276 -0.0862  0.2562  0.3384
 1654ntf    fn412652   4.576   5.379   1.292 -0.3601 -0.0073  0.2662
 1654ntf    fn412653   4.504   5.576   1.335 -0.6663 -0.0277  0.7360
 1654ntf    on512654   4.526   5.418   1.590  0.4261  0.0880  0.3899
 1654ntf    on512655   4.761   5.393   1.529  0.0973  0.1172  0.1598
 1654ntf    on512656   4.518   5.698   1.734  0.4898 -0.2661 -0.1459
 1654ntf    on512657   4.641   5.869   1.603 -0.1391  0.5773  0.1974
 1654ntf    fn412658   4.759   5.800   1.864  0.2254 -0.0655 -0.8806
 1654ntf    fn412659   4.793   5.592   1.797  0.4089 -0.1718 -0.0037
 1654ntf    fn412660   4.889   5.744   1.705  0.1535  0.1394 -0.4123
 1655ntf    cn112661   4.742   4.883   1.337  0.1795  0.0465 -0.1396
 1655ntf    sn212662   4.792   4.976   1.189  0.1100  0.1045 -0.1263
 1655ntf    nn312663   4.757   4.870   1.079  0.0086 -0.0027  0.0092
 1655ntf    sn212664   4.639   4.876   0.975 -0.0951 -0.1283  0.1187
 1655ntf    cn112665   4.707   4.991   0.852  0.1820 -0.4424 -0.0227
 1655ntf    fn412666   4.811   4.771   1.329  0.1396 -0.0134  0.2891
 1655ntf    fn412667   4.776   4.947   1.448 -0.1694 -0.4087  0.2352
 1655ntf    fn412668   4.613   4.853   1.347  0.0641  0.5184 -0.1682
 1655ntf    on512669   4.707   5.093   1.195 -0.1080 -0.0505 -0.1927
 1655ntf    on512670   4.934   4.997   1.201  0.2402 -0.4708 -0.5897
 1655ntf    on512671   4.515   4.932   1.024  0.1390  0.2714  0.2601
 1655ntf    on512672   4.630   4.752   0.903 -0.8974 -0.2425  0.4093
 1655ntf    fn412673   4.761   5.098   0.911  0.1772 -0.3002 -0.2751
 1655ntf    fn412674   4.800   4.932   0.779  0.3529 -0.1693 -0.0317
 1655ntf    fn412675   4.618   5.035   0.764 -0.0003  0.5333  0.6208
 1656ntf    cn112676   1.653   3.001   3.317  0.1906 -0.1121  0.1198
 1656ntf    sn212677   1.590   3.103   3.181  0.2019  0.1683  0.3226
 1656ntf    nn312678   1.582   2.991   3.071 -0.0253  0.7033 -0.2110
 1656ntf    sn212679   1.646   2.965   2.929  0.3196  0.1872  0.0357
 1656ntf    cn112680   1.740   2.812   2.957 -0.1628 -0.1307 -0.0595
 1656ntf    fn412681   1.757   2.926   3.284 -0.0104 -0.2003 -0.3195
 1656ntf    fn412682   1.696   3.082   3.413 -0.2688 -0.3052  0.4928
 1656ntf    fn412683   1.566   2.914   3.367 -0.0794  0.0090 -0.1366
 1656ntf    on512684   1.458   3.145   3.222  0.2742 -0.3360  1.0827
 1656ntf    on512685   1.694   3.201   3.165  0.5752 -0.2477  0.1691
 1656ntf    on512686   1.739   3.068   2.892  0.5251  0.1283  0.3813
 1656ntf    on512687   1.554   2.929   2.824 -0.3064  0.4535  0.4822
 1656ntf    fn412688   1.675   2.722   3.028  0.3754 -0.1914  0.3690
 1656ntf    fn412689   1.784   2.754   2.846  0.7169  0.2238  0.0902
 1656ntf    fn412690   1.848   2.841   3.028  0.0528 -0.2413 -0.3364
 1657ntf    cn112691   2.870   2.149   2.593 -0.5266 -0.2418  0.3638
 1657ntf    sn212692   2.961   2.005   2.658  0.0449 -0.0888 -0.0926
 1657ntf    nn312693   2.917   2.001   2.808 -0.5106  0.3612 -0.2389
 1657ntf    sn212694   3.002   2.023   2.938 -0.4336  0.0623 -0.2356
 1657ntf    cn112695   2.925   1.912   3.060  0.1733 -0.4477 -0.3138
 1657ntf    fn412696   2.900   2.169   2.466 -0.8875 -0.4949  0.2376
 1657ntf    fn412697   2.739   2.137   2.601 -0.5926  0.2355  0.0100
 1657ntf    fn412698   2.902   2.263   2.653 -0.8465  0.1796 -0.2573
 1657ntf    on512699   2.899   1.910   2.569  0.3048  0.0092 -0.3839
 1657ntf    on512700   3.094   2.050   2.622  0.0933 -0.4663 -0.3925
 1657ntf    on512701   2.987   2.157   2.990  0.2629 -0.1410  0.5157
 1657ntf    on512702   3.133   1.964   2.939 -0.2156  0.5418 -0.2276
 1657ntf    fn412703   2.875   1.798   3.015 -0.4107 -0.1099 -0.5351
 1657ntf    fn412704   3.003   1.896   3.165  0.5220  0.7758 -0.3689
 1657ntf    fn412705   2.816   1.970   3.108  0.6767 -0.0290  0.3284
 1658ntf    cn112706   6.792   0.024   1.381  0.2921  0.9363  0.1967
 1658ntf    sn212707   6.970  -0.005   1.355  0.1167 -0.0807  0.0900
 1658ntf    nn312708   7.012   0.061   1.491 -0.4626  0.3321  0.0717
 1658ntf    sn212709   7.065  -0.009   1.621 -0.5260  0.1453 -0.0023
 1658ntf    cn112710   7.181   0.115   1.686  0.0730 -0.1683 -0.4568
 1658ntf    fn412711   6.721  -0.027   1.281  0.4910  0.0870  0.4784
 1658ntf    fn412712   6.750  -0.034   1.492 -0.1245 -0.2260 -0.5496
 1658ntf    fn412713   6.758   0.152   1.386  0.1315  0.9512 -0.9579
 1658ntf    on512714   6.982  -0.148   1.341 -0.3443 -0.1058 -0.0722
 1658ntf    on512715   7.003   0.083   1.246  0.1439 -0.5565 -0.2858
 1658ntf    on512716   7.158  -0.116   1.595  0.0581  0.7259 -0.3639
 1658ntf    on512717   6.973  -0.026   1.731 -0.3546  0.8152  0.2496
 1658ntf    fn412718   7.248   0.062   1.788  0.1921 -0.1545 -0.5276
 1658ntf    fn412719   7.269   0.147   1.593  0.1233  0.3551 -0.2333
 1658ntf    fn412720   7.119   0.223   1.731 -0.0631 -0.3287 -0.2583
 1659ntf    cn112721   0.431   0.419   0.359  0.1946  0.2787 -0.2363
 1659ntf    sn212722   0.452   0.244   0.402  0.4708  0.4186  0.2080
 1659ntf    nn312723   0.485   0.243   0.555 -0.2957 -0.1941  0.3814
 1659ntf    sn212724   0.383   0.218   0.672 -0.1054 -0.2791  0.5297
 1659ntf    cn112725   0.389   0.036   0.669  0.3202 -0.2603 -0.1964
 1659ntf    fn412726   0.348   0.440   0.257  0.1319 -0.3881 -0.3308
 1659ntf    fn412727   0.377   0.485   0.460 -0.0709 -0.2800 -0.0058
 1659ntf    fn412728   0.548   0.477   0.339  0.5386 -0.2990  0.0669
 1659ntf    on512729   0.327   0.186   0.357  0.3621  0.5123  0.3867
 1659ntf    on512730   0.562   0.209   0.315  0.2728 -0.1302  0.1736
 1659ntf    on512731   0.244   0.253   0.661  0.0529  0.2910  0.3050
 1659ntf    on512732   0.442   0.250   0.800  0.0669  0.5615  0.2486
 1659ntf    fn412733   0.319  -0.007   0.773 -0.0317  0.7942  0.0233
 1659ntf    fn412734   0.341  -0.020   0.559 -0.2289 -0.1326 -0.0281
 1659ntf    fn412735   0.511  -0.012   0.681  0.3943 -0.1558 -0.5193
 1660ntf    cn112736   3.971   6.409   4.734 -0.2392 -0.1237  0.1764
 1660ntf    sn212737   3.864   6.536   4.661  0.1449  0.1622  0.1073
 1660ntf    nn312738   3.747   6.519   4.764 -0.2543  0.4172 -0.3043
 1660ntf    sn212739   3.593   6.502   4.734 -0.3073  0.0132  0.1874
 1660ntf    cn112740   3.580   6.678   4.692 -0.3084 -0.0524 -0.0892
 1660ntf    fn412741   3.909   6.300   4.777  0.1182 -0.2787  0.3076
 1660ntf    fn412742   4.065   6.368   4.651 -0.1354  0.3606  0.0539
 1660ntf    fn412743   4.037   6.456   4.839 -0.2298  0.8599 -0.2597
 1660ntf    on512744   3.933   6.663   4.665  0.4026  0.0531 -0.6928
 1660ntf    on512745   3.849   6.489   4.525 -0.1959 -0.5753  0.3970
 1660ntf    on512746   3.508   6.485   4.848 -0.2171 -0.3901  0.1963
 1660ntf    on512747   3.561   6.437   4.609 -0.1545  0.0848  0.1107
 1660ntf    fn412748   3.455   6.707   4.659 -0.4773 -0.4540  0.1966
 1660ntf    fn412749   3.614   6.756   4.794 -0.0081 -0.0397 -0.1981
 1660ntf    fn412750   3.650   6.704   4.583  0.3725  0.2779  0.4157
 1661ntf    cn112751   0.319   3.136   2.565  0.3574  0.0843  0.2903
 1661ntf    sn212752   0.270   3.065   2.724 -0.3380 -0.2403 -0.0646
 1661ntf    nn312753   0.364   3.148   2.819 -0.0040 -0.4369 -0.2235
 1661ntf    sn212754   0.496   3.109   2.894  0.0405  0.3490  0.1091
 1661ntf    cn112755   0.442   3.037   3.052  0.3897 -0.5487 -0.1760
 1661ntf    fn412756   0.451   3.137   2.560  0.3702 -0.1218  0.5676
 1661ntf    fn412757   0.285   3.054   2.467 -0.1056  0.4623  0.1292
 1661ntf    fn412758   0.278   3.261   2.544 -0.3014 -0.1553  0.1147
 1661ntf    on512759   0.130   3.093   2.747 -0.3460  0.1786 -0.6139
 1661ntf    on512760   0.311   2.927   2.734  0.6265  0.0975  0.9046
 1661ntf    on512761   0.565   3.229   2.937  0.2758  0.1807  0.2021
 1661ntf    on512762   0.579   3.004   2.843 -0.0486  0.2838  0.0992
 1661ntf    fn412763   0.327   2.975   3.029  0.1708 -0.2737  0.1545
 1661ntf    fn412764   0.536   2.958   3.102  0.1782 -0.4209  0.4341
 1661ntf    fn412765   0.408   3.131   3.139  0.2310 -0.5370 -0.2495
 1662ntf    cn112766   6.814   2.932   6.245  0.3484 -0.0799 -0.0147
 1662ntf    sn212767   6.709   2.901   6.390  0.3065  0.3650  0.0524
 1662ntf    nn312768   6.585   2.821   6.335  0.6121 -0.0211 -0.0786
 1662ntf    sn212769   6.558   2.668   6.312 -0.3049  0.1147  0.0822
 1662ntf    cn112770   6.445   2.647   6.453  0.0261  0.1220  0.3485
 1662ntf    fn412771   6.922   2.995   6.288  0.2075  0.5335 -0.5440
 1662ntf    fn412772   6.852   2.828   6.172  0.6189  0.2079 -0.2891
 1662ntf    fn412773   6.753   3.014   6.161  0.3450 -0.0377  0.0291
 1662ntf    on512774   6.792   2.823   6.478  0.2933 -0.0670 -0.3153
 1662ntf    on512775   6.676   3.035   6.432 -0.3719  0.3325 -0.3612
 1662ntf    on512776   6.668   2.576   6.326 -0.2026  0.0300 -1.1365
 1662ntf    on512777   6.477   2.635   6.197 -0.3746 -0.1194  0.1985
 1662ntf    fn412778   6.352   2.554   6.439  0.2986 -0.1651  0.4289
 1662ntf    fn412779   6.500   2.606   6.566 -0.6105  0.0469  0.6311
 1662ntf    fn412780   6.378   2.758   6.479  0.0684  0.1372  0.3932
 1663ntf    cn112781   4.995   1.172   6.615 -0.2758 -0.4480 -0.7023
 1663ntf    sn212782   4.865   1.288   6.568 -0.1093  0.0974  0.1591
 1663ntf    nn312783   4.762   1.184   6.510 -0.1557  0.2016  0.0519
 1663ntf    sn212784   4.606   1.190   6.523 -0.1651 -0.0601  0.0725
 1663ntf    cn112785   4.581   1.068   6.655  0.2375 -0.1320  0.0843
 1663ntf    fn412786   4.953   1.105   6.721  0.6736  0.2798  0.1547
 1663ntf    fn412787   5.026   1.077   6.528 -0.3334 -0.6872 -0.4635
 1663ntf    fn412788   5.113   1.226   6.640 -0.6267 -0.1012  0.2317
 1663ntf    on512789   4.853   1.353   6.696 -0.5003  0.2358  0.0571
 1663ntf    on512790   4.929   1.365   6.464 -0.3453  0.6667  0.4312
 1663ntf    on512791   4.546   1.127   6.408  0.1263  0.0868 -0.1627
 1663ntf    on512792   4.549   1.313   6.574  0.5746  0.0944  0.5446
 1663ntf    fn412793   4.455   1.026   6.660  0.3436 -0.4988 -0.3202
 1663ntf    fn412794   4.652   0.957   6.642 -0.9027 -0.8342 -0.3377
 1663ntf    fn412795   4.607   1.114   6.776  0.0874 -0.4287  0.2310
 1664ntf    cn112796   1.250   6.126   0.109  0.2081 -0.3807 -0.1760
 1664ntf    sn212797   1.337   6.146   0.267 -0.0206  0.1823 -0.1188
 1664ntf    nn312798   1.408   6.007   0.282 -0.3337  0.0125 -0.1854
 1664ntf    sn212799   1.362   5.878   0.357  0.1979 -0.0897 -0.0307
 1664ntf    cn112800   1.316   5.769   0.219  0.1526  0.6185 -0.5761
 1664ntf    fn412801   1.221   6.237   0.043 -0.1168 -0.0886  0.4465
 1664ntf    fn412802   1.329   6.059   0.027  0.8410  0.4045 -0.2192
 1664ntf    fn412803   1.137   6.058   0.118 -0.1579  0.2377 -0.0223
 1664ntf    on512804   1.424   6.254   0.229 -0.0558  0.4334  0.4919
 1664ntf    on512805   1.232   6.176   0.361 -0.2131  0.1334 -0.3168
 1664ntf    on512806   1.233   5.893   0.421  0.2874  0.6675 -0.0220
 1664ntf    on512807   1.468   5.806   0.425  0.3182 -0.0171 -0.1432
 1664ntf    fn412808   1.425   5.716   0.167 -0.1261 -0.5655  0.0207
 1664ntf    fn412809   1.238   5.671   0.261  0.5431  0.6451  0.2395
 1664ntf    fn412810   1.258   5.827   0.115  0.2073  0.7098 -0.5563
 1665ntf    cn112811   6.481   0.972   6.087  0.1528 -0.1776 -0.2422
 1665ntf    sn212812   6.612   1.062   6.174 -0.2781  0.2014  0.0155
 1665ntf    nn312813   6.527   1.136   6.284 -0.1024  0.0786  0.2333
 1665ntf    sn212814   6.443   1.268   6.268  0.0079  0.1194 -0.0182
 1665ntf    cn112815   6.579   1.389   6.268  0.0177  0.1087  0.0953
 1665ntf    fn412816   6.404   1.057   6.021  0.4214 -0.3142 -0.7451
 1665ntf    fn412817   6.542   0.902   5.993 -0.0505 -0.8515  0.1222
 1665ntf    fn412818   6.417   0.891   6.170  0.1750 -0.0366 -0.0891
 1665ntf    on512819   6.694   0.961   6.235 -0.1132  0.6691  0.5809
 1665ntf    on512820   6.669   1.148   6.073 -0.2261  0.0022 -0.1252
 1665ntf    on512821   6.371   1.302   6.388 -0.5447  0.2136 -0.3746
 1665ntf    on512822   6.381   1.294   6.141  0.0011  0.2031  0.0027
 1665ntf    fn412823   6.525   1.509   6.283  0.0074  0.2452 -0.9325
 1665ntf    fn412824   6.667   1.361   6.362  0.5193  0.6371 -0.2094
 1665ntf    fn412825   6.639   1.384   6.150  0.4338  0.6670  0.2830
 1666ntf    cn112826   3.468   2.193   1.469 -0.1253  0.0692 -0.3536
 1666ntf    sn212827   3.447   2.170   1.648 -0.0431  0.2046 -0.3264
 1666ntf    nn312828   3.294   2.192   1.674 -0.0149 -0.2094  0.2031
 1666ntf    sn212829   3.171   2.107   1.625 -0.1440  0.0046  0.1547
 1666ntf    cn112830   3.046   2.237   1.601 -0.1457 -0.0586 -0.1827
 1666ntf    fn412831   3.596   2.217   1.444 -0.1255 -0.1332 -0.5436
 1666ntf    fn412832   3.435   2.085   1.400  0.2382 -0.0999 -0.2645
 1666ntf    fn412833   3.397   2.294   1.421  0.1720  0.7455  0.5902
 1666ntf    on512834   3.493   2.037   1.677  0.1673  0.2770 -0.3254
 1666ntf    on512835   3.533   2.269   1.709  0.2811 -0.0848 -0.3099
 1666ntf    on512836   3.112   2.016   1.720  0.3383  0.0956  0.5418
 1666ntf    on512837   3.182   2.066   1.487  0.0607 -0.4685  0.3103
 1666ntf    fn412838   2.926   2.188   1.574 -0.2815  0.2183 -0.0781
 1666ntf    fn412839   3.031   2.311   1.709  0.6512 -0.8483  0.4850
 1666ntf    fn412840   3.069   2.320   1.501 -0.1602 -0.2948 -0.3845
 1667ntf    cn112841   2.921   1.374   5.129  0.0644  0.3197  0.1636
 1667ntf    sn212842   2.973   1.294   5.283  0.0767  0.1563  0.0746
 1667ntf    nn312843   2.843   1.306   5.370  0.0204 -0.1145  0.0290
 1667ntf    sn212844   2.725   1.208   5.405  0.0589 -0.0102  0.4642
 1667ntf    cn112845   2.717   1.246   5.582  0.3191  0.1324  0.4452
 1667ntf    fn412846   2.864   1.493   5.138 -0.5587  0.0048  0.4613
 1667ntf    fn412847   3.019   1.389   5.041  0.1805 -0.4288  0.1602
 1667ntf    fn412848   2.826   1.305   5.067  0.4580 -0.0351 -0.0509
 1667ntf    on512849   3.003   1.157   5.247  0.0479  0.4740 -1.1751
 1667ntf    on512850   3.083   1.376   5.326  0.5925 -0.7183  0.4632
 1667ntf    on512851   2.753   1.067   5.394 -0.3325 -0.0153 -0.7185
 1667ntf    on512852   2.597   1.258   5.361  0.2098  0.0047  0.0300
 1667ntf    fn412853   2.766   1.152   5.661  0.3530 -0.3306 -0.1239
 1667ntf    fn412854   2.786   1.358   5.598  0.4109  0.1423 -0.0151
 1667ntf    fn412855   2.597   1.283   5.624 -0.2512 -0.1639 -0.8930
 1668ntf    cn112856   2.867   2.600   1.910  0.1996  0.2134  0.5156
 1668ntf    sn212857   2.924   2.770   1.940  0.0923  0.3449 -0.0142
 1668ntf    nn312858   2.789   2.842   1.975 -0.1370  0.0146 -0.2247
 1668ntf    sn212859   2.772   2.993   2.012  0.0471 -0.0647  0.1849
 1668ntf    cn112860   2.642   2.984   2.140  0.0229  0.3592  0.1905
 1668ntf    fn412861   2.798   2.558   2.015 -0.3853 -0.6020 -0.1884
 1668ntf    fn412862   2.785   2.591   1.807  0.2830 -0.3251  0.4923
 1668ntf    fn412863   2.971   2.522   1.888 -0.6322 -0.7012 -0.2780
 1668ntf    on512864   3.014   2.763   2.053 -0.0006 -0.0551  0.0355
 1668ntf    on512865   2.992   2.808   1.819 -0.1239  0.2742 -0.1566
 1668ntf    on512866   2.706   3.077   1.915  0.4165 -0.3841 -0.3466
 1668ntf    on512867   2.881   3.051   2.087  0.0188 -0.4024  0.4880
 1668ntf    fn412868   2.527   2.951   2.083  0.0165  0.5191  0.1089
 1668ntf    fn412869   2.657   2.893   2.235 -0.4076  0.6029  0.4922
 1668ntf    fn412870   2.627   3.101   2.201 -0.6571  0.0569  0.6066
 1669ntf    cn112871   4.038   5.255   0.197 -0.1786 -0.0186  0.4466
 1669ntf    sn212872   4.074   5.241   0.374  0.1140  0.0314  0.3920
 1669ntf    nn312873   3.980   5.123   0.418  0.0113 -0.2259 -0.4950
 1669ntf    sn212874   3.835   5.136   0.477  0.1442  0.1122 -0.2394
 1669ntf    cn112875   3.772   4.968   0.446 -0.3938  0.2657  0.0109
 1669ntf    fn412876   3.915   5.290   0.165 -0.3168 -0.3595  0.5967
 1669ntf    fn412877   4.122   5.339   0.138 -0.1672 -0.2337  0.1474
 1669ntf    fn412878   4.064   5.139   0.137  0.1239  0.4961 -0.4379
 1669ntf    on512879   4.215   5.210   0.375  0.0667 -0.2680 -0.8814
 1669ntf    on512880   4.042   5.371   0.428  0.0125  0.3104 -0.3290
 1669ntf    on512881   3.750   5.229   0.406  0.2722  0.1930 -0.2889
 1669ntf    on512882   3.824   5.132   0.621  0.1221 -0.3186 -0.2521
 1669ntf    fn412883   3.857   4.871   0.475  0.0835  0.6994  0.0970
 1669ntf    fn412884   3.668   4.938   0.521  0.1506 -0.1166  0.6242
 1669ntf    fn412885   3.742   4.943   0.320  0.4420  0.2368 -0.1908
 1670ntf    cn112886   5.510   4.505   5.180  0.1870 -0.2002  0.0638
 1670ntf    sn212887   5.673   4.470   5.254  0.1671 -0.1516  0.1317
 1670ntf    nn312888   5.676   4.315   5.232 -0.4064 -0.1450 -0.0159
 1670ntf    sn212889   5.752   4.231   5.124  0.1722 -0.0152  0.2851
 1670ntf    cn112890   5.882   4.163   5.231  0.3270 -0.2480 -0.0462
 1670ntf    fn412891   5.497   4.474   5.052 -0.4311  0.2958  0.0060
 1670ntf    fn412892   5.421   4.423   5.234 -0.0092 -0.5354 -0.7507
 1670ntf    fn412893   5.454   4.622   5.202  0.4595 -0.1362  0.4371
 1670ntf    on512894   5.754   4.545   5.160  0.1160 -0.0837  0.1423
 1670ntf    on512895   5.661   4.516   5.390  0.4587  0.2189  0.0322
 1670ntf    on512896   5.824   4.304   5.022 -0.2254 -0.1452 -0.0940
 1670ntf    on512897   5.678   4.114   5.082  0.1676  0.1165 -0.0832
 1670ntf    fn412898   5.963   4.075   5.174  0.4565 -0.3018  0.2158
 1670ntf    fn412899   5.960   4.247   5.298 -0.4214  0.3690  0.0663
 1670ntf    fn412900   5.833   4.088   5.328  0.2677  0.2649  0.3243
 1671ntf    cn112901   2.238   2.236   1.223 -0.2958 -0.3172  0.1552
 1671ntf    sn212902   2.356   2.373   1.209 -0.3626 -0.3097 -0.3794
 1671ntf    nn312903   2.265   2.499   1.186  0.2031  0.2069  0.1539
 1671ntf    sn212904   2.216   2.562   1.051 -0.1604 -0.3466  0.0257
 1671ntf    cn112905   2.270   2.729   1.097 -0.2504 -0.3324  0.0820
 1671ntf    fn412906   2.144   2.263   1.312 -0.4470  0.1632 -0.1478
 1671ntf    fn412907   2.173   2.208   1.111 -0.1702  0.2925 -0.0706
 1671ntf    fn412908   2.302   2.125   1.259  0.1105 -0.4687 -0.9665
 1671ntf    on512909   2.420   2.373   1.339 -0.2822 -0.0179 -0.4187
 1671ntf    on512910   2.443   2.335   1.101  0.2367 -0.4098  0.1274
 1671ntf    on512911   2.072   2.565   1.040 -0.1794 -0.5944  0.1906
 1671ntf    on512912   2.288   2.532   0.930 -0.7317 -0.3161 -0.3249
 1671ntf    fn412913   2.198   2.778   1.196 -0.0134  0.0952  0.0456
 1671ntf    fn412914   2.399   2.739   1.128 -0.2423 -0.0859 -0.0289
 1671ntf    fn412915   2.251   2.815   0.999 -0.2602 -0.5805 -0.1355
 1672ntf    cn112916   5.768   3.328   6.360 -0.0191 -0.5733 -0.1806
 1672ntf    sn212917   5.890   3.457   6.322 -0.2587 -0.2588  0.1190
 1672ntf    nn312918   5.901   3.430   6.168  0.0939 -0.7903  0.2352
 1672ntf    sn212919   6.019   3.459   6.068 -0.0572  0.0252  0.2845
 1672ntf    cn112920   5.930   3.437   5.911 -0.0051  0.3615  0.2081
 1672ntf    fn412921   5.731   3.334   6.487 -0.0926  0.0248 -0.2295
 1672ntf    fn412922   5.654   3.327   6.292  0.0368  0.3599 -0.2981
 1672ntf    fn412923   5.829   3.210   6.353  0.3249 -0.3895 -0.2686
 1672ntf    on512924   5.813   3.575   6.355  0.1314  0.0799 -0.1757
 1672ntf    on512925   6.005   3.415   6.399 -0.2124 -0.6115 -0.1402
 1672ntf    on512926   6.114   3.351   6.066 -0.4699 -0.3401  0.1436
 1672ntf    on512927   6.067   3.594   6.053 -0.7681  0.2158 -0.3312
 1672ntf    fn412928   5.855   3.329   5.897  0.4915  0.0719 -0.2378
 1672ntf    fn412929   5.850   3.542   5.900  0.3081  0.5751 -0.0583
 1672ntf    fn412930   6.006   3.439   5.803 -0.3538 -0.0109 -0.0461
 1673ntf    cn112931   6.554   0.691   0.875  0.1977  0.0454  0.5339
 1673ntf    sn212932   6.493   0.630   1.034 -0.1425 -0.1221  0.3400
 1673ntf    nn312933   6.383   0.523   0.999  0.1965 -0.3476 -0.0476
 1673ntf    sn212934   6.235   0.544   0.950  0.2119 -0.3235 -0.0841
 1673ntf    cn112935   6.157   0.541   1.115  0.0234  0.1449 -0.1631
 1673ntf    fn412936   6.464   0.761   0.807  0.4520 -0.0408  0.1003
 1673ntf    fn412937   6.658   0.771   0.891  0.1738  0.3109 -0.5195
 1673ntf    fn412938   6.597   0.608   0.782 -0.5633  0.3356 -0.0975
 1673ntf    on512939   6.614   0.571   1.085 -0.0845  0.0787  0.4367
 1673ntf    on512940   6.447   0.750   1.098  0.0109 -0.2151  0.6290
 1673ntf    on512941   6.179   0.431   0.879  0.2527 -0.0401 -0.5704
 1673ntf    on512942   6.200   0.675   0.901  0.3145 -0.2512  0.0367
 1673ntf    fn412943   6.141   0.661   1.167  0.5709  0.1772 -0.0696
 1673ntf    fn412944   6.035   0.493   1.097 -0.0661  0.3102  0.0015
 1673ntf    fn412945   6.229   0.468   1.198 -0.6442 -0.0571  0.2445
 1674ntf    cn112946   6.851   4.382   2.007  0.2413  0.4002  0.7068
 1674ntf    sn212947   7.008   4.320   1.938 -0.1470 -0.0977  0.2709
 1674ntf    nn312948   7.069   4.262   2.070 -0.3303  0.1996  0.4873
 1674ntf    sn212949   7.215   4.220   2.108 -0.2566  0.3064  0.3250
 1674ntf    cn112950   7.191   4.039   2.103  0.3165  0.2382 -0.0701
 1674ntf    fn412951   6.875   4.477   2.097  0.1936  0.2971  0.8273
 1674ntf    fn412952   6.772   4.438   1.917  0.5976  0.2309  0.2809
 1674ntf    fn412953   6.787   4.281   2.063  0.1442 -0.2975 -0.6201
 1674ntf    on512954   6.971   4.214   1.848  0.4806  0.3102 -0.4853
 1674ntf    on512955   7.071   4.436   1.880 -0.4100  0.0198  0.2168
 1674ntf    on512956   7.272   4.258   2.235  0.3579  0.3275  0.0468
 1674ntf    on512957   7.308   4.221   1.998 -0.5866  0.3357  0.0448
 1674ntf    fn412958   7.304   3.976   2.133  0.0194 -0.5726 -0.6413
 1674ntf    fn412959   7.095   4.002   2.186  0.1928 -0.0358 -0.3357
 1674ntf    fn412960   7.164   3.994   1.982 -0.1787  0.2227  0.0440
 1675ntf    cn112961   2.451   5.822   2.478  0.1957 -0.3452  0.3854
 1675ntf    sn212962   2.284   5.754   2.499 -0.0377  0.1398  0.1189
 1675ntf    nn312963   2.243   5.829   2.630  0.2212  0.2477  0.1372
 1675ntf    sn212964   2.101   5.844   2.696  0.1304  0.5306 -0.1184
 1675ntf    cn112965   2.145   5.767   2.855  0.1773 -0.0336 -0.4037
 1675ntf    fn412966   2.525   5.813   2.587 -0.3400 -0.4130  0.7483
 1675ntf    fn412967   2.515   5.763   2.378 -0.4711  0.1089 -0.3225
 1675ntf    fn412968   2.438   5.951   2.451  0.0052 -0.4586 -0.0629
 1675ntf    on512969   2.210   5.801   2.384  0.2336  0.1089 -0.0672
 1675ntf    on512970   2.305   5.611   2.510 -0.5400  0.0815  0.3602
 1675ntf    on512971   1.997   5.756   2.648  0.2587  0.6517 -0.6227
 1675ntf    on512972   2.075   5.979   2.740 -0.0399  0.5450 -0.2659
 1675ntf    fn412973   2.038   5.720   2.917  0.1635 -0.2577 -0.5918
 1675ntf    fn412974   2.228   5.664   2.845 -0.1192 -0.2250 -0.9406
 1675ntf    fn412975   2.198   5.853   2.940 -0.7350  0.0678  0.0762
 1676ntf    cn112976   6.250   4.870   4.923  0.4619  0.0586  0.4573
 1676ntf    sn212977   6.395   4.890   4.815  0.0400 -0.3294 -0.1859
 1676ntf    nn312978   6.453   4.744   4.805  0.7106 -0.0322 -0.6984
 1676ntf    sn212979   6.599   4.687   4.813  0.6635 -0.0157  0.3795
 1676ntf    cn112980   6.599   4.643   4.990  0.1229  0.4433  0.4957
 1676ntf    fn412981   6.185   4.985   4.925  0.0828 -0.1481  0.0399
 1676ntf    fn412982   6.164   4.776   4.891  0.2566  0.3071  0.2741
 1676ntf    fn412983   6.277   4.849   5.051  0.3035 -0.1553  0.4551
 1676ntf    on512984   6.336   4.935   4.692  0.3123  0.6476  0.0355
 1676ntf    on512985   6.463   4.985   4.900  0.0867 -0.0793 -0.5044
 1676ntf    on512986   6.708   4.778   4.790  0.4283  0.1246 -0.1903
 1676ntf    on512987   6.608   4.563   4.741 -0.3908 -0.3878  0.8659
 1676ntf    fn412988   6.574   4.752   5.061  0.4478  0.9608 -0.1722
 1676ntf    fn412989   6.501   4.557   5.015  0.3136  0.0081 -0.2208
 1676ntf    fn412990   6.711   4.587   5.033  0.1439 -0.1129 -0.2681
 1677ntf    cn112991   6.251   3.301   5.151 -0.0719  0.2787 -0.1706
 1677ntf    sn212992   6.428   3.282   5.189 -0.0934  0.0699 -0.1734
 1677ntf    nn312993   6.452   3.412   5.274  0.6102 -0.0778 -0.1402
 1677ntf    sn212994   6.571   3.440   5.372  0.3261 -0.0723  0.2057
 1677ntf    cn112995   6.650   3.559   5.260 -0.5529  0.0111 -0.3359
 1677ntf    fn412996   6.203   3.232   5.049  0.3755  0.1818 -0.3180
 1677ntf    fn412997   6.173   3.282   5.256 -0.1546 -0.3997 -0.3485
 1677ntf    fn412998   6.216   3.421   5.109  0.6185  0.6363  0.2603
 1677ntf    on512999   6.426   3.161   5.268 -0.8189  0.3352  0.2298
 1677ntf    on513000   6.500   3.293   5.065 -0.1620 -0.1773 -0.2351
 1677ntf    on513001   6.670   3.336   5.387 -0.0394 -0.5560 -0.6715
 1677ntf    on513002   6.531   3.516   5.488 -0.1639 -0.0905  0.0494
 1677ntf    fn413003   6.720   3.505   5.162  0.0504  0.5046 -0.1809
 1677ntf    fn413004   6.565   3.632   5.190 -0.5375  0.0853 -0.2774
 1677ntf    fn413005   6.729   3.641   5.327  0.3060 -0.6255 -0.5505
 1678ntf    cn113006   1.780   2.130   3.045 -0.2285 -0.1114 -0.5119
 1678ntf    sn213007   1.941   2.098   2.966  0.0592 -0.0460  0.0430
 1678ntf    nn313008   1.958   1.945   2.994  0.5161 -0.0172 -0.0745
 1678ntf    sn213009   1.975   1.823   2.896  0.0613  0.0191 -0.1995
 1678ntf    cn113010   2.154   1.803   2.875 -0.0093 -0.2516 -0.5605
 1678ntf    fn413011   1.682   2.049   3.009 -0.3186 -0.1328 -0.2192
 1678ntf    fn413012   1.790   2.116   3.176  0.0386  0.5022 -0.4643
 1678ntf    fn413013   1.739   2.254   3.022 -0.1872 -0.0754 -0.3914
 1678ntf    on513014   1.913   2.137   2.830  0.3759  0.0354  0.0002
 1678ntf    on513015   2.036   2.183   3.033 -0.1614  0.2366  0.0034
 1678ntf    on513016   1.929   1.850   2.762  0.5141  0.2671 -0.3046
 1678ntf    on513017   1.935   1.703   2.965  0.2798  0.2330  0.2980
 1678ntf    fn413018   2.183   1.707   2.789 -0.1466 -0.3621 -0.4821
 1678ntf    fn413019   2.205   1.918   2.832 -0.3902 -0.1628 -0.7812
 1678ntf    fn413020   2.226   1.770   2.980 -0.2991  0.9676  0.0399
 1679ntf    cn113021   0.989   0.972   2.527 -0.0586 -0.1807 -0.2559
 1679ntf    sn213022   0.808   0.968   2.546 -0.0017 -0.4020  0.2412
 1679ntf    nn313023   0.801   1.043   2.684  0.6942  0.2779 -0.0856
 1679ntf    sn213024   0.769   0.999   2.831  0.1118  0.3173 -0.1970
 1679ntf    cn113025   0.935   1.030   2.899  0.0111  0.3443  0.0369
 1679ntf    fn413026   1.042   0.881   2.606 -0.1213 -0.0293 -0.0389
 1679ntf    fn413027   1.023   0.953   2.400 -0.4676  0.2465 -0.4370
 1679ntf    fn413028   1.041   1.087   2.567 -0.3942 -0.0354 -0.2353
 1679ntf    on513029   0.752   1.045   2.438 -0.0352 -0.2417  0.3733
 1679ntf    on513030   0.768   0.829   2.550 -0.3327 -0.2849  1.0813
 1679ntf    on513031   0.745   0.858   2.850  0.9426  0.1627 -0.2556
 1679ntf    on513032   0.683   1.091   2.902 -0.7405 -0.3301 -0.3735
 1679ntf    fn413033   0.940   0.988   3.025 -0.0778 -0.5797 -0.2593
 1679ntf    fn413034   1.036   0.970   2.839 -0.0595 -0.1392  0.3907
 1679ntf    fn413035   0.959   1.159   2.911 -0.0808  0.3393  0.2973
 1680ntf    cn113036   0.754   0.905   4.838  0.0691 -0.4546 -0.2567
 1680ntf    sn213037   0.770   0.906   4.657 -0.1214 -0.1710 -0.2712
 1680ntf    nn313038   0.781   0.751   4.639  0.1157 -0.1294 -0.4881
 1680ntf    sn213039   0.674   0.653   4.579 -0.0434 -0.0403 -0.3514
 1680ntf    cn113040   0.716   0.678   4.404  0.2926  0.5281 -0.1891
 1680ntf    fn413041   0.796   1.016   4.896 -0.2085 -0.2771 -0.3944
 1680ntf    fn413042   0.630   0.877   4.874 -0.1334  0.0965 -0.5201
 1680ntf    fn413043   0.823   0.800   4.879 -0.2452 -0.5701 -0.0233
 1680ntf    on513044   0.650   0.975   4.614  0.1370  0.0056 -0.7109
 1680ntf    on513045   0.900   0.966   4.642 -0.1631  0.1662  0.6860
 1680ntf    on513046   0.533   0.681   4.589 -0.0893 -0.3107 -0.2167
 1680ntf    on513047   0.704   0.513   4.603  0.0433  0.0541  0.1011
 1680ntf    fn413048   0.829   0.615   4.377  0.1678  0.0876  0.3175
 1680ntf    fn413049   0.621   0.628   4.327  0.4785  0.1653 -0.1819
 1680ntf    fn413050   0.724   0.805   4.366  0.0071  0.5349 -0.2249
 1681ntf    cn113051   2.550   2.332   0.279 -0.5453 -0.4568  0.1812
 1681ntf    sn213052   2.535   2.169   0.199 -0.4456 -0.2239 -0.3190
 1681ntf    nn313053   2.413   2.113   0.281 -0.4997  0.7700  0.3066
 1681ntf    sn213054   2.260   2.126   0.249 -0.4937  0.4169  0.1225
 1681ntf    cn113055   2.209   1.954   0.275 -0.0555  0.3041  0.2401
 1681ntf    fn413056   2.554   2.334   0.411 -0.2821 -0.1044  0.1683
 1681ntf    fn413057   2.668   2.377   0.238 -0.5153 -0.6296  0.0751
 1681ntf    fn413058   2.464   2.424   0.240 -0.0598 -0.3697 -0.7187
 1681ntf    on513059   2.513   2.214   0.064 -0.3040  0.9300  0.0279
 1681ntf    on513060   2.658   2.098   0.224 -0.2606  0.3400  0.4386
 1681ntf    on513061   2.229   2.155   0.111 -0.1024  0.6412  0.0796
 1681ntf    on513062   2.192   2.195   0.356 -0.2032 -0.4546  0.8813
 1681ntf    fn413063   2.080   1.925   0.281  0.1076 -0.3796  0.6320
 1681ntf    fn413064   2.260   1.873   0.183 -0.8108 -0.3158  0.3507
 1681ntf    fn413065   2.252   1.912   0.393 -0.3468  0.5798  0.4459
 1682ntf    cn113066   6.346   0.436   4.425 -0.0214  0.3241  0.0267
 1682ntf    sn213067   6.417   0.273   4.388  0.1183  0.3668  0.1058
 1682ntf    nn313068   6.456   0.218   4.530 -0.0150 -0.0592 -0.0191
 1682ntf    sn213069   6.418   0.095   4.619  0.2004  0.0195  0.1855
 1682ntf    cn113070   6.566  -0.007   4.595  0.4269  0.3739  0.0724
 1682ntf    fn413071   6.291   0.506   4.327 -0.6710  0.6292  0.6004
 1682ntf    fn413072   6.254   0.427   4.520 -0.5452 -0.8434 -0.5782
 1682ntf    fn413073   6.442   0.506   4.482  0.2228  0.2223 -0.2583
 1682ntf    on513074   6.305   0.206   4.326 -0.0369  0.3972  0.3518
 1682ntf    on513075   6.533   0.294   4.305  0.3549 -0.0848  0.3148
 1682ntf    on513076   6.307   0.016   4.571  0.4504 -0.0603 -0.2714
 1682ntf    on513077   6.426   0.118   4.761  0.0326 -0.3795  0.2636
 1682ntf    fn413078   6.552  -0.135   4.629  0.5962  0.3809  0.1682
 1682ntf    fn413079   6.606  -0.014   4.469  0.0282  0.3369 -0.0520
 1682ntf    fn413080   6.672   0.037   4.661  0.6423 -0.0896  0.0455
 1683ntf    cn113081   6.219   2.284   2.197  0.0648 -0.0184  0.2003
 1683ntf    sn213082   6.304   2.437   2.244 -0.0294  0.0912  0.0151
 1683ntf    nn313083   6.388   2.468   2.115 -0.2393  0.1638 -0.1038
 1683ntf    sn213084   6.359   2.557   1.989  0.4001  0.4047 -0.0862
 1683ntf    cn113085   6.499   2.672   1.998  0.7467 -0.0399  0.2361
 1683ntf    fn413086   6.199   2.212   2.306  0.2448  0.4002  0.5127
 1683ntf    fn413087   6.103   2.304   2.136  0.2629 -0.1180 -0.2136
 1683ntf    fn413088   6.294   2.210   2.117 -0.1192  0.0381 -0.0251
 1683ntf    on513089   6.193   2.525   2.272 -0.2464 -0.1117 -0.2028
 1683ntf    on513090   6.389   2.409   2.358 -0.3469 -0.9265  0.0134
 1683ntf    on513091   6.244   2.641   2.015  0.0877  0.0932 -0.4329
 1683ntf    on513092   6.365   2.488   1.862  0.2311  0.5641 -0.1826
 1683ntf    fn413093   6.506   2.738   2.113 -0.2440  0.0431  0.2609
 1683ntf    fn413094   6.617   2.614   1.982  0.1881 -1.0751 -0.2878
 1683ntf    fn413095   6.486   2.761   1.901 -0.1996 -0.5552 -0.1272
 1684ntf    cn113096   1.330   3.006   3.713 -0.4391 -0.2342 -0.2963
 1684ntf    sn213097   1.267   2.870   3.816 -0.0139 -0.0647  0.1919
 1684ntf    nn313098   1.277   2.932   3.959 -0.3413  0.1307  0.1301
 1684ntf    sn213099   1.401   2.939   4.054 -0.1005  0.1918 -0.1884
 1684ntf    cn113100   1.319   2.993   4.207  0.4803 -0.1511  0.2501
 1684ntf    fn413101   1.257   3.114   3.735  0.0780  0.0772 -0.1103
 1684ntf    fn413102   1.453   3.032   3.753 -0.4146 -0.1366 -0.4347
 1684ntf    fn413103   1.325   2.984   3.582  0.1150  0.3552 -0.4206
 1684ntf    on513104   1.127   2.855   3.784 -0.0284  0.9864 -0.2873
 1684ntf    on513105   1.353   2.757   3.790 -0.3999 -0.2448 -0.3455
 1684ntf    on513106   1.484   3.055   4.034  0.2066  0.1292  0.6800
 1684ntf    on513107   1.468   2.818   4.095  0.5936  0.6288 -0.0038
 1684ntf    fn413108   1.261   3.111   4.193  0.5758 -0.1269  0.0650
 1684ntf    fn413109   1.223   2.906   4.233  0.4414 -0.1047  0.2629
 1684ntf    fn413110   1.406   3.008   4.306  0.1358 -0.4864  0.6097
 1685ntf    cn113111   4.959   3.874   0.331  0.2316 -0.2338  0.4629
 1685ntf    sn213112   4.842   4.006   0.286  0.3935 -0.1419  0.3072
 1685ntf    nn313113   4.753   3.924   0.186  0.0207  0.4410  0.1555
 1685ntf    sn213114   4.627   3.835   0.214  0.4217 -0.1624  0.0818
 1685ntf    cn113115   4.501   3.952   0.276  0.4360 -0.0274 -0.1438
 1685ntf    fn413116   5.055   3.917   0.412  0.6555  0.2219 -0.2729
 1685ntf    fn413117   4.900   3.775   0.395 -0.1704 -0.0944  0.3093
 1685ntf    fn413118   5.018   3.821   0.225 -0.1554 -0.3372  0.2988
 1685ntf    on513119   4.780   4.034   0.413  0.4226  0.1064  0.2657
 1685ntf    on513120   4.919   4.109   0.221  0.2935 -0.0711  0.3016
 1685ntf    on513121   4.640   3.745   0.325  0.0648 -0.4492 -0.1057
 1685ntf    on513122   4.569   3.784   0.092 -0.3400 -0.5417  0.5919
 1685ntf    fn413123   4.491   3.950   0.407 -0.3271  0.0449 -0.1971
 1685ntf    fn413124   4.530   4.079   0.252 -0.2084  0.1119 -0.1917
 1685ntf    fn413125   4.380   3.920   0.233 -0.1198  0.5146  0.9920
 1686ntf    cn113126   0.160   1.587   0.547 -0.0350  0.0248 -0.1039
 1686ntf    sn213127   0.047   1.627   0.684 -0.0773  0.3680 -0.2380
 1686ntf    nn313128   0.074   1.779   0.710 -0.3062  0.3957 -0.1568
 1686ntf    sn213129  -0.000   1.913   0.675 -0.1705  0.4564 -0.2127
 1686ntf    cn113130   0.140   2.028   0.688 -0.0248  0.2109  0.4516
 1686ntf    fn413131   0.283   1.626   0.575 -0.0068 -0.2082  0.1013
 1686ntf    fn413132   0.155   1.459   0.515 -0.3807  0.1268 -0.4607
 1686ntf    fn413133   0.129   1.655   0.438  0.1460 -0.2770 -0.3454
 1686ntf    on513134  -0.086   1.596   0.636  0.2437 -1.0798 -0.2442
 1686ntf    on513135   0.100   1.542   0.788 -0.0799  0.1605 -0.4055
 1686ntf    on513136  -0.094   1.955   0.776  0.0947  0.2454  0.1243
 1686ntf    on513137  -0.028   1.932   0.535 -0.5803  0.3843 -0.1429
 1686ntf    fn413138   0.203   2.006   0.802 -0.2569 -0.1830  0.5072
 1686ntf    fn413139   0.238   2.011   0.601 -0.3206 -0.3729  0.2238
 1686ntf    fn413140   0.109   2.157   0.687  0.1799  0.2595  0.1596
 1687ntf    cn113141   3.284   5.713   6.793  0.1609  0.0735 -0.1461
 1687ntf    sn213142   3.433   5.766   6.882  0.2222  0.4285 -0.4547
 1687ntf    nn313143   3.411   5.687   7.016  0.9518 -0.4040 -0.8144
 1687ntf    sn213144   3.481   5.720   7.153 -0.1896  0.3181 -0.4006
 1687ntf    cn113145   3.337   5.763   7.257  0.1991 -0.0851  0.3135
 1687ntf    fn413146   3.284   5.777   6.677 -0.1315  0.4676  0.0703
 1687ntf    fn413147   3.269   5.584   6.768 -0.3560  0.2289 -0.6588
 1687ntf    fn413148   3.172   5.749   6.852  0.0650 -0.3113 -0.0940
 1687ntf    on513149   3.543   5.708   6.809  0.1584 -0.8822  0.4494
 1687ntf    on513150   3.421   5.909   6.892 -0.4206  0.3342  0.2229
 1687ntf    on513151   3.558   5.841   7.168 -0.0882  0.2364 -0.2620
 1687ntf    on513152   3.539   5.603   7.213 -0.7235 -0.0759 -0.6436
 1687ntf    fn413153   3.266   5.866   7.211  0.2702 -0.2271 -0.1245
 1687ntf    fn413154   3.246   5.668   7.263  0.0835  0.0375  0.4945
 1687ntf    fn413155   3.370   5.785   7.383 -0.1996 -0.7081  0.5291
 1688ntf    cn113156   3.714   3.450   3.120 -0.0990 -0.2325 -0.3295
 1688ntf    sn213157   3.712   3.474   3.300  0.0730  0.1741 -0.3813
 1688ntf    nn313158   3.601   3.376   3.351  0.2404  0.1455 -0.0703
 1688ntf    sn213159   3.628   3.228   3.397  0.0492  0.0252 -0.3385
 1688ntf    cn113160   3.484   3.143   3.326 -0.2501 -0.1587  0.4693
 1688ntf    fn413161   3.596   3.485   3.070  0.0370  0.6110 -0.0798
 1688ntf    fn413162   3.810   3.521   3.064 -0.1181  0.0807  0.0331
 1688ntf    fn413163   3.746   3.326   3.087 -0.0069 -0.2340 -0.2341
 1688ntf    on513164   3.844   3.443   3.347  0.0154  0.7070  0.1501
 1688ntf    on513165   3.657   3.608   3.310 -0.1739  0.0191  0.4458
 1688ntf    on513166   3.608   3.217   3.540  0.2988 -0.4141 -0.3367
 1688ntf    on513167   3.740   3.169   3.330 -0.2128  0.1696 -0.9077
 1688ntf    fn413168   3.471   3.173   3.198  0.1122 -0.0568  0.4541
 1688ntf    fn413169   3.504   3.012   3.325  0.5050 -0.0465 -0.0704
 1688ntf    fn413170   3.367   3.170   3.380 -0.2221  0.1830  0.3596
 1689ntf    cn113171   3.194   2.281   3.570  0.3323  0.0429  0.0741
 1689ntf    sn213172   3.328   2.377   3.494  0.2087  0.0789 -0.1000
 1689ntf    nn313173   3.394   2.271   3.398  0.5409  0.0266  0.1827
 1689ntf    sn213174   3.427   2.278   3.245 -0.5537  0.1799 -0.0520
 1689ntf    cn113175   3.606   2.309   3.253 -0.5844  0.2916  0.1995
 1689ntf    fn413176   3.240   2.209   3.671  0.3705 -0.1870 -0.1075
 1689ntf    fn413177   3.093   2.346   3.626  0.0697  0.0734 -0.4334
 1689ntf    fn413178   3.141   2.203   3.477 -0.2789 -0.0635  0.5006
 1689ntf    on513179   3.249   2.484   3.440 -0.1972 -0.2243 -0.1134
 1689ntf    on513180   3.422   2.408   3.599  0.0949 -0.0751  0.0482
 1689ntf    on513181   3.371   2.386   3.168 -0.5882 -0.1855 -0.5437
 1689ntf    on513182   3.424   2.147   3.186  0.2080 -0.1046  0.5312
 1689ntf    fn413183   3.679   2.221   3.320  0.0535  0.8129  0.2027
 1689ntf    fn413184   3.655   2.314   3.131  0.5092 -0.3316  0.5936
 1689ntf    fn413185   3.632   2.427   3.308  0.0139  0.2939 -0.0884
 1690ntf    cn113186   5.059   5.057   3.351  0.5496  0.2743  0.1829
 1690ntf    sn213187   4.912   4.951   3.341  0.1947  0.8238 -0.5159
 1690ntf    nn313188   4.938   4.875   3.206  0.5861  0.3681 -0.1844
 1690ntf    sn213189   4.884   4.899   3.061 -0.1059  0.0341  0.0134
 1690ntf    cn113190   4.993   4.791   2.964  0.1126  0.3038 -0.0447
 1690ntf    fn413191   5.166   4.990   3.391  0.2869 -0.2477  0.0250
 1690ntf    fn413192   5.075   5.105   3.229 -0.0480 -0.2032 -0.0867
 1690ntf    fn413193   5.043   5.155   3.439 -0.8227 -0.1733  0.4576
 1690ntf    on513194   4.931   4.868   3.457 -0.5718 -0.0079 -0.9661
 1690ntf    on513195   4.804   5.047   3.342 -0.3989  0.1654  0.2173
 1690ntf    on513196   4.909   5.030   3.007 -0.3239 -0.1942 -0.6462
 1690ntf    on513197   4.754   4.846   3.029 -0.0140 -0.2941  0.1804
 1690ntf    fn413198   4.978   4.664   2.997 -0.4320  0.3863  0.0308
 1690ntf    fn413199   4.972   4.802   2.833 -0.3195  0.0737  0.0025
 1690ntf    fn413200   5.119   4.817   2.991  0.2084 -0.5534  0.3896
 1691ntf    cn113201   4.410   4.101   3.728  0.2562 -0.2049  0.0373
 1691ntf    sn213202   4.541   4.215   3.674  0.2713 -0.3604 -0.2563
 1691ntf    nn313203   4.600   4.262   3.812 -0.0341 -0.4919 -0.0798
 1691ntf    sn213204   4.721   4.206   3.896 -0.2886 -0.0458  0.5955
 1691ntf    cn113205   4.641   4.151   4.050 -0.0093 -0.5791  0.5528
 1691ntf    fn413206   4.328   4.070   3.629 -0.4710  0.0821  0.5402
 1691ntf    fn413207   4.454   3.987   3.779  0.3637 -0.0999  0.1811
 1691ntf    fn413208   4.339   4.153   3.827 -0.0564 -0.5267 -0.0185
 1691ntf    on513209   4.633   4.143   3.590  0.2813 -0.4682 -0.1538
 1691ntf    on513210   4.468   4.323   3.612  0.0546 -0.0399  0.5420
 1691ntf    on513211   4.794   4.328   3.917 -0.3378  0.3531 -1.3626
 1691ntf    on513212   4.785   4.086   3.847 -0.5009  0.0147  0.1622
 1691ntf    fn413213   4.565   4.243   4.107  0.1228 -0.3855  0.4165
 1691ntf    fn413214   4.561   4.049   4.025 -0.2143 -0.1820 -0.4711
 1691ntf    fn413215   4.734   4.111   4.135  0.6147 -0.2232  0.0469
 1692ntf    cn113216   4.041   2.577   2.212  0.1416 -0.5612 -0.1025
 1692ntf    sn213217   4.006   2.408   2.270 -0.0028 -0.3973  0.2864
 1692ntf    nn313218   4.151   2.357   2.302  0.2935  0.1542 -0.1633
 1692ntf    sn213219   4.212   2.310   2.438 -0.2255 -0.1410 -0.0304
 1692ntf    cn113220   4.281   2.470   2.490 -0.3269  0.0408 -0.4557
 1692ntf    fn413221   4.139   2.576   2.123  0.4388 -0.2237  0.2176
 1692ntf    fn413222   3.935   2.619   2.145  0.0741  0.5308  0.6562
 1692ntf    fn413223   4.073   2.665   2.305 -0.4182 -0.4330 -0.0290
 1692ntf    on513224   3.918   2.438   2.381  0.1450 -0.6717  0.4801
 1692ntf    on513225   3.952   2.342   2.154 -0.5529  0.6029 -0.0355
 1692ntf    on513226   4.335   2.237   2.417  0.1978  0.4575  0.3255
 1692ntf    on513227   4.120   2.263   2.539 -0.3805  0.2170 -0.0041
 1692ntf    fn413228   4.342   2.463   2.607  0.0637 -0.2193 -0.6710
 1692ntf    fn413229   4.370   2.521   2.406 -0.0456  0.5996  0.1749
 1692ntf    fn413230   4.194   2.568   2.507 -0.2157  0.1378 -0.4494
 1693ntf    cn113231   4.549   5.102   3.783 -0.2052 -0.6110 -0.0268
 1693ntf    sn213232   4.579   5.065   3.959 -0.1582  0.0863  0.1142
 1693ntf    nn313233   4.549   5.204   4.026  0.7539  0.4248 -0.1681
 1693ntf    sn213234   4.576   5.234   4.177 -0.2439  0.0256  0.0983
 1693ntf    cn113235   4.407   5.234   4.243 -0.0648  0.0781  0.5639
 1693ntf    fn413236   4.606   5.218   3.756 -1.0694 -0.1656  0.0301
 1693ntf    fn413237   4.597   5.015   3.696  0.8147 -0.0412 -0.0569
 1693ntf    fn413238   4.418   5.114   3.767 -0.1534 -0.0610 -0.0655
 1693ntf    on513239   4.483   4.965   3.996 -0.5533  0.3464 -0.1943
 1693ntf    on513240   4.716   5.021   3.951 -0.2236 -0.0103 -0.5168
 1693ntf    on513241   4.603   5.374   4.202  0.0661 -0.1027  0.4933
 1693ntf    on513242   4.641   5.134   4.258  0.5153  0.2013 -0.2823
 1693ntf    fn413243   4.327   5.311   4.171  0.0313 -0.4423 -0.1085
 1693ntf    fn413244   4.357   5.112   4.226  0.2849  0.0345 -0.1985
 1693ntf    fn413245   4.401   5.262   4.372  0.7041 -0.1542  0.6564
 1694ntf    cn113246   5.118   2.358   4.067  0.1099  0.1257 -0.3054
 1694ntf    sn213247   5.052   2.468   4.195  0.3926  0.3157 -0.3219
 1694ntf    nn313248   5.183   2.529   4.257  0.5388  0.0144 -0.3318
 1694ntf    sn213249   5.193   2.656   4.349  0.6456 -0.2764  0.0591
 1694ntf    cn113250   5.233   2.567   4.503  0.0204 -0.1548  0.2953
 1694ntf    fn413251   5.195   2.262   4.116 -0.2822  0.1895  0.4396
 1694ntf    fn413252   5.024   2.297   3.996  0.3207 -0.2800 -0.2383
 1694ntf    fn413253   5.187   2.428   3.978  0.7225 -0.1237 -0.0311
 1694ntf    on513254   4.971   2.568   4.129  0.2406  0.1548 -0.3768
 1694ntf    on513255   4.978   2.379   4.281  0.4216  0.1006 -0.5204
 1694ntf    on513256   5.075   2.729   4.389  0.8322  0.0467  0.0222
 1694ntf    on513257   5.305   2.742   4.320 -0.4452  0.8981 -0.8207
 1694ntf    fn413258   5.303   2.462   4.466 -0.2219 -0.3933  0.5076
 1694ntf    fn413259   5.310   2.629   4.591  0.0203  0.0352  0.1636
 1694ntf    fn413260   5.124   2.510   4.552 -0.0299  0.1690  0.5691
 1695ntf    cn113261   5.045   6.302   2.069 -0.1067  0.4244  0.0046
 1695ntf    sn213262   4.891   6.388   2.111 -0.3988 -0.1528  0.1273
 1695ntf    nn313263   4.937   6.536   2.087 -0.2106 -0.3462 -0.7369
 1695ntf    sn213264   4.895   6.632   1.970 -0.1473  0.1637 -0.3425
 1695ntf    cn113265   5.066   6.671   1.922 -0.0381 -0.0266 -0.1107
 1695ntf    fn413266   5.125   6.302   2.174 -0.0445 -0.2710 -0.0354
 1695ntf    fn413267   5.024   6.173   2.046  0.2460  0.3298  0.2053
 1695ntf    fn413268   5.102   6.349   1.959  0.3119  0.1351  0.0951
 1695ntf    on513269   4.795   6.345   2.013 -0.0574  0.0372 -0.2931
 1695ntf    on513270   4.865   6.355   2.249 -0.4532 -0.0459  0.1424
 1695ntf    on513271   4.838   6.753   2.025  0.2215  0.0710  0.2515
 1695ntf    on513272   4.836   6.573   1.853 -0.7739  0.3483 -0.1242
 1695ntf    fn413273   5.060   6.755   1.820 -0.3724  0.0317 -0.0443
 1695ntf    fn413274   5.144   6.727   2.013  0.3227  0.5592 -0.7700
 1695ntf    fn413275   5.138   6.567   1.883 -0.3406 -0.3713  0.2417
 1696ntf    cn113276   6.172   4.055   2.511  0.0082  0.3105  0.0999
 1696ntf    sn213277   6.172   4.040   2.330 -0.0387 -0.0687  0.1323
 1696ntf    nn313278   6.208   4.187   2.291  0.0370 -0.0392  0.3087
 1696ntf    sn213279   6.112   4.287   2.217 -0.2452 -0.2073  0.4444
 1696ntf    cn113280   6.227   4.376   2.107 -0.3328 -0.2131  0.3475
 1696ntf    fn413281   6.070   4.124   2.561 -0.3385 -0.0663 -0.0863
 1696ntf    fn413282   6.175   3.942   2.579  0.0658  0.3736  0.2039
 1696ntf    fn413283   6.279   4.125   2.546  0.1484  0.2160 -0.1399
 1696ntf    on513284   6.275   3.946   2.293 -0.1277  0.1709 -0.7310
 1696ntf    on513285   6.041   3.986   2.306 -0.0464 -0.2402  0.5501
 1696ntf    on513286   6.065   4.395   2.299 -0.1875  0.2444 -0.1071
 1696ntf    on513287   6.022   4.242   2.113  0.1033  0.2077 -0.0484
 1696ntf    fn413288   6.230   4.324   1.985 -0.0215 -0.1466  0.3261
 1696ntf    fn413289   6.192   4.503   2.098 -0.4277 -0.2454  0.2670
 1696ntf    fn413290   6.353   4.381   2.150 -0.1614 -0.7606 -0.0785
 1697ntf    cn113291   6.176   5.864   1.809 -0.3058  0.4048  0.0363
 1697ntf    sn213292   6.073   5.767   1.924  0.2403  0.3373  0.4702
 1697ntf    nn313293   6.027   5.879   2.023 -0.3224  0.0207  0.5693
 1697ntf    sn213294   6.102   5.920   2.155  0.5966  0.4621 -0.0766
 1697ntf    cn113295   5.987   6.051   2.208 -0.0229 -0.0030 -0.2492
 1697ntf    fn413296   6.252   5.798   1.723 -0.2504  0.2786  0.1820
 1697ntf    fn413297   6.111   5.947   1.729 -0.0837  0.6098  0.0716
 1697ntf    fn413298   6.267   5.939   1.868 -0.0738 -0.0408  0.2504
 1697ntf    on513299   5.971   5.712   1.839  0.7637  0.4655 -0.2507
 1697ntf    on513300   6.158   5.665   1.981  0.5512  0.1695 -0.2737
 1697ntf    on513301   6.232   5.980   2.141  0.4215  0.8189 -0.1832
 1697ntf    on513302   6.092   5.819   2.258  0.2545  0.2253 -0.3378
 1697ntf    fn413303   5.865   6.002   2.221  0.0034  0.0845  0.3537
 1697ntf    fn413304   6.030   6.124   2.309 -0.1587 -0.2054 -0.0456
 1697ntf    fn413305   5.974   6.140   2.110 -0.3638  0.3063  0.0758
 1698ntf    cn113306   1.386   3.757   3.719 -0.2046 -0.0994  0.1397
 1698ntf    sn213307   1.392   3.721   3.541  0.3120  0.2467  0.0858
 1698ntf    nn313308   1.367   3.566   3.543 -0.1422  0.3139 -0.2649
 1698ntf    sn213309   1.284   3.471   3.450 -0.3193  0.1650  0.0445
 1698ntf    cn113310   1.120   3.476   3.528 -0.3298 -0.2483  0.0538
 1698ntf    fn413311   1.270   3.716   3.768 -0.1975 -0.4862 -0.1663
 1698ntf    fn413312   1.479   3.711   3.801 -0.3654 -0.4797  0.1102
 1698ntf    fn413313   1.387   3.889   3.734 -0.2888 -0.0787 -0.0377
 1698ntf    on513314   1.288   3.804   3.484  0.1240  0.1033  0.2207
 1698ntf    on513315   1.530   3.739   3.503  0.3066 -0.4428 -0.2752
 1698ntf    on513316   1.316   3.330   3.462 -0.8771  0.0160 -0.1999
 1698ntf    on513317   1.250   3.525   3.321  0.3478  0.0527 -0.1858
 1698ntf    fn413318   1.028   3.410   3.460 -0.3384  0.0135 -0.1888
 1698ntf    fn413319   1.117   3.447   3.657  0.6531 -0.1719  0.1063
 1698ntf    fn413320   1.077   3.601   3.521  0.5269  0.0423 -0.2233
 1699ntf    cn113321   4.680   1.253   2.889 -0.0161 -0.5119 -0.0744
 1699ntf    sn213322   4.651   1.238   2.710 -0.3201  0.2585 -0.0939
 1699ntf    nn313323   4.682   1.386   2.669  0.0439  0.0559 -0.5531
 1699ntf    sn213324   4.580   1.493   2.617  0.1242  0.2775 -0.2526
 1699ntf    cn113325   4.681   1.644   2.627  0.4349  0.0429  0.1701
 1699ntf    fn413326   4.608   1.353   2.936  0.3992 -0.1679 -0.1713
 1699ntf    fn413327   4.635   1.152   2.962 -0.7498 -0.1511 -0.0202
 1699ntf    fn413328   4.806   1.272   2.922 -0.1342  0.0946  0.0418
 1699ntf    on513329   4.762   1.161   2.659 -0.2419  0.3202 -0.0174
 1699ntf    on513330   4.513   1.196   2.700 -0.3203  0.2801 -0.1842
 1699ntf    on513331   4.481   1.521   2.719 -0.1630 -0.3186 -0.3636
 1699ntf    on513332   4.534   1.494   2.481  0.3496  0.6302 -0.3258
 1699ntf    fn413333   4.739   1.658   2.745 -0.2279  0.2949  0.4702
 1699ntf    fn413334   4.781   1.644   2.539  0.0822 -0.4779 -0.2378
 1699ntf    fn413335   4.609   1.753   2.610  0.8842  0.3153 -0.0053
 1700ntf    cn113336   5.010   6.738   4.319 -0.5247 -0.1818  0.0470
 1700ntf    sn213337   4.968   6.635   4.463 -0.2708  0.2076  0.4003
 1700ntf    nn313338   5.114   6.582   4.487 -0.5533 -0.4357  0.7360
 1700ntf    sn213339   5.174   6.536   4.624  0.5539 -0.3196  0.3075
 1700ntf    cn113340   5.299   6.666   4.639  0.2261 -0.0105  0.3707
 1700ntf    fn413341   5.095   6.836   4.346 -0.7182  0.0424 -0.1503
 1700ntf    fn413342   5.078   6.674   4.225  0.2448  0.6986 -0.0070
 1700ntf    fn413343   4.902   6.788   4.261 -0.5985 -0.2138  0.1567
 1700ntf    on513344   4.909   6.735   4.547 -0.0680 -0.3934  1.2687
 1700ntf    on513345   4.881   6.539   4.400 -0.0029 -0.1379  0.5512
 1700ntf    on513346   5.264   6.423   4.619  0.3117 -0.4914 -0.1895
 1700ntf    on513347   5.108   6.567   4.749 -0.5794 -0.0732 -0.3372
 1700ntf    fn413348   5.249   6.789   4.639 -0.2172 -0.1911 -0.0768
 1700ntf    fn413349   5.369   6.654   4.751 -0.3318  0.1178  0.7332
 1700ntf    fn413350   5.378   6.663   4.533 -0.3499 -0.2075 -0.0524
 1701ntf    cn113351   6.839   5.663   0.219 -0.1092 -0.3337 -0.1287
 1701ntf    sn213352   7.004   5.613   0.278 -0.0584 -0.1219 -0.0909
 1701ntf    nn313353   6.986   5.458   0.266 -0.4001 -0.1026  0.1467
 1701ntf    sn213354   6.992   5.351   0.381  0.0413 -0.2641 -0.0270
 1701ntf    cn113355   7.158   5.283   0.347  0.1240 -0.0489 -0.0527
 1701ntf    fn413356   6.757   5.632   0.318 -0.0710 -0.0689 -0.0142
 1701ntf    fn413357   6.830   5.793   0.197 -0.7691 -0.3297  0.1534
 1701ntf    fn413358   6.791   5.595   0.116  0.3122 -0.5289 -0.1995
 1701ntf    on513359   7.094   5.665   0.179  0.1482 -0.1082  0.1044
 1701ntf    on513360   7.010   5.669   0.411 -0.5347  0.6731 -0.3977
 1701ntf    on513361   6.905   5.237   0.364 -0.2583 -0.0523  0.0710
 1701ntf    on513362   7.008   5.408   0.512 -0.1438  0.2197 -0.2146
 1701ntf    fn413363   7.166   5.191   0.253 -0.0010  0.0750 -0.1871
 1701ntf    fn413364   7.257   5.365   0.316 -0.0877  0.1415 -0.2319
 1701ntf    fn413365   7.200   5.223   0.457  0.2203  0.1883  0.0408
 1702ntf    cn113366   6.181   4.107   3.073 -0.2208  0.2867  0.3551
 1702ntf    sn213367   6.053   4.085   3.201 -0.3687 -0.2620  0.1125
 1702ntf    nn313368   6.025   3.931   3.182  0.3422 -0.3870  0.0218
 1702ntf    sn213369   5.894   3.869   3.121  0.1849  0.2235 -0.2788
 1702ntf    cn113370   5.791   3.877   3.270 -0.0293 -0.6564 -0.3702
 1702ntf    fn413371   6.301   4.069   3.112 -0.2258  0.3762  0.4586
 1702ntf    fn413372   6.152   4.050   2.958  0.6593 -0.2111  0.3734
 1702ntf    fn413373   6.196   4.234   3.039  0.0440  0.2540  0.3482
 1702ntf    on513374   6.118   4.113   3.326 -0.1157 -0.3769  0.0069
 1702ntf    on513375   5.950   4.174   3.155  0.0616  0.0261 -0.2990
 1702ntf    on513376   5.903   3.726   3.100 -0.0082  0.1834 -0.0912
 1702ntf    on513377   5.832   3.941   3.013 -0.1461  0.2864 -0.0473
 1702ntf    fn413378   5.689   3.792   3.269 -0.1809 -0.4767 -0.2961
 1702ntf    fn413379   5.862   3.854   3.378 -0.0318  0.2557 -0.1653
 1702ntf    fn413380   5.723   3.990   3.289  0.2281 -0.6138  0.3235
 1703ntf    cn113381   3.449   1.268   2.517 -0.1668 -0.4460 -0.2296
 1703ntf    sn213382   3.352   1.182   2.389 -0.0067 -0.2156 -0.5050
 1703ntf    nn313383   3.388   1.038   2.439  0.5404 -0.0560 -0.4341
 1703ntf    sn213384   3.296   0.921   2.487 -0.0330  0.7458  0.4555
 1703ntf    cn113385   3.312   0.805   2.348 -0.4541  0.6782  0.4631
 1703ntf    fn413386   3.580   1.255   2.505 -0.0328  0.1625  0.5286
 1703ntf    fn413387   3.427   1.398   2.509 -0.0124 -0.4023  0.0584
 1703ntf    fn413388   3.411   1.233   2.638 -0.6063  0.4329 -0.1061
 1703ntf    on513389   3.221   1.230   2.423  0.0911 -0.2295 -0.1027
 1703ntf    on513390   3.412   1.232   2.267 -0.7267  0.2589 -0.6728
 1703ntf    on513391   3.154   0.943   2.501 -0.2166  0.6049 -1.0417
 1703ntf    on513392   3.365   0.855   2.595 -0.0341  0.5399  0.3311
 1703ntf    fn413393   3.234   0.846   2.250 -0.2037  0.3671  0.1327
 1703ntf    fn413394   3.426   0.803   2.281 -0.6003  0.5860  0.2164
 1703ntf    fn413395   3.266   0.682   2.369 -0.2621  0.4421 -0.4610
 1704ntf    cn113396   1.443   6.818   4.283 -0.3497  0.0132 -0.1291
 1704ntf    sn213397   1.353   6.967   4.335  0.0516  0.0923  0.3502
 1704ntf    nn313398   1.212   6.949   4.268  0.3087 -0.4177 -0.0627
 1704ntf    sn213399   1.078   7.010   4.323  0.4769  0.0512 -0.1658
 1704ntf    cn113400   0.989   7.068   4.175 -0.2760 -0.2748  0.1558
 1704ntf    fn413401   1.568   6.820   4.325 -0.3118  0.4367 -0.2558
 1704ntf    fn413402   1.391   6.700   4.313 -0.5313  0.2583  0.5411
 1704ntf    fn413403   1.451   6.812   4.151  0.9951  0.2494 -0.0689
 1704ntf    on513404   1.359   6.947   4.477  0.0257 -0.1949  0.3128
 1704ntf    on513405   1.431   7.072   4.275 -0.4582 -0.0383 -0.5753
 1704ntf    on513406   1.092   7.137   4.389  0.7515 -0.3281  0.5173
 1704ntf    on513407   0.999   6.907   4.385 -0.6123  0.5270 -0.7243
 1704ntf    fn413408   0.976   6.968   4.090  0.9544 -0.2344 -0.0863
 1704ntf    fn413409   0.862   7.105   4.186 -0.1865  0.0690  0.0520
 1704ntf    fn413410   1.036   7.175   4.113 -0.5397 -0.0956  0.2564
 1705ntf    cn113411   1.202   1.673   2.219  0.1045  0.2071  0.2739
 1705ntf    sn213412   1.098   1.784   2.119 -0.0758 -0.1787  0.0317
 1705ntf    nn313413   0.956   1.720   2.132  0.4016 -1.2890 -0.1120
 1705ntf    sn213414   0.876   1.645   2.019 -0.1464 -0.4080 -0.3200
 1705ntf    cn113415   0.827   1.780   1.908 -0.3619  0.2528  0.5665
 1705ntf    fn413416   1.331   1.688   2.193  0.0893  0.3519  0.2791
 1705ntf    fn413417   1.185   1.689   2.349  0.4066 -0.8277  0.4450
 1705ntf    fn413418   1.179   1.546   2.192  0.8202  0.1633 -0.1769
 1705ntf    on513419   1.099   1.906   2.195 -0.3086 -0.3428  0.2995
 1705ntf    on513420   1.160   1.787   1.988 -0.4683  0.0566 -0.1493
 1705ntf    on513421   0.750   1.592   2.066 -0.4110  0.5779  0.0997
 1705ntf    on513422   0.960   1.556   1.942  0.8049 -0.1580  0.4091
 1705ntf    fn413423   0.922   1.820   1.825 -0.9145 -0.6681 -0.5351
 1705ntf    fn413424   0.720   1.752   1.836  0.1404 -0.4477  0.0792
 1705ntf    fn413425   0.804   1.886   1.984 -0.0713  0.4227  0.4185
 1706ntf    cn113426   2.851   3.074   0.449  0.0685 -0.4784 -0.0361
 1706ntf    sn213427   2.851   3.013   0.620  0.3286  0.2472  0.2255
 1706ntf    nn313428   2.951   2.891   0.615 -0.0290 -0.0293 -0.2489
 1706ntf    sn213429   2.981   2.765   0.702 -0.0747  0.0215 -0.1595
 1706ntf    cn113430   3.156   2.738   0.658  0.0334 -0.0136  0.2831
 1706ntf    fn413431   2.971   3.094   0.398  0.0122  0.0187  0.0214
 1706ntf    fn413432   2.804   2.983   0.365 -0.2434 -0.3039 -0.0526
 1706ntf    fn413433   2.776   3.182   0.433  0.1911 -0.3129  0.4939
 1706ntf    on513434   2.898   3.121   0.703  0.3173  0.0830  0.4448
 1706ntf    on513435   2.714   2.976   0.641  0.3021 -0.0394 -0.4295
 1706ntf    on513436   2.910   2.650   0.652  0.2373 -0.0336 -0.4838
 1706ntf    on513437   2.986   2.787   0.844  0.3601 -0.6438 -0.0650
 1706ntf    fn413438   3.222   2.841   0.706  0.2466 -0.0770  0.1252
 1706ntf    fn413439   3.218   2.634   0.712 -0.1754 -0.2553  0.0633
 1706ntf    fn413440   3.179   2.733   0.528 -0.1617 -0.1134  0.2515
 1707ntf    cn113441   6.169   5.979   5.568  0.0675  0.2808  0.1987
 1707ntf    sn213442   6.287   5.965   5.706 -0.1468 -0.1661  0.3377
 1707ntf    nn313443   6.275   6.108   5.770 -0.4080  0.0383 -0.1595
 1707ntf    sn213444   6.196   6.161   5.896 -0.0132  0.0518  0.0817
 1707ntf    cn113445   6.319   6.114   6.022  0.2311  0.0873 -0.1431
 1707ntf    fn413446   6.205   6.068   5.477 -0.3766  0.4190  0.1543
 1707ntf    fn413447   6.142   5.863   5.511  0.3354 -0.1249  0.8803
 1707ntf    fn413448   6.048   6.016   5.607 -0.3225 -0.6354 -0.1240
 1707ntf    on513449   6.252   5.850   5.786 -0.2563  0.0377  0.5835
 1707ntf    on513450   6.409   5.953   5.631 -0.3129  0.1276  0.0164
 1707ntf    on513451   6.075   6.095   5.937  0.0934 -0.0208  0.2820
 1707ntf    on513452   6.197   6.305   5.896 -0.0834  0.0534 -0.0787
 1707ntf    fn413453   6.278   6.137   6.145  0.1896 -0.0337 -0.1336
 1707ntf    fn413454   6.349   5.985   6.012  0.2550  0.0530  0.3531
 1707ntf    fn413455   6.431   6.183   6.009  0.1129  0.4317  0.6111
 1708ntf    cn113456   5.944   0.400   4.375 -0.3309  0.2314 -0.1315
 1708ntf    sn213457   5.808   0.287   4.417 -0.1324  0.0869  0.1252
 1708ntf    nn313458   5.771   0.252   4.268 -0.1373  0.1248  0.1180
 1708ntf    sn213459   5.819   0.130   4.182 -0.0806  0.0213  0.2930
 1708ntf    cn113460   5.666   0.033   4.177 -0.0175 -0.0693  0.1130
 1708ntf    fn413461   6.005   0.440   4.486  0.1471 -0.1709 -0.2460
 1708ntf    fn413462   6.034   0.327   4.311  0.1249 -0.0689  0.8277
 1708ntf    fn413463   5.909   0.503   4.300  0.8919  0.2982 -0.6414
 1708ntf    on513464   5.876   0.188   4.496  0.1307  0.4617  0.3712
 1708ntf    on513465   5.722   0.383   4.480  0.1138 -0.0834  0.7341
 1708ntf    on513466   5.918   0.043   4.240  0.2287  0.1252 -0.0689
 1708ntf    on513467   5.835   0.173   4.045 -1.1482  0.1886  0.2152
 1708ntf    fn413468   5.681  -0.093   4.139 -0.5640 -0.0747 -0.1022
 1708ntf    fn413469   5.632   0.011   4.302 -0.0379 -0.7290 -0.0047
 1708ntf    fn413470   5.555   0.088   4.129  0.1861  0.1974 -0.0551
 1709ntf    cn113471   2.412   4.080   6.802 -0.4019 -0.2680 -0.0273
 1709ntf    sn213472   2.329   4.129   6.956  0.1350 -0.1081  0.2159
 1709ntf    nn313473   2.448   4.172   7.048 -0.0926  0.0945  0.4178
 1709ntf    sn213474   2.493   4.320   7.076  0.0334  0.1888 -0.2841
 1709ntf    cn113475   2.670   4.281   7.060  0.1687  0.6380  0.1149
 1709ntf    fn413476   2.342   4.077   6.690  0.0101 -0.9301 -0.2714
 1709ntf    fn413477   2.509   4.167   6.777 -0.5284  0.0698  0.6276
 1709ntf    fn413478   2.457   3.956   6.817 -0.0205 -0.0821  0.4166
 1709ntf    on513479   2.233   4.231   6.919  0.6048 -0.0218 -0.7935
 1709ntf    on513480   2.263   4.009   6.999 -1.2074  0.5344  0.0124
 1709ntf    on513481   2.481   4.364   7.212  0.5915 -0.0414 -0.1568
 1709ntf    on513482   2.460   4.421   6.979  0.2797  0.5197 -0.0242
 1709ntf    fn413483   2.719   4.199   7.151 -0.4213  0.3855  0.2065
 1709ntf    fn413484   2.697   4.224   6.944  0.0872 -0.6694  0.7227
 1709ntf    fn413485   2.747   4.389   7.069  0.4773  0.3989  0.3527
 1710ntf    cn113486   0.658   2.229   6.740 -0.1424  0.0039 -0.1832
 1710ntf    sn213487   0.517   2.302   6.651 -0.1593  0.2699  0.0610
 1710ntf    nn313488   0.409   2.190   6.658  0.1382 -0.0260 -0.0558
 1710ntf    sn213489   0.389   2.076   6.551 -0.1236  0.0502 -0.0896
 1710ntf    cn113490   0.308   1.950   6.654  0.3562 -0.2328 -0.0533
 1710ntf    fn413491   0.706   2.122   6.678  0.5300 -0.0155  0.3660
 1710ntf    fn413492   0.752   2.319   6.762 -0.2145  0.0635 -0.1157
 1710ntf    fn413493   0.610   2.193   6.858  0.0296  0.8077  0.1385
 1710ntf    on513494   0.485   2.412   6.739  0.5578  0.5090  0.0361
 1710ntf    on513495   0.570   2.337   6.521 -0.6408  0.0087 -0.2090
 1710ntf    on513496   0.502   1.993   6.516 -0.0824 -0.0236  0.2146
 1710ntf    on513497   0.280   2.105   6.461 -0.5825  0.6907  0.6505
 1710ntf    fn413498   0.177   1.965   6.669  0.4123 -0.1098  0.3469
 1710ntf    fn413499   0.311   1.825   6.612 -0.0265 -0.3074  0.1355
 1710ntf    fn413500   0.354   1.961   6.778 -0.0472  0.4400  0.0446
 1711ntf    cn113501   5.428   1.911   0.432  0.1171 -0.2192 -0.0043
 1711ntf    sn213502   5.330   1.892   0.279 -0.0777 -0.0223  0.0960
 1711ntf    nn313503   5.283   1.743   0.288 -0.5517  0.1111 -0.1518
 1711ntf    sn213504   5.365   1.620   0.234 -0.2656  0.1616  0.1589
 1711ntf    cn113505   5.298   1.624   0.065 -0.0606 -0.0440  0.0735
 1711ntf    fn413506   5.357   1.886   0.540  0.0395 -0.8908 -0.2048
 1711ntf    fn413507   5.539   1.839   0.443  0.3339  0.1109 -0.0209
 1711ntf    fn413508   5.474   2.033   0.450 -0.3655 -0.0952  0.4043
 1711ntf    on513509   5.219   1.977   0.313 -0.6466 -0.7055 -0.0557
 1711ntf    on513510   5.415   1.936   0.171 -0.0725 -0.4355 -0.0688
 1711ntf    on513511   5.311   1.497   0.286 -0.1532 -0.0750 -0.2779
 1711ntf    on513512   5.508   1.633   0.229 -0.3216  0.8709  0.2173
 1711ntf    fn413513   5.352   1.534  -0.017 -0.3789  0.3644 -0.5949
 1711ntf    fn413514   5.167   1.601   0.064 -0.0922  0.1407 -0.0458
 1711ntf    fn413515   5.313   1.740   0.004 -0.2558 -0.0046  0.0989
 1712ntf    cn113516   3.049   3.858   2.472 -0.1684  0.1338 -0.2613
 1712ntf    sn213517   2.927   3.935   2.583 -0.2924 -0.3225 -0.0747
 1712ntf    nn313518   2.943   3.838   2.705  0.6203  0.0150  0.0884
 1712ntf    sn213519   3.032   3.866   2.831  0.6947 -0.4755  0.1437
 1712ntf    cn113520   3.102   3.700   2.859 -0.0015 -0.7871  0.0764
 1712ntf    fn413521   3.173   3.878   2.512 -0.2243 -0.8020  0.4248
 1712ntf    fn413522   3.032   3.727   2.465  0.2311  0.0252  0.6687
 1712ntf    fn413523   3.041   3.907   2.350 -0.0477 -0.2321 -0.4193
 1712ntf    on513524   2.981   4.069   2.586 -0.2589 -0.3316 -0.2247
 1712ntf    on513525   2.801   3.915   2.517 -0.4127 -0.0258  0.0643
 1712ntf    on513526   2.948   3.896   2.944  0.0786 -0.0447 -0.4210
 1712ntf    on513527   3.141   3.958   2.819  0.4522 -0.2467 -0.3246
 1712ntf    fn413528   3.022   3.595   2.865 -0.0404 -0.7659 -0.0641
 1712ntf    fn413529   3.184   3.668   2.760 -0.3612  0.1581 -0.5479
 1712ntf    fn413530   3.176   3.695   2.968  0.0286 -0.5015  0.0694
 1713ntf    cn113531   0.650   5.283   0.651 -0.8406  0.1825 -0.0309
 1713ntf    sn213532   0.811   5.272   0.735 -0.6947  0.1510 -0.3147
 1713ntf    nn313533   0.895   5.336   0.619  0.1776  0.5068  0.5033
 1713ntf    sn213534   0.954   5.267   0.491 -0.2053 -0.0607  0.6296
 1713ntf    cn113535   1.131   5.297   0.520  0.0419 -0.1397 -0.7087
 1713ntf    fn413536   0.622   5.401   0.598  0.4919  0.1594 -0.8207
 1713ntf    fn413537   0.652   5.200   0.548  0.2994  0.2741 -0.0891
 1713ntf    fn413538   0.551   5.231   0.723 -0.2533 -0.3266  0.4159
 1713ntf    on513539   0.811   5.363   0.846  0.2660 -0.0834 -0.1215
 1713ntf    on513540   0.826   5.131   0.760 -0.5753  0.1815 -0.2185
 1713ntf    on513541   0.932   5.347   0.373  0.4770 -0.2501  0.3712
 1713ntf    on513542   0.951   5.123   0.487 -0.4268 -0.0519  0.4637
 1713ntf    fn413543   1.167   5.423   0.540 -0.2550 -0.0385 -0.7969
 1713ntf    fn413544   1.163   5.235   0.632 -0.1473  0.1801 -0.4746
 1713ntf    fn413545   1.219   5.244   0.437  0.4778  0.0726 -0.3854
 1714ntf    cn113546   3.131   4.606   1.140  0.1172 -0.4425  0.2269
 1714ntf    sn213547   3.202   4.773   1.131 -0.1791 -0.3394 -0.2392
 1714ntf    nn313548   3.231   4.808   1.281  1.1279 -0.1350 -0.5285
 1714ntf    sn213549   3.243   4.946   1.355  0.1986 -0.2770 -0.0916
 1714ntf    cn113550   3.424   4.961   1.339  0.2443 -0.5103  0.2127
 1714ntf    fn413551   3.076   4.560   1.028  0.5321  0.4052 -0.3403
 1714ntf    fn413552   3.220   4.513   1.167  0.1445 -0.5247 -0.1432
 1714ntf    fn413553   3.035   4.602   1.231  0.2799  0.8856  0.4882
 1714ntf    on513554   3.327   4.751   1.063 -0.0442 -0.3282  0.0050
 1714ntf    on513555   3.099   4.850   1.065  0.2265  0.4230 -0.0012
 1714ntf    on513556   3.241   4.926   1.497 -0.1878  0.2297 -0.0208
 1714ntf    on513557   3.203   5.069   1.290  0.7233 -0.0463  0.0074
 1714ntf    fn413558   3.455   4.942   1.212  0.0224  0.5881 -0.0087
 1714ntf    fn413559   3.469   5.079   1.377  0.5054 -0.4814 -0.1852
 1714ntf    fn413560   3.483   4.873   1.419  0.3801 -0.1099  0.5532
 1715ntf    cn113561   2.401   1.805   6.328 -0.1922 -0.4345  0.0220
 1715ntf    sn213562   2.573   1.844   6.373 -0.2651  0.3258 -0.3454
 1715ntf    nn313563   2.581   1.996   6.335 -0.4719  0.4389  0.0666
 1715ntf    sn213564   2.685   2.076   6.249 -0.1562  0.0444  0.0820
 1715ntf    cn113565   2.589   2.071   6.095 -0.0193 -0.3386  0.0080
 1715ntf    fn413566   2.356   1.688   6.371  0.3656 -0.5845  0.2101
 1715ntf    fn413567   2.322   1.899   6.377  0.6933  0.0409  0.5669
 1715ntf    fn413568   2.383   1.788   6.198 -0.0650  0.6376 -0.1446
 1715ntf    on513569   2.572   1.822   6.515  0.2210  0.0616 -0.3799
 1715ntf    on513570   2.649   1.753   6.290  0.4928  0.1090  0.5696
 1715ntf    on513571   2.804   2.001   6.218 -0.3513 -0.0758 -0.3843
 1715ntf    on513572   2.692   2.216   6.280  0.1142 -0.0013  0.2337
 1715ntf    fn413573   2.463   2.106   6.119  0.0003 -0.2911  0.0402
 1715ntf    fn413574   2.633   2.159   6.007 -0.2165  0.0475  0.2949
 1715ntf    fn413575   2.564   1.955   6.035 -0.5422  0.0963 -0.6387
 1716ntf    cn113576   5.023   5.587   3.634 -0.3670  0.2897  0.0737
 1716ntf    sn213577   4.921   5.605   3.484 -0.3749 -0.0875  0.0332
 1716ntf    nn313578   4.800   5.690   3.537 -0.1083 -0.0367  0.5704
 1716ntf    sn213579   4.777   5.845   3.552  0.0319  0.0507 -0.0450
 1716ntf    cn113580   4.696   5.878   3.393 -0.2203  0.0334  0.0797
 1716ntf    fn413581   5.135   5.523   3.607 -0.1662  0.5594  0.2679
 1716ntf    fn413582   5.060   5.704   3.681 -0.1113  0.0437  0.4897
 1716ntf    fn413583   4.962   5.525   3.734 -0.3376 -0.2614 -0.2409
 1716ntf    on513584   5.010   5.676   3.396 -0.0475 -0.1703  0.2950
 1716ntf    on513585   4.876   5.472   3.449 -0.3115 -0.2218  0.4545
 1716ntf    on513586   4.892   5.932   3.547 -0.3000  0.4855 -0.1985
 1716ntf    on513587   4.680   5.871   3.656 -0.0970 -0.5029 -0.0255
 1716ntf    fn413588   4.697   6.008   3.366 -0.6179 -0.0166 -0.1929
 1716ntf    fn413589   4.765   5.820   3.297 -0.1630 -0.2136  0.2679
 1716ntf    fn413590   4.571   5.835   3.385 -0.1833 -0.0610  0.0036
 1717ntf    cn113591   5.889   3.355   4.924 -0.0678 -0.2660  0.0814
 1717ntf    sn213592   5.742   3.382   4.821 -0.0088 -0.0479  0.0539
 1717ntf    nn313593   5.630   3.425   4.923  0.3267  0.0765  0.3689
 1717ntf    sn213594   5.485   3.366   4.929  0.1408  0.4777 -0.1133
 1717ntf    cn113595   5.379   3.488   4.845 -0.5808 -0.2007 -0.2067
 1717ntf    fn413596   5.921   3.469   4.982 -0.5008 -0.0409 -0.1170
 1717ntf    fn413597   5.854   3.276   5.024  0.5041 -0.2027  0.3365
 1717ntf    fn413598   5.998   3.299   4.873  0.0761  0.3113 -0.2524
 1717ntf    on513599   5.778   3.494   4.738  0.3503  0.0644  0.3611
 1717ntf    on513600   5.722   3.256   4.752 -0.9350  0.4227 -0.5632
 1717ntf    on513601   5.426   3.360   5.060 -0.0585 -0.0724 -0.2259
 1717ntf    on513602   5.461   3.244   4.855  0.1876  0.2327  0.2694
 1717ntf    fn413603   5.395   3.609   4.896 -0.0161 -0.5391  0.4584
 1717ntf    fn413604   5.409   3.499   4.717  0.2180  0.4247  0.0219
 1717ntf    fn413605   5.250   3.465   4.862 -0.5993 -0.0910 -0.2039
 1718ntf    cn113606   1.765   5.916   5.279 -0.0420  0.4236  0.0845
 1718ntf    sn213607   1.921   5.899   5.188 -0.0044 -0.0521  0.2378
 1718ntf    nn313608   1.863   5.871   5.044  0.7824 -0.2072 -0.0567
 1718ntf    sn213609   1.944   5.865   4.910  0.6033 -0.2477 -0.1632
 1718ntf    cn113610   1.920   5.688   4.878 -0.0712 -0.2617  0.3948
 1718ntf    fn413611   1.681   6.001   5.220 -0.2235  0.0707 -0.1700
 1718ntf    fn413612   1.698   5.802   5.290  0.2809  0.2393  0.1429
 1718ntf    fn413613   1.786   5.952   5.404 -0.7148  0.2185  0.2591
 1718ntf    on513614   1.983   6.028   5.205  0.0471 -0.0591  0.1049
 1718ntf    on513615   1.986   5.784   5.245 -0.5162 -0.4527  0.0231
 1718ntf    on513616   2.087   5.871   4.923  0.6019 -0.0752 -0.2232
 1718ntf    on513617   1.887   5.921   4.790  0.2876  0.3761  0.2710
 1718ntf    fn413618   1.965   5.657   4.758  0.4917  0.0413  0.5246
 1718ntf    fn413619   1.997   5.620   4.961 -0.0887 -0.7113  0.0459
 1718ntf    fn413620   1.793   5.651   4.886 -0.0669 -0.4595 -0.3758
 1719ntf    cn113621   1.972   0.378   3.029 -0.0720  0.2456 -0.1871
 1719ntf    sn213622   2.107   0.323   3.138 -0.3207  0.2912  0.1443
 1719ntf    nn313623   2.064   0.176   3.174  0.7780  0.0106  0.3714
 1719ntf    sn213624   2.026   0.111   3.312 -0.0248 -0.0613  0.1206
 1719ntf    cn113625   1.845   0.128   3.320 -0.0571 -0.3864  0.1068
 1719ntf    fn413626   1.849   0.351   3.069 -0.0727  0.2970 -0.1541
 1719ntf    fn413627   1.970   0.509   3.010  0.2294  0.2412 -0.2593
 1719ntf    fn413628   1.989   0.321   2.911 -0.3322 -0.5855  0.1689
 1719ntf    on513629   2.217   0.336   3.045  0.0202 -0.5519  0.4188
 1719ntf    on513630   2.108   0.414   3.250  0.2677  0.1178  0.2839
 1719ntf    on513631   2.059   0.180   3.434 -0.2083 -0.1423  0.2168
 1719ntf    on513632   2.039  -0.033   3.317 -0.1305 -0.0743  0.0443
 1719ntf    fn413633   1.797   0.079   3.433 -0.3020  0.1994  0.2618
 1719ntf    fn413634   1.802   0.251   3.299  0.6115 -0.0057  0.9204
 1719ntf    fn413635   1.790   0.057   3.223 -0.2327  0.3924 -0.3728
 1720ntf    cn113636   0.042   2.345   2.655 -0.4069  0.0258 -0.2033
 1720ntf    sn213637   0.018   2.513   2.590  0.1384 -0.0558 -0.6259
 1720ntf    nn313638   0.066   2.504   2.441 -0.2990 -0.3646 -0.7540
 1720ntf    sn213639   0.142   2.611   2.355 -0.0499  0.1368  0.0734
 1720ntf    cn113640   0.010   2.640   2.233 -0.0931  0.1642  0.1270
 1720ntf    fn413641  -0.007   2.343   2.778  0.3730 -0.0697  0.1100
 1720ntf    fn413642  -0.017   2.259   2.572 -0.5073  0.1942 -0.3077
 1720ntf    fn413643   0.170   2.313   2.663 -0.4516 -0.0085  0.3930
 1720ntf    on513644  -0.119   2.540   2.627  0.5075 -0.0209  0.7737
 1720ntf    on513645   0.121   2.580   2.665  0.0899 -0.6702  0.0066
 1720ntf    on513646   0.254   2.555   2.282 -0.4331 -0.0052 -0.4121
 1720ntf    on513647   0.162   2.740   2.417  0.1315 -0.0587  0.4244
 1720ntf    fn413648   0.060   2.657   2.112  0.2343 -0.4112  0.1769
 1720ntf    fn413649  -0.084   2.547   2.225 -0.0776  0.1117  0.5034
 1720ntf    fn413650  -0.058   2.753   2.249  0.2142  0.4115 -0.3070
 1721ntf    cn113651   4.002   1.530   0.453 -0.0515  0.2253  0.0323
 1721ntf    sn213652   4.019   1.350   0.472 -0.3225  0.1842 -0.1093
 1721ntf    nn313653   3.951   1.297   0.341 -0.4749 -0.4344  0.2144
 1721ntf    sn213654   4.004   1.218   0.216 -0.1147 -0.3073  0.2848
 1721ntf    cn113655   4.045   1.356   0.104  0.2931 -0.5975  0.0782
 1721ntf    fn413656   3.875   1.565   0.461 -0.3303 -0.6526 -0.4170
 1721ntf    fn413657   4.068   1.592   0.550 -0.0640  0.2664  0.0146
 1721ntf    fn413658   4.054   1.570   0.339 -0.0570  0.0639 -0.0280
 1721ntf    on513659   4.161   1.330   0.486 -0.3050  0.0083 -0.5296
 1721ntf    on513660   3.941   1.314   0.588  0.5265 -0.3814  0.2981
 1721ntf    on513661   3.910   1.138   0.141  0.0531 -0.1971 -0.0461
 1721ntf    on513662   4.135   1.161   0.232  0.0513 -0.0047  0.0199
 1721ntf    fn413663   4.141   1.431   0.155  0.5860 -0.2266 -0.9897
 1721ntf    fn413664   4.086   1.323  -0.018 -0.0042 -0.3461 -0.0887
 1721ntf    fn413665   3.937   1.429   0.084  0.5850 -0.1177  0.2355
 1722ntf    cn113666   4.670   3.555   1.072 -0.1905 -0.2078 -0.3048
 1722ntf    sn213667   4.840   3.604   1.032 -0.1453  0.0335  0.1774
 1722ntf    nn313668   4.896   3.465   0.985 -0.2432 -0.0303  0.2506
 1722ntf    sn213669   4.995   3.418   0.873  0.1790  0.2158  0.5181
 1722ntf    cn113670   5.082   3.298   0.979  0.2372 -0.0975  0.1188
 1722ntf    fn413671   4.604   3.506   0.968 -0.6085  0.3959 -0.3306
 1722ntf    fn413672   4.674   3.468   1.171 -0.0066 -0.1000 -0.2190
 1722ntf    fn413673   4.596   3.659   1.109 -0.3943 -0.4345 -0.0721
 1722ntf    on513674   4.815   3.703   0.930 -0.7656 -0.1312  0.1648
 1722ntf    on513675   4.891   3.637   1.163  0.0629  0.0913  0.0828
 1722ntf    on513676   5.097   3.517   0.848 -0.0192  0.3954  0.4181
 1722ntf    on513677   4.946   3.331   0.769  0.0952 -0.3912  1.0578
 1722ntf    fn413678   5.000   3.211   1.035  0.1133 -0.2784 -0.3421
 1722ntf    fn413679   5.153   3.218   0.902  0.3272 -0.2842  0.3941
 1722ntf    fn413680   5.173   3.349   1.060  0.0779  0.1237  0.1607
 1723ntf    cn113681   6.224   1.577   4.735  0.4198 -0.4165  0.0321
 1723ntf    sn213682   6.284   1.579   4.563  0.0035  0.1016 -0.1099
 1723ntf    nn313683   6.318   1.430   4.529  0.0560  0.1047 -0.0689
 1723ntf    sn213684   6.233   1.318   4.459 -0.1275  0.3486 -0.2369
 1723ntf    cn113685   6.342   1.309   4.313  0.3559 -0.1606  0.1501
 1723ntf    fn413686   6.323   1.533   4.809  0.8768  0.5466  0.0067
 1723ntf    fn413687   6.192   1.697   4.780 -0.1029 -0.5201 -0.0546
 1723ntf    fn413688   6.120   1.497   4.757 -0.1403  0.3180  0.0939
 1723ntf    on513689   6.172   1.624   4.484 -0.4455  0.0479  0.4824
 1723ntf    on513690   6.400   1.664   4.559  0.1369 -0.0687  0.1069
 1723ntf    on513691   6.098   1.341   4.415 -0.4726 -0.1479  0.5271
 1723ntf    on513692   6.248   1.187   4.519 -0.0631  0.3209 -0.3129
 1723ntf    fn413693   6.304   1.209   4.235 -0.8949  0.0442  0.4645
 1723ntf    fn413694   6.335   1.416   4.236 -0.8996 -0.5003 -0.2368
 1723ntf    fn413695   6.469   1.296   4.346  0.3989  0.3310  0.1863
 1724ntf    cn113696   2.656   6.339   2.261 -0.5449  0.3115 -0.5151
 1724ntf    sn213697   2.732   6.502   2.233  0.0073  0.1261 -0.1081
 1724ntf    nn313698   2.839   6.508   2.349 -0.1374 -0.1211  0.0404
 1724ntf    sn213699   2.995   6.492   2.343 -0.1508 -0.1762 -0.1546
 1724ntf    cn113700   3.036   6.657   2.278 -0.0958  0.0430  0.4288
 1724ntf    fn413701   2.747   6.246   2.284 -0.9315 -0.1394 -0.7900
 1724ntf    fn413702   2.573   6.332   2.364 -0.2081 -0.6438 -0.3031
 1724ntf    fn413703   2.585   6.299   2.157 -0.7328  0.1182 -0.3139
 1724ntf    on513704   2.792   6.474   2.105  0.5631  0.0596  0.1633
 1724ntf    on513705   2.625   6.598   2.242 -0.4360 -0.3969  0.2494
 1724ntf    on513706   3.040   6.392   2.250  0.4274  0.3755 -0.4730
 1724ntf    on513707   3.057   6.491   2.473  0.3146  0.0115 -0.3754
 1724ntf    fn413708   3.167   6.671   2.265 -0.1384 -0.5567 -0.8920
 1724ntf    fn413709   2.988   6.690   2.159  0.0052 -0.5095  0.2308
 1724ntf    fn413710   2.991   6.745   2.365  0.1869  0.3164  0.2985
 1725ntf    cn113711   6.221   3.336   1.863  0.1388 -0.2653  0.5342
 1725ntf    sn213712   6.386   3.411   1.881  0.0978 -0.0215 -0.0873
 1725ntf    nn313713   6.388   3.518   1.767 -0.2430  0.1528  0.0667
 1725ntf    sn213714   6.462   3.657   1.751 -0.0906  0.0442 -0.1878
 1725ntf    cn113715   6.328   3.763   1.812 -0.1794  0.0269 -0.3513
 1725ntf    fn413716   6.132   3.419   1.914 -0.2042 -0.3256  0.0329
 1725ntf    fn413717   6.192   3.310   1.737 -0.2076  0.4966  0.4503
 1725ntf    fn413718   6.217   3.220   1.928  0.1381 -0.6853 -0.2022
 1725ntf    on513719   6.369   3.484   2.005 -0.3100  0.5911 -0.4972
 1725ntf    on513720   6.479   3.303   1.863  0.2842  0.0586  0.3747
 1725ntf    on513721   6.466   3.705   1.615 -0.7367  1.2235  0.1976
 1725ntf    on513722   6.581   3.669   1.830 -0.5197  0.2451  0.4347
 1725ntf    fn413723   6.339   3.888   1.768  0.0217  0.1387  0.0157
 1725ntf    fn413724   6.204   3.727   1.781 -0.2811 -0.1135  0.2097
 1725ntf    fn413725   6.325   3.775   1.944  0.5205 -0.0972 -0.3201
 1726ntf    cn113726   2.951   4.631   0.583 -0.0529 -0.3132 -0.3987
 1726ntf    sn213727   3.060   4.755   0.508 -0.0257  0.0298  0.1953
 1726ntf    nn313728   3.197   4.678   0.499 -0.4171 -0.5902 -0.6539
 1726ntf    sn213729   3.340   4.719   0.447 -0.3131 -0.1653 -0.0434
 1726ntf    cn113730   3.306   4.840   0.317 -0.1170 -0.2951 -0.2151
 1726ntf    fn413731   2.839   4.684   0.630  0.0956 -0.1662 -0.2111
 1726ntf    fn413732   2.940   4.521   0.510  0.3714 -0.6373  0.0162
 1726ntf    fn413733   3.005   4.581   0.693 -0.4408  0.1460  0.0101
 1726ntf    on513734   3.003   4.780   0.378  0.4073  0.5925  0.1111
 1726ntf    on513735   3.060   4.864   0.601 -0.5892  0.2810 -0.0975
 1726ntf    on513736   3.412   4.611   0.385 -0.4616 -0.2786 -0.0210
 1726ntf    on513737   3.410   4.803   0.540  0.2807 -0.8160  0.1061
 1726ntf    fn413738   3.259   4.954   0.364 -0.9555 -0.6683 -0.1195
 1726ntf    fn413739   3.410   4.880   0.245 -0.1955 -0.0735 -0.2074
 1726ntf    fn413740   3.217   4.803   0.226 -0.1505 -0.2211 -0.2131
 1727ntf    cn113741   6.416   1.950   5.009 -0.2196  0.1519  0.2365
 1727ntf    sn213742   6.439   2.122   5.064  0.3118  0.1700 -0.0327
 1727ntf    nn313743   6.596   2.121   5.063  0.3124 -0.7284 -0.3606
 1727ntf    sn213744   6.703   2.232   5.033 -0.2240 -0.1277 -0.0892
 1727ntf    cn113745   6.840   2.129   4.973  0.0723  0.0370  0.3072
 1727ntf    fn413746   6.428   1.872   5.115  0.0403  0.3248  0.3350
 1727ntf    fn413747   6.299   1.929   4.951 -0.3847  0.6196  0.3969
 1727ntf    fn413748   6.503   1.914   4.916 -0.0970  0.3706  0.2646
 1727ntf    on513749   6.376   2.191   4.954 -0.4830  0.7010  0.7351
 1727ntf    on513750   6.365   2.119   5.188 -0.1551 -0.3803 -0.3143
 1727ntf    on513751   6.773   2.296   5.141 -0.2984 -0.1764 -0.0122
 1727ntf    on513752   6.665   2.322   4.926  0.2239  0.3318  0.1364
 1727ntf    fn413753   6.790   2.030   4.900 -0.4652  0.5341 -0.0025
 1727ntf    fn413754   6.925   2.200   4.902 -0.0293 -0.1929 -0.0466
 1727ntf    fn413755   6.909   2.066   5.067  0.3136 -0.5006 -0.2254
 1728ntf    cn113756   3.718   0.071   2.844 -0.1758 -0.2381  0.1812
 1728ntf    sn213757   3.553   0.044   2.915 -0.1687 -0.1652  0.2252
 1728ntf    nn313758   3.553  -0.113   2.910  0.3709 -0.1625  0.1239
 1728ntf    sn213759   3.575  -0.216   3.026  0.1182 -0.0770  0.2485
 1728ntf    cn113760   3.629  -0.369   2.945  0.0986  0.0934 -0.0892
 1728ntf    fn413761   3.815   0.018   2.916  0.1167 -0.3777 -0.3134
 1728ntf    fn413762   3.714   0.014   2.725 -1.0005  0.3777 -0.1004
 1728ntf    fn413763   3.747   0.199   2.829 -0.0089 -0.2753  0.1805
 1728ntf    on513764   3.571   0.106   3.044 -0.1551  0.1179  0.0867
 1728ntf    on513765   3.459   0.107   2.826  0.1877  0.4671  0.2891
 1728ntf    on513766   3.445  -0.253   3.075  0.3017 -0.4411  0.4650
 1728ntf    on513767   3.680  -0.191   3.122 -0.3642 -0.1400  0.7947
 1728ntf    fn413768   3.552  -0.411   2.846  0.4089 -0.2552 -0.1894
 1728ntf    fn413769   3.752  -0.361   2.896  0.3174 -0.1526  0.4109
 1728ntf    fn413770   3.629  -0.465   3.036 -0.1392 -0.3958 -0.5973
 1729ntf    cn113771   0.489   0.901   1.958  0.1426  0.3083 -0.1148
 1729ntf    sn213772   0.440   1.001   1.814 -0.1501  0.0213 -0.2160
 1729ntf    nn313773   0.542   0.944   1.710  0.1968 -0.1920  0.2343
 1729ntf    sn213774   0.514   0.890   1.565 -0.2291 -0.0972  0.2820
 1729ntf    cn113775   0.640   0.980   1.470  0.0791 -0.2128  0.5787
 1729ntf    fn413776   0.393   0.903   2.050 -0.2609  0.3479 -0.5365
 1729ntf    fn413777   0.508   0.772   1.939  0.5610  0.4215 -0.4636
 1729ntf    fn413778   0.607   0.932   2.008  0.2579 -0.3132  0.0029
 1729ntf    on513779   0.299   0.976   1.796 -0.2312  0.3698 -0.0646
 1729ntf    on513780   0.473   1.135   1.856  0.2276 -0.0615 -0.2423
 1729ntf    on513781   0.388   0.931   1.507  0.0212  0.5665  0.2012
 1729ntf    on513782   0.543   0.749   1.554 -0.7429 -0.2472  0.7767
 1729ntf    fn413783   0.625   1.108   1.500  0.1872  0.0648 -0.5289
 1729ntf    fn413784   0.761   0.941   1.505  0.4143 -0.0901 -0.4156
 1729ntf    fn413785   0.637   0.966   1.339 -0.0923  0.1087  0.5483
 1730ntf    cn113786   3.226   0.691   0.997 -0.6834  0.1998  0.1908
 1730ntf    sn213787   3.153   0.809   0.880 -0.3637  0.2729  0.0645
 1730ntf    nn313788   3.229   0.945   0.903 -0.0709  0.0831  0.2212
 1730ntf    sn213789   3.323   1.027   0.809  0.0775 -0.0147  0.2831
 1730ntf    cn113790   3.431   1.097   0.938 -0.1249  0.4945  0.1791
 1730ntf    fn413791   3.171   0.571   0.995 -0.5183  0.1302 -0.2686
 1730ntf    fn413792   3.357   0.670   0.993 -0.9037 -1.3354  0.3526
 1730ntf    fn413793   3.204   0.737   1.119 -0.1639  0.0327  0.3493
 1730ntf    on513794   3.178   0.753   0.749 -0.9064 -0.5372  0.3002
 1730ntf    on513795   3.016   0.817   0.922 -0.2958 -0.3620  0.4047
 1730ntf    on513796   3.260   1.131   0.731  0.5752  0.2388  0.2128
 1730ntf    on513797   3.418   0.942   0.740  0.0822 -0.1661  0.4772
 1730ntf    fn413798   3.529   1.170   0.887  0.1660 -0.2296 -0.3168
 1730ntf    fn413799   3.357   1.179   1.010 -0.4431  0.2276  0.1608
 1730ntf    fn413800   3.485   1.012   1.024 -0.7390 -0.0996 -0.0080
 1731ntf    cn113801   6.234   5.066   3.139  0.3099 -0.2795  0.2657
 1731ntf    sn213802   6.305   5.198   3.242  0.3454 -0.1740  0.1039
 1731ntf    nn313803   6.442   5.136   3.287  0.3793 -0.4509 -0.3663
 1731ntf    sn213804   6.470   4.998   3.357  0.1807 -0.1317  0.3559
 1731ntf    cn113805   6.481   5.059   3.528 -0.2574  0.3622  0.2123
 1731ntf    fn413806   6.153   5.102   3.041  0.1810 -0.4254  0.3174
 1731ntf    fn413807   6.334   5.007   3.075 -0.1300 -0.4800 -0.2464
 1731ntf    fn413808   6.175   4.959   3.190 -0.0456 -0.4934 -0.5810
 1731ntf    on513809   6.318   5.315   3.158 -0.4638 -0.4921 -0.4770
 1731ntf    on513810   6.209   5.211   3.348 -0.3366  0.1192 -0.5388
 1731ntf    on513811   6.600   4.948   3.317  0.4781  0.4473  0.5781
 1731ntf    on513812   6.358   4.908   3.363 -0.4276  0.5907 -0.0335
 1731ntf    fn413813   6.440   5.183   3.546 -0.7515  0.2525 -0.1392
 1731ntf    fn413814   6.415   4.976   3.607  0.6074 -0.8004 -0.2480
 1731ntf    fn413815   6.601   5.065   3.584 -0.2257 -0.4404  0.2444
 1732ntf    cn113816   4.613   3.936   2.013 -0.1388 -0.4228 -0.0870
 1732ntf    sn213817   4.474   3.866   2.107 -0.1055 -0.1012  0.2032
 1732ntf    nn313818   4.389   3.994   2.138  0.0890  0.0826 -0.0213
 1732ntf    sn213819   4.406   4.095   2.257 -0.3196  0.0873  0.0349
 1732ntf    cn113820   4.255   4.049   2.347  0.0432 -0.3344  0.4327
 1732ntf    fn413821   4.685   4.019   2.087  0.3609 -0.3488 -0.6489
 1732ntf    fn413822   4.695   3.841   1.970  0.5808  0.4737 -0.7441
 1732ntf    fn413823   4.580   4.012   1.910 -0.0402  0.5454  0.5852
 1732ntf    on513824   4.404   3.797   2.001  0.2002 -0.0504 -0.0322
 1732ntf    on513825   4.528   3.794   2.219  0.2844  0.0310  0.0995
 1732ntf    on513826   4.376   4.232   2.223 -0.2265  0.2962  0.7758
 1732ntf    on513827   4.513   4.071   2.351 -0.4712  0.3587  0.2762
 1732ntf    fn413828   4.255   3.917   2.358  0.0172 -0.4249 -0.5891
 1732ntf    fn413829   4.242   4.106   2.466 -0.2378  0.8809 -0.1608
 1732ntf    fn413830   4.148   4.080   2.276  0.0250 -0.0121  0.6002
 1733ntf    cn113831   4.724   5.874   2.511  0.4951  0.0034  0.0664
 1733ntf    sn213832   4.857   5.787   2.600  0.0313 -0.3242  0.4442
 1733ntf    nn313833   4.862   5.843   2.747 -0.1508  0.4544  0.1567
 1733ntf    sn213834   4.956   5.941   2.825  0.5742 -0.2082  0.1231
 1733ntf    cn113835   5.044   5.828   2.937  0.5025  0.0956  0.4896
 1733ntf    fn413836   4.765   5.989   2.460 -0.1821  0.0504 -0.3811
 1733ntf    fn413837   4.667   5.808   2.412  0.7336  0.3848 -0.3307
 1733ntf    fn413838   4.629   5.907   2.598 -0.0612  0.2330 -0.6162
 1733ntf    on513839   4.798   5.657   2.581 -0.0087 -0.3205  0.5345
 1733ntf    on513840   4.970   5.814   2.515 -0.1106 -0.0982  0.3256
 1733ntf    on513841   4.889   6.032   2.915  0.4942 -0.3154  0.1714
 1733ntf    on513842   5.063   5.994   2.743  0.3145  0.1154 -0.0099
 1733ntf    fn413843   4.974   5.779   3.038 -0.5611  0.0199 -0.2646
 1733ntf    fn413844   5.096   5.723   2.874 -0.7935 -0.2032 -0.1219
 1733ntf    fn413845   5.149   5.882   2.997  0.2961  0.6015  0.4000
 1734ntf    cn113846   4.933   2.485   1.977  0.4191  0.1784  0.0758
 1734ntf    sn213847   4.778   2.401   2.022  0.3962  0.1290 -0.0919
 1734ntf    nn313848   4.842   2.265   2.069 -0.0782 -0.0352  0.0782
 1734ntf    sn213849   4.873   2.127   2.001 -0.0991  0.0376 -0.0793
 1734ntf    cn113850   4.795   2.010   2.116  0.5463 -0.1895  0.1344
 1734ntf    fn413851   4.921   2.613   1.945  0.0880  0.1163 -0.0587
 1734ntf    fn413852   5.009   2.485   2.085  0.3207  0.2787  0.1446
 1734ntf    fn413853   4.999   2.424   1.880  0.6596 -0.2657  0.5139
 1734ntf    on513854   4.732   2.482   2.132  0.5572  0.3827 -0.2116
 1734ntf    on513855   4.698   2.402   1.903  0.4683  0.0112 -0.1423
 1734ntf    on513856   5.015   2.101   2.010  0.0376  0.8347  0.1587
 1734ntf    on513857   4.816   2.100   1.871  0.1704  0.4081 -0.2752
 1734ntf    fn413858   4.664   2.033   2.117  0.6606  0.5171 -0.3897
 1734ntf    fn413859   4.821   1.882   2.093  0.1236 -0.1508 -0.6218
 1734ntf    fn413860   4.843   2.024   2.238  0.6141 -0.5245  0.1473
 1735ntf    cn113861   3.712   3.876   1.010 -0.2232 -0.3203 -0.1185
 1735ntf    sn213862   3.638   4.017   1.099 -0.0987 -0.1562 -0.2740
 1735ntf    nn313863   3.604   4.128   0.993 -0.0954  0.0710 -0.0378
 1735ntf    sn213864   3.696   4.233   0.921 -0.3718  0.2087 -0.1901
 1735ntf    cn113865   3.663   4.366   1.041 -0.7881  0.0872 -0.1672
 1735ntf    fn413866   3.617   3.792   0.976 -0.4254 -0.1983  0.1370
 1735ntf    fn413867   3.789   3.909   0.907 -0.5181  0.4132 -0.1094
 1735ntf    fn413868   3.793   3.808   1.090 -0.3254 -0.0421  0.2269
 1735ntf    on513869   3.517   3.953   1.144  0.2925 -0.8600 -0.2155
 1735ntf    on513870   3.735   4.059   1.197  0.3066 -0.4047 -0.5647
 1735ntf    on513871   3.633   4.266   0.796 -0.4531  0.4924 -0.0748
 1735ntf    on513872   3.836   4.201   0.922 -0.3798  0.1664 -0.3556
 1735ntf    fn413873   3.685   4.329   1.166 -0.0010  0.7002 -0.1200
 1735ntf    fn413874   3.744   4.466   1.011 -0.3861 -0.3060 -0.4118
 1735ntf    fn413875   3.538   4.409   1.038 -0.8178  0.0150  0.0525
 1736ntf    cn113876   1.461   1.706   0.570 -0.0343 -0.5125  0.3888
 1736ntf    sn213877   1.579   1.799   0.671  0.0293 -0.0992 -0.0602
 1736ntf    nn313878   1.631   1.890   0.553 -0.5025  0.1208 -0.1253
 1736ntf    sn213879   1.643   2.046   0.553  0.1977  0.0695 -0.0175
 1736ntf    cn113880   1.817   2.057   0.605  0.2181  0.1497 -0.1019
 1736ntf    fn413881   1.388   1.626   0.646  0.0187 -0.2726  0.6936
 1736ntf    fn413882   1.369   1.785   0.515  0.7562 -0.0972 -0.3626
 1736ntf    fn413883   1.509   1.638   0.467  0.2575  0.1233  0.1018
 1736ntf    on513884   1.488   1.853   0.769  0.1576  0.6914 -0.3669
 1736ntf    on513885   1.682   1.707   0.713  0.0009 -0.1195 -0.0342
 1736ntf    on513886   1.575   2.124   0.653 -0.0255  0.3140 -0.3572
 1736ntf    on513887   1.651   2.092   0.416  0.4150 -0.5303 -0.2091
 1736ntf    fn413888   1.860   2.182   0.598 -0.0830  0.2416 -0.3699
 1736ntf    fn413889   1.840   2.016   0.728  0.2050  0.3031 -0.0479
 1736ntf    fn413890   1.889   1.979   0.526  0.3013  0.5063 -0.3823
 1737ntf    cn113891   4.946   0.289   2.639 -0.1754 -0.1692 -0.0257
 1737ntf    sn213892   5.046   0.418   2.720 -0.3828  0.0935 -0.1830
 1737ntf    nn313893   5.155   0.443   2.610 -0.6580 -0.2159 -0.5264
 1737ntf    sn213894   5.206   0.559   2.517 -0.0508 -0.0914 -0.0411
 1737ntf    cn113895   5.367   0.499   2.458  0.0918 -0.1715  0.4234
 1737ntf    fn413896   4.853   0.237   2.717 -0.6790 -0.0422 -0.5362
 1737ntf    fn413897   4.881   0.333   2.532  0.1870  0.0243 -0.1670
 1737ntf    fn413898   5.028   0.192   2.605  0.3292  0.0747  0.4723
 1737ntf    on513899   4.953   0.527   2.732  0.1163  0.5100 -0.0546
 1737ntf    on513900   5.098   0.355   2.840  0.4581 -0.1850 -0.6847
 1737ntf    on513901   5.235   0.683   2.585  0.3822 -0.1718 -0.0800
 1737ntf    on513902   5.134   0.561   2.392  0.1699  0.1481 -0.1655
 1737ntf    fn413903   5.440   0.596   2.404 -0.0193 -0.1843  0.2492
 1737ntf    fn413904   5.445   0.446   2.550 -0.2608 -0.7605  0.3878
 1737ntf    fn413905   5.344   0.401   2.372  0.1022  0.2610 -0.0820
 1738ntf    cn113906   4.987   0.928   3.289 -0.0712 -0.1162 -0.3041
 1738ntf    sn213907   5.107   1.024   3.387 -0.1752 -0.3856  0.0912
 1738ntf    nn313908   5.016   1.121   3.470  0.4909 -0.1281  0.5237
 1738ntf    sn213909   4.985   1.114   3.624 -0.0340 -0.1143  0.4205
 1738ntf    cn113910   5.128   1.207   3.688  0.2067 -0.1920  0.0024
 1738ntf    fn413911   4.901   0.853   3.357 -0.2871  0.3329 -0.0753
 1738ntf    fn413912   4.910   1.005   3.214 -0.2470 -0.4204 -0.4356
 1738ntf    fn413913   5.037   0.847   3.198  0.0569  0.4680 -0.7557
 1738ntf    on513914   5.185   0.921   3.451  0.0723 -0.4086 -0.2458
 1738ntf    on513915   5.171   1.088   3.275 -0.3643 -0.3122  0.0255
 1738ntf    on513916   5.004   0.984   3.682  0.3950 -0.4488 -0.4521
 1738ntf    on513917   4.869   1.192   3.659 -0.3850 -0.5259  0.1718
 1738ntf    fn413918   5.249   1.163   3.658  0.3810  0.0673  0.3099
 1738ntf    fn413919   5.119   1.332   3.648 -0.0086 -0.1180  0.2744
 1738ntf    fn413920   5.142   1.200   3.820 -0.2545 -0.0534  0.0600
 1739ntf    cn113921   0.335   3.760   5.904  0.3460 -0.2024  0.2004
 1739ntf    sn213922   0.287   3.893   6.019  0.1477  0.0329 -0.1515
 1739ntf    nn313923   0.286   3.809   6.152  0.4079  0.3652  0.0639
 1739ntf    sn213924   0.391   3.787   6.266  0.1218 -0.3199  0.2043
 1739ntf    cn113925   0.291   3.867   6.395 -0.2522  0.0397 -0.3048
 1739ntf    fn413926   0.457   3.717   5.931  0.5060  0.2224  0.1602
 1739ntf    fn413927   0.256   3.655   5.915  0.2221 -0.1953 -0.5825
 1739ntf    fn413928   0.336   3.801   5.779 -0.5919  0.9048  0.5391
 1739ntf    on513929   0.387   3.995   5.999 -0.0912  0.2548 -0.2023
 1739ntf    on513930   0.155   3.922   5.969  0.1250  0.6945  0.2815
 1739ntf    on513931   0.512   3.865   6.251 -0.0772 -0.1320 -0.4383
 1739ntf    on513932   0.401   3.651   6.311 -0.1103 -0.5055 -0.2945
 1739ntf    fn413933   0.249   3.985   6.354  0.4878  0.1702 -0.7143
 1739ntf    fn413934   0.180   3.798   6.418 -0.5154  0.4164 -0.4482
 1739ntf    fn413935   0.355   3.890   6.509  0.5496 -0.1585 -0.7071
 1740ntf    cn113936   1.093   2.750   1.831  0.1122 -0.2346  0.0136
 1740ntf    sn213937   0.935   2.708   1.912  0.2229 -0.0090  0.3510
 1740ntf    nn313938   0.948   2.554   1.940  0.6216 -0.1734 -0.6778
 1740ntf    sn213939   0.843   2.445   1.896  0.3630 -0.1674 -0.0869
 1740ntf    cn113940   0.833   2.352   2.052  0.0767  0.3422  0.2011
 1740ntf    fn413941   1.119   2.665   1.733 -0.3024 -0.3181 -0.0242
 1740ntf    fn413942   1.070   2.869   1.779 -0.1061  0.1458  0.9518
 1740ntf    fn413943   1.199   2.744   1.910 -0.3178 -0.1525  0.6103
 1740ntf    on513944   0.942   2.790   2.030  0.5743  0.1772  0.2050
 1740ntf    on513945   0.840   2.740   1.808  0.6212 -0.8234 -0.2785
 1740ntf    on513946   0.897   2.346   1.806 -0.0973 -0.1973 -0.3337
 1740ntf    on513947   0.710   2.488   1.862  0.2286 -0.1746  0.4218
 1740ntf    fn413948   0.953   2.322   2.098  0.1387  0.3928  0.0725
 1740ntf    fn413949   0.769   2.416   2.149  0.0311  0.1624  0.2902
 1740ntf    fn413950   0.781   2.231   2.042  0.0610  0.3496  0.1925
 1741ntf    cn113951   4.942   1.999   2.600 -0.2811 -0.1073  0.3741
 1741ntf    sn213952   4.965   2.062   2.769 -0.0355  0.1006  0.2636
 1741ntf    nn313953   4.869   1.973   2.855 -0.2081 -0.4646 -0.5034
 1741ntf    sn213954   4.764   2.018   2.964  0.1574 -0.2828 -0.2251
 1741ntf    cn113955   4.769   1.889   3.091 -0.2908 -0.2262 -0.1485
 1741ntf    fn413956   5.017   1.893   2.575 -0.2101  0.0201  0.0403
 1741ntf    fn413957   4.814   1.973   2.581 -0.1786 -0.4594  0.1530
 1741ntf    fn413958   4.977   2.090   2.511 -0.0388 -0.2965  0.2765
 1741ntf    on513959   5.105   2.036   2.789 -0.0789  0.0282  0.4848
 1741ntf    on513960   4.931   2.202   2.756 -0.2798  0.0191  0.0017
 1741ntf    on513961   4.631   1.991   2.917 -0.1550 -0.0594  0.5173
 1741ntf    on513962   4.802   2.137   3.036  0.0423 -0.0537 -0.5378
 1741ntf    fn413963   4.883   1.889   3.158 -0.5275 -0.1669  0.2565
 1741ntf    fn413964   4.678   1.899   3.186  0.1032 -0.0857  0.2176
 1741ntf    fn413965   4.764   1.764   3.046 -0.1708 -0.0552 -0.6350
 1742ntf    cn113966   5.667   4.888   6.217  0.0208 -0.0175  0.1205
 1742ntf    sn213967   5.831   4.917   6.289  0.2088 -0.4347 -0.1355
 1742ntf    nn313968   5.784   5.027   6.391 -0.1199 -0.6691 -0.0329
 1742ntf    sn213969   5.733   5.017   6.539 -0.3862  0.5598 -0.0301
 1742ntf    cn113970   5.896   5.013   6.619 -0.4410 -0.4706  0.0387
 1742ntf    fn413971   5.569   4.841   6.292 -0.0834 -0.3060 -0.1935
 1742ntf    fn413972   5.618   4.995   6.155 -0.6156 -0.4053 -0.0529
 1742ntf    fn413973   5.681   4.792   6.127 -0.2391 -0.2253  0.3019
 1742ntf    on513974   5.881   4.792   6.342  0.1678 -0.2900  0.2524
 1742ntf    on513975   5.902   4.969   6.175  0.0084 -0.3956 -0.2433
 1742ntf    on513976   5.684   4.889   6.584 -0.1667  0.2451 -0.6714
 1742ntf    on513977   5.657   5.130   6.587 -0.4345  0.3794  0.3175
 1742ntf    fn413978   5.891   4.936   6.726  0.4312 -0.3653  0.1613
 1742ntf    fn413979   5.989   4.953   6.546  0.1892 -0.0777  0.5076
 1742ntf    fn413980   5.940   5.130   6.661 -0.6866 -0.4482  0.2357
 1743ntf    cn113981   6.399   5.086   4.288 -0.2297  0.2345  0.0800
 1743ntf    sn213982   6.296   5.214   4.211 -0.4322  0.0310  0.0128
 1743ntf    nn313983   6.364   5.343   4.268 -0.3225  0.0374 -0.1287
 1743ntf    sn213984   6.408   5.478   4.200  0.3858 -0.1585 -0.0683
 1743ntf    cn113985   6.574   5.495   4.272  0.1626 -0.1125  0.4425
 1743ntf    fn413986   6.496   5.056   4.204 -0.3493  0.0231  0.0187
 1743ntf    fn413987   6.450   5.133   4.401 -0.1567 -0.3675  0.3016
 1743ntf    fn413988   6.326   4.982   4.325 -0.7429  0.3724 -0.5219
 1743ntf    on513989   6.309   5.212   4.067 -1.1195  0.8098 -0.0722
 1743ntf    on513990   6.164   5.194   4.266 -0.1473 -0.5799  0.4769
 1743ntf    on513991   6.334   5.585   4.264 -0.8425 -0.8724 -0.2554
 1743ntf    on513992   6.437   5.483   4.059  0.3788  0.0039 -0.0645
 1743ntf    fn413993   6.640   5.604   4.235 -0.4777  0.0657 -0.1968
 1743ntf    fn413994   6.578   5.493   4.404  0.0904 -0.1104  0.4445
 1743ntf    fn413995   6.649   5.393   4.236  0.6565  0.2973  0.2879
 1744ntf    cn113996   5.052   4.900   6.686  0.3307 -0.0909 -0.0859
 1744ntf    sn213997   4.943   4.755   6.687  0.2696 -0.0434  0.2792
 1744ntf    nn313998   4.860   4.793   6.814 -0.0319 -0.1016  0.1015
 1744ntf    sn213999   4.710   4.838   6.812  0.0614  0.2627  0.7917
 1744ntf    cn114000   4.723   5.011   6.758  0.4721 -0.0476 -0.1187
 1744ntf    fn414001   5.002   5.013   6.637 -0.0910 -0.1817  0.1332
 1744ntf    fn414002   5.095   4.932   6.807  1.0327  0.0497 -0.3674
 1744ntf    fn414003   5.169   4.873   6.631  0.4136  0.1202 -0.0174
 1744ntf    on514004   4.867   4.766   6.565  0.4522  0.4894  0.2126
 1744ntf    on514005   5.036   4.644   6.687 -0.0766 -0.3398 -0.4206
 1744ntf    on514006   4.664   4.848   6.948 -0.2884 -0.1467  0.7086
 1744ntf    on514007   4.614   4.773   6.725 -0.4279  0.5009  1.1474
 1744ntf    fn414008   4.778   5.016   6.638  0.2391 -0.0112 -0.2239
 1744ntf    fn414009   4.604   5.066   6.746  0.6352  0.3528  0.0891
 1744ntf    fn414010   4.793   5.084   6.844 -0.5733 -0.0742  0.7718
 1745ntf    cn114011   0.710   6.072   1.495 -0.1998  0.1747 -0.2291
 1745ntf    sn214012   0.717   6.221   1.600  0.3293 -0.0334  0.0316
 1745ntf    nn314013   0.866   6.267   1.587  0.3175 -0.0771 -0.2569
 1745ntf    sn214014   0.957   6.358   1.677 -0.1028 -0.1624  0.2548
 1745ntf    cn114015   0.983   6.507   1.575  0.6174 -0.2621  0.2870
 1745ntf    fn414016   0.600   6.003   1.518  0.0424  0.0688  0.6751
 1745ntf    fn414017   0.714   6.095   1.365  0.2216 -0.6457 -0.3672
 1745ntf    fn414018   0.813   5.993   1.520 -0.0320  0.5806  0.3974
 1745ntf    on514019   0.621   6.313   1.546  0.3317  0.1699  0.3748
 1745ntf    on514020   0.676   6.177   1.732  0.0472  0.4413  0.1039
 1745ntf    on514021   1.093   6.311   1.675  0.2169  0.7384  0.2536
 1745ntf    on514022   0.897   6.407   1.799 -0.4157  0.0873  0.0033
 1745ntf    fn414023   1.067   6.495   1.475  0.0415  0.1132 -0.2477
 1745ntf    fn414024   0.872   6.554   1.521  0.8773  0.1926  0.1519
 1745ntf    fn414025   1.031   6.602   1.654  0.6432 -0.1289  0.1095
 1746ntf    cn114026   0.078   0.699   2.298 -0.0690 -0.2146  0.1009
 1746ntf    sn214027   0.067   0.520   2.267 -0.3303 -0.2214  0.2260
 1746ntf    nn314028  -0.044   0.509   2.157  0.2075 -0.2409 -0.3244
 1746ntf    sn214029  -0.029   0.507   2.001  0.1009  0.3669 -0.3451
 1746ntf    cn114030  -0.160   0.632   1.980 -0.2521  0.0845  0.1536
 1746ntf    fn414031   0.156   0.725   2.402  0.1499 -0.0587 -0.1008
 1746ntf    fn414032   0.136   0.761   2.197  0.6644 -0.3391  0.4409
 1746ntf    fn414033  -0.036   0.763   2.316 -0.0080 -0.1058  0.0952
 1746ntf    on514034   0.200   0.484   2.224 -0.5529 -0.4981 -0.2437
 1746ntf    on514035   0.018   0.466   2.391  0.6279 -0.1429  0.6481
 1746ntf    on514036  -0.075   0.386   1.937 -0.1539  0.0043  0.5070
 1746ntf    on514037   0.083   0.587   1.957  0.1182  0.4574 -0.1357
 1746ntf    fn414038  -0.266   0.593   2.049 -0.3009 -0.4839 -0.2324
 1746ntf    fn414039  -0.120   0.744   2.036  0.2082 -0.1792  0.3587
 1746ntf    fn414040  -0.199   0.656   1.855 -0.5773 -0.0164  0.2332
 1747ntf    cn114041   4.155   2.871   0.963 -0.6673  0.0622  0.0969
 1747ntf    sn214042   4.323   2.847   1.028 -0.6045 -0.1550 -0.1484
 1747ntf    nn314043   4.361   2.706   0.968  0.2674 -0.2292  0.5591
 1747ntf    sn214044   4.486   2.676   0.878  0.0311 -0.1612  0.2053
 1747ntf    cn114045   4.470   2.495   0.886 -0.1004 -0.1460  0.2920
 1747ntf    fn414046   4.073   2.786   1.021 -0.1460 -0.1711  0.5030
 1747ntf    fn414047   4.120   2.995   0.994 -0.4964  0.0797  0.2246
 1747ntf    fn414048   4.137   2.859   0.833  0.3424  0.2109 -0.0691
 1747ntf    on514049   4.380   2.959   0.957 -1.0370  0.0228 -0.2134
 1747ntf    on514050   4.313   2.852   1.172 -0.2662  0.1333 -0.1342
 1747ntf    on514051   4.615   2.700   0.939  0.2088 -0.2722 -0.1239
 1747ntf    on514052   4.471   2.695   0.736 -0.9611  0.4914  0.3888
 1747ntf    fn414053   4.356   2.454   0.833  0.0598 -0.0932 -0.0998
 1747ntf    fn414054   4.569   2.434   0.822  0.2216  0.4460  0.2200
 1747ntf    fn414055   4.470   2.449   1.010 -0.2057 -0.1695  0.2828
 1748ntf    cn114056   6.505   4.766   0.801  0.1570  0.1355 -0.3867
 1748ntf    sn214057   6.396   4.841   0.925  0.1063 -0.4834 -0.0545
 1748ntf    nn314058   6.390   4.993   0.888 -0.0348 -0.3495  0.5095
 1748ntf    sn214059   6.360   5.118   0.978 -0.1598 -0.1044  0.1280
 1748ntf    cn114060   6.192   5.156   0.919 -0.0512  0.3094  0.0818
 1748ntf    fn414061   6.624   4.823   0.795  0.2246  0.0567  0.1822
 1748ntf    fn414062   6.534   4.638   0.822  0.0376  0.0485 -0.7489
 1748ntf    fn414063   6.454   4.783   0.680  0.1509 -0.1756 -0.4302
 1748ntf    on514064   6.268   4.779   0.901  0.0980 -0.3131 -0.4431
 1748ntf    on514065   6.473   4.807   1.043 -0.2847 -0.2654  0.2640
 1748ntf    on514066   6.432   5.234   0.932 -0.0950 -0.2464 -0.1301
 1748ntf    on514067   6.359   5.094   1.120 -0.5814 -0.5698  0.0497
 1748ntf    fn414068   6.208   5.177   0.790 -0.0365 -0.0642  0.0232
 1748ntf    fn414069   6.099   5.064   0.942  0.2252 -0.0001 -0.0472
 1748ntf    fn414070   6.134   5.266   0.965  0.1618  0.3607  0.2300
 1749ntf    cn114071   1.166   0.576   2.622 -0.0792  0.1710 -0.6258
 1749ntf    sn214072   1.205   0.457   2.491  0.2325 -0.2463 -0.1601
 1749ntf    nn314073   1.330   0.382   2.550  0.0855 -0.0631  0.3873
 1749ntf    sn214074   1.480   0.426   2.551 -0.0325  0.3651 -0.1309
 1749ntf    cn114075   1.507   0.394   2.728 -0.4524  0.1924 -0.0974
 1749ntf    fn414076   1.061   0.653   2.599 -0.2138  0.0708 -0.3630
 1749ntf    fn414077   1.146   0.510   2.735  0.7768  0.3233 -0.3773
 1749ntf    fn414078   1.268   0.657   2.645  0.1063 -0.2862  0.2349
 1749ntf    on514079   1.085   0.377   2.488  0.1103 -0.0840  0.3369
 1749ntf    on514080   1.235   0.535   2.373 -0.2909 -0.1063 -0.2023
 1749ntf    on514081   1.500   0.569   2.542  0.0360  0.4027  0.5573
 1749ntf    on514082   1.572   0.343   2.478 -0.4905 -0.5554  0.3316
 1749ntf    fn414083   1.414   0.456   2.800 -0.2310  0.2933  0.1055
 1749ntf    fn414084   1.507   0.269   2.771 -0.2862  0.3179  0.2776
 1749ntf    fn414085   1.626   0.446   2.753 -0.2485 -0.1185 -0.4121
 1750ntf    cn114086   6.152   2.876   3.502 -0.0806 -0.3584  0.1745
 1750ntf    sn214087   6.063   2.826   3.652  0.0517 -0.2231  0.2982
 1750ntf    nn314088   5.973   2.952   3.675 -0.1539 -0.4147  0.5613
 1750ntf    sn214089   5.822   2.977   3.707 -0.1443  0.2050  0.1406
 1750ntf    cn114090   5.845   3.033   3.878 -0.1464 -0.0202  0.2149
 1750ntf    fn414091   6.077   2.870   3.393  0.2351 -0.3947 -0.0405
 1750ntf    fn414092   6.193   3.002   3.504  0.8763 -0.6488 -0.4311
 1750ntf    fn414093   6.263   2.809   3.480 -0.0228 -0.1560 -0.1584
 1750ntf    on514094   5.985   2.712   3.608  0.4605 -0.2214 -0.4434
 1750ntf    on514095   6.166   2.806   3.751 -0.0630  0.1760  0.4996
 1750ntf    on514096   5.739   2.859   3.704  1.5398 -0.9970 -0.5284
 1750ntf    on514097   5.766   3.099   3.654  0.0795  0.6242  0.8520
 1750ntf    fn414098   5.926   2.953   3.946  0.2872  0.4012  0.1988
 1750ntf    fn414099   5.904   3.151   3.879  0.3276 -0.2366 -0.8623
 1750ntf    fn414100   5.723   3.035   3.929 -0.1588  0.5353  0.1700
 1751ntf    cn114101   2.735   0.989   1.800  0.3231  0.2375  0.3720
 1751ntf    sn214102   2.792   1.157   1.761 -0.0549  0.3340  0.2269
 1751ntf    nn314103   2.893   1.128   1.645 -0.5654 -0.1633 -0.0959
 1751ntf    sn214104   2.952   1.216   1.529  0.4691 -0.0861  0.4714
 1751ntf    cn114105   3.122   1.159   1.500  0.4215 -0.0748  0.1632
 1751ntf    fn414106   2.705   0.965   1.926  0.1149  0.2456  0.3242
 1751ntf    fn414107   2.626   0.948   1.737  0.7907 -0.2540 -0.1299
 1751ntf    fn414108   2.825   0.897   1.770  0.5168  0.6691 -0.4111
 1751ntf    on514109   2.672   1.235   1.744  0.0403  0.4543  0.0998
 1751ntf    on514110   2.857   1.187   1.886 -0.4932  0.9015  0.3234
 1751ntf    on514111   2.967   1.355   1.564  0.0840  0.1711 -0.3373
 1751ntf    on514112   2.885   1.193   1.403 -0.2675 -0.2098  0.8800
 1751ntf    fn414113   3.219   1.225   1.560  0.2788 -0.3595  0.7117
 1751ntf    fn414114   3.129   1.038   1.552  0.3241  0.2278  0.8908
 1751ntf    fn414115   3.165   1.153   1.375 -0.4856  0.4587 -0.1793
 1752ntf    cn114116   4.080   0.531   2.888  0.2633  0.1395  0.0442
 1752ntf    sn214117   4.128   0.555   2.714 -0.0426 -0.1818 -0.0840
 1752ntf    nn314118   4.097   0.708   2.709  0.5437 -0.0532  0.1737
 1752ntf    sn214119   4.181   0.836   2.746  0.3464  0.0821  0.1599
 1752ntf    cn114120   4.253   0.868   2.583  0.0982 -0.4556 -0.0591
 1752ntf    fn414121   4.061   0.402   2.913 -0.2260  0.2365  0.1809
 1752ntf    fn414122   4.173   0.576   2.971  0.2455  0.0815  0.0959
 1752ntf    fn414123   3.969   0.596   2.918  0.3564  0.2700  0.1075
 1752ntf    on514124   4.267   0.521   2.702 -0.2014 -0.7284 -0.4616
 1752ntf    on514125   4.038   0.470   2.640 -0.6237  0.1532  0.2270
 1752ntf    on514126   4.291   0.816   2.837  0.3687 -0.4616  0.0213
 1752ntf    on514127   4.093   0.948   2.767  0.1042 -0.0801  0.0249
 1752ntf    fn414128   4.160   0.876   2.489 -0.0809  0.2908  0.1790
 1752ntf    fn414129   4.303   0.990   2.575  0.0815 -0.4364  0.1367
 1752ntf    fn414130   4.343   0.783   2.537  0.4974  0.1533 -0.4125
 1753ntf    cn114131   5.295   2.204   1.225  0.3281  0.2101  0.3659
 1753ntf    sn214132   5.450   2.109   1.233  0.1649 -0.0745  0.1913
 1753ntf    nn314133   5.485   2.142   1.383  0.0404  0.4908  0.0988
 1753ntf    sn214134   5.472   2.049   1.509  0.2150 -0.1621 -0.3568
 1753ntf    cn114135   5.639   1.977   1.498  0.2515 -0.1394  0.0251
 1753ntf    fn414136   5.230   2.210   1.110 -0.0378  0.2765  0.5742
 1753ntf    fn414137   5.215   2.165   1.323  0.2764 -0.3797  0.0964
 1753ntf    fn414138   5.317   2.332   1.246  0.1326  0.3341 -0.1572
 1753ntf    on514139   5.414   1.972   1.207 -0.2280  0.1657 -0.5626
 1753ntf    on514140   5.549   2.168   1.146 -0.1489  0.1611 -0.0067
 1753ntf    on514141   5.381   1.938   1.502  0.4716 -0.3775 -0.2971
 1753ntf    on514142   5.476   2.121   1.634  0.0637 -0.3912 -0.2215
 1753ntf    fn414143   5.634   1.882   1.406 -0.7131 -0.3829  0.3184
 1753ntf    fn414144   5.726   2.070   1.461  0.0733 -0.0027 -0.0579
 1753ntf    fn414145   5.688   1.922   1.607 -0.0930 -0.0139  0.2469
 1754ntf    cn114146   2.441   1.240   0.958 -0.0347 -0.4159 -0.1645
 1754ntf    sn214147   2.308   1.122   0.923 -0.4366  0.1139 -0.4293
 1754ntf    nn314148   2.330   1.096   0.769  0.3198 -1.5247 -0.0629
 1754ntf    sn214149   2.249   1.142   0.643  0.4014  0.2173  0.4872
 1754ntf    cn114150   2.148   0.992   0.624  0.2740  0.3878 -0.1996
 1754ntf    fn414151   2.433   1.282   1.083  0.3843  0.1464 -0.3206
 1754ntf    fn414152   2.559   1.186   0.932 -0.2989 -0.9558 -0.2441
 1754ntf    fn414153   2.428   1.349   0.884  0.3927 -0.2150  0.0500
 1754ntf    on514154   2.334   1.006   1.003 -0.7941  0.0986 -0.3330
 1754ntf    on514155   2.188   1.194   0.957 -0.7012 -0.0760 -0.9422
 1754ntf    on514156   2.334   1.146   0.526 -0.4956  0.1355 -0.1819
 1754ntf    on514157   2.141   1.237   0.647  0.4355  0.2636  0.2994
 1754ntf    fn414158   2.062   0.989   0.523 -0.2083 -0.7551  0.2258
 1754ntf    fn414159   2.231   0.892   0.599  0.0787  0.3288 -0.6274
 1754ntf    fn414160   2.082   0.953   0.732 -0.1165 -0.1691 -0.6274
 1755ntf    cn114161   3.535   3.568   4.758 -0.0449 -0.3976 -0.1800
 1755ntf    sn214162   3.620   3.727   4.735 -0.0693 -0.3255  0.2256
 1755ntf    nn314163   3.503   3.799   4.659  0.3751 -0.0367 -0.1888
 1755ntf    sn214164   3.466   3.951   4.652  0.0636 -0.1019  0.0208
 1755ntf    cn114165   3.444   3.961   4.472 -0.2776 -0.0678  0.0648
 1755ntf    fn414166   3.485   3.521   4.645 -0.2490 -0.0794 -0.2217
 1755ntf    fn414167   3.621   3.476   4.800  0.1443 -0.1439 -0.0052
 1755ntf    fn414168   3.444   3.575   4.853  0.1947  0.1748  0.0115
 1755ntf    on514169   3.644   3.768   4.872  0.1214  0.3575 -0.0127
 1755ntf    on514170   3.739   3.701   4.658 -0.4358 -0.1817 -0.3951
 1755ntf    on514171   3.569   4.048   4.684  0.4023 -0.5283  0.2402
 1755ntf    on514172   3.335   3.977   4.705  0.0429 -0.5551  0.1953
 1755ntf    fn414173   3.393   3.851   4.418 -0.1585 -0.2293  0.2782
 1755ntf    fn414174   3.376   4.067   4.432 -0.0188 -0.0828 -0.4139
 1755ntf    fn414175   3.564   3.974   4.419 -0.4889  0.4475 -0.2937
 1756ntf    cn114176   3.082   2.509   0.039  0.6101  0.2568 -0.3124
 1756ntf    sn214177   3.232   2.576  -0.037  0.6877 -0.0178 -0.4020
 1756ntf    nn314178   3.344   2.534   0.065 -0.1719  0.4250  0.7444
 1756ntf    sn214179   3.424   2.615   0.172  0.2238  0.0783  0.7162
 1756ntf    cn114180   3.587   2.629   0.093 -0.0143 -0.0231  0.2092
 1756ntf    fn414181   3.080   2.380   0.072  0.3906  0.2948 -0.1705
 1756ntf    fn414182   3.043   2.569   0.149  0.1305 -0.2833 -0.1803
 1756ntf    fn414183   2.975   2.515  -0.039 -0.0995 -0.2271  0.6032
 1756ntf    on514184   3.234   2.501  -0.161 -0.3427  0.4834 -0.7321
 1756ntf    on514185   3.198   2.716  -0.041 -0.1466 -0.2215 -0.5778
 1756ntf    on514186   3.452   2.541   0.292  0.0470 -0.4189  0.4519
 1756ntf    on514187   3.373   2.749   0.188  0.0550 -0.0365  1.1578
 1756ntf    fn414188   3.670   2.708   0.159  0.2161 -0.1263  0.0467
 1756ntf    fn414189   3.646   2.510   0.093  0.2386  0.1035  0.5000
 1756ntf    fn414190   3.593   2.667  -0.034  0.5259  0.2667  0.3197
 1757ntf    cn114191   4.505   2.922   5.660 -0.1638 -0.0617  0.4035
 1757ntf    sn214192   4.645   2.978   5.762  0.2496 -0.2725 -0.0411
 1757ntf    nn314193   4.685   3.099   5.670  0.0386 -0.3404 -0.2248
 1757ntf    sn214194   4.833   3.148   5.657 -0.0975  0.2235  0.2760
 1757ntf    cn114195   4.845   3.101   5.481 -0.1413  0.6711  0.1520
 1757ntf    fn414196   4.425   2.837   5.722  0.1095 -0.5889  0.0486
 1757ntf    fn414197   4.423   3.020   5.627 -0.2881 -0.0883  0.6329
 1757ntf    fn414198   4.541   2.859   5.549  0.3930  0.0443  0.5213
 1757ntf    on514199   4.583   3.014   5.887  1.1724  0.0405  0.3308
 1757ntf    on514200   4.731   2.863   5.765  0.4412 -0.1173  0.3918
 1757ntf    on514201   4.943   3.071   5.710  0.4522  0.5682 -0.3478
 1757ntf    on514202   4.859   3.290   5.661 -0.1933  0.2512 -0.0414
 1757ntf    fn414203   4.966   3.118   5.431  0.1984 -0.4751  0.5618
 1757ntf    fn414204   4.812   2.974   5.467  0.1199  0.6045  0.1376
 1757ntf    fn414205   4.762   3.180   5.415 -0.4172 -0.3117 -0.6900
 1758ntf    cn114206   2.184   4.684   1.051  0.2970 -0.3651  0.4634
 1758ntf    sn214207   2.285   4.835   1.059  0.0978 -0.2084  0.0869
 1758ntf    nn314208   2.422   4.773   1.105  0.5073  0.4686 -0.2095
 1758ntf    sn214209   2.482   4.733   1.245  0.1276  0.0277 -0.1714
 1758ntf    cn114210   2.558   4.578   1.190  0.0212  0.0766 -0.4575
 1758ntf    fn414211   2.156   4.636   1.171  0.2376 -0.1328  0.5423
 1758ntf    fn414212   2.069   4.704   0.989  0.4380 -0.1649  0.2637
 1758ntf    fn414213   2.248   4.592   0.981 -0.1498 -0.5213  0.2528
 1758ntf    on514214   2.301   4.876   0.922  0.7418  0.0384  0.2337
 1758ntf    on514215   2.211   4.910   1.157  0.0204  0.3058 -0.3663
 1758ntf    on514216   2.397   4.671   1.344 -0.0908  0.5502 -0.0285
 1758ntf    on514217   2.587   4.823   1.283  0.4190 -0.4359  0.1298
 1758ntf    fn414218   2.470   4.482   1.166  0.0207 -0.0475  0.0285
 1758ntf    fn414219   2.630   4.584   1.079 -0.1391 -0.5967 -0.6053
 1758ntf    fn414220   2.632   4.514   1.279 -0.2838 -0.3443 -0.5021
 1759ntf    cn114221   4.489   0.393   4.445  0.0560 -0.1014 -0.0934
 1759ntf    sn214222   4.425   0.293   4.583 -0.0281 -0.0253 -0.0769
 1759ntf    nn314223   4.319   0.384   4.654 -0.1847 -0.0674 -0.2557
 1759ntf    sn214224   4.162   0.377   4.643 -0.1789  0.3008 -0.5842
 1759ntf    cn114225   4.128   0.444   4.478 -0.6836  0.2466 -0.5019
 1759ntf    fn414226   4.395   0.417   4.355 -0.1776 -0.3143  0.0909
 1759ntf    fn414227   4.530   0.512   4.484 -0.1837 -0.0278 -0.0621
 1759ntf    fn414228   4.590   0.332   4.386 -0.0877 -0.1441 -0.2945
 1759ntf    on514229   4.366   0.177   4.522 -0.7827 -0.0649  0.7018
 1759ntf    on514230   4.547   0.285   4.660  0.3228 -0.4427 -0.6716
 1759ntf    on514231   4.116   0.477   4.736  0.0077 -0.7925  0.7162
 1759ntf    on514232   4.109   0.244   4.658  0.2437  0.1957  0.0102
 1759ntf    fn414233   4.011   0.506   4.467 -0.5870  0.5207 -0.0178
 1759ntf    fn414234   4.211   0.542   4.446  0.4551 -0.2895  0.7278
 1759ntf    fn414235   4.138   0.350   4.386  0.2973 -0.4572  0.3123
 1760ntf    cn114236   0.149   0.950   3.864 -0.1238 -0.0200  0.1892
 1760ntf    sn214237   0.136   0.910   4.041 -0.3130 -0.0601  0.1668
 1760ntf    nn314238  -0.018   0.884   4.058 -0.3170 -0.0433  0.1587
 1760ntf    sn214239  -0.096   0.754   4.015  0.2188 -0.1943 -0.3711
 1760ntf    cn114240  -0.111   0.670   4.175  0.1369  0.0947 -0.2269
 1760ntf    fn414241   0.177   1.078   3.848  0.0399 -0.0094  0.5447
 1760ntf    fn414242   0.251   0.896   3.799 -0.2538  0.3777 -0.3401
 1760ntf    fn414243   0.043   0.934   3.787  0.0662 -0.0561 -0.0627
 1760ntf    on514244   0.219   0.795   4.067  0.1355  0.2445  0.0973
 1760ntf    on514245   0.175   1.034   4.104 -0.5030 -0.1421  0.4483
 1760ntf    on514246  -0.031   0.668   3.919 -0.2978 -0.1120 -0.7974
 1760ntf    on514247  -0.232   0.790   3.985  0.2646  0.3088  0.0068
 1760ntf    fn414248  -0.190   0.735   4.259  0.1661  0.3884 -0.4256
 1760ntf    fn414249  -0.171   0.553   4.158 -0.4763  0.3935 -0.1340
 1760ntf    fn414250   0.006   0.659   4.235 -0.1761  0.4454  0.4709
 1761ntf    cn114251   0.326   2.961   6.193  0.1934 -0.2669 -0.4398
 1761ntf    sn214252   0.505   2.949   6.162  0.2245  0.1662 -0.4342
 1761ntf    nn314253   0.516   2.793   6.173  0.0941  0.1708 -0.2161
 1761ntf    sn214254   0.521   2.702   6.044  0.1731  0.0205 -0.1074
 1761ntf    cn114255   0.549   2.538   6.117  0.1429  0.2228  0.3671
 1761ntf    fn414256   0.263   2.891   6.101 -0.1895 -0.1433 -0.2711
 1761ntf    fn414257   0.294   2.906   6.309  0.7542 -0.6607 -0.4681
 1761ntf    fn414258   0.284   3.086   6.189 -0.2293 -0.3527  0.8413
 1761ntf    on514259   0.529   2.997   6.029 -0.1889  0.0420 -0.5537
 1761ntf    on514260   0.570   3.026   6.266  0.1120  0.1405 -0.3443
 1761ntf    on514261   0.630   2.712   5.951  0.2455  0.0506 -0.0189
 1761ntf    on514262   0.389   2.680   5.990  0.3194 -1.2434  0.0203
 1761ntf    fn414263   0.675   2.515   6.151  0.1872  0.1461  0.1573
 1761ntf    fn414264   0.474   2.520   6.225 -0.6330  0.2326 -0.1581
 1761ntf    fn414265   0.513   2.441   6.033  0.3930  0.5100 -0.0770
 1762ntf    cn114266   4.207   6.316   5.315 -0.0152 -0.2673  0.1627
 1762ntf    sn214267   4.347   6.258   5.416 -0.2264  0.0701  0.6579
 1762ntf    nn314268   4.461   6.241   5.308  0.0291  0.0566  0.9284
 1762ntf    sn214269   4.601   6.311   5.319  0.0920  0.0913 -0.0394
 1762ntf    cn114270   4.645   6.339   5.145  0.2295  0.1447  0.0040
 1762ntf    fn414271   4.095   6.342   5.380  0.2708  0.2068  0.4753
 1762ntf    fn414272   4.241   6.426   5.250 -0.8722 -0.3658 -0.4573
 1762ntf    fn414273   4.180   6.225   5.224  0.8339 -0.3079 -0.0598
 1762ntf    on514274   4.364   6.365   5.511 -0.2218  0.5588  0.1127
 1762ntf    on514275   4.312   6.127   5.465 -0.3368 -0.2474 -0.2335
 1762ntf    on514276   4.706   6.225   5.367  0.4923  0.5291 -0.1278
 1762ntf    on514277   4.610   6.451   5.352  0.0938  0.3151 -0.9438
 1762ntf    fn414278   4.556   6.412   5.079 -0.0177  0.0551  0.2365
 1762ntf    fn414279   4.762   6.399   5.133  0.3478 -0.1141 -0.1381
 1762ntf    fn414280   4.651   6.228   5.073  0.2449 -0.1666  0.4808
 1763ntf    cn114281   0.224   2.947   5.093 -0.2774  0.2260  0.0456
 1763ntf    sn214282   0.340   3.001   5.221 -0.3977  0.1287  0.1959
 1763ntf    nn314283   0.384   2.865   5.288  0.2608  0.0541 -0.3755
 1763ntf    sn214284   0.525   2.832   5.348  0.1251  0.0425 -0.0627
 1763ntf    cn114285   0.610   2.764   5.203 -0.1543 -0.2140 -0.1065
 1763ntf    fn414286   0.208   3.050   5.011 -0.1987  0.2097  0.0098
 1763ntf    fn414287   0.270   2.841   5.029  0.1473  0.6790 -0.4075
 1763ntf    fn414288   0.106   2.916   5.144 -0.3992 -0.0830 -0.4124
 1763ntf    on514289   0.442   3.057   5.135 -0.2295  0.2657  0.4816
 1763ntf    on514290   0.265   3.090   5.305  0.0259  0.5793  0.1039
 1763ntf    on514291   0.522   2.720   5.439 -0.2434 -0.3169 -0.5157
 1763ntf    on514292   0.599   2.949   5.388  0.0002  0.0405  0.1805
 1763ntf    fn414293   0.735   2.732   5.232 -0.1911  0.1288  0.4293
 1763ntf    fn414294   0.564   2.645   5.167 -0.0737 -0.2215 -0.1866
 1763ntf    fn414295   0.620   2.848   5.101  0.0595 -0.2637 -0.1268
 1764ntf    cn114296   3.876   4.791   1.654  0.1862  0.0198 -0.2607
 1764ntf    sn214297   4.048   4.738   1.626  0.2420  0.1532 -0.1674
 1764ntf    nn314298   4.015   4.633   1.514 -0.0145  0.0481  0.0058
 1764ntf    sn214299   3.932   4.500   1.525  0.0716 -0.0075 -0.0136
 1764ntf    cn114300   3.778   4.533   1.434 -0.0527  0.0691  0.2243
 1764ntf    fn414301   3.796   4.690   1.682  0.6105 -0.1745  0.2801
 1764ntf    fn414302   3.863   4.882   1.749  0.9276  0.3944 -0.5059
 1764ntf    fn414303   3.833   4.846   1.541  0.1376  0.4267 -0.0446
 1764ntf    on514304   4.115   4.859   1.585  0.1918  0.0655 -0.5159
 1764ntf    on514305   4.095   4.679   1.749 -0.1473  0.3430  0.0714
 1764ntf    on514306   3.901   4.452   1.657  0.0640 -0.5671 -0.2182
 1764ntf    on514307   3.990   4.407   1.431 -1.0459 -0.0730 -0.6483
 1764ntf    fn414308   3.682   4.453   1.477 -0.1939 -0.1718 -0.5304
 1764ntf    fn414309   3.743   4.656   1.471  0.1714  0.0500  0.5050
 1764ntf    fn414310   3.789   4.532   1.302 -0.4630  0.0159  0.1904
 1765ntf    cn114311   4.011   0.163   6.645 -0.3720 -0.2360 -0.1735
 1765ntf    sn214312   3.925   0.216   6.795  0.3180  0.4569 -0.0175
 1765ntf    nn314313   4.003   0.349   6.824  0.5263  0.3414 -0.0504
 1765ntf    sn214314   4.125   0.355   6.924  0.3279  0.0952  0.2065
 1765ntf    cn114315   4.146   0.535   6.938  0.1857  0.1400 -0.1280
 1765ntf    fn414316   4.115   0.088   6.680 -0.5127 -0.0117  0.7364
 1765ntf    fn414317   3.941   0.087   6.562 -0.1720 -0.5312 -0.0748
 1765ntf    fn414318   4.057   0.266   6.574  0.6703 -0.4641  0.1454
 1765ntf    on514319   3.787   0.233   6.756  0.1457 -0.2787  0.2605
 1765ntf    on514320   3.956   0.112   6.889 -0.6866  0.6215  0.5149
 1765ntf    on514321   4.247   0.298   6.872 -0.0189 -0.3048 -0.1894
 1765ntf    on514322   4.089   0.308   7.055 -0.7855  0.4031  0.0260
 1765ntf    fn414323   4.131   0.602   6.826 -0.4272  1.1515  0.5471
 1765ntf    fn414324   4.065   0.591   7.026  0.2571  0.5770 -0.3381
 1765ntf    fn414325   4.261   0.578   6.987  0.0417  0.1911  0.1664
 1766ntf    cn114326   0.359   1.676   2.621  0.2677 -0.1029  0.2379
 1766ntf    sn214327   0.492   1.745   2.517  0.2702 -0.2021  0.1754
 1766ntf    nn314328   0.461   1.895   2.553 -0.5492 -0.3669  0.1838
 1766ntf    sn214329   0.432   2.014   2.456 -0.0728 -0.1297  0.3297
 1766ntf    cn114330   0.380   2.141   2.575  0.1519  0.5495 -0.2845
 1766ntf    fn414331   0.401   1.617   2.731  0.2007  0.3447  0.5050
 1766ntf    fn414332   0.273   1.770   2.657  0.3670  0.1810 -0.2515
 1766ntf    fn414333   0.278   1.592   2.558  0.0835 -0.1725  0.5661
 1766ntf    on514334   0.608   1.693   2.585 -0.2495 -0.7658  0.6542
 1766ntf    on514335   0.464   1.705   2.382  0.4920 -1.0798  0.3813
 1766ntf    on514336   0.318   2.001   2.369 -0.0599 -0.0798  0.3050
 1766ntf    on514337   0.554   2.077   2.411 -0.3163 -0.1110 -0.3221
 1766ntf    fn414338   0.480   2.192   2.645  0.3290 -0.0539 -0.0932
 1766ntf    fn414339   0.321   2.242   2.513 -0.4476  0.2634 -0.1886
 1766ntf    fn414340   0.290   2.103   2.665  0.5913  0.4127  0.0979
 1767ntf    cn114341   2.321   5.088   6.082 -0.0714  0.1766  0.3367
 1767ntf    sn214342   2.385   5.172   5.935  0.0443 -0.1138  0.2209
 1767ntf    nn314343   2.278   5.287   5.930 -0.1007 -0.2598 -0.0714
 1767ntf    sn214344   2.306   5.441   5.920  0.0075 -0.2776 -0.0439
 1767ntf    cn114345   2.288   5.491   6.093  0.1361  0.2955 -0.1963
 1767ntf    fn414346   2.310   5.176   6.180 -0.0551 -0.3186  0.7877
 1767ntf    fn414347   2.201   5.034   6.069 -0.0375  0.1756  0.0214
 1767ntf    fn414348   2.407   4.996   6.123 -0.1834 -0.2256 -0.3220
 1767ntf    on514349   2.524   5.204   5.959 -0.0209  0.2048  0.1771
 1767ntf    on514350   2.364   5.066   5.840  0.1029  0.2459 -0.1995
 1767ntf    on514351   2.197   5.513   5.859  0.5611  0.0161 -0.7057
 1767ntf    on514352   2.437   5.490   5.885  0.3312 -0.6039  0.6899
 1767ntf    fn414353   2.164   5.518   6.130  0.2634 -0.3149  0.7029
 1767ntf    fn414354   2.326   5.396   6.177  0.1333  0.1163 -0.4006
 1767ntf    fn414355   2.360   5.597   6.129  0.6968 -0.1504  0.0091
 1768ntf    cn114356   0.310   2.490   0.548 -0.1570  0.1154  0.0158
 1768ntf    sn214357   0.332   2.443   0.722  0.0231 -0.3170 -0.1217
 1768ntf    nn314358   0.187   2.476   0.774  0.1152  0.2834 -0.2322
 1768ntf    sn214359   0.137   2.483   0.922  0.0300 -0.3408 -0.2269
 1768ntf    cn114360  -0.036   2.442   0.882 -0.0888 -0.3232  0.2587
 1768ntf    fn414361   0.282   2.617   0.524  0.1291  0.1285 -0.2555
 1768ntf    fn414362   0.424   2.468   0.485 -0.3865  0.4924 -0.5425
 1768ntf    fn414363   0.229   2.414   0.476 -0.1372  0.4051 -0.3119
 1768ntf    on514364   0.370   2.304   0.714  0.2986 -0.2516  0.0107
 1768ntf    on514365   0.431   2.542   0.756 -0.2029 -0.0436 -0.2585
 1768ntf    on514366   0.129   2.619   0.969 -0.1887 -0.1193 -0.8950
 1768ntf    on514367   0.184   2.384   1.016 -0.1175 -0.4598 -0.2780
 1768ntf    fn414368  -0.049   2.313   0.854 -0.0589 -0.2979  0.1283
 1768ntf    fn414369  -0.119   2.471   0.981  0.0994  0.1504  0.2784
 1768ntf    fn414370  -0.074   2.514   0.778  0.7824 -0.3723 -0.1062
 1769ntf    cn114371   2.102   5.109   3.827  0.6839  0.4202  0.1167
 1769ntf    sn214372   2.134   5.058   3.656  0.0120  0.1216  0.0749
 1769ntf    nn314373   2.037   5.153   3.578  0.1186 -0.1887 -0.4394
 1769ntf    sn214374   2.064   5.278   3.486 -0.1604 -0.0471 -0.3310
 1769ntf    cn114375   1.917   5.278   3.379 -0.3713  0.1660 -0.0401
 1769ntf    fn414376   2.194   5.078   3.917  0.9220  0.0681 -0.2468
 1769ntf    fn414377   2.088   5.240   3.842 -0.3802  0.2198  1.0331
 1769ntf    fn414378   1.988   5.064   3.879  0.4448  0.2727 -0.5241
 1769ntf    on514379   2.277   5.062   3.638 -0.0076  0.5230  0.0025
 1769ntf    on514380   2.072   4.928   3.659  0.0748  0.0671 -0.7408
 1769ntf    on514381   2.173   5.252   3.395 -0.5075  0.1927 -0.8192
 1769ntf    on514382   2.061   5.408   3.548  0.6922 -0.2498  0.1545
 1769ntf    fn414383   1.812   5.302   3.458 -0.2026  0.2767  0.1533
 1769ntf    fn414384   1.923   5.370   3.284 -0.0200  0.2878  0.1002
 1769ntf    fn414385   1.889   5.163   3.321 -0.2887  0.1020  0.0465
 1770ntf    cn114386   5.122   6.413   3.365 -0.0477 -0.0323  0.1768
 1770ntf    sn214387   4.969   6.356   3.445 -0.1759  0.0800  0.0116
 1770ntf    nn314388   4.936   6.477   3.539  0.2379  0.2319 -0.0383
 1770ntf    sn214389   5.004   6.520   3.673 -0.0780  0.3274  0.0914
 1770ntf    cn114390   4.875   6.499   3.800 -0.1011 -0.4359 -0.0577
 1770ntf    fn414391   5.215   6.426   3.459 -0.1065  0.3677  0.1843
 1770ntf    fn414392   5.164   6.334   3.269  0.1860 -0.0234  0.2717
 1770ntf    fn414393   5.111   6.535   3.314 -0.7380 -0.1105  0.1212
 1770ntf    on514394   4.876   6.347   3.335 -0.1044  0.7720 -0.1054
 1770ntf    on514395   4.997   6.233   3.516 -0.0675 -0.1990 -0.5104
 1770ntf    on514396   5.016   6.664   3.676 -0.6729  0.3780  0.1217
 1770ntf    on514397   5.118   6.448   3.723 -0.2309  0.0255  0.0071
 1770ntf    fn414398   4.848   6.372   3.827  0.2084 -0.6471 -0.7182
 1770ntf    fn414399   4.909   6.552   3.916 -0.3178 -0.2867 -0.0627
 1770ntf    fn414400   4.753   6.545   3.775 -0.0381 -0.1185  0.2182
 1771ntf    cn114401   6.000   5.967   6.440  0.6585 -0.3691 -0.0503
 1771ntf    sn214402   5.843   5.878   6.460  0.5470 -0.1600  0.0068
 1771ntf    nn314403   5.910   5.740   6.493 -0.0455 -0.4723 -0.0849
 1771ntf    sn214404   5.963   5.629   6.395  0.3521 -0.5667  0.2381
 1771ntf    cn114405   5.924   5.487   6.501 -0.3284 -0.5662 -0.0121
 1771ntf    fn414406   6.071   5.921   6.338 -0.2648 -0.1910 -0.7892
 1771ntf    fn414407   5.968   6.095   6.427 -0.2000 -0.6315 -0.5539
 1771ntf    fn414408   6.069   5.957   6.553  0.8157  0.0798 -0.1034
 1771ntf    on514409   5.786   5.940   6.577  0.1095  0.0491 -0.3104
 1771ntf    on514410   5.779   5.897   6.332  0.6049  0.2574  0.0377
 1771ntf    on514411   6.106   5.619   6.378  0.3269 -0.2147 -0.2022
 1771ntf    on514412   5.875   5.597   6.286  0.3957  0.3442 -0.0767
 1771ntf    fn414413   6.017   5.478   6.594 -0.5128 -0.6070  0.1695
 1771ntf    fn414414   5.802   5.486   6.554 -0.3967 -0.1816 -0.1606
 1771ntf    fn414415   5.933   5.380   6.424 -0.3043 -0.4477 -0.1751
 1772ntf    cn114416   4.861   0.083   5.380  0.2273  0.3946 -0.7562
 1772ntf    sn214417   4.797  -0.073   5.313 -0.0871  0.1952 -0.0034
 1772ntf    nn314418   4.704  -0.026   5.195  0.1866  0.7049 -0.0177
 1772ntf    sn214419   4.725   0.075   5.077  0.1127  0.4617 -0.2391
 1772ntf    cn114420   4.676  -0.037   4.942 -0.1173  0.1892  0.0700
 1772ntf    fn414421   4.946   0.147   5.301  0.9781 -0.3321 -0.5495
 1772ntf    fn414422   4.773   0.178   5.409  0.5037  0.3836  0.1708
 1772ntf    fn414423   4.935   0.070   5.489  0.0605 -0.1502 -0.7066
 1772ntf    on514424   4.918  -0.144   5.282 -0.0770 -0.1217  0.7525
 1772ntf    on514425   4.724  -0.130   5.423 -0.8734 -0.0002 -0.6151
 1772ntf    on514426   4.862   0.101   5.039  0.0581 -0.3704 -1.0372
 1772ntf    on514427   4.632   0.185   5.071 -0.3190  0.1142  0.0585
 1772ntf    fn414428   4.742  -0.152   4.944 -0.1051  0.1949 -0.0020
 1772ntf    fn414429   4.547  -0.066   4.944 -0.0131 -0.2840  0.0100
 1772ntf    fn414430   4.693   0.016   4.823 -0.2474 -0.5207 -0.2717
 1773ntf    cn114431   5.229   5.786   1.934  0.0116 -0.0361  0.0009
 1773ntf    sn214432   5.275   5.653   2.049 -0.0228  0.0139  0.0716
 1773ntf    nn314433   5.331   5.545   1.951 -0.3794 -0.1652  0.0621
 1773ntf    sn214434   5.315   5.390   1.969  0.1301 -0.2123  0.1275
 1773ntf    cn114435   5.495   5.362   1.967  0.2165  0.3577 -0.0915
 1773ntf    fn414436   5.335   5.834   1.870 -0.1124  0.4266  0.1440
 1773ntf    fn414437   5.139   5.750   1.844  0.5408  0.0658 -0.5780
 1773ntf    fn414438   5.173   5.887   1.997  0.0468  0.0714 -0.1389
 1773ntf    on514439   5.364   5.721   2.140  0.0456 -0.7481  0.5875
 1773ntf    on514440   5.150   5.617   2.111 -0.5847  0.2655 -0.9011
 1773ntf    on514441   5.270   5.316   1.854 -0.1698  0.0552  0.0732
 1773ntf    on514442   5.277   5.338   2.099 -0.6521 -0.2504 -0.1144
 1773ntf    fn414443   5.554   5.441   2.055  0.2706  0.1488  0.0588
 1773ntf    fn414444   5.533   5.242   2.006 -0.6203  0.3299  0.6635
 1773ntf    fn414445   5.547   5.380   1.846  0.4090  0.5063  0.0121
 1774ntf    cn114446   2.796   0.048   3.060 -0.2478  0.4226  0.3938
 1774ntf    sn214447   2.895   0.196   3.023 -0.1669  0.2991  0.1158
 1774ntf    nn314448   2.782   0.288   2.964 -0.1292  0.2683 -0.0039
 1774ntf    sn214449   2.712   0.273   2.824  0.0965  0.1776 -0.1078
 1774ntf    cn114450   2.779   0.420   2.741 -0.1826  0.2517 -0.2019
 1774ntf    fn414451   2.690   0.077   3.133 -0.9259 -0.4249 -0.2354
 1774ntf    fn414452   2.744  -0.002   2.949  0.1254 -0.0646  0.4317
 1774ntf    fn414453   2.859  -0.051   3.123  0.7424  0.5444 -0.3735
 1774ntf    on514454   2.936   0.230   3.157 -0.0801 -0.4906  0.2979
 1774ntf    on514455   2.997   0.140   2.937 -0.0470  0.2560  0.2864
 1774ntf    on514456   2.572   0.304   2.837 -0.0025 -0.2287 -0.1868
 1774ntf    on514457   2.748   0.168   2.732 -0.0584 -0.0875  0.1315
 1774ntf    fn414458   2.730   0.533   2.788 -0.1776  0.2846 -0.2750
 1774ntf    fn414459   2.910   0.434   2.758 -0.2179  0.2751  0.0601
 1774ntf    fn414460   2.752   0.427   2.612 -0.5101  0.2325 -0.1342
 1775ntf    cn114461   4.879   4.862   2.234  0.1699 -0.4210  0.3442
 1775ntf    sn214462   5.050   4.815   2.273  0.2590 -0.6925 -0.3482
 1775ntf    nn314463   5.097   4.746   2.140 -0.2760 -0.7236 -0.5243
 1775ntf    sn214464   5.241   4.727   2.081  0.0590 -0.0875  0.0636
 1775ntf    cn114465   5.233   4.559   2.012  0.3343 -0.0088 -0.1644
 1775ntf    fn414466   4.798   4.757   2.239  0.2412 -0.4673  0.5312
 1775ntf    fn414467   4.824   4.952   2.314 -0.1058 -0.1909 -0.1036
 1775ntf    fn414468   4.866   4.915   2.114 -0.2056 -0.1214  0.5151
 1775ntf    on514469   5.119   4.940   2.296  0.0792 -0.5344 -0.6716
 1775ntf    on514470   5.029   4.734   2.391 -0.3003  0.5071  0.4017
 1775ntf    on514471   5.345   4.733   2.181 -0.5670 -0.0113  0.7155
 1775ntf    on514472   5.265   4.810   1.965 -0.3462  0.3755  0.3069
 1775ntf    fn414473   5.152   4.563   1.908  0.3709  0.0295 -0.1911
 1775ntf    fn414474   5.351   4.505   1.983  0.4766 -0.0215  0.4109
 1775ntf    fn414475   5.177   4.477   2.099  0.2752  0.1277 -0.0745
 1776ntf    cn114476   5.900   1.691   4.829 -0.2033  0.2509 -0.5796
 1776ntf    sn214477   5.733   1.664   4.894 -0.0851  0.0982 -0.3406
 1776ntf    nn314478   5.648   1.745   4.791 -0.4791  0.2513  0.0999
 1776ntf    sn214479   5.581   1.886   4.807 -0.1700  0.4130 -0.0209
 1776ntf    cn114480   5.419   1.819   4.853 -0.0529  0.1258 -0.0313
 1776ntf    fn414481   5.997   1.634   4.899 -0.7055  0.1930  0.0703
 1776ntf    fn414482   5.922   1.652   4.704  0.7250 -0.1305 -0.3109
 1776ntf    fn414483   5.941   1.817   4.834  0.0216  0.1641 -0.2195
 1776ntf    on514484   5.705   1.523   4.881  0.6986 -0.0714 -0.2602
 1776ntf    on514485   5.740   1.703   5.033 -0.6985  0.7386 -0.4886
 1776ntf    on514486   5.562   1.943   4.676 -0.1560 -0.4703 -0.4140
 1776ntf    on514487   5.631   1.973   4.911  0.5055  0.1678 -0.1373
 1776ntf    fn414488   5.356   1.745   4.763  0.4044 -0.3010 -0.0055
 1776ntf    fn414489   5.430   1.738   4.958 -0.1838  0.4293  0.2180
 1776ntf    fn414490   5.339   1.920   4.879  0.4789  0.5808 -0.1525
 1777ntf    cn114491   1.646   6.512   4.039  0.3223 -0.0516  0.1729
 1777ntf    sn214492   1.577   6.344   4.041 -0.3584  0.2233 -0.1516
 1777ntf    nn314493   1.550   6.340   4.195 -0.2604  0.1697 -0.1361
 1777ntf    sn214494   1.570   6.225   4.300 -0.1430  0.2397 -0.0811
 1777ntf    cn114495   1.426   6.119   4.267  0.1677 -0.1883 -0.0767
 1777ntf    fn414496   1.557   6.607   4.056 -0.0462 -0.3054 -0.3232
 1777ntf    fn414497   1.738   6.524   4.134 -0.1607 -0.2829  0.6735
 1777ntf    fn414498   1.700   6.536   3.921  0.6885 -0.0248  0.3415
 1777ntf    on514499   1.459   6.356   3.958 -1.1349 -0.4088  0.8323
 1777ntf    on514500   1.693   6.270   3.996 -0.7519 -0.5260  0.0460
 1777ntf    on514501   1.547   6.282   4.430  0.0730  0.1330  0.0053
 1777ntf    on514502   1.684   6.137   4.286 -0.0282  0.4061 -0.1797
 1777ntf    fn414503   1.411   6.091   4.138  0.5765 -0.9866  0.0401
 1777ntf    fn414504   1.439   6.001   4.326 -0.5166 -0.5365 -0.6030
 1777ntf    fn414505   1.309   6.154   4.318  0.0672 -0.0404 -0.4014
 1778ntf    cn114506   6.343   3.215   3.759  0.5999  0.1915 -0.4137
 1778ntf    sn214507   6.393   3.390   3.751 -0.1124  0.4129 -0.0570
 1778ntf    nn314508   6.382   3.429   3.903 -0.3645 -0.1792  0.0795
 1778ntf    sn214509   6.243   3.442   3.975 -0.3108 -0.0593  0.1622
 1778ntf    cn114510   6.214   3.616   3.931  0.1687 -0.0293 -0.0492
 1778ntf    fn414511   6.225   3.182   3.711  0.2385 -0.1046  0.6583
 1778ntf    fn414512   6.429   3.137   3.695  0.5881 -0.0700 -0.1155
 1778ntf    fn414513   6.352   3.175   3.884  0.5199 -0.0130 -0.4735
 1778ntf    on514514   6.530   3.375   3.709  0.1292  0.5280  0.6751
 1778ntf    on514515   6.306   3.455   3.656 -0.4304  0.0546 -0.0127
 1778ntf    on514516   6.243   3.444   4.119 -0.7122 -0.3661  0.1675
 1778ntf    on514517   6.131   3.378   3.910 -0.0844 -0.0219 -0.2749
 1778ntf    fn414518   6.197   3.632   3.801  0.1189 -0.2870 -0.0749
 1778ntf    fn414519   6.103   3.669   3.981 -0.0723 -0.2095 -0.3893
 1778ntf    fn414520   6.322   3.684   3.964  0.1924  0.1741 -0.5407
 1779ntf    cn114521   3.879   5.773   1.893  0.0333  0.1499  0.4096
 1779ntf    sn214522   3.781   5.717   2.035 -0.5828 -0.1047 -0.1095
 1779ntf    nn314523   3.861   5.786   2.151 -0.3240 -0.1282 -0.2743
 1779ntf    sn214524   3.872   5.749   2.303 -0.4046  0.5597 -0.0990
 1779ntf    cn114525   3.949   5.906   2.353 -0.0152  0.2501  0.2801
 1779ntf    fn414526   3.999   5.721   1.914 -0.0855 -0.3930 -0.2121
 1779ntf    fn414527   3.840   5.723   1.776  0.6029 -0.3606  0.4339
 1779ntf    fn414528   3.889   5.903   1.868  0.0370 -0.0154 -0.5097
 1779ntf    on514529   3.650   5.771   2.007 -0.5915  0.2664  0.6288
 1779ntf    on514530   3.802   5.574   2.025 -0.5351 -0.0675 -0.5849
 1779ntf    on514531   3.978   5.654   2.324 -0.4525  0.4669 -0.2744
 1779ntf    on514532   3.754   5.734   2.385 -0.0902 -0.0577  0.2487
 1779ntf    fn414533   3.989   5.920   2.478 -0.0690 -0.2730  0.3579
 1779ntf    fn414534   4.058   5.932   2.283 -0.5165 -0.0574 -0.6424
 1779ntf    fn414535   3.873   6.007   2.315  0.1358  0.2565 -0.0125
 1780ntf    cn114536   4.927   1.065   5.385 -0.4690  0.4128 -0.7321
 1780ntf    sn214537   4.976   0.980   5.231  0.0814 -0.1099 -0.2735
 1780ntf    nn314538   4.835   0.973   5.162  0.1224 -0.1062 -0.3570
 1780ntf    sn214539   4.762   1.082   5.075 -0.0784  0.1798  0.1645
 1780ntf    cn114540   4.787   1.023   4.905  0.0554  0.1007  0.2112
 1780ntf    fn414541   4.899   1.193   5.370 -0.3719  0.5271  0.0573
 1780ntf    fn414542   4.817   1.013   5.436 -0.3363 -0.4567 -1.2949
 1780ntf    fn414543   5.024   1.056   5.474 -0.7200 -0.1940 -0.5109
 1780ntf    on514544   5.075   1.068   5.174 -0.5265  0.7325 -0.0627
 1780ntf    on514545   5.014   0.845   5.264  0.2682  0.0231  0.0617
 1780ntf    on514546   4.820   1.214   5.076  0.3233  0.0098 -0.2266
 1780ntf    on514547   4.618   1.080   5.084 -0.0702 -0.0963  0.2506
 1780ntf    fn414548   4.908   0.974   4.882  0.1769  0.5636 -0.1547
 1780ntf    fn414549   4.705   0.925   4.870 -0.5888  0.4238  0.8045
 1780ntf    fn414550   4.762   1.117   4.816 -0.3240 -0.4097 -0.2311
 1781ntf    cn114551   2.360   3.421   0.664  0.3112 -0.1807  0.4767
 1781ntf    sn214552   2.398   3.557   0.778  0.0036  0.2911  0.0225
 1781ntf    nn314553   2.259   3.629   0.782 -0.1316  0.0505 -0.3134
 1781ntf    sn214554   2.132   3.599   0.870 -0.0765 -0.0197 -0.2571
 1781ntf    cn114555   2.008   3.539   0.751 -0.5498  0.0402  0.2014
 1781ntf    fn414556   2.276   3.336   0.721  0.0515 -0.5489 -0.4308
 1781ntf    fn414557   2.299   3.469   0.557  0.2418 -0.3676  0.4316
 1781ntf    fn414558   2.465   3.354   0.618  0.5560  0.0976  0.6271
 1781ntf    on514559   2.440   3.487   0.898  0.2521  0.2297 -0.0994
 1781ntf    on514560   2.502   3.630   0.711 -0.0117  0.1500 -0.1537
 1781ntf    on514561   2.068   3.719   0.920 -0.0111 -0.0142 -0.1870
 1781ntf    on514562   2.160   3.485   0.953  0.2841  0.1872 -0.0894
 1781ntf    fn414563   2.014   3.600   0.634 -0.3165 -0.1899  0.0915
 1781ntf    fn414564   2.036   3.412   0.732 -0.2031  0.0984  0.3093
 1781ntf    fn414565   1.887   3.552   0.803 -0.1866  0.0801  1.0532
 1782ntf    cn114566   4.239   4.001   5.044  0.4194  0.5088  0.0219
 1782ntf    sn214567   4.168   4.113   5.168  0.1233 -0.0825  0.3868
 1782ntf    nn314568   4.024   4.052   5.186 -0.1954  0.5386 -0.0507
 1782ntf    sn214569   3.885   4.112   5.144 -0.5279 -0.1877 -0.0030
 1782ntf    cn114570   3.775   4.007   5.243 -0.3542 -0.1970  0.1803
 1782ntf    fn414571   4.368   4.030   5.038  0.6326 -0.2490  0.8022
 1782ntf    fn414572   4.237   3.873   5.074 -0.3443  0.3933 -0.5058
 1782ntf    fn414573   4.193   4.005   4.920  0.1812  0.2471  0.1009
 1782ntf    on514574   4.260   4.096   5.278  0.1311 -0.1051  0.3771
 1782ntf    on514575   4.183   4.234   5.091 -1.0712 -0.4858 -0.5246
 1782ntf    on514576   3.856   4.091   5.004 -0.0014 -0.5853 -0.0559
 1782ntf    on514577   3.870   4.247   5.194  0.6490  0.2039 -0.6761
 1782ntf    fn414578   3.786   3.880   5.209 -0.6335 -0.1637 -0.0359
 1782ntf    fn414579   3.798   4.023   5.373 -0.5199  0.8239  0.0923
 1782ntf    fn414580   3.645   4.033   5.242 -0.3113  0.0070 -0.3145
 1783ntf    cn114581   4.680   2.057   5.549  0.1251 -0.1588  0.0851
 1783ntf    sn214582   4.832   2.030   5.644  0.0982  0.0007  0.1728
 1783ntf    nn314583   4.867   2.175   5.693  0.2195  0.2704 -0.6948
 1783ntf    sn214584   4.984   2.276   5.666  0.6510 -0.1178 -0.2959
 1783ntf    cn114585   5.069   2.237   5.822 -0.3143 -0.2832  0.1947
 1783ntf    fn414586   4.703   2.153   5.461 -0.5222  0.6050  0.7331
 1783ntf    fn414587   4.643   1.947   5.486 -0.3994  0.0338  0.0535
 1783ntf    fn414588   4.588   2.104   5.632  0.1816 -0.0255  0.0715
 1783ntf    on514589   4.782   1.940   5.745 -0.1892 -0.0013  0.0292
 1783ntf    on514590   4.920   1.978   5.542  0.0166  0.1649  0.0198
 1783ntf    on514591   4.944   2.414   5.677  0.2146 -0.2802  0.2012
 1783ntf    on514592   5.078   2.234   5.565  0.7291 -0.3191 -0.1397
 1783ntf    fn414593   4.999   2.288   5.922 -0.3605 -0.2750  0.1583
 1783ntf    fn414594   5.060   2.106   5.843  0.1127 -0.3717 -0.1680
 1783ntf    fn414595   5.193   2.281   5.829 -0.6228  0.5234  0.8109
 1784ntf    cn114596   0.503   0.759   2.996 -0.2734  0.3951 -0.2185
 1784ntf    sn214597   0.338   0.749   3.071 -0.1255  0.0261  0.0625
 1784ntf    nn314598   0.255   0.701   2.946  0.0020 -0.0504  0.0073
 1784ntf    sn214599   0.232   0.554   2.897 -0.0413  0.0716 -0.3442
 1784ntf    cn114600   0.096   0.512   3.011  0.3440 -0.1289  0.0450
 1784ntf    fn414601   0.584   0.820   3.081  0.0856  0.0899 -0.3385
 1784ntf    fn414602   0.557   0.639   2.979 -0.2039  0.3974 -0.0248
 1784ntf    fn414603   0.494   0.826   2.883 -0.4459  0.3248 -0.2469
 1784ntf    on514604   0.359   0.656   3.179 -0.0430  0.4837  0.4422
 1784ntf    on514605   0.309   0.883   3.116 -0.2026 -0.0327  0.1890
 1784ntf    on514606   0.330   0.457   2.938 -0.4180 -0.0787  0.2260
 1784ntf    on514607   0.171   0.544   2.767 -0.2534  0.2929 -0.2617
 1784ntf    fn414608   0.042   0.402   2.962  0.7445 -0.2605 -0.1010
 1784ntf    fn414609   0.135   0.485   3.134 -0.3596 -0.0704  0.2852
 1784ntf    fn414610   0.005   0.607   3.025 -0.0113 -0.4406 -0.1270
 1785ntf    cn114611   3.255   2.066   5.741 -0.2205 -0.2057 -0.2933
 1785ntf    sn214612   3.324   1.975   5.600  0.0638 -0.1724 -0.1750
 1785ntf    nn314613   3.354   2.093   5.502  0.0101 -0.1577 -0.1741
 1785ntf    sn214614   3.450   2.118   5.380  0.0598  0.0910 -0.0858
 1785ntf    cn114615   3.583   2.189   5.480 -0.2125  0.0945  0.2741
 1785ntf    fn414616   3.356   2.110   5.815  0.0361 -0.6875 -0.3560
 1785ntf    fn414617   3.168   2.162   5.713 -0.4357 -0.2368  0.2429
 1785ntf    fn414618   3.197   1.977   5.819  0.1605  0.4489  0.7617
 1785ntf    on514619   3.433   1.903   5.663 -0.0963  0.2097  0.5521
 1785ntf    on514620   3.204   1.902   5.567 -0.1776  0.1298  0.0274
 1785ntf    on514621   3.413   2.224   5.289 -0.5609 -0.5952 -0.6495
 1785ntf    on514622   3.493   1.995   5.317 -0.2662 -0.1900  0.2301
 1785ntf    fn414623   3.566   2.319   5.500  0.2522  0.2133 -0.0734
 1785ntf    fn414624   3.587   2.134   5.600 -0.2273  0.4812  0.4543
 1785ntf    fn414625   3.703   2.169   5.428 -0.1109  0.6578  0.2790
 1786ntf    cn114626   5.682   1.056   2.693 -0.0041  0.0789  0.0628
 1786ntf    sn214627   5.552   1.170   2.641 -0.1465 -0.0819  0.0625
 1786ntf    nn314628   5.566   1.295   2.736  0.0447 -0.0563  0.0008
 1786ntf    sn214629   5.457   1.368   2.821  0.0563 -0.2747  0.2035
 1786ntf    cn114630   5.518   1.539   2.812 -0.4550 -0.0949  0.1076
 1786ntf    fn414631   5.650   0.997   2.808  0.3425  0.1865  0.2170
 1786ntf    fn414632   5.713   0.950   2.619 -0.0025 -0.0825  0.2914
 1786ntf    fn414633   5.796   1.120   2.714 -0.1436  0.2514  0.3048
 1786ntf    on514634   5.589   1.210   2.507 -0.5509 -0.5864 -0.2011
 1786ntf    on514635   5.432   1.094   2.665 -0.2337  0.1431  0.3450
 1786ntf    on514636   5.467   1.342   2.962 -0.5756  0.0601  0.3169
 1786ntf    on514637   5.327   1.375   2.759 -0.2528 -0.0833  0.8619
 1786ntf    fn414638   5.498   1.579   2.687 -0.2456 -0.2374  0.0284
 1786ntf    fn414639   5.447   1.617   2.891 -0.2615  0.1378  0.0517
 1786ntf    fn414640   5.642   1.558   2.852 -0.4456 -0.0043  0.0360
 1787ntf    cn114641   4.734   3.364   4.190 -0.0045 -0.1099 -0.1419
 1787ntf    sn214642   4.898   3.301   4.142  0.2556  0.3132  0.1762
 1787ntf    nn314643   4.888   3.326   3.987  0.4842  0.3243  0.1623
 1787ntf    sn214644   4.917   3.223   3.872  0.0312  0.2450  0.1141
 1787ntf    cn114645   4.748   3.165   3.843  0.1544 -0.0131 -0.0943
 1787ntf    fn414646   4.636   3.323   4.112  0.0586 -0.4680 -0.0363
 1787ntf    fn414647   4.707   3.327   4.315  0.6080  0.2692  0.1088
 1787ntf    fn414648   4.730   3.496   4.185 -0.7222 -0.1292 -0.1539
 1787ntf    on514649   4.967   3.398   4.223  0.1352  0.0944  0.5412
 1787ntf    on514650   4.906   3.167   4.193 -0.7988  0.1673 -0.0048
 1787ntf    on514651   4.994   3.107   3.912 -0.4086  0.0890  0.5067
 1787ntf    on514652   4.947   3.288   3.747 -0.2041  0.6509  0.2685
 1787ntf    fn414653   4.672   3.146   3.949  0.0015  0.3665 -0.1340
 1787ntf    fn414654   4.675   3.253   3.775  0.3336 -0.2494 -0.5993
 1787ntf    fn414655   4.741   3.053   3.772 -0.1499  0.1162 -0.2708
 1788ntf    cn114656   2.250   0.240   5.531  0.0700 -0.0444 -0.0170
 1788ntf    sn214657   2.104   0.298   5.623 -0.1179 -0.5706  0.0173
 1788ntf    nn314658   2.130   0.451   5.601 -0.0341 -0.5540  0.2365
 1788ntf    sn214659   2.023   0.564   5.583  0.0521 -0.5234 -0.0871
 1788ntf    cn114660   2.034   0.661   5.736  0.3427 -0.5736 -0.0761
 1788ntf    fn414661   2.307   0.141   5.598  0.4446  0.5553  0.5778
 1788ntf    fn414662   2.215   0.199   5.411 -0.3371  0.1165  0.0448
 1788ntf    fn414663   2.343   0.332   5.509  0.2165 -0.2715 -0.3463
 1788ntf    on514664   1.994   0.245   5.546  0.2042 -0.9660 -0.1740
 1788ntf    on514665   2.122   0.257   5.760  0.2000 -0.2890  0.0607
 1788ntf    on514666   1.886   0.519   5.579 -0.0922 -0.1769  0.8809
 1788ntf    on514667   2.046   0.656   5.474  0.3997 -0.5030  0.0023
 1788ntf    fn414668   1.981   0.782   5.733 -0.5013 -0.9529 -0.7944
 1788ntf    fn414669   1.979   0.607   5.843  0.1819 -0.0644  0.1022
 1788ntf    fn414670   2.161   0.683   5.765  0.1675 -0.1408  0.3787
 1789ntf    cn114671   2.365   2.159   4.605 -0.0233 -0.2174  0.1814
 1789ntf    sn214672   2.366   2.022   4.484 -0.1889  0.2432 -0.3474
 1789ntf    nn314673   2.513   1.971   4.469 -0.1130  0.3568 -0.0196
 1789ntf    sn214674   2.601   1.938   4.343 -0.0360  0.0588  0.1109
 1789ntf    cn114675   2.507   1.825   4.236  0.2248 -0.2328  0.1871
 1789ntf    fn414676   2.243   2.208   4.622 -0.1600 -0.5997  0.3094
 1789ntf    fn414677   2.415   2.133   4.724  0.4703 -0.4255 -0.0699
 1789ntf    fn414678   2.441   2.260   4.565 -0.4287 -0.0376 -0.1424
 1789ntf    on514679   2.279   1.923   4.543  0.0911  0.0571 -0.2500
 1789ntf    on514680   2.325   2.088   4.363 -0.1815  0.2639 -0.3387
 1789ntf    on514681   2.708   1.857   4.396  0.0055 -0.1222 -0.2463
 1789ntf    on514682   2.640   2.043   4.252  0.9668 -0.5919 -0.2267
 1789ntf    fn414683   2.587   1.800   4.133  0.3591  0.1128  0.2053
 1789ntf    fn414684   2.480   1.711   4.297 -0.2205 -0.1840  0.0841
 1789ntf    fn414685   2.394   1.874   4.187  0.3209  0.0994  0.2952
 1790ntf    cn114686   5.389   5.977   4.182 -0.1770 -0.0529  0.0230
 1790ntf    sn214687   5.535   6.002   4.077 -0.1276  0.0828  0.1219
 1790ntf    nn314688   5.646   5.961   4.180  0.0714 -0.3978 -0.2730
 1790ntf    sn214689   5.795   5.916   4.163  0.1711 -0.0901 -0.2173
 1790ntf    cn114690   5.782   5.735   4.177 -0.3308 -0.0273  0.1626
 1790ntf    fn414691   5.382   6.068   4.278 -0.6244 -0.1911  0.1236
 1790ntf    fn414692   5.271   5.988   4.122  0.0487 -0.0441 -0.4236
 1790ntf    fn414693   5.392   5.856   4.235  0.5344 -0.0241  0.0549
 1790ntf    on514694   5.515   5.914   3.964 -0.0214  0.2703 -0.0424
 1790ntf    on514695   5.527   6.142   4.046 -1.0804 -0.0375 -0.2141
 1790ntf    on514696   5.886   5.952   4.269 -0.0678  0.0614 -0.0626
 1790ntf    on514697   5.854   5.947   4.035  0.8650  0.7891  0.3026
 1790ntf    fn414698   5.868   5.663   4.107 -0.2818  0.5508 -0.3862
 1790ntf    fn414699   5.798   5.701   4.303  0.0917 -0.1960  0.0663
 1790ntf    fn414700   5.665   5.687   4.139 -0.2408 -0.2786  0.2047
 1791ntf    cn114701   4.606   5.942   0.818 -0.0417  0.2765 -0.1445
 1791ntf    sn214702   4.661   5.866   0.663  0.2469  0.0778  0.0542
 1791ntf    nn314703   4.774   5.777   0.726  0.0950  0.2545  0.5807
 1791ntf    sn214704   4.777   5.621   0.738  0.1511  0.2075  0.0205
 1791ntf    cn114705   4.661   5.590   0.875  0.0108 -0.3106 -0.2125
 1791ntf    fn414706   4.666   6.056   0.851  0.2982  0.2116 -0.5433
 1791ntf    fn414707   4.477   5.973   0.809 -0.1192 -0.0212 -0.0631
 1791ntf    fn414708   4.610   5.847   0.910  0.2273 -0.1206 -0.5653
 1791ntf    on514709   4.536   5.813   0.614 -0.0295 -0.1557  0.9850
 1791ntf    on514710   4.715   5.981   0.594 -0.3631  0.2851 -0.0801
 1791ntf    on514711   4.901   5.578   0.799 -0.0173 -0.7133 -0.2621
 1791ntf    on514712   4.726   5.547   0.625  0.1546  0.0245  0.1373
 1791ntf    fn414713   4.650   5.463   0.912 -0.0228 -0.1524  0.3318
 1791ntf    fn414714   4.694   5.657   0.985 -0.2319 -0.1412 -0.2443
 1791ntf    fn414715   4.541   5.635   0.845  0.1517  0.0183 -0.2887
 1792ntf    cn114716   1.550   2.764   1.915 -0.1354  0.0980 -0.1485
 1792ntf    sn214717   1.630   2.823   1.763  0.2537  0.1116  0.0612
 1792ntf    nn314718   1.710   2.947   1.816  0.1252 -0.0012  0.5292
 1792ntf    sn214719   1.841   2.999   1.746  0.1150 -0.0920  0.4435
 1792ntf    cn114720   1.960   2.901   1.842  0.1020 -0.2896  0.2597
 1792ntf    fn414721   1.468   2.849   1.974 -0.2063  0.0295 -0.1474
 1792ntf    fn414722   1.482   2.657   1.877 -0.1483  0.0151  0.1016
 1792ntf    fn414723   1.640   2.720   2.001 -0.0826 -0.1256 -0.3172
 1792ntf    on514724   1.711   2.716   1.711 -0.0175 -0.2202  0.3172
 1792ntf    on514725   1.518   2.859   1.680  0.5963  0.3570 -0.2987
 1792ntf    on514726   1.868   3.136   1.781 -0.3568  0.1352 -0.0574
 1792ntf    on514727   1.854   2.957   1.608  0.6179  0.2132  0.3946
 1792ntf    fn414728   2.086   2.892   1.803  0.0547  0.1616 -0.0067
 1792ntf    fn414729   1.969   2.935   1.969  0.2948  0.2464  0.1039
 1792ntf    fn414730   1.914   2.777   1.853 -0.3510 -0.1752 -0.2735
 1793ntf    cn114731   6.715   6.828   5.914  0.0957 -0.1654 -0.3936
 1793ntf    sn214732   6.890   6.797   5.878  0.2205 -0.1527  0.1912
 1793ntf    nn314733   6.907   6.644   5.908 -0.0281 -0.1662  0.2596
 1793ntf    sn214734   6.995   6.552   5.816 -0.0377 -0.1182  0.2020
 1793ntf    cn114735   7.001   6.393   5.903 -0.9106 -0.2322  0.0616
 1793ntf    fn414736   6.630   6.789   5.820 -0.4265  0.2432 -0.1019
 1793ntf    fn414737   6.681   6.774   6.030 -0.0670 -0.2663 -0.4859
 1793ntf    fn414738   6.691   6.956   5.937  0.4860 -0.1339 -0.1590
 1793ntf    on514739   6.907   6.839   5.741  0.8425 -0.5015  0.1576
 1793ntf    on514740   6.954   6.879   5.978  0.0920  0.6096 -0.3459
 1793ntf    on514741   7.133   6.594   5.811 -0.0853  0.0248  0.0783
 1793ntf    on514742   6.920   6.527   5.696 -0.2630  0.3483  0.2431
 1793ntf    fn414743   7.053   6.409   6.024  0.5186 -0.1603 -0.5443
 1793ntf    fn414744   6.880   6.348   5.933 -1.0424  0.1602  0.1193
 1793ntf    fn414745   7.069   6.298   5.842 -0.4157  0.0361  0.1904
 1794ntf    cn114746   5.610   1.027   5.813 -0.0661 -0.1749 -0.2318
 1794ntf    sn214747   5.633   1.101   5.978  0.2356  0.1240 -0.4073
 1794ntf    nn314748   5.494   1.069   6.045  0.1063  0.4657 -0.5055
 1794ntf    sn214749   5.352   1.130   6.020 -0.0432  0.2656 -0.1452
 1794ntf    cn114750   5.291   1.140   6.191 -0.2643  0.0499 -0.2104
 1794ntf    fn414751   5.723   1.031   5.744  0.2410  0.6268  0.2958
 1794ntf    fn414752   5.578   0.899   5.825  0.3388 -0.2417  0.1655
 1794ntf    fn414753   5.523   1.089   5.735 -0.1690  0.0653  0.0730
 1794ntf    on514754   5.742   1.036   6.045 -0.4783 -0.0275  0.6283
 1794ntf    on514755   5.652   1.243   5.961  1.1483  0.0374 -0.1503
 1794ntf    on514756   5.260   1.049   5.944 -0.0901  0.1927 -0.0118
 1794ntf    on514757   5.364   1.269   5.983  0.2699  0.2723 -0.0187
 1794ntf    fn414758   5.176   1.204   6.197 -0.3123 -0.0518 -0.0329
 1794ntf    fn414759   5.278   1.026   6.256 -0.3975 -0.3953 -0.9984
 1794ntf    fn414760   5.374   1.212   6.265 -0.3789 -0.0807  0.0461
 1795ntf    cn114761   4.614   1.674   4.867  0.0019 -0.1673  0.1310
 1795ntf    sn214762   4.541   1.840   4.874  0.1060 -0.1047 -0.2323
 1795ntf    nn314763   4.439   1.831   4.755  0.1339 -0.1801 -0.2492
 1795ntf    sn214764   4.453   1.884   4.608 -0.0203  0.1363 -0.1495
 1795ntf    cn114765   4.410   2.060   4.622  0.2311  0.1880 -0.0112
 1795ntf    fn414766   4.721   1.673   4.944 -0.0623  0.6793  0.2375
 1795ntf    fn414767   4.529   1.579   4.901 -0.3137  0.0364 -0.0754
 1795ntf    fn414768   4.663   1.635   4.750 -0.2282 -0.0580 -0.0031
 1795ntf    on514769   4.474   1.844   5.002  0.1171  0.4114 -0.2384
 1795ntf    on514770   4.650   1.932   4.853 -0.0900  0.0308 -0.6755
 1795ntf    on514771   4.354   1.824   4.523  0.0270 -0.1055 -0.0334
 1795ntf    on514772   4.584   1.886   4.546  0.1362  0.5250  0.1914
 1795ntf    fn414773   4.434   2.125   4.509  0.2102  0.1015 -0.0645
 1795ntf    fn414774   4.281   2.078   4.644  0.2377 -0.4359  0.5582
 1795ntf    fn414775   4.468   2.130   4.718 -0.3946  0.6642  0.0294
 1796ntf    cn114776   0.705   5.297   2.522  0.4626 -0.5684  0.3598
 1796ntf    sn214777   0.773   5.330   2.687 -0.0043  0.2658  0.3918
 1796ntf    nn314778   0.723   5.201   2.760  0.1749 -0.1549 -0.2226
 1796ntf    sn214779   0.641   5.184   2.893  0.2812 -0.1078 -0.1509
 1796ntf    cn114780   0.539   5.043   2.840 -0.0312  0.2535 -0.5138
 1796ntf    fn414781   0.754   5.367   2.421  0.4292 -0.0894  0.6716
 1796ntf    fn414782   0.730   5.172   2.489 -0.3183 -0.6852  0.1775
 1796ntf    fn414783   0.573   5.311   2.521  0.5496  0.3360  0.4952
 1796ntf    on514784   0.913   5.321   2.653 -0.1592 -0.9416  0.0327
 1796ntf    on514785   0.714   5.454   2.731 -0.1745  0.3303 -0.0153
 1796ntf    on514786   0.546   5.285   2.930  0.1821 -0.1511 -0.2854
 1796ntf    on514787   0.725   5.137   3.001  0.2071  0.0123 -0.0413
 1796ntf    fn414788   0.425   5.080   2.785 -0.0663  0.1386 -0.5191
 1796ntf    fn414789   0.611   4.961   2.765 -0.2567 -0.2598 -0.1754
 1796ntf    fn414790   0.513   4.972   2.948  0.1192  0.0117 -0.6360
 1797ntf    cn114791   1.640   3.754   0.027  0.2566 -0.2387 -0.3514
 1797ntf    sn214792   1.753   3.713   0.164 -0.0195 -0.2041 -0.1111
 1797ntf    nn314793   1.830   3.591   0.100  0.2130 -0.0462 -0.1322
 1797ntf    sn214794   1.797   3.439   0.083  0.0380 -0.0387  0.1394
 1797ntf    cn114795   1.873   3.401  -0.077  0.3133 -0.1210  0.2893
 1797ntf    fn414796   1.583   3.649  -0.029 -0.2370  0.2620 -0.7952
 1797ntf    fn414797   1.551   3.843   0.066  0.2890 -0.4241  0.1633
 1797ntf    fn414798   1.691   3.818  -0.077  0.0746  0.2430 -0.1439
 1797ntf    on514799   1.834   3.830   0.187 -0.3499  0.0567 -0.2725
 1797ntf    on514800   1.665   3.677   0.272 -0.1848  0.0316 -0.1669
 1797ntf    on514801   1.658   3.409   0.057 -0.0127 -0.2036  0.5905
 1797ntf    on514802   1.871   3.352   0.171  0.7413  0.0312 -0.3780
 1797ntf    fn414803   1.830   3.289  -0.134  0.0629  0.0457  0.1469
 1797ntf    fn414804   1.871   3.502  -0.163 -0.7159 -0.3162  0.0732
 1797ntf    fn414805   2.002   3.373  -0.068  0.3854  0.0876 -0.0656
 1798ntf    cn114806   2.689   1.505   1.130  0.1373  0.4469  0.0951
 1798ntf    sn214807   2.787   1.647   1.188  0.3321  0.2773  0.1819
 1798ntf    nn314808   2.748   1.744   1.070  0.0485  0.0681  0.1014
 1798ntf    sn214809   2.638   1.856   1.074 -0.3675 -0.3360  0.1824
 1798ntf    cn114810   2.567   1.834   0.908 -0.6087  0.0222  0.2377
 1798ntf    fn414811   2.712   1.474   1.003 -0.0431  0.5331  0.0412
 1798ntf    fn414812   2.706   1.395   1.202  0.0206  0.3301 -0.0528
 1798ntf    fn414813   2.561   1.541   1.130  0.1880  0.6274  0.1943
 1798ntf    on514814   2.721   1.661   1.315 -0.5353 -1.1657 -0.0778
 1798ntf    on514815   2.926   1.611   1.184  0.2442 -0.0056 -0.6357
 1798ntf    on514816   2.688   1.990   1.055 -0.8356 -0.1667  0.1516
 1798ntf    on514817   2.526   1.832   1.161 -0.3113 -0.1033  0.3183
 1798ntf    fn414818   2.658   1.824   0.813 -0.5445 -0.1166  0.3142
 1798ntf    fn414819   2.498   1.722   0.901 -0.6678  0.0969 -0.5124
 1798ntf    fn414820   2.489   1.930   0.861 -0.1894  0.1202 -0.2690
 1799ntf    cn114821   4.382   1.964   1.818 -0.4054 -0.1088  0.2198
 1799ntf    sn214822   4.269   2.029   1.691  0.1461  0.3783 -0.0258
 1799ntf    nn314823   4.204   1.896   1.639  0.2915  0.4748 -0.4607
 1799ntf    sn214824   4.179   1.823   1.503 -0.1368 -0.0689 -0.0965
 1799ntf    cn114825   4.316   1.706   1.485 -0.1003  0.0461 -0.5948
 1799ntf    fn414826   4.329   1.906   1.925 -0.4904  0.0093  0.2429
 1799ntf    fn414827   4.473   1.885   1.763 -0.0623  0.4193  0.0200
 1799ntf    fn414828   4.462   2.051   1.878 -0.2614  0.2174 -0.4293
 1799ntf    on514829   4.175   2.111   1.764 -0.5415 -0.1329 -0.3267
 1799ntf    on514830   4.355   2.097   1.598  0.2180  0.0839 -0.1757
 1799ntf    on514831   4.199   1.906   1.386 -0.2639  0.1596  0.0424
 1799ntf    on514832   4.066   1.733   1.499 -0.3447  0.1981 -0.2967
 1799ntf    fn414833   4.330   1.635   1.596 -0.5301  0.1314 -0.4836
 1799ntf    fn414834   4.292   1.634   1.376 -0.8830 -0.1786 -0.2789
 1799ntf    fn414835   4.433   1.768   1.476  0.2251 -0.4177  0.3129
 1800ntf    cn114836   0.922   4.735   3.014  0.2146 -0.2854 -0.2700
 1800ntf    sn214837   0.830   4.615   3.115 -0.2029  0.0162 -0.2851
 1800ntf    nn314838   0.808   4.709   3.238  0.3970 -0.0460 -0.1245
 1800ntf    sn214839   0.870   4.699   3.382  0.0619 -0.0251  0.0230
 1800ntf    cn114840   0.989   4.836   3.388 -0.0073  0.0405 -0.1309
 1800ntf    fn414841   0.852   4.848   3.007 -0.0172 -0.4616 -0.8489
 1800ntf    fn414842   1.041   4.779   3.051 -0.0195  0.3986 -0.3140
 1800ntf    fn414843   0.939   4.685   2.893 -0.5517 -0.4688 -0.3062
 1800ntf    on514844   0.711   4.588   3.039 -0.5288 -0.0936  0.2618
 1800ntf    on514845   0.920   4.502   3.125  0.2005  0.3064 -0.5866
 1800ntf    on514846   0.953   4.582   3.399 -0.0315 -0.1377 -0.2935
 1800ntf    on514847   0.769   4.727   3.481 -0.4963 -0.4693 -0.4195
 1800ntf    fn414848   1.076   4.829   3.288 -0.1121  0.0983 -0.2265
 1800ntf    fn414849   0.921   4.949   3.379  0.1165  0.1054 -0.2771
 1800ntf    fn414850   1.063   4.833   3.497  0.0283  0.5531 -0.1377
 1801ntf    cn114851   5.104   0.470   0.339 -0.0481  0.1290 -0.0900
 1801ntf    sn214852   4.987   0.453   0.201  0.1868  0.2162 -0.3017
 1801ntf    nn314853   5.057   0.550   0.099  0.7900 -0.2938 -0.3771
 1801ntf    sn214854   5.051   0.704   0.070  0.0927 -0.1978  0.2612
 1801ntf    cn114855   5.015   0.700  -0.108 -0.0999 -0.2820  0.3022
 1801ntf    fn414856   5.230   0.481   0.298  0.2902  0.6201  1.0585
 1801ntf    fn414857   5.065   0.585   0.392 -0.3405 -0.0263  0.0302
 1801ntf    fn414858   5.103   0.380   0.435 -0.7073  0.2168 -0.0112
 1801ntf    on514859   5.007   0.317   0.159  0.4048  0.3994 -0.8110
 1801ntf    on514860   4.862   0.480   0.267  0.2152 -0.8617  0.2060
 1801ntf    on514861   5.173   0.776   0.097  0.1050 -0.0570 -0.1598
 1801ntf    on514862   4.927   0.764   0.113  0.1497  0.1254 -0.0201
 1801ntf    fn414863   4.987   0.819  -0.157  0.2171 -0.2851  0.1086
 1801ntf    fn414864   5.117   0.652  -0.177  0.3126  0.2460  0.5420
 1801ntf    fn414865   4.913   0.619  -0.132 -0.2173 -0.0263 -0.0648
 1802ntf    cn114866   3.812   1.865   6.380 -0.2330 -0.2355 -0.2603
 1802ntf    sn214867   3.955   1.945   6.459 -0.4645 -0.1761  0.1046
 1802ntf    nn314868   3.899   2.086   6.501  0.2934  0.1282  0.1158
 1802ntf    sn214869   3.907   2.229   6.438 -0.2265  0.1782  0.1589
 1802ntf    cn114870   4.070   2.279   6.502  0.1097 -0.3935 -0.2450
 1802ntf    fn414871   3.707   1.862   6.461 -0.1569  0.6931 -0.1121
 1802ntf    fn414872   3.771   1.932   6.274 -0.0356  0.0611 -0.1491
 1802ntf    fn414873   3.837   1.743   6.335  0.8254 -0.1539  0.0686
 1802ntf    on514874   3.998   1.878   6.579 -0.1359 -0.0171  0.0790
 1802ntf    on514875   4.058   1.936   6.358  0.0666  0.5269  0.5652
 1802ntf    on514876   3.812   2.319   6.500 -0.2740  0.8122 -0.8065
 1802ntf    on514877   3.931   2.237   6.296 -1.1512 -0.2636 -0.0246
 1802ntf    fn414878   4.093   2.405   6.470 -0.0146 -0.2288  0.3081
 1802ntf    fn414879   4.073   2.265   6.634 -0.4976  0.5909 -0.1121
 1802ntf    fn414880   4.167   2.213   6.441  0.3974 -0.0403 -0.1698
 1803ntf    cn114881   3.920   2.923   6.037 -0.0596  0.1328 -0.1811
 1803ntf    sn214882   4.042   2.841   6.144 -0.0633  0.2620 -0.0776
 1803ntf    nn314883   4.097   2.740   6.037  0.2521  0.1051  0.2325
 1803ntf    sn214884   4.243   2.701   5.994  0.2322  0.1178  0.1525
 1803ntf    cn114885   4.247   2.534   6.068 -0.1322 -0.0311 -0.1591
 1803ntf    fn414886   3.952   2.966   5.915 -0.2997 -0.3749 -0.4253
 1803ntf    fn414887   3.820   2.839   6.018 -0.0764  0.0396  0.3313
 1803ntf    fn414888   3.866   3.028   6.097 -0.4194 -0.1796  0.0411
 1803ntf    on514889   4.137   2.942   6.184  0.5474 -0.2579 -0.1954
 1803ntf    on514890   3.970   2.768   6.245  0.1244 -0.0593 -0.1771
 1803ntf    on514891   4.350   2.772   6.058  0.3350  0.7890 -0.7550
 1803ntf    on514892   4.251   2.665   5.855 -0.1933  0.1457  0.1177
 1803ntf    fn414893   4.233   2.539   6.199  0.4264  0.1027 -0.1037
 1803ntf    fn414894   4.156   2.447   6.027 -0.1698 -0.1349  0.1487
 1803ntf    fn414895   4.367   2.484   6.044  0.2372  0.5763  0.3852
 1804ntf    cn114896   0.959   5.721   3.255  0.0370  0.5563 -0.5752
 1804ntf    sn214897   1.070   5.836   3.341  0.2776 -0.1865  0.1175
 1804ntf    nn314898   1.210   5.796   3.282  0.5089  0.7709 -0.0021
 1804ntf    sn214899   1.322   5.724   3.365  0.1992  0.0391 -0.2067
 1804ntf    cn114900   1.434   5.867   3.356 -0.1076  0.2484 -0.7231
 1804ntf    fn414901   0.834   5.765   3.269 -0.1812 -0.2021 -0.0623
 1804ntf    fn414902   0.976   5.706   3.125 -0.1862 -0.4412 -0.4954
 1804ntf    fn414903   0.961   5.599   3.305  0.2419  0.8430  0.1216
 1804ntf    on514904   1.035   5.964   3.285  0.1546 -0.1519  0.2721
 1804ntf    on514905   1.039   5.811   3.480  0.5441 -0.3391  0.1505
 1804ntf    on514906   1.406   5.630   3.295  0.3192 -0.0806  0.0952
 1804ntf    on514907   1.303   5.703   3.506 -0.1616  0.7004 -0.1519
 1804ntf    fn414908   1.433   5.919   3.234  0.5367 -0.3251 -0.9847
 1804ntf    fn414909   1.406   5.967   3.438 -0.4508 -0.2566 -0.2176
 1804ntf    fn414910   1.560   5.834   3.382 -0.2624  0.5271  0.4409
 1805ntf    cn114911   2.999   3.737   4.299  0.2415 -0.0812  0.4849
 1805ntf    sn214912   3.070   3.699   4.136 -0.1367 -0.1224  0.3284
 1805ntf    nn314913   2.947   3.627   4.071  0.3215 -0.0806 -0.6003
 1805ntf    sn214914   2.933   3.481   4.014 -0.3229 -0.1403 -0.3051
 1805ntf    cn114915   2.850   3.393   4.148 -0.3731 -0.0209 -0.2566
 1805ntf    fn414916   2.922   3.636   4.336  0.3304 -0.2008  0.3415
 1805ntf    fn414917   3.083   3.766   4.397  0.2523 -0.7674  0.6785
 1805ntf    fn414918   2.908   3.833   4.286  0.7557  0.3547  0.0960
 1805ntf    on514919   3.097   3.829   4.078  0.5756 -0.2600  0.3446
 1805ntf    on514920   3.181   3.614   4.170  0.0706 -0.0448 -0.1427
 1805ntf    on514921   3.054   3.405   3.996  0.1044  0.5116 -0.2061
 1805ntf    on514922   2.835   3.481   3.908 -0.0294  0.1978 -0.5819
 1805ntf    fn414923   2.900   3.407   4.270 -0.2375 -0.1611 -0.2953
 1805ntf    fn414924   2.725   3.435   4.165 -0.4872 -0.2590 -0.4949
 1805ntf    fn414925   2.837   3.262   4.130  0.6068 -0.2497  0.5866
 1806ntf    cn114926   2.655   4.632   3.135 -0.0946  0.1506  0.0210
 1806ntf    sn214927   2.545   4.554   3.257 -0.1712  0.6075  0.2471
 1806ntf    nn314928   2.558   4.406   3.204 -0.4329  0.5141  0.4391
 1806ntf    sn214929   2.638   4.284   3.260 -0.5733  0.1757 -0.0959
 1806ntf    cn114930   2.510   4.211   3.366 -0.3078 -0.5289 -0.2506
 1806ntf    fn414931   2.770   4.567   3.129  0.2607  0.7708  0.0487
 1806ntf    fn414932   2.596   4.632   3.017 -0.3080 -0.6418  0.1159
 1806ntf    fn414933   2.677   4.758   3.168  0.2142  0.2650 -0.6200
 1806ntf    on514934   2.607   4.592   3.381  0.3709  0.7370 -0.0644
 1806ntf    on514935   2.420   4.612   3.214 -0.5504 -0.7834 -0.6227
 1806ntf    on514936   2.740   4.319   3.356 -0.0508 -0.0134 -0.5728
 1806ntf    on514937   2.677   4.175   3.173 -0.0099 -0.1366  0.5367
 1806ntf    fn414938   2.467   4.305   3.449  0.2533 -0.0920 -0.4436
 1806ntf    fn414939   2.404   4.158   3.308  0.0309 -0.7790 -0.6451
 1806ntf    fn414940   2.574   4.123   3.440  0.2544  0.2905  0.2532
 1807ntf    cn114941   2.368   0.728   1.436  0.5067  0.3779 -0.3509
 1807ntf    sn214942   2.207   0.799   1.482  0.4328 -0.0673  0.0920
 1807ntf    nn314943   2.149   0.677   1.561  0.3307 -0.2352 -0.2403
 1807ntf    sn214944   2.073   0.554   1.501  0.2731 -0.1668 -0.3079
 1807ntf    cn114945   1.901   0.581   1.553  0.4738  0.0367  0.2561
 1807ntf    fn414946   2.353   0.606   1.387 -0.0405  0.2252  0.1919
 1807ntf    fn414947   2.424   0.803   1.342  0.3260 -0.2124 -0.9420
 1807ntf    fn414948   2.445   0.712   1.543  0.6024  0.0608 -0.4664
 1807ntf    on514949   2.233   0.898   1.584  0.1782  0.2864 -0.1868
 1807ntf    on514950   2.140   0.846   1.363  0.2538  0.7062  0.4883
 1807ntf    on514951   2.119   0.430   1.559  0.5173  0.2478  0.3860
 1807ntf    on514952   2.079   0.556   1.357 -0.3685 -0.2900 -0.3400
 1807ntf    fn414953   1.854   0.694   1.502  0.2119 -0.3188 -0.3099
 1807ntf    fn414954   1.827   0.477   1.520  0.6736 -0.1244  0.3155
 1807ntf    fn414955   1.880   0.609   1.680 -0.7159  0.2729  0.0263
 1808ntf    cn114956   6.673   0.310   5.463 -0.0090  0.3451  0.6865
 1808ntf    sn214957   6.624   0.485   5.471 -0.3328  0.2745  0.2897
 1808ntf    nn314958   6.671   0.515   5.325 -0.5818 -0.1227  0.1262
 1808ntf    sn214959   6.626   0.617   5.215  0.3497  0.0316 -0.1247
 1808ntf    cn114960   6.753   0.747   5.223 -0.0914  0.4538  0.1058
 1808ntf    fn414961   6.671   0.265   5.587 -0.1942 -0.0834  0.5301
 1808ntf    fn414962   6.592   0.233   5.392  0.5540  0.1103  0.2862
 1808ntf    fn414963   6.796   0.292   5.415 -0.0680 -0.6010  0.8834
 1808ntf    on514964   6.481   0.480   5.490 -0.3347  0.1823  0.2519
 1808ntf    on514965   6.699   0.544   5.579  0.3045 -0.7354  0.4144
 1808ntf    on514966   6.504   0.686   5.249 -0.0735 -0.5798 -0.3846
 1808ntf    on514967   6.642   0.569   5.080  0.3048 -0.0966 -0.0848
 1808ntf    fn414968   6.879   0.707   5.226 -0.1102  0.4254  0.4877
 1808ntf    fn414969   6.738   0.848   5.138 -0.1475  0.4580  0.1203
 1808ntf    fn414970   6.746   0.801   5.343  0.0544  0.1324  0.2602
 1809ntf    cn114971   0.423   4.817   6.688  0.0561 -0.3495 -0.2832
 1809ntf    sn214972   0.546   4.767   6.813 -0.3775 -0.0713  0.2630
 1809ntf    nn314973   0.620   4.903   6.835 -0.5064  0.0202  0.1345
 1809ntf    sn214974   0.763   4.955   6.794 -0.4777 -0.2390 -0.0958
 1809ntf    cn114975   0.850   4.919   6.949 -0.3325  0.1063 -0.0987
 1809ntf    fn414976   0.469   4.861   6.572 -0.1042  0.6968  0.0365
 1809ntf    fn414977   0.341   4.718   6.656 -0.1980 -0.0852 -0.4552
 1809ntf    fn414978   0.346   4.912   6.740  0.1502 -0.3146 -0.2069
 1809ntf    on514979   0.471   4.723   6.928  0.1674 -0.3613  0.5048
 1809ntf    on514980   0.630   4.664   6.757 -0.5097 -0.4028  0.6677
 1809ntf    on514981   0.763   5.098   6.776  0.8683 -0.2627 -0.3801
 1809ntf    on514982   0.837   4.875   6.699  0.7096  0.5361  0.1590
 1809ntf    fn414983   0.829   4.802   7.008 -0.0395  0.3080  0.4181
 1809ntf    fn414984   0.980   4.926   6.927 -0.3633  0.4892 -0.1612
 1809ntf    fn414985   0.831   5.018   7.035 -0.2772 -0.0469  0.0913
 1810ntf    cn114986   6.713   4.657   6.499 -0.1405  0.3232  0.0402
 1810ntf    sn214987   6.644   4.764   6.629 -0.5950  0.2394 -0.1312
 1810ntf    nn314988   6.537   4.671   6.696  0.4292 -0.6070  0.3635
 1810ntf    sn214989   6.437   4.703   6.813  0.1025  0.0382 -0.0809
 1810ntf    cn114990   6.508   4.606   6.951  0.0683  0.0719 -0.0398
 1810ntf    fn414991   6.730   4.530   6.533  0.3637  0.3637 -0.0563
 1810ntf    fn414992   6.651   4.658   6.382  0.3803 -0.8398 -0.2616
 1810ntf    fn414993   6.832   4.706   6.469 -0.1246  0.2663  0.0124
 1810ntf    on514994   6.754   4.795   6.716 -0.4709 -0.0205 -0.1938
 1810ntf    on514995   6.592   4.878   6.557  0.2755  0.4989 -0.3574
 1810ntf    on514996   6.304   4.649   6.799  0.0697 -0.1299  0.8111
 1810ntf    on514997   6.457   4.840   6.854  0.5713  0.2014 -0.8427
 1810ntf    fn414998   6.530   4.481   6.913 -0.2597  0.0046 -0.0207
 1810ntf    fn414999   6.620   4.665   6.988  0.0169  0.0893  0.0872
 1810ntf    fn415000   6.424   4.601   7.053 -0.2498  0.1496 -0.2951
 1811ntf    cn115001   3.103   0.469   1.922 -0.0875  0.4815 -0.0008
 1811ntf    sn215002   3.220   0.476   2.061  0.0320 -0.4807 -0.0419
 1811ntf    nn315003   3.176   0.345   2.135 -0.2474 -0.4050 -0.0733
 1811ntf    sn215004   3.251   0.265   2.248 -0.1590 -0.6491 -0.3030
 1811ntf    cn115005   3.340   0.144   2.146  0.1767 -0.6957  0.0468
 1811ntf    fn415006   3.098   0.575   1.844  0.4527  0.3793 -0.1786
 1811ntf    fn415007   3.133   0.372   1.837 -0.3221  0.1408  0.3018
 1811ntf    fn415008   2.977   0.456   1.960 -0.0159  0.3363  0.1924
 1811ntf    on515009   3.346   0.468   1.991  0.4919 -1.4879  0.8591
 1811ntf    on515010   3.186   0.605   2.116  0.2220 -0.4144 -0.0804
 1811ntf    on515011   3.148   0.191   2.317 -0.1974  0.4247  0.8232
 1811ntf    on515012   3.353   0.332   2.325 -0.5995 -0.3543  0.0329
 1811ntf    fn415013   3.445   0.190   2.080  0.0929  0.1373  0.4746
 1811ntf    fn415014   3.394   0.056   2.228  0.3712 -0.5670  0.0588
 1811ntf    fn415015   3.266   0.067   2.069  0.2372 -0.0560 -0.6732
 1812ntf    cn115016   6.791   3.033   4.510  0.0521  0.0580 -0.2003
 1812ntf    sn215017   6.687   2.902   4.437 -0.2434  0.1766  0.0079
 1812ntf    nn315018   6.793   2.807   4.372 -0.2108  0.2826 -0.0948
 1812ntf    sn215019   6.846   2.830   4.226 -0.0262  0.1883 -0.0423
 1812ntf    cn115020   7.003   2.742   4.257 -0.2065  0.0604  0.5116
 1812ntf    fn415021   6.718   3.137   4.546  0.0717 -0.2302  0.6880
 1812ntf    fn415022   6.851   2.991   4.620 -0.4475 -0.3714 -0.0880
 1812ntf    fn415023   6.885   3.084   4.432  0.2570  0.0135  0.0154
 1812ntf    on515024   6.639   2.830   4.553 -0.6834  0.5856  0.0826
 1812ntf    on515025   6.597   2.971   4.348 -0.3710 -0.2688 -0.2097
 1812ntf    on515026   6.883   2.965   4.193  0.1347  0.1683  0.0530
 1812ntf    on515027   6.777   2.740   4.136  0.4294  0.3378 -0.5492
 1812ntf    fn415028   7.068   2.703   4.149 -0.5353  0.8534  0.0171
 1812ntf    fn415029   7.089   2.817   4.324 -0.1405  0.4875 -0.0461
 1812ntf    fn415030   6.974   2.632   4.325  0.7301 -0.0879  0.6795
 1813ntf    cn115031   0.918   6.383   6.041 -0.4126 -0.1112 -0.0159
 1813ntf    sn215032   0.874   6.289   5.891 -0.1294  0.0226 -0.1837
 1813ntf    nn315033   0.722   6.258   5.918 -0.1246 -0.1821 -0.3996
 1813ntf    sn215034   0.600   6.336   5.858  0.0227  0.4909  0.1698
 1813ntf    cn115035   0.569   6.241   5.706  0.0203  0.3614  0.2504
 1813ntf    fn415036   1.046   6.382   6.071 -0.5422 -0.4133  0.5487
 1813ntf    fn415037   0.893   6.513   6.033  0.1160  0.0030  0.2040
 1813ntf    fn415038   0.852   6.329   6.142  0.2339 -0.4307  0.2399
 1813ntf    on515039   0.907   6.381   5.785  0.1120  0.1503  0.0004
 1813ntf    on515040   0.949   6.166   5.903 -0.3795 -0.2227 -1.0579
 1813ntf    on515041   0.627   6.472   5.818  0.3001  0.4817  0.3245
 1813ntf    on515042   0.480   6.309   5.934 -0.2901  0.0258 -0.4786
 1813ntf    fn415043   0.465   6.284   5.636  0.3386  0.4520 -0.1668
 1813ntf    fn415044   0.666   6.237   5.617  0.1650 -0.5213  0.4374
 1813ntf    fn415045   0.542   6.113   5.729  0.7546  0.1551 -0.0098
 1814ntf    cn115046   6.561   2.639   5.224 -0.0102  0.3246  0.0893
 1814ntf    sn215047   6.454   2.761   5.142 -0.2139  0.0263 -0.0885
 1814ntf    nn315048   6.307   2.727   5.185 -0.0653 -0.3155  0.1530
 1814ntf    sn215049   6.244   2.789   5.315  0.1208  0.3368 -0.0633
 1814ntf    cn115050   6.105   2.882   5.244 -0.2289  0.0573  0.2558
 1814ntf    fn415051   6.551   2.641   5.356 -0.3587 -0.7951  0.0915
 1814ntf    fn415052   6.538   2.515   5.185  0.1031  0.3101  0.0686
 1814ntf    fn415053   6.689   2.664   5.202  0.0505  0.1899  0.2870
 1814ntf    on515054   6.524   2.877   5.191  0.3402 -0.1512 -0.4436
 1814ntf    on515055   6.469   2.728   5.002  0.3920  0.4368 -0.1277
 1814ntf    on515056   6.319   2.892   5.382  0.1338  0.5317 -0.3725
 1814ntf    on515057   6.179   2.683   5.389 -0.1424  0.2652 -0.3914
 1814ntf    fn415058   6.017   2.917   5.337 -0.0939  0.1812  0.3364
 1814ntf    fn415059   6.139   2.986   5.171 -0.5008 -0.1395 -0.1530
 1814ntf    fn415060   6.029   2.810   5.163  0.8329 -0.9954  0.1733
 1815ntf    cn115061   6.364   0.025   5.516 -0.0887  0.3782  0.3780
 1815ntf    sn215062   6.249  -0.113   5.488  0.1053  0.2883  0.0284
 1815ntf    nn315063   6.318  -0.207   5.383  0.0644  0.1143  0.1592
 1815ntf    sn215064   6.258  -0.235   5.241  0.1933  0.4392  0.0418
 1815ntf    cn115065   6.397  -0.324   5.166  0.0140  0.2044 -0.0123
 1815ntf    fn415066   6.481  -0.002   5.571 -0.0890 -0.0619  0.1663
 1815ntf    fn415067   6.397   0.076   5.399 -0.3172 -0.1043  0.0991
 1815ntf    fn415068   6.310   0.132   5.573 -0.0313  0.9816 -0.6686
 1815ntf    on515069   6.239  -0.168   5.620 -0.4662  0.4623  0.0619
 1815ntf    on515070   6.130  -0.049   5.434  0.1479  0.6061  0.3076
 1815ntf    on515071   6.259  -0.123   5.149  0.1085  0.3223 -0.1017
 1815ntf    on515072   6.153  -0.334   5.232  0.3890  0.2377 -0.0110
 1815ntf    fn415073   6.513  -0.260   5.166  0.1150  0.0265 -0.3046
 1815ntf    fn415074   6.419  -0.432   5.239 -0.2307 -0.0835 -0.3604
 1815ntf    fn415075   6.378  -0.357   5.039 -0.0271 -0.5805  0.1937
 1816ntf    cn115076   4.149   5.258   5.655  0.2806 -0.1946 -0.8009
 1816ntf    sn215077   4.128   5.436   5.687 -0.3064 -0.4259  0.1342
 1816ntf    nn315078   4.215   5.437   5.818  0.1222 -0.2691 -0.1531
 1816ntf    sn215079   4.204   5.539   5.936 -0.1746  0.0517 -0.4551
 1816ntf    cn115080   4.384   5.549   5.957 -0.2836  0.1064  0.5227
 1816ntf    fn415081   4.098   5.171   5.740 -0.2042  0.4649 -0.4006
 1816ntf    fn415082   4.093   5.224   5.540 -0.0900 -0.7690 -0.4599
 1816ntf    fn415083   4.274   5.220   5.638  0.3224 -0.3599 -0.1622
 1816ntf    on515084   4.192   5.505   5.578 -0.3834 -0.5448  0.0137
 1816ntf    on515085   3.986   5.462   5.696 -0.0720  1.0053 -0.0467
 1816ntf    on515086   4.152   5.490   6.061 -0.0376  0.0510 -0.3986
 1816ntf    on515087   4.170   5.675   5.902  0.0014  0.2743  0.2283
 1816ntf    fn415088   4.412   5.641   6.048  0.0323  0.0161  0.5174
 1816ntf    fn415089   4.424   5.436   6.013 -0.6650 -0.2089  0.1589
 1816ntf    fn415090   4.448   5.564   5.842  0.1082 -0.4635  0.6581
 1817ntf    cn115091   4.411   6.821   2.983 -0.0668 -0.0423 -0.1244
 1817ntf    sn215092   4.472   6.710   2.854  0.3418 -0.2153  0.2151
 1817ntf    nn315093   4.610   6.770   2.808  0.0358 -0.1817 -0.6912
 1817ntf    sn215094   4.760   6.743   2.845 -0.2413 -0.1671  0.4757
 1817ntf    cn115095   4.825   6.747   2.676  0.0578 -0.5748  0.5811
 1817ntf    fn415096   4.453   6.779   3.101 -0.4975 -0.0308  0.0367
 1817ntf    fn415097   4.456   6.943   2.961  0.3667 -0.0609  0.6423
 1817ntf    fn415098   4.279   6.825   2.995 -0.1136 -0.9171 -0.3024
 1817ntf    on515099   4.477   6.584   2.923  0.6744 -0.1615  0.2879
 1817ntf    on515100   4.363   6.726   2.761  0.3499 -0.1491  0.2174
 1817ntf    on515101   4.788   6.608   2.888  0.1393 -0.2406  0.0012
 1817ntf    on515102   4.826   6.848   2.920 -0.3023  0.0214  0.2646
 1817ntf    fn415103   4.954   6.717   2.676  0.2719  0.2834 -0.0991
 1817ntf    fn415104   4.764   6.651   2.608  0.0813 -0.0610 -0.1832
 1817ntf    fn415105   4.810   6.869   2.627  0.0010 -0.5810  0.5834
 1818ntf    cn115106   0.929   0.295   1.047 -0.0601 -0.5437 -0.4306
 1818ntf    sn215107   0.917   0.260   1.225 -0.2878  0.3231 -0.2706
 1818ntf    nn315108   1.039   0.164   1.254 -0.6066  0.0569  0.1997
 1818ntf    sn215109   1.041   0.008   1.272  0.1716  0.0462  0.0298
 1818ntf    cn115110   1.052   0.005   1.454  0.0561  0.2081  0.0397
 1818ntf    fn415111   0.835   0.372   0.996 -0.0045 -0.2489 -0.0862
 1818ntf    fn415112   1.040   0.363   1.024 -0.2505  0.0450  0.3587
 1818ntf    fn415113   0.916   0.185   0.975 -0.1358 -0.6321 -0.2826
 1818ntf    on515114   0.939   0.382   1.297 -0.1341  0.4849 -0.5884
 1818ntf    on515115   0.785   0.205   1.241 -0.2137  0.1591 -0.2113
 1818ntf    on515116   1.168  -0.052   1.237 -0.0350 -0.5251  0.2511
 1818ntf    on515117   0.925  -0.071   1.242 -0.6642  1.1615  0.2680
 1818ntf    fn415118   1.040   0.130   1.498 -0.6706  0.0712  0.2427
 1818ntf    fn415119   0.963  -0.069   1.518  0.4461  0.3375  0.7444
 1818ntf    fn415120   1.168  -0.037   1.503  0.0748  0.2007 -0.0109
 1819ntf    cn115121   1.824   4.282   3.020 -0.2240 -0.3107 -0.0551
 1819ntf    sn215122   1.847   4.321   2.844  0.2337 -0.4106 -0.0195
 1819ntf    nn315123   1.835   4.478   2.838 -0.1444 -0.4259  0.2439
 1819ntf    sn215124   1.762   4.573   2.939  0.0162  0.0351 -0.0720
 1819ntf    cn115125   1.813   4.734   2.871 -0.2890  0.2386  0.1806
 1819ntf    fn415126   1.704   4.314   3.067 -0.0035 -0.1726  0.4174
 1819ntf    fn415127   1.826   4.151   3.035  0.4550 -0.2655  0.2992
 1819ntf    fn415128   1.922   4.324   3.098 -0.0233 -0.2989 -0.3150
 1819ntf    on515129   1.986   4.289   2.824  0.1383 -0.6196 -0.3612
 1819ntf    on515130   1.738   4.251   2.780  0.3558 -0.3964 -0.2428
 1819ntf    on515131   1.811   4.579   3.074  0.5133 -0.4269 -0.2291
 1819ntf    on515132   1.619   4.569   2.920 -0.0212  0.1005  0.1899
 1819ntf    fn415133   1.755   4.757   2.754 -0.5196  0.0565  0.2587
 1819ntf    fn415134   1.794   4.833   2.957 -0.4281  0.4810 -0.1257
 1819ntf    fn415135   1.942   4.736   2.842 -0.1844 -0.2235  0.5974
 1820ntf    cn115136   4.465   0.722   5.766 -0.0113  0.0417  0.1266
 1820ntf    sn215137   4.454   0.634   5.925 -0.3755 -0.0257  0.0652
 1820ntf    nn315138   4.299   0.625   5.949 -0.4212  0.3923 -0.0683
 1820ntf    sn215139   4.225   0.629   6.087 -0.3627 -0.4562 -0.0100
 1820ntf    cn115140   4.220   0.448   6.108 -0.3613 -0.4551  0.0000
 1820ntf    fn415141   4.389   0.830   5.769 -0.2179 -0.0807 -0.4753
 1820ntf    fn415142   4.586   0.765   5.732  0.1531 -0.3854  0.1576
 1820ntf    fn415143   4.427   0.640   5.669  0.4888  0.2251 -0.2302
 1820ntf    on515144   4.521   0.506   5.918 -0.1415  0.0849  0.2633
 1820ntf    on515145   4.516   0.740   6.001 -0.4124  0.1136 -0.0977
 1820ntf    on515146   4.087   0.671   6.084 -0.1688  0.2142  0.2246
 1820ntf    on515147   4.303   0.688   6.192  0.2573 -0.3732 -0.5141
 1820ntf    fn415148   4.346   0.407   6.099 -0.1621  0.2047 -0.2848
 1820ntf    fn415149   4.169   0.405   6.222 -0.4287 -1.2454 -0.3215
 1820ntf    fn415150   4.143   0.393   6.016 -0.0629  0.0923 -0.5918
 1821ntf    cn115151   1.791   2.334   2.137 -0.4260 -0.1235 -0.5301
 1821ntf    sn215152   1.709   2.227   2.258  0.0242  0.2248  0.0849
 1821ntf    nn315153   1.699   2.090   2.182  0.4468  0.1817  0.1014
 1821ntf    sn215154   1.765   1.952   2.219  0.0190 -0.0045  0.1723
 1821ntf    cn115155   1.644   1.879   2.334  0.2850 -0.2214  0.3145
 1821ntf    fn415156   1.896   2.273   2.086 -0.2362 -0.7359  0.5696
 1821ntf    fn415157   1.708   2.333   2.034 -0.7899 -0.3273 -0.2381
 1821ntf    fn415158   1.817   2.458   2.176 -0.2037 -0.2772 -0.1888
 1821ntf    on515159   1.799   2.233   2.371 -0.2030  0.1257  0.2707
 1821ntf    on515160   1.578   2.285   2.273  0.2630  0.8595 -0.2523
 1821ntf    on515161   1.890   1.954   2.290 -0.0931  0.2452  0.3676
 1821ntf    on515162   1.761   1.868   2.103  0.0052 -0.3714  0.4359
 1821ntf    fn415163   1.690   1.771   2.396  0.3798 -0.1430  0.3823
 1821ntf    fn415164   1.620   1.962   2.435  0.0117 -0.3107  0.3238
 1821ntf    fn415165   1.534   1.845   2.269  0.2483 -0.0904  0.3080
 1822ntf    cn115166   6.418   2.448   1.209 -0.0098 -0.0624 -0.2030
 1822ntf    sn215167   6.255   2.461   1.289  0.0939  0.1931 -0.0322
 1822ntf    nn315168   6.251   2.615   1.320 -0.3803  0.1178  0.2856
 1822ntf    sn215169   6.331   2.674   1.441 -0.0721 -0.0783  0.1781
 1822ntf    cn115170   6.202   2.718   1.562  0.0289  0.5854  0.0468
 1822ntf    fn415171   6.479   2.333   1.226 -0.3528 -0.1389  0.5337
 1822ntf    fn415172   6.417   2.464   1.077 -0.1683  0.2836 -0.1617
 1822ntf    fn415173   6.504   2.535   1.259 -0.4967  0.2747  0.0647
 1822ntf    on515174   6.165   2.423   1.182 -0.2466  0.6497  0.0873
 1822ntf    on515175   6.252   2.367   1.398 -0.3059 -0.1950 -0.3745
 1822ntf    on515176   6.377   2.804   1.397 -0.3018 -0.0893 -0.0983
 1822ntf    on515177   6.423   2.590   1.514 -0.2298 -0.3252  0.0919
 1822ntf    fn415178   6.103   2.635   1.534  0.0190  0.6461 -0.1016
 1822ntf    fn415179   6.239   2.703   1.688 -0.2740  0.4053  0.1138
 1822ntf    fn415180   6.158   2.842   1.548 -0.0541  0.5165 -0.3226
 1823ntf    cn115181   5.701   1.668   5.649  0.3824  0.3726 -0.2268
 1823ntf    sn215182   5.575   1.538   5.631  0.2491  0.4344  0.2631
 1823ntf    nn315183   5.443   1.618   5.602  0.4537  0.7452  0.1838
 1823ntf    sn215184   5.315   1.638   5.691  0.3044 -0.4254  0.2480
 1823ntf    cn115185   5.320   1.818   5.717  0.0719 -0.3890  0.0459
 1823ntf    fn415186   5.818   1.622   5.689  0.0515 -0.0820  0.2224
 1823ntf    fn415187   5.719   1.735   5.536 -0.0367  0.3486 -0.3103
 1823ntf    fn415188   5.670   1.760   5.739 -0.1106 -0.5658  0.5777
 1823ntf    on515189   5.617   1.468   5.512  0.8919 -0.1013  0.8007
 1823ntf    on515190   5.580   1.466   5.756  0.6325  0.1207  0.0688
 1823ntf    on515191   5.319   1.584   5.824  0.5903 -0.4137  0.2445
 1823ntf    on515192   5.191   1.614   5.620  0.4084  0.6242 -0.3117
 1823ntf    fn415193   5.433   1.854   5.776  0.1960 -0.3828 -0.1926
 1823ntf    fn415194   5.315   1.887   5.604  0.3400 -0.2514  0.1165
 1823ntf    fn415195   5.221   1.861   5.793  0.2755 -0.0203  0.1070
 1824ntf    cn115196   5.736   4.471   0.854 -0.4320 -0.1013 -0.1163
 1824ntf    sn215197   5.657   4.328   0.935  0.0960 -0.2020  0.2289
 1824ntf    nn315198   5.583   4.259   0.815  0.3559 -0.6952  0.3496
 1824ntf    sn215199   5.443   4.189   0.801  0.0954 -0.1474  0.1433
 1824ntf    cn115200   5.348   4.301   0.696 -0.1305 -0.4637  0.0087
 1824ntf    fn415201   5.656   4.565   0.807 -0.3670 -0.1088 -0.2420
 1824ntf    fn415202   5.825   4.527   0.935 -0.2804 -0.4138 -0.0655
 1824ntf    fn415203   5.805   4.430   0.749 -0.9233 -0.0139 -0.4722
 1824ntf    on515204   5.769   4.262   0.996 -0.0539 -0.2153  0.4887
 1824ntf    on515205   5.565   4.389   1.028  0.2386  0.2469  0.0821
 1824ntf    on515206   5.361   4.180   0.919 -0.0988  0.7413  0.0836
 1824ntf    on515207   5.455   4.067   0.725 -0.2177 -0.2436  0.2467
 1824ntf    fn415208   5.413   4.324   0.583  0.3361  0.1216  0.3924
 1824ntf    fn415209   5.224   4.260   0.672 -0.3498 -0.1682  0.6072
 1824ntf    fn415210   5.332   4.415   0.762  0.4984 -0.1681 -0.3393
 1825ntf    cn115211   0.803   5.134   2.110  0.1268 -0.1696  0.0154
 1825ntf    sn215212   0.792   5.072   1.940 -0.2154  0.1593 -0.0849
 1825ntf    nn315213   0.742   5.197   1.860 -0.1726 -0.1209 -0.5552
 1825ntf    sn215214   0.594   5.242   1.831 -0.2533 -0.0406 -0.0308
 1825ntf    cn115215   0.542   5.123   1.703  0.0076  0.1675 -0.3322
 1825ntf    fn415216   0.872   5.247   2.114 -0.0229 -0.0620 -0.3286
 1825ntf    fn415217   0.683   5.167   2.155  0.1859  0.3413 -0.1834
 1825ntf    fn415218   0.862   5.050   2.193 -0.6235 -0.4420  0.2769
 1825ntf    on515219   0.928   5.051   1.898 -0.0839  0.4619  0.1966
 1825ntf    on515220   0.699   4.963   1.959  0.6294 -0.5009  0.3112
 1825ntf    on515221   0.595   5.369   1.762 -0.4822 -0.0578 -0.0644
 1825ntf    on515222   0.505   5.226   1.943  0.1933 -0.7216  0.2296
 1825ntf    fn415223   0.645   5.074   1.635 -0.5083 -0.5542 -0.5978
 1825ntf    fn415224   0.482   5.015   1.750 -0.0019  0.1255 -0.4415
 1825ntf    fn415225   0.459   5.179   1.616 -0.4095 -0.1454 -0.1373
 1826ntf    cn115226   0.379   5.261   4.502 -0.1788  0.5617  0.0190
 1826ntf    sn215227   0.210   5.302   4.555 -0.3463 -0.1638  0.0628
 1826ntf    nn315228   0.225   5.454   4.590  0.1849 -0.1807 -0.0815
 1826ntf    sn215229   0.180   5.566   4.489 -0.0295  0.0839  0.3024
 1826ntf    cn115230  -0.001   5.573   4.498 -0.0873 -0.5839 -0.2462
 1826ntf    fn415231   0.445   5.188   4.590  0.1258  0.3032 -0.4195
 1826ntf    fn415232   0.373   5.195   4.387  0.1860  0.5924 -0.0159
 1826ntf    fn415233   0.457   5.365   4.479  0.4072 -0.0152 -0.6456
 1826ntf    on515234   0.125   5.276   4.441  0.4599 -0.1665 -0.5409
 1826ntf    on515235   0.198   5.215   4.669  0.7592 -0.4103  0.0002
 1826ntf    on515236   0.216   5.533   4.354 -0.5075  0.1665  0.1526
 1826ntf    on515237   0.217   5.701   4.524 -0.5042  0.4990 -0.7677
 1826ntf    fn415238  -0.040   5.622   4.615  0.3380 -1.0220  0.0825
 1826ntf    fn415239  -0.062   5.646   4.406 -0.3033 -0.3178  0.1042
 1826ntf    fn415240  -0.055   5.452   4.502 -0.2770 -0.4976 -0.1563
 1827ntf    cn115241   1.417   3.422   2.409  0.0260  0.0893  0.0207
 1827ntf    sn215242   1.257   3.356   2.352  0.0061  0.1916 -0.0409
 1827ntf    nn315243   1.276   3.201   2.363  0.2241  0.2257  0.0730
 1827ntf    sn215244   1.179   3.086   2.318  0.1438  0.4057 -0.2193
 1827ntf    cn115245   1.116   3.031   2.480  0.7428 -0.1595 -0.1719
 1827ntf    fn415246   1.429   3.553   2.398 -0.1332  0.0660 -0.4731
 1827ntf    fn415247   1.444   3.397   2.536  0.4019  0.7472  0.0719
 1827ntf    fn415248   1.517   3.362   2.348  0.1321  0.3445 -0.0558
 1827ntf    on515249   1.158   3.412   2.441  0.0437  0.7843 -0.3659
 1827ntf    on515250   1.254   3.407   2.217  0.6840 -0.4913 -0.3181
 1827ntf    on515251   1.237   2.966   2.263  0.2297  0.3412  0.0117
 1827ntf    on515252   1.062   3.130   2.246 -0.0878 -0.1912 -0.2181
 1827ntf    fn415253   1.211   2.991   2.563  0.5021  0.3541  0.3566
 1827ntf    fn415254   1.046   3.128   2.536  0.7228  0.0117 -0.4887
 1827ntf    fn415255   1.041   2.922   2.478  0.1964  0.2070  0.0871
 1828ntf    cn115256   6.551   6.654   6.482 -0.2291  0.0637  0.4014
 1828ntf    sn215257   6.563   6.481   6.425 -0.2834  0.1596  0.0932
 1828ntf    nn315258   6.579   6.397   6.557  0.5190  0.3606  0.1266
 1828ntf    sn215259   6.502   6.280   6.626  0.2027  0.5786  0.1462
 1828ntf    cn115260   6.647   6.177   6.665 -0.1705  0.0666  0.2042
 1828ntf    fn415261   6.448   6.670   6.564 -0.5196 -0.0843  0.0709
 1828ntf    fn415262   6.655   6.697   6.550  0.3313  0.3984 -0.6500
 1828ntf    fn415263   6.534   6.733   6.377 -0.2146 -0.2750  0.1416
 1828ntf    on515264   6.447   6.454   6.344 -0.4533  0.1220  0.3466
 1828ntf    on515265   6.691   6.494   6.359 -0.1171 -0.5298  0.2779
 1828ntf    on515266   6.428   6.194   6.537  0.2063  0.1598  0.5404
 1828ntf    on515267   6.450   6.307   6.758  0.3781  0.1261  0.3118
 1828ntf    fn415268   6.616   6.064   6.725 -0.2409  0.1523  0.3282
 1828ntf    fn415269   6.707   6.137   6.554 -0.5090  0.3082 -0.0689
 1828ntf    fn415270   6.736   6.237   6.743  0.2300 -0.1246 -0.0988
 1829ntf    cn115271   5.037   0.476   3.795  0.0608 -0.2580  0.0570
 1829ntf    sn215272   5.145   0.403   3.669  0.0586  0.1652 -0.1913
 1829ntf    nn315273   5.287   0.467   3.691  0.4854 -0.9412  0.3256
 1829ntf    sn215274   5.351   0.507   3.829  0.1324 -0.1992  0.2790
 1829ntf    cn115275   5.526   0.462   3.808  0.1139 -0.0262 -0.2712
 1829ntf    fn415276   5.049   0.607   3.807  0.6395 -0.3204  0.1623
 1829ntf    fn415277   4.912   0.449   3.759  0.2212 -0.0096 -0.7001
 1829ntf    fn415278   5.056   0.421   3.914 -0.5619 -0.5500  0.0264
 1829ntf    on515279   5.145   0.261   3.693  0.0282  0.2361  0.2305
 1829ntf    on515280   5.088   0.447   3.544  0.3363  0.1663 -0.3190
 1829ntf    on515281   5.325   0.425   3.944 -0.1108 -0.1452  0.2631
 1829ntf    on515282   5.366   0.649   3.845 -0.1918 -0.1257 -0.0501
 1829ntf    fn415283   5.601   0.479   3.917 -0.0281  0.5702 -0.2640
 1829ntf    fn415284   5.545   0.337   3.769 -0.0441 -0.0470 -0.2785
 1829ntf    fn415285   5.590   0.537   3.720  0.0949  0.2819 -0.0254
 1830ntf    cn115286   3.728   4.837   2.567  0.1463 -0.6929  0.5086
 1830ntf    sn215287   3.844   4.701   2.601  0.5186 -0.4487  0.2188
 1830ntf    nn315288   3.738   4.595   2.645 -0.0206 -0.1128 -0.2516
 1830ntf    sn215289   3.678   4.491   2.544 -0.0660 -0.1421 -0.1952
 1830ntf    cn115290   3.800   4.358   2.560  0.0581  0.0284  0.2736
 1830ntf    fn415291   3.668   4.831   2.450 -0.1650  0.6704  0.5855
 1830ntf    fn415292   3.637   4.864   2.659  0.3214 -0.2902  0.5667
 1830ntf    fn415293   3.785   4.956   2.553 -0.6773 -0.2837  0.5734
 1830ntf    on515294   3.917   4.685   2.478  0.6848  0.3412  0.2089
 1830ntf    on515295   3.918   4.751   2.715  0.7752  0.3292 -0.2829
 1830ntf    on515296   3.679   4.532   2.405 -0.0730 -0.3567 -0.2584
 1830ntf    on515297   3.555   4.434   2.593 -0.1797  0.0473 -0.2565
 1830ntf    fn415298   3.765   4.245   2.501 -0.0318  0.0139  0.3529
 1830ntf    fn415299   3.918   4.393   2.513 -0.0902  0.1361 -0.0222
 1830ntf    fn415300   3.813   4.329   2.689  0.4937  0.3278  0.2961
 1831ntf    cn115301   2.685   4.350   2.535  0.0015  0.0746 -0.1617
 1831ntf    sn215302   2.691   4.437   2.376  0.1318  0.2378 -0.0682
 1831ntf    nn315303   2.537   4.453   2.347  0.1917  0.1430 -0.4414
 1831ntf    sn215304   2.465   4.492   2.213 -0.2636  0.1859 -0.1841
 1831ntf    cn115305   2.429   4.665   2.256  0.2286  0.2035  0.1676
 1831ntf    fn415306   2.648   4.436   2.629 -0.0377  0.2213 -0.3121
 1831ntf    fn415307   2.594   4.256   2.556 -0.0452  0.1171 -0.1748
 1831ntf    fn415308   2.802   4.301   2.573 -0.1240  0.0472  0.1992
 1831ntf    on515309   2.757   4.561   2.410  0.6015 -0.0035 -0.0993
 1831ntf    on515310   2.772   4.348   2.297 -0.3053  0.1611 -0.4373
 1831ntf    on515311   2.338   4.423   2.215 -0.1347 -0.0641 -0.6494
 1831ntf    on515312   2.540   4.490   2.090 -0.2991  0.1896 -0.2058
 1831ntf    fn415313   2.337   4.710   2.173  0.1375  1.1778  0.7835
 1831ntf    fn415314   2.383   4.689   2.377 -0.1817 -0.3758  0.1287
 1831ntf    fn415315   2.530   4.750   2.241  0.2754  0.0456 -0.4314
 1832ntf    cn115316   2.040   1.586   4.722 -0.0431 -0.0834  0.3258
 1832ntf    sn215317   2.084   1.499   4.875  0.4828 -0.1678  0.1289
 1832ntf    nn315318   1.953   1.422   4.914  0.1867  0.1069 -0.3125
 1832ntf    sn215319   1.924   1.270   4.886 -0.1800  0.0428  0.3911
 1832ntf    cn115320   2.025   1.185   5.011 -0.3235 -0.4534  0.1709
 1832ntf    fn415321   1.947   1.675   4.752 -0.1634 -0.1333  0.1057
 1832ntf    fn415322   2.148   1.651   4.682  0.0149 -0.2195  0.2574
 1832ntf    fn415323   1.993   1.505   4.628  0.7502 -0.2267  0.0450
 1832ntf    on515324   2.198   1.419   4.836  0.0451 -0.6495 -0.1670
 1832ntf    on515325   2.105   1.603   4.973  0.2785 -0.1316  0.1352
 1832ntf    on515326   1.967   1.212   4.761 -0.2376  0.6141  0.1034
 1832ntf    on515327   1.794   1.235   4.938 -0.0645 -0.4043  0.3802
 1832ntf    fn415328   2.001   1.055   5.012 -0.1950 -0.4769  0.1520
 1832ntf    fn415329   2.156   1.202   5.002 -0.3767 -0.3569 -0.4918
 1832ntf    fn415330   1.990   1.222   5.133  0.0993  0.0668  0.1380
 1833ntf    cn115331   6.714   6.314   0.633 -0.0579 -0.0875  0.2482
 1833ntf    sn215332   6.665   6.482   0.683  0.2150  0.0475  0.0608
 1833ntf    nn315333   6.573   6.517   0.561 -0.1253 -0.2592  0.2290
 1833ntf    sn215334   6.432   6.587   0.554  0.0297  0.0156 -0.2090
 1833ntf    cn115335   6.319   6.445   0.572 -0.0712  0.1529  0.2550
 1833ntf    fn415336   6.819   6.264   0.696  0.5576  0.6661 -0.1540
 1833ntf    fn415337   6.615   6.226   0.636 -0.1201 -0.0310 -0.0803
 1833ntf    fn415338   6.753   6.302   0.507  0.1745 -0.2681  0.3363
 1833ntf    on515339   6.605   6.467   0.813 -0.6487 -0.1170 -0.3541
 1833ntf    on515340   6.784   6.563   0.675  0.3881 -0.2767 -0.7553
 1833ntf    on515341   6.406   6.639   0.422 -0.0464 -0.0296 -0.2121
 1833ntf    on515342   6.386   6.668   0.664 -0.0462 -0.1667 -0.1059
 1833ntf    fn415343   6.207   6.474   0.508  0.1287  0.0033 -0.1734
 1833ntf    fn415344   6.367   6.338   0.510  0.1973  0.0644  0.6182
 1833ntf    fn415345   6.293   6.420   0.699 -0.1516 -0.2589  0.1565
 1834ntf    cn115346   0.820   3.296   0.648  0.3405 -0.1003  0.3181
 1834ntf    sn215347   0.641   3.260   0.648  0.3025  0.0801 -0.2113
 1834ntf    nn315348   0.602   3.343   0.775 -0.4530 -0.6088  0.0136
 1834ntf    sn215349   0.585   3.318   0.930  0.1513  0.3374  0.2389
 1834ntf    cn115350   0.732   3.407   0.990  0.8407 -0.2879 -0.4968
 1834ntf    fn415351   0.870   3.267   0.529  1.0999  0.5565  0.4732
 1834ntf    fn415352   0.860   3.414   0.690  0.0621  0.0839  0.0681
 1834ntf    fn415353   0.885   3.209   0.723 -0.4598 -0.2073  0.8991
 1834ntf    on515354   0.588   3.318   0.527  1.0571  0.3180 -0.4350
 1834ntf    on515355   0.620   3.120   0.674 -0.1057  0.2358  0.3206
 1834ntf    on515356   0.620   3.184   0.969  0.2362  0.4136  0.4260
 1834ntf    on515357   0.468   3.381   0.985  0.3565  0.4897  0.5033
 1834ntf    fn415358   0.849   3.353   0.958  0.8142 -0.9178  0.4436
 1834ntf    fn415359   0.725   3.532   0.946  0.2214  0.0962  0.6604
 1834ntf    fn415360   0.730   3.409   1.122 -0.4276  0.0998 -0.5078
 1835ntf    cn115361   0.558   5.894   4.825  0.6613  0.0508  0.0576
 1835ntf    sn215362   0.583   5.911   4.646  0.1712 -0.4203 -0.0599
 1835ntf    nn315363   0.696   6.018   4.623 -0.2113 -0.0509 -0.2356
 1835ntf    sn215364   0.707   6.111   4.497 -0.3212  0.2754 -0.0050
 1835ntf    cn115365   0.881   6.153   4.468 -0.1587 -0.2796  0.1610
 1835ntf    fn415366   0.494   5.996   4.878  0.1707 -0.1747 -0.0934
 1835ntf    fn415367   0.482   5.790   4.859 -0.0458  0.4703 -0.2259
 1835ntf    fn415368   0.673   5.875   4.888  0.3031  0.0799  0.7230
 1835ntf    on515369   0.620   5.778   4.605  0.1500 -0.4637  0.0621
 1835ntf    on515370   0.456   5.957   4.595  0.3314  0.4300  0.2834
 1835ntf    on515371   0.655   6.241   4.532 -0.3303  0.1986  0.2707
 1835ntf    on515372   0.658   6.055   4.374 -0.3451 -0.0746  0.1626
 1835ntf    fn415373   0.959   6.064   4.408  0.4070  0.5460 -0.3565
 1835ntf    fn415374   0.886   6.257   4.386 -0.1511 -0.5372 -0.1681
 1835ntf    fn415375   0.939   6.183   4.583 -0.3538 -0.0037  0.1871
 1836ntf    cn115376   4.941   6.795   0.770  0.2216  0.0636 -0.0221
 1836ntf    sn215377   4.780   6.735   0.830 -0.0056  0.4875 -0.2008
 1836ntf    nn315378   4.808   6.581   0.826 -0.2150  0.4280  0.5882
 1836ntf    sn215379   4.911   6.501   0.914 -0.0496  0.0186  0.0225
 1836ntf    cn115380   5.060   6.472   0.813 -0.0441 -0.1524  0.0787
 1836ntf    fn415381   5.042   6.787   0.854  0.3094  0.6558 -0.0648
 1836ntf    fn415382   4.972   6.720   0.666 -0.2672 -0.2534  0.0566
 1836ntf    fn415383   4.947   6.919   0.723 -0.1398 -0.0284 -0.3145
 1836ntf    on515384   4.772   6.791   0.963 -0.5849  0.0467 -0.0471
 1836ntf    on515385   4.680   6.782   0.737 -0.7723  0.3144  0.5318
 1836ntf    on515386   4.877   6.361   0.921 -0.7156  0.0741 -1.6037
 1836ntf    on515387   4.949   6.566   1.036 -0.3147  0.4620 -0.1294
 1836ntf    fn415388   5.037   6.385   0.716 -0.0688  0.2325 -0.2632
 1836ntf    fn415389   5.098   6.583   0.752  0.1603 -0.1619  0.1873
 1836ntf    fn415390   5.168   6.429   0.877  0.4507  0.3648 -0.3998
 1837ntf    cn115391   0.190   2.361   3.107 -0.0056 -0.2827  0.4531
 1837ntf    sn215392   0.217   2.409   3.280  0.3386  0.0874  0.2975
 1837ntf    nn315393   0.075   2.381   3.339  0.2924  0.7611  0.5189
 1837ntf    sn215394  -0.063   2.453   3.316 -0.1616 -0.2366 -0.0029
 1837ntf    cn115395  -0.182   2.319   3.342  0.0874 -0.4446  0.0661
 1837ntf    fn415396   0.102   2.264   3.090  0.3727 -0.4389 -0.7761
 1837ntf    fn415397   0.152   2.467   3.038  0.0920 -0.4244  0.1758
 1837ntf    fn415398   0.305   2.332   3.047  0.1035  0.9344  0.0530
 1837ntf    on515399   0.303   2.305   3.330  0.1087 -0.3455 -0.1904
 1837ntf    on515400   0.267   2.544   3.272  0.0965  0.1803  0.3473
 1837ntf    on515401  -0.090   2.499   3.182  0.0404  0.0133  0.0400
 1837ntf    on515402  -0.096   2.540   3.427  0.2926 -0.3680  0.2404
 1837ntf    fn415403  -0.145   2.245   3.445  0.0303  0.5117  0.7802
 1837ntf    fn415404  -0.303   2.359   3.378 -0.0834 -0.2008 -0.7544
 1837ntf    fn415405  -0.195   2.232   3.242 -0.0152 -0.1859 -0.1473
 1838ntf    cn115406   5.347   4.641   4.065 -0.2901 -0.1023  0.0727
 1838ntf    sn215407   5.306   4.793   4.154 -0.2949 -0.0823  0.0363
 1838ntf    nn315408   5.422   4.805   4.260 -0.1610 -0.0106 -0.1196
 1838ntf    sn215409   5.440   4.735   4.399 -0.1667 -0.0028 -0.1145
 1838ntf    cn115410   5.386   4.869   4.509  0.1722  0.3691 -0.3992
 1838ntf    fn415411   5.314   4.536   4.139 -0.3180  0.0497  0.2725
 1838ntf    fn415412   5.283   4.627   3.950  0.3236 -0.5338 -0.2257
 1838ntf    fn415413   5.478   4.629   4.047 -0.2910  0.5469 -0.3680
 1838ntf    on515414   5.336   4.896   4.058  0.8208  0.0962  0.5612
 1838ntf    on515415   5.171   4.758   4.190 -0.1820 -0.2818  0.2689
 1838ntf    on515416   5.580   4.734   4.433 -0.2664 -0.3112  0.2951
 1838ntf    on515417   5.352   4.627   4.435 -0.1925 -0.0820 -0.4115
 1838ntf    fn415418   5.445   4.987   4.493  0.7042  0.0719 -0.6607
 1838ntf    fn415419   5.256   4.892   4.504  0.0297 -0.3592 -0.1838
 1838ntf    fn415420   5.425   4.828   4.628  0.4751  0.5779 -0.4253
 1839ntf    cn115421   1.082   2.926   0.293  0.2256 -0.1407  0.4324
 1839ntf    sn215422   1.184   2.909   0.144 -0.2666  0.2349  0.0510
 1839ntf    nn315423   1.124   2.778   0.080 -0.0715  0.4488 -0.5779
 1839ntf    sn215424   1.168   2.628   0.095 -0.5283  0.3795  0.0962
 1839ntf    cn115425   1.313   2.644  -0.014 -0.4297  0.2354  0.2059
 1839ntf    fn415426   1.121   3.024   0.373 -0.2186  0.2246  0.2011
 1839ntf    fn415427   0.955   2.950   0.269  0.1212 -0.0037  1.0927
 1839ntf    fn415428   1.087   2.820   0.373  0.6966 -0.3622  0.1171
 1839ntf    on515429   1.150   3.024   0.064 -0.5278  0.0281 -0.1393
 1839ntf    on515430   1.316   2.908   0.202 -0.0025  0.4693 -0.5309
 1839ntf    on515431   1.074   2.536   0.036  0.0339 -0.0373 -0.1596
 1839ntf    on515432   1.222   2.595   0.225  0.1942 -0.2591 -0.3593
 1839ntf    fn415433   1.287   2.712  -0.125 -0.5276  0.2350  0.2286
 1839ntf    fn415434   1.421   2.704   0.033 -0.3818 -0.1306  0.5718
 1839ntf    fn415435   1.358   2.529  -0.060 -0.4081  0.2245  0.2535
 1840ntf    cn115436   2.285   2.965   5.455 -0.2655 -0.0412 -0.6070
 1840ntf    sn215437   2.159   2.835   5.442  0.0299 -0.3836 -0.0894
 1840ntf    nn315438   2.248   2.715   5.490 -0.1811 -0.3018  0.5078
 1840ntf    sn215439   2.233   2.615   5.611 -0.0618  0.0597  0.8221
 1840ntf    cn115440   2.165   2.471   5.523 -0.0278  0.2022  0.5617
 1840ntf    fn415441   2.245   3.087   5.424  0.2451  0.2579 -0.1027
 1840ntf    fn415442   2.320   2.979   5.582 -0.4944  0.4457 -0.5969
 1840ntf    fn415443   2.397   2.940   5.390 -0.3251 -0.5136 -0.5314
 1840ntf    on515444   2.045   2.869   5.523  0.2837  0.5836 -0.1359
 1840ntf    on515445   2.137   2.827   5.299  0.1622  0.0755 -0.1372
 1840ntf    on515446   2.136   2.638   5.715 -0.2004 -0.1662  0.7427
 1840ntf    on515447   2.360   2.561   5.653  0.0123 -0.5744 -0.1954
 1840ntf    fn415448   2.050   2.500   5.465 -0.0408 -0.6921  0.1340
 1840ntf    fn415449   2.251   2.450   5.424  0.3958  0.5043  0.8562
 1840ntf    fn415450   2.155   2.366   5.603  0.5800 -0.4309 -0.1752
 1841ntf    cn115451   3.055   5.819   6.489 -0.0582 -0.1714 -0.1293
 1841ntf    sn215452   3.091   5.770   6.317 -0.2066 -0.1510 -0.1663
 1841ntf    nn315453   3.244   5.738   6.326 -0.1311  0.3574  0.4900
 1841ntf    sn215454   3.285   5.587   6.321  0.0639  0.4326 -0.3721
 1841ntf    cn115455   3.460   5.600   6.368 -0.0180 -0.3591  0.1640
 1841ntf    fn415456   3.134   5.919   6.526 -0.0216 -0.0345 -0.5743
 1841ntf    fn415457   2.929   5.850   6.515 -0.1288 -0.0962 -0.5605
 1841ntf    fn415458   3.073   5.732   6.587 -0.0742  0.0551  0.0772
 1841ntf    on515459   2.998   5.663   6.291 -0.4184 -0.1663  0.6171
 1841ntf    on515460   3.069   5.895   6.248 -0.2177  0.2571  0.5663
 1841ntf    on515461   3.287   5.528   6.189 -0.6414 -0.0817 -0.1585
 1841ntf    on515462   3.239   5.503   6.429  0.2522  0.3766 -0.3342
 1841ntf    fn415463   3.526   5.487   6.385 -0.1560 -0.4682 -0.0324
 1841ntf    fn415464   3.533   5.671   6.284 -0.1186 -0.2175  0.1972
 1841ntf    fn415465   3.475   5.665   6.483  0.2190 -0.3002  0.1009
 1842ntf    cn115466   2.375   2.944   1.791 -0.3716 -0.0718  0.3519
 1842ntf    sn215467   2.359   3.087   1.680  0.3469  0.0459  0.3964
 1842ntf    nn315468   2.442   3.041   1.554  0.1165  0.2939  0.1524
 1842ntf    sn215469   2.585   3.089   1.511  0.1271  0.2141  0.0978
 1842ntf    cn115470   2.546   3.232   1.406 -0.2716 -0.0165 -0.0691
 1842ntf    fn415471   2.503   2.910   1.799 -0.2303  0.5077  0.6342
 1842ntf    fn415472   2.332   2.959   1.915 -0.1873 -0.6212  0.4850
 1842ntf    fn415473   2.309   2.836   1.753 -0.5724  0.1729 -0.0059
 1842ntf    on515474   2.217   3.106   1.664  0.4397 -0.1166 -0.6677
 1842ntf    on515475   2.434   3.188   1.752  0.1050  0.4893  0.0331
 1842ntf    on515476   2.640   2.988   1.424 -0.2943  0.0993 -0.0380
 1842ntf    on515477   2.679   3.134   1.611  0.0911 -0.2874  0.3620
 1842ntf    fn415478   2.661   3.276   1.359 -0.1146  0.0095  0.3392
 1842ntf    fn415479   2.462   3.203   1.308 -0.5237  0.0546  0.1260
 1842ntf    fn415480   2.497   3.329   1.481 -0.0025 -0.1587  0.2903
 1843ntf    cn115481   3.734   4.280   3.390 -0.3630  0.3582  0.3230
 1843ntf    sn215482   3.570   4.212   3.350 -0.0368 -0.1469 -0.1688
 1843ntf    nn315483   3.491   4.248   3.481 -0.3810  0.2216 -0.4762
 1843ntf    sn215484   3.340   4.291   3.492 -0.3191  0.2793  0.1879
 1843ntf    cn115485   3.253   4.140   3.544  0.5266 -0.2987 -0.0488
 1843ntf    fn415486   3.745   4.320   3.516  0.2767  0.7205  0.1570
 1843ntf    fn415487   3.834   4.200   3.358  0.2622  1.5531 -0.7790
 1843ntf    fn415488   3.752   4.386   3.314  0.2492  0.2950  0.3786
 1843ntf    on515489   3.532   4.293   3.237  0.2462  0.6075  0.2652
 1843ntf    on515490   3.584   4.070   3.330 -0.3406 -0.2235  0.1448
 1843ntf    on515491   3.269   4.334   3.374 -0.0250 -0.8618 -0.4243
 1843ntf    on515492   3.323   4.370   3.611 -0.6403  0.7563 -0.1710
 1843ntf    fn415493   3.267   4.044   3.454 -0.7437 -0.9575  0.4330
 1843ntf    fn415494   3.300   4.093   3.658  0.7631 -0.6322 -0.2846
 1843ntf    fn415495   3.125   4.171   3.561  0.5467 -0.0764 -0.2972
 1844ntf    cn115496   3.666   3.317   2.614 -0.6046  0.4638  0.5867
 1844ntf    sn215497   3.612   3.418   2.472  0.2310  0.1281  0.0220
 1844ntf    nn315498   3.588   3.559   2.538 -0.1461  0.0790 -0.0093
 1844ntf    sn215499   3.675   3.683   2.579 -0.2114  0.1076  0.0427
 1844ntf    cn115500   3.601   3.829   2.500 -0.3197 -0.1414 -0.3176
 1844ntf    fn415501   3.766   3.375   2.678  0.2305 -0.4400  0.1289
 1844ntf    fn415502   3.566   3.287   2.696 -0.4872 -0.1258  0.5210
 1844ntf    fn415503   3.718   3.202   2.574 -0.3241  0.6486  0.4193
 1844ntf    on515504   3.726   3.410   2.384 -0.4622  0.3860 -0.9008
 1844ntf    on515505   3.496   3.342   2.435 -0.0096  0.2689  0.4741
 1844ntf    on515506   3.812   3.689   2.534 -0.0329 -0.1302  0.5441
 1844ntf    on515507   3.661   3.703   2.721  0.5423 -0.3885  0.1967
 1844ntf    fn415508   3.473   3.854   2.527 -0.2648 -0.2593  0.0628
 1844ntf    fn415509   3.670   3.936   2.534 -0.1269 -0.2608 -0.3365
 1844ntf    fn415510   3.590   3.819   2.369  0.2403  0.1168 -0.3836
 1845ntf    cn115511   0.406   3.463   5.250  0.2474  0.0893 -0.0657
 1845ntf    sn215512   0.308   3.578   5.149  0.0341  0.1635  0.2261
 1845ntf    nn315513   0.371   3.712   5.200 -0.1872  0.6087 -0.6580
 1845ntf    sn215514   0.303   3.807   5.304 -0.1487 -0.0998  0.0188
 1845ntf    cn115515   0.176   3.885   5.200 -0.0406 -0.3794 -0.3220
 1845ntf    fn415516   0.358   3.340   5.260 -0.0584  0.1946 -0.2381
 1845ntf    fn415517   0.529   3.449   5.203 -0.1421 -0.0040 -1.0790
 1845ntf    fn415518   0.418   3.506   5.374  0.0115  0.0840 -0.0410
 1845ntf    on515519   0.349   3.551   5.014 -0.3750 -0.2229  0.1761
 1845ntf    on515520   0.169   3.556   5.182  0.0760 -0.3658  0.0631
 1845ntf    on515521   0.397   3.913   5.333  0.2337 -0.4428  0.0483
 1845ntf    on515522   0.229   3.757   5.417  0.1850 -0.7564 -0.0521
 1845ntf    fn415523   0.121   3.979   5.275  0.5158 -0.2944 -0.0182
 1845ntf    fn415524   0.231   3.942   5.094  0.2100 -0.3287 -0.1661
 1845ntf    fn415525   0.074   3.811   5.160 -0.4846  0.1465 -0.1679
 1846ntf    cn115526   5.624   6.699   6.199  0.2778 -0.5323 -0.0638
 1846ntf    sn215527   5.778   6.716   6.294  0.1322 -0.1241  0.0986
 1846ntf    nn315528   5.730   6.817   6.404  0.2824 -0.1063  0.1485
 1846ntf    sn215529   5.687   6.784   6.552  0.0175 -0.2175  0.0481
 1846ntf    cn115530   5.849   6.785   6.634  0.0135  0.3225  0.0536
 1846ntf    fn415531   5.570   6.818   6.183  0.3374 -0.5247 -0.2178
 1846ntf    fn415532   5.644   6.644   6.080  0.1734 -0.4771 -0.1071
 1846ntf    fn415533   5.531   6.624   6.256 -0.3380  0.3704  0.1426
 1846ntf    on515534   5.807   6.584   6.346  0.9310 -0.0923 -0.2649
 1846ntf    on515535   5.870   6.768   6.197  0.4176 -0.9127 -0.0617
 1846ntf    on515536   5.639   6.650   6.574  0.1782 -0.2400  0.2599
 1846ntf    on515537   5.619   6.886   6.626  0.0493  0.0754 -0.3233
 1846ntf    fn415538   5.914   6.900   6.631  0.2270  0.2302  0.8006
 1846ntf    fn415539   5.839   6.742   6.759  0.6140  0.3084  0.0991
 1846ntf    fn415540   5.936   6.703   6.577 -0.2476 -0.0035  0.1165
 1847ntf    cn115541   3.383   0.864   3.343  0.2449 -0.2460 -0.0126
 1847ntf    sn215542   3.484   0.828   3.196  0.0533  0.2703 -0.2746
 1847ntf    nn315543   3.583   0.718   3.248  0.2384  0.4547 -0.2302
 1847ntf    sn215544   3.731   0.727   3.299  0.1589  0.0669  0.0784
 1847ntf    cn115545   3.818   0.716   3.140  0.1986 -0.1303  0.1141
 1847ntf    fn415546   3.443   0.900   3.456  0.0833  0.2173 -0.0689
 1847ntf    fn415547   3.305   0.967   3.311  0.3535 -0.3232 -0.5263
 1847ntf    fn415548   3.309   0.760   3.375 -0.2877  0.1646  0.1115
 1847ntf    on515549   3.390   0.778   3.099  0.2620 -0.3851 -0.1435
 1847ntf    on515550   3.548   0.954   3.164  0.8767 -0.1512 -0.3307
 1847ntf    on515551   3.785   0.610   3.362 -0.0320  0.1191  0.3392
 1847ntf    on515552   3.764   0.851   3.365  0.2587 -0.0163  0.1860
 1847ntf    fn415553   3.949   0.718   3.160  0.3161 -0.4039 -0.5985
 1847ntf    fn415554   3.788   0.603   3.077  0.4806 -0.0631 -0.1466
 1847ntf    fn415555   3.794   0.815   3.056 -0.9560  0.0203  0.5964
 1848ntf    cn115556   0.036   5.960   3.712  0.3730  0.0249 -0.2100
 1848ntf    sn215557  -0.135   5.931   3.659  0.2031 -0.0436  0.3774
 1848ntf    nn315558  -0.179   5.838   3.779  0.1857 -0.1662  0.2764
 1848ntf    sn215559  -0.302   5.851   3.875  0.0289  0.3248  0.0156
 1848ntf    cn115560  -0.223   5.934   4.016  0.3367 -0.1218  0.1108
 1848ntf    fn415561   0.101   5.852   3.752  0.8632  0.3104 -0.2227
 1848ntf    fn415562   0.109   6.005   3.611  0.6909  0.3560  0.1620
 1848ntf    fn415563   0.045   6.039   3.817 -0.3146 -0.4195  0.1900
 1848ntf    on515564  -0.180   6.068   3.652 -0.2984 -0.1805  0.7825
 1848ntf    on515565  -0.113   5.858   3.537 -0.2697 -0.1202  0.3336
 1848ntf    on515566  -0.336   5.720   3.924  0.5778 -0.1402 -0.8267
 1848ntf    on515567  -0.409   5.937   3.830  0.2127  0.2372 -0.5975
 1848ntf    fn415568  -0.142   6.031   3.977  0.1736  0.2420  0.6648
 1848ntf    fn415569  -0.302   5.984   4.111 -0.2404 -0.0566 -0.3976
 1848ntf    fn415570  -0.147   5.846   4.079 -0.0381 -0.8000 -0.3776
 1849ntf    cn115571   4.043   3.917   6.561 -0.3997 -0.0476 -0.0648
 1849ntf    sn215572   3.879   3.971   6.507 -0.3190  0.3603  0.0923
 1849ntf    nn315573   3.835   4.034   6.643  0.3084  0.0668  0.4323
 1849ntf    sn215574   3.850   4.182   6.693 -0.2386  0.2015  0.2034
 1849ntf    cn115575   3.692   4.257   6.642 -0.0205  0.5930  0.0939
 1849ntf    fn415576   4.041   3.853   6.677 -0.4621  0.7219  0.3675
 1849ntf    fn415577   4.106   3.837   6.476 -0.2176 -0.1362  0.1534
 1849ntf    fn415578   4.128   4.019   6.560 -0.1653 -0.2399  0.0437
 1849ntf    on515579   3.903   4.051   6.389  0.1237 -0.0868 -0.1243
 1849ntf    on515580   3.805   3.849   6.485 -0.2198  0.2481  0.3757
 1849ntf    on515581   3.957   4.264   6.641  0.0560 -0.1102  0.3182
 1849ntf    on515582   3.852   4.181   6.837  0.2751 -0.4107  0.1944
 1849ntf    fn415583   3.662   4.375   6.695  0.2837  0.3076  0.9310
 1849ntf    fn415584   3.692   4.271   6.511  0.3030 -0.6516 -0.0525
 1849ntf    fn415585   3.586   4.180   6.665  0.2726  0.3828  0.7874
 1850ntf    cn115586   4.377   0.577   1.953  0.3942  0.2779 -0.2610
 1850ntf    sn215587   4.511   0.493   1.865  0.4572 -0.1201  0.2113
 1850ntf    nn315588   4.593   0.626   1.852 -0.1762  0.2646  0.1061
 1850ntf    sn215589   4.721   0.655   1.938 -0.1877 -0.3980  0.3568
 1850ntf    cn115590   4.715   0.837   1.947 -0.1846 -0.3808  0.0217
 1850ntf    fn415591   4.416   0.645   2.060 -0.5444  0.3916  0.0243
 1850ntf    fn415592   4.322   0.674   1.882 -0.3702 -0.2054 -0.3357
 1850ntf    fn415593   4.281   0.493   1.988  0.9748 -0.4606 -0.4290
 1850ntf    on515594   4.556   0.398   1.964  0.3770  0.1483  0.5033
 1850ntf    on515595   4.465   0.429   1.744 -0.5849  0.3407  0.3555
 1850ntf    on515596   4.842   0.631   1.863 -0.2405 -0.3206  0.2463
 1850ntf    on515597   4.712   0.610   2.074 -0.0269 -0.3694  0.3775
 1850ntf    fn415598   4.685   0.891   1.830 -0.3736  0.6666  0.5454
 1850ntf    fn415599   4.633   0.878   2.042 -0.4523 -0.1611 -0.3006
 1850ntf    fn415600   4.832   0.887   1.980 -0.1995 -0.1489 -0.2712
 1851ntf    cn115601   4.308   2.478   3.979 -0.1236 -0.4827  0.3011
 1851ntf    sn215602   4.481   2.440   4.019  0.1811  0.3282 -0.2178
 1851ntf    nn315603   4.522   2.590   4.036 -0.2861  0.3943  0.3533
 1851ntf    sn215604   4.590   2.680   3.927 -0.2080 -0.0912  0.0020
 1851ntf    cn115605   4.472   2.817   3.945 -0.3068 -0.1685 -0.0541
 1851ntf    fn415606   4.304   2.575   3.888  0.2185 -0.7723 -0.0264
 1851ntf    fn415607   4.238   2.381   3.923 -0.5292 -0.0014 -0.0343
 1851ntf    fn415608   4.243   2.522   4.085  0.0462  0.9549 -0.1715
 1851ntf    on515609   4.464   2.376   4.147 -0.0658  0.0247 -0.3997
 1851ntf    on515610   4.538   2.362   3.911 -0.3975 -0.0334 -0.2678
 1851ntf    on515611   4.560   2.651   3.789 -0.2544  0.4539 -0.1031
 1851ntf    on515612   4.723   2.724   3.962 -0.1190 -0.2947 -0.0766
 1851ntf    fn415613   4.462   2.849   4.073  0.1553  0.6014 -0.2045
 1851ntf    fn415614   4.508   2.928   3.882 -0.0206 -0.2062  0.0440
 1851ntf    fn415615   4.353   2.785   3.897 -0.0863 -0.1746 -0.6013
 1852ntf    cn115616   1.973   5.731   0.362 -0.0716  0.0159  0.0132
 1852ntf    sn215617   2.054   5.852   0.252  0.2612 -0.2976 -0.0870
 1852ntf    nn315618   1.969   5.980   0.284  0.2985 -0.1609 -0.5270
 1852ntf    sn215619   2.017   6.128   0.265 -0.2018  0.0867  0.1134
 1852ntf    cn115620   2.088   6.165   0.429 -0.1370  0.1944  0.0618
 1852ntf    fn415621   1.855   5.686   0.323  0.0214 -0.3654  0.1650
 1852ntf    fn415622   2.037   5.616   0.363  0.1633  0.1480  0.1258
 1852ntf    fn415623   1.961   5.762   0.490 -0.0901 -0.0395  0.0249
 1852ntf    on515624   2.187   5.858   0.307  0.1722 -0.1584  0.1157
 1852ntf    on515625   2.025   5.805   0.118 -0.5446 -0.2081  0.0500
 1852ntf    on515626   1.909   6.222   0.255 -0.3786 -0.0839  0.4088
 1852ntf    on515627   2.124   6.151   0.171 -0.2241 -0.1280  0.0349
 1852ntf    fn415628   2.004   6.132   0.527 -0.1773  0.4565  0.1144
 1852ntf    fn415629   2.199   6.102   0.463 -0.1772 -0.1143 -0.3609
 1852ntf    fn415630   2.109   6.294   0.444 -0.0832  0.1183  0.6619
 1853ntf    cn115631   1.236   5.358   5.342 -0.1588  0.7376 -0.4107
 1853ntf    sn215632   1.128   5.504   5.328 -0.2357  0.7098 -0.1072
 1853ntf    nn315633   1.025   5.458   5.437  0.1453 -0.3168 -0.1760
 1853ntf    sn215634   1.029   5.491   5.591  0.0419  0.3945 -0.3265
 1853ntf    cn115635   0.859   5.444   5.633  0.1380  0.3192 -0.0232
 1853ntf    fn415636   1.275   5.346   5.468 -0.0625  0.3143 -0.4809
 1853ntf    fn415637   1.176   5.244   5.315  0.2577  0.3943  0.0984
 1853ntf    fn415638   1.337   5.361   5.257  0.3957 -0.2722  0.2024
 1853ntf    on515639   1.218   5.612   5.361  0.1137  0.4067 -0.0544
 1853ntf    on515640   1.088   5.489   5.191  0.0335 -0.7110 -0.0442
 1853ntf    on515641   1.034   5.632   5.624 -0.9496  0.3299  0.1146
 1853ntf    on515642   1.108   5.395   5.664 -0.4473  0.5361  0.4010
 1853ntf    fn415643   0.835   5.314   5.639  0.3402  0.2980  0.3341
 1853ntf    fn415644   0.831   5.496   5.752  0.2151  0.2223  0.0381
 1853ntf    fn415645   0.769   5.496   5.551 -0.2344  0.0528  0.2098
 1854ntf    cn115646   1.270   2.851   5.820 -0.6106  0.3061  0.1301
 1854ntf    sn215647   1.412   2.875   5.931 -0.1897  0.1765 -0.3772
 1854ntf    nn315648   1.378   2.776   6.047  0.0478  0.2923 -0.2074
 1854ntf    sn215649   1.334   2.784   6.198 -0.1591 -0.2394 -0.2367
 1854ntf    cn115650   1.489   2.819   6.285 -0.4332 -0.2416  0.2548
 1854ntf    fn415651   1.236   2.726   5.791  0.2442  0.1989 -0.4600
 1854ntf    fn415652   1.170   2.902   5.890 -0.7205 -0.5524  0.6165
 1854ntf    fn415653   1.273   2.910   5.702  0.4015 -0.1298 -0.0763
 1854ntf    on515654   1.516   2.821   5.846  0.2077  0.7285 -0.2488
 1854ntf    on515655   1.428   3.016   5.959 -0.0019 -0.0149  0.4868
 1854ntf    on515656   1.284   2.666   6.265 -0.7964  0.1126 -0.0781
 1854ntf    on515657   1.254   2.904   6.210 -0.0017 -0.1543 -0.0424
 1854ntf    fn415658   1.540   2.937   6.253 -0.0440 -0.5362 -0.2231
 1854ntf    fn415659   1.474   2.833   6.416 -0.7134  0.1978  0.1768
 1854ntf    fn415660   1.571   2.716   6.274  0.0391  0.1969 -0.3662
 1855ntf    cn115661   1.647   2.202   3.397  0.0428 -0.4199  0.0775
 1855ntf    sn215662   1.557   2.116   3.529  0.1591 -0.1513  0.3321
 1855ntf    nn315663   1.635   2.155   3.660 -0.2953  0.7292  0.3427
 1855ntf    sn215664   1.762   2.083   3.717 -0.2417  0.3751 -0.2194
 1855ntf    cn115665   1.689   1.974   3.842  0.1815 -0.0024 -0.2979
 1855ntf    fn415666   1.773   2.167   3.412  0.1750  0.3464  0.8559
 1855ntf    fn415667   1.618   2.174   3.271  0.7695  0.2154 -0.2387
 1855ntf    fn415668   1.656   2.333   3.415 -0.3833 -0.4215  0.3235
 1855ntf    on515669   1.427   2.178   3.516  0.2157 -0.1020 -0.0031
 1855ntf    on515670   1.562   1.977   3.490 -0.0187 -0.0799  0.0523
 1855ntf    on515671   1.843   2.173   3.795 -0.1472 -0.4583  0.6660
 1855ntf    on515672   1.835   1.987   3.637  0.0133  0.3524  0.0410
 1855ntf    fn415673   1.644   2.054   3.937  0.1503 -0.0520 -0.2710
 1855ntf    fn415674   1.582   1.912   3.795 -0.0545  0.5487 -0.4957
 1855ntf    fn415675   1.773   1.883   3.889  0.6239  0.5880  0.0630
 1856ntf    cn115676   3.864   2.087   3.679 -0.3312 -0.2019  0.1765
 1856ntf    sn215677   3.812   2.137   3.846 -0.0689  0.6036  0.0190
 1856ntf    nn315678   3.954   2.137   3.912 -0.1384  0.3969  0.1658
 1856ntf    sn215679   3.992   2.082   4.055  0.1384  0.2903  0.0533
 1856ntf    cn115680   4.147   2.168   4.095  0.3613  0.0152 -0.2133
 1856ntf    fn415681   3.765   2.096   3.592 -0.3579 -0.7755  0.1407
 1856ntf    fn415682   3.961   2.169   3.642 -0.2546 -0.3568  0.0315
 1856ntf    fn415683   3.925   1.969   3.685 -0.2764 -0.1348  1.0620
 1856ntf    on515684   3.766   2.272   3.826  0.3738  0.7737  0.1301
 1856ntf    on515685   3.719   2.034   3.884  0.2666 -0.0157 -0.7929
 1856ntf    on515686   4.025   1.942   4.057 -0.1137  0.2207 -0.4153
 1856ntf    on515687   3.902   2.119   4.162  0.1041  0.4862 -0.0436
 1856ntf    fn415688   4.127   2.295   4.125  0.1499 -0.1421  0.3288
 1856ntf    fn415689   4.191   2.115   4.208  0.2784 -0.3566 -0.3544
 1856ntf    fn415690   4.246   2.155   4.009  0.2779  0.1909 -0.3378
 1857ntf    cn115691   3.670   6.234   5.506  0.2976 -0.4469  0.0631
 1857ntf    sn215692   3.567   6.104   5.581 -0.0382 -0.0984  0.2096
 1857ntf    nn315693   3.441   6.109   5.488  0.3272  0.0311 -0.2782
 1857ntf    sn215694   3.398   6.006   5.377  0.0652 -0.4567  0.2699
 1857ntf    cn115695   3.248   5.945   5.459  0.0145 -0.1748  0.3885
 1857ntf    fn415696   3.791   6.239   5.558  0.4781  0.0524 -0.4012
 1857ntf    fn415697   3.693   6.211   5.378  0.3912  0.5049 -0.0998
 1857ntf    fn415698   3.612   6.352   5.520 -0.2750 -0.6643 -0.3918
 1857ntf    on515699   3.656   5.991   5.576 -0.1590 -0.2044  0.4308
 1857ntf    on515700   3.536   6.153   5.713  0.0267 -0.1546  0.2460
 1857ntf    on515701   3.472   5.883   5.365  0.1628 -0.4130  0.4243
 1857ntf    on515702   3.355   6.060   5.250  0.0701 -0.4218  0.2836
 1857ntf    fn415703   3.288   5.912   5.581  0.1708 -0.2845  0.3082
 1857ntf    fn415704   3.143   6.024   5.466  0.1836  0.1686 -0.7575
 1857ntf    fn415705   3.200   5.835   5.404 -0.6173  0.6616 -0.7546
 1858ntf    cn115706   3.189   5.005   5.486  0.2237  0.4267 -0.4126
 1858ntf    sn215707   3.221   5.123   5.620 -0.0272 -0.1221  0.1351
 1858ntf    nn315708   3.097   5.218   5.604  0.1682  0.1301  0.1004
 1858ntf    sn215709   3.079   5.373   5.613  0.0522  0.1437 -0.3501
 1858ntf    cn115710   3.071   5.410   5.435 -0.1084 -0.0520 -0.3834
 1858ntf    fn415711   3.180   5.070   5.371  0.0940  0.2298 -0.5144
 1858ntf    fn415712   3.279   4.909   5.469 -0.5045 -0.3278 -0.0587
 1858ntf    fn415713   3.075   4.939   5.501  0.5921 -0.2392 -0.4903
 1858ntf    on515714   3.214   5.034   5.733 -0.3540 -0.5457 -0.2173
 1858ntf    on515715   3.352   5.180   5.602  0.0692 -0.3475  0.1110
 1858ntf    on515716   3.194   5.446   5.661  0.4617 -1.1757  0.7184
 1858ntf    on515717   2.951   5.415   5.666  0.0448  0.2404 -0.4433
 1858ntf    fn415718   3.191   5.419   5.380 -0.1202  0.4989 -0.3297
 1858ntf    fn415719   3.004   5.316   5.370  0.2767  0.0877 -0.9815
 1858ntf    fn415720   3.001   5.521   5.415  0.2255  0.4148  0.9252
 1859ntf    cn115721   3.859   0.100   3.988 -0.2465 -0.1068  0.3716
 1859ntf    sn215722   3.763   0.209   4.098  0.0515  0.0893  0.4395
 1859ntf    nn315723   3.690   0.296   3.989  0.2178  0.0487  0.2971
 1859ntf    sn215724   3.548   0.275   3.925  0.2716  0.1119  0.1562
 1859ntf    cn115725   3.455   0.363   4.054 -0.0064 -0.1227  0.1142
 1859ntf    fn415726   3.776   0.040   3.905 -0.1459  0.4272 -0.1167
 1859ntf    fn415727   3.948   0.166   3.916 -0.2077 -0.3550  0.1925
 1859ntf    fn415728   3.924   0.010   4.060  0.1534  0.1510  0.3338
 1859ntf    on515729   3.683   0.106   4.159 -0.4977  0.0050 -0.4014
 1859ntf    on515730   3.875   0.265   4.168  0.2173 -0.0511  0.2882
 1859ntf    on515731   3.500   0.141   3.942  0.1108  0.2242  0.5940
 1859ntf    on515732   3.519   0.356   3.809  0.5623 -0.2020 -0.1376
 1859ntf    fn415733   3.506   0.349   4.175  0.2126 -0.3961 -0.0089
 1859ntf    fn415734   3.441   0.494   4.039 -0.7620 -0.1874  0.2185
 1859ntf    fn415735   3.333   0.314   4.069 -0.0693 -0.0787 -0.2451
 1860ntf    cn115736   1.871   3.345   5.190  0.2153 -0.2829  0.2701
 1860ntf    sn215737   1.850   3.475   5.315 -0.0624 -0.3104  0.2516
 1860ntf    nn315738   1.727   3.549   5.252  0.2252  0.0411  0.0964
 1860ntf    sn215739   1.728   3.650   5.132 -0.2503  0.1163  0.1497
 1860ntf    cn115740   1.603   3.768   5.190 -0.4234  0.0478 -0.0794
 1860ntf    fn415741   1.976   3.269   5.216  0.2677 -0.2876  0.0497
 1860ntf    fn415742   1.769   3.261   5.189 -0.1781  0.1932 -0.2144
 1860ntf    fn415743   1.878   3.392   5.066  0.4061 -0.2743  0.2830
 1860ntf    on515744   1.808   3.410   5.436 -0.7731  0.3525  0.3718
 1860ntf    on515745   1.973   3.549   5.304  0.0670 -0.6607 -0.7968
 1860ntf    on515746   1.657   3.595   5.019 -0.0828 -0.1502  0.1742
 1860ntf    on515747   1.849   3.728   5.114 -0.4348  0.2864 -0.3648
 1860ntf    fn415748   1.595   3.869   5.105  0.1677 -0.1094 -0.3294
 1860ntf    fn415749   1.486   3.710   5.210 -0.2367 -0.1303  0.5127
 1860ntf    fn415750   1.640   3.822   5.306 -0.1728 -0.3259  0.0168
 1861ntf    cn115751   4.475   3.262   3.608 -0.1511  0.3693  0.1602
 1861ntf    sn215752   4.413   3.426   3.656  0.1379  0.5615 -0.1177
 1861ntf    nn315753   4.411   3.494   3.515  0.3783  0.7683 -0.0222
 1861ntf    sn215754   4.284   3.556   3.447 -0.2002 -0.0993  0.2486
 1861ntf    cn115755   4.265   3.726   3.509  0.5076 -0.0302  0.2841
 1861ntf    fn415756   4.479   3.177   3.710  0.0491  0.1607 -0.0200
 1861ntf    fn415757   4.411   3.207   3.506  0.1296 -0.0176  0.1884
 1861ntf    fn415758   4.597   3.278   3.561  0.1061  0.2035  0.7642
 1861ntf    on515759   4.289   3.380   3.715  0.4075  0.1390  0.1323
 1861ntf    on515760   4.517   3.478   3.742  0.9053 -0.4723 -0.4005
 1861ntf    on515761   4.153   3.499   3.470 -0.3765  0.3372  0.3485
 1861ntf    on515762   4.309   3.581   3.307  0.1917 -0.1926  0.3011
 1861ntf    fn415763   4.278   3.729   3.641 -0.2637  0.2320  0.3609
 1861ntf    fn415764   4.359   3.813   3.477  0.0907  0.4571  0.3743
 1861ntf    fn415765   4.148   3.778   3.474  0.5600  0.0399  0.2155
 1862ntf    cn115766   5.215   4.108   5.364  0.1023  0.1041  0.1185
 1862ntf    sn215767   5.047   4.146   5.422 -0.0566 -0.2170 -0.1289
 1862ntf    nn315768   4.966   4.031   5.351 -0.6049  0.1272 -0.0623
 1862ntf    sn215769   4.971   3.880   5.392 -0.0426  0.1513 -0.0317
 1862ntf    cn115770   4.799   3.845   5.344 -0.1390  0.4463  0.0975
 1862ntf    fn415771   5.228   4.109   5.232 -0.3056 -0.2633  0.0717
 1862ntf    fn415772   5.309   4.185   5.417  0.0992  0.0171  0.2514
 1862ntf    fn415773   5.252   3.984   5.393  0.3634  0.1581  0.0250
 1862ntf    on515774   5.069   4.126   5.563  0.1397  1.0167  0.0287
 1862ntf    on515775   5.024   4.278   5.370  0.0360 -0.1937 -0.1122
 1862ntf    on515776   4.979   3.842   5.531  0.1293  0.4251  0.0345
 1862ntf    on515777   5.040   3.794   5.299  0.7337  1.1345 -0.3810
 1862ntf    fn415778   4.786   3.841   5.212 -0.2183  0.2676  0.1109
 1862ntf    fn415779   4.755   3.730   5.392  0.4073 -0.1499 -0.7939
 1862ntf    fn415780   4.716   3.936   5.391 -0.2091  0.3209  0.2190
 1863ntf    cn115781   1.644   6.476   2.463 -0.2589 -0.1089  0.1110
 1863ntf    sn215782   1.646   6.535   2.636 -0.2301 -0.3470  0.1921
 1863ntf    nn315783   1.660   6.401   2.717 -0.1427 -0.1899  0.4368
 1863ntf    sn215784   1.548   6.296   2.750 -0.3081 -0.2893 -0.4080
 1863ntf    cn115785   1.597   6.149   2.655 -0.0896 -0.4288 -0.0839
 1863ntf    fn415786   1.557   6.381   2.434 -0.6483  0.2285  0.1639
 1863ntf    fn415787   1.625   6.581   2.385 -0.7540 -0.1846  0.1281
 1863ntf    fn415788   1.761   6.423   2.431 -0.3653 -0.3565  0.1342
 1863ntf    on515789   1.772   6.605   2.635  0.0079 -0.7693 -0.1767
 1863ntf    on515790   1.528   6.614   2.659  0.2632  0.5127 -0.1555
 1863ntf    on515791   1.419   6.320   2.689 -0.2017  0.0189 -0.5146
 1863ntf    on515792   1.563   6.250   2.886 -0.0600  0.0293 -0.3253
 1863ntf    fn415793   1.716   6.117   2.702 -0.0813  0.6706  0.6762
 1863ntf    fn415794   1.510   6.052   2.677 -0.5077  0.1035  0.6732
 1863ntf    fn415795   1.605   6.174   2.525 -0.1434 -0.0632 -0.0171
 1864ntf    cn115796   6.760   1.111   2.966 -0.6415 -0.2312  0.0390
 1864ntf    sn215797   6.639   1.122   2.831 -0.1228  0.0710 -0.4043
 1864ntf    nn315798   6.509   1.149   2.914  0.3874 -0.4338  0.5787
 1864ntf    sn215799   6.415   1.033   2.962 -0.4430  0.1185  0.3229
 1864ntf    cn115800   6.343   1.094   3.117 -0.2428  0.2007  0.3841
 1864ntf    fn415801   6.747   0.999   3.036  0.0602 -0.3628 -0.0399
 1864ntf    fn415802   6.881   1.104   2.913 -0.5725  0.1730  0.1378
 1864ntf    fn415803   6.758   1.219   3.044 -0.6218 -0.0657 -0.1893
 1864ntf    on515804   6.687   1.237   2.759  0.3679 -0.1775 -0.4794
 1864ntf    on515805   6.642   0.991   2.769 -0.6238 -0.2588  0.2601
 1864ntf    on515806   6.483   0.911   3.000 -0.7049 -0.0005  0.4107
 1864ntf    on515807   6.299   1.025   2.878 -0.3209  0.1951  0.1451
 1864ntf    fn415808   6.287   1.211   3.095 -0.0034  0.2210 -0.1231
 1864ntf    fn415809   6.249   1.014   3.166  0.1353 -0.6576 -0.2514
 1864ntf    fn415810   6.436   1.111   3.210  0.4171 -0.0333 -0.2310
 1865ntf    cn115811   1.047   4.273   5.368  0.0376  0.1160  0.6122
 1865ntf    sn215812   1.074   4.436   5.442 -0.0941  0.3436  0.1637
 1865ntf    nn315813   0.939   4.470   5.515 -0.2741 -0.0137 -0.0018
 1865ntf    sn215814   0.881   4.416   5.651  0.1445  0.0796  0.2165
 1865ntf    cn115815   0.708   4.410   5.595  0.2032  0.1433  0.0280
 1865ntf    fn415816   1.016   4.180   5.457  0.3529 -0.3172  0.2800
 1865ntf    fn415817   0.963   4.277   5.266  0.3360 -0.1462  0.3511
 1865ntf    fn415818   1.164   4.241   5.313 -0.2371  0.2201 -0.0435
 1865ntf    on515819   1.190   4.423   5.526  0.1968  0.7104 -0.1757
 1865ntf    on515820   1.091   4.515   5.322  0.1148  0.1219  0.0463
 1865ntf    on515821   0.878   4.511   5.759 -0.3146  0.2869  0.0259
 1865ntf    on515822   0.903   4.277   5.680 -0.5651 -0.0694  0.0465
 1865ntf    fn415823   0.628   4.360   5.687  0.0205  0.3104 -0.0404
 1865ntf    fn415824   0.651   4.529   5.585 -0.8657 -0.4102 -0.5835
 1865ntf    fn415825   0.683   4.365   5.473  0.1459  0.1614  0.0334
 1866ntf    cn115826   0.655   2.211   3.982  0.0789  0.3019 -0.1697
 1866ntf    sn215827   0.813   2.223   3.894  0.1437  0.2544 -0.0603
 1866ntf    nn315828   0.804   2.095   3.803 -0.6092  0.7248 -0.6622
 1866ntf    sn215829   0.761   2.080   3.653 -0.2680  0.3931 -0.7275
 1866ntf    cn115830   0.720   1.903   3.652  0.1398  0.2904 -0.0264
 1866ntf    fn415831   0.544   2.221   3.910  0.0596 -0.5886 -0.2777
 1866ntf    fn415832   0.645   2.098   4.051 -0.0704  0.2881 -0.2140
 1866ntf    fn415833   0.634   2.304   4.074 -0.2702  0.1842 -0.1279
 1866ntf    on515834   0.817   2.346   3.819  0.2812  0.6611  0.6016
 1866ntf    on515835   0.913   2.216   3.998 -0.1225 -0.0893  0.1761
 1866ntf    on515836   0.877   2.089   3.568  0.5246  0.0453  0.2951
 1866ntf    on515837   0.638   2.142   3.611 -0.5991  0.1891 -0.0733
 1866ntf    fn415838   0.685   1.851   3.535  0.5242  0.1461 -0.0783
 1866ntf    fn415839   0.825   1.832   3.689 -0.0326  0.3989  0.6888
 1866ntf    fn415840   0.622   1.880   3.739  0.0757  1.0775  0.1122
 1867ntf    cn115841   3.268   4.465   2.094  0.1003  0.2549 -0.1010
 1867ntf    sn215842   3.155   4.336   2.035  0.0855  0.0797  0.3081
 1867ntf    nn315843   3.253   4.262   1.936 -0.0302  0.4219 -0.0665
 1867ntf    sn215844   3.238   4.241   1.781  0.0769 -0.3377  0.0221
 1867ntf    cn115845   3.322   4.393   1.726 -0.3165 -0.1341 -0.0159
 1867ntf    fn415846   3.293   4.551   1.996 -0.2231  0.4165 -0.0440
 1867ntf    fn415847   3.235   4.542   2.197 -0.2239  0.0358 -0.0397
 1867ntf    fn415848   3.382   4.414   2.138  0.0044 -0.5968 -0.8274
 1867ntf    on515849   3.121   4.252   2.147 -0.3680 -0.1463  0.0044
 1867ntf    on515850   3.049   4.418   1.982  0.0395 -0.5170 -0.5431
 1867ntf    on515851   3.104   4.245   1.729  0.3586  0.7280 -0.6486
 1867ntf    on515852   3.326   4.139   1.729 -0.2768 -0.5777 -0.1022
 1867ntf    fn415853   3.306   4.411   1.596 -0.3929 -0.3266 -0.0330
 1867ntf    fn415854   3.264   4.496   1.784 -0.0569  0.0962 -0.1622
 1867ntf    fn415855   3.448   4.385   1.766 -0.3898 -0.5090  0.1459
 1868ntf    cn115856   0.749   6.190   5.248  0.0738 -0.2729 -0.0177
 1868ntf    sn215857   0.725   6.370   5.241 -0.0908 -0.2969 -0.0913
 1868ntf    nn315858   0.788   6.403   5.100 -0.2450  0.2776 -0.0269
 1868ntf    sn215859   0.936   6.445   5.070 -0.0690 -0.2565  0.0778
 1868ntf    cn115860   0.956   6.344   4.921 -0.2433 -0.2427  0.0444
 1868ntf    fn415861   0.699   6.133   5.356  0.1115  0.1849  0.2432
 1868ntf    fn415862   0.703   6.123   5.143  0.0026  0.3677 -0.3971
 1868ntf    fn415863   0.880   6.171   5.258  0.1978  0.2453 -0.5816
 1868ntf    on515864   0.582   6.381   5.231 -0.1264 -0.7091 -0.0463
 1868ntf    on515865   0.791   6.419   5.359 -0.1180  0.7383 -0.4973
 1868ntf    on515866   1.034   6.387   5.159 -0.2417  0.2493  0.6099
 1868ntf    on515867   0.945   6.580   5.021 -0.6404 -0.2834 -0.1096
 1868ntf    fn415868   0.910   6.398   4.809  0.2400 -0.3294 -0.1974
 1868ntf    fn415869   1.087   6.333   4.904 -0.2264  0.4643 -0.3507
 1868ntf    fn415870   0.912   6.222   4.947 -0.2380 -0.2753 -0.0974
 1869ntf    cn115871   2.478   3.790   3.339  0.3836 -0.3417  0.1824
 1869ntf    sn215872   2.327   3.774   3.440 -0.0665 -0.5060 -0.5093
 1869ntf    nn315873   2.285   3.625   3.411  0.2712 -0.6990 -0.0371
 1869ntf    sn215874   2.163   3.570   3.329 -0.2134 -0.0426  0.2334
 1869ntf    cn115875   2.142   3.412   3.415 -0.3889 -0.2958 -0.2719
 1869ntf    fn415876   2.481   3.699   3.243 -0.0812 -0.5685  0.3780
 1869ntf    fn415877   2.490   3.905   3.276  0.2615 -0.5935 -0.3028
 1869ntf    fn415878   2.589   3.776   3.410  0.2451 -0.1837  0.4313
 1869ntf    on515879   2.387   3.780   3.571 -0.3395  0.0615 -0.4075
 1869ntf    on515880   2.241   3.877   3.388  0.1765 -0.5817 -1.0748
 1869ntf    on515881   2.196   3.527   3.195  0.4591 -0.1010  0.4176
 1869ntf    on515882   2.035   3.633   3.355 -0.3568 -0.0834 -0.3490
 1869ntf    fn415883   2.042   3.354   3.350 -1.1188  0.1506  0.4317
 1869ntf    fn415884   2.248   3.333   3.413  0.0010  0.2182 -0.0682
 1869ntf    fn415885   2.114   3.420   3.544  0.4899 -0.2950 -0.0757
 1870ntf    cn115886   1.616   4.861   1.300  0.2807  0.0675 -0.3690
 1870ntf    sn215887   1.538   5.023   1.274 -0.3312 -0.1093  0.3308
 1870ntf    nn315888   1.391   4.976   1.248 -0.1931 -0.2346 -0.2321
 1870ntf    sn215889   1.260   5.060   1.261 -0.2424 -0.3356 -0.0728
 1870ntf    cn115890   1.216   5.047   1.437 -0.0804 -0.1286 -0.0167
 1870ntf    fn415891   1.624   4.796   1.184  0.2775 -0.2189 -0.2082
 1870ntf    fn415892   1.733   4.849   1.361 -0.0046 -0.1707  0.1354
 1870ntf    fn415893   1.537   4.785   1.373 -0.0654  0.7992  0.0204
 1870ntf    on515894   1.567   5.090   1.399 -0.5361  0.2107  0.2085
 1870ntf    on515895   1.614   5.064   1.158 -0.2872 -0.1902  0.3312
 1870ntf    on515896   1.148   5.000   1.193 -0.2925  0.6527 -0.9019
 1870ntf    on515897   1.278   5.203   1.256 -0.3546 -0.3485 -0.8926
 1870ntf    fn415898   1.188   4.924   1.475  0.2231 -0.1074  0.2876
 1870ntf    fn415899   1.317   5.090   1.512 -0.2693  0.2997 -0.0059
 1870ntf    fn415900   1.113   5.120   1.478 -0.6899 -0.7776 -0.3683
 1871ntf    cn115901   3.315   1.412   4.373 -0.2948 -0.2383  0.2430
 1871ntf    sn215902   3.371   1.243   4.339  0.2113 -0.0835  0.2891
 1871ntf    nn315903   3.236   1.183   4.285  0.2668  0.0748 -0.0265
 1871ntf    sn215904   3.110   1.130   4.361 -0.0138 -0.0108 -0.5474
 1871ntf    cn115905   3.001   1.086   4.223 -0.1633 -0.3821 -0.3145
 1871ntf    fn415906   3.257   1.421   4.492 -0.3996 -0.4440  0.2069
 1871ntf    fn415907   3.404   1.510   4.364 -0.3021 -0.2605 -0.0795
 1871ntf    fn415908   3.225   1.444   4.282  0.0572  0.0932  0.0049
 1871ntf    on515909   3.468   1.242   4.232 -0.0410  0.1015  0.0596
 1871ntf    on515910   3.420   1.194   4.466 -0.1422 -0.3519  0.3243
 1871ntf    on515911   3.030   1.231   4.426  0.4894  0.1656 -0.2025
 1871ntf    on515912   3.126   1.005   4.432 -0.9884  0.2678  0.2052
 1871ntf    fn415913   2.977   1.191   4.146  0.1207  0.3035  0.5272
 1871ntf    fn415914   3.054   0.990   4.149  0.3645 -0.3977  0.0819
 1871ntf    fn415915   2.886   1.048   4.276 -0.1381  0.2224  0.1720
 1872ntf    cn115916   4.593   4.272   4.462 -0.1915  0.2319 -0.1091
 1872ntf    sn215917   4.549   4.428   4.546  0.2350  0.1661  0.2376
 1872ntf    nn315918   4.552   4.385   4.697 -0.0183 -0.4542  0.0707
 1872ntf    sn215919   4.604   4.457   4.826 -0.3876 -0.1790  0.0676
 1872ntf    cn115920   4.464   4.451   4.942 -0.1984  0.1282  0.3147
 1872ntf    fn415921   4.503   4.175   4.467  0.3213 -0.2446 -0.0426
 1872ntf    fn415922   4.621   4.279   4.333 -0.1955  0.0708 -0.1181
 1872ntf    fn415923   4.698   4.218   4.522  0.4593  0.3397 -1.1224
 1872ntf    on515924   4.651   4.520   4.504  0.4015 -0.2794 -0.3528
 1872ntf    on515925   4.416   4.435   4.491  0.0938 -0.3472  0.5026
 1872ntf    on515926   4.620   4.600   4.822 -0.2759 -0.2018 -0.2523
 1872ntf    on515927   4.709   4.377   4.884  0.2575  0.2783 -0.4558
 1872ntf    fn415928   4.485   4.517   5.055  0.1023 -0.7475  0.7739
 1872ntf    fn415929   4.361   4.509   4.881  0.0682 -0.2951 -0.5600
 1872ntf    fn415930   4.426   4.330   4.980 -0.0375 -0.2553 -0.7174
 1873ntf    cn115931   1.803   6.632   6.613  0.2200 -0.0041 -0.0101
 1873ntf    sn215932   1.744   6.482   6.697 -0.1998  0.3100  0.2632
 1873ntf    nn315933   1.591   6.513   6.683 -0.2345 -0.1365 -0.4149
 1873ntf    sn215934   1.469   6.534   6.780  0.0615  0.1016 -0.0960
 1873ntf    cn115935   1.442   6.713   6.763 -0.1712  0.0595 -0.1558
 1873ntf    fn415936   1.783   6.748   6.674  0.3616 -0.0933  0.2079
 1873ntf    fn415937   1.935   6.629   6.602  0.1733 -0.2408 -0.5252
 1873ntf    fn415938   1.759   6.651   6.490  0.5377  0.3260 -0.0725
 1873ntf    on515939   1.790   6.379   6.607  0.5887  1.1499 -0.3103
 1873ntf    on515940   1.801   6.488   6.829 -0.4268 -0.4163  0.3972
 1873ntf    on515941   1.486   6.505   6.921  0.1240 -0.1446 -0.1537
 1873ntf    on515942   1.347   6.483   6.724 -0.0646  0.6167 -0.2990
 1873ntf    fn415943   1.391   6.738   6.643 -0.5431 -0.6455 -0.1537
 1873ntf    fn415944   1.363   6.752   6.861 -0.1071  0.9797 -0.4580
 1873ntf    fn415945   1.549   6.790   6.771 -0.2924  0.2544 -0.3899
 1874ntf    cn115946   0.223   4.787   5.023  0.0358  0.1942  0.0705
 1874ntf    sn215947   0.355   4.664   5.010 -0.3644 -0.2050 -0.2387
 1874ntf    nn315948   0.289   4.568   4.905 -0.5943  0.0843 -0.3596
 1874ntf    sn215949   0.317   4.417   4.869 -0.0633  0.1348 -0.1669
 1874ntf    cn115950   0.164   4.334   4.923  0.0405  0.1715  0.1882
 1874ntf    fn415951   0.268   4.898   5.080 -0.0523  0.3787 -0.2163
 1874ntf    fn415952   0.181   4.830   4.905  0.2008  0.1717  0.0028
 1874ntf    fn415953   0.117   4.747   5.092 -0.0259  0.4136  0.1059
 1874ntf    on515954   0.467   4.741   4.963 -0.2191 -0.4064 -0.2275
 1874ntf    on515955   0.356   4.609   5.144 -0.0219 -0.1497 -0.2164
 1874ntf    on515956   0.427   4.353   4.938 -0.2478  0.4617  0.4443
 1874ntf    on515957   0.316   4.397   4.727  0.3758  0.2457 -0.1888
 1874ntf    fn415958   0.176   4.203   4.914  0.3874  0.2160 -0.0407
 1874ntf    fn415959   0.139   4.358   5.050  0.0361 -0.0824  0.2356
 1874ntf    fn415960   0.058   4.368   4.853  0.3324  0.0395 -0.3260
 1875ntf    cn115961   1.477   0.802   3.052  0.1638 -0.1722 -0.0734
 1875ntf    sn215962   1.491   0.884   3.213 -0.0030 -0.0757 -0.1084
 1875ntf    nn315963   1.634   0.946   3.195  0.1833 -0.3418  0.4697
 1875ntf    sn215964   1.692   1.091   3.211  0.2877 -0.3235 -0.0625
 1875ntf    cn115965   1.845   1.046   3.299  0.6176  0.0683 -0.4329
 1875ntf    fn415966   1.566   0.707   3.028  0.2434 -0.1259  0.0375
 1875ntf    fn415967   1.354   0.751   3.044  0.0099  0.2281 -0.3012
 1875ntf    fn415968   1.475   0.890   2.953  0.3367  0.3123  0.3553
 1875ntf    on515969   1.375   0.969   3.227  0.5046  0.5907  0.1386
 1875ntf    on515970   1.491   0.769   3.299 -0.8019  0.0470  0.0690
 1875ntf    on515971   1.613   1.172   3.300 -0.3735 -0.2193 -0.7396
 1875ntf    on515972   1.739   1.143   3.085 -0.2932 -0.2775 -0.2626
 1875ntf    fn415973   1.872   0.917   3.283 -0.6441 -0.2560 -0.0491
 1875ntf    fn415974   1.949   1.121   3.267  0.5064  0.4515  0.0963
 1875ntf    fn415975   1.823   1.058   3.429  0.1075  0.4905 -0.5536
 1876ntf    cn115976   2.722   4.009   1.244 -0.3103  0.1297 -0.4365
 1876ntf    sn215977   2.708   3.868   1.130 -0.2767 -0.1314 -0.1181
 1876ntf    nn315978   2.743   3.947   0.999  0.5178 -0.1346  0.0866
 1876ntf    sn215979   2.877   3.986   0.927  0.3070 -0.0581 -0.2673
 1876ntf    cn115980   2.830   4.161   0.914  0.4978  0.0037 -0.1187
 1876ntf    fn415981   2.847   4.049   1.258 -0.2477 -0.1519 -0.1795
 1876ntf    fn415982   2.638   4.109   1.222  0.1645  0.7900  0.6354
 1876ntf    fn415983   2.686   3.965   1.364  0.0482  0.3143 -0.2605
 1876ntf    on515984   2.813   3.779   1.171 -0.2986 -0.0467  0.1245
 1876ntf    on515985   2.570   3.833   1.152 -0.3190  0.0693 -0.0583
 1876ntf    on515986   2.887   3.945   0.789 -0.2063 -0.7875 -0.0974
 1876ntf    on515987   2.997   3.987   1.007  0.4265  0.1860 -0.4500
 1876ntf    fn415988   2.913   4.234   0.842  0.4006  0.0175 -0.2160
 1876ntf    fn415989   2.706   4.168   0.868  0.3853  0.1413  0.2012
 1876ntf    fn415990   2.824   4.219   1.033  0.3447  0.6586 -0.4440
 1877ntf    cn115991   0.025   2.978   0.175  0.2010 -0.0696 -0.1039
 1877ntf    sn215992   0.165   3.094   0.172  0.1449  0.0041  0.0812
 1877ntf    nn315993   0.284   2.996   0.145  0.2453  0.0017  0.5267
 1877ntf    sn215994   0.409   2.998   0.050  0.0447 -0.1268  0.2552
 1877ntf    cn115995   0.504   3.131   0.131 -0.1166  0.1711 -0.0458
 1877ntf    fn415996  -0.086   3.028   0.228  0.1090 -0.4653  0.0836
 1877ntf    fn415997  -0.010   2.936   0.055  0.0620 -0.5080  0.0854
 1877ntf    fn415998   0.061   2.879   0.255 -0.0368 -0.0203  0.0689
 1877ntf    on515999   0.130   3.185   0.066 -0.4263  0.0678  0.3183
 1877ntf    on516000   0.164   3.145   0.307  0.3177 -0.1344  0.1347
 1877ntf    on516001   0.371   3.044  -0.081 -0.1454 -0.4592  0.1958
 1877ntf    on516002   0.499   2.886   0.055  0.1066 -0.0903 -0.0611
 1877ntf    fn416003   0.465   3.250   0.086 -0.2563  0.1513  0.0210
 1877ntf    fn416004   0.482   3.135   0.262  0.0475 -0.2157 -0.0069
 1877ntf    fn416005   0.633   3.126   0.106 -0.1555  0.3017 -0.2775
 1878ntf    cn116006   3.885   0.014   2.344 -0.4367 -0.5769 -0.0902
 1878ntf    sn216007   3.985  -0.099   2.243  0.1629  0.0165 -0.1663
 1878ntf    nn316008   3.934  -0.237   2.298 -0.6506  0.2738 -0.2548
 1878ntf    sn216009   3.861  -0.361   2.236  0.1337 -0.3371  0.0303
 1878ntf    cn116010   4.007  -0.460   2.190  0.5372  0.1134  0.3395
 1878ntf    fn416011   3.925   0.029   2.470  0.0461  0.1797 -0.3222
 1878ntf    fn416012   3.884   0.138   2.297  0.0105 -0.4930  0.1132
 1878ntf    fn416013   3.758  -0.018   2.364 -0.5172 -0.1737  0.0639
 1878ntf    on516014   3.941  -0.071   2.108 -0.0525  0.0077 -0.0984
 1878ntf    on516015   4.121  -0.065   2.277 -0.2117  1.1229  0.2722
 1878ntf    on516016   3.786  -0.341   2.114 -0.3152 -0.3699  0.2995
 1878ntf    on516017   3.798  -0.434   2.343  0.0052  0.1657  0.2963
 1878ntf    fn416018   4.062  -0.525   2.291  0.1369 -0.3808  0.2391
 1878ntf    fn416019   3.972  -0.543   2.093  0.4839  0.0410  0.4207
 1878ntf    fn416020   4.107  -0.389   2.141 -0.3036  0.6053 -0.7020
 1879ntf    cn116021   2.450   3.880   4.618  0.4231  0.0722  0.4020
 1879ntf    sn216022   2.570   3.749   4.656  0.3629 -0.0859  0.0532
 1879ntf    nn316023   2.535   3.739   4.809  0.1025  0.1898  0.0142
 1879ntf    sn216024   2.629   3.703   4.930 -0.1420  0.1687  0.1978
 1879ntf    cn116025   2.659   3.868   5.000 -0.1171  0.0788  0.4013
 1879ntf    fn416026   2.327   3.847   4.655  0.1522 -0.0079 -0.5385
 1879ntf    fn416027   2.480   3.992   4.682  0.0690  0.6682 -0.4502
 1879ntf    fn416028   2.435   3.902   4.488 -0.6299 -0.2126  0.4657
 1879ntf    on516029   2.529   3.632   4.583  0.2039  0.1627 -0.2585
 1879ntf    on516030   2.693   3.812   4.613  0.2326  0.1465  0.0211
 1879ntf    on516031   2.761   3.663   4.888 -0.5356  0.0693 -1.0025
 1879ntf    on516032   2.556   3.638   5.036 -1.0358 -0.1377 -0.5802
 1879ntf    fn416033   2.740   3.852   5.103  0.3120 -0.0593  0.0464
 1879ntf    fn416034   2.724   3.953   4.922 -0.5047  0.1636  0.1658
 1879ntf    fn416035   2.552   3.925   5.053 -0.2324 -0.3695  0.6536
 1880ntf    cn116036   1.364   5.235   0.155 -0.2560 -0.3607 -0.0520
 1880ntf    sn216037   1.539   5.203   0.117 -0.1008  0.0841  0.2832
 1880ntf    nn316038   1.578   5.146   0.258 -0.9408 -0.0291  0.4783
 1880ntf    sn216039   1.650   5.012   0.300 -0.0511  0.1638 -0.3821
 1880ntf    cn116040   1.522   4.928   0.398  0.1735 -0.1338 -0.3431
 1880ntf    fn416041   1.348   5.304   0.267 -0.2691  0.5342 -0.5943
 1880ntf    fn416042   1.291   5.292   0.061  0.2504 -0.3723 -0.4545
 1880ntf    fn416043   1.300   5.120   0.168 -0.5957 -0.1856 -0.1759
 1880ntf    on516044   1.540   5.111   0.006 -0.5177 -0.0123  0.3576
 1880ntf    on516045   1.592   5.334   0.093  0.2736 -0.1718 -0.2891
 1880ntf    on516046   1.750   5.038   0.400 -0.0478 -0.2599 -0.2746
 1880ntf    on516047   1.685   4.920   0.195  0.1551  0.0598 -0.2226
 1880ntf    fn416048   1.459   5.013   0.477  0.6625 -0.5763  0.5398
 1880ntf    fn416049   1.419   4.866   0.342 -0.1748  0.1551 -0.0263
 1880ntf    fn416050   1.570   4.835   0.479  0.0560  0.1171  0.0181
 1881ntf    cn116051   6.443   1.933   3.337 -0.2510  0.1432  0.2067
 1881ntf    sn216052   6.354   1.870   3.192  0.3441 -0.1639 -0.0279
 1881ntf    nn316053   6.222   1.955   3.195  0.4279 -0.0305 -0.0960
 1881ntf    sn216054   6.202   2.097   3.132 -0.0732 -0.1721 -0.2601
 1881ntf    cn116055   6.022   2.121   3.127 -0.0052  0.3679 -0.2032
 1881ntf    fn416056   6.377   1.918   3.451 -0.0116 -0.0929  0.3136
 1881ntf    fn416057   6.558   1.868   3.347 -0.1235  0.3731  0.2348
 1881ntf    fn416058   6.475   2.061   3.334 -0.5294  0.2018 -0.3496
 1881ntf    on516059   6.438   1.901   3.079  0.0414 -0.0132 -0.2160
 1881ntf    on516060   6.327   1.731   3.217 -0.3596  0.0569  0.4590
 1881ntf    on516061   6.228   2.106   2.991 -0.3187  0.6360 -0.2608
 1881ntf    on516062   6.254   2.199   3.220 -0.0421 -0.0498 -0.4200
 1881ntf    fn416063   5.955   2.015   3.086 -0.2458  0.5698 -0.3391
 1881ntf    fn416064   5.960   2.154   3.239  0.1102 -0.0114 -0.0300
 1881ntf    fn416065   5.994   2.214   3.037  0.0135  0.5777  0.0073
 1882ntf    cn116066   4.343   6.125   4.739  0.2267  0.3904 -0.0155
 1882ntf    sn216067   4.488   6.017   4.723 -0.1154 -0.1374  0.4210
 1882ntf    nn316068   4.472   5.964   4.576  0.1295  0.1566  0.2880
 1882ntf    sn216069   4.378   5.849   4.526  0.2455  0.3042 -0.2774
 1882ntf    cn116070   4.507   5.723   4.501  0.0296  0.1202 -0.4719
 1882ntf    fn416071   4.339   6.177   4.861 -0.5868 -0.6640  0.4243
 1882ntf    fn416072   4.339   6.230   4.659 -0.2521  0.1159 -0.3632
 1882ntf    fn416073   4.228   6.060   4.727  0.4282  0.0138  0.0940
 1882ntf    on516074   4.595   6.112   4.736  0.0485 -0.2494 -0.1088
 1882ntf    on516075   4.484   5.921   4.831 -0.5079  0.1315  0.6466
 1882ntf    on516076   4.339   5.871   4.389  0.4648 -0.1279 -0.4101
 1882ntf    on516077   4.277   5.784   4.607  0.7885  0.7834  0.8085
 1882ntf    fn416078   4.452   5.606   4.472 -0.0264  0.0052  0.0874
 1882ntf    fn416079   4.604   5.751   4.416 -0.0182  0.1531 -0.5156
 1882ntf    fn416080   4.572   5.687   4.611 -0.2308 -0.6104 -0.5479
 1883ntf    cn116081   0.992   0.813   6.397  0.1274  0.2233 -0.2161
 1883ntf    sn216082   0.900   0.970   6.392  0.0805  0.2066  0.1030
 1883ntf    nn316083   0.982   1.044   6.280 -0.3954 -0.2480 -0.5585
 1883ntf    sn216084   1.046   1.188   6.277 -0.0308 -0.3897  0.1392
 1883ntf    cn116085   0.945   1.282   6.159  0.2134 -0.2451  0.0438
 1883ntf    fn416086   1.114   0.813   6.347  0.2928 -0.3235  0.1821
 1883ntf    fn416087   1.009   0.759   6.516  0.1607  0.3506 -0.1632
 1883ntf    fn416088   0.930   0.718   6.329  0.1023 -0.1960  0.3844
 1883ntf    on516089   0.770   0.936   6.339  0.1434 -0.2068  0.2097
 1883ntf    on516090   0.899   1.026   6.525 -0.1494  0.0591  0.1638
 1883ntf    on516091   1.178   1.175   6.221  0.0728 -0.4196  0.3880
 1883ntf    on516092   1.041   1.273   6.393 -0.1052 -0.0017 -0.1494
 1883ntf    fn416093   0.816   1.271   6.188  0.0781  0.0328 -0.4349
 1883ntf    fn416094   0.959   1.414   6.157 -0.5868 -0.1539 -0.2089
 1883ntf    fn416095   0.965   1.238   6.036  0.2587 -0.0284 -0.0277
 1884ntf    cn116096   3.861   6.039   3.031 -0.1482 -0.2221 -0.2763
 1884ntf    sn216097   4.028   5.977   2.995  0.1301  0.3485  0.0212
 1884ntf    nn316098   4.015   5.829   3.047 -0.5156  0.3188 -0.2187
 1884ntf    sn216099   4.081   5.748   3.164 -0.2484  0.6776 -0.1180
 1884ntf    cn116100   4.143   5.606   3.070  0.0039  0.3239  0.5760
 1884ntf    fn416101   3.855   6.171   3.042  0.6102 -0.2264  0.2371
 1884ntf    fn416102   3.767   5.992   2.951 -0.2424 -0.2913 -0.1240
 1884ntf    fn416103   3.828   5.993   3.150  0.5723 -0.1036 -0.0215
 1884ntf    on516104   4.036   5.975   2.851  0.2354  0.3355  0.0266
 1884ntf    on516105   4.111   6.065   3.074 -0.7681  0.8482  0.4271
 1884ntf    on516106   3.980   5.697   3.254  0.1257 -0.1323 -0.1556
 1884ntf    on516107   4.198   5.801   3.230 -0.0691 -0.2666  0.3349
 1884ntf    fn416108   4.212   5.650   2.966 -0.5996  0.1419  0.0894
 1884ntf    fn416109   4.221   5.516   3.129  0.1898  0.2475  0.2168
 1884ntf    fn416110   4.044   5.531   3.024 -0.2751  0.6530  0.6338
 1885ntf    cn116111   0.610   6.629   2.331 -0.0068  0.1785 -0.2850
 1885ntf    sn216112   0.569   6.800   2.381 -0.0492  0.1390 -0.1864
 1885ntf    nn316113   0.547   6.864   2.240  0.0131  0.1397 -0.1954
 1885ntf    sn216114   0.641   6.951   2.148  0.1717  0.3709  0.1845
 1885ntf    cn116115   0.607   7.114   2.221  0.6002  0.3152  0.5110
 1885ntf    fn416116   0.694   6.623   2.229  0.7810 -0.1338  0.3673
 1885ntf    fn416117   0.654   6.553   2.430 -0.6404 -0.1386 -0.2447
 1885ntf    fn416118   0.503   6.569   2.282 -0.1689  0.0027  0.2700
 1885ntf    on516119   0.448   6.783   2.457 -0.0436 -0.4867 -0.3071
 1885ntf    on516120   0.692   6.836   2.447  0.0788 -0.1629 -0.2563
 1885ntf    on516121   0.583   6.980   2.020  0.1399  0.3459  0.1930
 1885ntf    on516122   0.784   6.934   2.159  0.1949  0.1849 -0.3658
 1885ntf    fn416123   0.677   7.212   2.167  0.2783 -0.0222 -0.5478
 1885ntf    fn416124   0.483   7.158   2.214  0.3856 -0.3706 -0.0128
 1885ntf    fn416125   0.641   7.112   2.349  0.0000 -0.6357  0.6613
 1886ntf    cn116126   3.166   0.103   4.890 -0.3341  0.4321  0.0374
 1886ntf    sn216127   3.136   0.242   5.002 -0.1890  0.1308  0.4524
 1886ntf    nn316128   3.090   0.181   5.140 -0.6181  0.0172  0.2620
 1886ntf    sn216129   3.122   0.234   5.284  0.1001 -0.0117  0.1214
 1886ntf    cn116130   3.146   0.069   5.356  0.0079 -0.2352 -0.3572
 1886ntf    fn416131   3.270   0.031   4.931 -0.3336  0.1078 -0.5177
 1886ntf    fn416132   3.060   0.027   4.868  0.1409 -0.2567  0.0774
 1886ntf    fn416133   3.199   0.144   4.768  0.0492  0.0063 -0.0078
 1886ntf    on516134   3.260   0.315   4.998  0.1426 -0.4524  0.0232
 1886ntf    on516135   3.033   0.316   4.932  0.3345  0.1203 -0.3263
 1886ntf    on516136   3.002   0.276   5.353 -0.1996 -0.1313 -0.3220
 1886ntf    on516137   3.250   0.295   5.307  0.2171 -0.1453 -0.1741
 1886ntf    fn416138   3.041  -0.011   5.344 -0.6506  0.5415  0.1895
 1886ntf    fn416139   3.252   0.006   5.307  0.4746  0.5717 -0.3948
 1886ntf    fn416140   3.171   0.074   5.486 -0.1050 -0.3464 -0.3309
 1887ntf    cn116141   2.731   1.073   4.760 -0.2475 -0.3474  0.1593
 1887ntf    sn216142   2.587   1.020   4.858 -0.0854 -0.6657  0.2279
 1887ntf    nn316143   2.542   0.899   4.770 -0.0588 -0.2607 -0.3494
 1887ntf    sn216144   2.551   0.742   4.772 -0.1669 -0.2616  0.0788
 1887ntf    cn116145   2.429   0.713   4.641 -0.2347 -0.0115  0.0865
 1887ntf    fn416146   2.828   0.983   4.752  0.2359  0.2374 -0.6573
 1887ntf    fn416147   2.696   1.094   4.634  0.2402  0.2307  0.1169
 1887ntf    fn416148   2.787   1.187   4.798  0.1252 -0.3917 -0.2548
 1887ntf    on516149   2.643   0.986   4.987  0.4318 -0.4876  0.0523
 1887ntf    on516150   2.498   1.134   4.855 -0.1415 -0.7227 -0.2699
 1887ntf    on516151   2.492   0.695   4.895 -0.5391 -0.0227 -0.0073
 1887ntf    on516152   2.670   0.683   4.716  0.0716  0.4083 -0.1284
 1887ntf    fn416153   2.310   0.764   4.667  0.0974  0.5929  0.4529
 1887ntf    fn416154   2.470   0.774   4.531 -0.0178 -0.1017  0.1166
 1887ntf    fn416155   2.400   0.588   4.610  0.7808 -0.1707 -0.2539
 1888ntf    cn116156   2.465   4.894   2.779 -0.3414 -0.1544 -0.1041
 1888ntf    sn216157   2.419   5.069   2.760  0.1691 -0.0196 -0.1074
 1888ntf    nn316158   2.458   5.115   2.904 -0.7639  0.1830  0.0853
 1888ntf    sn216159   2.582   5.199   2.953 -0.0933 -0.6337 -0.1940
 1888ntf    cn116160   2.630   5.100   3.098 -0.0783 -0.5651 -0.1521
 1888ntf    fn416161   2.494   4.837   2.663  0.2071  0.1991 -0.1428
 1888ntf    fn416162   2.572   4.885   2.856 -0.2968  0.4570 -0.0879
 1888ntf    fn416163   2.368   4.826   2.839  0.3347 -0.7397  0.3443
 1888ntf    on516164   2.497   5.116   2.648 -0.3554  0.4422 -0.2824
 1888ntf    on516165   2.276   5.060   2.740  0.1435  0.1639 -0.0099
 1888ntf    on516166   2.539   5.320   3.018 -0.3974 -0.9697  0.2404
 1888ntf    on516167   2.706   5.202   2.879  0.2966  0.6484  0.4930
 1888ntf    fn416168   2.539   5.093   3.194 -0.2574 -0.1975 -0.2926
 1888ntf    fn416169   2.650   4.976   3.055 -0.4019 -0.7485  0.2222
 1888ntf    fn416170   2.742   5.126   3.162 -0.0131 -0.7403 -0.1943
 1889ntf    cn116171   1.841   2.105   5.403  0.2771  0.1245  0.3380
 1889ntf    sn216172   1.796   1.979   5.525  0.0879 -0.1530 -0.0160
 1889ntf    nn316173   1.753   2.069   5.647  0.6268 -0.1242  0.1550
 1889ntf    sn216174   1.790   2.049   5.798  0.1078  0.1807  0.3243
 1889ntf    cn116175   1.947   2.139   5.817  0.0182  0.4943 -0.3977
 1889ntf    fn416176   1.954   2.166   5.437  0.2567  0.1870  0.2952
 1889ntf    fn416177   1.863   2.051   5.284 -0.2679  0.1090  0.2408
 1889ntf    fn416178   1.743   2.193   5.386  0.0444 -0.2004 -0.0344
 1889ntf    on516179   1.678   1.914   5.474 -0.0882 -0.0707  0.2813
 1889ntf    on516180   1.919   1.907   5.547  0.3025  0.2041 -0.0395
 1889ntf    on516181   1.817   1.913   5.837 -0.1201  0.1052  0.2224
 1889ntf    on516182   1.699   2.120   5.884 -0.0066  0.1747  0.2089
 1889ntf    fn416183   1.977   2.167   5.942  0.2093  0.0407 -0.3403
 1889ntf    fn416184   2.051   2.076   5.765 -0.4847 -0.0266 -0.7962
 1889ntf    fn416185   1.936   2.262   5.769  0.1472  0.4119 -0.6426
 1890ntf    cn116186   2.895   0.437   3.805 -0.0601  0.1784  0.1012
 1890ntf    sn216187   2.812   0.589   3.749  0.0658  0.1870 -0.0637
 1890ntf    nn316188   2.884   0.616   3.612  0.4691 -0.5247 -0.0011
 1890ntf    sn216189   2.818   0.640   3.471  0.3328  0.1804  0.1757
 1890ntf    cn116190   2.952   0.580   3.364  0.1621  0.1092  0.0018
 1890ntf    fn416191   3.026   0.456   3.807 -0.0877  0.3171  0.7013
 1890ntf    fn416192   2.855   0.392   3.922 -0.4570  0.2720  0.0016
 1890ntf    fn416193   2.873   0.342   3.716  0.9398  0.5518 -0.5699
 1890ntf    on516194   2.670   0.567   3.733 -0.0484  0.0539  1.0462
 1890ntf    on516195   2.836   0.679   3.858 -0.2153  0.6871 -0.4144
 1890ntf    on516196   2.810   0.782   3.449 -0.3994  0.1028 -0.0694
 1890ntf    on516197   2.708   0.551   3.441  0.3431  0.4490 -0.6676
 1890ntf    fn416198   3.060   0.654   3.378  0.1893 -0.0998  0.9711
 1890ntf    fn416199   2.982   0.453   3.391  0.2909  0.0013 -0.6349
 1890ntf    fn416200   2.907   0.585   3.240 -0.0882 -0.7016  0.0495
   6.85633   6.85633   6.85633
